Second Layer Distance is 0.313

--------------------------------------------------------------------------
The library attempted to open the following supporting CUDA libraries,
but each of them failed.  CUDA-aware support is disabled.
libcuda.so.1: cannot open shared object file: No such file or directory
libcuda.dylib: cannot open shared object file: No such file or directory
/usr/lib64/libcuda.so.1: cannot open shared object file: No such file or directory
/usr/lib64/libcuda.dylib: cannot open shared object file: No such file or directory
If you are not interested in CUDA-aware support, then run with
--mca opal_warn_on_missing_libcuda 0 to suppress this message.  If you are interested
in CUDA-aware support, then try setting LD_LIBRARY_PATH to the location
of libcuda.so.1 to get passed this issue.
--------------------------------------------------------------------------
--------------------------------------------------------------------------
No OpenFabrics connection schemes reported that they were able to be
used on a specific port.  As such, the openib BTL (OpenFabrics
support) will be disabled for this port.

  Local host:           d-4-13-3
  Local device:         mlx5_1
  Local port:           1
  CPCs attempted:       rdmacm, udcm
--------------------------------------------------------------------------

*************** JDFTx 1.6.0 (git hash 42ebbcc2) ***************

Start date and time: Sat Apr  2 14:13:09 2022
Executable jdftx with command-line: -i Moire.dos.in
Running on hosts (process indices):  d-4-13-3 (0-18)
Divided in process groups (process indices):  0 (0)  1 (1)  2 (2)  3 (3)  4 (4)  5 (5)  6 (6)  7 (7)  8 (8)  9 (9)  10 (10)  11 (11)  12 (12)  13 (13)  14 (14)  15 (15)  16 (16)  17 (17)  18 (18)
Resource initialization completed at t[s]:      0.00
Run totals: 19 processes, 48 threads, 0 GPUs


Input parsed successfully to the following command list (including defaults):

basis kpoint-dependent
coords-type Lattice
core-overlap-check vector
coulomb-interaction Slab 001
davidson-band-ratio 1.1
dump End DOS
dump-name K-0.313.$VAR
elec-cutoff 20
elec-eigen-algo Davidson
elec-ex-corr gga-PBE
elec-initial-magnetization 1.000000 no
elec-smearing Fermi 1e-05
electronic-minimize  \
	dirUpdateScheme      FletcherReeves \
	linminMethod         DirUpdateRecommended \
	nIterations          100 \
	history              15 \
	knormThreshold       0 \
	energyDiffThreshold  1e-08 \
	nEnergyDiff          2 \
	alphaTstart          1 \
	alphaTmin            1e-10 \
	updateTestStepSize   yes \
	alphaTreduceFactor   0.1 \
	alphaTincreaseFactor 3 \
	nAlphaAdjustMax      3 \
	wolfeEnergy          0.0001 \
	wolfeGradient        0.9 \
	fdTest               no
exchange-regularization WignerSeitzTruncated
fix-electron-density ../K-0.313.$VAR
fluid None
fluid-ex-corr (null) lda-PZ
fluid-gummel-loop 10 1.000000e-05
fluid-minimize  \
	dirUpdateScheme      PolakRibiere \
	linminMethod         DirUpdateRecommended \
	nIterations          100 \
	history              15 \
	knormThreshold       0 \
	energyDiffThreshold  0 \
	nEnergyDiff          2 \
	alphaTstart          1 \
	alphaTmin            1e-10 \
	updateTestStepSize   yes \
	alphaTreduceFactor   0.1 \
	alphaTincreaseFactor 3 \
	nAlphaAdjustMax      3 \
	wolfeEnergy          0.0001 \
	wolfeGradient        0.9 \
	fdTest               no
fluid-solvent H2O 55.338 ScalarEOS \
	epsBulk 78.4 \
	pMol 0.92466 \
	epsInf 1.77 \
	Pvap 1.06736e-10 \
	sigmaBulk 4.62e-05 \
	Rvdw 2.61727 \
	Res 1.42 \
	tauNuc 343133 \
	poleEl 15 7 1
forces-output-coords Positions
ion N   0.952380952380952   0.761904761904762   0.000000000000000 0
ion N   1.428571428571428   1.285714285714286   0.313000000000000 0
ion N   0.380952380952381   0.904761904761905   0.000000000000000 0
ion N   0.714285714285714   1.142857142857143   0.313000000000000 0
ion N   0.523809523809524   0.619047619047619   0.000000000000000 0
ion N   1.000000000000000   1.000000000000000   0.313000000000000 0
ion N   0.666666666666667   0.333333333333333   0.000000000000000 0
ion N   1.285714285714286   0.857142857142857   0.313000000000000 0
ion N   0.809523809523810   0.047619047619048   0.000000000000000 0
ion N   1.571428571428571   0.714285714285714   0.313000000000000 0
ion N   0.095238095238095   0.476190476190476   0.000000000000000 0
ion N   0.238095238095238   0.190476190476190   0.000000000000000 0
ion N   0.857142857142857   0.571428571428571   0.313000000000000 0
ion N   1.142857142857143   0.428571428571429   0.313000000000000 0
ion B   0.571428571428572   0.857142857142857   0.000000000000000 0
ion B   0.952380952380952   1.190476190476190   0.313000000000000 0
ion B   0.714285714285714   0.571428571428571   0.000000000000000 0
ion B   1.238095238095238   1.047619047619047   0.313000000000000 0
ion B   0.857142857142857   0.285714285714286   0.000000000000000 0
ion B   1.523809523809524   0.904761904761905   0.313000000000000 0
ion B   0.142857142857143   0.714285714285714   0.000000000000000 0
ion B   0.285714285714286   0.428571428571429   0.000000000000000 0
ion B   0.809523809523810   0.761904761904762   0.313000000000000 0
ion B   0.428571428571429   0.142857142857143   0.000000000000000 0
ion B   1.095238095238095   0.619047619047619   0.313000000000000 0
ion B   1.380952380952381   0.476190476190476   0.313000000000000 0
ion B   0.000000000000000   0.000000000000000   0.000000000000000 0
ion B   0.666666666666667   0.333333333333333   0.313000000000000 0
ion K   0.333333333300000   0.666666666600000   0.156500000000000 0
ion-species SG15/$ID_ONCV_PBE.upf
ion-width 0
ionic-minimize  \
	dirUpdateScheme      L-BFGS \
	linminMethod         DirUpdateRecommended \
	nIterations          0 \
	history              15 \
	knormThreshold       0.0001 \
	energyDiffThreshold  1e-06 \
	nEnergyDiff          2 \
	alphaTstart          1 \
	alphaTmin            1e-10 \
	updateTestStepSize   yes \
	alphaTreduceFactor   0.1 \
	alphaTincreaseFactor 3 \
	nAlphaAdjustMax      3 \
	wolfeEnergy          0.0001 \
	wolfeGradient        0.9 \
	fdTest               no
kpoint   0.000000000000   0.000000000000   0.000000000000  1.00000000000000
kpoint-folding 36 36 1 
latt-move-scale 1 1 1
latt-scale 1 1 1 
lattice  \
	 -11.818700000000000    2.363740000000000    0.000000000000000  \
	   4.094120000000000  -12.282400000000001    0.000000000000000  \
	   0.000000000000000    0.000000000000000   40.000000000000000 
lattice-minimize  \
	dirUpdateScheme      L-BFGS \
	linminMethod         DirUpdateRecommended \
	nIterations          0 \
	history              15 \
	knormThreshold       0 \
	energyDiffThreshold  1e-06 \
	nEnergyDiff          2 \
	alphaTstart          1 \
	alphaTmin            1e-10 \
	updateTestStepSize   yes \
	alphaTreduceFactor   0.1 \
	alphaTincreaseFactor 3 \
	nAlphaAdjustMax      3 \
	wolfeEnergy          0.0001 \
	wolfeGradient        0.9 \
	fdTest               no
lcao-params -1 1e-06 1e-05
pcm-variant GLSSA13
spintype z-spin
subspace-rotation-factor 1 yes
symmetries automatic
symmetry-threshold 0.0001
van-der-waals D3



---------- Setting up symmetries ----------

Found 24 point-group symmetries of the bravais lattice
Found 6 space-group symmetries with basis
Applied RMS atom displacement 1.31765e-10 bohrs to make symmetries exact.

---------- Initializing the Grid ----------
R = 
[     -11.8187      2.36374            0  ]
[      4.09412     -12.2824            0  ]
[            0            0           40  ]
unit cell volume = 5419.38
G =
[  -0.569604   -0.10962          0  ]
[  -0.189867    -0.5481          0  ]
[          0          0    0.15708  ]
Minimum fftbox size, Smin = [  52  52  164  ]
Chosen fftbox size, S = [  54  54  168  ]

---------- Exchange Correlation functional ----------
Initalized PBE GGA exchange.
Initalized PBE GGA correlation.

---------- Setting up pseudopotentials ----------
Width of ionic core gaussian charges (only for fluid interactions / plotting) set to 0

Reading pseudopotential file '/home/gridsan/aligho/DFT/build-Nov24/pseudopotentials/SG15/N_ONCV_PBE.upf':
  'N' pseudopotential, 'PBE' functional
  Generated using ONCVPSP code by D. R. Hamann
  Author: Martin Schlipf and Francois Gygi  Date: 150915.
  5 valence electrons, 2 orbitals, 4 projectors, 1058 radial grid points, with lMax = 1
  Transforming local potential to a uniform radial grid of dG=0.02 with 1514 points.
  Transforming nonlocal projectors to a uniform radial grid of dG=0.02 with 432 points.
    2S    l: 0   occupation:  2.0   eigenvalue: -0.682907
    2P    l: 1   occupation:  3.0   eigenvalue: -0.260548
  Transforming atomic orbitals to a uniform radial grid of dG=0.02 with 432 points.
  Core radius for overlap checks: 1.35 bohrs.
  Reading pulay file /home/gridsan/aligho/DFT/build-Nov24/pseudopotentials/SG15/N_ONCV_PBE.pulay ... using dE_dnG = -2.956256e-02 computed for Ecut = 20.

Reading pseudopotential file '/home/gridsan/aligho/DFT/build-Nov24/pseudopotentials/SG15/B_ONCV_PBE.upf':
  'B' pseudopotential, 'PBE' functional
  Generated using ONCVPSP code by D. R. Hamann
  Author: Martin Schlipf and Francois Gygi  Date: 150915.
  3 valence electrons, 2 orbitals, 4 projectors, 1534 radial grid points, with lMax = 1
  Transforming local potential to a uniform radial grid of dG=0.02 with 1514 points.
  Transforming nonlocal projectors to a uniform radial grid of dG=0.02 with 432 points.
    2S    l: 0   occupation:  2.0   eigenvalue: -0.347027
    2P    l: 1   occupation:  1.0   eigenvalue: -0.132548
  Transforming atomic orbitals to a uniform radial grid of dG=0.02 with 432 points.
  Core radius for overlap checks: 1.60 bohrs.
  Reading pulay file /home/gridsan/aligho/DFT/build-Nov24/pseudopotentials/SG15/B_ONCV_PBE.pulay ... using dE_dnG = -3.748568e-04 computed for Ecut = 20.

Reading pseudopotential file '/home/gridsan/aligho/DFT/build-Nov24/pseudopotentials/SG15/K_ONCV_PBE.upf':
  'K' pseudopotential, 'PBE' functional
  Generated using ONCVPSP code by D. R. Hamann
  Author: Martin Schlipf and Francois Gygi  Date: 150915.
  9 valence electrons, 3 orbitals, 6 projectors, 2222 radial grid points, with lMax = 2
  Transforming local potential to a uniform radial grid of dG=0.02 with 1514 points.
  Transforming nonlocal projectors to a uniform radial grid of dG=0.02 with 432 points.
    3S    l: 0   occupation:  2.0   eigenvalue: -1.298836
    3P    l: 1   occupation:  6.0   eigenvalue: -0.691386
    4S    l: 0   occupation:  1.0   eigenvalue: -0.085223
  Transforming atomic orbitals to a uniform radial grid of dG=0.02 with 432 points.
  Core radius for overlap checks: 2.06 bohrs.
  Reading pulay file /home/gridsan/aligho/DFT/build-Nov24/pseudopotentials/SG15/K_ONCV_PBE.pulay ... using dE_dnG = -1.597219e-05 computed for Ecut = 20.

Initialized 3 species with 29 total atoms.

Folded 1 k-points by 36x36x1 to 1296 k-points.

---------- Setting up k-points, bands, fillings ----------
Adding inversion symmetry to k-mesh for non-inversion-symmetric unit cell.
Reduced to 127 k-points under symmetry. 
Computing the number of bands and number of electrons
Calculating initial fillings.
nElectrons: 121.000000   nBands: 117   nStates: 254

----- Setting up reduced wavefunction bases (one per k-point) -----
average nbasis = 23152.266 , ideal nbasis = 23152.016

----- Initializing Supercell corresponding to k-point mesh -----
Lattice vector linear combinations in supercell:
[  36   0   0  ]
[   0  36   0  ]
[   0   0   1  ]
Supercell lattice vectors:
[  -425.473  85.0946  0  ]
[  147.388  -442.166  0  ]
[  0  0  40  ]

---------- Setting up coulomb interaction ----------
Initialized slab truncation along lattice direction 001

Initializing DFT-D3 calculator:
	Parameters set for gga-PBE functional
	s6:  1.000  s_r6:  1.217
	s8:  0.722  s_r8:  1.000
	Per-atom parameters loaded for:
	 N:  sqrtQ[a0]:  2.712  Rcov[a0]:  1.342  CN: [ 0.00 0.99 2.01 2.99 ]
	 B:  sqrtQ[a0]:  3.644  Rcov[a0]:  1.455  CN: [ 0.00 0.97 1.94 2.91 4.59 ]
	 K:  sqrtQ[a0]:  7.978  Rcov[a0]:  3.326  CN: [ 0.00 0.98 ]

---------- Setting up 2D ewald sum ----------
Optimum gaussian width for ewald sums = 6.943804 bohr.
Real space sums over 289 unit cells with max indices [  8  8  0  ]
Reciprocal space sums over 81 terms with max indices [  4  4  0  ]

Computing DFT-D3 correction:
# coordination-number N 3.159 3.159 3.332 3.159 3.332 3.148 3.148 3.332 3.159 3.332 3.332 3.159 3.159 3.332
# coordination-number B 3.598 3.369 3.369 3.369 3.369 3.598 3.598 3.598 3.369 3.369 3.598 3.598 3.355 3.355
# coordination-number K 3.150
# diagonal-C6 N 15.60 15.60 15.59 15.60 15.59 15.61 15.61 15.59 15.60 15.59 15.59 15.60 15.60 15.59
# diagonal-C6 B 31.04 31.43 31.43 31.43 31.43 31.04 31.04 31.04 31.43 31.43 31.04 31.04 31.44 31.44
# diagonal-C6 K 338.02
EvdW_6 =   -0.031834
EvdW_8 =   -0.032418

---------- Allocating electronic variables ----------
Reading n_up from file '../K-0.313.n_up' ... done
Reading n_dn from file '../K-0.313.n_dn' ... done
Initializing wave functions:  linear combination of atomic orbitals
[d-4-13-3:36196] 18 more processes have sent help message help-mpi-common-cuda.txt / dlopen failed
[d-4-13-3:36196] Set MCA parameter "orte_base_help_aggregate" to 0 to see all help / error messages
[d-4-13-3:36196] 18 more processes have sent help message help-mpi-btl-openib-cpc-base.txt / no cpcs for port


---- Citations for features of the code used in this run ----

   Software package:
      R. Sundararaman, K. Letchworth-Weaver, K.A. Schwarz, D. Gunceler, Y. Ozhabes and T.A. Arias, 'JDFTx: software for joint density-functional theory', SoftwareX 6, 278 (2017)

   gga-PBE exchange-correlation functional:
      J.P. Perdew, K. Burke and M. Ernzerhof, Phys. Rev. Lett. 77, 3865 (1996)

   Pseudopotentials:
      M Schlipf and F Gygi, Comput. Phys. Commun. 196, 36 (2015)

   Truncated Coulomb potentials:
      R. Sundararaman and T.A. Arias, Phys. Rev. B 87, 165122 (2013)

   DFT-D3 dispersion correction:
      S. Grimme, J. Antony, S. Ehrlich and H. Krieg, J. Chem. Phys. 132, 154104 (2010)

   Total energy minimization with Auxiliary Hamiltonian:
      C. Freysoldt, S. Boeck, and J. Neugebauer, Phys. Rev. B 79, 241103(R) (2009)

   Linear-tetrahedron sampling for density of states:
      G. Lehmann and M. Taut, Phys. status solidi (b) 54, 469 (1972)

This list may not be complete. Please suggest additional citations or
report any other bugs at https://github.com/shankar1729/jdftx/issues

Initialization completed successfully at t[s]:     93.25


----------- Band structure minimization -------------
Minimization will be done independently for each quantum number.

---- Minimization of quantum number:     0  [ +0.0000000 +0.0000000 +0.0000000 ]  0.000771605  spin +1 ----
BandDavidson: Iter:   0  Eband: -0.008114107768400
BandDavidson: Iter:   1  Eband: -0.013736247093299  dEband: -5.622139e-03  t[s]:    103.43
BandDavidson: Iter:   2  Eband: -0.015581663264523  dEband: -1.845416e-03  t[s]:    109.57
BandDavidson: Iter:   3  Eband: -0.016421413751100  dEband: -8.397505e-04  t[s]:    115.69
BandDavidson: Iter:   4  Eband: -0.016928950913122  dEband: -5.075372e-04  t[s]:    121.80
BandDavidson: Iter:   5  Eband: -0.017179646732074  dEband: -2.506958e-04  t[s]:    127.90
BandDavidson: Iter:   6  Eband: -0.017294449581360  dEband: -1.148028e-04  t[s]:    133.94
BandDavidson: Iter:   7  Eband: -0.017385721919436  dEband: -9.127234e-05  t[s]:    139.98
BandDavidson: Iter:   8  Eband: -0.017436321044042  dEband: -5.059912e-05  t[s]:    146.11
BandDavidson: Iter:   9  Eband: -0.017469442298518  dEband: -3.312125e-05  t[s]:    152.24
BandDavidson: Iter:  10  Eband: -0.017493336727386  dEband: -2.389443e-05  t[s]:    158.31
BandDavidson: Iter:  11  Eband: -0.017514284636714  dEband: -2.094791e-05  t[s]:    164.35
BandDavidson: Iter:  12  Eband: -0.017536179836924  dEband: -2.189520e-05  t[s]:    170.37
BandDavidson: Iter:  13  Eband: -0.017552705829154  dEband: -1.652599e-05  t[s]:    176.53
BandDavidson: Iter:  14  Eband: -0.017565685568278  dEband: -1.297974e-05  t[s]:    182.62
BandDavidson: Iter:  15  Eband: -0.017575864819016  dEband: -1.017925e-05  t[s]:    188.64
BandDavidson: Iter:  16  Eband: -0.017583993440243  dEband: -8.128621e-06  t[s]:    194.71
BandDavidson: Iter:  17  Eband: -0.017590518327361  dEband: -6.524887e-06  t[s]:    200.83
BandDavidson: Iter:  18  Eband: -0.017596033438177  dEband: -5.515111e-06  t[s]:    206.94
BandDavidson: Iter:  19  Eband: -0.017601038904897  dEband: -5.005467e-06  t[s]:    213.02
BandDavidson: Iter:  20  Eband: -0.017608824053323  dEband: -7.785148e-06  t[s]:    219.03
BandDavidson: Iter:  21  Eband: -0.017618567224236  dEband: -9.743171e-06  t[s]:    224.96
BandDavidson: Iter:  22  Eband: -0.017627927444632  dEband: -9.360220e-06  t[s]:    230.97
BandDavidson: Iter:  23  Eband: -0.017636302650636  dEband: -8.375206e-06  t[s]:    237.01
BandDavidson: Iter:  24  Eband: -0.017643426647311  dEband: -7.123997e-06  t[s]:    242.93
BandDavidson: Iter:  25  Eband: -0.017649271289246  dEband: -5.844642e-06  t[s]:    248.83
BandDavidson: Iter:  26  Eband: -0.017653981135659  dEband: -4.709846e-06  t[s]:    254.60
BandDavidson: Iter:  27  Eband: -0.017657762680023  dEband: -3.781544e-06  t[s]:    260.41
BandDavidson: Iter:  28  Eband: -0.017660778188645  dEband: -3.015509e-06  t[s]:    266.22
BandDavidson: Iter:  29  Eband: -0.017663176755953  dEband: -2.398567e-06  t[s]:    271.76
BandDavidson: Iter:  30  Eband: -0.017665097885171  dEband: -1.921129e-06  t[s]:    277.25
BandDavidson: Iter:  31  Eband: -0.017666618752186  dEband: -1.520867e-06  t[s]:    282.38
BandDavidson: Iter:  32  Eband: -0.017667808338124  dEband: -1.189586e-06  t[s]:    286.99
BandDavidson: Iter:  33  Eband: -0.017668738035499  dEband: -9.296974e-07  t[s]:    291.43
BandDavidson: Iter:  34  Eband: -0.017669477946663  dEband: -7.399112e-07  t[s]:    295.77
BandDavidson: Iter:  35  Eband: -0.017670068403841  dEband: -5.904572e-07  t[s]:    300.00
BandDavidson: Iter:  36  Eband: -0.017670541135616  dEband: -4.727318e-07  t[s]:    304.22
BandDavidson: Iter:  37  Eband: -0.017670919039346  dEband: -3.779037e-07  t[s]:    308.30
BandDavidson: Iter:  38  Eband: -0.017671220734423  dEband: -3.016951e-07  t[s]:    312.26
BandDavidson: Iter:  39  Eband: -0.017671462834890  dEband: -2.421005e-07  t[s]:    316.27
BandDavidson: Iter:  40  Eband: -0.017671655892515  dEband: -1.930576e-07  t[s]:    320.13
BandDavidson: Iter:  41  Eband: -0.017671810826554  dEband: -1.549340e-07  t[s]:    323.94
BandDavidson: Iter:  42  Eband: -0.017671936333429  dEband: -1.255069e-07  t[s]:    327.83
BandDavidson: Iter:  43  Eband: -0.017672038538588  dEband: -1.022052e-07  t[s]:    331.63
BandDavidson: Iter:  44  Eband: -0.017672121578173  dEband: -8.303958e-08  t[s]:    335.47
BandDavidson: Iter:  45  Eband: -0.017672189285547  dEband: -6.770737e-08  t[s]:    339.25
BandDavidson: Iter:  46  Eband: -0.017672244234906  dEband: -5.494936e-08  t[s]:    342.99
BandDavidson: Iter:  47  Eband: -0.017672289223523  dEband: -4.498862e-08  t[s]:    346.74
BandDavidson: Iter:  48  Eband: -0.017672325830285  dEband: -3.660676e-08  t[s]:    350.50
BandDavidson: Iter:  49  Eband: -0.017672355425533  dEband: -2.959525e-08  t[s]:    354.13
BandDavidson: Iter:  50  Eband: -0.017672379559045  dEband: -2.413351e-08  t[s]:    357.76
BandDavidson: Iter:  51  Eband: -0.017672399283630  dEband: -1.972458e-08  t[s]:    361.40
BandDavidson: Iter:  52  Eband: -0.017672415485343  dEband: -1.620171e-08  t[s]:    364.85
BandDavidson: Iter:  53  Eband: -0.017672428860751  dEband: -1.337541e-08  t[s]:    368.23
BandDavidson: Iter:  54  Eband: -0.017672439984992  dEband: -1.112424e-08  t[s]:    371.68
BandDavidson: Iter:  55  Eband: -0.017672449285461  dEband: -9.300469e-09  t[s]:    375.03
BandDavidson: Converged (dEband<1.000000e-08)

---- Minimization of quantum number:     1  [ +0.0000000 +0.0277778 +0.0000000 ]  0.004629630  spin +1 ----
BandDavidson: Iter:   0  Eband: -0.048705833391572
BandDavidson: Iter:   1  Eband: -0.082501689870638  dEband: -3.379586e-02  t[s]:    384.47
BandDavidson: Iter:   2  Eband: -0.093572742580015  dEband: -1.107105e-02  t[s]:    390.48
BandDavidson: Iter:   3  Eband: -0.098261024982024  dEband: -4.688282e-03  t[s]:    396.57
BandDavidson: Iter:   4  Eband: -0.101547287421621  dEband: -3.286262e-03  t[s]:    402.69
BandDavidson: Iter:   5  Eband: -0.103092466040324  dEband: -1.545179e-03  t[s]:    408.82
BandDavidson: Iter:   6  Eband: -0.103809147446364  dEband: -7.166814e-04  t[s]:    414.88
BandDavidson: Iter:   7  Eband: -0.104141429928509  dEband: -3.322825e-04  t[s]:    420.89
BandDavidson: Iter:   8  Eband: -0.104376294785797  dEband: -2.348649e-04  t[s]:    426.89
BandDavidson: Iter:   9  Eband: -0.104592099320046  dEband: -2.158045e-04  t[s]:    432.89
BandDavidson: Iter:  10  Eband: -0.104788997472381  dEband: -1.968982e-04  t[s]:    438.90
BandDavidson: Iter:  11  Eband: -0.104974185075604  dEband: -1.851876e-04  t[s]:    444.89
BandDavidson: Iter:  12  Eband: -0.105122709658023  dEband: -1.485246e-04  t[s]:    450.82
BandDavidson: Iter:  13  Eband: -0.105239359324117  dEband: -1.166497e-04  t[s]:    456.83
BandDavidson: Iter:  14  Eband: -0.105330793040658  dEband: -9.143372e-05  t[s]:    462.89
BandDavidson: Iter:  15  Eband: -0.105403514492118  dEband: -7.272145e-05  t[s]:    469.02
BandDavidson: Iter:  16  Eband: -0.105464551823001  dEband: -6.103733e-05  t[s]:    475.12
BandDavidson: Iter:  17  Eband: -0.105524419219479  dEband: -5.986740e-05  t[s]:    481.16
BandDavidson: Iter:  18  Eband: -0.105580494977405  dEband: -5.607576e-05  t[s]:    487.19
BandDavidson: Iter:  19  Eband: -0.105634480689646  dEband: -5.398571e-05  t[s]:    493.32
BandDavidson: Iter:  20  Eband: -0.105694551011605  dEband: -6.007032e-05  t[s]:    499.21
BandDavidson: Iter:  21  Eband: -0.105755441919094  dEband: -6.089091e-05  t[s]:    505.08
BandDavidson: Iter:  22  Eband: -0.105809045056805  dEband: -5.360314e-05  t[s]:    511.04
BandDavidson: Iter:  23  Eband: -0.105853939201934  dEband: -4.489415e-05  t[s]:    517.00
BandDavidson: Iter:  24  Eband: -0.105890720324949  dEband: -3.678112e-05  t[s]:    522.99
BandDavidson: Iter:  25  Eband: -0.105920538934142  dEband: -2.981861e-05  t[s]:    528.85
BandDavidson: Iter:  26  Eband: -0.105944669930258  dEband: -2.413100e-05  t[s]:    534.68
BandDavidson: Iter:  27  Eband: -0.105964212819221  dEband: -1.954289e-05  t[s]:    540.40
BandDavidson: Iter:  28  Eband: -0.105980153337153  dEband: -1.594052e-05  t[s]:    546.12
BandDavidson: Iter:  29  Eband: -0.105993527510383  dEband: -1.337417e-05  t[s]:    552.02
BandDavidson: Iter:  30  Eband: -0.106005274169236  dEband: -1.174666e-05  t[s]:    557.59
BandDavidson: Iter:  31  Eband: -0.106015420527123  dEband: -1.014636e-05  t[s]:    562.97
BandDavidson: Iter:  32  Eband: -0.106023763537989  dEband: -8.343011e-06  t[s]:    567.66
BandDavidson: Iter:  33  Eband: -0.106030437174860  dEband: -6.673637e-06  t[s]:    572.36
BandDavidson: Iter:  34  Eband: -0.106035809199039  dEband: -5.372024e-06  t[s]:    576.70
BandDavidson: Iter:  35  Eband: -0.106040135120019  dEband: -4.325921e-06  t[s]:    581.00
BandDavidson: Iter:  36  Eband: -0.106043667662285  dEband: -3.532542e-06  t[s]:    585.30
BandDavidson: Iter:  37  Eband: -0.106046566285580  dEband: -2.898623e-06  t[s]:    589.48
BandDavidson: Iter:  38  Eband: -0.106048971496110  dEband: -2.405211e-06  t[s]:    593.78
BandDavidson: Iter:  39  Eband: -0.106050967436045  dEband: -1.995940e-06  t[s]:    597.85
BandDavidson: Iter:  40  Eband: -0.106052615930086  dEband: -1.648494e-06  t[s]:    601.73
BandDavidson: Iter:  41  Eband: -0.106054014035205  dEband: -1.398105e-06  t[s]:    605.49
BandDavidson: Iter:  42  Eband: -0.106055175531038  dEband: -1.161496e-06  t[s]:    609.34
BandDavidson: Iter:  43  Eband: -0.106056153815370  dEband: -9.782843e-07  t[s]:    613.14
BandDavidson: Iter:  44  Eband: -0.106056985519896  dEband: -8.317045e-07  t[s]:    616.95
BandDavidson: Iter:  45  Eband: -0.106057699912146  dEband: -7.143922e-07  t[s]:    620.72
BandDavidson: Iter:  46  Eband: -0.106058318225783  dEband: -6.183136e-07  t[s]:    624.52
BandDavidson: Iter:  47  Eband: -0.106058852939082  dEband: -5.347133e-07  t[s]:    628.30
BandDavidson: Iter:  48  Eband: -0.106059319805916  dEband: -4.668668e-07  t[s]:    632.10
BandDavidson: Iter:  49  Eband: -0.106059728708145  dEband: -4.089022e-07  t[s]:    635.95
BandDavidson: Iter:  50  Eband: -0.106060088803349  dEband: -3.600952e-07  t[s]:    639.67
BandDavidson: Iter:  51  Eband: -0.106060406248415  dEband: -3.174451e-07  t[s]:    643.34
BandDavidson: Iter:  52  Eband: -0.106060686797900  dEband: -2.805495e-07  t[s]:    647.11
BandDavidson: Iter:  53  Eband: -0.106060934110379  dEband: -2.473125e-07  t[s]:    650.87
BandDavidson: Iter:  54  Eband: -0.106061152937649  dEband: -2.188273e-07  t[s]:    654.55
BandDavidson: Iter:  55  Eband: -0.106061346215136  dEband: -1.932775e-07  t[s]:    658.19
BandDavidson: Iter:  56  Eband: -0.106061517280214  dEband: -1.710651e-07  t[s]:    661.85
BandDavidson: Iter:  57  Eband: -0.106061668846072  dEband: -1.515659e-07  t[s]:    665.53
BandDavidson: Iter:  58  Eband: -0.106061803739527  dEband: -1.348935e-07  t[s]:    669.11
BandDavidson: Iter:  59  Eband: -0.106061923879817  dEband: -1.201403e-07  t[s]:    672.76
BandDavidson: Iter:  60  Eband: -0.106062031251629  dEband: -1.073718e-07  t[s]:    676.25
BandDavidson: Iter:  61  Eband: -0.106062126509813  dEband: -9.525818e-08  t[s]:    679.78
BandDavidson: Iter:  62  Eband: -0.106062211150359  dEband: -8.464055e-08  t[s]:    683.22
BandDavidson: Iter:  63  Eband: -0.106062286353737  dEband: -7.520338e-08  t[s]:    686.51
BandDavidson: Iter:  64  Eband: -0.106062353562903  dEband: -6.720917e-08  t[s]:    689.74
BandDavidson: Iter:  65  Eband: -0.106062413581028  dEband: -6.001813e-08  t[s]:    692.97
BandDavidson: Iter:  66  Eband: -0.106062468002276  dEband: -5.442125e-08  t[s]:    696.18
BandDavidson: Iter:  67  Eband: -0.106062517642892  dEband: -4.964062e-08  t[s]:    699.34
BandDavidson: Iter:  68  Eband: -0.106062563285177  dEband: -4.564229e-08  t[s]:    702.46
BandDavidson: Iter:  69  Eband: -0.106062605186146  dEband: -4.190097e-08  t[s]:    705.67
BandDavidson: Iter:  70  Eband: -0.106062643598557  dEband: -3.841241e-08  t[s]:    708.76
BandDavidson: Iter:  71  Eband: -0.106062678637278  dEband: -3.503872e-08  t[s]:    711.84
BandDavidson: Iter:  72  Eband: -0.106062710769148  dEband: -3.213187e-08  t[s]:    714.89
BandDavidson: Iter:  73  Eband: -0.106062739937351  dEband: -2.916820e-08  t[s]:    717.86
BandDavidson: Iter:  74  Eband: -0.106062766742333  dEband: -2.680498e-08  t[s]:    720.87
BandDavidson: Iter:  75  Eband: -0.106062791385248  dEband: -2.464292e-08  t[s]:    723.82
BandDavidson: Iter:  76  Eband: -0.106062814117088  dEband: -2.273184e-08  t[s]:    726.75
BandDavidson: Iter:  77  Eband: -0.106062835119222  dEband: -2.100213e-08  t[s]:    729.63
BandDavidson: Iter:  78  Eband: -0.106062854255949  dEband: -1.913673e-08  t[s]:    732.62
BandDavidson: Iter:  79  Eband: -0.106062871549406  dEband: -1.729346e-08  t[s]:    735.38
BandDavidson: Iter:  80  Eband: -0.106062887254582  dEband: -1.570518e-08  t[s]:    738.13
BandDavidson: Iter:  81  Eband: -0.106062901474015  dEband: -1.421943e-08  t[s]:    740.94
BandDavidson: Iter:  82  Eband: -0.106062914325483  dEband: -1.285147e-08  t[s]:    743.66
BandDavidson: Iter:  83  Eband: -0.106062926076858  dEband: -1.175138e-08  t[s]:    746.38
BandDavidson: Iter:  84  Eband: -0.106062936702513  dEband: -1.062565e-08  t[s]:    749.05
BandDavidson: Iter:  85  Eband: -0.106062946387742  dEband: -9.685229e-09  t[s]:    751.71
BandDavidson: Converged (dEband<1.000000e-08)

---- Minimization of quantum number:     2  [ +0.0000000 +0.0555556 +0.0000000 ]  0.004629630  spin +1 ----
BandDavidson: Iter:   0  Eband: -0.048677913868732
BandDavidson: Iter:   1  Eband: -0.082616787449827  dEband: -3.393887e-02  t[s]:    761.08
BandDavidson: Iter:   2  Eband: -0.093680828969081  dEband: -1.106404e-02  t[s]:    767.11
BandDavidson: Iter:   3  Eband: -0.098141506702251  dEband: -4.460678e-03  t[s]:    773.16
BandDavidson: Iter:   4  Eband: -0.101429825935762  dEband: -3.288319e-03  t[s]:    779.15
BandDavidson: Iter:   5  Eband: -0.103033936773584  dEband: -1.604111e-03  t[s]:    785.09
BandDavidson: Iter:   6  Eband: -0.103710340540323  dEband: -6.764038e-04  t[s]:    791.13
BandDavidson: Iter:   7  Eband: -0.104130180385135  dEband: -4.198398e-04  t[s]:    797.13
BandDavidson: Iter:   8  Eband: -0.104412461302045  dEband: -2.822809e-04  t[s]:    803.17
BandDavidson: Iter:   9  Eband: -0.104635897670196  dEband: -2.234364e-04  t[s]:    809.16
BandDavidson: Iter:  10  Eband: -0.104839862629104  dEband: -2.039650e-04  t[s]:    815.18
BandDavidson: Iter:  11  Eband: -0.105012544331043  dEband: -1.726817e-04  t[s]:    821.21
BandDavidson: Iter:  12  Eband: -0.105146767329178  dEband: -1.342230e-04  t[s]:    827.21
BandDavidson: Iter:  13  Eband: -0.105250599388933  dEband: -1.038321e-04  t[s]:    833.22
BandDavidson: Iter:  14  Eband: -0.105332295625960  dEband: -8.169624e-05  t[s]:    839.24
BandDavidson: Iter:  15  Eband: -0.105397015196619  dEband: -6.471957e-05  t[s]:    845.45
BandDavidson: Iter:  16  Eband: -0.105449624908898  dEband: -5.260971e-05  t[s]:    851.54
BandDavidson: Iter:  17  Eband: -0.105495891054854  dEband: -4.626615e-05  t[s]:    857.56
BandDavidson: Iter:  18  Eband: -0.105546528063131  dEband: -5.063701e-05  t[s]:    863.66
BandDavidson: Iter:  19  Eband: -0.105618680167819  dEband: -7.215210e-05  t[s]:    869.77
BandDavidson: Iter:  20  Eband: -0.105697628656263  dEband: -7.894849e-05  t[s]:    875.68
BandDavidson: Iter:  21  Eband: -0.105766824561346  dEband: -6.919591e-05  t[s]:    881.58
BandDavidson: Iter:  22  Eband: -0.105824231621069  dEband: -5.740706e-05  t[s]:    887.47
BandDavidson: Iter:  23  Eband: -0.105870922895680  dEband: -4.669127e-05  t[s]:    893.43
BandDavidson: Iter:  24  Eband: -0.105909064573858  dEband: -3.814168e-05  t[s]:    899.33
BandDavidson: Iter:  25  Eband: -0.105939830172314  dEband: -3.076560e-05  t[s]:    905.13
BandDavidson: Iter:  26  Eband: -0.105965095157732  dEband: -2.526499e-05  t[s]:    910.94
BandDavidson: Iter:  27  Eband: -0.105986115776102  dEband: -2.102062e-05  t[s]:    916.65
BandDavidson: Iter:  28  Eband: -0.106004441589382  dEband: -1.832581e-05  t[s]:    922.49
BandDavidson: Iter:  29  Eband: -0.106021158619631  dEband: -1.671703e-05  t[s]:    928.16
BandDavidson: Iter:  30  Eband: -0.106035803717049  dEband: -1.464510e-05  t[s]:    933.68
BandDavidson: Iter:  31  Eband: -0.106048081251412  dEband: -1.227753e-05  t[s]:    939.06
BandDavidson: Iter:  32  Eband: -0.106058164274786  dEband: -1.008302e-05  t[s]:    944.04
BandDavidson: Iter:  33  Eband: -0.106066364641739  dEband: -8.200367e-06  t[s]:    948.78
BandDavidson: Iter:  34  Eband: -0.106073095202759  dEband: -6.730561e-06  t[s]:    953.31
BandDavidson: Iter:  35  Eband: -0.106078694775888  dEband: -5.599573e-06  t[s]:    957.64
BandDavidson: Iter:  36  Eband: -0.106083417120624  dEband: -4.722345e-06  t[s]:    961.87
BandDavidson: Iter:  37  Eband: -0.106087481356984  dEband: -4.064236e-06  t[s]:    966.04
BandDavidson: Iter:  38  Eband: -0.106091015136433  dEband: -3.533779e-06  t[s]:    970.05
BandDavidson: Iter:  39  Eband: -0.106094135067290  dEband: -3.119931e-06  t[s]:    973.95
BandDavidson: Iter:  40  Eband: -0.106096898089736  dEband: -2.763022e-06  t[s]:    977.90
BandDavidson: Iter:  41  Eband: -0.106099456159866  dEband: -2.558070e-06  t[s]:    981.77
BandDavidson: Iter:  42  Eband: -0.106101906830658  dEband: -2.450671e-06  t[s]:    985.56
BandDavidson: Iter:  43  Eband: -0.106104320683323  dEband: -2.413853e-06  t[s]:    989.39
BandDavidson: Iter:  44  Eband: -0.106106616948096  dEband: -2.296265e-06  t[s]:    993.13
BandDavidson: Iter:  45  Eband: -0.106108737550400  dEband: -2.120602e-06  t[s]:    996.99
BandDavidson: Iter:  46  Eband: -0.106110686192016  dEband: -1.948642e-06  t[s]:   1000.73
BandDavidson: Iter:  47  Eband: -0.106112431102025  dEband: -1.744910e-06  t[s]:   1004.56
BandDavidson: Iter:  48  Eband: -0.106114014274126  dEband: -1.583172e-06  t[s]:   1008.30
BandDavidson: Iter:  49  Eband: -0.106115433835756  dEband: -1.419562e-06  t[s]:   1012.13
BandDavidson: Iter:  50  Eband: -0.106116691267287  dEband: -1.257432e-06  t[s]:   1015.90
BandDavidson: Iter:  51  Eband: -0.106117794201559  dEband: -1.102934e-06  t[s]:   1019.59
BandDavidson: Iter:  52  Eband: -0.106118760064472  dEband: -9.658629e-07  t[s]:   1023.34
BandDavidson: Iter:  53  Eband: -0.106119605806364  dEband: -8.457419e-07  t[s]:   1026.96
BandDavidson: Iter:  54  Eband: -0.106120351347261  dEband: -7.455409e-07  t[s]:   1030.69
BandDavidson: Iter:  55  Eband: -0.106121004186498  dEband: -6.528392e-07  t[s]:   1034.40
BandDavidson: Iter:  56  Eband: -0.106121573708621  dEband: -5.695221e-07  t[s]:   1038.05
BandDavidson: Iter:  57  Eband: -0.106122068660697  dEband: -4.949521e-07  t[s]:   1041.68
BandDavidson: Iter:  58  Eband: -0.106122498268061  dEband: -4.296074e-07  t[s]:   1045.36
BandDavidson: Iter:  59  Eband: -0.106122874600195  dEband: -3.763321e-07  t[s]:   1048.91
BandDavidson: Iter:  60  Eband: -0.106123201484112  dEband: -3.268839e-07  t[s]:   1052.47
BandDavidson: Iter:  61  Eband: -0.106123487345876  dEband: -2.858618e-07  t[s]:   1056.00
BandDavidson: Iter:  62  Eband: -0.106123732279851  dEband: -2.449340e-07  t[s]:   1059.43
BandDavidson: Iter:  63  Eband: -0.106123943026163  dEband: -2.107463e-07  t[s]:   1062.84
BandDavidson: Iter:  64  Eband: -0.106124124050628  dEband: -1.810245e-07  t[s]:   1066.11
BandDavidson: Iter:  65  Eband: -0.106124281382684  dEband: -1.573321e-07  t[s]:   1069.33
BandDavidson: Iter:  66  Eband: -0.106124418754341  dEband: -1.373717e-07  t[s]:   1072.48
BandDavidson: Iter:  67  Eband: -0.106124539441002  dEband: -1.206867e-07  t[s]:   1075.58
BandDavidson: Iter:  68  Eband: -0.106124645002065  dEband: -1.055611e-07  t[s]:   1078.76
BandDavidson: Iter:  69  Eband: -0.106124737379371  dEband: -9.237731e-08  t[s]:   1081.94
BandDavidson: Iter:  70  Eband: -0.106124818133863  dEband: -8.075449e-08  t[s]:   1085.04
BandDavidson: Iter:  71  Eband: -0.106124888369660  dEband: -7.023580e-08  t[s]:   1088.19
BandDavidson: Iter:  72  Eband: -0.106124949981695  dEband: -6.161203e-08  t[s]:   1091.22
BandDavidson: Iter:  73  Eband: -0.106125003325381  dEband: -5.334369e-08  t[s]:   1094.32
BandDavidson: Iter:  74  Eband: -0.106125049705100  dEband: -4.637972e-08  t[s]:   1097.25
BandDavidson: Iter:  75  Eband: -0.106125090146135  dEband: -4.044104e-08  t[s]:   1100.18
BandDavidson: Iter:  76  Eband: -0.106125125469774  dEband: -3.532364e-08  t[s]:   1103.09
BandDavidson: Iter:  77  Eband: -0.106125156470412  dEband: -3.100064e-08  t[s]:   1106.04
BandDavidson: Iter:  78  Eband: -0.106125184021322  dEband: -2.755091e-08  t[s]:   1108.93
BandDavidson: Iter:  79  Eband: -0.106125208154624  dEband: -2.413330e-08  t[s]:   1111.83
BandDavidson: Iter:  80  Eband: -0.106125229416486  dEband: -2.126186e-08  t[s]:   1114.68
BandDavidson: Iter:  81  Eband: -0.106125248005839  dEband: -1.858935e-08  t[s]:   1117.54
BandDavidson: Iter:  82  Eband: -0.106125264457555  dEband: -1.645172e-08  t[s]:   1120.36
BandDavidson: Iter:  83  Eband: -0.106125278935863  dEband: -1.447831e-08  t[s]:   1123.17
BandDavidson: Iter:  84  Eband: -0.106125291729825  dEband: -1.279396e-08  t[s]:   1125.93
BandDavidson: Iter:  85  Eband: -0.106125303048706  dEband: -1.131888e-08  t[s]:   1128.76
BandDavidson: Iter:  86  Eband: -0.106125313103363  dEband: -1.005466e-08  t[s]:   1131.51
BandDavidson: Iter:  87  Eband: -0.106125322002738  dEband: -8.899375e-09  t[s]:   1134.18
BandDavidson: Converged (dEband<1.000000e-08)

---- Minimization of quantum number:     3  [ +0.0000000 +0.0833333 +0.0000000 ]  0.004629630  spin +1 ----
BandDavidson: Iter:   0  Eband: -0.048640838531218
BandDavidson: Iter:   1  Eband: -0.082581318244721  dEband: -3.394048e-02  t[s]:   1143.52
BandDavidson: Iter:   2  Eband: -0.093655776800252  dEband: -1.107446e-02  t[s]:   1149.61
BandDavidson: Iter:   3  Eband: -0.098028120977541  dEband: -4.372344e-03  t[s]:   1155.67
BandDavidson: Iter:   4  Eband: -0.101162732239168  dEband: -3.134611e-03  t[s]:   1161.68
BandDavidson: Iter:   5  Eband: -0.102727736933480  dEband: -1.565005e-03  t[s]:   1167.65
BandDavidson: Iter:   6  Eband: -0.103502950386909  dEband: -7.752135e-04  t[s]:   1173.61
BandDavidson: Iter:   7  Eband: -0.104131713289682  dEband: -6.287629e-04  t[s]:   1179.62
BandDavidson: Iter:   8  Eband: -0.104514512035808  dEband: -3.827987e-04  t[s]:   1185.70
BandDavidson: Iter:   9  Eband: -0.104754746801584  dEband: -2.402348e-04  t[s]:   1191.82
BandDavidson: Iter:  10  Eband: -0.104935530041594  dEband: -1.807832e-04  t[s]:   1197.77
BandDavidson: Iter:  11  Eband: -0.105070463812903  dEband: -1.349338e-04  t[s]:   1203.73
BandDavidson: Iter:  12  Eband: -0.105174097791385  dEband: -1.036340e-04  t[s]:   1209.79
BandDavidson: Iter:  13  Eband: -0.105257039179060  dEband: -8.294139e-05  t[s]:   1215.83
BandDavidson: Iter:  14  Eband: -0.105327573982955  dEband: -7.053480e-05  t[s]:   1221.83
BandDavidson: Iter:  15  Eband: -0.105389677755550  dEband: -6.210377e-05  t[s]:   1227.79
BandDavidson: Iter:  16  Eband: -0.105443951655214  dEband: -5.427390e-05  t[s]:   1233.89
BandDavidson: Iter:  17  Eband: -0.105495224835285  dEband: -5.127318e-05  t[s]:   1239.83
BandDavidson: Iter:  18  Eband: -0.105549702249248  dEband: -5.447741e-05  t[s]:   1245.86
BandDavidson: Iter:  19  Eband: -0.105624363007589  dEband: -7.466076e-05  t[s]:   1251.84
BandDavidson: Iter:  20  Eband: -0.105699624229723  dEband: -7.526122e-05  t[s]:   1257.82
BandDavidson: Iter:  21  Eband: -0.105770377570767  dEband: -7.075334e-05  t[s]:   1263.65
BandDavidson: Iter:  22  Eband: -0.105833800432095  dEband: -6.342286e-05  t[s]:   1269.55
BandDavidson: Iter:  23  Eband: -0.105888138019145  dEband: -5.433759e-05  t[s]:   1275.45
BandDavidson: Iter:  24  Eband: -0.105934322977039  dEband: -4.618496e-05  t[s]:   1281.36
BandDavidson: Iter:  25  Eband: -0.105974117680190  dEband: -3.979470e-05  t[s]:   1287.21
BandDavidson: Iter:  26  Eband: -0.106008331245574  dEband: -3.421357e-05  t[s]:   1293.01
BandDavidson: Iter:  27  Eband: -0.106037434752396  dEband: -2.910351e-05  t[s]:   1298.79
BandDavidson: Iter:  28  Eband: -0.106062258087210  dEband: -2.482333e-05  t[s]:   1304.43
BandDavidson: Iter:  29  Eband: -0.106082969058455  dEband: -2.071097e-05  t[s]:   1310.06
BandDavidson: Iter:  30  Eband: -0.106099746221186  dEband: -1.677716e-05  t[s]:   1315.54
BandDavidson: Iter:  31  Eband: -0.106113185280931  dEband: -1.343906e-05  t[s]:   1320.88
BandDavidson: Iter:  32  Eband: -0.106124022525900  dEband: -1.083724e-05  t[s]:   1325.89
BandDavidson: Iter:  33  Eband: -0.106132866089814  dEband: -8.843564e-06  t[s]:   1330.63
BandDavidson: Iter:  34  Eband: -0.106140216485436  dEband: -7.350396e-06  t[s]:   1335.03
BandDavidson: Iter:  35  Eband: -0.106146572170388  dEband: -6.355685e-06  t[s]:   1339.24
BandDavidson: Iter:  36  Eband: -0.106152474419477  dEband: -5.902249e-06  t[s]:   1343.47
BandDavidson: Iter:  37  Eband: -0.106158204561957  dEband: -5.730142e-06  t[s]:   1347.70
BandDavidson: Iter:  38  Eband: -0.106163643251149  dEband: -5.438689e-06  t[s]:   1351.75
BandDavidson: Iter:  39  Eband: -0.106168446796052  dEband: -4.803545e-06  t[s]:   1355.84
BandDavidson: Iter:  40  Eband: -0.106172627673784  dEband: -4.180878e-06  t[s]:   1359.75
BandDavidson: Iter:  41  Eband: -0.106176247563356  dEband: -3.619890e-06  t[s]:   1363.60
BandDavidson: Iter:  42  Eband: -0.106179370263538  dEband: -3.122700e-06  t[s]:   1367.43
BandDavidson: Iter:  43  Eband: -0.106182116456601  dEband: -2.746193e-06  t[s]:   1371.28
BandDavidson: Iter:  44  Eband: -0.106184516771201  dEband: -2.400315e-06  t[s]:   1375.07
BandDavidson: Iter:  45  Eband: -0.106186644479063  dEband: -2.127708e-06  t[s]:   1378.90
BandDavidson: Iter:  46  Eband: -0.106188511497260  dEband: -1.867018e-06  t[s]:   1382.68
BandDavidson: Iter:  47  Eband: -0.106190162035528  dEband: -1.650538e-06  t[s]:   1386.41
BandDavidson: Iter:  48  Eband: -0.106191611595813  dEband: -1.449560e-06  t[s]:   1390.18
BandDavidson: Iter:  49  Eband: -0.106192895815885  dEband: -1.284220e-06  t[s]:   1394.04
BandDavidson: Iter:  50  Eband: -0.106194033659237  dEband: -1.137843e-06  t[s]:   1397.73
BandDavidson: Iter:  51  Eband: -0.106195039081300  dEband: -1.005422e-06  t[s]:   1401.55
BandDavidson: Iter:  52  Eband: -0.106195918656770  dEband: -8.795755e-07  t[s]:   1405.23
BandDavidson: Iter:  53  Eband: -0.106196694345325  dEband: -7.756886e-07  t[s]:   1408.93
BandDavidson: Iter:  54  Eband: -0.106197379869425  dEband: -6.855241e-07  t[s]:   1412.66
BandDavidson: Iter:  55  Eband: -0.106197983206856  dEband: -6.033374e-07  t[s]:   1416.31
BandDavidson: Iter:  56  Eband: -0.106198521013326  dEband: -5.378065e-07  t[s]:   1419.95
BandDavidson: Iter:  57  Eband: -0.106198997681226  dEband: -4.766679e-07  t[s]:   1423.67
BandDavidson: Iter:  58  Eband: -0.106199420646870  dEband: -4.229656e-07  t[s]:   1427.26
BandDavidson: Iter:  59  Eband: -0.106199794413517  dEband: -3.737666e-07  t[s]:   1430.77
BandDavidson: Iter:  60  Eband: -0.106200127841724  dEband: -3.334282e-07  t[s]:   1434.23
BandDavidson: Iter:  61  Eband: -0.106200420034189  dEband: -2.921925e-07  t[s]:   1437.69
BandDavidson: Iter:  62  Eband: -0.106200679623180  dEband: -2.595890e-07  t[s]:   1441.11
BandDavidson: Iter:  63  Eband: -0.106200908091265  dEband: -2.284681e-07  t[s]:   1444.39
BandDavidson: Iter:  64  Eband: -0.106201112170628  dEband: -2.040794e-07  t[s]:   1447.67
BandDavidson: Iter:  65  Eband: -0.106201292020139  dEband: -1.798495e-07  t[s]:   1450.98
BandDavidson: Iter:  66  Eband: -0.106201452885189  dEband: -1.608651e-07  t[s]:   1454.10
BandDavidson: Iter:  67  Eband: -0.106201595704462  dEband: -1.428193e-07  t[s]:   1457.27
BandDavidson: Iter:  68  Eband: -0.106201723665288  dEband: -1.279608e-07  t[s]:   1460.48
BandDavidson: Iter:  69  Eband: -0.106201838963516  dEband: -1.152982e-07  t[s]:   1463.69
BandDavidson: Iter:  70  Eband: -0.106201942461142  dEband: -1.034976e-07  t[s]:   1466.80
BandDavidson: Iter:  71  Eband: -0.106202035893781  dEband: -9.343264e-08  t[s]:   1469.93
BandDavidson: Iter:  72  Eband: -0.106202118639901  dEband: -8.274612e-08  t[s]:   1473.08
BandDavidson: Iter:  73  Eband: -0.106202193090868  dEband: -7.445097e-08  t[s]:   1476.06
BandDavidson: Iter:  74  Eband: -0.106202259733279  dEband: -6.664241e-08  t[s]:   1479.05
BandDavidson: Iter:  75  Eband: -0.106202319576526  dEband: -5.984325e-08  t[s]:   1481.94
BandDavidson: Iter:  76  Eband: -0.106202373533307  dEband: -5.395678e-08  t[s]:   1484.82
BandDavidson: Iter:  77  Eband: -0.106202422746940  dEband: -4.921363e-08  t[s]:   1487.65
BandDavidson: Iter:  78  Eband: -0.106202467437786  dEband: -4.469085e-08  t[s]:   1490.52
BandDavidson: Iter:  79  Eband: -0.106202508048439  dEband: -4.061065e-08  t[s]:   1493.33
BandDavidson: Iter:  80  Eband: -0.106202545072635  dEband: -3.702420e-08  t[s]:   1496.13
BandDavidson: Iter:  81  Eband: -0.106202578590596  dEband: -3.351796e-08  t[s]:   1498.93
BandDavidson: Iter:  82  Eband: -0.106202609413699  dEband: -3.082310e-08  t[s]:   1501.73
BandDavidson: Iter:  83  Eband: -0.106202637246690  dEband: -2.783299e-08  t[s]:   1504.52
BandDavidson: Iter:  84  Eband: -0.106202662591527  dEband: -2.534484e-08  t[s]:   1507.33
BandDavidson: Iter:  85  Eband: -0.106202685313777  dEband: -2.272225e-08  t[s]:   1510.14
BandDavidson: Iter:  86  Eband: -0.106202705506544  dEband: -2.019277e-08  t[s]:   1512.88
BandDavidson: Iter:  87  Eband: -0.106202723297122  dEband: -1.779058e-08  t[s]:   1515.71
BandDavidson: Iter:  88  Eband: -0.106202739243052  dEband: -1.594593e-08  t[s]:   1518.48
BandDavidson: Iter:  89  Eband: -0.106202753409016  dEband: -1.416596e-08  t[s]:   1521.26
BandDavidson: Iter:  90  Eband: -0.106202766138689  dEband: -1.272967e-08  t[s]:   1523.93
BandDavidson: Iter:  91  Eband: -0.106202777569470  dEband: -1.143078e-08  t[s]:   1526.58
BandDavidson: Iter:  92  Eband: -0.106202787844961  dEband: -1.027549e-08  t[s]:   1529.21
BandDavidson: Iter:  93  Eband: -0.106202797070498  dEband: -9.225537e-09  t[s]:   1531.89
BandDavidson: Converged (dEband<1.000000e-08)

---- Minimization of quantum number:     4  [ +0.0000000 +0.1111111 +0.0000000 ]  0.004629630  spin +1 ----
BandDavidson: Iter:   0  Eband: -0.048637631247342
BandDavidson: Iter:   1  Eband: -0.082629377387855  dEband: -3.399175e-02  t[s]:   1541.36
BandDavidson: Iter:   2  Eband: -0.093924342112721  dEband: -1.129496e-02  t[s]:   1547.33
BandDavidson: Iter:   3  Eband: -0.098180051258961  dEband: -4.255709e-03  t[s]:   1553.27
BandDavidson: Iter:   4  Eband: -0.100802810365001  dEband: -2.622759e-03  t[s]:   1559.31
BandDavidson: Iter:   5  Eband: -0.102217825152026  dEband: -1.415015e-03  t[s]:   1565.31
BandDavidson: Iter:   6  Eband: -0.103193215087337  dEband: -9.753899e-04  t[s]:   1571.38
BandDavidson: Iter:   7  Eband: -0.103732643983399  dEband: -5.394289e-04  t[s]:   1577.46
BandDavidson: Iter:   8  Eband: -0.104073787043621  dEband: -3.411431e-04  t[s]:   1583.46
BandDavidson: Iter:   9  Eband: -0.104386719451237  dEband: -3.129324e-04  t[s]:   1589.41
BandDavidson: Iter:  10  Eband: -0.104687108621046  dEband: -3.003892e-04  t[s]:   1595.36
BandDavidson: Iter:  11  Eband: -0.104899287128060  dEband: -2.121785e-04  t[s]:   1601.34
BandDavidson: Iter:  12  Eband: -0.105055861258534  dEband: -1.565741e-04  t[s]:   1607.38
BandDavidson: Iter:  13  Eband: -0.105170193259145  dEband: -1.143320e-04  t[s]:   1613.35
BandDavidson: Iter:  14  Eband: -0.105279414336043  dEband: -1.092211e-04  t[s]:   1619.42
BandDavidson: Iter:  15  Eband: -0.105401119145768  dEband: -1.217048e-04  t[s]:   1625.43
BandDavidson: Iter:  16  Eband: -0.105499345766581  dEband: -9.822662e-05  t[s]:   1631.55
BandDavidson: Iter:  17  Eband: -0.105599200047262  dEband: -9.985428e-05  t[s]:   1637.55
BandDavidson: Iter:  18  Eband: -0.105689277232366  dEband: -9.007719e-05  t[s]:   1643.53
BandDavidson: Iter:  19  Eband: -0.105768204530532  dEband: -7.892730e-05  t[s]:   1649.39
BandDavidson: Iter:  20  Eband: -0.105839467729898  dEband: -7.126320e-05  t[s]:   1655.30
BandDavidson: Iter:  21  Eband: -0.105903144189093  dEband: -6.367646e-05  t[s]:   1661.24
BandDavidson: Iter:  22  Eband: -0.105958483011480  dEband: -5.533882e-05  t[s]:   1667.06
BandDavidson: Iter:  23  Eband: -0.106005689352491  dEband: -4.720634e-05  t[s]:   1672.88
BandDavidson: Iter:  24  Eband: -0.106045891280021  dEband: -4.020193e-05  t[s]:   1678.79
BandDavidson: Iter:  25  Eband: -0.106079501584222  dEband: -3.361030e-05  t[s]:   1684.75
BandDavidson: Iter:  26  Eband: -0.106107333452884  dEband: -2.783187e-05  t[s]:   1690.37
BandDavidson: Iter:  27  Eband: -0.106130328327795  dEband: -2.299487e-05  t[s]:   1696.16
BandDavidson: Iter:  28  Eband: -0.106149493635257  dEband: -1.916531e-05  t[s]:   1701.74
BandDavidson: Iter:  29  Eband: -0.106165945187764  dEband: -1.645155e-05  t[s]:   1707.35
BandDavidson: Iter:  30  Eband: -0.106180752136233  dEband: -1.480695e-05  t[s]:   1712.80
BandDavidson: Iter:  31  Eband: -0.106194078981571  dEband: -1.332685e-05  t[s]:   1718.00
BandDavidson: Iter:  32  Eband: -0.106205578025601  dEband: -1.149904e-05  t[s]:   1723.03
BandDavidson: Iter:  33  Eband: -0.106215229079189  dEband: -9.651054e-06  t[s]:   1727.72
BandDavidson: Iter:  34  Eband: -0.106223316878840  dEband: -8.087800e-06  t[s]:   1732.26
BandDavidson: Iter:  35  Eband: -0.106230169220514  dEband: -6.852342e-06  t[s]:   1736.55
BandDavidson: Iter:  36  Eband: -0.106235996399938  dEband: -5.827179e-06  t[s]:   1740.83
BandDavidson: Iter:  37  Eband: -0.106241073159749  dEband: -5.076760e-06  t[s]:   1744.95
BandDavidson: Iter:  38  Eband: -0.106245702045366  dEband: -4.628886e-06  t[s]:   1748.97
BandDavidson: Iter:  39  Eband: -0.106250265431739  dEband: -4.563386e-06  t[s]:   1752.98
BandDavidson: Iter:  40  Eband: -0.106254859388724  dEband: -4.593957e-06  t[s]:   1756.85
BandDavidson: Iter:  41  Eband: -0.106259101913288  dEband: -4.242525e-06  t[s]:   1760.73
BandDavidson: Iter:  42  Eband: -0.106262730458418  dEband: -3.628545e-06  t[s]:   1764.49
BandDavidson: Iter:  43  Eband: -0.106265763174316  dEband: -3.032716e-06  t[s]:   1768.32
BandDavidson: Iter:  44  Eband: -0.106268327097751  dEband: -2.563923e-06  t[s]:   1772.14
BandDavidson: Iter:  45  Eband: -0.106270517388420  dEband: -2.190291e-06  t[s]:   1775.92
BandDavidson: Iter:  46  Eband: -0.106272408305438  dEband: -1.890917e-06  t[s]:   1779.75
BandDavidson: Iter:  47  Eband: -0.106274048762318  dEband: -1.640457e-06  t[s]:   1783.52
BandDavidson: Iter:  48  Eband: -0.106275478442484  dEband: -1.429680e-06  t[s]:   1787.29
BandDavidson: Iter:  49  Eband: -0.106276729724897  dEband: -1.251282e-06  t[s]:   1791.14
BandDavidson: Iter:  50  Eband: -0.106277828234165  dEband: -1.098509e-06  t[s]:   1794.82
BandDavidson: Iter:  51  Eband: -0.106278790183779  dEband: -9.619496e-07  t[s]:   1798.63
BandDavidson: Iter:  52  Eband: -0.106279633748939  dEband: -8.435652e-07  t[s]:   1802.30
BandDavidson: Iter:  53  Eband: -0.106280374919590  dEband: -7.411707e-07  t[s]:   1805.96
BandDavidson: Iter:  54  Eband: -0.106281026725169  dEband: -6.518056e-07  t[s]:   1809.59
BandDavidson: Iter:  55  Eband: -0.106281602130008  dEband: -5.754048e-07  t[s]:   1813.21
BandDavidson: Iter:  56  Eband: -0.106282108561225  dEband: -5.064312e-07  t[s]:   1816.80
BandDavidson: Iter:  57  Eband: -0.106282556030225  dEband: -4.474690e-07  t[s]:   1820.29
BandDavidson: Iter:  58  Eband: -0.106282950942293  dEband: -3.949121e-07  t[s]:   1823.85
BandDavidson: Iter:  59  Eband: -0.106283300864107  dEband: -3.499218e-07  t[s]:   1827.39
BandDavidson: Iter:  60  Eband: -0.106283610443984  dEband: -3.095799e-07  t[s]:   1830.78
BandDavidson: Iter:  61  Eband: -0.106283884873371  dEband: -2.744294e-07  t[s]:   1834.17
BandDavidson: Iter:  62  Eband: -0.106284127943954  dEband: -2.430706e-07  t[s]:   1837.57
BandDavidson: Iter:  63  Eband: -0.106284343514972  dEband: -2.155710e-07  t[s]:   1840.82
BandDavidson: Iter:  64  Eband: -0.106284534403089  dEband: -1.908881e-07  t[s]:   1844.07
BandDavidson: Iter:  65  Eband: -0.106284703258380  dEband: -1.688553e-07  t[s]:   1847.29
BandDavidson: Iter:  66  Eband: -0.106284853060621  dEband: -1.498022e-07  t[s]:   1850.48
BandDavidson: Iter:  67  Eband: -0.106284985787266  dEband: -1.327266e-07  t[s]:   1853.67
BandDavidson: Iter:  68  Eband: -0.106285103901305  dEband: -1.181140e-07  t[s]:   1856.80
BandDavidson: Iter:  69  Eband: -0.106285208822322  dEband: -1.049210e-07  t[s]:   1860.01
BandDavidson: Iter:  70  Eband: -0.106285302223000  dEband: -9.340068e-08  t[s]:   1863.17
BandDavidson: Iter:  71  Eband: -0.106285385017652  dEband: -8.279465e-08  t[s]:   1866.21
BandDavidson: Iter:  72  Eband: -0.106285458730059  dEband: -7.371241e-08  t[s]:   1869.25
BandDavidson: Iter:  73  Eband: -0.106285524094368  dEband: -6.536431e-08  t[s]:   1872.30
BandDavidson: Iter:  74  Eband: -0.106285582217485  dEband: -5.812312e-08  t[s]:   1875.24
BandDavidson: Iter:  75  Eband: -0.106285633722852  dEband: -5.150537e-08  t[s]:   1878.17
BandDavidson: Iter:  76  Eband: -0.106285679518818  dEband: -4.579597e-08  t[s]:   1881.07
BandDavidson: Iter:  77  Eband: -0.106285720228489  dEband: -4.070967e-08  t[s]:   1883.87
BandDavidson: Iter:  78  Eband: -0.106285756577867  dEband: -3.634938e-08  t[s]:   1886.71
BandDavidson: Iter:  79  Eband: -0.106285789036939  dEband: -3.245907e-08  t[s]:   1889.55
BandDavidson: Iter:  80  Eband: -0.106285818038441  dEband: -2.900150e-08  t[s]:   1892.47
BandDavidson: Iter:  81  Eband: -0.106285843990666  dEband: -2.595223e-08  t[s]:   1895.24
BandDavidson: Iter:  82  Eband: -0.106285867150778  dEband: -2.316011e-08  t[s]:   1897.95
BandDavidson: Iter:  83  Eband: -0.106285887878100  dEband: -2.072732e-08  t[s]:   1900.78
BandDavidson: Iter:  84  Eband: -0.106285906452187  dEband: -1.857409e-08  t[s]:   1903.61
BandDavidson: Iter:  85  Eband: -0.106285923028355  dEband: -1.657617e-08  t[s]:   1906.42
BandDavidson: Iter:  86  Eband: -0.106285937870902  dEband: -1.484255e-08  t[s]:   1909.06
BandDavidson: Iter:  87  Eband: -0.106285951143435  dEband: -1.327253e-08  t[s]:   1911.82
BandDavidson: Iter:  88  Eband: -0.106285963051430  dEband: -1.190799e-08  t[s]:   1914.54
BandDavidson: Iter:  89  Eband: -0.106285973719385  dEband: -1.066796e-08  t[s]:   1917.23
BandDavidson: Iter:  90  Eband: -0.106285983302661  dEband: -9.583276e-09  t[s]:   1919.96
BandDavidson: Converged (dEband<1.000000e-08)

---- Minimization of quantum number:     5  [ +0.0000000 +0.1388889 +0.0000000 ]  0.004629630  spin +1 ----
BandDavidson: Iter:   0  Eband: -0.048542659504691
BandDavidson: Iter:   1  Eband: -0.082557093725234  dEband: -3.401443e-02  t[s]:   1929.54
BandDavidson: Iter:   2  Eband: -0.094299071972195  dEband: -1.174198e-02  t[s]:   1935.66
BandDavidson: Iter:   3  Eband: -0.098350118379285  dEband: -4.051046e-03  t[s]:   1941.61
BandDavidson: Iter:   4  Eband: -0.100666806296346  dEband: -2.316688e-03  t[s]:   1947.47
BandDavidson: Iter:   5  Eband: -0.102127372444897  dEband: -1.460566e-03  t[s]:   1953.46
BandDavidson: Iter:   6  Eband: -0.103078969893916  dEband: -9.515974e-04  t[s]:   1959.49
BandDavidson: Iter:   7  Eband: -0.103654112326748  dEband: -5.751424e-04  t[s]:   1965.47
BandDavidson: Iter:   8  Eband: -0.104101991497247  dEband: -4.478792e-04  t[s]:   1971.51
BandDavidson: Iter:   9  Eband: -0.104526693311738  dEband: -4.247018e-04  t[s]:   1977.46
BandDavidson: Iter:  10  Eband: -0.104855650045080  dEband: -3.289567e-04  t[s]:   1983.48
BandDavidson: Iter:  11  Eband: -0.105061724572538  dEband: -2.060745e-04  t[s]:   1989.52
BandDavidson: Iter:  12  Eband: -0.105204791364894  dEband: -1.430668e-04  t[s]:   1995.58
BandDavidson: Iter:  13  Eband: -0.105310888445392  dEband: -1.060971e-04  t[s]:   2001.61
BandDavidson: Iter:  14  Eband: -0.105395175691116  dEband: -8.428725e-05  t[s]:   2007.53
BandDavidson: Iter:  15  Eband: -0.105475542433031  dEband: -8.036674e-05  t[s]:   2013.54
BandDavidson: Iter:  16  Eband: -0.105546819862218  dEband: -7.127743e-05  t[s]:   2019.46
BandDavidson: Iter:  17  Eband: -0.105622153387545  dEband: -7.533353e-05  t[s]:   2025.50
BandDavidson: Iter:  18  Eband: -0.105709524005330  dEband: -8.737062e-05  t[s]:   2031.53
BandDavidson: Iter:  19  Eband: -0.105795248018834  dEband: -8.572401e-05  t[s]:   2037.54
BandDavidson: Iter:  20  Eband: -0.105875521750419  dEband: -8.027373e-05  t[s]:   2043.47
BandDavidson: Iter:  21  Eband: -0.105944037186788  dEband: -6.851544e-05  t[s]:   2049.37
BandDavidson: Iter:  22  Eband: -0.106001754732252  dEband: -5.771755e-05  t[s]:   2055.28
BandDavidson: Iter:  23  Eband: -0.106050104480955  dEband: -4.834975e-05  t[s]:   2061.14
BandDavidson: Iter:  24  Eband: -0.106091154573484  dEband: -4.105009e-05  t[s]:   2067.01
BandDavidson: Iter:  25  Eband: -0.106127311202699  dEband: -3.615663e-05  t[s]:   2072.81
BandDavidson: Iter:  26  Eband: -0.106158961035927  dEband: -3.164983e-05  t[s]:   2078.50
BandDavidson: Iter:  27  Eband: -0.106186299235270  dEband: -2.733820e-05  t[s]:   2084.29
BandDavidson: Iter:  28  Eband: -0.106209455406111  dEband: -2.315617e-05  t[s]:   2089.99
BandDavidson: Iter:  29  Eband: -0.106228961353284  dEband: -1.950595e-05  t[s]:   2095.43
BandDavidson: Iter:  30  Eband: -0.106246612351423  dEband: -1.765100e-05  t[s]:   2100.90
BandDavidson: Iter:  31  Eband: -0.106263031127961  dEband: -1.641878e-05  t[s]:   2106.11
BandDavidson: Iter:  32  Eband: -0.106277705237054  dEband: -1.467411e-05  t[s]:   2111.22
BandDavidson: Iter:  33  Eband: -0.106290433362954  dEband: -1.272813e-05  t[s]:   2115.86
BandDavidson: Iter:  34  Eband: -0.106301240927720  dEband: -1.080756e-05  t[s]:   2120.26
BandDavidson: Iter:  35  Eband: -0.106310377349994  dEband: -9.136422e-06  t[s]:   2124.46
BandDavidson: Iter:  36  Eband: -0.106318136144240  dEband: -7.758794e-06  t[s]:   2128.63
BandDavidson: Iter:  37  Eband: -0.106324685469364  dEband: -6.549325e-06  t[s]:   2132.76
BandDavidson: Iter:  38  Eband: -0.106330185216659  dEband: -5.499747e-06  t[s]:   2136.77
BandDavidson: Iter:  39  Eband: -0.106334803372291  dEband: -4.618156e-06  t[s]:   2140.80
BandDavidson: Iter:  40  Eband: -0.106338719461494  dEband: -3.916089e-06  t[s]:   2144.70
BandDavidson: Iter:  41  Eband: -0.106342041543052  dEband: -3.322082e-06  t[s]:   2148.68
BandDavidson: Iter:  42  Eband: -0.106344877052658  dEband: -2.835510e-06  t[s]:   2152.57
BandDavidson: Iter:  43  Eband: -0.106347291105183  dEband: -2.414053e-06  t[s]:   2156.26
BandDavidson: Iter:  44  Eband: -0.106349355284005  dEband: -2.064179e-06  t[s]:   2160.07
BandDavidson: Iter:  45  Eband: -0.106351132900510  dEband: -1.777617e-06  t[s]:   2163.79
BandDavidson: Iter:  46  Eband: -0.106352666262457  dEband: -1.533362e-06  t[s]:   2167.58
BandDavidson: Iter:  47  Eband: -0.106353991967188  dEband: -1.325705e-06  t[s]:   2171.35
BandDavidson: Iter:  48  Eband: -0.106355142284867  dEband: -1.150318e-06  t[s]:   2175.10
BandDavidson: Iter:  49  Eband: -0.106356140911411  dEband: -9.986265e-07  t[s]:   2178.86
BandDavidson: Iter:  50  Eband: -0.106357009333099  dEband: -8.684217e-07  t[s]:   2182.52
BandDavidson: Iter:  51  Eband: -0.106357766391142  dEband: -7.570580e-07  t[s]:   2186.15
BandDavidson: Iter:  52  Eband: -0.106358429573056  dEband: -6.631819e-07  t[s]:   2189.83
BandDavidson: Iter:  53  Eband: -0.106359008895353  dEband: -5.793223e-07  t[s]:   2193.44
BandDavidson: Iter:  54  Eband: -0.106359517828544  dEband: -5.089332e-07  t[s]:   2196.94
BandDavidson: Iter:  55  Eband: -0.106359963329295  dEband: -4.455008e-07  t[s]:   2200.54
BandDavidson: Iter:  56  Eband: -0.106360356391891  dEband: -3.930626e-07  t[s]:   2204.13
BandDavidson: Iter:  57  Eband: -0.106360700937423  dEband: -3.445455e-07  t[s]:   2207.62
BandDavidson: Iter:  58  Eband: -0.106361005522690  dEband: -3.045853e-07  t[s]:   2211.02
BandDavidson: Iter:  59  Eband: -0.106361273470035  dEband: -2.679473e-07  t[s]:   2214.45
BandDavidson: Iter:  60  Eband: -0.106361510579452  dEband: -2.371094e-07  t[s]:   2217.84
BandDavidson: Iter:  61  Eband: -0.106361719606842  dEband: -2.090274e-07  t[s]:   2221.14
BandDavidson: Iter:  62  Eband: -0.106361904811510  dEband: -1.852047e-07  t[s]:   2224.52
BandDavidson: Iter:  63  Eband: -0.106362067984868  dEband: -1.631734e-07  t[s]:   2227.84
BandDavidson: Iter:  64  Eband: -0.106362212264687  dEband: -1.442798e-07  t[s]:   2231.04
BandDavidson: Iter:  65  Eband: -0.106362339498887  dEband: -1.272342e-07  t[s]:   2234.26
BandDavidson: Iter:  66  Eband: -0.106362452426496  dEband: -1.129276e-07  t[s]:   2237.49
BandDavidson: Iter:  67  Eband: -0.106362552051208  dEband: -9.962471e-08  t[s]:   2240.68
BandDavidson: Iter:  68  Eband: -0.106362640348269  dEband: -8.829706e-08  t[s]:   2243.85
BandDavidson: Iter:  69  Eband: -0.106362718467603  dEband: -7.811933e-08  t[s]:   2246.95
BandDavidson: Iter:  70  Eband: -0.106362787399206  dEband: -6.893160e-08  t[s]:   2249.94
BandDavidson: Iter:  71  Eband: -0.106362848405832  dEband: -6.100663e-08  t[s]:   2252.99
BandDavidson: Iter:  72  Eband: -0.106362902399748  dEband: -5.399392e-08  t[s]:   2256.01
BandDavidson: Iter:  73  Eband: -0.106362950316096  dEband: -4.791635e-08  t[s]:   2258.99
BandDavidson: Iter:  74  Eband: -0.106362992737370  dEband: -4.242127e-08  t[s]:   2261.88
BandDavidson: Iter:  75  Eband: -0.106363030324807  dEband: -3.758744e-08  t[s]:   2264.72
BandDavidson: Iter:  76  Eband: -0.106363063742145  dEband: -3.341734e-08  t[s]:   2267.60
BandDavidson: Iter:  77  Eband: -0.106363093566568  dEband: -2.982442e-08  t[s]:   2270.45
BandDavidson: Iter:  78  Eband: -0.106363120235160  dEband: -2.666859e-08  t[s]:   2273.37
BandDavidson: Iter:  79  Eband: -0.106363144136146  dEband: -2.390099e-08  t[s]:   2276.21
BandDavidson: Iter:  80  Eband: -0.106363165562042  dEband: -2.142590e-08  t[s]:   2279.04
BandDavidson: Iter:  81  Eband: -0.106363184856909  dEband: -1.929487e-08  t[s]:   2281.81
BandDavidson: Iter:  82  Eband: -0.106363202214083  dEband: -1.735717e-08  t[s]:   2284.66
BandDavidson: Iter:  83  Eband: -0.106363217922928  dEband: -1.570884e-08  t[s]:   2287.38
BandDavidson: Iter:  84  Eband: -0.106363232232002  dEband: -1.430907e-08  t[s]:   2290.06
BandDavidson: Iter:  85  Eband: -0.106363245411938  dEband: -1.317994e-08  t[s]:   2292.73
BandDavidson: Iter:  86  Eband: -0.106363257733370  dEband: -1.232143e-08  t[s]:   2295.46
BandDavidson: Iter:  87  Eband: -0.106363269554284  dEband: -1.182091e-08  t[s]:   2298.16
BandDavidson: Iter:  88  Eband: -0.106363281148709  dEband: -1.159443e-08  t[s]:   2300.86
BandDavidson: Iter:  89  Eband: -0.106363292773934  dEband: -1.162522e-08  t[s]:   2303.56
BandDavidson: Iter:  90  Eband: -0.106363304405854  dEband: -1.163192e-08  t[s]:   2306.31
BandDavidson: Iter:  91  Eband: -0.106363315831903  dEband: -1.142605e-08  t[s]:   2309.06
BandDavidson: Iter:  92  Eband: -0.106363326789743  dEband: -1.095784e-08  t[s]:   2311.73
BandDavidson: Iter:  93  Eband: -0.106363337095110  dEband: -1.030537e-08  t[s]:   2314.39
BandDavidson: Iter:  94  Eband: -0.106363346489644  dEband: -9.394533e-09  t[s]:   2316.96
BandDavidson: Converged (dEband<1.000000e-08)

---- Minimization of quantum number:     6  [ +0.0000000 +0.1666667 +0.0000000 ]  0.004629630  spin +1 ----
BandDavidson: Iter:   0  Eband: -0.048632085737052
BandDavidson: Iter:   1  Eband: -0.082682727397134  dEband: -3.405064e-02  t[s]:   2326.56
BandDavidson: Iter:   2  Eband: -0.094546352540481  dEband: -1.186363e-02  t[s]:   2332.57
BandDavidson: Iter:   3  Eband: -0.098359781199226  dEband: -3.813429e-03  t[s]:   2338.46
BandDavidson: Iter:   4  Eband: -0.100510596926236  dEband: -2.150816e-03  t[s]:   2344.40
BandDavidson: Iter:   5  Eband: -0.101785415208928  dEband: -1.274818e-03  t[s]:   2350.45
BandDavidson: Iter:   6  Eband: -0.102807392276171  dEband: -1.021977e-03  t[s]:   2356.52
BandDavidson: Iter:   7  Eband: -0.103680751243705  dEband: -8.733590e-04  t[s]:   2362.48
BandDavidson: Iter:   8  Eband: -0.104154267227919  dEband: -4.735160e-04  t[s]:   2368.39
BandDavidson: Iter:   9  Eband: -0.104455848154306  dEband: -3.015809e-04  t[s]:   2374.36
BandDavidson: Iter:  10  Eband: -0.104692609288886  dEband: -2.367611e-04  t[s]:   2380.31
BandDavidson: Iter:  11  Eband: -0.104891247919201  dEband: -1.986386e-04  t[s]:   2386.34
BandDavidson: Iter:  12  Eband: -0.105061884706993  dEband: -1.706368e-04  t[s]:   2392.30
BandDavidson: Iter:  13  Eband: -0.105197902896063  dEband: -1.360182e-04  t[s]:   2398.17
BandDavidson: Iter:  14  Eband: -0.105309505042589  dEband: -1.116021e-04  t[s]:   2404.12
BandDavidson: Iter:  15  Eband: -0.105412149414275  dEband: -1.026444e-04  t[s]:   2410.07
BandDavidson: Iter:  16  Eband: -0.105523305213620  dEband: -1.111558e-04  t[s]:   2416.10
BandDavidson: Iter:  17  Eband: -0.105627872858115  dEband: -1.045676e-04  t[s]:   2422.19
BandDavidson: Iter:  18  Eband: -0.105720481316931  dEband: -9.260846e-05  t[s]:   2428.23
BandDavidson: Iter:  19  Eband: -0.105805817616852  dEband: -8.533630e-05  t[s]:   2434.24
BandDavidson: Iter:  20  Eband: -0.105887128097683  dEband: -8.131048e-05  t[s]:   2440.16
BandDavidson: Iter:  21  Eband: -0.105961192064130  dEband: -7.406397e-05  t[s]:   2446.16
BandDavidson: Iter:  22  Eband: -0.106025938571055  dEband: -6.474651e-05  t[s]:   2452.15
BandDavidson: Iter:  23  Eband: -0.106081322357309  dEband: -5.538379e-05  t[s]:   2458.12
BandDavidson: Iter:  24  Eband: -0.106127404633323  dEband: -4.608228e-05  t[s]:   2464.09
BandDavidson: Iter:  25  Eband: -0.106165664821278  dEband: -3.826019e-05  t[s]:   2469.92
BandDavidson: Iter:  26  Eband: -0.106197733814944  dEband: -3.206899e-05  t[s]:   2475.71
BandDavidson: Iter:  27  Eband: -0.106225788222574  dEband: -2.805441e-05  t[s]:   2481.51
BandDavidson: Iter:  28  Eband: -0.106250808576636  dEband: -2.502035e-05  t[s]:   2487.12
BandDavidson: Iter:  29  Eband: -0.106273022726014  dEband: -2.221415e-05  t[s]:   2492.56
BandDavidson: Iter:  30  Eband: -0.106292756055772  dEband: -1.973333e-05  t[s]:   2497.98
BandDavidson: Iter:  31  Eband: -0.106310121093676  dEband: -1.736504e-05  t[s]:   2503.16
BandDavidson: Iter:  32  Eband: -0.106325115025980  dEband: -1.499393e-05  t[s]:   2508.22
BandDavidson: Iter:  33  Eband: -0.106337942678250  dEband: -1.282765e-05  t[s]:   2512.88
BandDavidson: Iter:  34  Eband: -0.106348888997929  dEband: -1.094632e-05  t[s]:   2517.30
BandDavidson: Iter:  35  Eband: -0.106358204226842  dEband: -9.315229e-06  t[s]:   2521.50
BandDavidson: Iter:  36  Eband: -0.106366166407797  dEband: -7.962181e-06  t[s]:   2525.72
BandDavidson: Iter:  37  Eband: -0.106372991975546  dEband: -6.825568e-06  t[s]:   2529.98
BandDavidson: Iter:  38  Eband: -0.106378797878162  dEband: -5.805903e-06  t[s]:   2534.05
BandDavidson: Iter:  39  Eband: -0.106383741698992  dEband: -4.943821e-06  t[s]:   2538.05
BandDavidson: Iter:  40  Eband: -0.106387993149907  dEband: -4.251451e-06  t[s]:   2542.02
BandDavidson: Iter:  41  Eband: -0.106391667975304  dEband: -3.674825e-06  t[s]:   2545.83
BandDavidson: Iter:  42  Eband: -0.106394841348373  dEband: -3.173373e-06  t[s]:   2549.69
BandDavidson: Iter:  43  Eband: -0.106397585586714  dEband: -2.744238e-06  t[s]:   2553.52
BandDavidson: Iter:  44  Eband: -0.106399963300933  dEband: -2.377714e-06  t[s]:   2557.26
BandDavidson: Iter:  45  Eband: -0.106402025647248  dEband: -2.062346e-06  t[s]:   2561.02
BandDavidson: Iter:  46  Eband: -0.106403824559159  dEband: -1.798912e-06  t[s]:   2564.83
BandDavidson: Iter:  47  Eband: -0.106405402077344  dEband: -1.577518e-06  t[s]:   2568.61
BandDavidson: Iter:  48  Eband: -0.106406785349664  dEband: -1.383272e-06  t[s]:   2572.37
BandDavidson: Iter:  49  Eband: -0.106407999693724  dEband: -1.214344e-06  t[s]:   2576.16
BandDavidson: Iter:  50  Eband: -0.106409064227832  dEband: -1.064534e-06  t[s]:   2579.95
BandDavidson: Iter:  51  Eband: -0.106409994148201  dEband: -9.299204e-07  t[s]:   2583.66
BandDavidson: Iter:  52  Eband: -0.106410799781019  dEband: -8.056328e-07  t[s]:   2587.35
BandDavidson: Iter:  53  Eband: -0.106411499562803  dEband: -6.997818e-07  t[s]:   2590.95
BandDavidson: Iter:  54  Eband: -0.106412111416756  dEband: -6.118540e-07  t[s]:   2594.54
BandDavidson: Iter:  55  Eband: -0.106412647662026  dEband: -5.362453e-07  t[s]:   2598.11
BandDavidson: Iter:  56  Eband: -0.106413116068975  dEband: -4.684069e-07  t[s]:   2601.60
BandDavidson: Iter:  57  Eband: -0.106413525419550  dEband: -4.093506e-07  t[s]:   2605.12
BandDavidson: Iter:  58  Eband: -0.106413883471549  dEband: -3.580520e-07  t[s]:   2608.55
BandDavidson: Iter:  59  Eband: -0.106414198258204  dEband: -3.147867e-07  t[s]:   2611.94
BandDavidson: Iter:  60  Eband: -0.106414473707786  dEband: -2.754496e-07  t[s]:   2615.32
BandDavidson: Iter:  61  Eband: -0.106414715930204  dEband: -2.422224e-07  t[s]:   2618.68
BandDavidson: Iter:  62  Eband: -0.106414927568175  dEband: -2.116380e-07  t[s]:   2621.99
BandDavidson: Iter:  63  Eband: -0.106415113309191  dEband: -1.857410e-07  t[s]:   2625.28
BandDavidson: Iter:  64  Eband: -0.106415275862859  dEband: -1.625537e-07  t[s]:   2628.46
BandDavidson: Iter:  65  Eband: -0.106415419334511  dEband: -1.434717e-07  t[s]:   2631.68
BandDavidson: Iter:  66  Eband: -0.106415545416532  dEband: -1.260820e-07  t[s]:   2634.83
BandDavidson: Iter:  67  Eband: -0.106415656696656  dEband: -1.112801e-07  t[s]:   2637.98
BandDavidson: Iter:  68  Eband: -0.106415754360405  dEband: -9.766375e-08  t[s]:   2641.11
BandDavidson: Iter:  69  Eband: -0.106415840431925  dEband: -8.607152e-08  t[s]:   2644.19
BandDavidson: Iter:  70  Eband: -0.106415915880881  dEband: -7.544896e-08  t[s]:   2647.21
BandDavidson: Iter:  71  Eband: -0.106415982030202  dEband: -6.614932e-08  t[s]:   2650.25
BandDavidson: Iter:  72  Eband: -0.106416040117897  dEband: -5.808770e-08  t[s]:   2653.27
BandDavidson: Iter:  73  Eband: -0.106416091019070  dEband: -5.090117e-08  t[s]:   2656.24
BandDavidson: Iter:  74  Eband: -0.106416135708045  dEband: -4.468897e-08  t[s]:   2659.19
BandDavidson: Iter:  75  Eband: -0.106416175051996  dEband: -3.934395e-08  t[s]:   2662.13
BandDavidson: Iter:  76  Eband: -0.106416209730469  dEband: -3.467847e-08  t[s]:   2665.03
BandDavidson: Iter:  77  Eband: -0.106416240311254  dEband: -3.058078e-08  t[s]:   2667.89
BandDavidson: Iter:  78  Eband: -0.106416267270213  dEband: -2.695896e-08  t[s]:   2670.74
BandDavidson: Iter:  79  Eband: -0.106416291123590  dEband: -2.385338e-08  t[s]:   2673.64
BandDavidson: Iter:  80  Eband: -0.106416312201608  dEband: -2.107802e-08  t[s]:   2676.45
BandDavidson: Iter:  81  Eband: -0.106416330836460  dEband: -1.863485e-08  t[s]:   2679.36
BandDavidson: Iter:  82  Eband: -0.106416347335436  dEband: -1.649898e-08  t[s]:   2682.19
BandDavidson: Iter:  83  Eband: -0.106416361896767  dEband: -1.456133e-08  t[s]:   2685.02
BandDavidson: Iter:  84  Eband: -0.106416374772495  dEband: -1.287573e-08  t[s]:   2687.80
BandDavidson: Iter:  85  Eband: -0.106416386110855  dEband: -1.133836e-08  t[s]:   2690.64
BandDavidson: Iter:  86  Eband: -0.106416396079744  dEband: -9.968889e-09  t[s]:   2693.36
BandDavidson: Converged (dEband<1.000000e-08)

---- Minimization of quantum number:     7  [ +0.0000000 +0.1944444 +0.0000000 ]  0.004629630  spin +1 ----
BandDavidson: Iter:   0  Eband: -0.048715301932440
BandDavidson: Iter:   1  Eband: -0.082723812637969  dEband: -3.400851e-02  t[s]:   2702.84
BandDavidson: Iter:   2  Eband: -0.094602611722983  dEband: -1.187880e-02  t[s]:   2708.87
BandDavidson: Iter:   3  Eband: -0.098499119220135  dEband: -3.896507e-03  t[s]:   2714.82
BandDavidson: Iter:   4  Eband: -0.100418223546891  dEband: -1.919104e-03  t[s]:   2720.99
BandDavidson: Iter:   5  Eband: -0.101643554691358  dEband: -1.225331e-03  t[s]:   2726.99
BandDavidson: Iter:   6  Eband: -0.102761009044641  dEband: -1.117454e-03  t[s]:   2733.05
BandDavidson: Iter:   7  Eband: -0.103518284480550  dEband: -7.572754e-04  t[s]:   2739.05
BandDavidson: Iter:   8  Eband: -0.104070169721551  dEband: -5.518852e-04  t[s]:   2745.02
BandDavidson: Iter:   9  Eband: -0.104454433840486  dEband: -3.842641e-04  t[s]:   2751.06
BandDavidson: Iter:  10  Eband: -0.104707814823957  dEband: -2.533810e-04  t[s]:   2757.08
BandDavidson: Iter:  11  Eband: -0.104895063704248  dEband: -1.872489e-04  t[s]:   2763.14
BandDavidson: Iter:  12  Eband: -0.105048724156213  dEband: -1.536605e-04  t[s]:   2769.15
BandDavidson: Iter:  13  Eband: -0.105186698418501  dEband: -1.379743e-04  t[s]:   2775.28
BandDavidson: Iter:  14  Eband: -0.105309222640719  dEband: -1.225242e-04  t[s]:   2781.32
BandDavidson: Iter:  15  Eband: -0.105441371273321  dEband: -1.321486e-04  t[s]:   2787.31
BandDavidson: Iter:  16  Eband: -0.105577093855003  dEband: -1.357226e-04  t[s]:   2793.23
BandDavidson: Iter:  17  Eband: -0.105691134813351  dEband: -1.140410e-04  t[s]:   2799.18
BandDavidson: Iter:  18  Eband: -0.105788014741231  dEband: -9.687993e-05  t[s]:   2805.17
BandDavidson: Iter:  19  Eband: -0.105880174388650  dEband: -9.215965e-05  t[s]:   2811.10
BandDavidson: Iter:  20  Eband: -0.105960507446532  dEband: -8.033306e-05  t[s]:   2816.99
BandDavidson: Iter:  21  Eband: -0.106032566680025  dEband: -7.205923e-05  t[s]:   2822.89
BandDavidson: Iter:  22  Eband: -0.106108308591008  dEband: -7.574191e-05  t[s]:   2828.76
BandDavidson: Iter:  23  Eband: -0.106171728017927  dEband: -6.341943e-05  t[s]:   2834.59
BandDavidson: Iter:  24  Eband: -0.106223073513910  dEband: -5.134550e-05  t[s]:   2840.55
BandDavidson: Iter:  25  Eband: -0.106264779236768  dEband: -4.170572e-05  t[s]:   2846.40
BandDavidson: Iter:  26  Eband: -0.106298537013597  dEband: -3.375778e-05  t[s]:   2852.21
BandDavidson: Iter:  27  Eband: -0.106326102741302  dEband: -2.756573e-05  t[s]:   2858.04
BandDavidson: Iter:  28  Eband: -0.106348353901550  dEband: -2.225116e-05  t[s]:   2863.63
BandDavidson: Iter:  29  Eband: -0.106366270164346  dEband: -1.791626e-05  t[s]:   2869.01
BandDavidson: Iter:  30  Eband: -0.106380662120652  dEband: -1.439196e-05  t[s]:   2874.33
BandDavidson: Iter:  31  Eband: -0.106392344697139  dEband: -1.168258e-05  t[s]:   2879.62
BandDavidson: Iter:  32  Eband: -0.106401854417404  dEband: -9.509720e-06  t[s]:   2884.83
BandDavidson: Iter:  33  Eband: -0.106409618565317  dEband: -7.764148e-06  t[s]:   2889.46
BandDavidson: Iter:  34  Eband: -0.106415986237652  dEband: -6.367672e-06  t[s]:   2893.85
BandDavidson: Iter:  35  Eband: -0.106421254751855  dEband: -5.268514e-06  t[s]:   2897.98
BandDavidson: Iter:  36  Eband: -0.106425624435385  dEband: -4.369684e-06  t[s]:   2902.14
BandDavidson: Iter:  37  Eband: -0.106429278079652  dEband: -3.653644e-06  t[s]:   2906.16
BandDavidson: Iter:  38  Eband: -0.106432338272572  dEband: -3.060193e-06  t[s]:   2910.01
BandDavidson: Iter:  39  Eband: -0.106434905813023  dEband: -2.567540e-06  t[s]:   2913.97
BandDavidson: Iter:  40  Eband: -0.106437079661847  dEband: -2.173849e-06  t[s]:   2917.91
BandDavidson: Iter:  41  Eband: -0.106438931397067  dEband: -1.851735e-06  t[s]:   2921.82
BandDavidson: Iter:  42  Eband: -0.106440512796698  dEband: -1.581400e-06  t[s]:   2925.63
BandDavidson: Iter:  43  Eband: -0.106441864456710  dEband: -1.351660e-06  t[s]:   2929.38
BandDavidson: Iter:  44  Eband: -0.106443022450139  dEband: -1.157993e-06  t[s]:   2933.00
BandDavidson: Iter:  45  Eband: -0.106444017833233  dEband: -9.953831e-07  t[s]:   2936.78
BandDavidson: Iter:  46  Eband: -0.106444872711303  dEband: -8.548781e-07  t[s]:   2940.55
BandDavidson: Iter:  47  Eband: -0.106445610998518  dEband: -7.382872e-07  t[s]:   2944.23
BandDavidson: Iter:  48  Eband: -0.106446247225983  dEband: -6.362275e-07  t[s]:   2947.94
BandDavidson: Iter:  49  Eband: -0.106446797925920  dEband: -5.506999e-07  t[s]:   2951.68
BandDavidson: Iter:  50  Eband: -0.106447274137750  dEband: -4.762118e-07  t[s]:   2955.43
BandDavidson: Iter:  51  Eband: -0.106447685422456  dEband: -4.112847e-07  t[s]:   2959.22
BandDavidson: Iter:  52  Eband: -0.106448040138463  dEband: -3.547160e-07  t[s]:   2962.84
BandDavidson: Iter:  53  Eband: -0.106448347021876  dEband: -3.068834e-07  t[s]:   2966.45
BandDavidson: Iter:  54  Eband: -0.106448611615251  dEband: -2.645934e-07  t[s]:   2970.00
BandDavidson: Iter:  55  Eband: -0.106448841809755  dEband: -2.301945e-07  t[s]:   2973.57
BandDavidson: Iter:  56  Eband: -0.106449041075860  dEband: -1.992661e-07  t[s]:   2977.03
BandDavidson: Iter:  57  Eband: -0.106449214102642  dEband: -1.730268e-07  t[s]:   2980.40
BandDavidson: Iter:  58  Eband: -0.106449364347587  dEband: -1.502449e-07  t[s]:   2983.92
BandDavidson: Iter:  59  Eband: -0.106449495512278  dEband: -1.311647e-07  t[s]:   2987.28
BandDavidson: Iter:  60  Eband: -0.106449609753526  dEband: -1.142412e-07  t[s]:   2990.73
BandDavidson: Iter:  61  Eband: -0.106449708993191  dEband: -9.923966e-08  t[s]:   2994.13
BandDavidson: Iter:  62  Eband: -0.106449795635920  dEband: -8.664273e-08  t[s]:   2997.54
BandDavidson: Iter:  63  Eband: -0.106449870872937  dEband: -7.523702e-08  t[s]:   3000.94
BandDavidson: Iter:  64  Eband: -0.106449936452091  dEband: -6.557915e-08  t[s]:   3004.11
BandDavidson: Iter:  65  Eband: -0.106449993454345  dEband: -5.700225e-08  t[s]:   3007.26
BandDavidson: Iter:  66  Eband: -0.106450043462437  dEband: -5.000809e-08  t[s]:   3010.45
BandDavidson: Iter:  67  Eband: -0.106450087281538  dEband: -4.381910e-08  t[s]:   3013.66
BandDavidson: Iter:  68  Eband: -0.106450125812463  dEband: -3.853092e-08  t[s]:   3016.80
BandDavidson: Iter:  69  Eband: -0.106450159597753  dEband: -3.378529e-08  t[s]:   3019.93
BandDavidson: Iter:  70  Eband: -0.106450189210313  dEband: -2.961256e-08  t[s]:   3023.06
BandDavidson: Iter:  71  Eband: -0.106450215250302  dEband: -2.603999e-08  t[s]:   3026.18
BandDavidson: Iter:  72  Eband: -0.106450238154558  dEband: -2.290426e-08  t[s]:   3029.32
BandDavidson: Iter:  73  Eband: -0.106450258279888  dEband: -2.012533e-08  t[s]:   3032.29
BandDavidson: Iter:  74  Eband: -0.106450275956868  dEband: -1.767698e-08  t[s]:   3035.25
BandDavidson: Iter:  75  Eband: -0.106450291538744  dEband: -1.558188e-08  t[s]:   3038.22
BandDavidson: Iter:  76  Eband: -0.106450305302495  dEband: -1.376375e-08  t[s]:   3041.09
BandDavidson: Iter:  77  Eband: -0.106450317437289  dEband: -1.213479e-08  t[s]:   3043.98
BandDavidson: Iter:  78  Eband: -0.106450328170377  dEband: -1.073309e-08  t[s]:   3046.90
BandDavidson: Iter:  79  Eband: -0.106450337641294  dEband: -9.470917e-09  t[s]:   3049.75
BandDavidson: Converged (dEband<1.000000e-08)

---- Minimization of quantum number:     8  [ +0.0000000 +0.2222222 +0.0000000 ]  0.004629630  spin +1 ----
BandDavidson: Iter:   0  Eband: -0.048897597910563
BandDavidson: Iter:   1  Eband: -0.082771697151593  dEband: -3.387410e-02  t[s]:   3059.25
BandDavidson: Iter:   2  Eband: -0.094628618862512  dEband: -1.185692e-02  t[s]:   3065.30
BandDavidson: Iter:   3  Eband: -0.098352003367660  dEband: -3.723385e-03  t[s]:   3071.36
BandDavidson: Iter:   4  Eband: -0.100026494081609  dEband: -1.674491e-03  t[s]:   3077.32
BandDavidson: Iter:   5  Eband: -0.101218526809991  dEband: -1.192033e-03  t[s]:   3083.34
BandDavidson: Iter:   6  Eband: -0.102198641157598  dEband: -9.801143e-04  t[s]:   3089.33
BandDavidson: Iter:   7  Eband: -0.102945618462593  dEband: -7.469773e-04  t[s]:   3095.27
BandDavidson: Iter:   8  Eband: -0.103587200061820  dEband: -6.415816e-04  t[s]:   3101.26
BandDavidson: Iter:   9  Eband: -0.104047701231352  dEband: -4.605012e-04  t[s]:   3107.31
BandDavidson: Iter:  10  Eband: -0.104369236548923  dEband: -3.215353e-04  t[s]:   3113.29
BandDavidson: Iter:  11  Eband: -0.104624697498446  dEband: -2.554609e-04  t[s]:   3119.37
BandDavidson: Iter:  12  Eband: -0.104856110835328  dEband: -2.314133e-04  t[s]:   3125.30
BandDavidson: Iter:  13  Eband: -0.105082117505420  dEband: -2.260067e-04  t[s]:   3131.27
BandDavidson: Iter:  14  Eband: -0.105264292856578  dEband: -1.821754e-04  t[s]:   3137.29
BandDavidson: Iter:  15  Eband: -0.105421540284413  dEband: -1.572474e-04  t[s]:   3143.22
BandDavidson: Iter:  16  Eband: -0.105551402071546  dEband: -1.298618e-04  t[s]:   3149.19
BandDavidson: Iter:  17  Eband: -0.105653098478864  dEband: -1.016964e-04  t[s]:   3155.17
BandDavidson: Iter:  18  Eband: -0.105744924349237  dEband: -9.182587e-05  t[s]:   3161.25
BandDavidson: Iter:  19  Eband: -0.105835600929071  dEband: -9.067658e-05  t[s]:   3167.23
BandDavidson: Iter:  20  Eband: -0.105924835043656  dEband: -8.923411e-05  t[s]:   3173.14
BandDavidson: Iter:  21  Eband: -0.106001936656194  dEband: -7.710161e-05  t[s]:   3179.02
BandDavidson: Iter:  22  Eband: -0.106079908064482  dEband: -7.797141e-05  t[s]:   3184.84
BandDavidson: Iter:  23  Eband: -0.106152363772308  dEband: -7.245571e-05  t[s]:   3190.56
BandDavidson: Iter:  24  Eband: -0.106210429647378  dEband: -5.806588e-05  t[s]:   3196.44
BandDavidson: Iter:  25  Eband: -0.106253909553670  dEband: -4.347991e-05  t[s]:   3202.20
BandDavidson: Iter:  26  Eband: -0.106288147681281  dEband: -3.423813e-05  t[s]:   3207.97
BandDavidson: Iter:  27  Eband: -0.106315899730176  dEband: -2.775205e-05  t[s]:   3213.78
BandDavidson: Iter:  28  Eband: -0.106338513341833  dEband: -2.261361e-05  t[s]:   3219.32
BandDavidson: Iter:  29  Eband: -0.106356527060925  dEband: -1.801372e-05  t[s]:   3224.87
[...]
BandDavidson: Iter:  48  Eband: -0.106354696148937  dEband: -1.109406e-06  t[s]:   4052.96
BandDavidson: Iter:  49  Eband: -0.106355668728123  dEband: -9.725792e-07  t[s]:   4056.70
BandDavidson: Iter:  50  Eband: -0.106356521300298  dEband: -8.525722e-07  t[s]:   4060.33
BandDavidson: Iter:  51  Eband: -0.106357267629481  dEband: -7.463292e-07  t[s]:   4064.01
BandDavidson: Iter:  52  Eband: -0.106357922851680  dEband: -6.552222e-07  t[s]:   4067.76
BandDavidson: Iter:  53  Eband: -0.106358497786966  dEband: -5.749353e-07  t[s]:   4071.28
BandDavidson: Iter:  54  Eband: -0.106359003185893  dEband: -5.053989e-07  t[s]:   4074.89
BandDavidson: Iter:  55  Eband: -0.106359447006033  dEband: -4.438201e-07  t[s]:   4078.38
BandDavidson: Iter:  56  Eband: -0.106359837924218  dEband: -3.909182e-07  t[s]:   4081.81
BandDavidson: Iter:  57  Eband: -0.106360182765499  dEband: -3.448413e-07  t[s]:   4085.31
BandDavidson: Iter:  58  Eband: -0.106360487253891  dEband: -3.044884e-07  t[s]:   4088.68
BandDavidson: Iter:  59  Eband: -0.106360755542610  dEband: -2.682887e-07  t[s]:   4092.06
BandDavidson: Iter:  60  Eband: -0.106360992563807  dEband: -2.370212e-07  t[s]:   4095.46
BandDavidson: Iter:  61  Eband: -0.106361201109895  dEband: -2.085461e-07  t[s]:   4098.81
BandDavidson: Iter:  62  Eband: -0.106361385521895  dEband: -1.844120e-07  t[s]:   4102.26
BandDavidson: Iter:  63  Eband: -0.106361548036982  dEband: -1.625151e-07  t[s]:   4105.53
BandDavidson: Iter:  64  Eband: -0.106361691816954  dEband: -1.437800e-07  t[s]:   4108.77
BandDavidson: Iter:  65  Eband: -0.106361818625379  dEband: -1.268084e-07  t[s]:   4111.95
BandDavidson: Iter:  66  Eband: -0.106361930726176  dEband: -1.121008e-07  t[s]:   4115.17
BandDavidson: Iter:  67  Eband: -0.106362029758573  dEband: -9.903240e-08  t[s]:   4118.38
BandDavidson: Iter:  68  Eband: -0.106362117324548  dEband: -8.756598e-08  t[s]:   4121.51
BandDavidson: Iter:  69  Eband: -0.106362194752395  dEband: -7.742785e-08  t[s]:   4124.69
BandDavidson: Iter:  70  Eband: -0.106362263244530  dEband: -6.849214e-08  t[s]:   4127.81
BandDavidson: Iter:  71  Eband: -0.106362323775339  dEband: -6.053081e-08  t[s]:   4131.00
BandDavidson: Iter:  72  Eband: -0.106362377275823  dEband: -5.350048e-08  t[s]:   4134.11
BandDavidson: Iter:  73  Eband: -0.106362424499779  dEband: -4.722396e-08  t[s]:   4137.22
BandDavidson: Iter:  74  Eband: -0.106362466225368  dEband: -4.172559e-08  t[s]:   4140.18
BandDavidson: Iter:  75  Eband: -0.106362503105541  dEband: -3.688017e-08  t[s]:   4143.13
BandDavidson: Iter:  76  Eband: -0.106362535800839  dEband: -3.269530e-08  t[s]:   4146.11
BandDavidson: Iter:  77  Eband: -0.106362564688578  dEband: -2.888774e-08  t[s]:   4149.01
BandDavidson: Iter:  78  Eband: -0.106362590312176  dEband: -2.562360e-08  t[s]:   4151.97
BandDavidson: Iter:  79  Eband: -0.106362612988671  dEband: -2.267649e-08  t[s]:   4154.81
BandDavidson: Iter:  80  Eband: -0.106362633131984  dEband: -2.014331e-08  t[s]:   4157.67
BandDavidson: Iter:  81  Eband: -0.106362651012991  dEband: -1.788101e-08  t[s]:   4160.57
BandDavidson: Iter:  82  Eband: -0.106362666921490  dEband: -1.590850e-08  t[s]:   4163.41
BandDavidson: Iter:  83  Eband: -0.106362681064408  dEband: -1.414292e-08  t[s]:   4166.28
BandDavidson: Iter:  84  Eband: -0.106362693667091  dEband: -1.260268e-08  t[s]:   4169.16
BandDavidson: Iter:  85  Eband: -0.106362704878542  dEband: -1.121145e-08  t[s]:   4172.01
BandDavidson: Iter:  86  Eband: -0.106362714874140  dEband: -9.995598e-09  t[s]:   4174.88
BandDavidson: Converged (dEband<1.000000e-08)

---- Minimization of quantum number:    11  [ +0.0000000 +0.3055556 +0.0000000 ]  0.004629630  spin +1 ----
BandDavidson: Iter:   0  Eband: -0.048533640644407
BandDavidson: Iter:   1  Eband: -0.082569694655076  dEband: -3.403605e-02  t[s]:   4184.37
BandDavidson: Iter:   2  Eband: -0.094253686648776  dEband: -1.168399e-02  t[s]:   4190.30
BandDavidson: Iter:   3  Eband: -0.098031020830982  dEband: -3.777334e-03  t[s]:   4196.20
BandDavidson: Iter:   4  Eband: -0.099960287897749  dEband: -1.929267e-03  t[s]:   4202.22
BandDavidson: Iter:   5  Eband: -0.101274325081686  dEband: -1.314037e-03  t[s]:   4208.15
BandDavidson: Iter:   6  Eband: -0.102262563006738  dEband: -9.882379e-04  t[s]:   4214.07
BandDavidson: Iter:   7  Eband: -0.102930112242460  dEband: -6.675492e-04  t[s]:   4220.05
BandDavidson: Iter:   8  Eband: -0.103567719952402  dEband: -6.376077e-04  t[s]:   4225.99
BandDavidson: Iter:   9  Eband: -0.104083331474722  dEband: -5.156115e-04  t[s]:   4231.99
BandDavidson: Iter:  10  Eband: -0.104463067028384  dEband: -3.797356e-04  t[s]:   4238.03
BandDavidson: Iter:  11  Eband: -0.104753721923814  dEband: -2.906549e-04  t[s]:   4243.86
BandDavidson: Iter:  12  Eband: -0.104991679375631  dEband: -2.379575e-04  t[s]:   4249.88
BandDavidson: Iter:  13  Eband: -0.105185853940279  dEband: -1.941746e-04  t[s]:   4255.85
BandDavidson: Iter:  14  Eband: -0.105347924367723  dEband: -1.620704e-04  t[s]:   4261.91
BandDavidson: Iter:  15  Eband: -0.105483149826426  dEband: -1.352255e-04  t[s]:   4268.04
BandDavidson: Iter:  16  Eband: -0.105610014943230  dEband: -1.268651e-04  t[s]:   4273.98
BandDavidson: Iter:  17  Eband: -0.105721704384395  dEband: -1.116894e-04  t[s]:   4279.96
BandDavidson: Iter:  18  Eband: -0.105814968997039  dEband: -9.326461e-05  t[s]:   4285.89
BandDavidson: Iter:  19  Eband: -0.105891140904887  dEband: -7.617191e-05  t[s]:   4291.85
BandDavidson: Iter:  20  Eband: -0.105952596490029  dEband: -6.145559e-05  t[s]:   4297.76
BandDavidson: Iter:  21  Eband: -0.106003019828808  dEband: -5.042334e-05  t[s]:   4303.57
BandDavidson: Iter:  22  Eband: -0.106046540063567  dEband: -4.352023e-05  t[s]:   4309.40
BandDavidson: Iter:  23  Eband: -0.106084458926077  dEband: -3.791886e-05  t[s]:   4315.27
BandDavidson: Iter:  24  Eband: -0.106117625563098  dEband: -3.316664e-05  t[s]:   4321.07
BandDavidson: Iter:  25  Eband: -0.106145879570642  dEband: -2.825401e-05  t[s]:   4326.81
BandDavidson: Iter:  26  Eband: -0.106169933357034  dEband: -2.405379e-05  t[s]:   4332.62
BandDavidson: Iter:  27  Eband: -0.106191498554457  dEband: -2.156520e-05  t[s]:   4338.31
BandDavidson: Iter:  28  Eband: -0.106211524066410  dEband: -2.002551e-05  t[s]:   4343.85
BandDavidson: Iter:  29  Eband: -0.106230137607073  dEband: -1.861354e-05  t[s]:   4349.18
BandDavidson: Iter:  30  Eband: -0.106247264973295  dEband: -1.712737e-05  t[s]:   4354.50
BandDavidson: Iter:  31  Eband: -0.106262156885576  dEband: -1.489191e-05  t[s]:   4359.67
BandDavidson: Iter:  32  Eband: -0.106275015843946  dEband: -1.285896e-05  t[s]:   4364.75
BandDavidson: Iter:  33  Eband: -0.106286642202402  dEband: -1.162636e-05  t[s]:   4369.68
BandDavidson: Iter:  34  Eband: -0.106299542873743  dEband: -1.290067e-05  t[s]:   4374.10
BandDavidson: Iter:  35  Eband: -0.106310722714340  dEband: -1.117984e-05  t[s]:   4378.47
BandDavidson: Iter:  36  Eband: -0.106319236231620  dEband: -8.513517e-06  t[s]:   4382.42
BandDavidson: Iter:  37  Eband: -0.106326001374395  dEband: -6.765143e-06  t[s]:   4386.42
BandDavidson: Iter:  38  Eband: -0.106331332240928  dEband: -5.330867e-06  t[s]:   4390.32
BandDavidson: Iter:  39  Eband: -0.106335795503528  dEband: -4.463263e-06  t[s]:   4394.33
BandDavidson: Iter:  40  Eband: -0.106339558851440  dEband: -3.763348e-06  t[s]:   4398.27
BandDavidson: Iter:  41  Eband: -0.106342756957149  dEband: -3.198106e-06  t[s]:   4402.12
BandDavidson: Iter:  42  Eband: -0.106345458000650  dEband: -2.701044e-06  t[s]:   4405.85
BandDavidson: Iter:  43  Eband: -0.106347782442948  dEband: -2.324442e-06  t[s]:   4409.75
BandDavidson: Iter:  44  Eband: -0.106349801036514  dEband: -2.018594e-06  t[s]:   4413.54
BandDavidson: Iter:  45  Eband: -0.106351563258776  dEband: -1.762222e-06  t[s]:   4417.46
BandDavidson: Iter:  46  Eband: -0.106353101765062  dEband: -1.538506e-06  t[s]:   4421.15
BandDavidson: Iter:  47  Eband: -0.106354449321487  dEband: -1.347556e-06  t[s]:   4424.91
BandDavidson: Iter:  48  Eband: -0.106355627431336  dEband: -1.178110e-06  t[s]:   4428.73
BandDavidson: Iter:  49  Eband: -0.106356657963385  dEband: -1.030532e-06  t[s]:   4432.48
BandDavidson: Iter:  50  Eband: -0.106357557515280  dEband: -8.995519e-07  t[s]:   4436.12
BandDavidson: Iter:  51  Eband: -0.106358343096389  dEband: -7.855811e-07  t[s]:   4439.75
BandDavidson: Iter:  52  Eband: -0.106359029914553  dEband: -6.868182e-07  t[s]:   4443.36
BandDavidson: Iter:  53  Eband: -0.106359632098945  dEband: -6.021844e-07  t[s]:   4446.84
BandDavidson: Iter:  54  Eband: -0.106360162479872  dEband: -5.303809e-07  t[s]:   4450.41
BandDavidson: Iter:  55  Eband: -0.106360627590306  dEband: -4.651104e-07  t[s]:   4453.84
BandDavidson: Iter:  56  Eband: -0.106361036225284  dEband: -4.086350e-07  t[s]:   4457.21
BandDavidson: Iter:  57  Eband: -0.106361395630982  dEband: -3.594057e-07  t[s]:   4460.63
BandDavidson: Iter:  58  Eband: -0.106361711264432  dEband: -3.156335e-07  t[s]:   4463.99
BandDavidson: Iter:  59  Eband: -0.106361987961057  dEband: -2.766966e-07  t[s]:   4467.31
BandDavidson: Iter:  60  Eband: -0.106362230411610  dEband: -2.424506e-07  t[s]:   4470.68
BandDavidson: Iter:  61  Eband: -0.106362442732754  dEband: -2.123211e-07  t[s]:   4473.97
BandDavidson: Iter:  62  Eband: -0.106362628046256  dEband: -1.853135e-07  t[s]:   4477.22
BandDavidson: Iter:  63  Eband: -0.106362790759334  dEband: -1.627131e-07  t[s]:   4480.44
BandDavidson: Iter:  64  Eband: -0.106362934095162  dEband: -1.433358e-07  t[s]:   4483.73
BandDavidson: Iter:  65  Eband: -0.106363060453768  dEband: -1.263586e-07  t[s]:   4487.04
BandDavidson: Iter:  66  Eband: -0.106363171751340  dEband: -1.112976e-07  t[s]:   4490.26
BandDavidson: Iter:  67  Eband: -0.106363270042921  dEband: -9.829158e-08  t[s]:   4493.54
BandDavidson: Iter:  68  Eband: -0.106363356599663  dEband: -8.655674e-08  t[s]:   4496.78
BandDavidson: Iter:  69  Eband: -0.106363432868279  dEband: -7.626862e-08  t[s]:   4500.06
BandDavidson: Iter:  70  Eband: -0.106363499999113  dEband: -6.713083e-08  t[s]:   4503.25
BandDavidson: Iter:  71  Eband: -0.106363559197096  dEband: -5.919798e-08  t[s]:   4506.42
BandDavidson: Iter:  72  Eband: -0.106363611290939  dEband: -5.209384e-08  t[s]:   4509.53
BandDavidson: Iter:  73  Eband: -0.106363657270617  dEband: -4.597968e-08  t[s]:   4512.61
BandDavidson: Iter:  74  Eband: -0.106363697780423  dEband: -4.050981e-08  t[s]:   4515.58
BandDavidson: Iter:  75  Eband: -0.106363733450202  dEband: -3.566978e-08  t[s]:   4518.55
BandDavidson: Iter:  76  Eband: -0.106363764852040  dEband: -3.140184e-08  t[s]:   4521.46
BandDavidson: Iter:  77  Eband: -0.106363792634535  dEband: -2.778250e-08  t[s]:   4524.32
BandDavidson: Iter:  78  Eband: -0.106363817272013  dEband: -2.463748e-08  t[s]:   4527.16
BandDavidson: Iter:  79  Eband: -0.106363839119477  dEband: -2.184746e-08  t[s]:   4530.05
BandDavidson: Iter:  80  Eband: -0.106363858449615  dEband: -1.933014e-08  t[s]:   4532.90
BandDavidson: Iter:  81  Eband: -0.106363875602739  dEband: -1.715312e-08  t[s]:   4535.70
BandDavidson: Iter:  82  Eband: -0.106363890807990  dEband: -1.520525e-08  t[s]:   4538.62
BandDavidson: Iter:  83  Eband: -0.106363904321788  dEband: -1.351380e-08  t[s]:   4541.49
BandDavidson: Iter:  84  Eband: -0.106363916300800  dEband: -1.197901e-08  t[s]:   4544.33
BandDavidson: Iter:  85  Eband: -0.106363926954056  dEband: -1.065326e-08  t[s]:   4547.13
BandDavidson: Iter:  86  Eband: -0.106363936408496  dEband: -9.454440e-09  t[s]:   4549.92
BandDavidson: Converged (dEband<1.000000e-08)

---- Minimization of quantum number:    12  [ +0.0000000 +0.3333333 +0.0000000 ]  0.004629630  spin +1 ----
BandDavidson: Iter:   0  Eband: -0.048810458340194
BandDavidson: Iter:   1  Eband: -0.082679241674950  dEband: -3.386878e-02  t[s]:   4559.42
BandDavidson: Iter:   2  Eband: -0.094045706550271  dEband: -1.136646e-02  t[s]:   4565.36
BandDavidson: Iter:   3  Eband: -0.098070761372137  dEband: -4.025055e-03  t[s]:   4571.38
BandDavidson: Iter:   4  Eband: -0.099819551011407  dEband: -1.748790e-03  t[s]:   4577.36
BandDavidson: Iter:   5  Eband: -0.100868242287206  dEband: -1.048691e-03  t[s]:   4583.41
BandDavidson: Iter:   6  Eband: -0.102007281860029  dEband: -1.139040e-03  t[s]:   4589.45
BandDavidson: Iter:   7  Eband: -0.102754450814404  dEband: -7.471690e-04  t[s]:   4595.51
BandDavidson: Iter:   8  Eband: -0.103291956267649  dEband: -5.375055e-04  t[s]:   4601.53
BandDavidson: Iter:   9  Eband: -0.103776225760556  dEband: -4.842695e-04  t[s]:   4607.42
BandDavidson: Iter:  10  Eband: -0.104221121856466  dEband: -4.448961e-04  t[s]:   4613.37
BandDavidson: Iter:  11  Eband: -0.104576339113488  dEband: -3.552173e-04  t[s]:   4619.30
BandDavidson: Iter:  12  Eband: -0.104894723131706  dEband: -3.183840e-04  t[s]:   4625.36
BandDavidson: Iter:  13  Eband: -0.105163763255837  dEband: -2.690401e-04  t[s]:   4631.46
BandDavidson: Iter:  14  Eband: -0.105417457432494  dEband: -2.536942e-04  t[s]:   4637.52
BandDavidson: Iter:  15  Eband: -0.105614783204199  dEband: -1.973258e-04  t[s]:   4643.63
BandDavidson: Iter:  16  Eband: -0.105759158556563  dEband: -1.443754e-04  t[s]:   4649.69
BandDavidson: Iter:  17  Eband: -0.105869498493601  dEband: -1.103399e-04  t[s]:   4655.79
BandDavidson: Iter:  18  Eband: -0.105958663375866  dEband: -8.916488e-05  t[s]:   4661.73
BandDavidson: Iter:  19  Eband: -0.106030868083820  dEband: -7.220471e-05  t[s]:   4667.62
BandDavidson: Iter:  20  Eband: -0.106088841270072  dEband: -5.797319e-05  t[s]:   4673.53
BandDavidson: Iter:  21  Eband: -0.106135582270833  dEband: -4.674100e-05  t[s]:   4679.48
BandDavidson: Iter:  22  Eband: -0.106173135480514  dEband: -3.755321e-05  t[s]:   4685.38
BandDavidson: Iter:  23  Eband: -0.106207851567434  dEband: -3.471609e-05  t[s]:   4691.27
BandDavidson: Iter:  24  Eband: -0.106245409270501  dEband: -3.755770e-05  t[s]:   4697.17
BandDavidson: Iter:  25  Eband: -0.106275186102458  dEband: -2.977683e-05  t[s]:   4703.00
BandDavidson: Iter:  26  Eband: -0.106299119471628  dEband: -2.393337e-05  t[s]:   4708.85
BandDavidson: Iter:  27  Eband: -0.106318042699280  dEband: -1.892323e-05  t[s]:   4714.58
BandDavidson: Iter:  28  Eband: -0.106333832676567  dEband: -1.578998e-05  t[s]:   4720.19
BandDavidson: Iter:  29  Eband: -0.106346825600611  dEband: -1.299292e-05  t[s]:   4725.56
BandDavidson: Iter:  30  Eband: -0.106357500163243  dEband: -1.067456e-05  t[s]:   4730.79
BandDavidson: Iter:  31  Eband: -0.106366305645370  dEband: -8.805482e-06  t[s]:   4736.09
BandDavidson: Iter:  32  Eband: -0.106373558839826  dEband: -7.253194e-06  t[s]:   4741.28
BandDavidson: Iter:  33  Eband: -0.106379571185929  dEband: -6.012346e-06  t[s]:   4746.14
BandDavidson: Iter:  34  Eband: -0.106384535296688  dEband: -4.964111e-06  t[s]:   4750.72
BandDavidson: Iter:  35  Eband: -0.106388713835751  dEband: -4.178539e-06  t[s]:   4755.21
BandDavidson: Iter:  36  Eband: -0.106392249382837  dEband: -3.535547e-06  t[s]:   4759.30
BandDavidson: Iter:  37  Eband: -0.106395272513676  dEband: -3.023131e-06  t[s]:   4763.27
BandDavidson: Iter:  38  Eband: -0.106397876125066  dEband: -2.603611e-06  t[s]:   4767.27
BandDavidson: Iter:  39  Eband: -0.106400162801549  dEband: -2.286676e-06  t[s]:   4771.31
BandDavidson: Iter:  40  Eband: -0.106402433065676  dEband: -2.270264e-06  t[s]:   4775.33
BandDavidson: Iter:  41  Eband: -0.106404665626674  dEband: -2.232561e-06  t[s]:   4779.32
BandDavidson: Iter:  42  Eband: -0.106406601262744  dEband: -1.935636e-06  t[s]:   4783.29
BandDavidson: Iter:  43  Eband: -0.106408289555090  dEband: -1.688292e-06  t[s]:   4787.11
BandDavidson: Iter:  44  Eband: -0.106409766305992  dEband: -1.476751e-06  t[s]:   4790.90
BandDavidson: Iter:  45  Eband: -0.106411061875583  dEband: -1.295570e-06  t[s]:   4794.67
BandDavidson: Iter:  46  Eband: -0.106412202437578  dEband: -1.140562e-06  t[s]:   4798.39
BandDavidson: Iter:  47  Eband: -0.106413210906143  dEband: -1.008469e-06  t[s]:   4802.12
BandDavidson: Iter:  48  Eband: -0.106414103309695  dEband: -8.924036e-07  t[s]:   4805.89
BandDavidson: Iter:  49  Eband: -0.106414890391872  dEband: -7.870822e-07  t[s]:   4809.67
BandDavidson: Iter:  50  Eband: -0.106415584732333  dEband: -6.943405e-07  t[s]:   4813.40
BandDavidson: Iter:  51  Eband: -0.106416196378647  dEband: -6.116463e-07  t[s]:   4816.98
BandDavidson: Iter:  52  Eband: -0.106416733506885  dEband: -5.371282e-07  t[s]:   4820.59
BandDavidson: Iter:  53  Eband: -0.106417206377302  dEband: -4.728704e-07  t[s]:   4824.20
BandDavidson: Iter:  54  Eband: -0.106417624965281  dEband: -4.185880e-07  t[s]:   4827.69
BandDavidson: Iter:  55  Eband: -0.106417992441531  dEband: -3.674763e-07  t[s]:   4831.18
BandDavidson: Iter:  56  Eband: -0.106418316168576  dEband: -3.237270e-07  t[s]:   4834.62
BandDavidson: Iter:  57  Eband: -0.106418600642262  dEband: -2.844737e-07  t[s]:   4837.95
BandDavidson: Iter:  58  Eband: -0.106418851392477  dEband: -2.507502e-07  t[s]:   4841.30
BandDavidson: Iter:  59  Eband: -0.106419072978648  dEband: -2.215862e-07  t[s]:   4844.71
BandDavidson: Iter:  60  Eband: -0.106419269307190  dEband: -1.963285e-07  t[s]:   4848.15
BandDavidson: Iter:  61  Eband: -0.106419443252413  dEband: -1.739452e-07  t[s]:   4851.53
BandDavidson: Iter:  62  Eband: -0.106419597094574  dEband: -1.538422e-07  t[s]:   4854.84
BandDavidson: Iter:  63  Eband: -0.106419733568131  dEband: -1.364736e-07  t[s]:   4858.18
BandDavidson: Iter:  64  Eband: -0.106419854323451  dEband: -1.207553e-07  t[s]:   4861.58
BandDavidson: Iter:  65  Eband: -0.106419961263228  dEband: -1.069398e-07  t[s]:   4864.85
BandDavidson: Iter:  66  Eband: -0.106420055630712  dEband: -9.436748e-08  t[s]:   4868.08
BandDavidson: Iter:  67  Eband: -0.106420138838324  dEband: -8.320761e-08  t[s]:   4871.23
BandDavidson: Iter:  68  Eband: -0.106420212291517  dEband: -7.345319e-08  t[s]:   4874.44
BandDavidson: Iter:  69  Eband: -0.106420277356711  dEband: -6.506519e-08  t[s]:   4877.57
BandDavidson: Iter:  70  Eband: -0.106420335142992  dEband: -5.778628e-08  t[s]:   4880.80
BandDavidson: Iter:  71  Eband: -0.106420386503644  dEband: -5.136065e-08  t[s]:   4883.96
BandDavidson: Iter:  72  Eband: -0.106420432040441  dEband: -4.553680e-08  t[s]:   4886.96
BandDavidson: Iter:  73  Eband: -0.106420472438450  dEband: -4.039801e-08  t[s]:   4890.00
BandDavidson: Iter:  74  Eband: -0.106420508333792  dEband: -3.589534e-08  t[s]:   4892.99
BandDavidson: Iter:  75  Eband: -0.106420540329260  dEband: -3.199547e-08  t[s]:   4895.97
BandDavidson: Iter:  76  Eband: -0.106420568796641  dEband: -2.846738e-08  t[s]:   4898.79
BandDavidson: Iter:  77  Eband: -0.106420594221782  dEband: -2.542514e-08  t[s]:   4901.72
BandDavidson: Iter:  78  Eband: -0.106420616898285  dEband: -2.267650e-08  t[s]:   4904.66
BandDavidson: Iter:  79  Eband: -0.106420637113326  dEband: -2.021504e-08  t[s]:   4907.54
BandDavidson: Iter:  80  Eband: -0.106420655172087  dEband: -1.805876e-08  t[s]:   4910.35
BandDavidson: Iter:  81  Eband: -0.106420671297440  dEband: -1.612535e-08  t[s]:   4913.23
BandDavidson: Iter:  82  Eband: -0.106420685713081  dEband: -1.441564e-08  t[s]:   4916.01
BandDavidson: Iter:  83  Eband: -0.106420698590279  dEband: -1.287720e-08  t[s]:   4918.83
BandDavidson: Iter:  84  Eband: -0.106420710128264  dEband: -1.153798e-08  t[s]:   4921.65
BandDavidson: Iter:  85  Eband: -0.106420720454708  dEband: -1.032644e-08  t[s]:   4924.51
BandDavidson: Iter:  86  Eband: -0.106420729725726  dEband: -9.271018e-09  t[s]:   4927.38
BandDavidson: Converged (dEband<1.000000e-08)
Setting wave functions to eigenvectors of Hamiltonian
	FillingsUpdate:  mu: -0.063637003  nElectrons: 121.000000  magneticMoment: [ Abs: 0.15333  Tot: +0.15278 ]

Dumping 'K-0.313.dosUp' ... done.
Dumping 'K-0.313.dosDn' ... done.
End date and time: Sat Apr  2 15:55:47 2022  (Duration: 0-1:42:37.61)
Done!
