Second Layer Distance is 0.349

--------------------------------------------------------------------------
The library attempted to open the following supporting CUDA libraries,
but each of them failed.  CUDA-aware support is disabled.
libcuda.so.1: cannot open shared object file: No such file or directory
libcuda.dylib: cannot open shared object file: No such file or directory
/usr/lib64/libcuda.so.1: cannot open shared object file: No such file or directory
/usr/lib64/libcuda.dylib: cannot open shared object file: No such file or directory
If you are not interested in CUDA-aware support, then run with
--mca opal_warn_on_missing_libcuda 0 to suppress this message.  If you are interested
in CUDA-aware support, then try setting LD_LIBRARY_PATH to the location
of libcuda.so.1 to get passed this issue.
--------------------------------------------------------------------------
--------------------------------------------------------------------------
No OpenFabrics connection schemes reported that they were able to be
used on a specific port.  As such, the openib BTL (OpenFabrics
support) will be disabled for this port.

  Local host:           d-6-6-1
  Local device:         mlx5_1
  Local port:           1
  CPCs attempted:       rdmacm, udcm
--------------------------------------------------------------------------

*************** JDFTx 1.6.0 (git hash 42ebbcc2) ***************

Start date and time: Wed Jan 19 20:56:36 2022
Executable jdftx with command-line: -i Moire.in
Running on hosts (process indices):  d-6-6-1 (0-18)
Divided in process groups (process indices):  0 (0)  1 (1)  2 (2)  3 (3)  4 (4)  5 (5)  6 (6)  7 (7)  8 (8)  9 (9)  10 (10)  11 (11)  12 (12)  13 (13)  14 (14)  15 (15)  16 (16)  17 (17)  18 (18)
Resource initialization completed at t[s]:      0.00
Run totals: 19 processes, 48 threads, 0 GPUs


Input parsed successfully to the following command list (including defaults):

basis kpoint-dependent
coords-type Lattice
core-overlap-check vector
coulomb-interaction Slab 001
davidson-band-ratio 1.1
dump End State ElecDensity BandEigs
dump-name Na-0.349.$VAR
elec-cutoff 20
elec-eigen-algo Davidson
elec-ex-corr gga-PBE
elec-initial-magnetization 0.100000 no
elec-smearing Fermi 1e-05
electronic-minimize  \
	dirUpdateScheme      FletcherReeves \
	linminMethod         DirUpdateRecommended \
	nIterations          100 \
	history              15 \
	knormThreshold       0 \
	energyDiffThreshold  1e-08 \
	nEnergyDiff          2 \
	alphaTstart          1 \
	alphaTmin            1e-10 \
	updateTestStepSize   yes \
	alphaTreduceFactor   0.1 \
	alphaTincreaseFactor 3 \
	nAlphaAdjustMax      3 \
	wolfeEnergy          0.0001 \
	wolfeGradient        0.9 \
	fdTest               no
electronic-scf  \
	nIterations	1000 \
	energyDiffThreshold	1e-08 \
	residualThreshold	1e-07 \
	mixFraction	0.5 \
	qMetric	0.8 \
	history	10 \
	nEigSteps	2 \
	eigDiffThreshold	1e-08 \
	mixedVariable	Density \
	qKerker	0.8 \
	qKappa	-1 \
	verbose	no \
	mixFractionMag	1.5
exchange-regularization WignerSeitzTruncated
fluid None
fluid-ex-corr (null) lda-PZ
fluid-gummel-loop 10 1.000000e-05
fluid-minimize  \
	dirUpdateScheme      PolakRibiere \
	linminMethod         DirUpdateRecommended \
	nIterations          100 \
	history              15 \
	knormThreshold       0 \
	energyDiffThreshold  0 \
	nEnergyDiff          2 \
	alphaTstart          1 \
	alphaTmin            1e-10 \
	updateTestStepSize   yes \
	alphaTreduceFactor   0.1 \
	alphaTincreaseFactor 3 \
	nAlphaAdjustMax      3 \
	wolfeEnergy          0.0001 \
	wolfeGradient        0.9 \
	fdTest               no
fluid-solvent H2O 55.338 ScalarEOS \
	epsBulk 78.4 \
	pMol 0.92466 \
	epsInf 1.77 \
	Pvap 1.06736e-10 \
	sigmaBulk 4.62e-05 \
	Rvdw 2.61727 \
	Res 1.42 \
	tauNuc 343133 \
	poleEl 15 7 1
forces-output-coords Positions
ion N   0.952380952380952   0.761904761904762   0.000000000000000 0
ion N   1.428571428571428   1.285714285714286   0.349000000000000 0
ion N   0.380952380952381   0.904761904761905   0.000000000000000 0
ion N   0.714285714285714   1.142857142857143   0.349000000000000 0
ion N   0.523809523809524   0.619047619047619   0.000000000000000 0
ion N   1.000000000000000   1.000000000000000   0.349000000000000 0
ion N   0.666666666666667   0.333333333333333   0.000000000000000 0
ion N   1.285714285714286   0.857142857142857   0.349000000000000 0
ion N   0.809523809523810   0.047619047619048   0.000000000000000 0
ion N   1.571428571428571   0.714285714285714   0.349000000000000 0
ion N   0.095238095238095   0.476190476190476   0.000000000000000 0
ion N   0.238095238095238   0.190476190476190   0.000000000000000 0
ion N   0.857142857142857   0.571428571428571   0.349000000000000 0
ion N   1.142857142857143   0.428571428571429   0.349000000000000 0
ion B   0.571428571428572   0.857142857142857   0.000000000000000 0
ion B   0.952380952380952   1.190476190476190   0.349000000000000 0
ion B   0.714285714285714   0.571428571428571   0.000000000000000 0
ion B   1.238095238095238   1.047619047619047   0.349000000000000 0
ion B   0.857142857142857   0.285714285714286   0.000000000000000 0
ion B   1.523809523809524   0.904761904761905   0.349000000000000 0
ion B   0.142857142857143   0.714285714285714   0.000000000000000 0
ion B   0.285714285714286   0.428571428571429   0.000000000000000 0
ion B   0.809523809523810   0.761904761904762   0.349000000000000 0
ion B   0.428571428571429   0.142857142857143   0.000000000000000 0
ion B   1.095238095238095   0.619047619047619   0.349000000000000 0
ion B   1.380952380952381   0.476190476190476   0.349000000000000 0
ion B   0.000000000000000   0.000000000000000   0.000000000000000 0
ion B   0.666666666666667   0.333333333333333   0.349000000000000 0
ion Na   0.333333333300000   0.666666666600000   0.174500000000000 0
ion-species SG15/$ID_ONCV_PBE.upf
ion-width 0
ionic-minimize  \
	dirUpdateScheme      L-BFGS \
	linminMethod         DirUpdateRecommended \
	nIterations          0 \
	history              15 \
	knormThreshold       0.0001 \
	energyDiffThreshold  1e-06 \
	nEnergyDiff          2 \
	alphaTstart          1 \
	alphaTmin            1e-10 \
	updateTestStepSize   yes \
	alphaTreduceFactor   0.1 \
	alphaTincreaseFactor 3 \
	nAlphaAdjustMax      3 \
	wolfeEnergy          0.0001 \
	wolfeGradient        0.9 \
	fdTest               no
kpoint   0.000000000000   0.000000000000   0.000000000000  1.00000000000000
kpoint-folding 12 12 1 
latt-move-scale 1 1 1
latt-scale 1 1 1 
lattice  \
	 -11.818700000000000    2.363740000000000    0.000000000000000  \
	   4.094120000000000  -12.282400000000001    0.000000000000000  \
	   0.000000000000000    0.000000000000000   40.000000000000000 
lattice-minimize  \
	dirUpdateScheme      L-BFGS \
	linminMethod         DirUpdateRecommended \
	nIterations          0 \
	history              15 \
	knormThreshold       0 \
	energyDiffThreshold  1e-06 \
	nEnergyDiff          2 \
	alphaTstart          1 \
	alphaTmin            1e-10 \
	updateTestStepSize   yes \
	alphaTreduceFactor   0.1 \
	alphaTincreaseFactor 3 \
	nAlphaAdjustMax      3 \
	wolfeEnergy          0.0001 \
	wolfeGradient        0.9 \
	fdTest               no
lcao-params -1 1e-06 1e-05
pcm-variant GLSSA13
spintype z-spin
subspace-rotation-factor 1 yes
symmetries automatic
symmetry-threshold 0.0001
van-der-waals D3



---------- Setting up symmetries ----------

Found 24 point-group symmetries of the bravais lattice
Found 6 space-group symmetries with basis
Applied RMS atom displacement 1.31765e-10 bohrs to make symmetries exact.

---------- Initializing the Grid ----------
R = 
[     -11.8187      2.36374            0  ]
[      4.09412     -12.2824            0  ]
[            0            0           40  ]
unit cell volume = 5419.38
G =
[  -0.569604   -0.10962          0  ]
[  -0.189867    -0.5481          0  ]
[          0          0    0.15708  ]
Minimum fftbox size, Smin = [  52  52  164  ]
Chosen fftbox size, S = [  54  54  168  ]

---------- Exchange Correlation functional ----------
Initalized PBE GGA exchange.
Initalized PBE GGA correlation.

---------- Setting up pseudopotentials ----------
Width of ionic core gaussian charges (only for fluid interactions / plotting) set to 0

Reading pseudopotential file '/home/gridsan/aligho/DFT/build-Nov24/pseudopotentials/SG15/N_ONCV_PBE.upf':
  'N' pseudopotential, 'PBE' functional
  Generated using ONCVPSP code by D. R. Hamann
  Author: Martin Schlipf and Francois Gygi  Date: 150915.
  5 valence electrons, 2 orbitals, 4 projectors, 1058 radial grid points, with lMax = 1
  Transforming local potential to a uniform radial grid of dG=0.02 with 1514 points.
  Transforming nonlocal projectors to a uniform radial grid of dG=0.02 with 432 points.
    2S    l: 0   occupation:  2.0   eigenvalue: -0.682907
    2P    l: 1   occupation:  3.0   eigenvalue: -0.260548
  Transforming atomic orbitals to a uniform radial grid of dG=0.02 with 432 points.
  Core radius for overlap checks: 1.35 bohrs.
  Reading pulay file /home/gridsan/aligho/DFT/build-Nov24/pseudopotentials/SG15/N_ONCV_PBE.pulay ... using dE_dnG = -2.956256e-02 computed for Ecut = 20.

Reading pseudopotential file '/home/gridsan/aligho/DFT/build-Nov24/pseudopotentials/SG15/B_ONCV_PBE.upf':
  'B' pseudopotential, 'PBE' functional
  Generated using ONCVPSP code by D. R. Hamann
  Author: Martin Schlipf and Francois Gygi  Date: 150915.
  3 valence electrons, 2 orbitals, 4 projectors, 1534 radial grid points, with lMax = 1
  Transforming local potential to a uniform radial grid of dG=0.02 with 1514 points.
  Transforming nonlocal projectors to a uniform radial grid of dG=0.02 with 432 points.
    2S    l: 0   occupation:  2.0   eigenvalue: -0.347027
    2P    l: 1   occupation:  1.0   eigenvalue: -0.132548
  Transforming atomic orbitals to a uniform radial grid of dG=0.02 with 432 points.
  Core radius for overlap checks: 1.60 bohrs.
  Reading pulay file /home/gridsan/aligho/DFT/build-Nov24/pseudopotentials/SG15/B_ONCV_PBE.pulay ... using dE_dnG = -3.748568e-04 computed for Ecut = 20.

Reading pseudopotential file '/home/gridsan/aligho/DFT/build-Nov24/pseudopotentials/SG15/Na_ONCV_PBE.upf':
  'Na' pseudopotential, 'PBE' functional
  Generated using ONCVPSP code by D. R. Hamann
  Author: Martin Schlipf and Francois Gygi  Date: 150915.
  9 valence electrons, 3 orbitals, 4 projectors, 1992 radial grid points, with lMax = 1
  Transforming local potential to a uniform radial grid of dG=0.02 with 1514 points.
  Transforming nonlocal projectors to a uniform radial grid of dG=0.02 with 432 points.
    2S    l: 0   occupation:  2.0   eigenvalue: -2.085640
    2P    l: 1   occupation:  6.0   eigenvalue: -1.053708
    3S    l: 0   occupation:  1.0   eigenvalue: -0.100838
  Transforming atomic orbitals to a uniform radial grid of dG=0.02 with 432 points.
  Core radius for overlap checks: 2.01 bohrs.
  Reading pulay file /home/gridsan/aligho/DFT/build-Nov24/pseudopotentials/SG15/Na_ONCV_PBE.pulay ... using dE_dnG = -2.946487e-03 computed for Ecut = 20.

Initialized 3 species with 29 total atoms.

Folded 1 k-points by 12x12x1 to 144 k-points.

---------- Setting up k-points, bands, fillings ----------
Adding inversion symmetry to k-mesh for non-inversion-symmetric unit cell.
Reduced to 19 k-points under symmetry. 
Computing the number of bands and number of electrons
Calculating initial fillings.
nElectrons: 121.000000   nBands: 117   nStates: 38

----- Setting up reduced wavefunction bases (one per k-point) -----
average nbasis = 23151.771 , ideal nbasis = 23152.016

---------- Setting up coulomb interaction ----------
Initialized slab truncation along lattice direction 001

Initializing DFT-D3 calculator:
	Parameters set for gga-PBE functional
	s6:  1.000  s_r6:  1.217
	s8:  0.722  s_r8:  1.000
	Per-atom parameters loaded for:
	 N:  sqrtQ[a0]:  2.712  Rcov[a0]:  1.342  CN: [ 0.00 0.99 2.01 2.99 ]
	 B:  sqrtQ[a0]:  3.644  Rcov[a0]:  1.455  CN: [ 0.00 0.97 1.94 2.91 4.59 ]
	Na:  sqrtQ[a0]:  6.586  Rcov[a0]:  2.646  CN: [ 0.00 0.97 ]

---------- Setting up 2D ewald sum ----------
Optimum gaussian width for ewald sums = 6.943804 bohr.
Real space sums over 289 unit cells with max indices [  8  8  0  ]
Reciprocal space sums over 81 terms with max indices [  4  4  0  ]

Computing DFT-D3 correction:
# coordination-number N 3.139 3.139 3.146 3.139 3.146 3.138 3.138 3.146 3.139 3.146 3.146 3.139 3.139 3.146
# coordination-number B 3.353 3.343 3.343 3.343 3.343 3.353 3.353 3.353 3.343 3.343 3.353 3.353 3.342 3.342
# coordination-number Na 0.189
# diagonal-C6 N 15.61 15.61 15.61 15.61 15.61 15.61 15.61 15.61 15.61 15.61 15.61 15.61 15.61 15.61
# diagonal-C6 B 31.44 31.44 31.44 31.44 31.44 31.44 31.44 31.44 31.44 31.44 31.44 31.44 31.44 31.44
# diagonal-C6 Na 1411.61
EvdW_6 =   -0.030985
EvdW_8 =   -0.028570

---------- Allocating electronic variables ----------
Initializing wave functions:  linear combination of atomic orbitals
N pseudo-atom occupations:   s ( 2 )  p ( 3 )
[d-6-6-1:95126] 18 more processes have sent help message help-mpi-common-cuda.txt / dlopen failed
[d-6-6-1:95126] Set MCA parameter "orte_base_help_aggregate" to 0 to see all help / error messages
[d-6-6-1:95126] 18 more processes have sent help message help-mpi-btl-openib-cpc-base.txt / no cpcs for port
B pseudo-atom occupations:   s ( 2 )  p ( 1 )
Na pseudo-atom occupations:   s ( 2 1 )  p ( 6 )
	FillingsUpdate:  mu: -0.088849194  nElectrons: 121.000000  magneticMoment: [ Abs: 0.06251  Tot: +0.05556 ]
LCAOMinimize: Iter:   0  F: -218.9680071001914712  |grad|_K:  3.914e-03  alpha:  1.000e+00
	FillingsUpdate:  mu: -0.289920991  nElectrons: 121.000000  magneticMoment: [ Abs: 0.12621  Tot: +0.11111 ]
LCAOMinimize: Iter:   1  F: -220.6587293291220533  |grad|_K:  8.197e-04  alpha:  4.476e-01  linmin:  4.552e-01  cgtest: -1.052e+00  t[s]:     48.62
LCAOMinimize: 	Bad step direction: g.d > 0.
LCAOMinimize: 	Undoing step.
LCAOMinimize: 	Step failed: resetting search direction.
	FillingsUpdate:  mu: -0.289920991  nElectrons: 121.000000  magneticMoment: [ Abs: 0.12621  Tot: +0.11111 ]
LCAOMinimize: Iter:   2  F: -220.6587293291220533  |grad|_K:  8.197e-04  alpha:  0.000e+00
	FillingsUpdate:  mu: -0.112308441  nElectrons: 121.000000  magneticMoment: [ Abs: 0.06568  Tot: +0.01347 ]
LCAOMinimize: Iter:   3  F: -220.7242893424892713  |grad|_K:  6.315e-04  alpha:  6.743e-01  linmin:  3.266e-01  cgtest: -9.403e-01  t[s]:     73.31
LCAOMinimize: 	Bad step direction: g.d > 0.
LCAOMinimize: 	Undoing step.
LCAOMinimize: 	Step failed: resetting search direction.
	FillingsUpdate:  mu: -0.112308441  nElectrons: 121.000000  magneticMoment: [ Abs: 0.06568  Tot: +0.01347 ]
LCAOMinimize: Iter:   4  F: -220.7242893424892713  |grad|_K:  6.315e-04  alpha:  0.000e+00
	FillingsUpdate:  mu: -0.121609507  nElectrons: 121.000000  magneticMoment: [ Abs: 0.05484  Tot: +0.01389 ]
LCAOMinimize: Iter:   5  F: -220.7654241872798480  |grad|_K:  1.992e-04  alpha:  3.049e-01  linmin: -1.029e-01  cgtest:  9.355e-01  t[s]:     97.98
LCAOMinimize: Encountered beta<0, resetting CG.
LCAOMinimize: 	Wrong curvature in test step, increasing alphaT to 9.147366e-01.
	FillingsUpdate:  mu: -0.140504545  nElectrons: 121.000000  magneticMoment: [ Abs: 0.17689  Tot: +0.15278 ]
LCAOMinimize: Iter:   6  F: -220.7761891759415960  |grad|_K:  2.837e-05  alpha: -2.237e-01  linmin: -5.496e-02  cgtest:  8.220e-01  t[s]:    112.06
LCAOMinimize: Encountered beta<0, resetting CG.
	FillingsUpdate:  mu: -0.140535446  nElectrons: 121.000000  magneticMoment: [ Abs: 0.17898  Tot: +0.15278 ]
LCAOMinimize: Iter:   7  F: -220.7762082715300664  |grad|_K:  2.537e-05  alpha:  4.736e-02  linmin: -1.823e-01  cgtest:  9.996e-01  t[s]:    126.41
LCAOMinimize: Encountered beta<0, resetting CG.
LCAOMinimize: 	Predicted alpha/alphaT>3.000000, increasing alphaT to 1.420713e-01.
LCAOMinimize: 	Predicted alpha/alphaT>3.000000, increasing alphaT to 4.262140e-01.
	FillingsUpdate:  mu: -0.140551565  nElectrons: 121.000000  magneticMoment: [ Abs: 0.18010  Tot: +0.15278 ]
LCAOMinimize: Iter:   8  F: -220.7762168523164519  |grad|_K:  2.392e-05  alpha:  2.594e-02  linmin: -1.739e-01  cgtest:  9.999e-01  t[s]:    149.12
LCAOMinimize: Encountered beta<0, resetting CG.
LCAOMinimize: 	Predicted alpha/alphaT>3.000000, increasing alphaT to 7.781705e-02.
LCAOMinimize: 	Predicted alpha/alphaT>3.000000, increasing alphaT to 2.334512e-01.
	FillingsUpdate:  mu: -0.140609580  nElectrons: 121.000000  magneticMoment: [ Abs: 0.18420  Tot: +0.15278 ]
LCAOMinimize: Iter:   9  F: -220.7762428529890997  |grad|_K:  1.893e-05  alpha:  9.597e-02  linmin: -1.649e-01  cgtest:  9.975e-01  t[s]:    171.71
LCAOMinimize: Encountered beta<0, resetting CG.
LCAOMinimize: 	Wrong curvature in test step, increasing alphaT to 2.879229e-01.
	FillingsUpdate:  mu: -0.141967448  nElectrons: 121.000000  magneticMoment: [ Abs: 0.18790  Tot: +0.15278 ]
LCAOMinimize: Iter:  10  F: -220.7762822061462487  |grad|_K:  6.989e-05  alpha: -4.132e-02  linmin: -1.316e-02  cgtest:  1.975e-01  t[s]:    185.67
LCAOMinimize: 	Step increased F by 2.000561e-02, reducing alpha to 2.008894e-02.
LCAOMinimize: 	Step increased F by 1.118006e-03, reducing alpha to 2.008894e-03.
LCAOMinimize: 	Step increased F by 8.052719e-05, reducing alpha to 2.008894e-04.
LCAOMinimize: 	Step failed to reduce F after 3 attempts. Quitting step.
LCAOMinimize: 	Undoing step.
LCAOMinimize: 	Step failed: resetting search direction.
	FillingsUpdate:  mu: -0.147502805  nElectrons: 121.000000  magneticMoment: [ Abs: 0.18826  Tot: +0.15278 ]
LCAOMinimize: Iter:  11  F: -220.7762049745105344  |grad|_K:  6.985e-05  alpha:  2.009e-04
	FillingsUpdate:  mu: -0.140268141  nElectrons: 121.000000  magneticMoment: [ Abs: 0.19093  Tot: +0.15278 ]
LCAOMinimize: Iter:  12  F: -220.7762614199241398  |grad|_K:  1.358e-05  alpha:  2.052e-01  linmin:  2.661e-02  cgtest: -4.489e+00  t[s]:    245.45
	FillingsUpdate:  mu: -0.140148208  nElectrons: 121.000000  magneticMoment: [ Abs: 0.19995  Tot: +0.15278 ]
LCAOMinimize: Iter:  13  F: -220.7762678628352546  |grad|_K:  1.214e-05  alpha:  1.986e-01  linmin: -1.052e-05  cgtest:  8.335e-01  t[s]:    259.86
LCAOMinimize: 	Predicted alpha/alphaT>3.000000, increasing alphaT to 5.959288e-01.
	FillingsUpdate:  mu: -0.140161493  nElectrons: 121.000000  magneticMoment: [ Abs: 0.20028  Tot: +0.15278 ]
LCAOMinimize: Iter:  14  F: -220.7762685798774100  |grad|_K:  1.197e-05  alpha:  9.264e-03  linmin: -1.048e-01  cgtest:  9.999e-01  t[s]:    278.46
LCAOMinimize: Encountered beta<0, resetting CG.
LCAOMinimize: 	Predicted alpha/alphaT>3.000000, increasing alphaT to 2.779335e-02.
LCAOMinimize: 	Predicted alpha/alphaT>3.000000, increasing alphaT to 8.338004e-02.
LCAOMinimize: 	Predicted alpha/alphaT>3.000000, increasing alphaT to 2.501401e-01.
LCAOMinimize: 	Step increased F by 1.464462e-03, reducing alpha to 6.552834e-02.
	FillingsUpdate:  mu: -0.140256146  nElectrons: 121.000000  magneticMoment: [ Abs: 0.20238  Tot: +0.15278 ]
LCAOMinimize: Iter:  15  F: -220.7762732969592037  |grad|_K:  1.077e-05  alpha:  6.553e-02  linmin: -1.064e-01  cgtest:  9.988e-01  t[s]:    311.47
LCAOMinimize: Encountered beta<0, resetting CG.
LCAOMinimize: 	Predicted alpha/alphaT>3.000000, increasing alphaT to 1.965850e-01.
	FillingsUpdate:  mu: -0.140276967  nElectrons: 121.000000  magneticMoment: [ Abs: 0.20288  Tot: +0.15278 ]
LCAOMinimize: Iter:  16  F: -220.7762742795547126  |grad|_K:  1.051e-05  alpha:  1.621e-02  linmin: -1.037e-01  cgtest:  9.998e-01  t[s]:    329.97
LCAOMinimize: Encountered beta<0, resetting CG.
LCAOMinimize: 	Predicted alpha/alphaT>3.000000, increasing alphaT to 4.862361e-02.
LCAOMinimize: 	Predicted alpha/alphaT>3.000000, increasing alphaT to 1.458708e-01.
LCAOMinimize: 	Wrong curvature in test step, increasing alphaT to 4.376125e-01.
	FillingsUpdate:  mu: -0.145210194  nElectrons: 121.000000  magneticMoment: [ Abs: 0.20700  Tot: +0.15278 ]
LCAOMinimize: Iter:  17  F: -220.7763055912159587  |grad|_K:  8.524e-05  alpha: -2.727e-02  linmin:  1.996e-02  cgtest: -4.684e-02  t[s]:    352.18
LCAOMinimize: 	Bad step direction: g.d > 0.
LCAOMinimize: 	Undoing step.
LCAOMinimize: 	Step failed: resetting search direction.
	FillingsUpdate:  mu: -0.145210194  nElectrons: 121.000000  magneticMoment: [ Abs: 0.20700  Tot: +0.15278 ]
LCAOMinimize: Iter:  18  F: -220.7763055912159587  |grad|_K:  8.524e-05  alpha:  0.000e+00
LCAOMinimize: 	Step increased F by 3.473307e-05, reducing alpha to 4.811954e-02.
LCAOMinimize: 	Step increased F by 2.433331e-05, reducing alpha to 4.811954e-03.
	FillingsUpdate:  mu: -0.143932028  nElectrons: 121.000000  magneticMoment: [ Abs: 0.20709  Tot: +0.15278 ]
LCAOMinimize: Iter:  19  F: -220.7763194129177293  |grad|_K:  3.856e-05  alpha:  4.812e-03  linmin: -1.910e-02  cgtest:  9.736e-01  t[s]:    397.56
LCAOMinimize: Encountered beta<0, resetting CG.
	FillingsUpdate:  mu: -0.143575161  nElectrons: 121.000000  magneticMoment: [ Abs: 0.20725  Tot: +0.15278 ]
LCAOMinimize: Iter:  20  F: -220.7763227480228920  |grad|_K:  2.591e-06  alpha:  8.407e-03  linmin: -3.167e-02  cgtest:  3.642e-01  t[s]:    412.02
LCAOMinimize: Encountered beta<0, resetting CG.
LCAOMinimize: 	Predicted alpha/alphaT>3.000000, increasing alphaT to 2.522039e-02.
LCAOMinimize: 	Predicted alpha/alphaT>3.000000, increasing alphaT to 7.566117e-02.
	FillingsUpdate:  mu: -0.143339511  nElectrons: 121.000000  magneticMoment: [ Abs: 0.20880  Tot: +0.15278 ]
LCAOMinimize: Iter:  21  F: -220.7763229128826481  |grad|_K:  7.472e-06  alpha:  9.253e-02  linmin: -7.499e-06  cgtest: -1.342e-03  t[s]:    434.47
	FillingsUpdate:  mu: -0.143475518  nElectrons: 121.000000  magneticMoment: [ Abs: 0.22251  Tot: +0.15278 ]
LCAOMinimize: Iter:  22  F: -220.7763242383146007  |grad|_K:  1.872e-06  alpha:  8.858e-02  linmin:  5.055e-06  cgtest: -4.548e-01  t[s]:    448.97
	FillingsUpdate:  mu: -0.143380944  nElectrons: 121.000000  magneticMoment: [ Abs: 0.22397  Tot: +0.15278 ]
LCAOMinimize: Iter:  23  F: -220.7763242761528772  |grad|_K:  3.197e-06  alpha:  4.136e-02  linmin:  2.472e-06  cgtest: -4.717e-03  t[s]:    463.53
	FillingsUpdate:  mu: -0.143412007  nElectrons: 121.000000  magneticMoment: [ Abs: 0.23180  Tot: +0.15278 ]
LCAOMinimize: Iter:  24  F: -220.7763244668322216  |grad|_K:  1.677e-06  alpha:  7.094e-02  linmin:  4.227e-07  cgtest:  3.604e-02  t[s]:    478.03
LCAOMinimize: Converged (|Delta F|<1.000000e-06 for 2 iters).


---- Citations for features of the code used in this run ----

   Software package:
      R. Sundararaman, K. Letchworth-Weaver, K.A. Schwarz, D. Gunceler, Y. Ozhabes and T.A. Arias, 'JDFTx: software for joint density-functional theory', SoftwareX 6, 278 (2017)

   gga-PBE exchange-correlation functional:
      J.P. Perdew, K. Burke and M. Ernzerhof, Phys. Rev. Lett. 77, 3865 (1996)

   Pseudopotentials:
      M Schlipf and F Gygi, Comput. Phys. Commun. 196, 36 (2015)

   Truncated Coulomb potentials:
      R. Sundararaman and T.A. Arias, Phys. Rev. B 87, 165122 (2013)

   DFT-D3 dispersion correction:
      S. Grimme, J. Antony, S. Ehrlich and H. Krieg, J. Chem. Phys. 132, 154104 (2010)

This list may not be complete. Please suggest additional citations or
report any other bugs at https://github.com/shankar1729/jdftx/issues

Initialization completed successfully at t[s]:    480.20


Computing DFT-D3 correction:
# coordination-number N 3.139 3.139 3.146 3.139 3.146 3.138 3.138 3.146 3.139 3.146 3.146 3.139 3.139 3.146
# coordination-number B 3.353 3.343 3.343 3.343 3.343 3.353 3.353 3.353 3.343 3.343 3.353 3.353 3.342 3.342
# coordination-number Na 0.189
# diagonal-C6 N 15.61 15.61 15.61 15.61 15.61 15.61 15.61 15.61 15.61 15.61 15.61 15.61 15.61 15.61
# diagonal-C6 B 31.44 31.44 31.44 31.44 31.44 31.44 31.44 31.44 31.44 31.44 31.44 31.44 31.44 31.44
# diagonal-C6 Na 1411.61
EvdW_6 =   -0.030985
EvdW_8 =   -0.028570

-------- Electronic minimization -----------
Will mix electronic density at each iteration.
	FillingsUpdate:  mu: -0.143412007  nElectrons: 121.000000  magneticMoment: [ Abs: 0.23180  Tot: +0.15278 ]
	FillingsUpdate:  mu: -0.151290418  nElectrons: 121.000000  magneticMoment: [ Abs: 0.23180  Tot: +0.15278 ]
SCF: Cycle:  0   F: -222.167902890138492   dF: -1.392e+00   |Residual|: 4.011e-01   |deigs|: 1.036e-01  t[s]:    528.98
	FillingsUpdate:  mu: -0.149667981  nElectrons: 121.000000  magneticMoment: [ Abs: 0.21930  Tot: +0.14968 ]
SCF: Cycle:  1   F: -222.257323247691033   dF: -8.942e-02   |Residual|: 2.230e-01   |deigs|: 2.155e-02  t[s]:    566.80
	FillingsUpdate:  mu: -0.152005406  nElectrons: 121.000000  magneticMoment: [ Abs: 0.23509  Tot: +0.13391 ]
SCF: Cycle:  2   F: -222.282209627278547   dF: -2.489e-02   |Residual|: 4.325e-02   |deigs|: 3.004e-02  t[s]:    604.48
	FillingsUpdate:  mu: -0.150417928  nElectrons: 121.000000  magneticMoment: [ Abs: 0.13958  Tot: +0.12687 ]
SCF: Cycle:  3   F: -222.285238057460816   dF: -3.028e-03   |Residual|: 3.109e-02   |deigs|: 6.617e-03  t[s]:    642.19
	FillingsUpdate:  mu: -0.144240503  nElectrons: 121.000000  magneticMoment: [ Abs: 0.16030  Tot: +0.10471 ]
SCF: Cycle:  4   F: -222.290503166586802   dF: -5.265e-03   |Residual|: 1.799e-02   |deigs|: 1.697e-02  t[s]:    679.83
	FillingsUpdate:  mu: -0.141060887  nElectrons: 121.000000  magneticMoment: [ Abs: 0.11624  Tot: +0.09580 ]
SCF: Cycle:  5   F: -222.293141479999576   dF: -2.638e-03   |Residual|: 1.435e-02   |deigs|: 5.964e-03  t[s]:    717.54
	FillingsUpdate:  mu: -0.132631074  nElectrons: 121.000000  magneticMoment: [ Abs: 0.09070  Tot: +0.07718 ]
SCF: Cycle:  6   F: -222.298692718837856   dF: -5.551e-03   |Residual|: 9.714e-03   |deigs|: 9.087e-03  t[s]:    755.30
	FillingsUpdate:  mu: -0.122686092  nElectrons: 121.000000  magneticMoment: [ Abs: 0.09423  Tot: +0.05816 ]
SCF: Cycle:  7   F: -222.303415880116688   dF: -4.723e-03   |Residual|: 1.155e-02   |deigs|: 7.419e-03  t[s]:    792.96
	FillingsUpdate:  mu: -0.113822977  nElectrons: 121.000000  magneticMoment: [ Abs: 0.06920  Tot: +0.04229 ]
SCF: Cycle:  8   F: -222.306715843586574   dF: -3.300e-03   |Residual|: 8.962e-03   |deigs|: 5.759e-03  t[s]:    831.20
	FillingsUpdate:  mu: -0.103237089  nElectrons: 121.000000  magneticMoment: [ Abs: 0.04627  Tot: +0.02491 ]
SCF: Cycle:  9   F: -222.309449214752419   dF: -2.733e-03   |Residual|: 6.682e-03   |deigs|: 5.884e-03  t[s]:    869.34
	FillingsUpdate:  mu: -0.093637849  nElectrons: 121.000000  magneticMoment: [ Abs: 0.04054  Tot: +0.01085 ]
SCF: Cycle: 10   F: -222.310753393923221   dF: -1.304e-03   |Residual|: 6.322e-03   |deigs|: 4.558e-03  t[s]:    907.24
	FillingsUpdate:  mu: -0.091917479  nElectrons: 121.000000  magneticMoment: [ Abs: 0.03456  Tot: +0.01100 ]
SCF: Cycle: 11   F: -222.310802653928022   dF: -4.926e-05   |Residual|: 4.398e-03   |deigs|: 1.593e-03  t[s]:    945.48
	FillingsUpdate:  mu: -0.088681988  nElectrons: 121.000000  magneticMoment: [ Abs: 0.03703  Tot: +0.00888 ]
SCF: Cycle: 12   F: -222.310956830821311   dF: -1.542e-04   |Residual|: 3.725e-03   |deigs|: 1.660e-03  t[s]:    983.60
	FillingsUpdate:  mu: -0.085510956  nElectrons: 121.000000  magneticMoment: [ Abs: 0.02782  Tot: +0.00793 ]
SCF: Cycle: 13   F: -222.311062488795983   dF: -1.057e-04   |Residual|: 2.908e-03   |deigs|: 1.536e-03  t[s]:   1021.59
	FillingsUpdate:  mu: -0.084088565  nElectrons: 121.000000  magneticMoment: [ Abs: 0.02934  Tot: +0.00918 ]
SCF: Cycle: 14   F: -222.311095101174146   dF: -3.261e-05   |Residual|: 2.277e-03   |deigs|: 1.643e-03  t[s]:   1059.76
	FillingsUpdate:  mu: -0.083669487  nElectrons: 121.000000  magneticMoment: [ Abs: 0.02583  Tot: +0.01115 ]
SCF: Cycle: 15   F: -222.311104477617306   dF: -9.376e-06   |Residual|: 1.679e-03   |deigs|: 1.795e-03  t[s]:   1097.64
	FillingsUpdate:  mu: -0.083612474  nElectrons: 121.000000  magneticMoment: [ Abs: 0.02455  Tot: +0.01243 ]
SCF: Cycle: 16   F: -222.311108842544115   dF: -4.365e-06   |Residual|: 1.079e-03   |deigs|: 7.420e-04  t[s]:   1135.55
	FillingsUpdate:  mu: -0.083707459  nElectrons: 121.000000  magneticMoment: [ Abs: 0.01943  Tot: +0.01354 ]
SCF: Cycle: 17   F: -222.311109675599255   dF: -8.331e-07   |Residual|: 6.739e-04   |deigs|: 1.015e-03  t[s]:   1173.62
	FillingsUpdate:  mu: -0.083670510  nElectrons: 121.000000  magneticMoment: [ Abs: 0.01577  Tot: +0.01375 ]
SCF: Cycle: 18   F: -222.311110930748214   dF: -1.255e-06   |Residual|: 3.657e-04   |deigs|: 9.748e-04  t[s]:   1211.51
	FillingsUpdate:  mu: -0.083779593  nElectrons: 121.000000  magneticMoment: [ Abs: 0.01589  Tot: +0.01399 ]
SCF: Cycle: 19   F: -222.311111400599827   dF: -4.699e-07   |Residual|: 1.901e-04   |deigs|: 7.218e-04  t[s]:   1249.38
	FillingsUpdate:  mu: -0.083770414  nElectrons: 121.000000  magneticMoment: [ Abs: 0.01438  Tot: +0.01398 ]
SCF: Cycle: 20   F: -222.311111538772536   dF: -1.382e-07   |Residual|: 1.041e-04   |deigs|: 6.087e-04  t[s]:   1287.34
	FillingsUpdate:  mu: -0.083790681  nElectrons: 121.000000  magneticMoment: [ Abs: 0.01422  Tot: +0.01398 ]
SCF: Cycle: 21   F: -222.311111571458810   dF: -3.269e-08   |Residual|: 5.313e-05   |deigs|: 2.516e-04  t[s]:   1325.33
	FillingsUpdate:  mu: -0.083791846  nElectrons: 121.000000  magneticMoment: [ Abs: 0.01406  Tot: +0.01395 ]
SCF: Cycle: 22   F: -222.311111581610930   dF: -1.015e-08   |Residual|: 3.137e-05   |deigs|: 6.308e-04  t[s]:   1363.39
	FillingsUpdate:  mu: -0.083790589  nElectrons: 121.000000  magneticMoment: [ Abs: 0.01401  Tot: +0.01393 ]
SCF: Cycle: 23   F: -222.311111585386868   dF: -3.776e-09   |Residual|: 2.002e-05   |deigs|: 5.874e-04  t[s]:   1401.43
	FillingsUpdate:  mu: -0.083787995  nElectrons: 121.000000  magneticMoment: [ Abs: 0.01398  Tot: +0.01392 ]
SCF: Cycle: 24   F: -222.311111586877132   dF: -1.490e-09   |Residual|: 8.202e-06   |deigs|: 1.647e-04  t[s]:   1439.47
SCF: Converged (|Delta E|<1.000000e-08 for 2 iters).


Computing DFT-D3 correction:
# coordination-number N 3.139 3.139 3.146 3.139 3.146 3.138 3.138 3.146 3.139 3.146 3.146 3.139 3.139 3.146
# coordination-number B 3.353 3.343 3.343 3.343 3.343 3.353 3.353 3.353 3.343 3.343 3.353 3.353 3.342 3.342
# coordination-number Na 0.189
# diagonal-C6 N 15.61 15.61 15.61 15.61 15.61 15.61 15.61 15.61 15.61 15.61 15.61 15.61 15.61 15.61
# diagonal-C6 B 31.44 31.44 31.44 31.44 31.44 31.44 31.44 31.44 31.44 31.44 31.44 31.44 31.44 31.44
# diagonal-C6 Na 1411.61
EvdW_6 =   -0.030985
EvdW_8 =   -0.028570

# Ionic positions in lattice coordinates:
ion N   0.952380952379803   0.761904761902463   0.000000000000000 0
ion N   1.428571428570279   1.285714285711987   0.349000000000000 0
ion N   0.380952380951232   0.904761904759606   0.000000000000000 0
ion N   0.714285714284565   1.142857142854844   0.349000000000000 0
ion N   0.523809523808374   0.619047619045320   0.000000000000000 0
ion N   0.999999999998850   0.999999999997701   0.349000000000000 0
ion N   0.666666666665517   0.333333333331034   0.000000000000000 0
ion N   1.285714285713136   0.857142857140558   0.349000000000000 0
ion N   0.809523809522660   0.047619047616749   0.000000000000000 0
ion N   1.571428571427422   0.714285714283415   0.349000000000000 0
ion N   0.095238095236946   0.476190476188177   0.000000000000000 0
ion N   0.238095238094089   0.190476190473892   0.000000000000000 0
ion N   0.857142857141708   0.571428571426273   0.349000000000000 0
ion N   1.142857142855993   0.428571428569130   0.349000000000000 0
ion B   0.571428571427422   0.857142857140558   0.000000000000000 0
ion B   0.952380952379803   1.190476190473892   0.349000000000000 0
ion B   0.714285714284565   0.571428571426273   0.000000000000000 0
ion B   1.238095238094089   1.047619047616749   0.349000000000000 0
ion B   0.857142857141708   0.285714285711987   0.000000000000000 0
ion B   1.523809523808374   0.904761904759606   0.349000000000000 0
ion B   0.142857142855993   0.714285714283415   0.000000000000000 0
ion B   0.285714285713136   0.428571428569130   0.000000000000000 0
ion B   0.809523809522660   0.761904761902463   0.349000000000000 0
ion B   0.428571428570279   0.142857142854844   0.000000000000000 0
ion B   1.095238095236946   0.619047619045320   0.349000000000000 0
ion B   1.380952380951231   0.476190476188177   0.349000000000000 0
ion B  -0.000000000001149  -0.000000000002299   0.000000000000000 0
ion B   0.666666666665517   0.333333333331034   0.349000000000000 0
ion Na   0.333333333332184   0.666666666664368   0.174500000000000 0

# Forces in Lattice coordinates:
force N   0.005258155776277  -0.003694501873778   0.021123620772591 0
force N  -0.003694501873778   0.005258155776277  -0.021123620772477 0
force N  -0.000441845628490  -0.006979422603217   0.050448729843139 0
force N  -0.001563653902499  -0.003694501873778  -0.021123620772591 0
force N  -0.006979422603217   0.007421268231708   0.050448729843253 0
force N   0.000000000000000   0.000000000000000  -0.026125900495770 0
force N   0.000000000000000   0.000000000000000   0.026125900495657 0
force N   0.007421268231708  -0.006979422603217  -0.050448729843253 0
force N  -0.003694501873778  -0.001563653902499   0.021123620772591 0
force N  -0.006979422603217  -0.000441845628490  -0.050448729843253 0
force N   0.007421268231708  -0.000441845628490   0.050448729843139 0
force N  -0.001563653902499   0.005258155776277   0.021123620772591 0
force N   0.005258155776277  -0.001563653902499  -0.021123620772591 0
force N  -0.000441845628490   0.007421268231708  -0.050448729843139 0
force B   0.010772605130452   0.006212576646036   0.066418744488591 0
force B  -0.003248013535037  -0.010638272184859  -0.105683878267822 0
force B   0.013886285719895  -0.010638272184859   0.105683878267709 0
force B  -0.010638272184859   0.013886285719895  -0.105683878267766 0
force B  -0.010638272184859  -0.003248013535037   0.105683878267822 0
force B   0.006212576646036   0.010772605130452  -0.066418744488648 0
force B  -0.016985181776487   0.010772605130452   0.066418744488591 0
force B   0.006212576646036  -0.016985181776487   0.066418744488648 0
force B   0.013886285719895  -0.003248013535037  -0.105683878267766 0
force B  -0.003248013535037   0.013886285719895   0.105683878267822 0
force B  -0.016985181776487   0.006212576646036  -0.066418744488591 0
force B   0.010772605130452  -0.016985181776487  -0.066418744488648 0
force B   0.000000000000000  -0.000000000000000   0.113090887999233 0
force B  -0.000000000000000   0.000000000000000  -0.113090887999404 0
force Na   0.000000000000000   0.000000000000000  -0.000000000000000 0

# Energy components:
   Eewald =    -2650.8229721647639963
       EH =    -2474.4207399458000509
     Eloc =     4833.1021978134313031
      Enl =      -21.3228717990687890
   Epulay =       -0.0000190610708103
     EvdW =       -0.0595548754993679
      Exc =      -57.7881736116647957
       KE =      149.0010224330270034
-------------------------------------
     Etot =     -222.3111112114094681
       TS =        0.0000003754676741
-------------------------------------
        F =     -222.3111115868771321

IonicMinimize: Iter:   0  F: -222.311111586877132  |grad|_K:  0.000e+00  t[s]:   1443.49
IonicMinimize: Converged (|grad|_K<1.000000e-04).

#--- Lowdin population analysis ---
# oxidation-state N -0.376 -0.376 -0.378 -0.376 -0.378 -0.376 -0.376 -0.378 -0.376 -0.378 -0.378 -0.376 -0.376 -0.378
# magnetic-moments N +0.000 +0.000 +0.000 +0.000 +0.000 +0.000 +0.000 +0.000 +0.000 +0.000 +0.000 +0.000 +0.000 +0.000
# oxidation-state B +0.438 +0.449 +0.449 +0.449 +0.449 +0.438 +0.438 +0.438 +0.449 +0.449 +0.438 +0.438 +0.450 +0.450
# magnetic-moments B +0.000 +0.000 +0.000 +0.000 +0.000 +0.000 +0.000 +0.000 +0.000 +0.000 +0.000 +0.000 +0.000 +0.000
# oxidation-state Na +0.073
# magnetic-moments Na +0.013


Dumping 'Na-0.349.fillings' ... done
Dumping 'Na-0.349.wfns' ... done
Dumping 'Na-0.349.n_up' ... done
Dumping 'Na-0.349.n_dn' ... done
Dumping 'Na-0.349.eigenvals' ... done
End date and time: Wed Jan 19 21:20:44 2022  (Duration: 0-0:24:07.62)
Done!
