Second Layer Distance is 0.229

--------------------------------------------------------------------------
The library attempted to open the following supporting CUDA libraries,
but each of them failed.  CUDA-aware support is disabled.
libcuda.so.1: cannot open shared object file: No such file or directory
libcuda.dylib: cannot open shared object file: No such file or directory
/usr/lib64/libcuda.so.1: cannot open shared object file: No such file or directory
/usr/lib64/libcuda.dylib: cannot open shared object file: No such file or directory
If you are not interested in CUDA-aware support, then run with
--mca opal_warn_on_missing_libcuda 0 to suppress this message.  If you are interested
in CUDA-aware support, then try setting LD_LIBRARY_PATH to the location
of libcuda.so.1 to get passed this issue.
--------------------------------------------------------------------------
--------------------------------------------------------------------------
No OpenFabrics connection schemes reported that they were able to be
used on a specific port.  As such, the openib BTL (OpenFabrics
support) will be disabled for this port.

  Local host:           d-16-11-1
  Local device:         mlx5_1
  Local port:           1
  CPCs attempted:       rdmacm, udcm
--------------------------------------------------------------------------

*************** JDFTx 1.6.0 (git hash 42ebbcc2) ***************

Start date and time: Wed Jan 19 20:19:06 2022
Executable jdftx with command-line: -i Moire.in
Running on hosts (process indices):  d-16-11-1 (0-18)
Divided in process groups (process indices):  0 (0)  1 (1)  2 (2)  3 (3)  4 (4)  5 (5)  6 (6)  7 (7)  8 (8)  9 (9)  10 (10)  11 (11)  12 (12)  13 (13)  14 (14)  15 (15)  16 (16)  17 (17)  18 (18)
Resource initialization completed at t[s]:      0.00
Run totals: 19 processes, 48 threads, 0 GPUs


Input parsed successfully to the following command list (including defaults):

basis kpoint-dependent
coords-type Lattice
core-overlap-check vector
coulomb-interaction Slab 001
davidson-band-ratio 1.1
dump End State ElecDensity BandEigs
dump-name Na-0.229.$VAR
elec-cutoff 20
elec-eigen-algo Davidson
elec-ex-corr gga-PBE
elec-initial-magnetization 0.100000 no
elec-smearing Fermi 1e-05
electronic-minimize  \
	dirUpdateScheme      FletcherReeves \
	linminMethod         DirUpdateRecommended \
	nIterations          100 \
	history              15 \
	knormThreshold       0 \
	energyDiffThreshold  1e-08 \
	nEnergyDiff          2 \
	alphaTstart          1 \
	alphaTmin            1e-10 \
	updateTestStepSize   yes \
	alphaTreduceFactor   0.1 \
	alphaTincreaseFactor 3 \
	nAlphaAdjustMax      3 \
	wolfeEnergy          0.0001 \
	wolfeGradient        0.9 \
	fdTest               no
electronic-scf  \
	nIterations	1000 \
	energyDiffThreshold	1e-08 \
	residualThreshold	1e-07 \
	mixFraction	0.5 \
	qMetric	0.8 \
	history	10 \
	nEigSteps	2 \
	eigDiffThreshold	1e-08 \
	mixedVariable	Density \
	qKerker	0.8 \
	qKappa	-1 \
	verbose	no \
	mixFractionMag	1.5
exchange-regularization WignerSeitzTruncated
fluid None
fluid-ex-corr (null) lda-PZ
fluid-gummel-loop 10 1.000000e-05
fluid-minimize  \
	dirUpdateScheme      PolakRibiere \
	linminMethod         DirUpdateRecommended \
	nIterations          100 \
	history              15 \
	knormThreshold       0 \
	energyDiffThreshold  0 \
	nEnergyDiff          2 \
	alphaTstart          1 \
	alphaTmin            1e-10 \
	updateTestStepSize   yes \
	alphaTreduceFactor   0.1 \
	alphaTincreaseFactor 3 \
	nAlphaAdjustMax      3 \
	wolfeEnergy          0.0001 \
	wolfeGradient        0.9 \
	fdTest               no
fluid-solvent H2O 55.338 ScalarEOS \
	epsBulk 78.4 \
	pMol 0.92466 \
	epsInf 1.77 \
	Pvap 1.06736e-10 \
	sigmaBulk 4.62e-05 \
	Rvdw 2.61727 \
	Res 1.42 \
	tauNuc 343133 \
	poleEl 15 7 1
forces-output-coords Positions
ion N   0.952380952380952   0.761904761904762   0.000000000000000 0
ion N   1.428571428571428   1.285714285714286   0.229000000000000 0
ion N   0.380952380952381   0.904761904761905   0.000000000000000 0
ion N   0.714285714285714   1.142857142857143   0.229000000000000 0
ion N   0.523809523809524   0.619047619047619   0.000000000000000 0
ion N   1.000000000000000   1.000000000000000   0.229000000000000 0
ion N   0.666666666666667   0.333333333333333   0.000000000000000 0
ion N   1.285714285714286   0.857142857142857   0.229000000000000 0
ion N   0.809523809523810   0.047619047619048   0.000000000000000 0
ion N   1.571428571428571   0.714285714285714   0.229000000000000 0
ion N   0.095238095238095   0.476190476190476   0.000000000000000 0
ion N   0.238095238095238   0.190476190476190   0.000000000000000 0
ion N   0.857142857142857   0.571428571428571   0.229000000000000 0
ion N   1.142857142857143   0.428571428571429   0.229000000000000 0
ion B   0.571428571428572   0.857142857142857   0.000000000000000 0
ion B   0.952380952380952   1.190476190476190   0.229000000000000 0
ion B   0.714285714285714   0.571428571428571   0.000000000000000 0
ion B   1.238095238095238   1.047619047619047   0.229000000000000 0
ion B   0.857142857142857   0.285714285714286   0.000000000000000 0
ion B   1.523809523809524   0.904761904761905   0.229000000000000 0
ion B   0.142857142857143   0.714285714285714   0.000000000000000 0
ion B   0.285714285714286   0.428571428571429   0.000000000000000 0
ion B   0.809523809523810   0.761904761904762   0.229000000000000 0
ion B   0.428571428571429   0.142857142857143   0.000000000000000 0
ion B   1.095238095238095   0.619047619047619   0.229000000000000 0
ion B   1.380952380952381   0.476190476190476   0.229000000000000 0
ion B   0.000000000000000   0.000000000000000   0.000000000000000 0
ion B   0.666666666666667   0.333333333333333   0.229000000000000 0
ion Na   0.333333333300000   0.666666666600000   0.114500000000000 0
ion-species SG15/$ID_ONCV_PBE.upf
ion-width 0
ionic-minimize  \
	dirUpdateScheme      L-BFGS \
	linminMethod         DirUpdateRecommended \
	nIterations          0 \
	history              15 \
	knormThreshold       0.0001 \
	energyDiffThreshold  1e-06 \
	nEnergyDiff          2 \
	alphaTstart          1 \
	alphaTmin            1e-10 \
	updateTestStepSize   yes \
	alphaTreduceFactor   0.1 \
	alphaTincreaseFactor 3 \
	nAlphaAdjustMax      3 \
	wolfeEnergy          0.0001 \
	wolfeGradient        0.9 \
	fdTest               no
kpoint   0.000000000000   0.000000000000   0.000000000000  1.00000000000000
kpoint-folding 12 12 1 
latt-move-scale 1 1 1
latt-scale 1 1 1 
lattice  \
	 -11.818700000000000    2.363740000000000    0.000000000000000  \
	   4.094120000000000  -12.282400000000001    0.000000000000000  \
	   0.000000000000000    0.000000000000000   40.000000000000000 
lattice-minimize  \
	dirUpdateScheme      L-BFGS \
	linminMethod         DirUpdateRecommended \
	nIterations          0 \
	history              15 \
	knormThreshold       0 \
	energyDiffThreshold  1e-06 \
	nEnergyDiff          2 \
	alphaTstart          1 \
	alphaTmin            1e-10 \
	updateTestStepSize   yes \
	alphaTreduceFactor   0.1 \
	alphaTincreaseFactor 3 \
	nAlphaAdjustMax      3 \
	wolfeEnergy          0.0001 \
	wolfeGradient        0.9 \
	fdTest               no
lcao-params -1 1e-06 1e-05
pcm-variant GLSSA13
spintype z-spin
subspace-rotation-factor 1 yes
symmetries automatic
symmetry-threshold 0.0001
van-der-waals D3



---------- Setting up symmetries ----------

Found 24 point-group symmetries of the bravais lattice
Found 6 space-group symmetries with basis
Applied RMS atom displacement 1.31765e-10 bohrs to make symmetries exact.

---------- Initializing the Grid ----------
R = 
[     -11.8187      2.36374            0  ]
[      4.09412     -12.2824            0  ]
[            0            0           40  ]
unit cell volume = 5419.38
G =
[  -0.569604   -0.10962          0  ]
[  -0.189867    -0.5481          0  ]
[          0          0    0.15708  ]
Minimum fftbox size, Smin = [  52  52  164  ]
Chosen fftbox size, S = [  54  54  168  ]

---------- Exchange Correlation functional ----------
Initalized PBE GGA exchange.
Initalized PBE GGA correlation.

---------- Setting up pseudopotentials ----------
Width of ionic core gaussian charges (only for fluid interactions / plotting) set to 0

Reading pseudopotential file '/home/gridsan/aligho/DFT/build-Nov24/pseudopotentials/SG15/N_ONCV_PBE.upf':
  'N' pseudopotential, 'PBE' functional
  Generated using ONCVPSP code by D. R. Hamann
  Author: Martin Schlipf and Francois Gygi  Date: 150915.
  5 valence electrons, 2 orbitals, 4 projectors, 1058 radial grid points, with lMax = 1
  Transforming local potential to a uniform radial grid of dG=0.02 with 1514 points.
  Transforming nonlocal projectors to a uniform radial grid of dG=0.02 with 432 points.
    2S    l: 0   occupation:  2.0   eigenvalue: -0.682907
    2P    l: 1   occupation:  3.0   eigenvalue: -0.260548
  Transforming atomic orbitals to a uniform radial grid of dG=0.02 with 432 points.
  Core radius for overlap checks: 1.35 bohrs.
  Reading pulay file /home/gridsan/aligho/DFT/build-Nov24/pseudopotentials/SG15/N_ONCV_PBE.pulay ... using dE_dnG = -2.956256e-02 computed for Ecut = 20.

Reading pseudopotential file '/home/gridsan/aligho/DFT/build-Nov24/pseudopotentials/SG15/B_ONCV_PBE.upf':
  'B' pseudopotential, 'PBE' functional
  Generated using ONCVPSP code by D. R. Hamann
  Author: Martin Schlipf and Francois Gygi  Date: 150915.
  3 valence electrons, 2 orbitals, 4 projectors, 1534 radial grid points, with lMax = 1
  Transforming local potential to a uniform radial grid of dG=0.02 with 1514 points.
  Transforming nonlocal projectors to a uniform radial grid of dG=0.02 with 432 points.
    2S    l: 0   occupation:  2.0   eigenvalue: -0.347027
    2P    l: 1   occupation:  1.0   eigenvalue: -0.132548
  Transforming atomic orbitals to a uniform radial grid of dG=0.02 with 432 points.
  Core radius for overlap checks: 1.60 bohrs.
  Reading pulay file /home/gridsan/aligho/DFT/build-Nov24/pseudopotentials/SG15/B_ONCV_PBE.pulay ... using dE_dnG = -3.748568e-04 computed for Ecut = 20.

Reading pseudopotential file '/home/gridsan/aligho/DFT/build-Nov24/pseudopotentials/SG15/Na_ONCV_PBE.upf':
  'Na' pseudopotential, 'PBE' functional
  Generated using ONCVPSP code by D. R. Hamann
  Author: Martin Schlipf and Francois Gygi  Date: 150915.
  9 valence electrons, 3 orbitals, 4 projectors, 1992 radial grid points, with lMax = 1
  Transforming local potential to a uniform radial grid of dG=0.02 with 1514 points.
  Transforming nonlocal projectors to a uniform radial grid of dG=0.02 with 432 points.
    2S    l: 0   occupation:  2.0   eigenvalue: -2.085640
    2P    l: 1   occupation:  6.0   eigenvalue: -1.053708
    3S    l: 0   occupation:  1.0   eigenvalue: -0.100838
  Transforming atomic orbitals to a uniform radial grid of dG=0.02 with 432 points.
  Core radius for overlap checks: 2.01 bohrs.
  Reading pulay file /home/gridsan/aligho/DFT/build-Nov24/pseudopotentials/SG15/Na_ONCV_PBE.pulay ... using dE_dnG = -2.946487e-03 computed for Ecut = 20.

Initialized 3 species with 29 total atoms.

Folded 1 k-points by 12x12x1 to 144 k-points.

---------- Setting up k-points, bands, fillings ----------
Adding inversion symmetry to k-mesh for non-inversion-symmetric unit cell.
Reduced to 19 k-points under symmetry. 
Computing the number of bands and number of electrons
Calculating initial fillings.
nElectrons: 121.000000   nBands: 117   nStates: 38

----- Setting up reduced wavefunction bases (one per k-point) -----
average nbasis = 23151.771 , ideal nbasis = 23152.016

---------- Setting up coulomb interaction ----------
Initialized slab truncation along lattice direction 001

Initializing DFT-D3 calculator:
	Parameters set for gga-PBE functional
	s6:  1.000  s_r6:  1.217
	s8:  0.722  s_r8:  1.000
	Per-atom parameters loaded for:
	 N:  sqrtQ[a0]:  2.712  Rcov[a0]:  1.342  CN: [ 0.00 0.99 2.01 2.99 ]
	 B:  sqrtQ[a0]:  3.644  Rcov[a0]:  1.455  CN: [ 0.00 0.97 1.94 2.91 4.59 ]
	Na:  sqrtQ[a0]:  6.586  Rcov[a0]:  2.646  CN: [ 0.00 0.97 ]

---------- Setting up 2D ewald sum ----------
Optimum gaussian width for ewald sums = 6.943804 bohr.
Real space sums over 289 unit cells with max indices [  8  8  0  ]
Reciprocal space sums over 81 terms with max indices [  4  4  0  ]

Computing DFT-D3 correction:
# coordination-number N 3.157 3.157 3.626 3.157 3.626 3.144 3.144 3.626 3.157 3.626 3.626 3.157 3.157 3.626
# coordination-number B 3.942 3.368 3.368 3.368 3.368 3.942 3.942 3.942 3.368 3.368 3.942 3.942 3.350 3.350
# coordination-number Na 6.867
# diagonal-C6 N 15.60 15.60 15.58 15.60 15.58 15.61 15.61 15.58 15.60 15.58 15.58 15.60 15.60 15.58
# diagonal-C6 B 28.26 31.43 31.43 31.43 31.43 28.26 28.26 28.26 31.43 31.43 28.26 28.26 31.44 31.44
# diagonal-C6 Na 186.11
EvdW_6 =   -0.033663
EvdW_8 =   -0.029434

---------- Allocating electronic variables ----------
Initializing wave functions:  linear combination of atomic orbitals
N pseudo-atom occupations:   s ( 2 )  p ( 3 )
[d-16-11-1:75184] 18 more processes have sent help message help-mpi-common-cuda.txt / dlopen failed
[d-16-11-1:75184] Set MCA parameter "orte_base_help_aggregate" to 0 to see all help / error messages
[d-16-11-1:75184] 18 more processes have sent help message help-mpi-btl-openib-cpc-base.txt / no cpcs for port
B pseudo-atom occupations:   s ( 2 )  p ( 1 )
Na pseudo-atom occupations:   s ( 2 1 )  p ( 6 )
	FillingsUpdate:  mu: -0.165813619  nElectrons: 121.000000  magneticMoment: [ Abs: 0.07176  Tot: +0.01389 ]
LCAOMinimize: Iter:   0  F: -219.7674969161967340  |grad|_K:  3.420e-03  alpha:  1.000e+00
	FillingsUpdate:  mu: -0.166907898  nElectrons: 121.000000  magneticMoment: [ Abs: 0.12972  Tot: +0.11111 ]
LCAOMinimize: Iter:   1  F: -220.8685397802119610  |grad|_K:  4.042e-04  alpha:  4.418e-01  linmin:  5.486e-01  cgtest: -1.103e+00  t[s]:     49.28
LCAOMinimize: 	Bad step direction: g.d > 0.
LCAOMinimize: 	Undoing step.
LCAOMinimize: 	Step failed: resetting search direction.
	FillingsUpdate:  mu: -0.166907898  nElectrons: 121.000000  magneticMoment: [ Abs: 0.12972  Tot: +0.11111 ]
LCAOMinimize: Iter:   2  F: -220.8685397802119610  |grad|_K:  4.042e-04  alpha:  0.000e+00
	FillingsUpdate:  mu: -0.166529888  nElectrons: 121.000000  magneticMoment: [ Abs: 0.12440  Tot: +0.09722 ]
LCAOMinimize: Iter:   3  F: -220.8865115740223928  |grad|_K:  2.005e-05  alpha:  4.147e-01  linmin:  2.829e-02  cgtest: -2.473e-01  t[s]:     74.36
	FillingsUpdate:  mu: -0.165443099  nElectrons: 121.000000  magneticMoment: [ Abs: 0.12337  Tot: +0.09721 ]
LCAOMinimize: Iter:   4  F: -220.8865368796995199  |grad|_K:  1.417e-05  alpha:  2.863e-01  linmin:  1.646e-04  cgtest:  2.347e-01  t[s]:     89.07
	FillingsUpdate:  mu: -0.166362577  nElectrons: 121.000000  magneticMoment: [ Abs: 0.12458  Tot: +0.09722 ]
LCAOMinimize: Iter:   5  F: -220.8865466716191008  |grad|_K:  5.782e-06  alpha:  1.933e-01  linmin:  4.416e-02  cgtest: -5.375e-01  t[s]:    103.70
	FillingsUpdate:  mu: -0.166192763  nElectrons: 121.000000  magneticMoment: [ Abs: 0.12514  Tot: +0.09722 ]
LCAOMinimize: Iter:   6  F: -220.8865494272185117  |grad|_K:  4.174e-06  alpha:  3.530e-01  linmin:  4.926e-05  cgtest:  5.996e-01  t[s]:    118.33
	FillingsUpdate:  mu: -0.166043467  nElectrons: 121.000000  magneticMoment: [ Abs: 0.12625  Tot: +0.09722 ]
LCAOMinimize: Iter:   7  F: -220.8865510444805693  |grad|_K:  8.463e-07  alpha:  3.508e-01  linmin:  2.031e-03  cgtest: -1.799e-02  t[s]:    132.96
	FillingsUpdate:  mu: -0.166031911  nElectrons: 121.000000  magneticMoment: [ Abs: 0.12777  Tot: +0.09722 ]
LCAOMinimize: Iter:   8  F: -220.8865511576722156  |grad|_K:  3.594e-07  alpha:  5.990e-01  linmin: -1.704e-03  cgtest:  1.424e-01  t[s]:    147.60
	FillingsUpdate:  mu: -0.166033652  nElectrons: 121.000000  magneticMoment: [ Abs: 0.12900  Tot: +0.09722 ]
LCAOMinimize: Iter:   9  F: -220.8865511810714111  |grad|_K:  1.343e-07  alpha:  6.728e-01  linmin: -9.373e-03  cgtest:  2.148e-02  t[s]:    162.21
LCAOMinimize: Converged (|Delta F|<1.000000e-06 for 2 iters).


---- Citations for features of the code used in this run ----

   Software package:
      R. Sundararaman, K. Letchworth-Weaver, K.A. Schwarz, D. Gunceler, Y. Ozhabes and T.A. Arias, 'JDFTx: software for joint density-functional theory', SoftwareX 6, 278 (2017)

   gga-PBE exchange-correlation functional:
      J.P. Perdew, K. Burke and M. Ernzerhof, Phys. Rev. Lett. 77, 3865 (1996)

   Pseudopotentials:
      M Schlipf and F Gygi, Comput. Phys. Commun. 196, 36 (2015)

   Truncated Coulomb potentials:
      R. Sundararaman and T.A. Arias, Phys. Rev. B 87, 165122 (2013)

   DFT-D3 dispersion correction:
      S. Grimme, J. Antony, S. Ehrlich and H. Krieg, J. Chem. Phys. 132, 154104 (2010)

This list may not be complete. Please suggest additional citations or
report any other bugs at https://github.com/shankar1729/jdftx/issues

Initialization completed successfully at t[s]:    164.33


Computing DFT-D3 correction:
# coordination-number N 3.157 3.157 3.626 3.157 3.626 3.144 3.144 3.626 3.157 3.626 3.626 3.157 3.157 3.626
# coordination-number B 3.942 3.368 3.368 3.368 3.368 3.942 3.942 3.942 3.368 3.368 3.942 3.942 3.350 3.350
# coordination-number Na 6.867
# diagonal-C6 N 15.60 15.60 15.58 15.60 15.58 15.61 15.61 15.58 15.60 15.58 15.58 15.60 15.60 15.58
# diagonal-C6 B 28.26 31.43 31.43 31.43 31.43 28.26 28.26 28.26 31.43 31.43 28.26 28.26 31.44 31.44
# diagonal-C6 Na 186.11
EvdW_6 =   -0.033663
EvdW_8 =   -0.029434

-------- Electronic minimization -----------
Will mix electronic density at each iteration.
	FillingsUpdate:  mu: -0.166033652  nElectrons: 121.000000  magneticMoment: [ Abs: 0.12900  Tot: +0.09722 ]
	FillingsUpdate:  mu: -0.179853793  nElectrons: 121.000000  magneticMoment: [ Abs: 0.12900  Tot: +0.09722 ]
SCF: Cycle:  0   F: -222.180672875645371   dF: -1.294e+00   |Residual|: 3.891e-01   |deigs|: 1.091e-01  t[s]:    213.22
	FillingsUpdate:  mu: -0.166493639  nElectrons: 121.000000  magneticMoment: [ Abs: 0.20519  Tot: +0.10264 ]
SCF: Cycle:  1   F: -222.245753414469590   dF: -6.508e-02   |Residual|: 2.124e-01   |deigs|: 1.820e-02  t[s]:    250.85
	FillingsUpdate:  mu: -0.156920991  nElectrons: 121.000000  magneticMoment: [ Abs: 0.38835  Tot: +0.11753 ]
SCF: Cycle:  2   F: -222.279779338671972   dF: -3.403e-02   |Residual|: 4.190e-02   |deigs|: 2.029e-02  t[s]:    288.41
	FillingsUpdate:  mu: -0.152192396  nElectrons: 121.000000  magneticMoment: [ Abs: 0.21505  Tot: +0.10957 ]
SCF: Cycle:  3   F: -222.285531977727260   dF: -5.753e-03   |Residual|: 2.682e-02   |deigs|: 4.147e-03  t[s]:    326.14
	FillingsUpdate:  mu: -0.142908015  nElectrons: 121.000000  magneticMoment: [ Abs: 0.25264  Tot: +0.09442 ]
SCF: Cycle:  4   F: -222.292409745577999   dF: -6.878e-03   |Residual|: 1.716e-02   |deigs|: 7.372e-03  t[s]:    363.61
	FillingsUpdate:  mu: -0.135487024  nElectrons: 121.000000  magneticMoment: [ Abs: 0.16435  Tot: +0.08152 ]
SCF: Cycle:  5   F: -222.296229025123125   dF: -3.819e-03   |Residual|: 1.433e-02   |deigs|: 6.500e-03  t[s]:    401.23
	FillingsUpdate:  mu: -0.123584419  nElectrons: 121.000000  magneticMoment: [ Abs: 0.13418  Tot: +0.05946 ]
SCF: Cycle:  6   F: -222.299507976437013   dF: -3.279e-03   |Residual|: 1.101e-02   |deigs|: 1.076e-02  t[s]:    439.03
	FillingsUpdate:  mu: -0.114600587  nElectrons: 121.000000  magneticMoment: [ Abs: 0.08457  Tot: +0.04313 ]
SCF: Cycle:  7   F: -222.299630053658888   dF: -1.221e-04   |Residual|: 8.928e-03   |deigs|: 8.850e-03  t[s]:    477.09
	FillingsUpdate:  mu: -0.105444135  nElectrons: 121.000000  magneticMoment: [ Abs: 0.05840  Tot: +0.02782 ]
SCF: Cycle:  8   F: -222.299832350178860   dF: -2.023e-04   |Residual|: 7.588e-03   |deigs|: 9.725e-03  t[s]:    515.14
	FillingsUpdate:  mu: -0.094785651  nElectrons: 121.000000  magneticMoment: [ Abs: 0.07225  Tot: +0.01221 ]
SCF: Cycle:  9   F: -222.300853536724588   dF: -1.021e-03   |Residual|: 6.472e-03   |deigs|: 1.116e-02  t[s]:    553.66
	FillingsUpdate:  mu: -0.091253090  nElectrons: 121.000000  magneticMoment: [ Abs: 0.05113  Tot: +0.01092 ]
SCF: Cycle: 10   F: -222.301511183512417   dF: -6.576e-04   |Residual|: 5.527e-03   |deigs|: 3.956e-03  t[s]:    591.54
	FillingsUpdate:  mu: -0.084474290  nElectrons: 121.000000  magneticMoment: [ Abs: 0.06282  Tot: +0.00922 ]
SCF: Cycle: 11   F: -222.302824009477405   dF: -1.313e-03   |Residual|: 5.533e-03   |deigs|: 6.695e-03  t[s]:    629.68
	FillingsUpdate:  mu: -0.075906966  nElectrons: 121.000000  magneticMoment: [ Abs: 0.05824  Tot: +0.00693 ]
SCF: Cycle: 12   F: -222.303954731257278   dF: -1.131e-03   |Residual|: 4.814e-03   |deigs|: 7.542e-03  t[s]:    667.68
	FillingsUpdate:  mu: -0.072401538  nElectrons: 121.000000  magneticMoment: [ Abs: 0.04070  Tot: +0.01113 ]
SCF: Cycle: 13   F: -222.304320850467661   dF: -3.661e-04   |Residual|: 4.032e-03   |deigs|: 3.236e-03  t[s]:    705.96
	FillingsUpdate:  mu: -0.071075875  nElectrons: 121.000000  magneticMoment: [ Abs: 0.04225  Tot: +0.01547 ]
SCF: Cycle: 14   F: -222.304405717583734   dF: -8.487e-05   |Residual|: 2.630e-03   |deigs|: 1.946e-03  t[s]:    743.81
	FillingsUpdate:  mu: -0.068430189  nElectrons: 121.000000  magneticMoment: [ Abs: 0.03428  Tot: +0.01502 ]
SCF: Cycle: 15   F: -222.304435524912606   dF: -2.981e-05   |Residual|: 1.602e-03   |deigs|: 2.358e-03  t[s]:    781.99
	FillingsUpdate:  mu: -0.067883194  nElectrons: 121.000000  magneticMoment: [ Abs: 0.02396  Tot: +0.01524 ]
SCF: Cycle: 16   F: -222.304436574993844   dF: -1.050e-06   |Residual|: 9.429e-04   |deigs|: 9.562e-04  t[s]:    820.40
	FillingsUpdate:  mu: -0.067687300  nElectrons: 121.000000  magneticMoment: [ Abs: 0.01876  Tot: +0.01531 ]
SCF: Cycle: 17   F: -222.304437458517214   dF: -8.835e-07   |Residual|: 4.777e-04   |deigs|: 9.551e-04  t[s]:    858.46
	FillingsUpdate:  mu: -0.067426149  nElectrons: 121.000000  magneticMoment: [ Abs: 0.01592  Tot: +0.01502 ]
SCF: Cycle: 18   F: -222.304437698382316   dF: -2.399e-07   |Residual|: 2.397e-04   |deigs|: 6.231e-04  t[s]:    896.38
	FillingsUpdate:  mu: -0.067232328  nElectrons: 121.000000  magneticMoment: [ Abs: 0.01512  Tot: +0.01467 ]
SCF: Cycle: 19   F: -222.304437774219366   dF: -7.584e-08   |Residual|: 1.191e-04   |deigs|: 4.814e-04  t[s]:    934.42
	FillingsUpdate:  mu: -0.067238723  nElectrons: 121.000000  magneticMoment: [ Abs: 0.01518  Tot: +0.01461 ]
SCF: Cycle: 20   F: -222.304437807206028   dF: -3.299e-08   |Residual|: 7.056e-05   |deigs|: 3.350e-04  t[s]:    972.34
	FillingsUpdate:  mu: -0.067242887  nElectrons: 121.000000  magneticMoment: [ Abs: 0.01508  Tot: +0.01455 ]
SCF: Cycle: 21   F: -222.304437821619217   dF: -1.441e-08   |Residual|: 3.961e-05   |deigs|: 1.968e-04  t[s]:   1010.42
	FillingsUpdate:  mu: -0.067257390  nElectrons: 121.000000  magneticMoment: [ Abs: 0.01493  Tot: +0.01448 ]
SCF: Cycle: 22   F: -222.304437828863229   dF: -7.244e-09   |Residual|: 2.189e-05   |deigs|: 3.588e-04  t[s]:   1048.57
	FillingsUpdate:  mu: -0.067253650  nElectrons: 121.000000  magneticMoment: [ Abs: 0.01479  Tot: +0.01440 ]
SCF: Cycle: 23   F: -222.304437828945368   dF: -8.214e-11   |Residual|: 1.432e-05   |deigs|: 2.712e-04  t[s]:   1086.43
SCF: Converged (|Delta E|<1.000000e-08 for 2 iters).


Computing DFT-D3 correction:
# coordination-number N 3.157 3.157 3.626 3.157 3.626 3.144 3.144 3.626 3.157 3.626 3.626 3.157 3.157 3.626
# coordination-number B 3.942 3.368 3.368 3.368 3.368 3.942 3.942 3.942 3.368 3.368 3.942 3.942 3.350 3.350
# coordination-number Na 6.867
# diagonal-C6 N 15.60 15.60 15.58 15.60 15.58 15.61 15.61 15.58 15.60 15.58 15.58 15.60 15.60 15.58
# diagonal-C6 B 28.26 31.43 31.43 31.43 31.43 28.26 28.26 28.26 31.43 31.43 28.26 28.26 31.44 31.44
# diagonal-C6 Na 186.11
EvdW_6 =   -0.033663
EvdW_8 =   -0.029434

# Ionic positions in lattice coordinates:
ion N   0.952380952379803   0.761904761902463   0.000000000000000 0
ion N   1.428571428570279   1.285714285711987   0.229000000000000 0
ion N   0.380952380951232   0.904761904759606   0.000000000000000 0
ion N   0.714285714284565   1.142857142854844   0.229000000000000 0
ion N   0.523809523808374   0.619047619045320   0.000000000000000 0
ion N   0.999999999998850   0.999999999997701   0.229000000000000 0
ion N   0.666666666665517   0.333333333331034   0.000000000000000 0
ion N   1.285714285713136   0.857142857140558   0.229000000000000 0
ion N   0.809523809522660   0.047619047616749   0.000000000000000 0
ion N   1.571428571427422   0.714285714283415   0.229000000000000 0
ion N   0.095238095236946   0.476190476188177   0.000000000000000 0
ion N   0.238095238094089   0.190476190473892   0.000000000000000 0
ion N   0.857142857141708   0.571428571426273   0.229000000000000 0
ion N   1.142857142855993   0.428571428569130   0.229000000000000 0
ion B   0.571428571427422   0.857142857140558   0.000000000000000 0
ion B   0.952380952379803   1.190476190473892   0.229000000000000 0
ion B   0.714285714284565   0.571428571426273   0.000000000000000 0
ion B   1.238095238094089   1.047619047616749   0.229000000000000 0
ion B   0.857142857141708   0.285714285711987   0.000000000000000 0
ion B   1.523809523808374   0.904761904759606   0.229000000000000 0
ion B   0.142857142855993   0.714285714283415   0.000000000000000 0
ion B   0.285714285713136   0.428571428569130   0.000000000000000 0
ion B   0.809523809522660   0.761904761902463   0.229000000000000 0
ion B   0.428571428570279   0.142857142854844   0.000000000000000 0
ion B   1.095238095236946   0.619047619045320   0.229000000000000 0
ion B   1.380952380951231   0.476190476188177   0.229000000000000 0
ion B  -0.000000000001149  -0.000000000002299   0.000000000000000 0
ion B   0.666666666665517   0.333333333331034   0.229000000000000 0
ion Na   0.333333333332184   0.666666666664368   0.114500000000000 0

# Forces in Lattice coordinates:
force N   0.010222336508082  -0.012975269876218  -0.037172552012574 0
force N  -0.012975269876218   0.010222336508082   0.037172552012688 0
force N   0.008638629814142  -0.038450665944683   0.038156943725713 0
force N   0.002752933368136  -0.012975269876218   0.037172552012688 0
force N  -0.038450665944683   0.029812036130541   0.038156943725599 0
force N   0.000000000000000   0.000000000000000   0.002485896247624 0
force N   0.000000000000000   0.000000000000000  -0.002485896247510 0
force N   0.029812036130540  -0.038450665944683  -0.038156943725713 0
force N  -0.012975269876218   0.002752933368136  -0.037172552012574 0
force N  -0.038450665944683   0.008638629814143  -0.038156943725599 0
force N   0.029812036130539   0.008638629814143   0.038156943725713 0
force N   0.002752933368136   0.010222336508082  -0.037172552012574 0
force N   0.010222336508082   0.002752933368136   0.037172552012688 0
force N   0.008638629814143   0.029812036130540  -0.038156943725485 0
force B   0.070410311621240   0.037804578788100  -0.225262836881479 0
force B  -0.017242601113269  -0.048596659823011  -0.017251935491200 0
force B   0.065839260936281  -0.048596659823011   0.017251935491029 0
force B  -0.048596659823011   0.065839260936281  -0.017251935491086 0
force B  -0.048596659823011  -0.017242601113269   0.017251935491029 0
force B   0.037804578788099   0.070410311621239   0.225262836881479 0
force B  -0.108214890409339   0.070410311621239  -0.225262836881479 0
force B   0.037804578788100  -0.108214890409339  -0.225262836881593 0
force B   0.065839260936281  -0.017242601113269  -0.017251935491086 0
force B  -0.017242601113269   0.065839260936281   0.017251935491086 0
force B  -0.108214890409339   0.037804578788099   0.225262836881479 0
force B   0.070410311621239  -0.108214890409339   0.225262836881479 0
force B   0.000000000000000   0.000000000000000   0.033909412340351 0
force B   0.000000000000000   0.000000000000000  -0.033909412340294 0
force Na   0.000000000000000   0.000000000000000   0.000000000000000 0

# Energy components:
   Eewald =    -1840.6259656460579208
       EH =    -1667.0644691393354151
     Eloc =     3215.5511194202481420
      Enl =      -21.2882410575126215
   Epulay =       -0.0000190610708103
     EvdW =       -0.0630962114099082
      Exc =      -57.8138785158879074
       KE =      149.0001127575487203
-------------------------------------
     Etot =     -222.3044374534777035
       TS =        0.0000003754676741
-------------------------------------
        F =     -222.3044378289453675

IonicMinimize: Iter:   0  F: -222.304437828945368  |grad|_K:  0.000e+00  t[s]:   1090.42
IonicMinimize: Converged (|grad|_K<1.000000e-04).

#--- Lowdin population analysis ---
# oxidation-state N -0.369 -0.369 -0.382 -0.369 -0.382 -0.369 -0.369 -0.382 -0.369 -0.382 -0.382 -0.369 -0.369 -0.382
# magnetic-moments N +0.000 +0.000 +0.000 +0.000 +0.000 +0.000 +0.000 +0.000 +0.000 +0.000 +0.000 +0.000 +0.000 +0.000
# oxidation-state B +0.405 +0.449 +0.449 +0.449 +0.449 +0.405 +0.405 +0.405 +0.449 +0.449 +0.405 +0.405 +0.449 +0.449
# magnetic-moments B +0.000 +0.000 +0.000 +0.000 +0.000 +0.000 +0.000 +0.000 +0.000 +0.000 +0.000 +0.000 +0.000 +0.000
# oxidation-state Na +0.240
# magnetic-moments Na +0.009


Dumping 'Na-0.229.fillings' ... done
Dumping 'Na-0.229.wfns' ... done
Dumping 'Na-0.229.n_up' ... done
Dumping 'Na-0.229.n_dn' ... done
Dumping 'Na-0.229.eigenvals' ... done
End date and time: Wed Jan 19 20:37:19 2022  (Duration: 0-0:18:13.53)
Done!
