Second Layer Distance is 0.268

--------------------------------------------------------------------------
The library attempted to open the following supporting CUDA libraries,
but each of them failed.  CUDA-aware support is disabled.
libcuda.so.1: cannot open shared object file: No such file or directory
libcuda.dylib: cannot open shared object file: No such file or directory
/usr/lib64/libcuda.so.1: cannot open shared object file: No such file or directory
/usr/lib64/libcuda.dylib: cannot open shared object file: No such file or directory
If you are not interested in CUDA-aware support, then run with
--mca opal_warn_on_missing_libcuda 0 to suppress this message.  If you are interested
in CUDA-aware support, then try setting LD_LIBRARY_PATH to the location
of libcuda.so.1 to get passed this issue.
--------------------------------------------------------------------------
--------------------------------------------------------------------------
No OpenFabrics connection schemes reported that they were able to be
used on a specific port.  As such, the openib BTL (OpenFabrics
support) will be disabled for this port.

  Local host:           d-19-2-3
  Local device:         mlx5_1
  Local port:           1
  CPCs attempted:       rdmacm, udcm
--------------------------------------------------------------------------

*************** JDFTx 1.6.0 (git hash 42ebbcc2) ***************

Start date and time: Wed Jan 19 20:29:14 2022
Executable jdftx with command-line: -i Moire.in
Running on hosts (process indices):  d-19-2-3 (0-18)
Divided in process groups (process indices):  0 (0)  1 (1)  2 (2)  3 (3)  4 (4)  5 (5)  6 (6)  7 (7)  8 (8)  9 (9)  10 (10)  11 (11)  12 (12)  13 (13)  14 (14)  15 (15)  16 (16)  17 (17)  18 (18)
Resource initialization completed at t[s]:      0.00
Run totals: 19 processes, 48 threads, 0 GPUs


Input parsed successfully to the following command list (including defaults):

basis kpoint-dependent
coords-type Lattice
core-overlap-check vector
coulomb-interaction Slab 001
davidson-band-ratio 1.1
dump End State ElecDensity BandEigs
dump-name Na-0.268.$VAR
elec-cutoff 20
elec-eigen-algo Davidson
elec-ex-corr gga-PBE
elec-initial-magnetization 0.100000 no
elec-smearing Fermi 1e-05
electronic-minimize  \
	dirUpdateScheme      FletcherReeves \
	linminMethod         DirUpdateRecommended \
	nIterations          100 \
	history              15 \
	knormThreshold       0 \
	energyDiffThreshold  1e-08 \
	nEnergyDiff          2 \
	alphaTstart          1 \
	alphaTmin            1e-10 \
	updateTestStepSize   yes \
	alphaTreduceFactor   0.1 \
	alphaTincreaseFactor 3 \
	nAlphaAdjustMax      3 \
	wolfeEnergy          0.0001 \
	wolfeGradient        0.9 \
	fdTest               no
electronic-scf  \
	nIterations	1000 \
	energyDiffThreshold	1e-08 \
	residualThreshold	1e-07 \
	mixFraction	0.5 \
	qMetric	0.8 \
	history	10 \
	nEigSteps	2 \
	eigDiffThreshold	1e-08 \
	mixedVariable	Density \
	qKerker	0.8 \
	qKappa	-1 \
	verbose	no \
	mixFractionMag	1.5
exchange-regularization WignerSeitzTruncated
fluid None
fluid-ex-corr (null) lda-PZ
fluid-gummel-loop 10 1.000000e-05
fluid-minimize  \
	dirUpdateScheme      PolakRibiere \
	linminMethod         DirUpdateRecommended \
	nIterations          100 \
	history              15 \
	knormThreshold       0 \
	energyDiffThreshold  0 \
	nEnergyDiff          2 \
	alphaTstart          1 \
	alphaTmin            1e-10 \
	updateTestStepSize   yes \
	alphaTreduceFactor   0.1 \
	alphaTincreaseFactor 3 \
	nAlphaAdjustMax      3 \
	wolfeEnergy          0.0001 \
	wolfeGradient        0.9 \
	fdTest               no
fluid-solvent H2O 55.338 ScalarEOS \
	epsBulk 78.4 \
	pMol 0.92466 \
	epsInf 1.77 \
	Pvap 1.06736e-10 \
	sigmaBulk 4.62e-05 \
	Rvdw 2.61727 \
	Res 1.42 \
	tauNuc 343133 \
	poleEl 15 7 1
forces-output-coords Positions
ion N   0.952380952380952   0.761904761904762   0.000000000000000 0
ion N   1.428571428571428   1.285714285714286   0.268000000000000 0
ion N   0.380952380952381   0.904761904761905   0.000000000000000 0
ion N   0.714285714285714   1.142857142857143   0.268000000000000 0
ion N   0.523809523809524   0.619047619047619   0.000000000000000 0
ion N   1.000000000000000   1.000000000000000   0.268000000000000 0
ion N   0.666666666666667   0.333333333333333   0.000000000000000 0
ion N   1.285714285714286   0.857142857142857   0.268000000000000 0
ion N   0.809523809523810   0.047619047619048   0.000000000000000 0
ion N   1.571428571428571   0.714285714285714   0.268000000000000 0
ion N   0.095238095238095   0.476190476190476   0.000000000000000 0
ion N   0.238095238095238   0.190476190476190   0.000000000000000 0
ion N   0.857142857142857   0.571428571428571   0.268000000000000 0
ion N   1.142857142857143   0.428571428571429   0.268000000000000 0
ion B   0.571428571428572   0.857142857142857   0.000000000000000 0
ion B   0.952380952380952   1.190476190476190   0.268000000000000 0
ion B   0.714285714285714   0.571428571428571   0.000000000000000 0
ion B   1.238095238095238   1.047619047619047   0.268000000000000 0
ion B   0.857142857142857   0.285714285714286   0.000000000000000 0
ion B   1.523809523809524   0.904761904761905   0.268000000000000 0
ion B   0.142857142857143   0.714285714285714   0.000000000000000 0
ion B   0.285714285714286   0.428571428571429   0.000000000000000 0
ion B   0.809523809523810   0.761904761904762   0.268000000000000 0
ion B   0.428571428571429   0.142857142857143   0.000000000000000 0
ion B   1.095238095238095   0.619047619047619   0.268000000000000 0
ion B   1.380952380952381   0.476190476190476   0.268000000000000 0
ion B   0.000000000000000   0.000000000000000   0.000000000000000 0
ion B   0.666666666666667   0.333333333333333   0.268000000000000 0
ion Na   0.333333333300000   0.666666666600000   0.134000000000000 0
ion-species SG15/$ID_ONCV_PBE.upf
ion-width 0
ionic-minimize  \
	dirUpdateScheme      L-BFGS \
	linminMethod         DirUpdateRecommended \
	nIterations          0 \
	history              15 \
	knormThreshold       0.0001 \
	energyDiffThreshold  1e-06 \
	nEnergyDiff          2 \
	alphaTstart          1 \
	alphaTmin            1e-10 \
	updateTestStepSize   yes \
	alphaTreduceFactor   0.1 \
	alphaTincreaseFactor 3 \
	nAlphaAdjustMax      3 \
	wolfeEnergy          0.0001 \
	wolfeGradient        0.9 \
	fdTest               no
kpoint   0.000000000000   0.000000000000   0.000000000000  1.00000000000000
kpoint-folding 12 12 1 
latt-move-scale 1 1 1
latt-scale 1 1 1 
lattice  \
	 -11.818700000000000    2.363740000000000    0.000000000000000  \
	   4.094120000000000  -12.282400000000001    0.000000000000000  \
	   0.000000000000000    0.000000000000000   40.000000000000000 
lattice-minimize  \
	dirUpdateScheme      L-BFGS \
	linminMethod         DirUpdateRecommended \
	nIterations          0 \
	history              15 \
	knormThreshold       0 \
	energyDiffThreshold  1e-06 \
	nEnergyDiff          2 \
	alphaTstart          1 \
	alphaTmin            1e-10 \
	updateTestStepSize   yes \
	alphaTreduceFactor   0.1 \
	alphaTincreaseFactor 3 \
	nAlphaAdjustMax      3 \
	wolfeEnergy          0.0001 \
	wolfeGradient        0.9 \
	fdTest               no
lcao-params -1 1e-06 1e-05
pcm-variant GLSSA13
spintype z-spin
subspace-rotation-factor 1 yes
symmetries automatic
symmetry-threshold 0.0001
van-der-waals D3



---------- Setting up symmetries ----------

Found 24 point-group symmetries of the bravais lattice
Found 6 space-group symmetries with basis
Applied RMS atom displacement 1.31765e-10 bohrs to make symmetries exact.

---------- Initializing the Grid ----------
R = 
[     -11.8187      2.36374            0  ]
[      4.09412     -12.2824            0  ]
[            0            0           40  ]
unit cell volume = 5419.38
G =
[  -0.569604   -0.10962          0  ]
[  -0.189867    -0.5481          0  ]
[          0          0    0.15708  ]
Minimum fftbox size, Smin = [  52  52  164  ]
Chosen fftbox size, S = [  54  54  168  ]

---------- Exchange Correlation functional ----------
Initalized PBE GGA exchange.
Initalized PBE GGA correlation.

---------- Setting up pseudopotentials ----------
Width of ionic core gaussian charges (only for fluid interactions / plotting) set to 0

Reading pseudopotential file '/home/gridsan/aligho/DFT/build-Nov24/pseudopotentials/SG15/N_ONCV_PBE.upf':
  'N' pseudopotential, 'PBE' functional
  Generated using ONCVPSP code by D. R. Hamann
  Author: Martin Schlipf and Francois Gygi  Date: 150915.
  5 valence electrons, 2 orbitals, 4 projectors, 1058 radial grid points, with lMax = 1
  Transforming local potential to a uniform radial grid of dG=0.02 with 1514 points.
  Transforming nonlocal projectors to a uniform radial grid of dG=0.02 with 432 points.
    2S    l: 0   occupation:  2.0   eigenvalue: -0.682907
    2P    l: 1   occupation:  3.0   eigenvalue: -0.260548
  Transforming atomic orbitals to a uniform radial grid of dG=0.02 with 432 points.
  Core radius for overlap checks: 1.35 bohrs.
  Reading pulay file /home/gridsan/aligho/DFT/build-Nov24/pseudopotentials/SG15/N_ONCV_PBE.pulay ... using dE_dnG = -2.956256e-02 computed for Ecut = 20.

Reading pseudopotential file '/home/gridsan/aligho/DFT/build-Nov24/pseudopotentials/SG15/B_ONCV_PBE.upf':
  'B' pseudopotential, 'PBE' functional
  Generated using ONCVPSP code by D. R. Hamann
  Author: Martin Schlipf and Francois Gygi  Date: 150915.
  3 valence electrons, 2 orbitals, 4 projectors, 1534 radial grid points, with lMax = 1
  Transforming local potential to a uniform radial grid of dG=0.02 with 1514 points.
  Transforming nonlocal projectors to a uniform radial grid of dG=0.02 with 432 points.
    2S    l: 0   occupation:  2.0   eigenvalue: -0.347027
    2P    l: 1   occupation:  1.0   eigenvalue: -0.132548
  Transforming atomic orbitals to a uniform radial grid of dG=0.02 with 432 points.
  Core radius for overlap checks: 1.60 bohrs.
  Reading pulay file /home/gridsan/aligho/DFT/build-Nov24/pseudopotentials/SG15/B_ONCV_PBE.pulay ... using dE_dnG = -3.748568e-04 computed for Ecut = 20.

Reading pseudopotential file '/home/gridsan/aligho/DFT/build-Nov24/pseudopotentials/SG15/Na_ONCV_PBE.upf':
  'Na' pseudopotential, 'PBE' functional
  Generated using ONCVPSP code by D. R. Hamann
  Author: Martin Schlipf and Francois Gygi  Date: 150915.
  9 valence electrons, 3 orbitals, 4 projectors, 1992 radial grid points, with lMax = 1
  Transforming local potential to a uniform radial grid of dG=0.02 with 1514 points.
  Transforming nonlocal projectors to a uniform radial grid of dG=0.02 with 432 points.
    2S    l: 0   occupation:  2.0   eigenvalue: -2.085640
    2P    l: 1   occupation:  6.0   eigenvalue: -1.053708
    3S    l: 0   occupation:  1.0   eigenvalue: -0.100838
  Transforming atomic orbitals to a uniform radial grid of dG=0.02 with 432 points.
  Core radius for overlap checks: 2.01 bohrs.
  Reading pulay file /home/gridsan/aligho/DFT/build-Nov24/pseudopotentials/SG15/Na_ONCV_PBE.pulay ... using dE_dnG = -2.946487e-03 computed for Ecut = 20.

Initialized 3 species with 29 total atoms.

Folded 1 k-points by 12x12x1 to 144 k-points.

---------- Setting up k-points, bands, fillings ----------
Adding inversion symmetry to k-mesh for non-inversion-symmetric unit cell.
Reduced to 19 k-points under symmetry. 
Computing the number of bands and number of electrons
Calculating initial fillings.
nElectrons: 121.000000   nBands: 117   nStates: 38

----- Setting up reduced wavefunction bases (one per k-point) -----
average nbasis = 23151.771 , ideal nbasis = 23152.016

---------- Setting up coulomb interaction ----------
Initialized slab truncation along lattice direction 001

Initializing DFT-D3 calculator:
	Parameters set for gga-PBE functional
	s6:  1.000  s_r6:  1.217
	s8:  0.722  s_r8:  1.000
	Per-atom parameters loaded for:
	 N:  sqrtQ[a0]:  2.712  Rcov[a0]:  1.342  CN: [ 0.00 0.99 2.01 2.99 ]
	 B:  sqrtQ[a0]:  3.644  Rcov[a0]:  1.455  CN: [ 0.00 0.97 1.94 2.91 4.59 ]
	Na:  sqrtQ[a0]:  6.586  Rcov[a0]:  2.646  CN: [ 0.00 0.97 ]

---------- Setting up 2D ewald sum ----------
Optimum gaussian width for ewald sums = 6.943804 bohr.
Real space sums over 289 unit cells with max indices [  8  8  0  ]
Reciprocal space sums over 81 terms with max indices [  4  4  0  ]

Computing DFT-D3 correction:
# coordination-number N 3.146 3.146 3.272 3.146 3.272 3.141 3.141 3.272 3.146 3.272 3.272 3.146 3.146 3.272
# coordination-number B 3.530 3.353 3.353 3.353 3.353 3.530 3.530 3.530 3.353 3.353 3.530 3.530 3.346 3.346
# coordination-number Na 2.112
# diagonal-C6 N 15.61 15.61 15.59 15.61 15.59 15.61 15.61 15.59 15.61 15.59 15.59 15.61 15.61 15.59
# diagonal-C6 B 31.27 31.44 31.44 31.44 31.44 31.27 31.27 31.27 31.44 31.44 31.27 31.27 31.44 31.44
# diagonal-C6 Na 186.11
EvdW_6 =   -0.032874
EvdW_8 =   -0.030943

---------- Allocating electronic variables ----------
Initializing wave functions:  linear combination of atomic orbitals
N pseudo-atom occupations:   s ( 2 )  p ( 3 )
[d-19-2-3:42388] 18 more processes have sent help message help-mpi-common-cuda.txt / dlopen failed
[d-19-2-3:42388] Set MCA parameter "orte_base_help_aggregate" to 0 to see all help / error messages
[d-19-2-3:42388] 18 more processes have sent help message help-mpi-btl-openib-cpc-base.txt / no cpcs for port
B pseudo-atom occupations:   s ( 2 )  p ( 1 )
Na pseudo-atom occupations:   s ( 2 1 )  p ( 6 )
	FillingsUpdate:  mu: -0.141158423  nElectrons: 121.000000  magneticMoment: [ Abs: 0.07119  Tot: -0.00811 ]
LCAOMinimize: Iter:   0  F: -219.6903096467632679  |grad|_K:  3.496e-03  alpha:  1.000e+00
	FillingsUpdate:  mu: -0.179469057  nElectrons: 121.000000  magneticMoment: [ Abs: 0.17135  Tot: +0.15278 ]
LCAOMinimize: Iter:   1  F: -220.8574437554884753  |grad|_K:  4.443e-04  alpha:  4.417e-01  linmin:  3.235e-01  cgtest: -1.081e+00  t[s]:     49.82
LCAOMinimize: 	Bad step direction: g.d > 0.
LCAOMinimize: 	Undoing step.
LCAOMinimize: 	Step failed: resetting search direction.
	FillingsUpdate:  mu: -0.179469057  nElectrons: 121.000000  magneticMoment: [ Abs: 0.17135  Tot: +0.15278 ]
LCAOMinimize: Iter:   2  F: -220.8574437554884753  |grad|_K:  4.443e-04  alpha:  0.000e+00
	FillingsUpdate:  mu: -0.151414350  nElectrons: 121.000000  magneticMoment: [ Abs: 0.06446  Tot: +0.01230 ]
LCAOMinimize: Iter:   3  F: -220.8796099407858833  |grad|_K:  7.187e-05  alpha:  4.213e-01  linmin:  8.327e-02  cgtest: -4.511e-01  t[s]:     75.52
LCAOMinimize: 	Wrong curvature in test step, increasing alphaT to 1.263981e+00.
	FillingsUpdate:  mu: -0.165111296  nElectrons: 121.000000  magneticMoment: [ Abs: 0.17784  Tot: +0.15273 ]
LCAOMinimize: Iter:   4  F: -220.8807038584807003  |grad|_K:  4.808e-05  alpha: -6.254e-01  linmin:  8.384e-02  cgtest: -2.748e-01  t[s]:     90.10
	FillingsUpdate:  mu: -0.165209394  nElectrons: 121.000000  magneticMoment: [ Abs: 0.17914  Tot: +0.15278 ]
LCAOMinimize: Iter:   5  F: -220.8807287382969946  |grad|_K:  4.546e-05  alpha:  6.992e-02  linmin: -2.999e-02  cgtest:  9.977e-01  t[s]:    105.02
LCAOMinimize: Encountered beta<0, resetting CG.
LCAOMinimize: 	Predicted alpha/alphaT>3.000000, increasing alphaT to 2.097499e-01.
LCAOMinimize: 	Wrong curvature in test step, increasing alphaT to 6.292498e-01.
	FillingsUpdate:  mu: -0.160136445  nElectrons: 121.000000  magneticMoment: [ Abs: 0.13686  Tot: +0.09722 ]
LCAOMinimize: Iter:   6  F: -220.8809647464961472  |grad|_K:  2.035e-05  alpha: -3.635e+00  linmin: -2.226e-01  cgtest:  6.658e-01  t[s]:    123.83
LCAOMinimize: Encountered beta<0, resetting CG.
LCAOMinimize: 	Step increased F by 2.181369e-05, reducing alpha to 2.569381e-02.
	FillingsUpdate:  mu: -0.160156180  nElectrons: 121.000000  magneticMoment: [ Abs: 0.13723  Tot: +0.09737 ]
LCAOMinimize: Iter:   7  F: -220.8809703674355376  |grad|_K:  2.082e-05  alpha:  2.569e-02  linmin: -8.762e-02  cgtest:  9.177e-01  t[s]:    149.41
LCAOMinimize: 	Wrong curvature in test step, increasing alphaT to 7.708144e-02.
	FillingsUpdate:  mu: -0.160667809  nElectrons: 121.000000  magneticMoment: [ Abs: 0.15899  Tot: +0.12241 ]
LCAOMinimize: Iter:   8  F: -220.8809987206616370  |grad|_K:  5.353e-05  alpha: -3.873e-03  linmin: -1.526e-02  cgtest:  3.302e-01  t[s]:    164.01
LCAOMinimize: 	Step increased F by 2.260355e-03, reducing alpha to 1.950807e-02.
LCAOMinimize: 	Step increased F by 1.398698e-05, reducing alpha to 1.950807e-03.
	FillingsUpdate:  mu: -0.161673625  nElectrons: 121.000000  magneticMoment: [ Abs: 0.19327  Tot: +0.16189 ]
LCAOMinimize: Iter:   9  F: -220.8810210764459896  |grad|_K:  2.314e-05  alpha:  1.951e-03  linmin: -1.727e-02  cgtest:  9.200e-01  t[s]:    200.12
LCAOMinimize: Encountered beta<0, resetting CG.
LCAOMinimize: 	Predicted alpha/alphaT>3.000000, increasing alphaT to 5.852420e-03.
LCAOMinimize: 	Predicted alpha/alphaT>3.000000, increasing alphaT to 1.755726e-02.
	FillingsUpdate:  mu: -0.161963459  nElectrons: 121.000000  magneticMoment: [ Abs: 0.20848  Tot: +0.17816 ]
LCAOMinimize: Iter:  10  F: -220.8810305933133691  |grad|_K:  1.480e-05  alpha:  5.213e-02  linmin: -1.349e-01  cgtest:  8.573e-01  t[s]:    223.45
LCAOMinimize: Encountered beta<0, resetting CG.
LCAOMinimize: 	Predicted alpha/alphaT>3.000000, increasing alphaT to 1.564028e-01.
	FillingsUpdate:  mu: -0.161657833  nElectrons: 121.000000  magneticMoment: [ Abs: 0.22050  Tot: +0.18053 ]
LCAOMinimize: Iter:  11  F: -220.8810554624139399  |grad|_K:  2.706e-06  alpha:  4.267e-01  linmin: -1.929e-02  cgtest:  1.709e-01  t[s]:    242.54
	FillingsUpdate:  mu: -0.161548164  nElectrons: 121.000000  magneticMoment: [ Abs: 0.23642  Tot: +0.18056 ]
LCAOMinimize: Iter:  12  F: -220.8810571888494962  |grad|_K:  1.590e-06  alpha:  8.631e-01  linmin: -1.597e-02  cgtest:  1.054e-01  t[s]:    257.32
	FillingsUpdate:  mu: -0.161593638  nElectrons: 121.000000  magneticMoment: [ Abs: 0.24634  Tot: +0.18056 ]
LCAOMinimize: Iter:  13  F: -220.8810576719887422  |grad|_K:  7.987e-07  alpha:  6.950e-01  linmin: -3.957e-06  cgtest: -1.253e-01  t[s]:    272.20
	FillingsUpdate:  mu: -0.161635581  nElectrons: 121.000000  magneticMoment: [ Abs: 0.25041  Tot: +0.18056 ]
LCAOMinimize: Iter:  14  F: -220.8810577617200863  |grad|_K:  2.193e-07  alpha:  5.317e-01  linmin: -5.457e-05  cgtest:  4.319e-02  t[s]:    287.24
LCAOMinimize: Converged (|Delta F|<1.000000e-06 for 2 iters).


---- Citations for features of the code used in this run ----

   Software package:
      R. Sundararaman, K. Letchworth-Weaver, K.A. Schwarz, D. Gunceler, Y. Ozhabes and T.A. Arias, 'JDFTx: software for joint density-functional theory', SoftwareX 6, 278 (2017)

   gga-PBE exchange-correlation functional:
      J.P. Perdew, K. Burke and M. Ernzerhof, Phys. Rev. Lett. 77, 3865 (1996)

   Pseudopotentials:
      M Schlipf and F Gygi, Comput. Phys. Commun. 196, 36 (2015)

   Truncated Coulomb potentials:
      R. Sundararaman and T.A. Arias, Phys. Rev. B 87, 165122 (2013)

   DFT-D3 dispersion correction:
      S. Grimme, J. Antony, S. Ehrlich and H. Krieg, J. Chem. Phys. 132, 154104 (2010)

This list may not be complete. Please suggest additional citations or
report any other bugs at https://github.com/shankar1729/jdftx/issues

Initialization completed successfully at t[s]:    289.44


Computing DFT-D3 correction:
# coordination-number N 3.146 3.146 3.272 3.146 3.272 3.141 3.141 3.272 3.146 3.272 3.272 3.146 3.146 3.272
# coordination-number B 3.530 3.353 3.353 3.353 3.353 3.530 3.530 3.530 3.353 3.353 3.530 3.530 3.346 3.346
# coordination-number Na 2.112
# diagonal-C6 N 15.61 15.61 15.59 15.61 15.59 15.61 15.61 15.59 15.61 15.59 15.59 15.61 15.61 15.59
# diagonal-C6 B 31.27 31.44 31.44 31.44 31.44 31.27 31.27 31.27 31.44 31.44 31.27 31.27 31.44 31.44
# diagonal-C6 Na 186.11
EvdW_6 =   -0.032874
EvdW_8 =   -0.030943

-------- Electronic minimization -----------
Will mix electronic density at each iteration.
	FillingsUpdate:  mu: -0.161635581  nElectrons: 121.000000  magneticMoment: [ Abs: 0.25041  Tot: +0.18056 ]
	FillingsUpdate:  mu: -0.170620645  nElectrons: 121.000000  magneticMoment: [ Abs: 0.25041  Tot: +0.18056 ]
SCF: Cycle:  0   F: -222.195096108342739   dF: -1.314e+00   |Residual|: 3.962e-01   |deigs|: 1.120e-01  t[s]:    339.24
	FillingsUpdate:  mu: -0.164707577  nElectrons: 121.000000  magneticMoment: [ Abs: 0.33520  Tot: +0.18829 ]
SCF: Cycle:  1   F: -222.273648140976007   dF: -7.855e-02   |Residual|: 2.153e-01   |deigs|: 1.895e-02  t[s]:    377.40
	FillingsUpdate:  mu: -0.164115762  nElectrons: 121.000000  magneticMoment: [ Abs: 0.44064  Tot: +0.18430 ]
SCF: Cycle:  2   F: -222.304375116370949   dF: -3.073e-02   |Residual|: 4.032e-02   |deigs|: 2.224e-02  t[s]:    415.48
	FillingsUpdate:  mu: -0.161479050  nElectrons: 121.000000  magneticMoment: [ Abs: 0.24252  Tot: +0.18225 ]
SCF: Cycle:  3   F: -222.306517596606227   dF: -2.142e-03   |Residual|: 2.688e-02   |deigs|: 4.435e-03  t[s]:    453.79
	FillingsUpdate:  mu: -0.154889372  nElectrons: 121.000000  magneticMoment: [ Abs: 0.24535  Tot: +0.17809 ]
SCF: Cycle:  4   F: -222.308109871559139   dF: -1.592e-03   |Residual|: 1.570e-02   |deigs|: 7.963e-03  t[s]:    492.08
	FillingsUpdate:  mu: -0.149483085  nElectrons: 121.000000  magneticMoment: [ Abs: 0.21533  Tot: +0.17658 ]
SCF: Cycle:  5   F: -222.309485773091154   dF: -1.376e-03   |Residual|: 1.447e-02   |deigs|: 5.996e-03  t[s]:    530.61
	FillingsUpdate:  mu: -0.140234275  nElectrons: 121.000000  magneticMoment: [ Abs: 0.23147  Tot: +0.17582 ]
SCF: Cycle:  6   F: -222.311438906416583   dF: -1.953e-03   |Residual|: 1.100e-02   |deigs|: 8.837e-03  t[s]:    569.16
	FillingsUpdate:  mu: -0.126995615  nElectrons: 121.000000  magneticMoment: [ Abs: 0.22881  Tot: +0.17542 ]
SCF: Cycle:  7   F: -222.313287214931648   dF: -1.848e-03   |Residual|: 9.663e-03   |deigs|: 1.184e-02  t[s]:    607.72
	FillingsUpdate:  mu: -0.115541175  nElectrons: 121.000000  magneticMoment: [ Abs: 0.21961  Tot: +0.17567 ]
SCF: Cycle:  8   F: -222.314776801174219   dF: -1.490e-03   |Residual|: 8.304e-03   |deigs|: 1.065e-02  t[s]:    646.20
	FillingsUpdate:  mu: -0.103922266  nElectrons: 121.000000  magneticMoment: [ Abs: 0.21296  Tot: +0.17648 ]
SCF: Cycle:  9   F: -222.317376880445096   dF: -2.600e-03   |Residual|: 6.956e-03   |deigs|: 9.880e-03  t[s]:    684.86
	FillingsUpdate:  mu: -0.099593010  nElectrons: 121.000000  magneticMoment: [ Abs: 0.19858  Tot: +0.17741 ]
SCF: Cycle: 10   F: -222.318735554016513   dF: -1.359e-03   |Residual|: 6.246e-03   |deigs|: 3.731e-03  t[s]:    723.38
	FillingsUpdate:  mu: -0.097935361  nElectrons: 121.000000  magneticMoment: [ Abs: 0.20425  Tot: +0.17872 ]
SCF: Cycle: 11   F: -222.319736969435240   dF: -1.001e-03   |Residual|: 5.418e-03   |deigs|: 2.444e-03  t[s]:    761.86
	FillingsUpdate:  mu: -0.092703230  nElectrons: 121.000000  magneticMoment: [ Abs: 0.21227  Tot: +0.17959 ]
SCF: Cycle: 12   F: -222.320359102196193   dF: -6.221e-04   |Residual|: 4.964e-03   |deigs|: 4.227e-03  t[s]:    800.58
	FillingsUpdate:  mu: -0.086538348  nElectrons: 121.000000  magneticMoment: [ Abs: 0.19508  Tot: +0.17792 ]
SCF: Cycle: 13   F: -222.320750266754715   dF: -3.912e-04   |Residual|: 3.957e-03   |deigs|: 4.694e-03  t[s]:    839.03
	FillingsUpdate:  mu: -0.081656073  nElectrons: 121.000000  magneticMoment: [ Abs: 0.19322  Tot: +0.17378 ]
SCF: Cycle: 14   F: -222.320908086511793   dF: -1.578e-04   |Residual|: 2.780e-03   |deigs|: 3.788e-03  t[s]:    877.89
	FillingsUpdate:  mu: -0.078005985  nElectrons: 121.000000  magneticMoment: [ Abs: 0.18424  Tot: +0.16974 ]
SCF: Cycle: 15   F: -222.320960324608563   dF: -5.224e-05   |Residual|: 1.617e-03   |deigs|: 3.398e-03  t[s]:    916.82
	FillingsUpdate:  mu: -0.077235888  nElectrons: 121.000000  magneticMoment: [ Abs: 0.17725  Tot: +0.16715 ]
SCF: Cycle: 16   F: -222.320964596360056   dF: -4.272e-06   |Residual|: 9.159e-04   |deigs|: 1.356e-03  t[s]:    955.39
	FillingsUpdate:  mu: -0.077078044  nElectrons: 121.000000  magneticMoment: [ Abs: 0.17483  Tot: +0.16535 ]
SCF: Cycle: 17   F: -222.320966342757004   dF: -1.746e-06   |Residual|: 6.293e-04   |deigs|: 8.177e-04  t[s]:    994.13
	FillingsUpdate:  mu: -0.077122856  nElectrons: 121.000000  magneticMoment: [ Abs: 0.17039  Tot: +0.16330 ]
SCF: Cycle: 18   F: -222.320965947814216   dF: +3.949e-07   |Residual|: 4.852e-04   |deigs|: 5.176e-04  t[s]:   1032.67
	FillingsUpdate:  mu: -0.077271703  nElectrons: 121.000000  magneticMoment: [ Abs: 0.16711  Tot: +0.16171 ]
SCF: Cycle: 19   F: -222.320966394708989   dF: -4.469e-07   |Residual|: 3.910e-04   |deigs|: 5.670e-04  t[s]:   1071.26
	FillingsUpdate:  mu: -0.077486422  nElectrons: 121.000000  magneticMoment: [ Abs: 0.16082  Tot: +0.15825 ]
SCF: Cycle: 20   F: -222.320966442149739   dF: -4.744e-08   |Residual|: 2.968e-04   |deigs|: 5.699e-04  t[s]:   1110.16
	FillingsUpdate:  mu: -0.077497325  nElectrons: 121.000000  magneticMoment: [ Abs: 0.15792  Tot: +0.15641 ]
SCF: Cycle: 21   F: -222.320966291820582   dF: +1.503e-07   |Residual|: 2.547e-04   |deigs|: 5.268e-04  t[s]:   1148.96
	FillingsUpdate:  mu: -0.077180867  nElectrons: 121.000000  magneticMoment: [ Abs: 0.15631  Tot: +0.15438 ]
SCF: Cycle: 22   F: -222.320966824428240   dF: -5.326e-07   |Residual|: 1.819e-04   |deigs|: 7.737e-04  t[s]:   1187.64
	FillingsUpdate:  mu: -0.076910428  nElectrons: 121.000000  magneticMoment: [ Abs: 0.15526  Tot: +0.15337 ]
SCF: Cycle: 23   F: -222.320967313667893   dF: -4.892e-07   |Residual|: 1.148e-04   |deigs|: 5.193e-04  t[s]:   1226.42
	FillingsUpdate:  mu: -0.076806367  nElectrons: 121.000000  magneticMoment: [ Abs: 0.15454  Tot: +0.15301 ]
SCF: Cycle: 24   F: -222.320967471774708   dF: -1.581e-07   |Residual|: 5.673e-05   |deigs|: 3.772e-04  t[s]:   1265.15
	FillingsUpdate:  mu: -0.076801427  nElectrons: 121.000000  magneticMoment: [ Abs: 0.15445  Tot: +0.15292 ]
SCF: Cycle: 25   F: -222.320967493747276   dF: -2.197e-08   |Residual|: 3.670e-05   |deigs|: 4.929e-04  t[s]:   1303.71
	FillingsUpdate:  mu: -0.076815771  nElectrons: 121.000000  magneticMoment: [ Abs: 0.15443  Tot: +0.15290 ]
SCF: Cycle: 26   F: -222.320967502719839   dF: -8.973e-09   |Residual|: 2.351e-05   |deigs|: 4.731e-04  t[s]:   1342.49
	FillingsUpdate:  mu: -0.076828726  nElectrons: 121.000000  magneticMoment: [ Abs: 0.15446  Tot: +0.15287 ]
SCF: Cycle: 27   F: -222.320967504425482   dF: -1.706e-09   |Residual|: 1.531e-05   |deigs|: 1.961e-04  t[s]:   1380.95
SCF: Converged (|Delta E|<1.000000e-08 for 2 iters).


Computing DFT-D3 correction:
# coordination-number N 3.146 3.146 3.272 3.146 3.272 3.141 3.141 3.272 3.146 3.272 3.272 3.146 3.146 3.272
# coordination-number B 3.530 3.353 3.353 3.353 3.353 3.530 3.530 3.530 3.353 3.353 3.530 3.530 3.346 3.346
# coordination-number Na 2.112
# diagonal-C6 N 15.61 15.61 15.59 15.61 15.59 15.61 15.61 15.59 15.61 15.59 15.59 15.61 15.61 15.59
# diagonal-C6 B 31.27 31.44 31.44 31.44 31.44 31.27 31.27 31.27 31.44 31.44 31.27 31.27 31.44 31.44
# diagonal-C6 Na 186.11
EvdW_6 =   -0.032874
EvdW_8 =   -0.030943

# Ionic positions in lattice coordinates:
ion N   0.952380952379803   0.761904761902463   0.000000000000000 0
ion N   1.428571428570279   1.285714285711987   0.268000000000000 0
ion N   0.380952380951232   0.904761904759606   0.000000000000000 0
ion N   0.714285714284565   1.142857142854844   0.268000000000000 0
ion N   0.523809523808374   0.619047619045320   0.000000000000000 0
ion N   0.999999999998850   0.999999999997701   0.268000000000000 0
ion N   0.666666666665517   0.333333333331034   0.000000000000000 0
ion N   1.285714285713136   0.857142857140558   0.268000000000000 0
ion N   0.809523809522660   0.047619047616749   0.000000000000000 0
ion N   1.571428571427422   0.714285714283415   0.268000000000000 0
ion N   0.095238095236946   0.476190476188177   0.000000000000000 0
ion N   0.238095238094089   0.190476190473892   0.000000000000000 0
ion N   0.857142857141708   0.571428571426273   0.268000000000000 0
ion N   1.142857142855993   0.428571428569130   0.268000000000000 0
ion B   0.571428571427422   0.857142857140558   0.000000000000000 0
ion B   0.952380952379803   1.190476190473892   0.268000000000000 0
ion B   0.714285714284565   0.571428571426273   0.000000000000000 0
ion B   1.238095238094089   1.047619047616749   0.268000000000000 0
ion B   0.857142857141708   0.285714285711987   0.000000000000000 0
ion B   1.523809523808374   0.904761904759606   0.268000000000000 0
ion B   0.142857142855993   0.714285714283415   0.000000000000000 0
ion B   0.285714285713136   0.428571428569130   0.000000000000000 0
ion B   0.809523809522660   0.761904761902463   0.268000000000000 0
ion B   0.428571428570279   0.142857142854844   0.000000000000000 0
ion B   1.095238095236946   0.619047619045320   0.268000000000000 0
ion B   1.380952380951231   0.476190476188177   0.268000000000000 0
ion B  -0.000000000001149  -0.000000000002299   0.000000000000000 0
ion B   0.666666666665517   0.333333333331034   0.268000000000000 0
ion Na   0.333333333332184   0.666666666664368   0.134000000000000 0

# Forces in Lattice coordinates:
force N   0.009898025098862  -0.009511127585050  -0.039859922587965 0
force N  -0.009511127585050   0.009898025098862   0.039859922587738 0
force N   0.003210166218583  -0.022636031418331   0.022712992154854 0
force N  -0.000386897513812  -0.009511127585050   0.039859922587851 0
force N  -0.022636031418331   0.019425865199747   0.022712992154854 0
force N   0.000000000000000   0.000000000000000   0.023418266182941 0
force N   0.000000000000000   0.000000000000000  -0.023418266182827 0
force N   0.019425865199748  -0.022636031418331  -0.022712992154854 0
force N  -0.009511127585050  -0.000386897513812  -0.039859922587851 0
force N  -0.022636031418330   0.003210166218583  -0.022712992154854 0
force N   0.019425865199747   0.003210166218583   0.022712992154740 0
force N  -0.000386897513812   0.009898025098862  -0.039859922587965 0
force N   0.009898025098862  -0.000386897513812   0.039859922587851 0
force N   0.003210166218583   0.019425865199748  -0.022712992154854 0
force B   0.037202941077468   0.020619488774503  -0.088885776120447 0
force B  -0.010870519742954  -0.031863854287858  -0.037660139982942 0
force B   0.042734374030812  -0.031863854287858   0.037660139982942 0
force B  -0.031863854287858   0.042734374030812  -0.037660139982942 0
force B  -0.031863854287858  -0.010870519742954   0.037660139982942 0
force B   0.020619488774502   0.037202941077468   0.088885776120447 0
force B  -0.057822429851971   0.037202941077468  -0.088885776120560 0
force B   0.020619488774503  -0.057822429851970  -0.088885776120447 0
force B   0.042734374030812  -0.010870519742954  -0.037660139982998 0
force B  -0.010870519742954   0.042734374030812   0.037660139982942 0
force B  -0.057822429851970   0.020619488774503   0.088885776120447 0
force B   0.037202941077468  -0.057822429851970   0.088885776120390 0
force B   0.000000000000000   0.000000000000000   0.060421791061784 0
force B   0.000000000000000   0.000000000000000  -0.060421791061613 0
force Na   0.000000000000000   0.000000000000000   0.000000000000000 0

# Energy components:
   Eewald =    -2103.9094185466597082
       EH =    -1929.2026606586596245
     Eloc =     3740.9967228263426477
      Enl =      -21.2904246354299325
   Epulay =       -0.0000190610708103
     EvdW =       -0.0638167681896172
      Exc =      -57.7845682367207445
       KE =      148.9332179514299810
-------------------------------------
     Etot =     -222.3209671289578182
       TS =        0.0000003754676741
-------------------------------------
        F =     -222.3209675044254823

IonicMinimize: Iter:   0  F: -222.320967504425482  |grad|_K:  0.000e+00  t[s]:   1385.02
IonicMinimize: Converged (|grad|_K<1.000000e-04).

#--- Lowdin population analysis ---
# oxidation-state N -0.372 -0.372 -0.379 -0.372 -0.379 -0.372 -0.372 -0.379 -0.372 -0.379 -0.379 -0.372 -0.372 -0.379
# magnetic-moments N +0.001 +0.001 +0.001 +0.001 +0.001 +0.000 +0.000 +0.001 +0.001 +0.001 +0.001 +0.001 +0.001 +0.001
# oxidation-state B +0.418 +0.448 +0.448 +0.448 +0.448 +0.418 +0.418 +0.418 +0.448 +0.448 +0.418 +0.418 +0.448 +0.448
# magnetic-moments B +0.001 +0.001 +0.001 +0.001 +0.001 +0.001 +0.001 +0.001 +0.001 +0.001 +0.001 +0.001 +0.000 +0.000
# oxidation-state Na +0.147
# magnetic-moments Na +0.123


Dumping 'Na-0.268.fillings' ... done
Dumping 'Na-0.268.wfns' ... done
Dumping 'Na-0.268.n_up' ... done
Dumping 'Na-0.268.n_dn' ... done
Dumping 'Na-0.268.eigenvals' ... done
End date and time: Wed Jan 19 20:52:22 2022  (Duration: 0-0:23:08.24)
Done!
