Second Layer Distance is 0.295

--------------------------------------------------------------------------
The library attempted to open the following supporting CUDA libraries,
but each of them failed.  CUDA-aware support is disabled.
libcuda.so.1: cannot open shared object file: No such file or directory
libcuda.dylib: cannot open shared object file: No such file or directory
/usr/lib64/libcuda.so.1: cannot open shared object file: No such file or directory
/usr/lib64/libcuda.dylib: cannot open shared object file: No such file or directory
If you are not interested in CUDA-aware support, then run with
--mca opal_warn_on_missing_libcuda 0 to suppress this message.  If you are interested
in CUDA-aware support, then try setting LD_LIBRARY_PATH to the location
of libcuda.so.1 to get passed this issue.
--------------------------------------------------------------------------
--------------------------------------------------------------------------
No OpenFabrics connection schemes reported that they were able to be
used on a specific port.  As such, the openib BTL (OpenFabrics
support) will be disabled for this port.

  Local host:           d-3-1-2
  Local device:         mlx5_1
  Local port:           1
  CPCs attempted:       rdmacm, udcm
--------------------------------------------------------------------------

*************** JDFTx 1.6.0 (git hash 42ebbcc2) ***************

Start date and time: Mon Jan 24 05:27:11 2022
Executable jdftx with command-line: -i Moire.bands.in
Running on hosts (process indices):  d-3-1-1 (0-47)  d-3-1-2 (48-57)
Divided in process groups (process indices):  0 (0)  1 (1)  2 (2)  3 (3)  4 (4)  5 (5)  6 (6)  7 (7)  8 (8)  9 (9)  10 (10)  11 (11)  12 (12)  13 (13)  14 (14)  15 (15)  16 (16)  17 (17)  18 (18)  19 (19)  20 (20)  21 (21)  22 (22)  23 (23)  24 (24)  25 (25)  26 (26)  27 (27)  28 (28)  29 (29)  30 (30)  31 (31)  32 (32)  33 (33)  34 (34)  35 (35)  36 (36)  37 (37)  38 (38)  39 (39)  40 (40)  41 (41)  42 (42)  43 (43)  44 (44)  45 (45)  46 (46)  47 (47)  48 (48)  49 (49)  50 (50)  51 (51)  52 (52)  53 (53)  54 (54)  55 (55)  56 (56)  57 (57)
Resource initialization completed at t[s]:      0.05
Run totals: 58 processes, 96 threads, 0 GPUs


Input parsed successfully to the following command list (including defaults):

basis kpoint-dependent
coords-type Lattice
core-overlap-check vector
coulomb-interaction Slab 001
davidson-band-ratio 1.1
dump End BandEigs
dump-name Na-bands-0.295.$VAR
elec-cutoff 20
elec-eigen-algo Davidson
elec-ex-corr gga-PBE
elec-initial-magnetization 0.100000 no
elec-smearing Fermi 1e-05
electronic-minimize  \
	dirUpdateScheme      FletcherReeves \
	linminMethod         DirUpdateRecommended \
	nIterations          10000 \
	history              15 \
	knormThreshold       0 \
	energyDiffThreshold  1e-08 \
	nEnergyDiff          2 \
	alphaTstart          1 \
	alphaTmin            1e-10 \
	updateTestStepSize   yes \
	alphaTreduceFactor   0.1 \
	alphaTincreaseFactor 3 \
	nAlphaAdjustMax      3 \
	wolfeEnergy          0.0001 \
	wolfeGradient        0.9 \
	fdTest               no
exchange-regularization WignerSeitzTruncated
fix-electron-density Na-0.295.$VAR
fluid None
fluid-ex-corr (null) lda-PZ
fluid-gummel-loop 10 1.000000e-05
fluid-minimize  \
	dirUpdateScheme      PolakRibiere \
	linminMethod         DirUpdateRecommended \
	nIterations          100 \
	history              15 \
	knormThreshold       0 \
	energyDiffThreshold  0 \
	nEnergyDiff          2 \
	alphaTstart          1 \
	alphaTmin            1e-10 \
	updateTestStepSize   yes \
	alphaTreduceFactor   0.1 \
	alphaTincreaseFactor 3 \
	nAlphaAdjustMax      3 \
	wolfeEnergy          0.0001 \
	wolfeGradient        0.9 \
	fdTest               no
fluid-solvent H2O 55.338 ScalarEOS \
	epsBulk 78.4 \
	pMol 0.92466 \
	epsInf 1.77 \
	Pvap 1.06736e-10 \
	sigmaBulk 4.62e-05 \
	Rvdw 2.61727 \
	Res 1.42 \
	tauNuc 343133 \
	poleEl 15 7 1
forces-output-coords Positions
ion N   0.952380952380952   0.761904761904762   0.000000000000000 0
ion N   1.428571428571428   1.285714285714286   0.295000000000000 0
ion N   0.380952380952381   0.904761904761905   0.000000000000000 0
ion N   0.714285714285714   1.142857142857143   0.295000000000000 0
ion N   0.523809523809524   0.619047619047619   0.000000000000000 0
ion N   1.000000000000000   1.000000000000000   0.295000000000000 0
ion N   0.666666666666667   0.333333333333333   0.000000000000000 0
ion N   1.285714285714286   0.857142857142857   0.295000000000000 0
ion N   0.809523809523810   0.047619047619048   0.000000000000000 0
ion N   1.571428571428571   0.714285714285714   0.295000000000000 0
ion N   0.095238095238095   0.476190476190476   0.000000000000000 0
ion N   0.238095238095238   0.190476190476190   0.000000000000000 0
ion N   0.857142857142857   0.571428571428571   0.295000000000000 0
ion N   1.142857142857143   0.428571428571429   0.295000000000000 0
ion B   0.571428571428572   0.857142857142857   0.000000000000000 0
ion B   0.952380952380952   1.190476190476190   0.295000000000000 0
ion B   0.714285714285714   0.571428571428571   0.000000000000000 0
ion B   1.238095238095238   1.047619047619047   0.295000000000000 0
ion B   0.857142857142857   0.285714285714286   0.000000000000000 0
ion B   1.523809523809524   0.904761904761905   0.295000000000000 0
ion B   0.142857142857143   0.714285714285714   0.000000000000000 0
ion B   0.285714285714286   0.428571428571429   0.000000000000000 0
ion B   0.809523809523810   0.761904761904762   0.295000000000000 0
ion B   0.428571428571429   0.142857142857143   0.000000000000000 0
ion B   1.095238095238095   0.619047619047619   0.295000000000000 0
ion B   1.380952380952381   0.476190476190476   0.295000000000000 0
ion B   0.000000000000000   0.000000000000000   0.000000000000000 0
ion B   0.666666666666667   0.333333333333333   0.295000000000000 0
ion Na   0.333333333300000   0.666666666600000   0.147500000000000 0
ion-species SG15/$ID_ONCV_PBE.upf
ion-width 0
ionic-minimize  \
	dirUpdateScheme      L-BFGS \
	linminMethod         DirUpdateRecommended \
	nIterations          0 \
	history              15 \
	knormThreshold       0.0001 \
	energyDiffThreshold  1e-06 \
	nEnergyDiff          2 \
	alphaTstart          1 \
	alphaTmin            1e-10 \
	updateTestStepSize   yes \
	alphaTreduceFactor   0.1 \
	alphaTincreaseFactor 3 \
	nAlphaAdjustMax      3 \
	wolfeEnergy          0.0001 \
	wolfeGradient        0.9 \
	fdTest               no
kpoint   0.000000000000   0.000000000000   0.000000000000  0.01785714285714
kpoint   0.029411764706   0.000000000000   0.000000000000  0.01785714285714
kpoint   0.058823529412   0.000000000000   0.000000000000  0.01785714285714
kpoint   0.088235294118   0.000000000000   0.000000000000  0.01785714285714
kpoint   0.117647058824   0.000000000000   0.000000000000  0.01785714285714
kpoint   0.147058823529   0.000000000000   0.000000000000  0.01785714285714
kpoint   0.176470588235   0.000000000000   0.000000000000  0.01785714285714
kpoint   0.205882352941   0.000000000000   0.000000000000  0.01785714285714
kpoint   0.235294117647   0.000000000000   0.000000000000  0.01785714285714
kpoint   0.264705882353   0.000000000000   0.000000000000  0.01785714285714
kpoint   0.294117647059   0.000000000000   0.000000000000  0.01785714285714
kpoint   0.323529411765   0.000000000000   0.000000000000  0.01785714285714
kpoint   0.352941176471   0.000000000000   0.000000000000  0.01785714285714
kpoint   0.382352941176   0.000000000000   0.000000000000  0.01785714285714
kpoint   0.411764705882   0.000000000000   0.000000000000  0.01785714285714
kpoint   0.441176470588   0.000000000000   0.000000000000  0.01785714285714
kpoint   0.470588235294   0.000000000000   0.000000000000  0.01785714285714
kpoint   0.500000000000   0.000000000000   0.000000000000  0.01785714285714
kpoint   0.512820512769  -0.025641025385   0.000000000000  0.01785714285714
kpoint   0.525641025538  -0.051282050769   0.000000000000  0.01785714285714
kpoint   0.538461538308  -0.076923076154   0.000000000000  0.01785714285714
kpoint   0.551282051077  -0.102564101538   0.000000000000  0.01785714285714
kpoint   0.564102563846  -0.128205126923   0.000000000000  0.01785714285714
kpoint   0.576923076615  -0.153846152308   0.000000000000  0.01785714285714
kpoint   0.589743589385  -0.179487177692   0.000000000000  0.01785714285714
kpoint   0.602564102154  -0.205128203077   0.000000000000  0.01785714285714
kpoint   0.615384614923  -0.230769228462   0.000000000000  0.01785714285714
kpoint   0.628205127692  -0.256410253846   0.000000000000  0.01785714285714
kpoint   0.641025640462  -0.282051279231   0.000000000000  0.01785714285714
kpoint   0.653846153231  -0.307692304615   0.000000000000  0.01785714285714
kpoint   0.666666666000  -0.333333330000   0.000000000000  0.01785714285714
kpoint   0.639999999360  -0.319999996800   0.000000000000  0.01785714285714
kpoint   0.613333332720  -0.306666663600   0.000000000000  0.01785714285714
kpoint   0.586666666080  -0.293333330400   0.000000000000  0.01785714285714
kpoint   0.559999999440  -0.279999997200   0.000000000000  0.01785714285714
kpoint   0.533333332800  -0.266666664000   0.000000000000  0.01785714285714
kpoint   0.506666666160  -0.253333330800   0.000000000000  0.01785714285714
kpoint   0.479999999520  -0.239999997600   0.000000000000  0.01785714285714
kpoint   0.453333332880  -0.226666664400   0.000000000000  0.01785714285714
kpoint   0.426666666240  -0.213333331200   0.000000000000  0.01785714285714
kpoint   0.399999999600  -0.199999998000   0.000000000000  0.01785714285714
kpoint   0.373333332960  -0.186666664800   0.000000000000  0.01785714285714
kpoint   0.346666666320  -0.173333331600   0.000000000000  0.01785714285714
kpoint   0.319999999680  -0.159999998400   0.000000000000  0.01785714285714
kpoint   0.293333333040  -0.146666665200   0.000000000000  0.01785714285714
kpoint   0.266666666400  -0.133333332000   0.000000000000  0.01785714285714
kpoint   0.239999999760  -0.119999998800   0.000000000000  0.01785714285714
kpoint   0.213333333120  -0.106666665600   0.000000000000  0.01785714285714
kpoint   0.186666666480  -0.093333332400   0.000000000000  0.01785714285714
kpoint   0.159999999840  -0.079999999200   0.000000000000  0.01785714285714
kpoint   0.133333333200  -0.066666666000   0.000000000000  0.01785714285714
kpoint   0.106666666560  -0.053333332800   0.000000000000  0.01785714285714
kpoint   0.079999999920  -0.039999999600   0.000000000000  0.01785714285714
kpoint   0.053333333280  -0.026666666400   0.000000000000  0.01785714285714
kpoint   0.026666666640  -0.013333333200   0.000000000000  0.01785714285714
kpoint   0.000000000000   0.000000000000   0.000000000000  0.01785714285714
kpoint-folding 1 1 1 
latt-move-scale 1 1 1
latt-scale 1 1 1 
lattice  \
	 -11.818700000000000    2.363740000000000    0.000000000000000  \
	   4.094120000000000  -12.282400000000001    0.000000000000000  \
	   0.000000000000000    0.000000000000000   40.000000000000000 
lattice-minimize  \
	dirUpdateScheme      L-BFGS \
	linminMethod         DirUpdateRecommended \
	nIterations          0 \
	history              15 \
	knormThreshold       0 \
	energyDiffThreshold  1e-06 \
	nEnergyDiff          2 \
	alphaTstart          1 \
	alphaTmin            1e-10 \
	updateTestStepSize   yes \
	alphaTreduceFactor   0.1 \
	alphaTincreaseFactor 3 \
	nAlphaAdjustMax      3 \
	wolfeEnergy          0.0001 \
	wolfeGradient        0.9 \
	fdTest               no
lcao-params -1 1e-06 1e-05
pcm-variant GLSSA13
spintype z-spin
subspace-rotation-factor 1 yes
symmetries none
symmetry-threshold 0.0001
van-der-waals D3


Applied RMS atom displacement 0 bohrs to make symmetries exact.

---------- Initializing the Grid ----------
R = 
[     -11.8187      2.36374            0  ]
[      4.09412     -12.2824            0  ]
[            0            0           40  ]
unit cell volume = 5419.38
G =
[  -0.569604   -0.10962          0  ]
[  -0.189867    -0.5481          0  ]
[          0          0    0.15708  ]
Minimum fftbox size, Smin = [  52  52  164  ]
Chosen fftbox size, S = [  54  54  168  ]

---------- Exchange Correlation functional ----------
Initalized PBE GGA exchange.
Initalized PBE GGA correlation.

---------- Setting up pseudopotentials ----------
Width of ionic core gaussian charges (only for fluid interactions / plotting) set to 0

Reading pseudopotential file '/home/gridsan/aligho/DFT/build-Nov24/pseudopotentials/SG15/N_ONCV_PBE.upf':
  'N' pseudopotential, 'PBE' functional
  Generated using ONCVPSP code by D. R. Hamann
  Author: Martin Schlipf and Francois Gygi  Date: 150915.
  5 valence electrons, 2 orbitals, 4 projectors, 1058 radial grid points, with lMax = 1
  Transforming local potential to a uniform radial grid of dG=0.02 with 1514 points.
  Transforming nonlocal projectors to a uniform radial grid of dG=0.02 with 432 points.
    2S    l: 0   occupation:  2.0   eigenvalue: -0.682907
    2P    l: 1   occupation:  3.0   eigenvalue: -0.260548
  Transforming atomic orbitals to a uniform radial grid of dG=0.02 with 432 points.
  Core radius for overlap checks: 1.35 bohrs.
  Reading pulay file /home/gridsan/aligho/DFT/build-Nov24/pseudopotentials/SG15/N_ONCV_PBE.pulay ... using dE_dnG = -2.956256e-02 computed for Ecut = 20.

Reading pseudopotential file '/home/gridsan/aligho/DFT/build-Nov24/pseudopotentials/SG15/B_ONCV_PBE.upf':
  'B' pseudopotential, 'PBE' functional
  Generated using ONCVPSP code by D. R. Hamann
  Author: Martin Schlipf and Francois Gygi  Date: 150915.
  3 valence electrons, 2 orbitals, 4 projectors, 1534 radial grid points, with lMax = 1
  Transforming local potential to a uniform radial grid of dG=0.02 with 1514 points.
  Transforming nonlocal projectors to a uniform radial grid of dG=0.02 with 432 points.
    2S    l: 0   occupation:  2.0   eigenvalue: -0.347027
    2P    l: 1   occupation:  1.0   eigenvalue: -0.132548
  Transforming atomic orbitals to a uniform radial grid of dG=0.02 with 432 points.
  Core radius for overlap checks: 1.60 bohrs.
  Reading pulay file /home/gridsan/aligho/DFT/build-Nov24/pseudopotentials/SG15/B_ONCV_PBE.pulay ... using dE_dnG = -3.748568e-04 computed for Ecut = 20.

Reading pseudopotential file '/home/gridsan/aligho/DFT/build-Nov24/pseudopotentials/SG15/Na_ONCV_PBE.upf':
  'Na' pseudopotential, 'PBE' functional
  Generated using ONCVPSP code by D. R. Hamann
  Author: Martin Schlipf and Francois Gygi  Date: 150915.
  9 valence electrons, 3 orbitals, 4 projectors, 1992 radial grid points, with lMax = 1
  Transforming local potential to a uniform radial grid of dG=0.02 with 1514 points.
  Transforming nonlocal projectors to a uniform radial grid of dG=0.02 with 432 points.
    2S    l: 0   occupation:  2.0   eigenvalue: -2.085640
    2P    l: 1   occupation:  6.0   eigenvalue: -1.053708
    3S    l: 0   occupation:  1.0   eigenvalue: -0.100838
  Transforming atomic orbitals to a uniform radial grid of dG=0.02 with 432 points.
  Core radius for overlap checks: 2.01 bohrs.
  Reading pulay file /home/gridsan/aligho/DFT/build-Nov24/pseudopotentials/SG15/Na_ONCV_PBE.pulay ... using dE_dnG = -2.946487e-03 computed for Ecut = 20.

Initialized 3 species with 29 total atoms.

Folded 56 k-points by 1x1x1 to 56 k-points.

---------- Setting up k-points, bands, fillings ----------
No reducable k-points. 
Computing the number of bands and number of electrons
Calculating initial fillings.
nElectrons: 121.000000   nBands: 117   nStates: 112

----- Setting up reduced wavefunction bases (one per k-point) -----
average nbasis = 23160.018 , ideal nbasis = 23152.016

---------- Setting up coulomb interaction ----------
Initialized slab truncation along lattice direction 001

Initializing DFT-D3 calculator:
	Parameters set for gga-PBE functional
	s6:  1.000  s_r6:  1.217
	s8:  0.722  s_r8:  1.000
	Per-atom parameters loaded for:
	 N:  sqrtQ[a0]:  2.712  Rcov[a0]:  1.342  CN: [ 0.00 0.99 2.01 2.99 ]
	 B:  sqrtQ[a0]:  3.644  Rcov[a0]:  1.455  CN: [ 0.00 0.97 1.94 2.91 4.59 ]
	Na:  sqrtQ[a0]:  6.586  Rcov[a0]:  2.646  CN: [ 0.00 0.97 ]

---------- Setting up 2D ewald sum ----------
Optimum gaussian width for ewald sums = 6.943804 bohr.
Real space sums over 289 unit cells with max indices [  8  8  0  ]
Reciprocal space sums over 81 terms with max indices [  4  4  0  ]

Computing DFT-D3 correction:
# coordination-number N 3.142 3.142 3.188 3.142 3.188 3.139 3.139 3.188 3.142 3.188 3.188 3.142 3.142 3.188
# coordination-number B 3.413 3.348 3.348 3.348 3.348 3.413 3.413 3.413 3.348 3.348 3.413 3.413 3.344 3.344
# coordination-number Na 0.855
# diagonal-C6 N 15.61 15.61 15.60 15.61 15.60 15.61 15.61 15.60 15.61 15.60 15.60 15.61 15.61 15.60
# diagonal-C6 B 31.41 31.44 31.44 31.44 31.44 31.41 31.41 31.41 31.44 31.44 31.41 31.41 31.44 31.44
# diagonal-C6 Na 222.40
EvdW_6 =   -0.031518
EvdW_8 =   -0.030181

---------- Allocating electronic variables ----------
Reading n_up from file 'Na-0.295.n_up' ... done
Reading n_dn from file 'Na-0.295.n_dn' ... done
Initializing wave functions:  linear combination of atomic orbitals
[d-3-1-1:51450] 57 more processes have sent help message help-mpi-common-cuda.txt / dlopen failed
[d-3-1-1:51450] Set MCA parameter "orte_base_help_aggregate" to 0 to see all help / error messages
[d-3-1-1:51450] 57 more processes have sent help message help-mpi-btl-openib-cpc-base.txt / no cpcs for port


---- Citations for features of the code used in this run ----

   Software package:
      R. Sundararaman, K. Letchworth-Weaver, K.A. Schwarz, D. Gunceler, Y. Ozhabes and T.A. Arias, 'JDFTx: software for joint density-functional theory', SoftwareX 6, 278 (2017)

   gga-PBE exchange-correlation functional:
      J.P. Perdew, K. Burke and M. Ernzerhof, Phys. Rev. Lett. 77, 3865 (1996)

   Pseudopotentials:
      M Schlipf and F Gygi, Comput. Phys. Commun. 196, 36 (2015)

   Truncated Coulomb potentials:
      R. Sundararaman and T.A. Arias, Phys. Rev. B 87, 165122 (2013)

   DFT-D3 dispersion correction:
      S. Grimme, J. Antony, S. Ehrlich and H. Krieg, J. Chem. Phys. 132, 154104 (2010)

   Total energy minimization with Auxiliary Hamiltonian:
      C. Freysoldt, S. Boeck, and J. Neugebauer, Phys. Rev. B 79, 241103(R) (2009)

This list may not be complete. Please suggest additional citations or
report any other bugs at https://github.com/shankar1729/jdftx/issues

Initialization completed successfully at t[s]:     17.84


----------- Band structure minimization -------------
Minimization will be done independently for each quantum number.

---- Minimization of quantum number:     0  [ +0.0000000 +0.0000000 +0.0000000 ]  0.017857143  spin +1 ----
BandDavidson: Iter:   0  Eband: -0.224847320577226
BandDavidson: Iter:   1  Eband: -0.353910943267002  dEband: -1.290636e-01  t[s]:     29.09
BandDavidson: Iter:   2  Eband: -0.397903579718875  dEband: -4.399264e-02  t[s]:     35.78
BandDavidson: Iter:   3  Eband: -0.414865931983787  dEband: -1.696235e-02  t[s]:     42.36
BandDavidson: Iter:   4  Eband: -0.428356000259294  dEband: -1.349007e-02  t[s]:     48.93
BandDavidson: Iter:   5  Eband: -0.432230509866138  dEband: -3.874510e-03  t[s]:     55.54
BandDavidson: Iter:   6  Eband: -0.435046283198034  dEband: -2.815773e-03  t[s]:     62.17
BandDavidson: Iter:   7  Eband: -0.436771776600670  dEband: -1.725493e-03  t[s]:     68.78
BandDavidson: Iter:   8  Eband: -0.437766833742870  dEband: -9.950571e-04  t[s]:     75.38
BandDavidson: Iter:   9  Eband: -0.438802020399688  dEband: -1.035187e-03  t[s]:     81.98
BandDavidson: Iter:  10  Eband: -0.439447921444329  dEband: -6.459010e-04  t[s]:     88.57
BandDavidson: Iter:  11  Eband: -0.439740312124019  dEband: -2.923907e-04  t[s]:     95.18
BandDavidson: Iter:  12  Eband: -0.439913301669296  dEband: -1.729895e-04  t[s]:    101.80
BandDavidson: Iter:  13  Eband: -0.440040336277506  dEband: -1.270346e-04  t[s]:    108.32
BandDavidson: Iter:  14  Eband: -0.440137335022306  dEband: -9.699874e-05  t[s]:    114.82
BandDavidson: Iter:  15  Eband: -0.440216089155340  dEband: -7.875413e-05  t[s]:    121.29
BandDavidson: Iter:  16  Eband: -0.440281631027236  dEband: -6.554187e-05  t[s]:    127.79
BandDavidson: Iter:  17  Eband: -0.440337560321085  dEband: -5.592929e-05  t[s]:    134.25
BandDavidson: Iter:  18  Eband: -0.440386563479244  dEband: -4.900316e-05  t[s]:    140.70
BandDavidson: Iter:  19  Eband: -0.440430404498450  dEband: -4.384102e-05  t[s]:    147.11
BandDavidson: Iter:  20  Eband: -0.440470262110300  dEband: -3.985761e-05  t[s]:    153.56
BandDavidson: Iter:  21  Eband: -0.440522184195810  dEband: -5.192209e-05  t[s]:    160.01
BandDavidson: Iter:  22  Eband: -0.440625876318692  dEband: -1.036921e-04  t[s]:    166.29
BandDavidson: Iter:  23  Eband: -0.440707479986529  dEband: -8.160367e-05  t[s]:    172.55
BandDavidson: Iter:  24  Eband: -0.440770946215225  dEband: -6.346623e-05  t[s]:    178.84
BandDavidson: Iter:  25  Eband: -0.440819671413651  dEband: -4.872520e-05  t[s]:    185.11
BandDavidson: Iter:  26  Eband: -0.440858127720683  dEband: -3.845631e-05  t[s]:    191.36
BandDavidson: Iter:  27  Eband: -0.440888214672458  dEband: -3.008695e-05  t[s]:    197.59
BandDavidson: Iter:  28  Eband: -0.440911702396858  dEband: -2.348772e-05  t[s]:    203.61
BandDavidson: Iter:  29  Eband: -0.440929931594104  dEband: -1.822920e-05  t[s]:    209.43
BandDavidson: Iter:  30  Eband: -0.440943980832718  dEband: -1.404924e-05  t[s]:    214.94
BandDavidson: Iter:  31  Eband: -0.440954811009936  dEband: -1.083018e-05  t[s]:    220.12
BandDavidson: Iter:  32  Eband: -0.440963211205162  dEband: -8.400195e-06  t[s]:    224.95
BandDavidson: Iter:  33  Eband: -0.440969823942807  dEband: -6.612738e-06  t[s]:    229.71
BandDavidson: Iter:  34  Eband: -0.440975080537047  dEband: -5.256594e-06  t[s]:    234.42
BandDavidson: Iter:  35  Eband: -0.440979274704377  dEband: -4.194167e-06  t[s]:    239.12
BandDavidson: Iter:  36  Eband: -0.440982632732461  dEband: -3.358028e-06  t[s]:    243.73
BandDavidson: Iter:  37  Eband: -0.440985322173961  dEband: -2.689441e-06  t[s]:    248.17
BandDavidson: Iter:  38  Eband: -0.440987475412395  dEband: -2.153238e-06  t[s]:    252.37
BandDavidson: Iter:  39  Eband: -0.440989203688840  dEband: -1.728276e-06  t[s]:    256.47
BandDavidson: Iter:  40  Eband: -0.440990597457036  dEband: -1.393768e-06  t[s]:    260.59
BandDavidson: Iter:  41  Eband: -0.440991728582448  dEband: -1.131125e-06  t[s]:    264.73
BandDavidson: Iter:  42  Eband: -0.440992650261042  dEband: -9.216786e-07  t[s]:    268.97
BandDavidson: Iter:  43  Eband: -0.440993402605972  dEband: -7.523449e-07  t[s]:    273.18
BandDavidson: Iter:  44  Eband: -0.440994015975636  dEband: -6.133697e-07  t[s]:    277.36
BandDavidson: Iter:  45  Eband: -0.440994514590097  dEband: -4.986145e-07  t[s]:    281.53
BandDavidson: Iter:  46  Eband: -0.440994920293135  dEband: -4.057030e-07  t[s]:    285.66
BandDavidson: Iter:  47  Eband: -0.440995250794284  dEband: -3.305011e-07  t[s]:    289.67
BandDavidson: Iter:  48  Eband: -0.440995519865559  dEband: -2.690713e-07  t[s]:    293.70
BandDavidson: Iter:  49  Eband: -0.440995739093116  dEband: -2.192276e-07  t[s]:    297.61
BandDavidson: Iter:  50  Eband: -0.440995917878090  dEband: -1.787850e-07  t[s]:    301.49
BandDavidson: Iter:  51  Eband: -0.440996063710112  dEband: -1.458320e-07  t[s]:    305.28
BandDavidson: Iter:  52  Eband: -0.440996183037180  dEband: -1.193271e-07  t[s]:    308.95
BandDavidson: Iter:  53  Eband: -0.440996280829101  dEband: -9.779192e-08  t[s]:    312.56
BandDavidson: Iter:  54  Eband: -0.440996361222069  dEband: -8.039297e-08  t[s]:    316.19
BandDavidson: Iter:  55  Eband: -0.440996427503316  dEband: -6.628125e-08  t[s]:    319.82
BandDavidson: Iter:  56  Eband: -0.440996482190056  dEband: -5.468674e-08  t[s]:    323.34
BandDavidson: Iter:  57  Eband: -0.440996527302658  dEband: -4.511260e-08  t[s]:    326.82
BandDavidson: Iter:  58  Eband: -0.440996564560450  dEband: -3.725779e-08  t[s]:    330.33
BandDavidson: Iter:  59  Eband: -0.440996595347884  dEband: -3.078743e-08  t[s]:    333.83
BandDavidson: Iter:  60  Eband: -0.440996620800001  dEband: -2.545212e-08  t[s]:    337.35
BandDavidson: Iter:  61  Eband: -0.440996641848173  dEband: -2.104817e-08  t[s]:    340.81
BandDavidson: Iter:  62  Eband: -0.440996659254344  dEband: -1.740617e-08  t[s]:    344.24
BandDavidson: Iter:  63  Eband: -0.440996673646135  dEband: -1.439179e-08  t[s]:    347.58
BandDavidson: Iter:  64  Eband: -0.440996685556280  dEband: -1.191014e-08  t[s]:    350.79
BandDavidson: Iter:  65  Eband: -0.440996695429890  dEband: -9.873611e-09  t[s]:    353.98
BandDavidson: Converged (dEband<1.000000e-08)
Setting wave functions to eigenvectors of Hamiltonian
	FillingsUpdate:  mu: -0.084210819  nElectrons: 121.000000  magneticMoment: [ Abs: 0.01399  Tot: -0.01389 ]

Dumping 'Na-bands-0.295.eigenvals' ... done
End date and time: Mon Jan 24 05:41:43 2022  (Duration: 0-0:14:32.18)
Done!
