Second Layer Distance is 0.247

--------------------------------------------------------------------------
The library attempted to open the following supporting CUDA libraries,
but each of them failed.  CUDA-aware support is disabled.
libcuda.so.1: cannot open shared object file: No such file or directory
libcuda.dylib: cannot open shared object file: No such file or directory
/usr/lib64/libcuda.so.1: cannot open shared object file: No such file or directory
/usr/lib64/libcuda.dylib: cannot open shared object file: No such file or directory
If you are not interested in CUDA-aware support, then run with
--mca opal_warn_on_missing_libcuda 0 to suppress this message.  If you are interested
in CUDA-aware support, then try setting LD_LIBRARY_PATH to the location
of libcuda.so.1 to get passed this issue.
--------------------------------------------------------------------------
--------------------------------------------------------------------------
No OpenFabrics connection schemes reported that they were able to be
used on a specific port.  As such, the openib BTL (OpenFabrics
support) will be disabled for this port.

  Local host:           d-17-13-1
  Local device:         mlx5_1
  Local port:           1
  CPCs attempted:       rdmacm, udcm
--------------------------------------------------------------------------

*************** JDFTx 1.6.0 (git hash 42ebbcc2) ***************

Start date and time: Mon Jan 24 05:06:31 2022
Executable jdftx with command-line: -i Moire.bands.in
Running on hosts (process indices):  d-17-12-4 (0-47)  d-17-13-1 (48-57)
Divided in process groups (process indices):  0 (0)  1 (1)  2 (2)  3 (3)  4 (4)  5 (5)  6 (6)  7 (7)  8 (8)  9 (9)  10 (10)  11 (11)  12 (12)  13 (13)  14 (14)  15 (15)  16 (16)  17 (17)  18 (18)  19 (19)  20 (20)  21 (21)  22 (22)  23 (23)  24 (24)  25 (25)  26 (26)  27 (27)  28 (28)  29 (29)  30 (30)  31 (31)  32 (32)  33 (33)  34 (34)  35 (35)  36 (36)  37 (37)  38 (38)  39 (39)  40 (40)  41 (41)  42 (42)  43 (43)  44 (44)  45 (45)  46 (46)  47 (47)  48 (48)  49 (49)  50 (50)  51 (51)  52 (52)  53 (53)  54 (54)  55 (55)  56 (56)  57 (57)
Resource initialization completed at t[s]:      0.05
Run totals: 58 processes, 96 threads, 0 GPUs


Input parsed successfully to the following command list (including defaults):

basis kpoint-dependent
coords-type Lattice
core-overlap-check vector
coulomb-interaction Slab 001
davidson-band-ratio 1.1
dump End BandEigs
dump-name Na-bands-0.247.$VAR
elec-cutoff 20
elec-eigen-algo Davidson
elec-ex-corr gga-PBE
elec-initial-magnetization 0.100000 no
elec-smearing Fermi 1e-05
electronic-minimize  \
	dirUpdateScheme      FletcherReeves \
	linminMethod         DirUpdateRecommended \
	nIterations          10000 \
	history              15 \
	knormThreshold       0 \
	energyDiffThreshold  1e-08 \
	nEnergyDiff          2 \
	alphaTstart          1 \
	alphaTmin            1e-10 \
	updateTestStepSize   yes \
	alphaTreduceFactor   0.1 \
	alphaTincreaseFactor 3 \
	nAlphaAdjustMax      3 \
	wolfeEnergy          0.0001 \
	wolfeGradient        0.9 \
	fdTest               no
exchange-regularization WignerSeitzTruncated
fix-electron-density Na-0.247.$VAR
fluid None
fluid-ex-corr (null) lda-PZ
fluid-gummel-loop 10 1.000000e-05
fluid-minimize  \
	dirUpdateScheme      PolakRibiere \
	linminMethod         DirUpdateRecommended \
	nIterations          100 \
	history              15 \
	knormThreshold       0 \
	energyDiffThreshold  0 \
	nEnergyDiff          2 \
	alphaTstart          1 \
	alphaTmin            1e-10 \
	updateTestStepSize   yes \
	alphaTreduceFactor   0.1 \
	alphaTincreaseFactor 3 \
	nAlphaAdjustMax      3 \
	wolfeEnergy          0.0001 \
	wolfeGradient        0.9 \
	fdTest               no
fluid-solvent H2O 55.338 ScalarEOS \
	epsBulk 78.4 \
	pMol 0.92466 \
	epsInf 1.77 \
	Pvap 1.06736e-10 \
	sigmaBulk 4.62e-05 \
	Rvdw 2.61727 \
	Res 1.42 \
	tauNuc 343133 \
	poleEl 15 7 1
forces-output-coords Positions
ion N   0.952380952380952   0.761904761904762   0.000000000000000 0
ion N   1.428571428571428   1.285714285714286   0.247000000000000 0
ion N   0.380952380952381   0.904761904761905   0.000000000000000 0
ion N   0.714285714285714   1.142857142857143   0.247000000000000 0
ion N   0.523809523809524   0.619047619047619   0.000000000000000 0
ion N   1.000000000000000   1.000000000000000   0.247000000000000 0
ion N   0.666666666666667   0.333333333333333   0.000000000000000 0
ion N   1.285714285714286   0.857142857142857   0.247000000000000 0
ion N   0.809523809523810   0.047619047619048   0.000000000000000 0
ion N   1.571428571428571   0.714285714285714   0.247000000000000 0
ion N   0.095238095238095   0.476190476190476   0.000000000000000 0
ion N   0.238095238095238   0.190476190476190   0.000000000000000 0
ion N   0.857142857142857   0.571428571428571   0.247000000000000 0
ion N   1.142857142857143   0.428571428571429   0.247000000000000 0
ion B   0.571428571428572   0.857142857142857   0.000000000000000 0
ion B   0.952380952380952   1.190476190476190   0.247000000000000 0
ion B   0.714285714285714   0.571428571428571   0.000000000000000 0
ion B   1.238095238095238   1.047619047619047   0.247000000000000 0
ion B   0.857142857142857   0.285714285714286   0.000000000000000 0
ion B   1.523809523809524   0.904761904761905   0.247000000000000 0
ion B   0.142857142857143   0.714285714285714   0.000000000000000 0
ion B   0.285714285714286   0.428571428571429   0.000000000000000 0
ion B   0.809523809523810   0.761904761904762   0.247000000000000 0
ion B   0.428571428571429   0.142857142857143   0.000000000000000 0
ion B   1.095238095238095   0.619047619047619   0.247000000000000 0
ion B   1.380952380952381   0.476190476190476   0.247000000000000 0
ion B   0.000000000000000   0.000000000000000   0.000000000000000 0
ion B   0.666666666666667   0.333333333333333   0.247000000000000 0
ion Na   0.333333333300000   0.666666666600000   0.123500000000000 0
ion-species SG15/$ID_ONCV_PBE.upf
ion-width 0
ionic-minimize  \
	dirUpdateScheme      L-BFGS \
	linminMethod         DirUpdateRecommended \
	nIterations          0 \
	history              15 \
	knormThreshold       0.0001 \
	energyDiffThreshold  1e-06 \
	nEnergyDiff          2 \
	alphaTstart          1 \
	alphaTmin            1e-10 \
	updateTestStepSize   yes \
	alphaTreduceFactor   0.1 \
	alphaTincreaseFactor 3 \
	nAlphaAdjustMax      3 \
	wolfeEnergy          0.0001 \
	wolfeGradient        0.9 \
	fdTest               no
kpoint   0.000000000000   0.000000000000   0.000000000000  0.01785714285714
kpoint   0.029411764706   0.000000000000   0.000000000000  0.01785714285714
kpoint   0.058823529412   0.000000000000   0.000000000000  0.01785714285714
kpoint   0.088235294118   0.000000000000   0.000000000000  0.01785714285714
kpoint   0.117647058824   0.000000000000   0.000000000000  0.01785714285714
kpoint   0.147058823529   0.000000000000   0.000000000000  0.01785714285714
kpoint   0.176470588235   0.000000000000   0.000000000000  0.01785714285714
kpoint   0.205882352941   0.000000000000   0.000000000000  0.01785714285714
kpoint   0.235294117647   0.000000000000   0.000000000000  0.01785714285714
kpoint   0.264705882353   0.000000000000   0.000000000000  0.01785714285714
kpoint   0.294117647059   0.000000000000   0.000000000000  0.01785714285714
kpoint   0.323529411765   0.000000000000   0.000000000000  0.01785714285714
kpoint   0.352941176471   0.000000000000   0.000000000000  0.01785714285714
kpoint   0.382352941176   0.000000000000   0.000000000000  0.01785714285714
kpoint   0.411764705882   0.000000000000   0.000000000000  0.01785714285714
kpoint   0.441176470588   0.000000000000   0.000000000000  0.01785714285714
kpoint   0.470588235294   0.000000000000   0.000000000000  0.01785714285714
kpoint   0.500000000000   0.000000000000   0.000000000000  0.01785714285714
kpoint   0.512820512769  -0.025641025385   0.000000000000  0.01785714285714
kpoint   0.525641025538  -0.051282050769   0.000000000000  0.01785714285714
kpoint   0.538461538308  -0.076923076154   0.000000000000  0.01785714285714
kpoint   0.551282051077  -0.102564101538   0.000000000000  0.01785714285714
kpoint   0.564102563846  -0.128205126923   0.000000000000  0.01785714285714
kpoint   0.576923076615  -0.153846152308   0.000000000000  0.01785714285714
kpoint   0.589743589385  -0.179487177692   0.000000000000  0.01785714285714
kpoint   0.602564102154  -0.205128203077   0.000000000000  0.01785714285714
kpoint   0.615384614923  -0.230769228462   0.000000000000  0.01785714285714
kpoint   0.628205127692  -0.256410253846   0.000000000000  0.01785714285714
kpoint   0.641025640462  -0.282051279231   0.000000000000  0.01785714285714
kpoint   0.653846153231  -0.307692304615   0.000000000000  0.01785714285714
kpoint   0.666666666000  -0.333333330000   0.000000000000  0.01785714285714
kpoint   0.639999999360  -0.319999996800   0.000000000000  0.01785714285714
kpoint   0.613333332720  -0.306666663600   0.000000000000  0.01785714285714
kpoint   0.586666666080  -0.293333330400   0.000000000000  0.01785714285714
kpoint   0.559999999440  -0.279999997200   0.000000000000  0.01785714285714
kpoint   0.533333332800  -0.266666664000   0.000000000000  0.01785714285714
kpoint   0.506666666160  -0.253333330800   0.000000000000  0.01785714285714
kpoint   0.479999999520  -0.239999997600   0.000000000000  0.01785714285714
kpoint   0.453333332880  -0.226666664400   0.000000000000  0.01785714285714
kpoint   0.426666666240  -0.213333331200   0.000000000000  0.01785714285714
kpoint   0.399999999600  -0.199999998000   0.000000000000  0.01785714285714
kpoint   0.373333332960  -0.186666664800   0.000000000000  0.01785714285714
kpoint   0.346666666320  -0.173333331600   0.000000000000  0.01785714285714
kpoint   0.319999999680  -0.159999998400   0.000000000000  0.01785714285714
kpoint   0.293333333040  -0.146666665200   0.000000000000  0.01785714285714
kpoint   0.266666666400  -0.133333332000   0.000000000000  0.01785714285714
kpoint   0.239999999760  -0.119999998800   0.000000000000  0.01785714285714
kpoint   0.213333333120  -0.106666665600   0.000000000000  0.01785714285714
kpoint   0.186666666480  -0.093333332400   0.000000000000  0.01785714285714
kpoint   0.159999999840  -0.079999999200   0.000000000000  0.01785714285714
kpoint   0.133333333200  -0.066666666000   0.000000000000  0.01785714285714
kpoint   0.106666666560  -0.053333332800   0.000000000000  0.01785714285714
kpoint   0.079999999920  -0.039999999600   0.000000000000  0.01785714285714
kpoint   0.053333333280  -0.026666666400   0.000000000000  0.01785714285714
kpoint   0.026666666640  -0.013333333200   0.000000000000  0.01785714285714
kpoint   0.000000000000   0.000000000000   0.000000000000  0.01785714285714
kpoint-folding 1 1 1 
latt-move-scale 1 1 1
latt-scale 1 1 1 
lattice  \
	 -11.818700000000000    2.363740000000000    0.000000000000000  \
	   4.094120000000000  -12.282400000000001    0.000000000000000  \
	   0.000000000000000    0.000000000000000   40.000000000000000 
lattice-minimize  \
	dirUpdateScheme      L-BFGS \
	linminMethod         DirUpdateRecommended \
	nIterations          0 \
	history              15 \
	knormThreshold       0 \
	energyDiffThreshold  1e-06 \
	nEnergyDiff          2 \
	alphaTstart          1 \
	alphaTmin            1e-10 \
	updateTestStepSize   yes \
	alphaTreduceFactor   0.1 \
	alphaTincreaseFactor 3 \
	nAlphaAdjustMax      3 \
	wolfeEnergy          0.0001 \
	wolfeGradient        0.9 \
	fdTest               no
lcao-params -1 1e-06 1e-05
pcm-variant GLSSA13
spintype z-spin
subspace-rotation-factor 1 yes
symmetries none
symmetry-threshold 0.0001
van-der-waals D3


Applied RMS atom displacement 0 bohrs to make symmetries exact.

---------- Initializing the Grid ----------
R = 
[     -11.8187      2.36374            0  ]
[      4.09412     -12.2824            0  ]
[            0            0           40  ]
unit cell volume = 5419.38
G =
[  -0.569604   -0.10962          0  ]
[  -0.189867    -0.5481          0  ]
[          0          0    0.15708  ]
Minimum fftbox size, Smin = [  52  52  164  ]
Chosen fftbox size, S = [  54  54  168  ]

---------- Exchange Correlation functional ----------
Initalized PBE GGA exchange.
Initalized PBE GGA correlation.

---------- Setting up pseudopotentials ----------
Width of ionic core gaussian charges (only for fluid interactions / plotting) set to 0

Reading pseudopotential file '/home/gridsan/aligho/DFT/build-Nov24/pseudopotentials/SG15/N_ONCV_PBE.upf':
  'N' pseudopotential, 'PBE' functional
  Generated using ONCVPSP code by D. R. Hamann
  Author: Martin Schlipf and Francois Gygi  Date: 150915.
  5 valence electrons, 2 orbitals, 4 projectors, 1058 radial grid points, with lMax = 1
  Transforming local potential to a uniform radial grid of dG=0.02 with 1514 points.
  Transforming nonlocal projectors to a uniform radial grid of dG=0.02 with 432 points.
    2S    l: 0   occupation:  2.0   eigenvalue: -0.682907
    2P    l: 1   occupation:  3.0   eigenvalue: -0.260548
  Transforming atomic orbitals to a uniform radial grid of dG=0.02 with 432 points.
  Core radius for overlap checks: 1.35 bohrs.
  Reading pulay file /home/gridsan/aligho/DFT/build-Nov24/pseudopotentials/SG15/N_ONCV_PBE.pulay ... using dE_dnG = -2.956256e-02 computed for Ecut = 20.

Reading pseudopotential file '/home/gridsan/aligho/DFT/build-Nov24/pseudopotentials/SG15/B_ONCV_PBE.upf':
  'B' pseudopotential, 'PBE' functional
  Generated using ONCVPSP code by D. R. Hamann
  Author: Martin Schlipf and Francois Gygi  Date: 150915.
  3 valence electrons, 2 orbitals, 4 projectors, 1534 radial grid points, with lMax = 1
  Transforming local potential to a uniform radial grid of dG=0.02 with 1514 points.
  Transforming nonlocal projectors to a uniform radial grid of dG=0.02 with 432 points.
    2S    l: 0   occupation:  2.0   eigenvalue: -0.347027
    2P    l: 1   occupation:  1.0   eigenvalue: -0.132548
  Transforming atomic orbitals to a uniform radial grid of dG=0.02 with 432 points.
  Core radius for overlap checks: 1.60 bohrs.
  Reading pulay file /home/gridsan/aligho/DFT/build-Nov24/pseudopotentials/SG15/B_ONCV_PBE.pulay ... using dE_dnG = -3.748568e-04 computed for Ecut = 20.

Reading pseudopotential file '/home/gridsan/aligho/DFT/build-Nov24/pseudopotentials/SG15/Na_ONCV_PBE.upf':
  'Na' pseudopotential, 'PBE' functional
  Generated using ONCVPSP code by D. R. Hamann
  Author: Martin Schlipf and Francois Gygi  Date: 150915.
  9 valence electrons, 3 orbitals, 4 projectors, 1992 radial grid points, with lMax = 1
  Transforming local potential to a uniform radial grid of dG=0.02 with 1514 points.
  Transforming nonlocal projectors to a uniform radial grid of dG=0.02 with 432 points.
    2S    l: 0   occupation:  2.0   eigenvalue: -2.085640
    2P    l: 1   occupation:  6.0   eigenvalue: -1.053708
    3S    l: 0   occupation:  1.0   eigenvalue: -0.100838
  Transforming atomic orbitals to a uniform radial grid of dG=0.02 with 432 points.
  Core radius for overlap checks: 2.01 bohrs.
  Reading pulay file /home/gridsan/aligho/DFT/build-Nov24/pseudopotentials/SG15/Na_ONCV_PBE.pulay ... using dE_dnG = -2.946487e-03 computed for Ecut = 20.

Initialized 3 species with 29 total atoms.

Folded 56 k-points by 1x1x1 to 56 k-points.

---------- Setting up k-points, bands, fillings ----------
No reducable k-points. 
Computing the number of bands and number of electrons
Calculating initial fillings.
nElectrons: 121.000000   nBands: 117   nStates: 112

----- Setting up reduced wavefunction bases (one per k-point) -----
average nbasis = 23160.018 , ideal nbasis = 23152.016

---------- Setting up coulomb interaction ----------
Initialized slab truncation along lattice direction 001

Initializing DFT-D3 calculator:
	Parameters set for gga-PBE functional
	s6:  1.000  s_r6:  1.217
	s8:  0.722  s_r8:  1.000
	Per-atom parameters loaded for:
	 N:  sqrtQ[a0]:  2.712  Rcov[a0]:  1.342  CN: [ 0.00 0.99 2.01 2.99 ]
	 B:  sqrtQ[a0]:  3.644  Rcov[a0]:  1.455  CN: [ 0.00 0.97 1.94 2.91 4.59 ]
	Na:  sqrtQ[a0]:  6.586  Rcov[a0]:  2.646  CN: [ 0.00 0.97 ]

---------- Setting up 2D ewald sum ----------
Optimum gaussian width for ewald sums = 6.943804 bohr.
Real space sums over 289 unit cells with max indices [  8  8  0  ]
Reciprocal space sums over 81 terms with max indices [  4  4  0  ]

Computing DFT-D3 correction:
# coordination-number N 3.151 3.150 3.420 3.151 3.420 3.142 3.142 3.420 3.151 3.420 3.420 3.151 3.150 3.420
# coordination-number B 3.719 3.359 3.359 3.359 3.359 3.719 3.719 3.719 3.359 3.359 3.719 3.719 3.348 3.348
# coordination-number Na 4.205
# diagonal-C6 N 15.61 15.61 15.58 15.61 15.58 15.61 15.61 15.58 15.61 15.58 15.58 15.61 15.61 15.58
# diagonal-C6 B 30.05 31.44 31.44 31.44 31.44 30.05 30.05 30.05 31.44 31.44 30.05 30.05 31.44 31.44
# diagonal-C6 Na 186.11
EvdW_6 =   -0.033484
EvdW_8 =   -0.030399

---------- Allocating electronic variables ----------
Reading n_up from file 'Na-0.247.n_up' ... done
Reading n_dn from file 'Na-0.247.n_dn' ... done
Initializing wave functions:  linear combination of atomic orbitals
[d-17-12-4:53476] 57 more processes have sent help message help-mpi-common-cuda.txt / dlopen failed
[d-17-12-4:53476] Set MCA parameter "orte_base_help_aggregate" to 0 to see all help / error messages
[d-17-12-4:53476] 57 more processes have sent help message help-mpi-btl-openib-cpc-base.txt / no cpcs for port


---- Citations for features of the code used in this run ----

   Software package:
      R. Sundararaman, K. Letchworth-Weaver, K.A. Schwarz, D. Gunceler, Y. Ozhabes and T.A. Arias, 'JDFTx: software for joint density-functional theory', SoftwareX 6, 278 (2017)

   gga-PBE exchange-correlation functional:
      J.P. Perdew, K. Burke and M. Ernzerhof, Phys. Rev. Lett. 77, 3865 (1996)

   Pseudopotentials:
      M Schlipf and F Gygi, Comput. Phys. Commun. 196, 36 (2015)

   Truncated Coulomb potentials:
      R. Sundararaman and T.A. Arias, Phys. Rev. B 87, 165122 (2013)

   DFT-D3 dispersion correction:
      S. Grimme, J. Antony, S. Ehrlich and H. Krieg, J. Chem. Phys. 132, 154104 (2010)

   Total energy minimization with Auxiliary Hamiltonian:
      C. Freysoldt, S. Boeck, and J. Neugebauer, Phys. Rev. B 79, 241103(R) (2009)

This list may not be complete. Please suggest additional citations or
report any other bugs at https://github.com/shankar1729/jdftx/issues

Initialization completed successfully at t[s]:     18.11


----------- Band structure minimization -------------
Minimization will be done independently for each quantum number.

---- Minimization of quantum number:     0  [ +0.0000000 +0.0000000 +0.0000000 ]  0.017857143  spin +1 ----
BandDavidson: Iter:   0  Eband: -0.240027281150535
BandDavidson: Iter:   1  Eband: -0.368729570534553  dEband: -1.287023e-01  t[s]:     29.55
BandDavidson: Iter:   2  Eband: -0.410601755628207  dEband: -4.187219e-02  t[s]:     36.32
BandDavidson: Iter:   3  Eband: -0.425874741231590  dEband: -1.527299e-02  t[s]:     42.92
BandDavidson: Iter:   4  Eband: -0.435222365978654  dEband: -9.347625e-03  t[s]:     49.62
BandDavidson: Iter:   5  Eband: -0.441095663686537  dEband: -5.873298e-03  t[s]:     56.19
BandDavidson: Iter:   6  Eband: -0.445051249894956  dEband: -3.955586e-03  t[s]:     62.77
BandDavidson: Iter:   7  Eband: -0.447706043686979  dEband: -2.654794e-03  t[s]:     69.46
BandDavidson: Iter:   8  Eband: -0.449633447516207  dEband: -1.927404e-03  t[s]:     76.00
BandDavidson: Iter:   9  Eband: -0.451032827957662  dEband: -1.399380e-03  t[s]:     82.54
BandDavidson: Iter:  10  Eband: -0.451946159435633  dEband: -9.133315e-04  t[s]:     89.13
BandDavidson: Iter:  11  Eband: -0.452558092760756  dEband: -6.119333e-04  t[s]:     95.71
BandDavidson: Iter:  12  Eband: -0.452966333602780  dEband: -4.082408e-04  t[s]:    102.27
BandDavidson: Iter:  13  Eband: -0.453249811915638  dEband: -2.834783e-04  t[s]:    108.84
BandDavidson: Iter:  14  Eband: -0.453454403188475  dEband: -2.045913e-04  t[s]:    115.40
BandDavidson: Iter:  15  Eband: -0.453606632353588  dEband: -1.522292e-04  t[s]:    121.85
BandDavidson: Iter:  16  Eband: -0.453721542698414  dEband: -1.149103e-04  t[s]:    128.35
BandDavidson: Iter:  17  Eband: -0.453809478310913  dEband: -8.793561e-05  t[s]:    134.74
BandDavidson: Iter:  18  Eband: -0.453877722383748  dEband: -6.824407e-05  t[s]:    141.16
BandDavidson: Iter:  19  Eband: -0.453930997450803  dEband: -5.327507e-05  t[s]:    147.58
BandDavidson: Iter:  20  Eband: -0.453973040528264  dEband: -4.204308e-05  t[s]:    153.97
BandDavidson: Iter:  21  Eband: -0.454006424764708  dEband: -3.338424e-05  t[s]:    160.24
BandDavidson: Iter:  22  Eband: -0.454033076920762  dEband: -2.665216e-05  t[s]:    166.48
BandDavidson: Iter:  23  Eband: -0.454054488976203  dEband: -2.141206e-05  t[s]:    172.74
BandDavidson: Iter:  24  Eband: -0.454071766870243  dEband: -1.727789e-05  t[s]:    179.01
BandDavidson: Iter:  25  Eband: -0.454085766978151  dEband: -1.400011e-05  t[s]:    185.27
BandDavidson: Iter:  26  Eband: -0.454097125506252  dEband: -1.135853e-05  t[s]:    191.44
BandDavidson: Iter:  27  Eband: -0.454106356286199  dEband: -9.230780e-06  t[s]:    197.49
BandDavidson: Iter:  28  Eband: -0.454113862285256  dEband: -7.505999e-06  t[s]:    203.36
BandDavidson: Iter:  29  Eband: -0.454119983259543  dEband: -6.120974e-06  t[s]:    208.94
BandDavidson: Iter:  30  Eband: -0.454124985659398  dEband: -5.002400e-06  t[s]:    214.34
BandDavidson: Iter:  31  Eband: -0.454129098180870  dEband: -4.112521e-06  t[s]:    219.46
BandDavidson: Iter:  32  Eband: -0.454132479293059  dEband: -3.381112e-06  t[s]:    224.16
BandDavidson: Iter:  33  Eband: -0.454135283383618  dEband: -2.804091e-06  t[s]:    228.82
BandDavidson: Iter:  34  Eband: -0.454137629126617  dEband: -2.345743e-06  t[s]:    233.49
BandDavidson: Iter:  35  Eband: -0.454139604576264  dEband: -1.975450e-06  t[s]:    238.14
BandDavidson: Iter:  36  Eband: -0.454141273232585  dEband: -1.668656e-06  t[s]:    242.76
BandDavidson: Iter:  37  Eband: -0.454142676203188  dEband: -1.402971e-06  t[s]:    246.95
BandDavidson: Iter:  38  Eband: -0.454143854586167  dEband: -1.178383e-06  t[s]:    251.14
BandDavidson: Iter:  39  Eband: -0.454144851795749  dEband: -9.972096e-07  t[s]:    255.28
BandDavidson: Iter:  40  Eband: -0.454145698429522  dEband: -8.466338e-07  t[s]:    259.44
BandDavidson: Iter:  41  Eband: -0.454146418819819  dEband: -7.203903e-07  t[s]:    263.56
BandDavidson: Iter:  42  Eband: -0.454147032400577  dEband: -6.135808e-07  t[s]:    267.77
BandDavidson: Iter:  43  Eband: -0.454147556010595  dEband: -5.236100e-07  t[s]:    271.88
BandDavidson: Iter:  44  Eband: -0.454148002822141  dEband: -4.468115e-07  t[s]:    276.03
BandDavidson: Iter:  45  Eband: -0.454148384707466  dEband: -3.818853e-07  t[s]:    280.13
BandDavidson: Iter:  46  Eband: -0.454148711126196  dEband: -3.264187e-07  t[s]:    284.29
BandDavidson: Iter:  47  Eband: -0.454148989969900  dEband: -2.788437e-07  t[s]:    288.28
BandDavidson: Iter:  48  Eband: -0.454149228148553  dEband: -2.381787e-07  t[s]:    292.32
BandDavidson: Iter:  49  Eband: -0.454149431802703  dEband: -2.036542e-07  t[s]:    296.30
BandDavidson: Iter:  50  Eband: -0.454149605186511  dEband: -1.733838e-07  t[s]:    300.12
BandDavidson: Iter:  51  Eband: -0.454149753024540  dEband: -1.478380e-07  t[s]:    303.92
BandDavidson: Iter:  52  Eband: -0.454149879561669  dEband: -1.265371e-07  t[s]:    307.72
BandDavidson: Iter:  53  Eband: -0.454149987806135  dEband: -1.082445e-07  t[s]:    311.32
BandDavidson: Iter:  54  Eband: -0.454150080064771  dEband: -9.225864e-08  t[s]:    314.83
BandDavidson: Iter:  55  Eband: -0.454150159067495  dEband: -7.900272e-08  t[s]:    318.34
BandDavidson: Iter:  56  Eband: -0.454150226824415  dEband: -6.775692e-08  t[s]:    321.89
BandDavidson: Iter:  57  Eband: -0.454150285101334  dEband: -5.827692e-08  t[s]:    325.39
BandDavidson: Iter:  58  Eband: -0.454150335204246  dEband: -5.010291e-08  t[s]:    328.86
BandDavidson: Iter:  59  Eband: -0.454150378406140  dEband: -4.320189e-08  t[s]:    332.35
BandDavidson: Iter:  60  Eband: -0.454150415626380  dEband: -3.722024e-08  t[s]:    335.82
BandDavidson: Iter:  61  Eband: -0.454150447701853  dEband: -3.207547e-08  t[s]:    339.19
BandDavidson: Iter:  62  Eband: -0.454150475302644  dEband: -2.760079e-08  t[s]:    342.50
BandDavidson: Iter:  63  Eband: -0.454150499118590  dEband: -2.381595e-08  t[s]:    345.82
BandDavidson: Iter:  64  Eband: -0.454150519661400  dEband: -2.054281e-08  t[s]:    349.09
BandDavidson: Iter:  65  Eband: -0.454150537403946  dEband: -1.774255e-08  t[s]:    352.34
BandDavidson: Iter:  66  Eband: -0.454150552727723  dEband: -1.532378e-08  t[s]:    355.59
BandDavidson: Iter:  67  Eband: -0.454150565972421  dEband: -1.324470e-08  t[s]:    358.85
BandDavidson: Iter:  68  Eband: -0.454150577415777  dEband: -1.144336e-08  t[s]:    362.14
BandDavidson: Iter:  69  Eband: -0.454150587307434  dEband: -9.891657e-09  t[s]:    365.40
BandDavidson: Converged (dEband<1.000000e-08)
Setting wave functions to eigenvectors of Hamiltonian
	FillingsUpdate:  mu: -0.073068790  nElectrons: 121.000000  magneticMoment: [ Abs: 0.15519  Tot: +0.15278 ]

Dumping 'Na-bands-0.247.eigenvals' ... done
End date and time: Mon Jan 24 05:21:57 2022  (Duration: 0-0:15:25.39)
Done!
