Second Layer Distance is 0.178

--------------------------------------------------------------------------
The library attempted to open the following supporting CUDA libraries,
but each of them failed.  CUDA-aware support is disabled.
libcuda.so.1: cannot open shared object file: No such file or directory
libcuda.dylib: cannot open shared object file: No such file or directory
/usr/lib64/libcuda.so.1: cannot open shared object file: No such file or directory
/usr/lib64/libcuda.dylib: cannot open shared object file: No such file or directory
If you are not interested in CUDA-aware support, then run with
--mca opal_warn_on_missing_libcuda 0 to suppress this message.  If you are interested
in CUDA-aware support, then try setting LD_LIBRARY_PATH to the location
of libcuda.so.1 to get passed this issue.
--------------------------------------------------------------------------
--------------------------------------------------------------------------
No OpenFabrics connection schemes reported that they were able to be
used on a specific port.  As such, the openib BTL (OpenFabrics
support) will be disabled for this port.

  Local host:           d-17-12-4
  Local device:         mlx5_1
  Local port:           1
  CPCs attempted:       rdmacm, udcm
--------------------------------------------------------------------------

*************** JDFTx 1.6.0 (git hash 42ebbcc2) ***************

Start date and time: Mon Jan 24 04:35:19 2022
Executable jdftx with command-line: -i Moire.bands.in
Running on hosts (process indices):  d-17-12-4 (0-47)  d-17-13-1 (48-57)
Divided in process groups (process indices):  0 (0)  1 (1)  2 (2)  3 (3)  4 (4)  5 (5)  6 (6)  7 (7)  8 (8)  9 (9)  10 (10)  11 (11)  12 (12)  13 (13)  14 (14)  15 (15)  16 (16)  17 (17)  18 (18)  19 (19)  20 (20)  21 (21)  22 (22)  23 (23)  24 (24)  25 (25)  26 (26)  27 (27)  28 (28)  29 (29)  30 (30)  31 (31)  32 (32)  33 (33)  34 (34)  35 (35)  36 (36)  37 (37)  38 (38)  39 (39)  40 (40)  41 (41)  42 (42)  43 (43)  44 (44)  45 (45)  46 (46)  47 (47)  48 (48)  49 (49)  50 (50)  51 (51)  52 (52)  53 (53)  54 (54)  55 (55)  56 (56)  57 (57)
Resource initialization completed at t[s]:      0.04
Run totals: 58 processes, 96 threads, 0 GPUs


Input parsed successfully to the following command list (including defaults):

basis kpoint-dependent
coords-type Lattice
core-overlap-check vector
coulomb-interaction Slab 001
davidson-band-ratio 1.1
dump End BandEigs
dump-name Na-bands-0.178.$VAR
elec-cutoff 20
elec-eigen-algo Davidson
elec-ex-corr gga-PBE
elec-initial-magnetization 0.100000 no
elec-smearing Fermi 1e-05
electronic-minimize  \
	dirUpdateScheme      FletcherReeves \
	linminMethod         DirUpdateRecommended \
	nIterations          10000 \
	history              15 \
	knormThreshold       0 \
	energyDiffThreshold  1e-08 \
	nEnergyDiff          2 \
	alphaTstart          1 \
	alphaTmin            1e-10 \
	updateTestStepSize   yes \
	alphaTreduceFactor   0.1 \
	alphaTincreaseFactor 3 \
	nAlphaAdjustMax      3 \
	wolfeEnergy          0.0001 \
	wolfeGradient        0.9 \
	fdTest               no
exchange-regularization WignerSeitzTruncated
fix-electron-density Na-0.178.$VAR
fluid None
fluid-ex-corr (null) lda-PZ
fluid-gummel-loop 10 1.000000e-05
fluid-minimize  \
	dirUpdateScheme      PolakRibiere \
	linminMethod         DirUpdateRecommended \
	nIterations          100 \
	history              15 \
	knormThreshold       0 \
	energyDiffThreshold  0 \
	nEnergyDiff          2 \
	alphaTstart          1 \
	alphaTmin            1e-10 \
	updateTestStepSize   yes \
	alphaTreduceFactor   0.1 \
	alphaTincreaseFactor 3 \
	nAlphaAdjustMax      3 \
	wolfeEnergy          0.0001 \
	wolfeGradient        0.9 \
	fdTest               no
fluid-solvent H2O 55.338 ScalarEOS \
	epsBulk 78.4 \
	pMol 0.92466 \
	epsInf 1.77 \
	Pvap 1.06736e-10 \
	sigmaBulk 4.62e-05 \
	Rvdw 2.61727 \
	Res 1.42 \
	tauNuc 343133 \
	poleEl 15 7 1
forces-output-coords Positions
ion N   0.952380952380952   0.761904761904762   0.000000000000000 0
ion N   1.428571428571428   1.285714285714286   0.178000000000000 0
ion N   0.380952380952381   0.904761904761905   0.000000000000000 0
ion N   0.714285714285714   1.142857142857143   0.178000000000000 0
ion N   0.523809523809524   0.619047619047619   0.000000000000000 0
ion N   1.000000000000000   1.000000000000000   0.178000000000000 0
ion N   0.666666666666667   0.333333333333333   0.000000000000000 0
ion N   1.285714285714286   0.857142857142857   0.178000000000000 0
ion N   0.809523809523810   0.047619047619048   0.000000000000000 0
ion N   1.571428571428571   0.714285714285714   0.178000000000000 0
ion N   0.095238095238095   0.476190476190476   0.000000000000000 0
ion N   0.238095238095238   0.190476190476190   0.000000000000000 0
ion N   0.857142857142857   0.571428571428571   0.178000000000000 0
ion N   1.142857142857143   0.428571428571429   0.178000000000000 0
ion B   0.571428571428572   0.857142857142857   0.000000000000000 0
ion B   0.952380952380952   1.190476190476190   0.178000000000000 0
ion B   0.714285714285714   0.571428571428571   0.000000000000000 0
ion B   1.238095238095238   1.047619047619047   0.178000000000000 0
ion B   0.857142857142857   0.285714285714286   0.000000000000000 0
ion B   1.523809523809524   0.904761904761905   0.178000000000000 0
ion B   0.142857142857143   0.714285714285714   0.000000000000000 0
ion B   0.285714285714286   0.428571428571429   0.000000000000000 0
ion B   0.809523809523810   0.761904761904762   0.178000000000000 0
ion B   0.428571428571429   0.142857142857143   0.000000000000000 0
ion B   1.095238095238095   0.619047619047619   0.178000000000000 0
ion B   1.380952380952381   0.476190476190476   0.178000000000000 0
ion B   0.000000000000000   0.000000000000000   0.000000000000000 0
ion B   0.666666666666667   0.333333333333333   0.178000000000000 0
ion Na   0.333333333300000   0.666666666600000   0.089000000000000 0
ion-species SG15/$ID_ONCV_PBE.upf
ion-width 0
ionic-minimize  \
	dirUpdateScheme      L-BFGS \
	linminMethod         DirUpdateRecommended \
	nIterations          0 \
	history              15 \
	knormThreshold       0.0001 \
	energyDiffThreshold  1e-06 \
	nEnergyDiff          2 \
	alphaTstart          1 \
	alphaTmin            1e-10 \
	updateTestStepSize   yes \
	alphaTreduceFactor   0.1 \
	alphaTincreaseFactor 3 \
	nAlphaAdjustMax      3 \
	wolfeEnergy          0.0001 \
	wolfeGradient        0.9 \
	fdTest               no
kpoint   0.000000000000   0.000000000000   0.000000000000  0.01785714285714
kpoint   0.029411764706   0.000000000000   0.000000000000  0.01785714285714
kpoint   0.058823529412   0.000000000000   0.000000000000  0.01785714285714
kpoint   0.088235294118   0.000000000000   0.000000000000  0.01785714285714
kpoint   0.117647058824   0.000000000000   0.000000000000  0.01785714285714
kpoint   0.147058823529   0.000000000000   0.000000000000  0.01785714285714
kpoint   0.176470588235   0.000000000000   0.000000000000  0.01785714285714
kpoint   0.205882352941   0.000000000000   0.000000000000  0.01785714285714
kpoint   0.235294117647   0.000000000000   0.000000000000  0.01785714285714
kpoint   0.264705882353   0.000000000000   0.000000000000  0.01785714285714
kpoint   0.294117647059   0.000000000000   0.000000000000  0.01785714285714
kpoint   0.323529411765   0.000000000000   0.000000000000  0.01785714285714
kpoint   0.352941176471   0.000000000000   0.000000000000  0.01785714285714
kpoint   0.382352941176   0.000000000000   0.000000000000  0.01785714285714
kpoint   0.411764705882   0.000000000000   0.000000000000  0.01785714285714
kpoint   0.441176470588   0.000000000000   0.000000000000  0.01785714285714
kpoint   0.470588235294   0.000000000000   0.000000000000  0.01785714285714
kpoint   0.500000000000   0.000000000000   0.000000000000  0.01785714285714
kpoint   0.512820512769  -0.025641025385   0.000000000000  0.01785714285714
kpoint   0.525641025538  -0.051282050769   0.000000000000  0.01785714285714
kpoint   0.538461538308  -0.076923076154   0.000000000000  0.01785714285714
kpoint   0.551282051077  -0.102564101538   0.000000000000  0.01785714285714
kpoint   0.564102563846  -0.128205126923   0.000000000000  0.01785714285714
kpoint   0.576923076615  -0.153846152308   0.000000000000  0.01785714285714
kpoint   0.589743589385  -0.179487177692   0.000000000000  0.01785714285714
kpoint   0.602564102154  -0.205128203077   0.000000000000  0.01785714285714
kpoint   0.615384614923  -0.230769228462   0.000000000000  0.01785714285714
kpoint   0.628205127692  -0.256410253846   0.000000000000  0.01785714285714
kpoint   0.641025640462  -0.282051279231   0.000000000000  0.01785714285714
kpoint   0.653846153231  -0.307692304615   0.000000000000  0.01785714285714
kpoint   0.666666666000  -0.333333330000   0.000000000000  0.01785714285714
kpoint   0.639999999360  -0.319999996800   0.000000000000  0.01785714285714
kpoint   0.613333332720  -0.306666663600   0.000000000000  0.01785714285714
kpoint   0.586666666080  -0.293333330400   0.000000000000  0.01785714285714
kpoint   0.559999999440  -0.279999997200   0.000000000000  0.01785714285714
kpoint   0.533333332800  -0.266666664000   0.000000000000  0.01785714285714
kpoint   0.506666666160  -0.253333330800   0.000000000000  0.01785714285714
kpoint   0.479999999520  -0.239999997600   0.000000000000  0.01785714285714
kpoint   0.453333332880  -0.226666664400   0.000000000000  0.01785714285714
kpoint   0.426666666240  -0.213333331200   0.000000000000  0.01785714285714
kpoint   0.399999999600  -0.199999998000   0.000000000000  0.01785714285714
kpoint   0.373333332960  -0.186666664800   0.000000000000  0.01785714285714
kpoint   0.346666666320  -0.173333331600   0.000000000000  0.01785714285714
kpoint   0.319999999680  -0.159999998400   0.000000000000  0.01785714285714
kpoint   0.293333333040  -0.146666665200   0.000000000000  0.01785714285714
kpoint   0.266666666400  -0.133333332000   0.000000000000  0.01785714285714
kpoint   0.239999999760  -0.119999998800   0.000000000000  0.01785714285714
kpoint   0.213333333120  -0.106666665600   0.000000000000  0.01785714285714
kpoint   0.186666666480  -0.093333332400   0.000000000000  0.01785714285714
kpoint   0.159999999840  -0.079999999200   0.000000000000  0.01785714285714
kpoint   0.133333333200  -0.066666666000   0.000000000000  0.01785714285714
kpoint   0.106666666560  -0.053333332800   0.000000000000  0.01785714285714
kpoint   0.079999999920  -0.039999999600   0.000000000000  0.01785714285714
kpoint   0.053333333280  -0.026666666400   0.000000000000  0.01785714285714
kpoint   0.026666666640  -0.013333333200   0.000000000000  0.01785714285714
kpoint   0.000000000000   0.000000000000   0.000000000000  0.01785714285714
kpoint-folding 1 1 1 
latt-move-scale 1 1 1
latt-scale 1 1 1 
lattice  \
	 -11.818700000000000    2.363740000000000    0.000000000000000  \
	   4.094120000000000  -12.282400000000001    0.000000000000000  \
	   0.000000000000000    0.000000000000000   40.000000000000000 
lattice-minimize  \
	dirUpdateScheme      L-BFGS \
	linminMethod         DirUpdateRecommended \
	nIterations          0 \
	history              15 \
	knormThreshold       0 \
	energyDiffThreshold  1e-06 \
	nEnergyDiff          2 \
	alphaTstart          1 \
	alphaTmin            1e-10 \
	updateTestStepSize   yes \
	alphaTreduceFactor   0.1 \
	alphaTincreaseFactor 3 \
	nAlphaAdjustMax      3 \
	wolfeEnergy          0.0001 \
	wolfeGradient        0.9 \
	fdTest               no
lcao-params -1 1e-06 1e-05
pcm-variant GLSSA13
spintype z-spin
subspace-rotation-factor 1 yes
symmetries none
symmetry-threshold 0.0001
van-der-waals D3


Applied RMS atom displacement 0 bohrs to make symmetries exact.

---------- Initializing the Grid ----------
R = 
[     -11.8187      2.36374            0  ]
[      4.09412     -12.2824            0  ]
[            0            0           40  ]
unit cell volume = 5419.38
G =
[  -0.569604   -0.10962          0  ]
[  -0.189867    -0.5481          0  ]
[          0          0    0.15708  ]
Minimum fftbox size, Smin = [  52  52  164  ]
Chosen fftbox size, S = [  54  54  168  ]

---------- Exchange Correlation functional ----------
Initalized PBE GGA exchange.
Initalized PBE GGA correlation.

---------- Setting up pseudopotentials ----------
Width of ionic core gaussian charges (only for fluid interactions / plotting) set to 0

Reading pseudopotential file '/home/gridsan/aligho/DFT/build-Nov24/pseudopotentials/SG15/N_ONCV_PBE.upf':
  'N' pseudopotential, 'PBE' functional
  Generated using ONCVPSP code by D. R. Hamann
  Author: Martin Schlipf and Francois Gygi  Date: 150915.
  5 valence electrons, 2 orbitals, 4 projectors, 1058 radial grid points, with lMax = 1
  Transforming local potential to a uniform radial grid of dG=0.02 with 1514 points.
  Transforming nonlocal projectors to a uniform radial grid of dG=0.02 with 432 points.
    2S    l: 0   occupation:  2.0   eigenvalue: -0.682907
    2P    l: 1   occupation:  3.0   eigenvalue: -0.260548
  Transforming atomic orbitals to a uniform radial grid of dG=0.02 with 432 points.
  Core radius for overlap checks: 1.35 bohrs.
  Reading pulay file /home/gridsan/aligho/DFT/build-Nov24/pseudopotentials/SG15/N_ONCV_PBE.pulay ... using dE_dnG = -2.956256e-02 computed for Ecut = 20.

Reading pseudopotential file '/home/gridsan/aligho/DFT/build-Nov24/pseudopotentials/SG15/B_ONCV_PBE.upf':
  'B' pseudopotential, 'PBE' functional
  Generated using ONCVPSP code by D. R. Hamann
  Author: Martin Schlipf and Francois Gygi  Date: 150915.
  3 valence electrons, 2 orbitals, 4 projectors, 1534 radial grid points, with lMax = 1
  Transforming local potential to a uniform radial grid of dG=0.02 with 1514 points.
  Transforming nonlocal projectors to a uniform radial grid of dG=0.02 with 432 points.
    2S    l: 0   occupation:  2.0   eigenvalue: -0.347027
    2P    l: 1   occupation:  1.0   eigenvalue: -0.132548
  Transforming atomic orbitals to a uniform radial grid of dG=0.02 with 432 points.
  Core radius for overlap checks: 1.60 bohrs.
  Reading pulay file /home/gridsan/aligho/DFT/build-Nov24/pseudopotentials/SG15/B_ONCV_PBE.pulay ... using dE_dnG = -3.748568e-04 computed for Ecut = 20.

Reading pseudopotential file '/home/gridsan/aligho/DFT/build-Nov24/pseudopotentials/SG15/Na_ONCV_PBE.upf':
  'Na' pseudopotential, 'PBE' functional
  Generated using ONCVPSP code by D. R. Hamann
  Author: Martin Schlipf and Francois Gygi  Date: 150915.
  9 valence electrons, 3 orbitals, 4 projectors, 1992 radial grid points, with lMax = 1
  Transforming local potential to a uniform radial grid of dG=0.02 with 1514 points.
  Transforming nonlocal projectors to a uniform radial grid of dG=0.02 with 432 points.
    2S    l: 0   occupation:  2.0   eigenvalue: -2.085640
    2P    l: 1   occupation:  6.0   eigenvalue: -1.053708
    3S    l: 0   occupation:  1.0   eigenvalue: -0.100838
  Transforming atomic orbitals to a uniform radial grid of dG=0.02 with 432 points.
  Core radius for overlap checks: 2.01 bohrs.
  Reading pulay file /home/gridsan/aligho/DFT/build-Nov24/pseudopotentials/SG15/Na_ONCV_PBE.pulay ... using dE_dnG = -2.946487e-03 computed for Ecut = 20.

Initialized 3 species with 29 total atoms.

Folded 56 k-points by 1x1x1 to 56 k-points.

---------- Setting up k-points, bands, fillings ----------
No reducable k-points. 
Computing the number of bands and number of electrons
Calculating initial fillings.
nElectrons: 121.000000   nBands: 117   nStates: 112

----- Setting up reduced wavefunction bases (one per k-point) -----
average nbasis = 23160.018 , ideal nbasis = 23152.016

---------- Setting up coulomb interaction ----------
Initialized slab truncation along lattice direction 001

Initializing DFT-D3 calculator:
	Parameters set for gga-PBE functional
	s6:  1.000  s_r6:  1.217
	s8:  0.722  s_r8:  1.000
	Per-atom parameters loaded for:
	 N:  sqrtQ[a0]:  2.712  Rcov[a0]:  1.342  CN: [ 0.00 0.99 2.01 2.99 ]
	 B:  sqrtQ[a0]:  3.644  Rcov[a0]:  1.455  CN: [ 0.00 0.97 1.94 2.91 4.59 ]
	Na:  sqrtQ[a0]:  6.586  Rcov[a0]:  2.646  CN: [ 0.00 0.97 ]

---------- Setting up 2D ewald sum ----------
Optimum gaussian width for ewald sums = 6.943804 bohr.
Real space sums over 289 unit cells with max indices [  8  8  0  ]
Reciprocal space sums over 81 terms with max indices [  4  4  0  ]

Computing DFT-D3 correction:
# coordination-number N 3.193 3.193 4.090 3.193 4.090 3.152 3.152 4.090 3.193 4.090 4.090 3.193 3.193 4.090
# coordination-number B 4.315 3.420 3.420 3.420 3.420 4.315 4.315 4.315 3.420 3.420 4.315 4.315 3.361 3.361
# coordination-number Na 12.402
# diagonal-C6 N 15.60 15.60 15.58 15.60 15.58 15.61 15.61 15.58 15.60 15.58 15.58 15.60 15.60 15.58
# diagonal-C6 B 28.03 31.41 31.41 31.41 31.41 28.03 28.03 28.03 31.41 31.41 28.03 28.03 31.44 31.44
# diagonal-C6 Na 186.11
EvdW_6 =   -0.041974
EvdW_8 =   -0.034372

---------- Allocating electronic variables ----------
Reading n_up from file 'Na-0.178.n_up' ... done
Reading n_dn from file 'Na-0.178.n_dn' ... done
Initializing wave functions:  linear combination of atomic orbitals
[d-17-12-4:51961] 57 more processes have sent help message help-mpi-common-cuda.txt / dlopen failed
[d-17-12-4:51961] Set MCA parameter "orte_base_help_aggregate" to 0 to see all help / error messages
[d-17-12-4:51961] 57 more processes have sent help message help-mpi-btl-openib-cpc-base.txt / no cpcs for port


---- Citations for features of the code used in this run ----

   Software package:
      R. Sundararaman, K. Letchworth-Weaver, K.A. Schwarz, D. Gunceler, Y. Ozhabes and T.A. Arias, 'JDFTx: software for joint density-functional theory', SoftwareX 6, 278 (2017)

   gga-PBE exchange-correlation functional:
      J.P. Perdew, K. Burke and M. Ernzerhof, Phys. Rev. Lett. 77, 3865 (1996)

   Pseudopotentials:
      M Schlipf and F Gygi, Comput. Phys. Commun. 196, 36 (2015)

   Truncated Coulomb potentials:
      R. Sundararaman and T.A. Arias, Phys. Rev. B 87, 165122 (2013)

   DFT-D3 dispersion correction:
      S. Grimme, J. Antony, S. Ehrlich and H. Krieg, J. Chem. Phys. 132, 154104 (2010)

   Total energy minimization with Auxiliary Hamiltonian:
      C. Freysoldt, S. Boeck, and J. Neugebauer, Phys. Rev. B 79, 241103(R) (2009)

This list may not be complete. Please suggest additional citations or
report any other bugs at https://github.com/shankar1729/jdftx/issues

Initialization completed successfully at t[s]:     17.72


----------- Band structure minimization -------------
Minimization will be done independently for each quantum number.

---- Minimization of quantum number:     0  [ +0.0000000 +0.0000000 +0.0000000 ]  0.017857143  spin +1 ----
BandDavidson: Iter:   0  Eband: -0.230103947042146
BandDavidson: Iter:   1  Eband: -0.351716581322621  dEband: -1.216126e-01  t[s]:     29.30
BandDavidson: Iter:   2  Eband: -0.395609470517721  dEband: -4.389289e-02  t[s]:     35.83
BandDavidson: Iter:   3  Eband: -0.413075254553942  dEband: -1.746578e-02  t[s]:     42.48
BandDavidson: Iter:   4  Eband: -0.426749943455403  dEband: -1.367469e-02  t[s]:     49.00
BandDavidson: Iter:   5  Eband: -0.431598374082213  dEband: -4.848431e-03  t[s]:     55.47
BandDavidson: Iter:   6  Eband: -0.434384023001626  dEband: -2.785649e-03  t[s]:     61.93
BandDavidson: Iter:   7  Eband: -0.436271773968816  dEband: -1.887751e-03  t[s]:     68.53
BandDavidson: Iter:   8  Eband: -0.437456454633338  dEband: -1.184681e-03  t[s]:     75.06
BandDavidson: Iter:   9  Eband: -0.438318647794648  dEband: -8.621932e-04  t[s]:     81.57
BandDavidson: Iter:  10  Eband: -0.438983212651217  dEband: -6.645649e-04  t[s]:     88.11
BandDavidson: Iter:  11  Eband: -0.439506384147367  dEband: -5.231715e-04  t[s]:     94.61
BandDavidson: Iter:  12  Eband: -0.439898893807546  dEband: -3.925097e-04  t[s]:    101.10
BandDavidson: Iter:  13  Eband: -0.440194570131255  dEband: -2.956763e-04  t[s]:    107.61
BandDavidson: Iter:  14  Eband: -0.440421213827698  dEband: -2.266437e-04  t[s]:    114.11
BandDavidson: Iter:  15  Eband: -0.440594943787544  dEband: -1.737300e-04  t[s]:    120.58
BandDavidson: Iter:  16  Eband: -0.440729462529401  dEband: -1.345187e-04  t[s]:    127.10
BandDavidson: Iter:  17  Eband: -0.440833378828273  dEband: -1.039163e-04  t[s]:    133.57
BandDavidson: Iter:  18  Eband: -0.440913772875270  dEband: -8.039405e-05  t[s]:    139.94
BandDavidson: Iter:  19  Eband: -0.440976002259495  dEband: -6.222938e-05  t[s]:    146.29
BandDavidson: Iter:  20  Eband: -0.441024724766927  dEband: -4.872251e-05  t[s]:    152.65
BandDavidson: Iter:  21  Eband: -0.441063010709182  dEband: -3.828594e-05  t[s]:    159.02
BandDavidson: Iter:  22  Eband: -0.441093212223338  dEband: -3.020151e-05  t[s]:    165.35
BandDavidson: Iter:  23  Eband: -0.441117095916107  dEband: -2.388369e-05  t[s]:    171.56
BandDavidson: Iter:  24  Eband: -0.441136077189998  dEband: -1.898127e-05  t[s]:    177.79
BandDavidson: Iter:  25  Eband: -0.441151338738475  dEband: -1.526155e-05  t[s]:    184.01
BandDavidson: Iter:  26  Eband: -0.441163631288384  dEband: -1.229255e-05  t[s]:    190.22
BandDavidson: Iter:  27  Eband: -0.441173538325140  dEband: -9.907037e-06  t[s]:    196.35
BandDavidson: Iter:  28  Eband: -0.441181486910436  dEband: -7.948585e-06  t[s]:    202.18
BandDavidson: Iter:  29  Eband: -0.441187866969079  dEband: -6.380059e-06  t[s]:    207.76
BandDavidson: Iter:  30  Eband: -0.441192989304515  dEband: -5.122335e-06  t[s]:    212.91
BandDavidson: Iter:  31  Eband: -0.441197123341181  dEband: -4.134037e-06  t[s]:    217.65
BandDavidson: Iter:  32  Eband: -0.441200473633682  dEband: -3.350293e-06  t[s]:    222.36
BandDavidson: Iter:  33  Eband: -0.441203234419928  dEband: -2.760786e-06  t[s]:    227.04
BandDavidson: Iter:  34  Eband: -0.441205524680118  dEband: -2.290260e-06  t[s]:    231.71
BandDavidson: Iter:  35  Eband: -0.441207430123010  dEband: -1.905443e-06  t[s]:    236.30
BandDavidson: Iter:  36  Eband: -0.441209018206365  dEband: -1.588083e-06  t[s]:    240.77
BandDavidson: Iter:  37  Eband: -0.441210326667338  dEband: -1.308461e-06  t[s]:    245.07
BandDavidson: Iter:  38  Eband: -0.441211403410266  dEband: -1.076743e-06  t[s]:    249.30
BandDavidson: Iter:  39  Eband: -0.441212304239782  dEband: -9.008295e-07  t[s]:    253.48
BandDavidson: Iter:  40  Eband: -0.441213062074978  dEband: -7.578352e-07  t[s]:    257.72
BandDavidson: Iter:  41  Eband: -0.441213702714286  dEband: -6.406393e-07  t[s]:    261.93
BandDavidson: Iter:  42  Eband: -0.441214244840513  dEband: -5.421262e-07  t[s]:    266.07
BandDavidson: Iter:  43  Eband: -0.441214704943404  dEband: -4.601029e-07  t[s]:    270.30
BandDavidson: Iter:  44  Eband: -0.441215095568964  dEband: -3.906256e-07  t[s]:    274.47
BandDavidson: Iter:  45  Eband: -0.441215426937214  dEband: -3.313683e-07  t[s]:    278.51
BandDavidson: Iter:  46  Eband: -0.441215708130251  dEband: -2.811930e-07  t[s]:    282.48
BandDavidson: Iter:  47  Eband: -0.441215946446119  dEband: -2.383159e-07  t[s]:    286.43
BandDavidson: Iter:  48  Eband: -0.441216148844108  dEband: -2.023980e-07  t[s]:    290.20
BandDavidson: Iter:  49  Eband: -0.441216320447717  dEband: -1.716036e-07  t[s]:    293.98
BandDavidson: Iter:  50  Eband: -0.441216466354576  dEband: -1.459069e-07  t[s]:    297.71
BandDavidson: Iter:  51  Eband: -0.441216590086809  dEband: -1.237322e-07  t[s]:    301.31
BandDavidson: Iter:  52  Eband: -0.441216695253407  dEband: -1.051666e-07  t[s]:    304.86
BandDavidson: Iter:  53  Eband: -0.441216784891170  dEband: -8.963776e-08  t[s]:    308.41
BandDavidson: Iter:  54  Eband: -0.441216861506137  dEband: -7.661497e-08  t[s]:    311.96
BandDavidson: Iter:  55  Eband: -0.441216927109164  dEband: -6.560303e-08  t[s]:    315.51
BandDavidson: Iter:  56  Eband: -0.441216983359025  dEband: -5.624986e-08  t[s]:    319.09
BandDavidson: Iter:  57  Eband: -0.441217031589169  dEband: -4.823014e-08  t[s]:    322.66
BandDavidson: Iter:  58  Eband: -0.441217072997685  dEband: -4.140852e-08  t[s]:    326.22
BandDavidson: Iter:  59  Eband: -0.441217108521953  dEband: -3.552427e-08  t[s]:    329.72
BandDavidson: Iter:  60  Eband: -0.441217139043132  dEband: -3.052118e-08  t[s]:    333.20
BandDavidson: Iter:  61  Eband: -0.441217165241854  dEband: -2.619872e-08  t[s]:    336.59
BandDavidson: Iter:  62  Eband: -0.441217187738416  dEband: -2.249656e-08  t[s]:    339.91
BandDavidson: Iter:  63  Eband: -0.441217207014245  dEband: -1.927583e-08  t[s]:    343.21
BandDavidson: Iter:  64  Eband: -0.441217223581162  dEband: -1.656692e-08  t[s]:    346.52
BandDavidson: Iter:  65  Eband: -0.441217237827170  dEband: -1.424601e-08  t[s]:    349.81
BandDavidson: Iter:  66  Eband: -0.441217250091698  dEband: -1.226453e-08  t[s]:    353.14
BandDavidson: Iter:  67  Eband: -0.441217260651410  dEband: -1.055971e-08  t[s]:    356.41
BandDavidson: Iter:  68  Eband: -0.441217269744445  dEband: -9.093035e-09  t[s]:    359.70
BandDavidson: Converged (dEband<1.000000e-08)
Setting wave functions to eigenvectors of Hamiltonian
	FillingsUpdate:  mu: -0.059127038  nElectrons: 121.000000  magneticMoment: [ Abs: 1.26648  Tot: +1.00000 ]

Dumping 'Na-bands-0.178.eigenvals' ... done
End date and time: Mon Jan 24 04:49:24 2022  (Duration: 0-0:14:05.16)
Done!
