Second Layer Distance is 0.343

--------------------------------------------------------------------------
The library attempted to open the following supporting CUDA libraries,
but each of them failed.  CUDA-aware support is disabled.
libcuda.so.1: cannot open shared object file: No such file or directory
libcuda.dylib: cannot open shared object file: No such file or directory
/usr/lib64/libcuda.so.1: cannot open shared object file: No such file or directory
/usr/lib64/libcuda.dylib: cannot open shared object file: No such file or directory
If you are not interested in CUDA-aware support, then run with
--mca opal_warn_on_missing_libcuda 0 to suppress this message.  If you are interested
in CUDA-aware support, then try setting LD_LIBRARY_PATH to the location
of libcuda.so.1 to get passed this issue.
--------------------------------------------------------------------------
--------------------------------------------------------------------------
No OpenFabrics connection schemes reported that they were able to be
used on a specific port.  As such, the openib BTL (OpenFabrics
support) will be disabled for this port.

  Local host:           d-16-5-4
  Local device:         mlx5_1
  Local port:           1
  CPCs attempted:       rdmacm, udcm
--------------------------------------------------------------------------

*************** JDFTx 1.6.0 (git hash 42ebbcc2) ***************

Start date and time: Wed Jan 19 20:53:26 2022
Executable jdftx with command-line: -i Moire.in
Running on hosts (process indices):  d-16-5-4 (0-18)
Divided in process groups (process indices):  0 (0)  1 (1)  2 (2)  3 (3)  4 (4)  5 (5)  6 (6)  7 (7)  8 (8)  9 (9)  10 (10)  11 (11)  12 (12)  13 (13)  14 (14)  15 (15)  16 (16)  17 (17)  18 (18)
Resource initialization completed at t[s]:      0.00
Run totals: 19 processes, 48 threads, 0 GPUs


Input parsed successfully to the following command list (including defaults):

basis kpoint-dependent
coords-type Lattice
core-overlap-check vector
coulomb-interaction Slab 001
davidson-band-ratio 1.1
dump End State ElecDensity BandEigs
dump-name Na-0.343.$VAR
elec-cutoff 20
elec-eigen-algo Davidson
elec-ex-corr gga-PBE
elec-initial-magnetization 0.100000 no
elec-smearing Fermi 1e-05
electronic-minimize  \
	dirUpdateScheme      FletcherReeves \
	linminMethod         DirUpdateRecommended \
	nIterations          100 \
	history              15 \
	knormThreshold       0 \
	energyDiffThreshold  1e-08 \
	nEnergyDiff          2 \
	alphaTstart          1 \
	alphaTmin            1e-10 \
	updateTestStepSize   yes \
	alphaTreduceFactor   0.1 \
	alphaTincreaseFactor 3 \
	nAlphaAdjustMax      3 \
	wolfeEnergy          0.0001 \
	wolfeGradient        0.9 \
	fdTest               no
electronic-scf  \
	nIterations	1000 \
	energyDiffThreshold	1e-08 \
	residualThreshold	1e-07 \
	mixFraction	0.5 \
	qMetric	0.8 \
	history	10 \
	nEigSteps	2 \
	eigDiffThreshold	1e-08 \
	mixedVariable	Density \
	qKerker	0.8 \
	qKappa	-1 \
	verbose	no \
	mixFractionMag	1.5
exchange-regularization WignerSeitzTruncated
fluid None
fluid-ex-corr (null) lda-PZ
fluid-gummel-loop 10 1.000000e-05
fluid-minimize  \
	dirUpdateScheme      PolakRibiere \
	linminMethod         DirUpdateRecommended \
	nIterations          100 \
	history              15 \
	knormThreshold       0 \
	energyDiffThreshold  0 \
	nEnergyDiff          2 \
	alphaTstart          1 \
	alphaTmin            1e-10 \
	updateTestStepSize   yes \
	alphaTreduceFactor   0.1 \
	alphaTincreaseFactor 3 \
	nAlphaAdjustMax      3 \
	wolfeEnergy          0.0001 \
	wolfeGradient        0.9 \
	fdTest               no
fluid-solvent H2O 55.338 ScalarEOS \
	epsBulk 78.4 \
	pMol 0.92466 \
	epsInf 1.77 \
	Pvap 1.06736e-10 \
	sigmaBulk 4.62e-05 \
	Rvdw 2.61727 \
	Res 1.42 \
	tauNuc 343133 \
	poleEl 15 7 1
forces-output-coords Positions
ion N   0.952380952380952   0.761904761904762   0.000000000000000 0
ion N   1.428571428571428   1.285714285714286   0.343000000000000 0
ion N   0.380952380952381   0.904761904761905   0.000000000000000 0
ion N   0.714285714285714   1.142857142857143   0.343000000000000 0
ion N   0.523809523809524   0.619047619047619   0.000000000000000 0
ion N   1.000000000000000   1.000000000000000   0.343000000000000 0
ion N   0.666666666666667   0.333333333333333   0.000000000000000 0
ion N   1.285714285714286   0.857142857142857   0.343000000000000 0
ion N   0.809523809523810   0.047619047619048   0.000000000000000 0
ion N   1.571428571428571   0.714285714285714   0.343000000000000 0
ion N   0.095238095238095   0.476190476190476   0.000000000000000 0
ion N   0.238095238095238   0.190476190476190   0.000000000000000 0
ion N   0.857142857142857   0.571428571428571   0.343000000000000 0
ion N   1.142857142857143   0.428571428571429   0.343000000000000 0
ion B   0.571428571428572   0.857142857142857   0.000000000000000 0
ion B   0.952380952380952   1.190476190476190   0.343000000000000 0
ion B   0.714285714285714   0.571428571428571   0.000000000000000 0
ion B   1.238095238095238   1.047619047619047   0.343000000000000 0
ion B   0.857142857142857   0.285714285714286   0.000000000000000 0
ion B   1.523809523809524   0.904761904761905   0.343000000000000 0
ion B   0.142857142857143   0.714285714285714   0.000000000000000 0
ion B   0.285714285714286   0.428571428571429   0.000000000000000 0
ion B   0.809523809523810   0.761904761904762   0.343000000000000 0
ion B   0.428571428571429   0.142857142857143   0.000000000000000 0
ion B   1.095238095238095   0.619047619047619   0.343000000000000 0
ion B   1.380952380952381   0.476190476190476   0.343000000000000 0
ion B   0.000000000000000   0.000000000000000   0.000000000000000 0
ion B   0.666666666666667   0.333333333333333   0.343000000000000 0
ion Na   0.333333333300000   0.666666666600000   0.171500000000000 0
ion-species SG15/$ID_ONCV_PBE.upf
ion-width 0
ionic-minimize  \
	dirUpdateScheme      L-BFGS \
	linminMethod         DirUpdateRecommended \
	nIterations          0 \
	history              15 \
	knormThreshold       0.0001 \
	energyDiffThreshold  1e-06 \
	nEnergyDiff          2 \
	alphaTstart          1 \
	alphaTmin            1e-10 \
	updateTestStepSize   yes \
	alphaTreduceFactor   0.1 \
	alphaTincreaseFactor 3 \
	nAlphaAdjustMax      3 \
	wolfeEnergy          0.0001 \
	wolfeGradient        0.9 \
	fdTest               no
kpoint   0.000000000000   0.000000000000   0.000000000000  1.00000000000000
kpoint-folding 12 12 1 
latt-move-scale 1 1 1
latt-scale 1 1 1 
lattice  \
	 -11.818700000000000    2.363740000000000    0.000000000000000  \
	   4.094120000000000  -12.282400000000001    0.000000000000000  \
	   0.000000000000000    0.000000000000000   40.000000000000000 
lattice-minimize  \
	dirUpdateScheme      L-BFGS \
	linminMethod         DirUpdateRecommended \
	nIterations          0 \
	history              15 \
	knormThreshold       0 \
	energyDiffThreshold  1e-06 \
	nEnergyDiff          2 \
	alphaTstart          1 \
	alphaTmin            1e-10 \
	updateTestStepSize   yes \
	alphaTreduceFactor   0.1 \
	alphaTincreaseFactor 3 \
	nAlphaAdjustMax      3 \
	wolfeEnergy          0.0001 \
	wolfeGradient        0.9 \
	fdTest               no
lcao-params -1 1e-06 1e-05
pcm-variant GLSSA13
spintype z-spin
subspace-rotation-factor 1 yes
symmetries automatic
symmetry-threshold 0.0001
van-der-waals D3



---------- Setting up symmetries ----------

Found 24 point-group symmetries of the bravais lattice
Found 6 space-group symmetries with basis
Applied RMS atom displacement 1.31765e-10 bohrs to make symmetries exact.

---------- Initializing the Grid ----------
R = 
[     -11.8187      2.36374            0  ]
[      4.09412     -12.2824            0  ]
[            0            0           40  ]
unit cell volume = 5419.38
G =
[  -0.569604   -0.10962          0  ]
[  -0.189867    -0.5481          0  ]
[          0          0    0.15708  ]
Minimum fftbox size, Smin = [  52  52  164  ]
Chosen fftbox size, S = [  54  54  168  ]

---------- Exchange Correlation functional ----------
Initalized PBE GGA exchange.
Initalized PBE GGA correlation.

---------- Setting up pseudopotentials ----------
Width of ionic core gaussian charges (only for fluid interactions / plotting) set to 0

Reading pseudopotential file '/home/gridsan/aligho/DFT/build-Nov24/pseudopotentials/SG15/N_ONCV_PBE.upf':
  'N' pseudopotential, 'PBE' functional
  Generated using ONCVPSP code by D. R. Hamann
  Author: Martin Schlipf and Francois Gygi  Date: 150915.
  5 valence electrons, 2 orbitals, 4 projectors, 1058 radial grid points, with lMax = 1
  Transforming local potential to a uniform radial grid of dG=0.02 with 1514 points.
  Transforming nonlocal projectors to a uniform radial grid of dG=0.02 with 432 points.
    2S    l: 0   occupation:  2.0   eigenvalue: -0.682907
    2P    l: 1   occupation:  3.0   eigenvalue: -0.260548
  Transforming atomic orbitals to a uniform radial grid of dG=0.02 with 432 points.
  Core radius for overlap checks: 1.35 bohrs.
  Reading pulay file /home/gridsan/aligho/DFT/build-Nov24/pseudopotentials/SG15/N_ONCV_PBE.pulay ... using dE_dnG = -2.956256e-02 computed for Ecut = 20.

Reading pseudopotential file '/home/gridsan/aligho/DFT/build-Nov24/pseudopotentials/SG15/B_ONCV_PBE.upf':
  'B' pseudopotential, 'PBE' functional
  Generated using ONCVPSP code by D. R. Hamann
  Author: Martin Schlipf and Francois Gygi  Date: 150915.
  3 valence electrons, 2 orbitals, 4 projectors, 1534 radial grid points, with lMax = 1
  Transforming local potential to a uniform radial grid of dG=0.02 with 1514 points.
  Transforming nonlocal projectors to a uniform radial grid of dG=0.02 with 432 points.
    2S    l: 0   occupation:  2.0   eigenvalue: -0.347027
    2P    l: 1   occupation:  1.0   eigenvalue: -0.132548
  Transforming atomic orbitals to a uniform radial grid of dG=0.02 with 432 points.
  Core radius for overlap checks: 1.60 bohrs.
  Reading pulay file /home/gridsan/aligho/DFT/build-Nov24/pseudopotentials/SG15/B_ONCV_PBE.pulay ... using dE_dnG = -3.748568e-04 computed for Ecut = 20.

Reading pseudopotential file '/home/gridsan/aligho/DFT/build-Nov24/pseudopotentials/SG15/Na_ONCV_PBE.upf':
  'Na' pseudopotential, 'PBE' functional
  Generated using ONCVPSP code by D. R. Hamann
  Author: Martin Schlipf and Francois Gygi  Date: 150915.
  9 valence electrons, 3 orbitals, 4 projectors, 1992 radial grid points, with lMax = 1
  Transforming local potential to a uniform radial grid of dG=0.02 with 1514 points.
  Transforming nonlocal projectors to a uniform radial grid of dG=0.02 with 432 points.
    2S    l: 0   occupation:  2.0   eigenvalue: -2.085640
    2P    l: 1   occupation:  6.0   eigenvalue: -1.053708
    3S    l: 0   occupation:  1.0   eigenvalue: -0.100838
  Transforming atomic orbitals to a uniform radial grid of dG=0.02 with 432 points.
  Core radius for overlap checks: 2.01 bohrs.
  Reading pulay file /home/gridsan/aligho/DFT/build-Nov24/pseudopotentials/SG15/Na_ONCV_PBE.pulay ... using dE_dnG = -2.946487e-03 computed for Ecut = 20.

Initialized 3 species with 29 total atoms.

Folded 1 k-points by 12x12x1 to 144 k-points.

---------- Setting up k-points, bands, fillings ----------
Adding inversion symmetry to k-mesh for non-inversion-symmetric unit cell.
Reduced to 19 k-points under symmetry. 
Computing the number of bands and number of electrons
Calculating initial fillings.
nElectrons: 121.000000   nBands: 117   nStates: 38

----- Setting up reduced wavefunction bases (one per k-point) -----
average nbasis = 23151.771 , ideal nbasis = 23152.016

---------- Setting up coulomb interaction ----------
Initialized slab truncation along lattice direction 001

Initializing DFT-D3 calculator:
	Parameters set for gga-PBE functional
	s6:  1.000  s_r6:  1.217
	s8:  0.722  s_r8:  1.000
	Per-atom parameters loaded for:
	 N:  sqrtQ[a0]:  2.712  Rcov[a0]:  1.342  CN: [ 0.00 0.99 2.01 2.99 ]
	 B:  sqrtQ[a0]:  3.644  Rcov[a0]:  1.455  CN: [ 0.00 0.97 1.94 2.91 4.59 ]
	Na:  sqrtQ[a0]:  6.586  Rcov[a0]:  2.646  CN: [ 0.00 0.97 ]

---------- Setting up 2D ewald sum ----------
Optimum gaussian width for ewald sums = 6.943804 bohr.
Real space sums over 289 unit cells with max indices [  8  8  0  ]
Reciprocal space sums over 81 terms with max indices [  4  4  0  ]

Computing DFT-D3 correction:
# coordination-number N 3.139 3.139 3.148 3.139 3.148 3.138 3.138 3.148 3.139 3.148 3.148 3.139 3.139 3.148
# coordination-number B 3.356 3.343 3.343 3.343 3.343 3.356 3.356 3.356 3.343 3.343 3.356 3.356 3.342 3.342
# coordination-number Na 0.218
# diagonal-C6 N 15.61 15.61 15.61 15.61 15.61 15.61 15.61 15.61 15.61 15.61 15.61 15.61 15.61 15.61
# diagonal-C6 B 31.44 31.44 31.44 31.44 31.44 31.44 31.44 31.44 31.44 31.44 31.44 31.44 31.44 31.44
# diagonal-C6 Na 1369.12
EvdW_6 =   -0.031105
EvdW_8 =   -0.028786

---------- Allocating electronic variables ----------
Initializing wave functions:  linear combination of atomic orbitals
N pseudo-atom occupations:   s ( 2 )  p ( 3 )
[d-16-5-4:42618] 18 more processes have sent help message help-mpi-common-cuda.txt / dlopen failed
[d-16-5-4:42618] Set MCA parameter "orte_base_help_aggregate" to 0 to see all help / error messages
[d-16-5-4:42618] 18 more processes have sent help message help-mpi-btl-openib-cpc-base.txt / no cpcs for port
B pseudo-atom occupations:   s ( 2 )  p ( 1 )
Na pseudo-atom occupations:   s ( 2 1 )  p ( 6 )
	FillingsUpdate:  mu: -0.091719189  nElectrons: 121.000000  magneticMoment: [ Abs: 0.06238  Tot: +0.05556 ]
LCAOMinimize: Iter:   0  F: -219.0188887051172912  |grad|_K:  3.893e-03  alpha:  1.000e+00
	FillingsUpdate:  mu: -0.287884160  nElectrons: 121.000000  magneticMoment: [ Abs: 0.12611  Tot: +0.11111 ]
LCAOMinimize: Iter:   1  F: -220.6847842533703385  |grad|_K:  8.142e-04  alpha:  4.478e-01  linmin:  4.548e-01  cgtest: -1.060e+00  t[s]:     48.32
LCAOMinimize: 	Bad step direction: g.d > 0.
LCAOMinimize: 	Undoing step.
LCAOMinimize: 	Step failed: resetting search direction.
	FillingsUpdate:  mu: -0.287884160  nElectrons: 121.000000  magneticMoment: [ Abs: 0.12611  Tot: +0.11111 ]
LCAOMinimize: Iter:   2  F: -220.6847842533703385  |grad|_K:  8.142e-04  alpha:  0.000e+00
	FillingsUpdate:  mu: -0.116184392  nElectrons: 121.000000  magneticMoment: [ Abs: 0.06433  Tot: +0.01333 ]
LCAOMinimize: Iter:   3  F: -220.7542683986053760  |grad|_K:  5.770e-04  alpha:  6.490e-01  linmin:  3.264e-01  cgtest: -9.388e-01  t[s]:     72.87
LCAOMinimize: 	Bad step direction: g.d > 0.
LCAOMinimize: 	Undoing step.
LCAOMinimize: 	Step failed: resetting search direction.
	FillingsUpdate:  mu: -0.116184392  nElectrons: 121.000000  magneticMoment: [ Abs: 0.06433  Tot: +0.01333 ]
LCAOMinimize: Iter:   4  F: -220.7542683986053760  |grad|_K:  5.770e-04  alpha:  0.000e+00
	FillingsUpdate:  mu: -0.124651833  nElectrons: 121.000000  magneticMoment: [ Abs: 0.05456  Tot: +0.01389 ]
LCAOMinimize: Iter:   5  F: -220.7879313473835623  |grad|_K:  2.028e-04  alpha:  2.896e-01  linmin: -1.019e-01  cgtest:  9.484e-01  t[s]:     97.41
LCAOMinimize: Encountered beta<0, resetting CG.
LCAOMinimize: 	Wrong curvature in test step, increasing alphaT to 8.686558e-01.
	FillingsUpdate:  mu: -0.143179763  nElectrons: 121.000000  magneticMoment: [ Abs: 0.17707  Tot: +0.15278 ]
LCAOMinimize: Iter:   6  F: -220.7989020837395060  |grad|_K:  3.525e-05  alpha: -1.951e-01  linmin: -6.116e-02  cgtest:  8.623e-01  t[s]:    111.24
LCAOMinimize: Encountered beta<0, resetting CG.
	FillingsUpdate:  mu: -0.149429947  nElectrons: 121.000000  magneticMoment: [ Abs: 0.17910  Tot: +0.15278 ]
LCAOMinimize: Iter:   7  F: -220.7990328146566696  |grad|_K:  6.589e-05  alpha:  7.490e-02  linmin:  1.219e-02  cgtest:  3.084e-01  t[s]:    125.60
LCAOMinimize: 	Bad step direction: g.d > 0.
LCAOMinimize: 	Undoing step.
LCAOMinimize: 	Step failed: resetting search direction.
	FillingsUpdate:  mu: -0.149429947  nElectrons: 121.000000  magneticMoment: [ Abs: 0.17910  Tot: +0.15278 ]
LCAOMinimize: Iter:   8  F: -220.7990328146566696  |grad|_K:  6.589e-05  alpha:  0.000e+00
LCAOMinimize: 	Step increased F by 1.904104e-05, reducing alpha to 2.719434e-03.
	FillingsUpdate:  mu: -0.149297014  nElectrons: 121.000000  magneticMoment: [ Abs: 0.17919  Tot: +0.15278 ]
LCAOMinimize: Iter:   9  F: -220.7990394527981834  |grad|_K:  6.495e-05  alpha:  2.719e-03  linmin: -2.203e-02  cgtest:  8.904e-01  t[s]:    160.24
LCAOMinimize: 	Wrong curvature in test step, increasing alphaT to 8.158302e-03.
	FillingsUpdate:  mu: -0.148667514  nElectrons: 121.000000  magneticMoment: [ Abs: 0.17929  Tot: +0.15278 ]
LCAOMinimize: Iter:  10  F: -220.7990462159760625  |grad|_K:  5.890e-05  alpha: -2.210e-01  linmin: -1.934e-02  cgtest:  9.138e-01  t[s]:    174.22
LCAOMinimize: Encountered beta<0, resetting CG.
LCAOMinimize: 	Step increased F by 3.554307e-05, reducing alpha to 4.313478e-02.
LCAOMinimize: 	Step increased F by 6.129958e-05, reducing alpha to 4.313478e-03.
	FillingsUpdate:  mu: -0.147783381  nElectrons: 121.000000  magneticMoment: [ Abs: 0.17945  Tot: +0.15278 ]
LCAOMinimize: Iter:  11  F: -220.7990535724702283  |grad|_K:  4.549e-05  alpha:  4.313e-03  linmin: -1.498e-02  cgtest:  9.201e-01  t[s]:    208.84
LCAOMinimize: Encountered beta<0, resetting CG.
LCAOMinimize: 	Predicted alpha/alphaT>3.000000, increasing alphaT to 1.294043e-02.
	FillingsUpdate:  mu: -0.146638904  nElectrons: 121.000000  magneticMoment: [ Abs: 0.18000  Tot: +0.15278 ]
LCAOMinimize: Iter:  12  F: -220.7990614279805754  |grad|_K:  3.303e-05  alpha:  1.498e-02  linmin:  2.638e-03  cgtest: -1.296e-01  t[s]:    227.16
LCAOMinimize: 	Predicted alpha/alphaT>3.000000, increasing alphaT to 4.495342e-02.
LCAOMinimize: 	Predicted alpha/alphaT>3.000000, increasing alphaT to 1.348603e-01.
	FillingsUpdate:  mu: -0.144910178  nElectrons: 121.000000  magneticMoment: [ Abs: 0.18646  Tot: +0.15278 ]
LCAOMinimize: Iter:  13  F: -220.7990971808998211  |grad|_K:  8.803e-05  alpha:  1.594e-01  linmin: -1.956e-05  cgtest:  7.824e-01  t[s]:    249.62
LCAOMinimize: 	Step increased F by 2.941918e-05, reducing alpha to 4.317675e-03.
	FillingsUpdate:  mu: -0.146060675  nElectrons: 121.000000  magneticMoment: [ Abs: 0.18732  Tot: +0.15278 ]
LCAOMinimize: Iter:  14  F: -220.7991124759703041  |grad|_K:  5.693e-05  alpha:  4.318e-03  linmin: -1.194e-03  cgtest:  9.691e-01  t[s]:    274.17
LCAOMinimize: Encountered beta<0, resetting CG.
	FillingsUpdate:  mu: -0.147042222  nElectrons: 121.000000  magneticMoment: [ Abs: 0.18737  Tot: +0.15278 ]
LCAOMinimize: Iter:  15  F: -220.7991202020514834  |grad|_K:  7.087e-06  alpha:  9.115e-03  linmin:  1.862e-03  cgtest: -5.309e-02  t[s]:    288.38
LCAOMinimize: 	Predicted alpha/alphaT>3.000000, increasing alphaT to 2.734410e-02.
LCAOMinimize: 	Predicted alpha/alphaT>3.000000, increasing alphaT to 8.203229e-02.
LCAOMinimize: 	Predicted alpha/alphaT>3.000000, increasing alphaT to 2.460969e-01.
	FillingsUpdate:  mu: -0.146883705  nElectrons: 121.000000  magneticMoment: [ Abs: 0.19770  Tot: +0.15278 ]
LCAOMinimize: Iter:  16  F: -220.7991266193907336  |grad|_K:  2.769e-06  alpha:  4.868e-01  linmin: -4.027e-06  cgtest:  6.693e-02  t[s]:    310.81
	FillingsUpdate:  mu: -0.146690814  nElectrons: 121.000000  magneticMoment: [ Abs: 0.19873  Tot: +0.15278 ]
LCAOMinimize: Iter:  17  F: -220.7991267396616593  |grad|_K:  6.091e-06  alpha:  5.689e-02  linmin: -2.281e-05  cgtest:  2.074e-02  t[s]:    325.15
	FillingsUpdate:  mu: -0.146827717  nElectrons: 121.000000  magneticMoment: [ Abs: 0.21554  Tot: +0.15278 ]
LCAOMinimize: Iter:  18  F: -220.7991284232886642  |grad|_K:  3.692e-06  alpha:  1.659e-01  linmin:  2.033e-06  cgtest: -8.981e-01  t[s]:    339.52
	FillingsUpdate:  mu: -0.146765277  nElectrons: 121.000000  magneticMoment: [ Abs: 0.21656  Tot: +0.15278 ]
LCAOMinimize: Iter:  19  F: -220.7991284619183716  |grad|_K:  8.124e-07  alpha:  1.038e-02  linmin: -3.999e-03  cgtest:  2.065e-01  t[s]:    353.80
LCAOMinimize: 	Predicted alpha/alphaT>3.000000, increasing alphaT to 3.115119e-02.
LCAOMinimize: 	Predicted alpha/alphaT>3.000000, increasing alphaT to 9.345358e-02.
LCAOMinimize: 	Predicted alpha/alphaT>3.000000, increasing alphaT to 2.803607e-01.
	FillingsUpdate:  mu: -0.146740733  nElectrons: 121.000000  magneticMoment: [ Abs: 0.21994  Tot: +0.15278 ]
LCAOMinimize: Iter:  20  F: -220.7991285808730026  |grad|_K:  8.770e-07  alpha:  6.676e-01  linmin: -5.374e-05  cgtest:  1.559e-02  t[s]:    376.21
LCAOMinimize: Converged (|Delta F|<1.000000e-06 for 2 iters).


---- Citations for features of the code used in this run ----

   Software package:
      R. Sundararaman, K. Letchworth-Weaver, K.A. Schwarz, D. Gunceler, Y. Ozhabes and T.A. Arias, 'JDFTx: software for joint density-functional theory', SoftwareX 6, 278 (2017)

   gga-PBE exchange-correlation functional:
      J.P. Perdew, K. Burke and M. Ernzerhof, Phys. Rev. Lett. 77, 3865 (1996)

   Pseudopotentials:
      M Schlipf and F Gygi, Comput. Phys. Commun. 196, 36 (2015)

   Truncated Coulomb potentials:
      R. Sundararaman and T.A. Arias, Phys. Rev. B 87, 165122 (2013)

   DFT-D3 dispersion correction:
      S. Grimme, J. Antony, S. Ehrlich and H. Krieg, J. Chem. Phys. 132, 154104 (2010)

This list may not be complete. Please suggest additional citations or
report any other bugs at https://github.com/shankar1729/jdftx/issues

Initialization completed successfully at t[s]:    378.42


Computing DFT-D3 correction:
# coordination-number N 3.139 3.139 3.148 3.139 3.148 3.138 3.138 3.148 3.139 3.148 3.148 3.139 3.139 3.148
# coordination-number B 3.356 3.343 3.343 3.343 3.343 3.356 3.356 3.356 3.343 3.343 3.356 3.356 3.342 3.342
# coordination-number Na 0.218
# diagonal-C6 N 15.61 15.61 15.61 15.61 15.61 15.61 15.61 15.61 15.61 15.61 15.61 15.61 15.61 15.61
# diagonal-C6 B 31.44 31.44 31.44 31.44 31.44 31.44 31.44 31.44 31.44 31.44 31.44 31.44 31.44 31.44
# diagonal-C6 Na 1369.12
EvdW_6 =   -0.031105
EvdW_8 =   -0.028786

-------- Electronic minimization -----------
Will mix electronic density at each iteration.
	FillingsUpdate:  mu: -0.146740733  nElectrons: 121.000000  magneticMoment: [ Abs: 0.21994  Tot: +0.15278 ]
	FillingsUpdate:  mu: -0.154225198  nElectrons: 121.000000  magneticMoment: [ Abs: 0.21994  Tot: +0.15278 ]
SCF: Cycle:  0   F: -222.175768078594189   dF: -1.377e+00   |Residual|: 4.000e-01   |deigs|: 1.047e-01  t[s]:    426.97
	FillingsUpdate:  mu: -0.153046520  nElectrons: 121.000000  magneticMoment: [ Abs: 0.21307  Tot: +0.14968 ]
SCF: Cycle:  1   F: -222.263302460710065   dF: -8.753e-02   |Residual|: 2.223e-01   |deigs|: 2.114e-02  t[s]:    464.34
	FillingsUpdate:  mu: -0.155348005  nElectrons: 121.000000  magneticMoment: [ Abs: 0.23941  Tot: +0.13384 ]
SCF: Cycle:  2   F: -222.288825948568530   dF: -2.552e-02   |Residual|: 4.305e-02   |deigs|: 2.956e-02  t[s]:    501.68
	FillingsUpdate:  mu: -0.153725403  nElectrons: 121.000000  magneticMoment: [ Abs: 0.14124  Tot: +0.12689 ]
SCF: Cycle:  3   F: -222.291354598123917   dF: -2.529e-03   |Residual|: 3.075e-02   |deigs|: 6.224e-03  t[s]:    538.95
	FillingsUpdate:  mu: -0.147459461  nElectrons: 121.000000  magneticMoment: [ Abs: 0.16117  Tot: +0.10471 ]
SCF: Cycle:  4   F: -222.295204089329388   dF: -3.849e-03   |Residual|: 1.823e-02   |deigs|: 1.650e-02  t[s]:    576.65
	FillingsUpdate:  mu: -0.144330015  nElectrons: 121.000000  magneticMoment: [ Abs: 0.11638  Tot: +0.09600 ]
SCF: Cycle:  5   F: -222.297457302101890   dF: -2.253e-03   |Residual|: 1.464e-02   |deigs|: 5.791e-03  t[s]:    614.31
	FillingsUpdate:  mu: -0.136305282  nElectrons: 121.000000  magneticMoment: [ Abs: 0.09124  Tot: +0.07833 ]
SCF: Cycle:  6   F: -222.302315153026342   dF: -4.858e-03   |Residual|: 9.892e-03   |deigs|: 8.789e-03  t[s]:    651.84
	FillingsUpdate:  mu: -0.125620725  nElectrons: 121.000000  magneticMoment: [ Abs: 0.09553  Tot: +0.05800 ]
SCF: Cycle:  7   F: -222.307130315183485   dF: -4.815e-03   |Residual|: 1.203e-02   |deigs|: 8.322e-03  t[s]:    689.51
	FillingsUpdate:  mu: -0.116608758  nElectrons: 121.000000  magneticMoment: [ Abs: 0.06772  Tot: +0.04206 ]
SCF: Cycle:  8   F: -222.310457362829709   dF: -3.327e-03   |Residual|: 9.259e-03   |deigs|: 6.172e-03  t[s]:    727.26
	FillingsUpdate:  mu: -0.105526095  nElectrons: 121.000000  magneticMoment: [ Abs: 0.04611  Tot: +0.02429 ]
SCF: Cycle:  9   F: -222.313466300140817   dF: -3.009e-03   |Residual|: 6.821e-03   |deigs|: 6.380e-03  t[s]:    764.95
	FillingsUpdate:  mu: -0.096072005  nElectrons: 121.000000  magneticMoment: [ Abs: 0.04089  Tot: +0.01105 ]
SCF: Cycle: 10   F: -222.314900161761841   dF: -1.434e-03   |Residual|: 6.489e-03   |deigs|: 4.558e-03  t[s]:    802.64
	FillingsUpdate:  mu: -0.094390242  nElectrons: 121.000000  magneticMoment: [ Abs: 0.03490  Tot: +0.01153 ]
SCF: Cycle: 11   F: -222.314967099628575   dF: -6.694e-05   |Residual|: 4.572e-03   |deigs|: 1.433e-03  t[s]:    840.40
	FillingsUpdate:  mu: -0.090827399  nElectrons: 121.000000  magneticMoment: [ Abs: 0.03699  Tot: +0.00900 ]
SCF: Cycle: 12   F: -222.315170242752913   dF: -2.031e-04   |Residual|: 3.965e-03   |deigs|: 1.942e-03  t[s]:    878.12
	FillingsUpdate:  mu: -0.087455116  nElectrons: 121.000000  magneticMoment: [ Abs: 0.02858  Tot: +0.00818 ]
SCF: Cycle: 13   F: -222.315300281835505   dF: -1.300e-04   |Residual|: 3.086e-03   |deigs|: 1.737e-03  t[s]:    915.86
	FillingsUpdate:  mu: -0.085897664  nElectrons: 121.000000  magneticMoment: [ Abs: 0.02760  Tot: +0.00940 ]
SCF: Cycle: 14   F: -222.315342425791414   dF: -4.214e-05   |Residual|: 2.473e-03   |deigs|: 1.620e-03  t[s]:    953.61
	FillingsUpdate:  mu: -0.085342875  nElectrons: 121.000000  magneticMoment: [ Abs: 0.02655  Tot: +0.01137 ]
SCF: Cycle: 15   F: -222.315356533743028   dF: -1.411e-05   |Residual|: 1.815e-03   |deigs|: 1.884e-03  t[s]:    991.35
	FillingsUpdate:  mu: -0.085202819  nElectrons: 121.000000  magneticMoment: [ Abs: 0.02566  Tot: +0.01265 ]
SCF: Cycle: 16   F: -222.315361204258863   dF: -4.671e-06   |Residual|: 1.136e-03   |deigs|: 7.282e-04  t[s]:   1029.13
	FillingsUpdate:  mu: -0.085289455  nElectrons: 121.000000  magneticMoment: [ Abs: 0.01984  Tot: +0.01378 ]
SCF: Cycle: 17   F: -222.315361944360404   dF: -7.401e-07   |Residual|: 6.867e-04   |deigs|: 9.606e-04  t[s]:   1066.85
	FillingsUpdate:  mu: -0.085267756  nElectrons: 121.000000  magneticMoment: [ Abs: 0.01565  Tot: +0.01400 ]
SCF: Cycle: 18   F: -222.315362963985478   dF: -1.020e-06   |Residual|: 3.774e-04   |deigs|: 8.130e-04  t[s]:   1104.73
	FillingsUpdate:  mu: -0.085372250  nElectrons: 121.000000  magneticMoment: [ Abs: 0.01601  Tot: +0.01419 ]
SCF: Cycle: 19   F: -222.315363456444175   dF: -4.925e-07   |Residual|: 1.982e-04   |deigs|: 7.678e-04  t[s]:   1142.42
	FillingsUpdate:  mu: -0.085366649  nElectrons: 121.000000  magneticMoment: [ Abs: 0.01461  Tot: +0.01416 ]
SCF: Cycle: 20   F: -222.315363673102127   dF: -2.167e-07   |Residual|: 1.105e-04   |deigs|: 5.028e-04  t[s]:   1180.45
	FillingsUpdate:  mu: -0.085373497  nElectrons: 121.000000  magneticMoment: [ Abs: 0.01436  Tot: +0.01411 ]
SCF: Cycle: 21   F: -222.315363746235903   dF: -7.313e-08   |Residual|: 5.566e-05   |deigs|: 2.090e-04  t[s]:   1218.27
	FillingsUpdate:  mu: -0.085363572  nElectrons: 121.000000  magneticMoment: [ Abs: 0.01415  Tot: +0.01405 ]
SCF: Cycle: 22   F: -222.315363777039664   dF: -3.080e-08   |Residual|: 3.411e-05   |deigs|: 6.031e-04  t[s]:   1256.15
	FillingsUpdate:  mu: -0.085347953  nElectrons: 121.000000  magneticMoment: [ Abs: 0.01410  Tot: +0.01401 ]
SCF: Cycle: 23   F: -222.315363792986858   dF: -1.595e-08   |Residual|: 2.277e-05   |deigs|: 6.270e-04  t[s]:   1293.85
	FillingsUpdate:  mu: -0.085331089  nElectrons: 121.000000  magneticMoment: [ Abs: 0.01404  Tot: +0.01396 ]
SCF: Cycle: 24   F: -222.315363802188045   dF: -9.201e-09   |Residual|: 9.880e-06   |deigs|: 2.591e-04  t[s]:   1331.42
	FillingsUpdate:  mu: -0.085322597  nElectrons: 121.000000  magneticMoment: [ Abs: 0.01401  Tot: +0.01394 ]
SCF: Cycle: 25   F: -222.315363803900794   dF: -1.713e-09   |Residual|: 5.230e-06   |deigs|: 1.035e-04  t[s]:   1369.10
SCF: Converged (|Delta E|<1.000000e-08 for 2 iters).


Computing DFT-D3 correction:
# coordination-number N 3.139 3.139 3.148 3.139 3.148 3.138 3.138 3.148 3.139 3.148 3.148 3.139 3.139 3.148
# coordination-number B 3.356 3.343 3.343 3.343 3.343 3.356 3.356 3.356 3.343 3.343 3.356 3.356 3.342 3.342
# coordination-number Na 0.218
# diagonal-C6 N 15.61 15.61 15.61 15.61 15.61 15.61 15.61 15.61 15.61 15.61 15.61 15.61 15.61 15.61
# diagonal-C6 B 31.44 31.44 31.44 31.44 31.44 31.44 31.44 31.44 31.44 31.44 31.44 31.44 31.44 31.44
# diagonal-C6 Na 1369.12
EvdW_6 =   -0.031105
EvdW_8 =   -0.028786

# Ionic positions in lattice coordinates:
ion N   0.952380952379803   0.761904761902463   0.000000000000000 0
ion N   1.428571428570279   1.285714285711987   0.343000000000000 0
ion N   0.380952380951232   0.904761904759606   0.000000000000000 0
ion N   0.714285714284565   1.142857142854844   0.343000000000000 0
ion N   0.523809523808374   0.619047619045320   0.000000000000000 0
ion N   0.999999999998850   0.999999999997701   0.343000000000000 0
ion N   0.666666666665517   0.333333333331034   0.000000000000000 0
ion N   1.285714285713136   0.857142857140558   0.343000000000000 0
ion N   0.809523809522660   0.047619047616749   0.000000000000000 0
ion N   1.571428571427422   0.714285714283415   0.343000000000000 0
ion N   0.095238095236946   0.476190476188177   0.000000000000000 0
ion N   0.238095238094089   0.190476190473892   0.000000000000000 0
ion N   0.857142857141708   0.571428571426273   0.343000000000000 0
ion N   1.142857142855993   0.428571428569130   0.343000000000000 0
ion B   0.571428571427422   0.857142857140558   0.000000000000000 0
ion B   0.952380952379803   1.190476190473892   0.343000000000000 0
ion B   0.714285714284565   0.571428571426273   0.000000000000000 0
ion B   1.238095238094089   1.047619047616749   0.343000000000000 0
ion B   0.857142857141708   0.285714285711987   0.000000000000000 0
ion B   1.523809523808374   0.904761904759606   0.343000000000000 0
ion B   0.142857142855993   0.714285714283415   0.000000000000000 0
ion B   0.285714285713136   0.428571428569130   0.000000000000000 0
ion B   0.809523809522660   0.761904761902463   0.343000000000000 0
ion B   0.428571428570279   0.142857142854844   0.000000000000000 0
ion B   1.095238095236946   0.619047619045320   0.343000000000000 0
ion B   1.380952380951231   0.476190476188177   0.343000000000000 0
ion B  -0.000000000001149  -0.000000000002299   0.000000000000000 0
ion B   0.666666666665517   0.333333333331034   0.343000000000000 0
ion Na   0.333333333332184   0.666666666664368   0.171500000000000 0

# Forces in Lattice coordinates:
force N   0.005396451500539  -0.003946712768572   0.007919174180017 0
force N  -0.003946712768572   0.005396451500539  -0.007919174180017 0
force N  -0.000223266820359  -0.007582377606659   0.038861857196080 0
force N  -0.001449738731967  -0.003946712768572  -0.007919174180017 0
force N  -0.007582377606659   0.007805644427018   0.038861857195966 0
force N   0.000000000000000   0.000000000000000  -0.013149468396421 0
force N   0.000000000000000   0.000000000000000   0.013149468396535 0
force N   0.007805644427018  -0.007582377606659  -0.038861857195966 0
force N  -0.003946712768572  -0.001449738731967   0.007919174180017 0
force N  -0.007582377606659  -0.000223266820359  -0.038861857196080 0
force N   0.007805644427018  -0.000223266820359   0.038861857196080 0
force N  -0.001449738731967   0.005396451500539   0.007919174180017 0
force N   0.005396451500539  -0.001449738731967  -0.007919174180017 0
force N  -0.000223266820359   0.007805644427018  -0.038861857195966 0
force B   0.011813956704513   0.006789450598990   0.041252558834147 0
force B  -0.003552928124765  -0.011523847544140  -0.084356743129812 0
force B   0.015076775668906  -0.011523847544140   0.084356743129925 0
force B  -0.011523847544140   0.015076775668906  -0.084356743129812 0
force B  -0.011523847544140  -0.003552928124765   0.084356743129925 0
force B   0.006789450598990   0.011813956704513  -0.041252558834147 0
force B  -0.018603407303504   0.011813956704514   0.041252558834147 0
force B   0.006789450598990  -0.018603407303504   0.041252558834090 0
force B   0.015076775668906  -0.003552928124765  -0.084356743129925 0
force B  -0.003552928124765   0.015076775668906   0.084356743129925 0
force B  -0.018603407303504   0.006789450598990  -0.041252558834090 0
force B   0.011813956704513  -0.018603407303504  -0.041252558834090 0
force B   0.000000000000000   0.000000000000000   0.092505117993853 0
force B   0.000000000000000   0.000000000000000  -0.092505117993853 0
force Na   0.000000000000000   0.000000000000000   0.000000000000000 0

# Energy components:
   Eewald =    -2610.3096122868105340
       EH =    -2434.1911792337841689
     Eloc =     4752.3680991527926381
      Enl =      -21.3180078362221970
   Epulay =       -0.0000190610708103
     EvdW =       -0.0598905236851098
      Exc =      -57.7820628164392645
       KE =      148.9773091767867470
-------------------------------------
     Etot =     -222.3153634284331304
       TS =        0.0000003754676741
-------------------------------------
        F =     -222.3153638039007944

IonicMinimize: Iter:   0  F: -222.315363803900794  |grad|_K:  0.000e+00  t[s]:   1372.97
IonicMinimize: Converged (|grad|_K<1.000000e-04).

#--- Lowdin population analysis ---
# oxidation-state N -0.376 -0.376 -0.378 -0.376 -0.378 -0.376 -0.376 -0.378 -0.376 -0.378 -0.378 -0.376 -0.376 -0.378
# magnetic-moments N +0.000 +0.000 +0.000 +0.000 +0.000 +0.000 +0.000 +0.000 +0.000 +0.000 +0.000 +0.000 +0.000 +0.000
# oxidation-state B +0.436 +0.448 +0.448 +0.448 +0.448 +0.436 +0.436 +0.436 +0.448 +0.448 +0.436 +0.436 +0.449 +0.449
# magnetic-moments B +0.000 +0.000 +0.000 +0.000 +0.000 +0.000 +0.000 +0.000 +0.000 +0.000 +0.000 +0.000 +0.000 +0.000
# oxidation-state Na +0.076
# magnetic-moments Na +0.013


Dumping 'Na-0.343.fillings' ... done
Dumping 'Na-0.343.wfns' ... done
Dumping 'Na-0.343.n_up' ... done
Dumping 'Na-0.343.n_dn' ... done
Dumping 'Na-0.343.eigenvals' ... done
End date and time: Wed Jan 19 21:16:22 2022  (Duration: 0-0:22:55.90)
Done!
