Second Layer Distance is 0.355

--------------------------------------------------------------------------
The library attempted to open the following supporting CUDA libraries,
but each of them failed.  CUDA-aware support is disabled.
libcuda.so.1: cannot open shared object file: No such file or directory
libcuda.dylib: cannot open shared object file: No such file or directory
/usr/lib64/libcuda.so.1: cannot open shared object file: No such file or directory
/usr/lib64/libcuda.dylib: cannot open shared object file: No such file or directory
If you are not interested in CUDA-aware support, then run with
--mca opal_warn_on_missing_libcuda 0 to suppress this message.  If you are interested
in CUDA-aware support, then try setting LD_LIBRARY_PATH to the location
of libcuda.so.1 to get passed this issue.
--------------------------------------------------------------------------
--------------------------------------------------------------------------
No OpenFabrics connection schemes reported that they were able to be
used on a specific port.  As such, the openib BTL (OpenFabrics
support) will be disabled for this port.

  Local host:           d-5-9-3
  Local device:         mlx5_1
  Local port:           1
  CPCs attempted:       rdmacm, udcm
--------------------------------------------------------------------------

*************** JDFTx 1.6.0 (git hash 42ebbcc2) ***************

Start date and time: Wed Jan 19 20:57:52 2022
Executable jdftx with command-line: -i Moire.in
Running on hosts (process indices):  d-5-9-3 (0-18)
Divided in process groups (process indices):  0 (0)  1 (1)  2 (2)  3 (3)  4 (4)  5 (5)  6 (6)  7 (7)  8 (8)  9 (9)  10 (10)  11 (11)  12 (12)  13 (13)  14 (14)  15 (15)  16 (16)  17 (17)  18 (18)
Resource initialization completed at t[s]:      0.00
Run totals: 19 processes, 48 threads, 0 GPUs


Input parsed successfully to the following command list (including defaults):

basis kpoint-dependent
coords-type Lattice
core-overlap-check vector
coulomb-interaction Slab 001
davidson-band-ratio 1.1
dump End State ElecDensity BandEigs
dump-name Na-0.355.$VAR
elec-cutoff 20
elec-eigen-algo Davidson
elec-ex-corr gga-PBE
elec-initial-magnetization 0.100000 no
elec-smearing Fermi 1e-05
electronic-minimize  \
	dirUpdateScheme      FletcherReeves \
	linminMethod         DirUpdateRecommended \
	nIterations          100 \
	history              15 \
	knormThreshold       0 \
	energyDiffThreshold  1e-08 \
	nEnergyDiff          2 \
	alphaTstart          1 \
	alphaTmin            1e-10 \
	updateTestStepSize   yes \
	alphaTreduceFactor   0.1 \
	alphaTincreaseFactor 3 \
	nAlphaAdjustMax      3 \
	wolfeEnergy          0.0001 \
	wolfeGradient        0.9 \
	fdTest               no
electronic-scf  \
	nIterations	1000 \
	energyDiffThreshold	1e-08 \
	residualThreshold	1e-07 \
	mixFraction	0.5 \
	qMetric	0.8 \
	history	10 \
	nEigSteps	2 \
	eigDiffThreshold	1e-08 \
	mixedVariable	Density \
	qKerker	0.8 \
	qKappa	-1 \
	verbose	no \
	mixFractionMag	1.5
exchange-regularization WignerSeitzTruncated
fluid None
fluid-ex-corr (null) lda-PZ
fluid-gummel-loop 10 1.000000e-05
fluid-minimize  \
	dirUpdateScheme      PolakRibiere \
	linminMethod         DirUpdateRecommended \
	nIterations          100 \
	history              15 \
	knormThreshold       0 \
	energyDiffThreshold  0 \
	nEnergyDiff          2 \
	alphaTstart          1 \
	alphaTmin            1e-10 \
	updateTestStepSize   yes \
	alphaTreduceFactor   0.1 \
	alphaTincreaseFactor 3 \
	nAlphaAdjustMax      3 \
	wolfeEnergy          0.0001 \
	wolfeGradient        0.9 \
	fdTest               no
fluid-solvent H2O 55.338 ScalarEOS \
	epsBulk 78.4 \
	pMol 0.92466 \
	epsInf 1.77 \
	Pvap 1.06736e-10 \
	sigmaBulk 4.62e-05 \
	Rvdw 2.61727 \
	Res 1.42 \
	tauNuc 343133 \
	poleEl 15 7 1
forces-output-coords Positions
ion N   0.952380952380952   0.761904761904762   0.000000000000000 0
ion N   1.428571428571428   1.285714285714286   0.355000000000000 0
ion N   0.380952380952381   0.904761904761905   0.000000000000000 0
ion N   0.714285714285714   1.142857142857143   0.355000000000000 0
ion N   0.523809523809524   0.619047619047619   0.000000000000000 0
ion N   1.000000000000000   1.000000000000000   0.355000000000000 0
ion N   0.666666666666667   0.333333333333333   0.000000000000000 0
ion N   1.285714285714286   0.857142857142857   0.355000000000000 0
ion N   0.809523809523810   0.047619047619048   0.000000000000000 0
ion N   1.571428571428571   0.714285714285714   0.355000000000000 0
ion N   0.095238095238095   0.476190476190476   0.000000000000000 0
ion N   0.238095238095238   0.190476190476190   0.000000000000000 0
ion N   0.857142857142857   0.571428571428571   0.355000000000000 0
ion N   1.142857142857143   0.428571428571429   0.355000000000000 0
ion B   0.571428571428572   0.857142857142857   0.000000000000000 0
ion B   0.952380952380952   1.190476190476190   0.355000000000000 0
ion B   0.714285714285714   0.571428571428571   0.000000000000000 0
ion B   1.238095238095238   1.047619047619047   0.355000000000000 0
ion B   0.857142857142857   0.285714285714286   0.000000000000000 0
ion B   1.523809523809524   0.904761904761905   0.355000000000000 0
ion B   0.142857142857143   0.714285714285714   0.000000000000000 0
ion B   0.285714285714286   0.428571428571429   0.000000000000000 0
ion B   0.809523809523810   0.761904761904762   0.355000000000000 0
ion B   0.428571428571429   0.142857142857143   0.000000000000000 0
ion B   1.095238095238095   0.619047619047619   0.355000000000000 0
ion B   1.380952380952381   0.476190476190476   0.355000000000000 0
ion B   0.000000000000000   0.000000000000000   0.000000000000000 0
ion B   0.666666666666667   0.333333333333333   0.355000000000000 0
ion Na   0.333333333300000   0.666666666600000   0.177500000000000 0
ion-species SG15/$ID_ONCV_PBE.upf
ion-width 0
ionic-minimize  \
	dirUpdateScheme      L-BFGS \
	linminMethod         DirUpdateRecommended \
	nIterations          0 \
	history              15 \
	knormThreshold       0.0001 \
	energyDiffThreshold  1e-06 \
	nEnergyDiff          2 \
	alphaTstart          1 \
	alphaTmin            1e-10 \
	updateTestStepSize   yes \
	alphaTreduceFactor   0.1 \
	alphaTincreaseFactor 3 \
	nAlphaAdjustMax      3 \
	wolfeEnergy          0.0001 \
	wolfeGradient        0.9 \
	fdTest               no
kpoint   0.000000000000   0.000000000000   0.000000000000  1.00000000000000
kpoint-folding 12 12 1 
latt-move-scale 1 1 1
latt-scale 1 1 1 
lattice  \
	 -11.818700000000000    2.363740000000000    0.000000000000000  \
	   4.094120000000000  -12.282400000000001    0.000000000000000  \
	   0.000000000000000    0.000000000000000   40.000000000000000 
lattice-minimize  \
	dirUpdateScheme      L-BFGS \
	linminMethod         DirUpdateRecommended \
	nIterations          0 \
	history              15 \
	knormThreshold       0 \
	energyDiffThreshold  1e-06 \
	nEnergyDiff          2 \
	alphaTstart          1 \
	alphaTmin            1e-10 \
	updateTestStepSize   yes \
	alphaTreduceFactor   0.1 \
	alphaTincreaseFactor 3 \
	nAlphaAdjustMax      3 \
	wolfeEnergy          0.0001 \
	wolfeGradient        0.9 \
	fdTest               no
lcao-params -1 1e-06 1e-05
pcm-variant GLSSA13
spintype z-spin
subspace-rotation-factor 1 yes
symmetries automatic
symmetry-threshold 0.0001
van-der-waals D3



---------- Setting up symmetries ----------

Found 24 point-group symmetries of the bravais lattice
Found 6 space-group symmetries with basis
Applied RMS atom displacement 1.31765e-10 bohrs to make symmetries exact.

---------- Initializing the Grid ----------
R = 
[     -11.8187      2.36374            0  ]
[      4.09412     -12.2824            0  ]
[            0            0           40  ]
unit cell volume = 5419.38
G =
[  -0.569604   -0.10962          0  ]
[  -0.189867    -0.5481          0  ]
[          0          0    0.15708  ]
Minimum fftbox size, Smin = [  52  52  164  ]
Chosen fftbox size, S = [  54  54  168  ]

---------- Exchange Correlation functional ----------
Initalized PBE GGA exchange.
Initalized PBE GGA correlation.

---------- Setting up pseudopotentials ----------
Width of ionic core gaussian charges (only for fluid interactions / plotting) set to 0

Reading pseudopotential file '/home/gridsan/aligho/DFT/build-Nov24/pseudopotentials/SG15/N_ONCV_PBE.upf':
  'N' pseudopotential, 'PBE' functional
  Generated using ONCVPSP code by D. R. Hamann
  Author: Martin Schlipf and Francois Gygi  Date: 150915.
  5 valence electrons, 2 orbitals, 4 projectors, 1058 radial grid points, with lMax = 1
  Transforming local potential to a uniform radial grid of dG=0.02 with 1514 points.
  Transforming nonlocal projectors to a uniform radial grid of dG=0.02 with 432 points.
    2S    l: 0   occupation:  2.0   eigenvalue: -0.682907
    2P    l: 1   occupation:  3.0   eigenvalue: -0.260548
  Transforming atomic orbitals to a uniform radial grid of dG=0.02 with 432 points.
  Core radius for overlap checks: 1.35 bohrs.
  Reading pulay file /home/gridsan/aligho/DFT/build-Nov24/pseudopotentials/SG15/N_ONCV_PBE.pulay ... using dE_dnG = -2.956256e-02 computed for Ecut = 20.

Reading pseudopotential file '/home/gridsan/aligho/DFT/build-Nov24/pseudopotentials/SG15/B_ONCV_PBE.upf':
  'B' pseudopotential, 'PBE' functional
  Generated using ONCVPSP code by D. R. Hamann
  Author: Martin Schlipf and Francois Gygi  Date: 150915.
  3 valence electrons, 2 orbitals, 4 projectors, 1534 radial grid points, with lMax = 1
  Transforming local potential to a uniform radial grid of dG=0.02 with 1514 points.
  Transforming nonlocal projectors to a uniform radial grid of dG=0.02 with 432 points.
    2S    l: 0   occupation:  2.0   eigenvalue: -0.347027
    2P    l: 1   occupation:  1.0   eigenvalue: -0.132548
  Transforming atomic orbitals to a uniform radial grid of dG=0.02 with 432 points.
  Core radius for overlap checks: 1.60 bohrs.
  Reading pulay file /home/gridsan/aligho/DFT/build-Nov24/pseudopotentials/SG15/B_ONCV_PBE.pulay ... using dE_dnG = -3.748568e-04 computed for Ecut = 20.

Reading pseudopotential file '/home/gridsan/aligho/DFT/build-Nov24/pseudopotentials/SG15/Na_ONCV_PBE.upf':
  'Na' pseudopotential, 'PBE' functional
  Generated using ONCVPSP code by D. R. Hamann
  Author: Martin Schlipf and Francois Gygi  Date: 150915.
  9 valence electrons, 3 orbitals, 4 projectors, 1992 radial grid points, with lMax = 1
  Transforming local potential to a uniform radial grid of dG=0.02 with 1514 points.
  Transforming nonlocal projectors to a uniform radial grid of dG=0.02 with 432 points.
    2S    l: 0   occupation:  2.0   eigenvalue: -2.085640
    2P    l: 1   occupation:  6.0   eigenvalue: -1.053708
    3S    l: 0   occupation:  1.0   eigenvalue: -0.100838
  Transforming atomic orbitals to a uniform radial grid of dG=0.02 with 432 points.
  Core radius for overlap checks: 2.01 bohrs.
  Reading pulay file /home/gridsan/aligho/DFT/build-Nov24/pseudopotentials/SG15/Na_ONCV_PBE.pulay ... using dE_dnG = -2.946487e-03 computed for Ecut = 20.

Initialized 3 species with 29 total atoms.

Folded 1 k-points by 12x12x1 to 144 k-points.

---------- Setting up k-points, bands, fillings ----------
Adding inversion symmetry to k-mesh for non-inversion-symmetric unit cell.
Reduced to 19 k-points under symmetry. 
Computing the number of bands and number of electrons
Calculating initial fillings.
nElectrons: 121.000000   nBands: 117   nStates: 38

----- Setting up reduced wavefunction bases (one per k-point) -----
average nbasis = 23151.771 , ideal nbasis = 23152.016

---------- Setting up coulomb interaction ----------
Initialized slab truncation along lattice direction 001

Initializing DFT-D3 calculator:
	Parameters set for gga-PBE functional
	s6:  1.000  s_r6:  1.217
	s8:  0.722  s_r8:  1.000
	Per-atom parameters loaded for:
	 N:  sqrtQ[a0]:  2.712  Rcov[a0]:  1.342  CN: [ 0.00 0.99 2.01 2.99 ]
	 B:  sqrtQ[a0]:  3.644  Rcov[a0]:  1.455  CN: [ 0.00 0.97 1.94 2.91 4.59 ]
	Na:  sqrtQ[a0]:  6.586  Rcov[a0]:  2.646  CN: [ 0.00 0.97 ]

---------- Setting up 2D ewald sum ----------
Optimum gaussian width for ewald sums = 6.943804 bohr.
Real space sums over 289 unit cells with max indices [  8  8  0  ]
Reciprocal space sums over 81 terms with max indices [  4  4  0  ]

Computing DFT-D3 correction:
# coordination-number N 3.138 3.138 3.144 3.138 3.144 3.138 3.138 3.144 3.138 3.144 3.144 3.138 3.138 3.144
# coordination-number B 3.351 3.343 3.343 3.343 3.343 3.351 3.351 3.351 3.343 3.343 3.351 3.351 3.342 3.342
# coordination-number Na 0.164
# diagonal-C6 N 15.61 15.61 15.61 15.61 15.61 15.61 15.61 15.61 15.61 15.61 15.61 15.61 15.61 15.61
# diagonal-C6 B 31.44 31.44 31.44 31.44 31.44 31.44 31.44 31.44 31.44 31.44 31.44 31.44 31.44 31.44
# diagonal-C6 Na 1441.90
EvdW_6 =   -0.030856
EvdW_8 =   -0.028357

---------- Allocating electronic variables ----------
Initializing wave functions:  linear combination of atomic orbitals
N pseudo-atom occupations:   s ( 2 )  p ( 3 )
[d-5-9-3:87841] 18 more processes have sent help message help-mpi-common-cuda.txt / dlopen failed
[d-5-9-3:87841] Set MCA parameter "orte_base_help_aggregate" to 0 to see all help / error messages
[d-5-9-3:87841] 18 more processes have sent help message help-mpi-btl-openib-cpc-base.txt / no cpcs for port
B pseudo-atom occupations:   s ( 2 )  p ( 1 )
Na pseudo-atom occupations:   s ( 2 1 )  p ( 6 )
	FillingsUpdate:  mu: -0.085510723  nElectrons: 121.000000  magneticMoment: [ Abs: 0.06272  Tot: +0.05556 ]
LCAOMinimize: Iter:   0  F: -218.9054416979061273  |grad|_K:  3.953e-03  alpha:  1.000e+00
	FillingsUpdate:  mu: -0.291305630  nElectrons: 121.000000  magneticMoment: [ Abs: 0.12632  Tot: +0.11111 ]
LCAOMinimize: Iter:   1  F: -220.6250154688434293  |grad|_K:  8.288e-04  alpha:  4.477e-01  linmin:  4.575e-01  cgtest: -1.051e+00  t[s]:     49.16
LCAOMinimize: 	Bad step direction: g.d > 0.
LCAOMinimize: 	Undoing step.
LCAOMinimize: 	Step failed: resetting search direction.
	FillingsUpdate:  mu: -0.291305630  nElectrons: 121.000000  magneticMoment: [ Abs: 0.12632  Tot: +0.11111 ]
LCAOMinimize: Iter:   2  F: -220.6250154688434293  |grad|_K:  8.288e-04  alpha:  0.000e+00
	FillingsUpdate:  mu: -0.107721782  nElectrons: 121.000000  magneticMoment: [ Abs: 0.06701  Tot: +0.01363 ]
LCAOMinimize: Iter:   3  F: -220.6868247442417328  |grad|_K:  6.861e-04  alpha:  6.979e-01  linmin:  3.265e-01  cgtest: -9.407e-01  t[s]:     74.36
LCAOMinimize: 	Bad step direction: g.d > 0.
LCAOMinimize: 	Undoing step.
LCAOMinimize: 	Step failed: resetting search direction.
	FillingsUpdate:  mu: -0.107721782  nElectrons: 121.000000  magneticMoment: [ Abs: 0.06701  Tot: +0.01363 ]
LCAOMinimize: Iter:   4  F: -220.6868247442417328  |grad|_K:  6.861e-04  alpha:  0.000e+00
	FillingsUpdate:  mu: -0.117796268  nElectrons: 121.000000  magneticMoment: [ Abs: 0.05514  Tot: +0.01389 ]
LCAOMinimize: Iter:   5  F: -220.7360555961131752  |grad|_K:  1.957e-04  alpha:  3.178e-01  linmin: -1.031e-01  cgtest:  9.208e-01  t[s]:     99.72
LCAOMinimize: Encountered beta<0, resetting CG.
LCAOMinimize: 	Wrong curvature in test step, increasing alphaT to 9.533464e-01.
	FillingsUpdate:  mu: -0.137878407  nElectrons: 121.000000  magneticMoment: [ Abs: 0.17688  Tot: +0.15289 ]
LCAOMinimize: Iter:   6  F: -220.7465777513491787  |grad|_K:  2.686e-05  alpha: -2.509e-01  linmin: -1.932e-02  cgtest:  6.505e-01  t[s]:    114.07
LCAOMinimize: Encountered beta<0, resetting CG.
	FillingsUpdate:  mu: -0.137958545  nElectrons: 121.000000  magneticMoment: [ Abs: 0.17873  Tot: +0.15278 ]
LCAOMinimize: Iter:   7  F: -220.7465895603198760  |grad|_K:  2.061e-05  alpha:  4.416e-02  linmin: -1.561e-01  cgtest:  1.190e+00  t[s]:    128.80
LCAOMinimize: Encountered beta<0, resetting CG.
LCAOMinimize: 	Predicted alpha/alphaT>3.000000, increasing alphaT to 1.324701e-01.
LCAOMinimize: 	Predicted alpha/alphaT>3.000000, increasing alphaT to 3.974102e-01.
	FillingsUpdate:  mu: -0.138284555  nElectrons: 121.000000  magneticMoment: [ Abs: 0.19907  Tot: +0.15278 ]
LCAOMinimize: Iter:   8  F: -220.7466425171083699  |grad|_K:  1.507e-05  alpha:  4.642e-01  linmin: -1.228e-02  cgtest: -5.113e-03  t[s]:    151.87
LCAOMinimize: 	Step increased F by 5.132483e-07, reducing alpha to 1.539035e-03.
	FillingsUpdate:  mu: -0.138296721  nElectrons: 121.000000  magneticMoment: [ Abs: 0.19914  Tot: +0.15278 ]
LCAOMinimize: Iter:   9  F: -220.7466430396366093  |grad|_K:  1.787e-05  alpha:  1.539e-03  linmin: -1.229e-02  cgtest:  8.160e-01  t[s]:    177.15
LCAOMinimize: 	Wrong curvature in test step, increasing alphaT to 4.617106e-03.
	FillingsUpdate:  mu: -0.138311596  nElectrons: 121.000000  magneticMoment: [ Abs: 0.19922  Tot: +0.15278 ]
LCAOMinimize: Iter:  10  F: -220.7466436672916643  |grad|_K:  2.016e-05  alpha: -4.643e-03  linmin: -1.170e-02  cgtest:  8.498e-01  t[s]:    191.56
LCAOMinimize: Converged (|Delta F|<1.000000e-06 for 2 iters).


---- Citations for features of the code used in this run ----

   Software package:
      R. Sundararaman, K. Letchworth-Weaver, K.A. Schwarz, D. Gunceler, Y. Ozhabes and T.A. Arias, 'JDFTx: software for joint density-functional theory', SoftwareX 6, 278 (2017)

   gga-PBE exchange-correlation functional:
      J.P. Perdew, K. Burke and M. Ernzerhof, Phys. Rev. Lett. 77, 3865 (1996)

   Pseudopotentials:
      M Schlipf and F Gygi, Comput. Phys. Commun. 196, 36 (2015)

   Truncated Coulomb potentials:
      R. Sundararaman and T.A. Arias, Phys. Rev. B 87, 165122 (2013)

   DFT-D3 dispersion correction:
      S. Grimme, J. Antony, S. Ehrlich and H. Krieg, J. Chem. Phys. 132, 154104 (2010)

This list may not be complete. Please suggest additional citations or
report any other bugs at https://github.com/shankar1729/jdftx/issues

Initialization completed successfully at t[s]:    193.77


Computing DFT-D3 correction:
# coordination-number N 3.138 3.138 3.144 3.138 3.144 3.138 3.138 3.144 3.138 3.144 3.144 3.138 3.138 3.144
# coordination-number B 3.351 3.343 3.343 3.343 3.343 3.351 3.351 3.351 3.343 3.343 3.351 3.351 3.342 3.342
# coordination-number Na 0.164
# diagonal-C6 N 15.61 15.61 15.61 15.61 15.61 15.61 15.61 15.61 15.61 15.61 15.61 15.61 15.61 15.61
# diagonal-C6 B 31.44 31.44 31.44 31.44 31.44 31.44 31.44 31.44 31.44 31.44 31.44 31.44 31.44 31.44
# diagonal-C6 Na 1441.90
EvdW_6 =   -0.030856
EvdW_8 =   -0.028357

-------- Electronic minimization -----------
Will mix electronic density at each iteration.
	FillingsUpdate:  mu: -0.138311595  nElectrons: 121.000000  magneticMoment: [ Abs: 0.19922  Tot: +0.15278 ]
	FillingsUpdate:  mu: -0.146655566  nElectrons: 121.000000  magneticMoment: [ Abs: 0.19922  Tot: +0.15278 ]
SCF: Cycle:  0   F: -222.145995420315501   dF: -1.399e+00   |Residual|: 4.044e-01   |deigs|: 1.023e-01  t[s]:    243.62
	FillingsUpdate:  mu: -0.144706488  nElectrons: 121.000000  magneticMoment: [ Abs: 0.24592  Tot: +0.15432 ]
SCF: Cycle:  1   F: -222.249548908482211   dF: -1.036e-01   |Residual|: 2.238e-01   |deigs|: 2.228e-02  t[s]:    281.80
	FillingsUpdate:  mu: -0.147072207  nElectrons: 121.000000  magneticMoment: [ Abs: 0.33268  Tot: +0.13854 ]
SCF: Cycle:  2   F: -222.274004408813596   dF: -2.446e-02   |Residual|: 4.447e-02   |deigs|: 2.972e-02  t[s]:    320.18
	FillingsUpdate:  mu: -0.145581113  nElectrons: 121.000000  magneticMoment: [ Abs: 0.15607  Tot: +0.13084 ]
SCF: Cycle:  3   F: -222.277714409028192   dF: -3.710e-03   |Residual|: 3.170e-02   |deigs|: 7.762e-03  t[s]:    358.51
	FillingsUpdate:  mu: -0.140312635  nElectrons: 121.000000  magneticMoment: [ Abs: 0.19649  Tot: +0.11138 ]
SCF: Cycle:  4   F: -222.283738004315410   dF: -6.024e-03   |Residual|: 1.649e-02   |deigs|: 1.475e-02  t[s]:    396.69
	FillingsUpdate:  mu: -0.136788638  nElectrons: 121.000000  magneticMoment: [ Abs: 0.12206  Tot: +0.09983 ]
SCF: Cycle:  5   F: -222.287164924735322   dF: -3.427e-03   |Residual|: 1.502e-02   |deigs|: 7.734e-03  t[s]:    434.90
	FillingsUpdate:  mu: -0.129672166  nElectrons: 121.000000  magneticMoment: [ Abs: 0.10443  Tot: +0.08276 ]
SCF: Cycle:  6   F: -222.292498991364738   dF: -5.334e-03   |Residual|: 9.984e-03   |deigs|: 8.070e-03  t[s]:    473.56
	FillingsUpdate:  mu: -0.120651990  nElectrons: 121.000000  magneticMoment: [ Abs: 0.09562  Tot: +0.06392 ]
SCF: Cycle:  7   F: -222.297223787248981   dF: -4.725e-03   |Residual|: 9.747e-03   |deigs|: 7.120e-03  t[s]:    511.97
	FillingsUpdate:  mu: -0.111628440  nElectrons: 121.000000  magneticMoment: [ Abs: 0.08690  Tot: +0.04661 ]
SCF: Cycle:  8   F: -222.300719781701389   dF: -3.496e-03   |Residual|: 9.168e-03   |deigs|: 5.630e-03  t[s]:    550.35
	FillingsUpdate:  mu: -0.102466987  nElectrons: 121.000000  magneticMoment: [ Abs: 0.05554  Tot: +0.03023 ]
SCF: Cycle:  9   F: -222.303186992276778   dF: -2.467e-03   |Residual|: 6.403e-03   |deigs|: 4.974e-03  t[s]:    588.93
	FillingsUpdate:  mu: -0.092100919  nElectrons: 121.000000  magneticMoment: [ Abs: 0.04562  Tot: +0.01305 ]
SCF: Cycle: 10   F: -222.304682183286104   dF: -1.495e-03   |Residual|: 6.415e-03   |deigs|: 4.959e-03  t[s]:    627.99
	FillingsUpdate:  mu: -0.089430615  nElectrons: 121.000000  magneticMoment: [ Abs: 0.04254  Tot: +0.01107 ]
SCF: Cycle: 11   F: -222.304808218456856   dF: -1.260e-04   |Residual|: 4.388e-03   |deigs|: 1.737e-03  t[s]:    666.60
	FillingsUpdate:  mu: -0.086575775  nElectrons: 121.000000  magneticMoment: [ Abs: 0.03155  Tot: +0.00881 ]
SCF: Cycle: 12   F: -222.304923739621785   dF: -1.155e-04   |Residual|: 3.588e-03   |deigs|: 1.546e-03  t[s]:    705.81
	FillingsUpdate:  mu: -0.083263164  nElectrons: 121.000000  magneticMoment: [ Abs: 0.03212  Tot: +0.00734 ]
SCF: Cycle: 13   F: -222.305022774678946   dF: -9.904e-05   |Residual|: 2.832e-03   |deigs|: 1.523e-03  t[s]:    744.32
	FillingsUpdate:  mu: -0.081914224  nElectrons: 121.000000  magneticMoment: [ Abs: 0.02821  Tot: +0.00803 ]
SCF: Cycle: 14   F: -222.305049500465657   dF: -2.673e-05   |Residual|: 2.216e-03   |deigs|: 1.232e-03  t[s]:    782.87
	FillingsUpdate:  mu: -0.081208462  nElectrons: 121.000000  magneticMoment: [ Abs: 0.02710  Tot: +0.01015 ]
SCF: Cycle: 15   F: -222.305060230452739   dF: -1.073e-05   |Residual|: 1.678e-03   |deigs|: 2.517e-03  t[s]:    821.60
	FillingsUpdate:  mu: -0.081295546  nElectrons: 121.000000  magneticMoment: [ Abs: 0.02704  Tot: +0.01170 ]
SCF: Cycle: 16   F: -222.305063497504165   dF: -3.267e-06   |Residual|: 1.153e-03   |deigs|: 8.242e-04  t[s]:    860.29
	FillingsUpdate:  mu: -0.081262737  nElectrons: 121.000000  magneticMoment: [ Abs: 0.01719  Tot: +0.01291 ]
SCF: Cycle: 17   F: -222.305066268736880   dF: -2.771e-06   |Residual|: 7.595e-04   |deigs|: 9.623e-04  t[s]:    899.07
	FillingsUpdate:  mu: -0.081154611  nElectrons: 121.000000  magneticMoment: [ Abs: 0.01570  Tot: +0.01300 ]
SCF: Cycle: 18   F: -222.305066957929796   dF: -6.892e-07   |Residual|: 4.468e-04   |deigs|: 6.885e-04  t[s]:    937.81
	FillingsUpdate:  mu: -0.081250886  nElectrons: 121.000000  magneticMoment: [ Abs: 0.01654  Tot: +0.01332 ]
SCF: Cycle: 19   F: -222.305067284649766   dF: -3.267e-07   |Residual|: 2.922e-04   |deigs|: 6.930e-04  t[s]:    976.53
	FillingsUpdate:  mu: -0.081278382  nElectrons: 121.000000  magneticMoment: [ Abs: 0.01527  Tot: +0.01348 ]
SCF: Cycle: 20   F: -222.305067336972741   dF: -5.232e-08   |Residual|: 1.313e-04   |deigs|: 1.377e-03  t[s]:   1015.24
	FillingsUpdate:  mu: -0.081356849  nElectrons: 121.000000  magneticMoment: [ Abs: 0.01429  Tot: +0.01363 ]
SCF: Cycle: 21   F: -222.305067446680567   dF: -1.097e-07   |Residual|: 7.723e-05   |deigs|: 1.080e-03  t[s]:   1053.97
	FillingsUpdate:  mu: -0.081401807  nElectrons: 121.000000  magneticMoment: [ Abs: 0.01411  Tot: +0.01372 ]
SCF: Cycle: 22   F: -222.305067505359261   dF: -5.868e-08   |Residual|: 4.762e-05   |deigs|: 1.871e-04  t[s]:   1092.78
	FillingsUpdate:  mu: -0.081436468  nElectrons: 121.000000  magneticMoment: [ Abs: 0.01398  Tot: +0.01378 ]
SCF: Cycle: 23   F: -222.305067540080358   dF: -3.472e-08   |Residual|: 3.493e-05   |deigs|: 1.952e-04  t[s]:   1131.55
	FillingsUpdate:  mu: -0.081459424  nElectrons: 121.000000  magneticMoment: [ Abs: 0.01397  Tot: +0.01383 ]
SCF: Cycle: 24   F: -222.305067555535146   dF: -1.545e-08   |Residual|: 2.001e-05   |deigs|: 1.717e-04  t[s]:   1170.28
	FillingsUpdate:  mu: -0.081477007  nElectrons: 121.000000  magneticMoment: [ Abs: 0.01397  Tot: +0.01386 ]
SCF: Cycle: 25   F: -222.305067562389866   dF: -6.855e-09   |Residual|: 1.261e-05   |deigs|: 5.167e-05  t[s]:   1209.11
	FillingsUpdate:  mu: -0.081486944  nElectrons: 121.000000  magneticMoment: [ Abs: 0.01396  Tot: +0.01388 ]
SCF: Cycle: 26   F: -222.305067565234850   dF: -2.845e-09   |Residual|: 8.225e-06   |deigs|: 5.541e-05  t[s]:   1247.71
SCF: Converged (|Delta E|<1.000000e-08 for 2 iters).


Computing DFT-D3 correction:
# coordination-number N 3.138 3.138 3.144 3.138 3.144 3.138 3.138 3.144 3.138 3.144 3.144 3.138 3.138 3.144
# coordination-number B 3.351 3.343 3.343 3.343 3.343 3.351 3.351 3.351 3.343 3.343 3.351 3.351 3.342 3.342
# coordination-number Na 0.164
# diagonal-C6 N 15.61 15.61 15.61 15.61 15.61 15.61 15.61 15.61 15.61 15.61 15.61 15.61 15.61 15.61
# diagonal-C6 B 31.44 31.44 31.44 31.44 31.44 31.44 31.44 31.44 31.44 31.44 31.44 31.44 31.44 31.44
# diagonal-C6 Na 1441.90
EvdW_6 =   -0.030856
EvdW_8 =   -0.028357

# Ionic positions in lattice coordinates:
ion N   0.952380952379803   0.761904761902463   0.000000000000000 0
ion N   1.428571428570279   1.285714285711987   0.355000000000000 0
ion N   0.380952380951232   0.904761904759606   0.000000000000000 0
ion N   0.714285714284565   1.142857142854844   0.355000000000000 0
ion N   0.523809523808374   0.619047619045320   0.000000000000000 0
ion N   0.999999999998850   0.999999999997701   0.355000000000000 0
ion N   0.666666666665517   0.333333333331034   0.000000000000000 0
ion N   1.285714285713136   0.857142857140558   0.355000000000000 0
ion N   0.809523809522660   0.047619047616749   0.000000000000000 0
ion N   1.571428571427422   0.714285714283415   0.355000000000000 0
ion N   0.095238095236946   0.476190476188177   0.000000000000000 0
ion N   0.238095238094089   0.190476190473892   0.000000000000000 0
ion N   0.857142857141708   0.571428571426273   0.355000000000000 0
ion N   1.142857142855993   0.428571428569130   0.355000000000000 0
ion B   0.571428571427422   0.857142857140558   0.000000000000000 0
ion B   0.952380952379803   1.190476190473892   0.355000000000000 0
ion B   0.714285714284565   0.571428571426273   0.000000000000000 0
ion B   1.238095238094089   1.047619047616749   0.355000000000000 0
ion B   0.857142857141708   0.285714285711987   0.000000000000000 0
ion B   1.523809523808374   0.904761904759606   0.355000000000000 0
ion B   0.142857142855993   0.714285714283415   0.000000000000000 0
ion B   0.285714285713136   0.428571428569130   0.000000000000000 0
ion B   0.809523809522660   0.761904761902463   0.355000000000000 0
ion B   0.428571428570279   0.142857142854844   0.000000000000000 0
ion B   1.095238095236946   0.619047619045320   0.355000000000000 0
ion B   1.380952380951231   0.476190476188177   0.355000000000000 0
ion B  -0.000000000001149  -0.000000000002299   0.000000000000000 0
ion B   0.666666666665517   0.333333333331034   0.355000000000000 0
ion Na   0.333333333332184   0.666666666664368   0.177500000000000 0

# Forces in Lattice coordinates:
force N   0.005142577499382  -0.003474214997540   0.038944602804520 0
force N  -0.003474214997539   0.005142577499382  -0.038944602804520 0
force N  -0.000634237495875  -0.006445597490559   0.066869767207817 0
force N  -0.001668362501842  -0.003474214997539  -0.038944602804520 0
force N  -0.006445597490559   0.007079834986434   0.066869767207817 0
force N   0.000000000000000   0.000000000000000  -0.044084034904935 0
force N   0.000000000000000  -0.000000000000000   0.044084034904821 0
force N   0.007079834986434  -0.006445597490559  -0.066869767207817 0
force N  -0.003474214997539  -0.001668362501842   0.038944602804520 0
force N  -0.006445597490559  -0.000634237495875  -0.066869767207703 0
force N   0.007079834986434  -0.000634237495875   0.066869767207817 0
force N  -0.001668362501842   0.005142577499382   0.038944602804520 0
force N   0.005142577499382  -0.001668362501842  -0.038944602804520 0
force N  -0.000634237495875   0.007079834986434  -0.066869767207703 0
force B   0.009809165955812   0.005678154133792   0.099438361537536 0
force B  -0.002971631758115  -0.009812168002104  -0.135095304990973 0
force B   0.012783799760219  -0.009812168002104   0.135095304990973 0
force B  -0.009812168002104   0.012783799760219  -0.135095304990973 0
force B  -0.009812168002104  -0.002971631758115   0.135095304991030 0
force B   0.005678154133792   0.009809165955812  -0.099438361537536 0
force B  -0.015487320089605   0.009809165955812   0.099438361537422 0
force B   0.005678154133792  -0.015487320089604   0.099438361537536 0
force B   0.012783799760219  -0.002971631758115  -0.135095304990973 0
force B  -0.002971631758115   0.012783799760219   0.135095304990973 0
force B  -0.015487320089604   0.005678154133792  -0.099438361537479 0
force B   0.009809165955812  -0.015487320089604  -0.099438361537422 0
force B   0.000000000000000   0.000000000000000   0.141983816429209 0
force B   0.000000000000000   0.000000000000000  -0.141983816429266 0
force Na   0.000000000000000   0.000000000000000   0.000000000000000 0

# Energy components:
   Eewald =    -2691.3364011787684831
       EH =    -2514.5751017713805595
     Eloc =     4913.7579525896371706
      Enl =      -21.3290086354211894
   Epulay =       -0.0000190610708103
     EvdW =       -0.0592126298883121
      Exc =      -57.7967436147123550
       KE =      149.0334671118373251
-------------------------------------
     Etot =     -222.3050671897671862
       TS =        0.0000003754676741
-------------------------------------
        F =     -222.3050675652348502

IonicMinimize: Iter:   0  F: -222.305067565234850  |grad|_K:  0.000e+00  t[s]:   1251.82
IonicMinimize: Converged (|grad|_K<1.000000e-04).

#--- Lowdin population analysis ---
# oxidation-state N -0.377 -0.377 -0.378 -0.377 -0.378 -0.376 -0.376 -0.378 -0.377 -0.378 -0.378 -0.377 -0.377 -0.378
# magnetic-moments N +0.000 +0.000 +0.000 +0.000 +0.000 +0.000 +0.000 +0.000 +0.000 +0.000 +0.000 +0.000 +0.000 +0.000
# oxidation-state B +0.440 +0.451 +0.451 +0.451 +0.451 +0.440 +0.440 +0.440 +0.451 +0.451 +0.440 +0.440 +0.451 +0.451
# magnetic-moments B +0.000 +0.000 +0.000 +0.000 +0.000 +0.000 +0.000 +0.000 +0.000 +0.000 +0.000 +0.000 +0.000 +0.000
# oxidation-state Na +0.070
# magnetic-moments Na +0.013


Dumping 'Na-0.355.fillings' ... done
Dumping 'Na-0.355.wfns' ... done
Dumping 'Na-0.355.n_up' ... done
Dumping 'Na-0.355.n_dn' ... done
Dumping 'Na-0.355.eigenvals' ... done
End date and time: Wed Jan 19 21:18:48 2022  (Duration: 0-0:20:55.91)
Done!
