Second Layer Distance is 0.28

--------------------------------------------------------------------------
The library attempted to open the following supporting CUDA libraries,
but each of them failed.  CUDA-aware support is disabled.
libcuda.so.1: cannot open shared object file: No such file or directory
libcuda.dylib: cannot open shared object file: No such file or directory
/usr/lib64/libcuda.so.1: cannot open shared object file: No such file or directory
/usr/lib64/libcuda.dylib: cannot open shared object file: No such file or directory
If you are not interested in CUDA-aware support, then run with
--mca opal_warn_on_missing_libcuda 0 to suppress this message.  If you are interested
in CUDA-aware support, then try setting LD_LIBRARY_PATH to the location
of libcuda.so.1 to get passed this issue.
--------------------------------------------------------------------------
[d-17-12-4:54227] [[1358,0],0] ORTE_ERROR_LOG: Data unpack would read past end of buffer in file util/show_help.c at line 513
--------------------------------------------------------------------------
No OpenFabrics connection schemes reported that they were able to be
used on a specific port.  As such, the openib BTL (OpenFabrics
support) will be disabled for this port.

  Local host:           d-17-13-1
  Local device:         mlx5_1
  Local port:           1
  CPCs attempted:       rdmacm, udcm
--------------------------------------------------------------------------

*************** JDFTx 1.6.0 (git hash 42ebbcc2) ***************

Start date and time: Mon Jan 24 05:22:09 2022
Executable jdftx with command-line: -i Moire.bands.in
Running on hosts (process indices):  d-17-12-4 (0-47)  d-17-13-1 (48-57)
Divided in process groups (process indices):  0 (0)  1 (1)  2 (2)  3 (3)  4 (4)  5 (5)  6 (6)  7 (7)  8 (8)  9 (9)  10 (10)  11 (11)  12 (12)  13 (13)  14 (14)  15 (15)  16 (16)  17 (17)  18 (18)  19 (19)  20 (20)  21 (21)  22 (22)  23 (23)  24 (24)  25 (25)  26 (26)  27 (27)  28 (28)  29 (29)  30 (30)  31 (31)  32 (32)  33 (33)  34 (34)  35 (35)  36 (36)  37 (37)  38 (38)  39 (39)  40 (40)  41 (41)  42 (42)  43 (43)  44 (44)  45 (45)  46 (46)  47 (47)  48 (48)  49 (49)  50 (50)  51 (51)  52 (52)  53 (53)  54 (54)  55 (55)  56 (56)  57 (57)
Resource initialization completed at t[s]:      0.05
Run totals: 58 processes, 96 threads, 0 GPUs


Input parsed successfully to the following command list (including defaults):

basis kpoint-dependent
coords-type Lattice
core-overlap-check vector
coulomb-interaction Slab 001
davidson-band-ratio 1.1
dump End BandEigs
dump-name Na-bands-0.28.$VAR
elec-cutoff 20
elec-eigen-algo Davidson
elec-ex-corr gga-PBE
elec-initial-magnetization 0.100000 no
elec-smearing Fermi 1e-05
electronic-minimize  \
	dirUpdateScheme      FletcherReeves \
	linminMethod         DirUpdateRecommended \
	nIterations          10000 \
	history              15 \
	knormThreshold       0 \
	energyDiffThreshold  1e-08 \
	nEnergyDiff          2 \
	alphaTstart          1 \
	alphaTmin            1e-10 \
	updateTestStepSize   yes \
	alphaTreduceFactor   0.1 \
	alphaTincreaseFactor 3 \
	nAlphaAdjustMax      3 \
	wolfeEnergy          0.0001 \
	wolfeGradient        0.9 \
	fdTest               no
exchange-regularization WignerSeitzTruncated
fix-electron-density Na-0.28.$VAR
fluid None
fluid-ex-corr (null) lda-PZ
fluid-gummel-loop 10 1.000000e-05
fluid-minimize  \
	dirUpdateScheme      PolakRibiere \
	linminMethod         DirUpdateRecommended \
	nIterations          100 \
	history              15 \
	knormThreshold       0 \
	energyDiffThreshold  0 \
	nEnergyDiff          2 \
	alphaTstart          1 \
	alphaTmin            1e-10 \
	updateTestStepSize   yes \
	alphaTreduceFactor   0.1 \
	alphaTincreaseFactor 3 \
	nAlphaAdjustMax      3 \
	wolfeEnergy          0.0001 \
	wolfeGradient        0.9 \
	fdTest               no
fluid-solvent H2O 55.338 ScalarEOS \
	epsBulk 78.4 \
	pMol 0.92466 \
	epsInf 1.77 \
	Pvap 1.06736e-10 \
	sigmaBulk 4.62e-05 \
	Rvdw 2.61727 \
	Res 1.42 \
	tauNuc 343133 \
	poleEl 15 7 1
forces-output-coords Positions
ion N   0.952380952380952   0.761904761904762   0.000000000000000 0
ion N   1.428571428571428   1.285714285714286   0.280000000000000 0
ion N   0.380952380952381   0.904761904761905   0.000000000000000 0
ion N   0.714285714285714   1.142857142857143   0.280000000000000 0
ion N   0.523809523809524   0.619047619047619   0.000000000000000 0
ion N   1.000000000000000   1.000000000000000   0.280000000000000 0
ion N   0.666666666666667   0.333333333333333   0.000000000000000 0
ion N   1.285714285714286   0.857142857142857   0.280000000000000 0
ion N   0.809523809523810   0.047619047619048   0.000000000000000 0
ion N   1.571428571428571   0.714285714285714   0.280000000000000 0
ion N   0.095238095238095   0.476190476190476   0.000000000000000 0
ion N   0.238095238095238   0.190476190476190   0.000000000000000 0
ion N   0.857142857142857   0.571428571428571   0.280000000000000 0
ion N   1.142857142857143   0.428571428571429   0.280000000000000 0
ion B   0.571428571428572   0.857142857142857   0.000000000000000 0
ion B   0.952380952380952   1.190476190476190   0.280000000000000 0
ion B   0.714285714285714   0.571428571428571   0.000000000000000 0
ion B   1.238095238095238   1.047619047619047   0.280000000000000 0
ion B   0.857142857142857   0.285714285714286   0.000000000000000 0
ion B   1.523809523809524   0.904761904761905   0.280000000000000 0
ion B   0.142857142857143   0.714285714285714   0.000000000000000 0
ion B   0.285714285714286   0.428571428571429   0.000000000000000 0
ion B   0.809523809523810   0.761904761904762   0.280000000000000 0
ion B   0.428571428571429   0.142857142857143   0.000000000000000 0
ion B   1.095238095238095   0.619047619047619   0.280000000000000 0
ion B   1.380952380952381   0.476190476190476   0.280000000000000 0
ion B   0.000000000000000   0.000000000000000   0.000000000000000 0
ion B   0.666666666666667   0.333333333333333   0.280000000000000 0
ion Na   0.333333333300000   0.666666666600000   0.140000000000000 0
ion-species SG15/$ID_ONCV_PBE.upf
ion-width 0
ionic-minimize  \
	dirUpdateScheme      L-BFGS \
	linminMethod         DirUpdateRecommended \
	nIterations          0 \
	history              15 \
	knormThreshold       0.0001 \
	energyDiffThreshold  1e-06 \
	nEnergyDiff          2 \
	alphaTstart          1 \
	alphaTmin            1e-10 \
	updateTestStepSize   yes \
	alphaTreduceFactor   0.1 \
	alphaTincreaseFactor 3 \
	nAlphaAdjustMax      3 \
	wolfeEnergy          0.0001 \
	wolfeGradient        0.9 \
	fdTest               no
kpoint   0.000000000000   0.000000000000   0.000000000000  0.01785714285714
kpoint   0.029411764706   0.000000000000   0.000000000000  0.01785714285714
kpoint   0.058823529412   0.000000000000   0.000000000000  0.01785714285714
kpoint   0.088235294118   0.000000000000   0.000000000000  0.01785714285714
kpoint   0.117647058824   0.000000000000   0.000000000000  0.01785714285714
kpoint   0.147058823529   0.000000000000   0.000000000000  0.01785714285714
kpoint   0.176470588235   0.000000000000   0.000000000000  0.01785714285714
kpoint   0.205882352941   0.000000000000   0.000000000000  0.01785714285714
kpoint   0.235294117647   0.000000000000   0.000000000000  0.01785714285714
kpoint   0.264705882353   0.000000000000   0.000000000000  0.01785714285714
kpoint   0.294117647059   0.000000000000   0.000000000000  0.01785714285714
kpoint   0.323529411765   0.000000000000   0.000000000000  0.01785714285714
kpoint   0.352941176471   0.000000000000   0.000000000000  0.01785714285714
kpoint   0.382352941176   0.000000000000   0.000000000000  0.01785714285714
kpoint   0.411764705882   0.000000000000   0.000000000000  0.01785714285714
kpoint   0.441176470588   0.000000000000   0.000000000000  0.01785714285714
kpoint   0.470588235294   0.000000000000   0.000000000000  0.01785714285714
kpoint   0.500000000000   0.000000000000   0.000000000000  0.01785714285714
kpoint   0.512820512769  -0.025641025385   0.000000000000  0.01785714285714
kpoint   0.525641025538  -0.051282050769   0.000000000000  0.01785714285714
kpoint   0.538461538308  -0.076923076154   0.000000000000  0.01785714285714
kpoint   0.551282051077  -0.102564101538   0.000000000000  0.01785714285714
kpoint   0.564102563846  -0.128205126923   0.000000000000  0.01785714285714
kpoint   0.576923076615  -0.153846152308   0.000000000000  0.01785714285714
kpoint   0.589743589385  -0.179487177692   0.000000000000  0.01785714285714
kpoint   0.602564102154  -0.205128203077   0.000000000000  0.01785714285714
kpoint   0.615384614923  -0.230769228462   0.000000000000  0.01785714285714
kpoint   0.628205127692  -0.256410253846   0.000000000000  0.01785714285714
kpoint   0.641025640462  -0.282051279231   0.000000000000  0.01785714285714
kpoint   0.653846153231  -0.307692304615   0.000000000000  0.01785714285714
kpoint   0.666666666000  -0.333333330000   0.000000000000  0.01785714285714
kpoint   0.639999999360  -0.319999996800   0.000000000000  0.01785714285714
kpoint   0.613333332720  -0.306666663600   0.000000000000  0.01785714285714
kpoint   0.586666666080  -0.293333330400   0.000000000000  0.01785714285714
kpoint   0.559999999440  -0.279999997200   0.000000000000  0.01785714285714
kpoint   0.533333332800  -0.266666664000   0.000000000000  0.01785714285714
kpoint   0.506666666160  -0.253333330800   0.000000000000  0.01785714285714
kpoint   0.479999999520  -0.239999997600   0.000000000000  0.01785714285714
kpoint   0.453333332880  -0.226666664400   0.000000000000  0.01785714285714
kpoint   0.426666666240  -0.213333331200   0.000000000000  0.01785714285714
kpoint   0.399999999600  -0.199999998000   0.000000000000  0.01785714285714
kpoint   0.373333332960  -0.186666664800   0.000000000000  0.01785714285714
kpoint   0.346666666320  -0.173333331600   0.000000000000  0.01785714285714
kpoint   0.319999999680  -0.159999998400   0.000000000000  0.01785714285714
kpoint   0.293333333040  -0.146666665200   0.000000000000  0.01785714285714
kpoint   0.266666666400  -0.133333332000   0.000000000000  0.01785714285714
kpoint   0.239999999760  -0.119999998800   0.000000000000  0.01785714285714
kpoint   0.213333333120  -0.106666665600   0.000000000000  0.01785714285714
kpoint   0.186666666480  -0.093333332400   0.000000000000  0.01785714285714
kpoint   0.159999999840  -0.079999999200   0.000000000000  0.01785714285714
kpoint   0.133333333200  -0.066666666000   0.000000000000  0.01785714285714
kpoint   0.106666666560  -0.053333332800   0.000000000000  0.01785714285714
kpoint   0.079999999920  -0.039999999600   0.000000000000  0.01785714285714
kpoint   0.053333333280  -0.026666666400   0.000000000000  0.01785714285714
kpoint   0.026666666640  -0.013333333200   0.000000000000  0.01785714285714
kpoint   0.000000000000   0.000000000000   0.000000000000  0.01785714285714
kpoint-folding 1 1 1 
latt-move-scale 1 1 1
latt-scale 1 1 1 
lattice  \
	 -11.818700000000000    2.363740000000000    0.000000000000000  \
	   4.094120000000000  -12.282400000000001    0.000000000000000  \
	   0.000000000000000    0.000000000000000   40.000000000000000 
lattice-minimize  \
	dirUpdateScheme      L-BFGS \
	linminMethod         DirUpdateRecommended \
	nIterations          0 \
	history              15 \
	knormThreshold       0 \
	energyDiffThreshold  1e-06 \
	nEnergyDiff          2 \
	alphaTstart          1 \
	alphaTmin            1e-10 \
	updateTestStepSize   yes \
	alphaTreduceFactor   0.1 \
	alphaTincreaseFactor 3 \
	nAlphaAdjustMax      3 \
	wolfeEnergy          0.0001 \
	wolfeGradient        0.9 \
	fdTest               no
lcao-params -1 1e-06 1e-05
pcm-variant GLSSA13
spintype z-spin
subspace-rotation-factor 1 yes
symmetries none
symmetry-threshold 0.0001
van-der-waals D3


Applied RMS atom displacement 0 bohrs to make symmetries exact.

---------- Initializing the Grid ----------
R = 
[     -11.8187      2.36374            0  ]
[      4.09412     -12.2824            0  ]
[            0            0           40  ]
unit cell volume = 5419.38
G =
[  -0.569604   -0.10962          0  ]
[  -0.189867    -0.5481          0  ]
[          0          0    0.15708  ]
Minimum fftbox size, Smin = [  52  52  164  ]
Chosen fftbox size, S = [  54  54  168  ]

---------- Exchange Correlation functional ----------
Initalized PBE GGA exchange.
Initalized PBE GGA correlation.

---------- Setting up pseudopotentials ----------
Width of ionic core gaussian charges (only for fluid interactions / plotting) set to 0

Reading pseudopotential file '/home/gridsan/aligho/DFT/build-Nov24/pseudopotentials/SG15/N_ONCV_PBE.upf':
  'N' pseudopotential, 'PBE' functional
  Generated using ONCVPSP code by D. R. Hamann
  Author: Martin Schlipf and Francois Gygi  Date: 150915.
  5 valence electrons, 2 orbitals, 4 projectors, 1058 radial grid points, with lMax = 1
  Transforming local potential to a uniform radial grid of dG=0.02 with 1514 points.
  Transforming nonlocal projectors to a uniform radial grid of dG=0.02 with 432 points.
    2S    l: 0   occupation:  2.0   eigenvalue: -0.682907
    2P    l: 1   occupation:  3.0   eigenvalue: -0.260548
  Transforming atomic orbitals to a uniform radial grid of dG=0.02 with 432 points.
  Core radius for overlap checks: 1.35 bohrs.
  Reading pulay file /home/gridsan/aligho/DFT/build-Nov24/pseudopotentials/SG15/N_ONCV_PBE.pulay ... using dE_dnG = -2.956256e-02 computed for Ecut = 20.

Reading pseudopotential file '/home/gridsan/aligho/DFT/build-Nov24/pseudopotentials/SG15/B_ONCV_PBE.upf':
  'B' pseudopotential, 'PBE' functional
  Generated using ONCVPSP code by D. R. Hamann
  Author: Martin Schlipf and Francois Gygi  Date: 150915.
  3 valence electrons, 2 orbitals, 4 projectors, 1534 radial grid points, with lMax = 1
  Transforming local potential to a uniform radial grid of dG=0.02 with 1514 points.
  Transforming nonlocal projectors to a uniform radial grid of dG=0.02 with 432 points.
    2S    l: 0   occupation:  2.0   eigenvalue: -0.347027
    2P    l: 1   occupation:  1.0   eigenvalue: -0.132548
  Transforming atomic orbitals to a uniform radial grid of dG=0.02 with 432 points.
  Core radius for overlap checks: 1.60 bohrs.
  Reading pulay file /home/gridsan/aligho/DFT/build-Nov24/pseudopotentials/SG15/B_ONCV_PBE.pulay ... using dE_dnG = -3.748568e-04 computed for Ecut = 20.

Reading pseudopotential file '/home/gridsan/aligho/DFT/build-Nov24/pseudopotentials/SG15/Na_ONCV_PBE.upf':
  'Na' pseudopotential, 'PBE' functional
  Generated using ONCVPSP code by D. R. Hamann
  Author: Martin Schlipf and Francois Gygi  Date: 150915.
  9 valence electrons, 3 orbitals, 4 projectors, 1992 radial grid points, with lMax = 1
  Transforming local potential to a uniform radial grid of dG=0.02 with 1514 points.
  Transforming nonlocal projectors to a uniform radial grid of dG=0.02 with 432 points.
    2S    l: 0   occupation:  2.0   eigenvalue: -2.085640
    2P    l: 1   occupation:  6.0   eigenvalue: -1.053708
    3S    l: 0   occupation:  1.0   eigenvalue: -0.100838
  Transforming atomic orbitals to a uniform radial grid of dG=0.02 with 432 points.
  Core radius for overlap checks: 2.01 bohrs.
  Reading pulay file /home/gridsan/aligho/DFT/build-Nov24/pseudopotentials/SG15/Na_ONCV_PBE.pulay ... using dE_dnG = -2.946487e-03 computed for Ecut = 20.

Initialized 3 species with 29 total atoms.

Folded 56 k-points by 1x1x1 to 56 k-points.

---------- Setting up k-points, bands, fillings ----------
No reducable k-points. 
Computing the number of bands and number of electrons
Calculating initial fillings.
nElectrons: 121.000000   nBands: 117   nStates: 112

----- Setting up reduced wavefunction bases (one per k-point) -----
average nbasis = 23160.018 , ideal nbasis = 23152.016

---------- Setting up coulomb interaction ----------
Initialized slab truncation along lattice direction 001

Initializing DFT-D3 calculator:
	Parameters set for gga-PBE functional
	s6:  1.000  s_r6:  1.217
	s8:  0.722  s_r8:  1.000
	Per-atom parameters loaded for:
	 N:  sqrtQ[a0]:  2.712  Rcov[a0]:  1.342  CN: [ 0.00 0.99 2.01 2.99 ]
	 B:  sqrtQ[a0]:  3.644  Rcov[a0]:  1.455  CN: [ 0.00 0.97 1.94 2.91 4.59 ]
	Na:  sqrtQ[a0]:  6.586  Rcov[a0]:  2.646  CN: [ 0.00 0.97 ]

---------- Setting up 2D ewald sum ----------
Optimum gaussian width for ewald sums = 6.943804 bohr.
Real space sums over 289 unit cells with max indices [  8  8  0  ]
Reciprocal space sums over 81 terms with max indices [  4  4  0  ]

Computing DFT-D3 correction:
# coordination-number N 3.144 3.144 3.224 3.144 3.224 3.140 3.140 3.224 3.144 3.224 3.224 3.144 3.144 3.224
# coordination-number B 3.464 3.350 3.350 3.350 3.350 3.464 3.464 3.464 3.350 3.350 3.464 3.464 3.345 3.345
# coordination-number Na 1.405
# diagonal-C6 N 15.61 15.61 15.60 15.61 15.60 15.61 15.61 15.60 15.61 15.60 15.60 15.61 15.61 15.60
# diagonal-C6 B 31.37 31.44 31.44 31.44 31.44 31.37 31.37 31.37 31.44 31.44 31.37 31.37 31.44 31.44
# diagonal-C6 Na 186.62
EvdW_6 =   -0.032203
EvdW_8 =   -0.030692

---------- Allocating electronic variables ----------
Reading n_up from file 'Na-0.28.n_up' ... done
Reading n_dn from file 'Na-0.28.n_dn' ... done
Initializing wave functions:  linear combination of atomic orbitals
[d-17-12-4:54227] 56 more processes have sent help message help-mpi-common-cuda.txt / dlopen failed
[d-17-12-4:54227] Set MCA parameter "orte_base_help_aggregate" to 0 to see all help / error messages
[d-17-12-4:54227] 57 more processes have sent help message help-mpi-btl-openib-cpc-base.txt / no cpcs for port


---- Citations for features of the code used in this run ----

   Software package:
      R. Sundararaman, K. Letchworth-Weaver, K.A. Schwarz, D. Gunceler, Y. Ozhabes and T.A. Arias, 'JDFTx: software for joint density-functional theory', SoftwareX 6, 278 (2017)

   gga-PBE exchange-correlation functional:
      J.P. Perdew, K. Burke and M. Ernzerhof, Phys. Rev. Lett. 77, 3865 (1996)

   Pseudopotentials:
      M Schlipf and F Gygi, Comput. Phys. Commun. 196, 36 (2015)

   Truncated Coulomb potentials:
      R. Sundararaman and T.A. Arias, Phys. Rev. B 87, 165122 (2013)

   DFT-D3 dispersion correction:
      S. Grimme, J. Antony, S. Ehrlich and H. Krieg, J. Chem. Phys. 132, 154104 (2010)

   Total energy minimization with Auxiliary Hamiltonian:
      C. Freysoldt, S. Boeck, and J. Neugebauer, Phys. Rev. B 79, 241103(R) (2009)

This list may not be complete. Please suggest additional citations or
report any other bugs at https://github.com/shankar1729/jdftx/issues

Initialization completed successfully at t[s]:     17.82


----------- Band structure minimization -------------
Minimization will be done independently for each quantum number.

---- Minimization of quantum number:     0  [ +0.0000000 +0.0000000 +0.0000000 ]  0.017857143  spin +1 ----
BandDavidson: Iter:   0  Eband: -0.228399896745681
BandDavidson: Iter:   1  Eband: -0.357608353436959  dEband: -1.292085e-01  t[s]:     29.27
BandDavidson: Iter:   2  Eband: -0.401211764572729  dEband: -4.360341e-02  t[s]:     35.93
BandDavidson: Iter:   3  Eband: -0.416011232389834  dEband: -1.479947e-02  t[s]:     42.60
BandDavidson: Iter:   4  Eband: -0.428569148697238  dEband: -1.255792e-02  t[s]:     49.37
BandDavidson: Iter:   5  Eband: -0.434406829864315  dEband: -5.837681e-03  t[s]:     56.12
BandDavidson: Iter:   6  Eband: -0.438121407441849  dEband: -3.714578e-03  t[s]:     62.85
BandDavidson: Iter:   7  Eband: -0.440638151989716  dEband: -2.516745e-03  t[s]:     69.55
BandDavidson: Iter:   8  Eband: -0.441532762678371  dEband: -8.946107e-04  t[s]:     76.24
BandDavidson: Iter:   9  Eband: -0.442219900890192  dEband: -6.871382e-04  t[s]:     82.96
BandDavidson: Iter:  10  Eband: -0.442710542751064  dEband: -4.906419e-04  t[s]:     89.66
BandDavidson: Iter:  11  Eband: -0.443067897184872  dEband: -3.573544e-04  t[s]:     96.37
BandDavidson: Iter:  12  Eband: -0.443342873123503  dEband: -2.749759e-04  t[s]:    103.09
BandDavidson: Iter:  13  Eband: -0.443559714551357  dEband: -2.168414e-04  t[s]:    109.70
BandDavidson: Iter:  14  Eband: -0.443732808320249  dEband: -1.730938e-04  t[s]:    116.32
BandDavidson: Iter:  15  Eband: -0.443872446654380  dEband: -1.396383e-04  t[s]:    122.91
BandDavidson: Iter:  16  Eband: -0.443985744357289  dEband: -1.132977e-04  t[s]:    129.45
BandDavidson: Iter:  17  Eband: -0.444077846961606  dEband: -9.210260e-05  t[s]:    135.98
BandDavidson: Iter:  18  Eband: -0.444153114977120  dEband: -7.526802e-05  t[s]:    142.57
BandDavidson: Iter:  19  Eband: -0.444213800570963  dEband: -6.068559e-05  t[s]:    149.13
BandDavidson: Iter:  20  Eband: -0.444262850334703  dEband: -4.904976e-05  t[s]:    155.51
BandDavidson: Iter:  21  Eband: -0.444302085368752  dEband: -3.923503e-05  t[s]:    161.89
BandDavidson: Iter:  22  Eband: -0.444333555134957  dEband: -3.146977e-05  t[s]:    168.27
BandDavidson: Iter:  23  Eband: -0.444358433310200  dEband: -2.487818e-05  t[s]:    174.63
BandDavidson: Iter:  24  Eband: -0.444378006495077  dEband: -1.957318e-05  t[s]:    180.98
BandDavidson: Iter:  25  Eband: -0.444393294031966  dEband: -1.528754e-05  t[s]:    187.32
BandDavidson: Iter:  26  Eband: -0.444405189124458  dEband: -1.189509e-05  t[s]:    193.66
BandDavidson: Iter:  27  Eband: -0.444414447812031  dEband: -9.258688e-06  t[s]:    200.00
BandDavidson: Iter:  28  Eband: -0.444421589076344  dEband: -7.141264e-06  t[s]:    206.06
BandDavidson: Iter:  29  Eband: -0.444427104135641  dEband: -5.515059e-06  t[s]:    211.90
BandDavidson: Iter:  30  Eband: -0.444431342538154  dEband: -4.238403e-06  t[s]:    217.37
BandDavidson: Iter:  31  Eband: -0.444434586699847  dEband: -3.244162e-06  t[s]:    222.52
BandDavidson: Iter:  32  Eband: -0.444437086870643  dEband: -2.500171e-06  t[s]:    227.42
BandDavidson: Iter:  33  Eband: -0.444439836725411  dEband: -2.749855e-06  t[s]:    232.18
BandDavidson: Iter:  34  Eband: -0.444442171761859  dEband: -2.335036e-06  t[s]:    236.95
BandDavidson: Iter:  35  Eband: -0.444444049774142  dEband: -1.878012e-06  t[s]:    241.69
BandDavidson: Iter:  36  Eband: -0.444445548988667  dEband: -1.499215e-06  t[s]:    246.05
BandDavidson: Iter:  37  Eband: -0.444446756680717  dEband: -1.207692e-06  t[s]:    250.32
BandDavidson: Iter:  38  Eband: -0.444447732736163  dEband: -9.760554e-07  t[s]:    254.62
BandDavidson: Iter:  39  Eband: -0.444448528559765  dEband: -7.958236e-07  t[s]:    258.84
BandDavidson: Iter:  40  Eband: -0.444449178989100  dEband: -6.504293e-07  t[s]:    263.14
BandDavidson: Iter:  41  Eband: -0.444449711765225  dEband: -5.327761e-07  t[s]:    267.42
BandDavidson: Iter:  42  Eband: -0.444450149485472  dEband: -4.377202e-07  t[s]:    271.69
BandDavidson: Iter:  43  Eband: -0.444450510743874  dEband: -3.612584e-07  t[s]:    275.97
BandDavidson: Iter:  44  Eband: -0.444450809796893  dEband: -2.990530e-07  t[s]:    280.18
BandDavidson: Iter:  45  Eband: -0.444451057697948  dEband: -2.479011e-07  t[s]:    284.40
BandDavidson: Iter:  46  Eband: -0.444451263844189  dEband: -2.061462e-07  t[s]:    288.63
BandDavidson: Iter:  47  Eband: -0.444451435230882  dEband: -1.713867e-07  t[s]:    292.84
BandDavidson: Iter:  48  Eband: -0.444451577931270  dEband: -1.427004e-07  t[s]:    297.05
BandDavidson: Iter:  49  Eband: -0.444451696572911  dEband: -1.186416e-07  t[s]:    301.08
BandDavidson: Iter:  50  Eband: -0.444451795090174  dEband: -9.851726e-08  t[s]:    305.14
BandDavidson: Iter:  51  Eband: -0.444451877198321  dEband: -8.210815e-08  t[s]:    309.17
BandDavidson: Iter:  52  Eband: -0.444451945526671  dEband: -6.832835e-08  t[s]:    312.99
BandDavidson: Iter:  53  Eband: -0.444452002318539  dEband: -5.679187e-08  t[s]:    316.69
BandDavidson: Iter:  54  Eband: -0.444452049547484  dEband: -4.722895e-08  t[s]:    320.36
BandDavidson: Iter:  55  Eband: -0.444452089142346  dEband: -3.959486e-08  t[s]:    324.04
BandDavidson: Iter:  56  Eband: -0.444452122272060  dEband: -3.312971e-08  t[s]:    327.63
BandDavidson: Iter:  57  Eband: -0.444452150046421  dEband: -2.777436e-08  t[s]:    331.23
BandDavidson: Iter:  58  Eband: -0.444452173343408  dEband: -2.329699e-08  t[s]:    334.84
BandDavidson: Iter:  59  Eband: -0.444452192936695  dEband: -1.959329e-08  t[s]:    338.43
BandDavidson: Iter:  60  Eband: -0.444452209391214  dEband: -1.645452e-08  t[s]:    342.03
BandDavidson: Iter:  61  Eband: -0.444452223238978  dEband: -1.384776e-08  t[s]:    345.63
BandDavidson: Iter:  62  Eband: -0.444452234888038  dEband: -1.164906e-08  t[s]:    349.18
BandDavidson: Iter:  63  Eband: -0.444452244673216  dEband: -9.785178e-09  t[s]:    352.67
BandDavidson: Converged (dEband<1.000000e-08)
Setting wave functions to eigenvectors of Hamiltonian
	FillingsUpdate:  mu: -0.080926666  nElectrons: 121.000000  magneticMoment: [ Abs: 0.01400  Tot: +0.01389 ]

Dumping 'Na-bands-0.28.eigenvals' ... done
End date and time: Mon Jan 24 05:36:57 2022  (Duration: 0-0:14:48.29)
Done!
