Second Layer Distance is 0.322

--------------------------------------------------------------------------
The library attempted to open the following supporting CUDA libraries,
but each of them failed.  CUDA-aware support is disabled.
libcuda.so.1: cannot open shared object file: No such file or directory
libcuda.dylib: cannot open shared object file: No such file or directory
/usr/lib64/libcuda.so.1: cannot open shared object file: No such file or directory
/usr/lib64/libcuda.dylib: cannot open shared object file: No such file or directory
If you are not interested in CUDA-aware support, then run with
--mca opal_warn_on_missing_libcuda 0 to suppress this message.  If you are interested
in CUDA-aware support, then try setting LD_LIBRARY_PATH to the location
of libcuda.so.1 to get passed this issue.
--------------------------------------------------------------------------
--------------------------------------------------------------------------
No OpenFabrics connection schemes reported that they were able to be
used on a specific port.  As such, the openib BTL (OpenFabrics
support) will be disabled for this port.

  Local host:           d-16-11-4
  Local device:         mlx5_1
  Local port:           1
  CPCs attempted:       rdmacm, udcm
--------------------------------------------------------------------------

*************** JDFTx 1.6.0 (git hash 42ebbcc2) ***************

Start date and time: Sun Jan 23 16:36:04 2022
Executable jdftx with command-line: -i Moire.in
Running on hosts (process indices):  d-16-11-4 (0-18)
Divided in process groups (process indices):  0 (0)  1 (1)  2 (2)  3 (3)  4 (4)  5 (5)  6 (6)  7 (7)  8 (8)  9 (9)  10 (10)  11 (11)  12 (12)  13 (13)  14 (14)  15 (15)  16 (16)  17 (17)  18 (18)
Resource initialization completed at t[s]:      0.00
Run totals: 19 processes, 48 threads, 0 GPUs


Input parsed successfully to the following command list (including defaults):

basis kpoint-dependent
coords-type Lattice
core-overlap-check vector
coulomb-interaction Slab 001
davidson-band-ratio 1.1
dump End State ElecDensity BandEigs
dump-name Na-0.322.$VAR
elec-cutoff 20
elec-eigen-algo Davidson
elec-ex-corr gga-PBE
elec-initial-magnetization 0.100000 no
elec-smearing Fermi 1e-05
electronic-minimize  \
	dirUpdateScheme      FletcherReeves \
	linminMethod         DirUpdateRecommended \
	nIterations          100 \
	history              15 \
	knormThreshold       0 \
	energyDiffThreshold  1e-08 \
	nEnergyDiff          2 \
	alphaTstart          1 \
	alphaTmin            1e-10 \
	updateTestStepSize   yes \
	alphaTreduceFactor   0.1 \
	alphaTincreaseFactor 3 \
	nAlphaAdjustMax      3 \
	wolfeEnergy          0.0001 \
	wolfeGradient        0.9 \
	fdTest               no
electronic-scf  \
	nIterations	1000 \
	energyDiffThreshold	1e-08 \
	residualThreshold	1e-07 \
	mixFraction	0.5 \
	qMetric	0.8 \
	history	10 \
	nEigSteps	2 \
	eigDiffThreshold	1e-08 \
	mixedVariable	Density \
	qKerker	0.8 \
	qKappa	-1 \
	verbose	no \
	mixFractionMag	1.5
exchange-regularization WignerSeitzTruncated
fluid None
fluid-ex-corr (null) lda-PZ
fluid-gummel-loop 10 1.000000e-05
fluid-minimize  \
	dirUpdateScheme      PolakRibiere \
	linminMethod         DirUpdateRecommended \
	nIterations          100 \
	history              15 \
	knormThreshold       0 \
	energyDiffThreshold  0 \
	nEnergyDiff          2 \
	alphaTstart          1 \
	alphaTmin            1e-10 \
	updateTestStepSize   yes \
	alphaTreduceFactor   0.1 \
	alphaTincreaseFactor 3 \
	nAlphaAdjustMax      3 \
	wolfeEnergy          0.0001 \
	wolfeGradient        0.9 \
	fdTest               no
fluid-solvent H2O 55.338 ScalarEOS \
	epsBulk 78.4 \
	pMol 0.92466 \
	epsInf 1.77 \
	Pvap 1.06736e-10 \
	sigmaBulk 4.62e-05 \
	Rvdw 2.61727 \
	Res 1.42 \
	tauNuc 343133 \
	poleEl 15 7 1
forces-output-coords Positions
ion N   0.952380952380952   0.761904761904762   0.000000000000000 0
ion N   1.428571428571428   1.285714285714286   0.322000000000000 0
ion N   0.380952380952381   0.904761904761905   0.000000000000000 0
ion N   0.714285714285714   1.142857142857143   0.322000000000000 0
ion N   0.523809523809524   0.619047619047619   0.000000000000000 0
ion N   1.000000000000000   1.000000000000000   0.322000000000000 0
ion N   0.666666666666667   0.333333333333333   0.000000000000000 0
ion N   1.285714285714286   0.857142857142857   0.322000000000000 0
ion N   0.809523809523810   0.047619047619048   0.000000000000000 0
ion N   1.571428571428571   0.714285714285714   0.322000000000000 0
ion N   0.095238095238095   0.476190476190476   0.000000000000000 0
ion N   0.238095238095238   0.190476190476190   0.000000000000000 0
ion N   0.857142857142857   0.571428571428571   0.322000000000000 0
ion N   1.142857142857143   0.428571428571429   0.322000000000000 0
ion B   0.571428571428572   0.857142857142857   0.000000000000000 0
ion B   0.952380952380952   1.190476190476190   0.322000000000000 0
ion B   0.714285714285714   0.571428571428571   0.000000000000000 0
ion B   1.238095238095238   1.047619047619047   0.322000000000000 0
ion B   0.857142857142857   0.285714285714286   0.000000000000000 0
ion B   1.523809523809524   0.904761904761905   0.322000000000000 0
ion B   0.142857142857143   0.714285714285714   0.000000000000000 0
ion B   0.285714285714286   0.428571428571429   0.000000000000000 0
ion B   0.809523809523810   0.761904761904762   0.322000000000000 0
ion B   0.428571428571429   0.142857142857143   0.000000000000000 0
ion B   1.095238095238095   0.619047619047619   0.322000000000000 0
ion B   1.380952380952381   0.476190476190476   0.322000000000000 0
ion B   0.000000000000000   0.000000000000000   0.000000000000000 0
ion B   0.666666666666667   0.333333333333333   0.322000000000000 0
ion Na   0.333333333300000   0.666666666600000   0.161000000000000 0
ion-species SG15/$ID_ONCV_PBE.upf
ion-width 0
ionic-minimize  \
	dirUpdateScheme      L-BFGS \
	linminMethod         DirUpdateRecommended \
	nIterations          0 \
	history              15 \
	knormThreshold       0.0001 \
	energyDiffThreshold  1e-06 \
	nEnergyDiff          2 \
	alphaTstart          1 \
	alphaTmin            1e-10 \
	updateTestStepSize   yes \
	alphaTreduceFactor   0.1 \
	alphaTincreaseFactor 3 \
	nAlphaAdjustMax      3 \
	wolfeEnergy          0.0001 \
	wolfeGradient        0.9 \
	fdTest               no
kpoint   0.000000000000   0.000000000000   0.000000000000  1.00000000000000
kpoint-folding 12 12 1 
latt-move-scale 1 1 1
latt-scale 1 1 1 
lattice  \
	 -11.818700000000000    2.363740000000000    0.000000000000000  \
	   4.094120000000000  -12.282400000000001    0.000000000000000  \
	   0.000000000000000    0.000000000000000   40.000000000000000 
lattice-minimize  \
	dirUpdateScheme      L-BFGS \
	linminMethod         DirUpdateRecommended \
	nIterations          0 \
	history              15 \
	knormThreshold       0 \
	energyDiffThreshold  1e-06 \
	nEnergyDiff          2 \
	alphaTstart          1 \
	alphaTmin            1e-10 \
	updateTestStepSize   yes \
	alphaTreduceFactor   0.1 \
	alphaTincreaseFactor 3 \
	nAlphaAdjustMax      3 \
	wolfeEnergy          0.0001 \
	wolfeGradient        0.9 \
	fdTest               no
lcao-params -1 1e-06 1e-05
pcm-variant GLSSA13
spintype z-spin
subspace-rotation-factor 1 yes
symmetries automatic
symmetry-threshold 0.0001
van-der-waals D3



---------- Setting up symmetries ----------

Found 24 point-group symmetries of the bravais lattice
Found 6 space-group symmetries with basis
Applied RMS atom displacement 1.31765e-10 bohrs to make symmetries exact.

---------- Initializing the Grid ----------
R = 
[     -11.8187      2.36374            0  ]
[      4.09412     -12.2824            0  ]
[            0            0           40  ]
unit cell volume = 5419.38
G =
[  -0.569604   -0.10962          0  ]
[  -0.189867    -0.5481          0  ]
[          0          0    0.15708  ]
Minimum fftbox size, Smin = [  52  52  164  ]
Chosen fftbox size, S = [  54  54  168  ]

---------- Exchange Correlation functional ----------
Initalized PBE GGA exchange.
Initalized PBE GGA correlation.

---------- Setting up pseudopotentials ----------
Width of ionic core gaussian charges (only for fluid interactions / plotting) set to 0

Reading pseudopotential file '/home/gridsan/aligho/DFT/build-Nov24/pseudopotentials/SG15/N_ONCV_PBE.upf':
  'N' pseudopotential, 'PBE' functional
  Generated using ONCVPSP code by D. R. Hamann
  Author: Martin Schlipf and Francois Gygi  Date: 150915.
  5 valence electrons, 2 orbitals, 4 projectors, 1058 radial grid points, with lMax = 1
  Transforming local potential to a uniform radial grid of dG=0.02 with 1514 points.
  Transforming nonlocal projectors to a uniform radial grid of dG=0.02 with 432 points.
    2S    l: 0   occupation:  2.0   eigenvalue: -0.682907
    2P    l: 1   occupation:  3.0   eigenvalue: -0.260548
  Transforming atomic orbitals to a uniform radial grid of dG=0.02 with 432 points.
  Core radius for overlap checks: 1.35 bohrs.
  Reading pulay file /home/gridsan/aligho/DFT/build-Nov24/pseudopotentials/SG15/N_ONCV_PBE.pulay ... using dE_dnG = -2.956256e-02 computed for Ecut = 20.

Reading pseudopotential file '/home/gridsan/aligho/DFT/build-Nov24/pseudopotentials/SG15/B_ONCV_PBE.upf':
  'B' pseudopotential, 'PBE' functional
  Generated using ONCVPSP code by D. R. Hamann
  Author: Martin Schlipf and Francois Gygi  Date: 150915.
  3 valence electrons, 2 orbitals, 4 projectors, 1534 radial grid points, with lMax = 1
  Transforming local potential to a uniform radial grid of dG=0.02 with 1514 points.
  Transforming nonlocal projectors to a uniform radial grid of dG=0.02 with 432 points.
    2S    l: 0   occupation:  2.0   eigenvalue: -0.347027
    2P    l: 1   occupation:  1.0   eigenvalue: -0.132548
  Transforming atomic orbitals to a uniform radial grid of dG=0.02 with 432 points.
  Core radius for overlap checks: 1.60 bohrs.
  Reading pulay file /home/gridsan/aligho/DFT/build-Nov24/pseudopotentials/SG15/B_ONCV_PBE.pulay ... using dE_dnG = -3.748568e-04 computed for Ecut = 20.

Reading pseudopotential file '/home/gridsan/aligho/DFT/build-Nov24/pseudopotentials/SG15/Na_ONCV_PBE.upf':
  'Na' pseudopotential, 'PBE' functional
  Generated using ONCVPSP code by D. R. Hamann
  Author: Martin Schlipf and Francois Gygi  Date: 150915.
  9 valence electrons, 3 orbitals, 4 projectors, 1992 radial grid points, with lMax = 1
  Transforming local potential to a uniform radial grid of dG=0.02 with 1514 points.
  Transforming nonlocal projectors to a uniform radial grid of dG=0.02 with 432 points.
    2S    l: 0   occupation:  2.0   eigenvalue: -2.085640
    2P    l: 1   occupation:  6.0   eigenvalue: -1.053708
    3S    l: 0   occupation:  1.0   eigenvalue: -0.100838
  Transforming atomic orbitals to a uniform radial grid of dG=0.02 with 432 points.
  Core radius for overlap checks: 2.01 bohrs.
  Reading pulay file /home/gridsan/aligho/DFT/build-Nov24/pseudopotentials/SG15/Na_ONCV_PBE.pulay ... using dE_dnG = -2.946487e-03 computed for Ecut = 20.

Initialized 3 species with 29 total atoms.

Folded 1 k-points by 12x12x1 to 144 k-points.

---------- Setting up k-points, bands, fillings ----------
Adding inversion symmetry to k-mesh for non-inversion-symmetric unit cell.
Reduced to 19 k-points under symmetry. 
Computing the number of bands and number of electrons
Calculating initial fillings.
nElectrons: 121.000000   nBands: 117   nStates: 38

----- Setting up reduced wavefunction bases (one per k-point) -----
average nbasis = 23151.771 , ideal nbasis = 23152.016

---------- Setting up coulomb interaction ----------
Initialized slab truncation along lattice direction 001

Initializing DFT-D3 calculator:
	Parameters set for gga-PBE functional
	s6:  1.000  s_r6:  1.217
	s8:  0.722  s_r8:  1.000
	Per-atom parameters loaded for:
	 N:  sqrtQ[a0]:  2.712  Rcov[a0]:  1.342  CN: [ 0.00 0.99 2.01 2.99 ]
	 B:  sqrtQ[a0]:  3.644  Rcov[a0]:  1.455  CN: [ 0.00 0.97 1.94 2.91 4.59 ]
	Na:  sqrtQ[a0]:  6.586  Rcov[a0]:  2.646  CN: [ 0.00 0.97 ]

---------- Setting up 2D ewald sum ----------
Optimum gaussian width for ewald sums = 6.943804 bohr.
Real space sums over 289 unit cells with max indices [  8  8  0  ]
Reciprocal space sums over 81 terms with max indices [  4  4  0  ]

Computing DFT-D3 correction:
# coordination-number N 3.140 3.140 3.158 3.140 3.158 3.138 3.138 3.158 3.140 3.158 3.158 3.140 3.140 3.158
# coordination-number B 3.370 3.345 3.345 3.345 3.345 3.370 3.370 3.370 3.345 3.345 3.370 3.370 3.343 3.343
# coordination-number Na 0.379
# diagonal-C6 N 15.61 15.61 15.60 15.61 15.60 15.61 15.61 15.60 15.61 15.60 15.60 15.61 15.61 15.60
# diagonal-C6 B 31.43 31.44 31.44 31.44 31.44 31.43 31.43 31.43 31.44 31.44 31.43 31.43 31.44 31.44
# diagonal-C6 Na 1006.56
EvdW_6 =   -0.031356
EvdW_8 =   -0.029506

---------- Allocating electronic variables ----------
Initializing wave functions:  linear combination of atomic orbitals
N pseudo-atom occupations:   s ( 2 )  p ( 3 )
[d-16-11-4:25144] 18 more processes have sent help message help-mpi-common-cuda.txt / dlopen failed
[d-16-11-4:25144] Set MCA parameter "orte_base_help_aggregate" to 0 to see all help / error messages
[d-16-11-4:25144] 18 more processes have sent help message help-mpi-btl-openib-cpc-base.txt / no cpcs for port
B pseudo-atom occupations:   s ( 2 )  p ( 1 )
Na pseudo-atom occupations:   s ( 2 1 )  p ( 6 )
	FillingsUpdate:  mu: -0.118309295  nElectrons: 121.000000  magneticMoment: [ Abs: 0.13062  Tot: -0.07296 ]
LCAOMinimize: Iter:   0  F: -219.4201548282406407  |grad|_K:  3.840e-03  alpha:  1.000e+00
	FillingsUpdate:  mu: -0.227752292  nElectrons: 121.000000  magneticMoment: [ Abs: 0.16439  Tot: +0.06944 ]
LCAOMinimize: Iter:   1  F: -220.7901438732817212  |grad|_K:  6.131e-04  alpha:  4.464e-01  linmin:  2.461e-01  cgtest: -1.158e+00  t[s]:     48.87
LCAOMinimize: 	Bad step direction: g.d > 0.
LCAOMinimize: 	Undoing step.
LCAOMinimize: 	Step failed: resetting search direction.
	FillingsUpdate:  mu: -0.227752292  nElectrons: 121.000000  magneticMoment: [ Abs: 0.16439  Tot: +0.06944 ]
LCAOMinimize: Iter:   2  F: -220.7901438732817212  |grad|_K:  6.131e-04  alpha:  0.000e+00
	FillingsUpdate:  mu: -0.130423382  nElectrons: 121.000000  magneticMoment: [ Abs: 0.05990  Tot: -0.01389 ]
LCAOMinimize: Iter:   3  F: -220.8344565072559362  |grad|_K:  1.807e-04  alpha:  4.451e-01  linmin:  2.237e-01  cgtest: -6.330e-01  t[s]:     73.80
LCAOMinimize: 	Wrong curvature in test step, increasing alphaT to 1.335212e+00.
	FillingsUpdate:  mu: -0.160962919  nElectrons: 121.000000  magneticMoment: [ Abs: 0.05075  Tot: -0.01389 ]
LCAOMinimize: Iter:   4  F: -220.8424414706563255  |grad|_K:  1.643e-04  alpha: -1.221e-01  linmin:  5.240e-02  cgtest:  2.354e-01  t[s]:     88.03
	FillingsUpdate:  mu: -0.168593908  nElectrons: 121.000000  magneticMoment: [ Abs: 0.09985  Tot: +0.01389 ]
LCAOMinimize: Iter:   5  F: -220.8426130134718051  |grad|_K:  4.231e-04  alpha:  1.020e-01  linmin:  5.409e-03  cgtest:  3.309e-01  t[s]:    102.54
LCAOMinimize: 	Bad step direction: g.d > 0.
LCAOMinimize: 	Undoing step.
LCAOMinimize: 	Step failed: resetting search direction.
	FillingsUpdate:  mu: -0.168593908  nElectrons: 121.000000  magneticMoment: [ Abs: 0.09985  Tot: +0.01389 ]
LCAOMinimize: Iter:   6  F: -220.8426130134718051  |grad|_K:  4.231e-04  alpha:  0.000e+00
	FillingsUpdate:  mu: -0.161158118  nElectrons: 121.000000  magneticMoment: [ Abs: 0.04684  Tot: -0.01389 ]
LCAOMinimize: Iter:   7  F: -220.8438053099615104  |grad|_K:  1.191e-04  alpha:  6.068e-02  linmin: -5.288e-01  cgtest:  2.328e+00  t[s]:    127.43
LCAOMinimize: Encountered beta<0, resetting CG.
LCAOMinimize: 	Predicted alpha/alphaT>3.000000, increasing alphaT to 1.820303e-01.
	FillingsUpdate:  mu: -0.145148667  nElectrons: 121.000000  magneticMoment: [ Abs: 0.17006  Tot: +0.15278 ]
LCAOMinimize: Iter:   8  F: -220.8450325365089952  |grad|_K:  3.536e-05  alpha:  4.281e-01  linmin:  9.935e-02  cgtest: -3.036e-01  t[s]:    146.12
	FillingsUpdate:  mu: -0.152096577  nElectrons: 121.000000  magneticMoment: [ Abs: 0.16766  Tot: +0.01389 ]
LCAOMinimize: Iter:   9  F: -220.8455551902941920  |grad|_K:  1.371e-05  alpha:  1.611e-01  linmin: -1.016e-02  cgtest:  6.190e-01  t[s]:    160.62
LCAOMinimize: Encountered beta<0, resetting CG.
LCAOMinimize: 	Wrong curvature in test step, increasing alphaT to 4.833936e-01.
	FillingsUpdate:  mu: -0.153788125  nElectrons: 121.000000  magneticMoment: [ Abs: 0.17035  Tot: -0.01389 ]
LCAOMinimize: Iter:  10  F: -220.8455966367197334  |grad|_K:  7.518e-06  alpha: -5.078e-02  linmin: -1.227e-01  cgtest:  9.328e-01  t[s]:    174.85
LCAOMinimize: Encountered beta<0, resetting CG.
	FillingsUpdate:  mu: -0.153830444  nElectrons: 121.000000  magneticMoment: [ Abs: 0.17173  Tot: -0.01389 ]
LCAOMinimize: Iter:  11  F: -220.8456003442439624  |grad|_K:  4.879e-06  alpha:  1.506e-01  linmin: -4.292e-01  cgtest:  9.961e-01  t[s]:    189.45
LCAOMinimize: Encountered beta<0, resetting CG.
LCAOMinimize: 	Step increased F by 1.772760e-05, reducing alpha to 4.397301e-02.
	FillingsUpdate:  mu: -0.153838648  nElectrons: 121.000000  magneticMoment: [ Abs: 0.17209  Tot: -0.01389 ]
LCAOMinimize: Iter:  12  F: -220.8456008702741542  |grad|_K:  4.392e-06  alpha:  4.397e-02  linmin: -3.830e-01  cgtest:  9.997e-01  t[s]:    214.24
LCAOMinimize: Encountered beta<0, resetting CG.
LCAOMinimize: 	Predicted alpha/alphaT>3.000000, increasing alphaT to 1.319190e-01.
LCAOMinimize: 	Predicted alpha/alphaT>3.000000, increasing alphaT to 3.957571e-01.
	FillingsUpdate:  mu: -0.153866170  nElectrons: 121.000000  magneticMoment: [ Abs: 0.17342  Tot: -0.01389 ]
LCAOMinimize: Iter:  13  F: -220.8456022345727092  |grad|_K:  2.797e-06  alpha:  1.638e-01  linmin: -3.434e-01  cgtest:  9.912e-01  t[s]:    237.14
LCAOMinimize: Encountered beta<0, resetting CG.
LCAOMinimize: 	Predicted alpha/alphaT>3.000000, increasing alphaT to 4.914931e-01.
	FillingsUpdate:  mu: -0.153867005  nElectrons: 121.000000  magneticMoment: [ Abs: 0.17348  Tot: -0.01389 ]
LCAOMinimize: Iter:  14  F: -220.8456022671489904  |grad|_K:  2.751e-06  alpha:  7.933e-03  linmin: -2.890e-01  cgtest:  1.000e+00  t[s]:    255.86
LCAOMinimize: Encountered beta<0, resetting CG.
LCAOMinimize: 	Predicted alpha/alphaT>3.000000, increasing alphaT to 2.379950e-02.
LCAOMinimize: 	Predicted alpha/alphaT>3.000000, increasing alphaT to 7.139850e-02.
LCAOMinimize: 	Predicted alpha/alphaT>3.000000, increasing alphaT to 2.141955e-01.
LCAOMinimize: 	Step increased F by 6.100099e-05, reducing alpha to 4.789609e-02.
	FillingsUpdate:  mu: -0.153871951  nElectrons: 121.000000  magneticMoment: [ Abs: 0.17383  Tot: -0.01389 ]
LCAOMinimize: Iter:  15  F: -220.8456024493505367  |grad|_K:  2.477e-06  alpha:  4.790e-02  linmin: -2.816e-01  cgtest:  9.993e-01  t[s]:    289.08
LCAOMinimize: Encountered beta<0, resetting CG.
LCAOMinimize: Converged (|Delta F|<1.000000e-06 for 2 iters).


---- Citations for features of the code used in this run ----

   Software package:
      R. Sundararaman, K. Letchworth-Weaver, K.A. Schwarz, D. Gunceler, Y. Ozhabes and T.A. Arias, 'JDFTx: software for joint density-functional theory', SoftwareX 6, 278 (2017)

   gga-PBE exchange-correlation functional:
      J.P. Perdew, K. Burke and M. Ernzerhof, Phys. Rev. Lett. 77, 3865 (1996)

   Pseudopotentials:
      M Schlipf and F Gygi, Comput. Phys. Commun. 196, 36 (2015)

   Truncated Coulomb potentials:
      R. Sundararaman and T.A. Arias, Phys. Rev. B 87, 165122 (2013)

   DFT-D3 dispersion correction:
      S. Grimme, J. Antony, S. Ehrlich and H. Krieg, J. Chem. Phys. 132, 154104 (2010)

This list may not be complete. Please suggest additional citations or
report any other bugs at https://github.com/shankar1729/jdftx/issues

Initialization completed successfully at t[s]:    291.23


Computing DFT-D3 correction:
# coordination-number N 3.140 3.140 3.158 3.140 3.158 3.138 3.138 3.158 3.140 3.158 3.158 3.140 3.140 3.158
# coordination-number B 3.370 3.345 3.345 3.345 3.345 3.370 3.370 3.370 3.345 3.345 3.370 3.370 3.343 3.343
# coordination-number Na 0.379
# diagonal-C6 N 15.61 15.61 15.60 15.61 15.60 15.61 15.61 15.60 15.61 15.60 15.60 15.61 15.61 15.60
# diagonal-C6 B 31.43 31.44 31.44 31.44 31.44 31.43 31.43 31.43 31.44 31.44 31.43 31.43 31.44 31.44
# diagonal-C6 Na 1006.56
EvdW_6 =   -0.031356
EvdW_8 =   -0.029506

-------- Electronic minimization -----------
Will mix electronic density at each iteration.
	FillingsUpdate:  mu: -0.153871951  nElectrons: 121.000000  magneticMoment: [ Abs: 0.17383  Tot: -0.01389 ]
	FillingsUpdate:  mu: -0.160956931  nElectrons: 121.000000  magneticMoment: [ Abs: 0.17383  Tot: -0.01389 ]
SCF: Cycle:  0   F: -222.192359730252207   dF: -1.347e+00   |Residual|: 3.987e-01   |deigs|: 1.084e-01  t[s]:    339.75
	FillingsUpdate:  mu: -0.159526386  nElectrons: 121.000000  magneticMoment: [ Abs: 0.17874  Tot: -0.00925 ]
SCF: Cycle:  1   F: -222.274636223689811   dF: -8.228e-02   |Residual|: 2.206e-01   |deigs|: 2.001e-02  t[s]:    376.97
	FillingsUpdate:  mu: -0.162121611  nElectrons: 121.000000  magneticMoment: [ Abs: 0.27227  Tot: -0.02604 ]
SCF: Cycle:  2   F: -222.302305229079963   dF: -2.767e-02   |Residual|: 4.204e-02   |deigs|: 2.747e-02  t[s]:    414.16
	FillingsUpdate:  mu: -0.160322258  nElectrons: 121.000000  magneticMoment: [ Abs: 0.16355  Tot: -0.03354 ]
SCF: Cycle:  3   F: -222.303759025755909   dF: -1.454e-03   |Residual|: 2.903e-02   |deigs|: 5.105e-03  t[s]:    451.53
	FillingsUpdate:  mu: -0.153878658  nElectrons: 121.000000  magneticMoment: [ Abs: 0.20756  Tot: -0.05601 ]
SCF: Cycle:  4   F: -222.304628108874113   dF: -8.691e-04   |Residual|: 1.824e-02   |deigs|: 1.438e-02  t[s]:    488.93
	FillingsUpdate:  mu: -0.151049464  nElectrons: 121.000000  magneticMoment: [ Abs: 0.17035  Tot: -0.06476 ]
SCF: Cycle:  5   F: -222.305871245243623   dF: -1.243e-03   |Residual|: 1.549e-02   |deigs|: 5.192e-03  t[s]:    526.37
	FillingsUpdate:  mu: -0.143581591  nElectrons: 121.000000  magneticMoment: [ Abs: 0.16261  Tot: -0.08228 ]
SCF: Cycle:  6   F: -222.308897306777055   dF: -3.026e-03   |Residual|: 1.058e-02   |deigs|: 8.413e-03  t[s]:    563.71
	FillingsUpdate:  mu: -0.132010186  nElectrons: 121.000000  magneticMoment: [ Abs: 0.18703  Tot: -0.10651 ]
SCF: Cycle:  7   F: -222.312916147177987   dF: -4.019e-03   |Residual|: 1.260e-02   |deigs|: 1.014e-02  t[s]:    601.35
	FillingsUpdate:  mu: -0.121842090  nElectrons: 121.000000  magneticMoment: [ Abs: 0.17343  Tot: -0.12491 ]
SCF: Cycle:  8   F: -222.316062771428221   dF: -3.147e-03   |Residual|: 9.527e-03   |deigs|: 7.592e-03  t[s]:    638.94
	FillingsUpdate:  mu: -0.110840305  nElectrons: 121.000000  magneticMoment: [ Abs: 0.17590  Tot: -0.14585 ]
SCF: Cycle:  9   F: -222.319123065529709   dF: -3.060e-03   |Residual|: 7.035e-03   |deigs|: 7.228e-03  t[s]:    676.42
	FillingsUpdate:  mu: -0.101228758  nElectrons: 121.000000  magneticMoment: [ Abs: 0.20088  Tot: -0.16376 ]
SCF: Cycle: 10   F: -222.321184813227148   dF: -2.062e-03   |Residual|: 6.615e-03   |deigs|: 4.875e-03  t[s]:    713.96
	FillingsUpdate:  mu: -0.100427279  nElectrons: 121.000000  magneticMoment: [ Abs: 0.18762  Tot: -0.16585 ]
SCF: Cycle: 11   F: -222.321362914636978   dF: -1.781e-04   |Residual|: 4.698e-03   |deigs|: 1.716e-03  t[s]:    751.34
	FillingsUpdate:  mu: -0.095427844  nElectrons: 121.000000  magneticMoment: [ Abs: 0.18482  Tot: -0.17512 ]
SCF: Cycle: 12   F: -222.321802833928132   dF: -4.399e-04   |Residual|: 4.449e-03   |deigs|: 3.077e-03  t[s]:    789.05
	FillingsUpdate:  mu: -0.091262360  nElectrons: 121.000000  magneticMoment: [ Abs: 0.19431  Tot: -0.18158 ]
SCF: Cycle: 13   F: -222.322025831216138   dF: -2.230e-04   |Residual|: 3.479e-03   |deigs|: 2.651e-03  t[s]:    826.61
	FillingsUpdate:  mu: -0.088713416  nElectrons: 121.000000  magneticMoment: [ Abs: 0.19236  Tot: -0.18393 ]
SCF: Cycle: 14   F: -222.322117661192294   dF: -9.183e-05   |Residual|: 2.921e-03   |deigs|: 1.887e-03  t[s]:    864.10
	FillingsUpdate:  mu: -0.087569434  nElectrons: 121.000000  magneticMoment: [ Abs: 0.18903  Tot: -0.18350 ]
SCF: Cycle: 15   F: -222.322154664184893   dF: -3.700e-05   |Residual|: 1.948e-03   |deigs|: 2.685e-03  t[s]:    901.86
	FillingsUpdate:  mu: -0.087205573  nElectrons: 121.000000  magneticMoment: [ Abs: 0.18757  Tot: -0.18279 ]
SCF: Cycle: 16   F: -222.322162554914343   dF: -7.891e-06   |Residual|: 1.209e-03   |deigs|: 5.653e-04  t[s]:    939.57
	FillingsUpdate:  mu: -0.087228477  nElectrons: 121.000000  magneticMoment: [ Abs: 0.18532  Tot: -0.18203 ]
SCF: Cycle: 17   F: -222.322164412897195   dF: -1.858e-06   |Residual|: 7.304e-04   |deigs|: 5.080e-04  t[s]:    977.17
	FillingsUpdate:  mu: -0.086995790  nElectrons: 121.000000  magneticMoment: [ Abs: 0.18469  Tot: -0.18205 ]
SCF: Cycle: 18   F: -222.322165723100511   dF: -1.310e-06   |Residual|: 3.671e-04   |deigs|: 7.148e-04  t[s]:   1014.78
	FillingsUpdate:  mu: -0.087074216  nElectrons: 121.000000  magneticMoment: [ Abs: 0.18363  Tot: -0.18174 ]
SCF: Cycle: 19   F: -222.322166037989859   dF: -3.149e-07   |Residual|: 1.921e-04   |deigs|: 7.102e-04  t[s]:   1052.31
	FillingsUpdate:  mu: -0.087025124  nElectrons: 121.000000  magneticMoment: [ Abs: 0.18319  Tot: -0.18169 ]
SCF: Cycle: 20   F: -222.322166291717878   dF: -2.537e-07   |Residual|: 1.019e-04   |deigs|: 4.396e-04  t[s]:   1089.93
	FillingsUpdate:  mu: -0.086984665  nElectrons: 121.000000  magneticMoment: [ Abs: 0.18310  Tot: -0.18166 ]
SCF: Cycle: 21   F: -222.322166384191348   dF: -9.247e-08   |Residual|: 6.876e-05   |deigs|: 5.984e-04  t[s]:   1127.70
	FillingsUpdate:  mu: -0.086958710  nElectrons: 121.000000  magneticMoment: [ Abs: 0.18296  Tot: -0.18159 ]
SCF: Cycle: 22   F: -222.322166408110490   dF: -2.392e-08   |Residual|: 4.781e-05   |deigs|: 5.286e-04  t[s]:   1165.36
	FillingsUpdate:  mu: -0.086940680  nElectrons: 121.000000  magneticMoment: [ Abs: 0.18271  Tot: -0.18148 ]
SCF: Cycle: 23   F: -222.322166415866036   dF: -7.756e-09   |Residual|: 3.496e-05   |deigs|: 6.267e-04  t[s]:   1202.95
	FillingsUpdate:  mu: -0.086936974  nElectrons: 121.000000  magneticMoment: [ Abs: 0.18243  Tot: -0.18126 ]
SCF: Cycle: 24   F: -222.322166418979435   dF: -3.113e-09   |Residual|: 3.010e-05   |deigs|: 1.650e-04  t[s]:   1240.40
SCF: Converged (|Delta E|<1.000000e-08 for 2 iters).


Computing DFT-D3 correction:
# coordination-number N 3.140 3.140 3.158 3.140 3.158 3.138 3.138 3.158 3.140 3.158 3.158 3.140 3.140 3.158
# coordination-number B 3.370 3.345 3.345 3.345 3.345 3.370 3.370 3.370 3.345 3.345 3.370 3.370 3.343 3.343
# coordination-number Na 0.379
# diagonal-C6 N 15.61 15.61 15.60 15.61 15.60 15.61 15.61 15.60 15.61 15.60 15.60 15.61 15.61 15.60
# diagonal-C6 B 31.43 31.44 31.44 31.44 31.44 31.43 31.43 31.43 31.44 31.44 31.43 31.43 31.44 31.44
# diagonal-C6 Na 1006.56
EvdW_6 =   -0.031356
EvdW_8 =   -0.029506

# Ionic positions in lattice coordinates:
ion N   0.952380952379803   0.761904761902463   0.000000000000000 0
ion N   1.428571428570279   1.285714285711987   0.322000000000000 0
ion N   0.380952380951232   0.904761904759606   0.000000000000000 0
ion N   0.714285714284565   1.142857142854844   0.322000000000000 0
ion N   0.523809523808374   0.619047619045320   0.000000000000000 0
ion N   0.999999999998850   0.999999999997701   0.322000000000000 0
ion N   0.666666666665517   0.333333333331034   0.000000000000000 0
ion N   1.285714285713136   0.857142857140558   0.322000000000000 0
ion N   0.809523809522660   0.047619047616749   0.000000000000000 0
ion N   1.571428571427422   0.714285714283415   0.322000000000000 0
ion N   0.095238095236946   0.476190476188177   0.000000000000000 0
ion N   0.238095238094089   0.190476190473892   0.000000000000000 0
ion N   0.857142857141708   0.571428571426273   0.322000000000000 0
ion N   1.142857142855993   0.428571428569130   0.322000000000000 0
ion B   0.571428571427422   0.857142857140558   0.000000000000000 0
ion B   0.952380952379803   1.190476190473892   0.322000000000000 0
ion B   0.714285714284565   0.571428571426273   0.000000000000000 0
ion B   1.238095238094089   1.047619047616749   0.322000000000000 0
ion B   0.857142857141708   0.285714285711987   0.000000000000000 0
ion B   1.523809523808374   0.904761904759606   0.322000000000000 0
ion B   0.142857142855993   0.714285714283415   0.000000000000000 0
ion B   0.285714285713136   0.428571428569130   0.000000000000000 0
ion B   0.809523809522660   0.761904761902463   0.322000000000000 0
ion B   0.428571428570279   0.142857142854844   0.000000000000000 0
ion B   1.095238095236946   0.619047619045320   0.322000000000000 0
ion B   1.380952380951231   0.476190476188177   0.322000000000000 0
ion B  -0.000000000001149  -0.000000000002299   0.000000000000000 0
ion B   0.666666666665517   0.333333333331034   0.322000000000000 0
ion Na   0.333333333332184   0.666666666664368   0.161000000000000 0

# Forces in Lattice coordinates:
force N   0.007212934373782  -0.005198470619887  -0.020974241721222 0
force N  -0.005198470619887   0.007212934373782   0.020974241721222 0
force N  -0.000616385770483  -0.009847944761673   0.015291108892847 0
force N  -0.002014463753895  -0.005198470619887   0.020974241721222 0
force N  -0.009847944761673   0.010464330532156   0.015291108892733 0
force N   0.000000000000000   0.000000000000000   0.016795519892342 0
force N   0.000000000000000   0.000000000000000  -0.016795519892342 0
force N   0.010464330532156  -0.009847944761673  -0.015291108892847 0
force N  -0.005198470619887  -0.002014463753895  -0.020974241721222 0
force N  -0.009847944761673  -0.000616385770483  -0.015291108892960 0
force N   0.010464330532156  -0.000616385770483   0.015291108892847 0
force N  -0.002014463753895   0.007212934373782  -0.020974241721336 0
force N   0.007212934373782  -0.002014463753895   0.020974241721336 0
force N  -0.000616385770483   0.010464330532156  -0.015291108892847 0
force B   0.016461364624141   0.009342488666590  -0.013778449281094 0
force B  -0.004938040192040  -0.015229873105980  -0.048004288579154 0
force B   0.020167913298019  -0.015229873105980   0.048004288579211 0
force B  -0.015229873105980   0.020167913298019  -0.048004288579211 0
force B  -0.015229873105980  -0.004938040192040   0.048004288579154 0
force B   0.009342488666591   0.016461364624141   0.013778449281150 0
force B  -0.025803853290731   0.016461364624141  -0.013778449281037 0
force B   0.009342488666590  -0.025803853290731  -0.013778449281207 0
force B   0.020167913298019  -0.004938040192040  -0.048004288579211 0
force B  -0.004938040192040   0.020167913298019   0.048004288579154 0
force B  -0.025803853290731   0.009342488666591   0.013778449281150 0
force B   0.016461364624141  -0.025803853290731   0.013778449281094 0
force B   0.000000000000000   0.000000000000000   0.057406848523440 0
force B   0.000000000000000   0.000000000000000  -0.057406848523497 0
force Na  -0.000000000000000  -0.000000000000000  -0.000000000000000 0

# Energy components:
   Eewald =    -2468.5136257597482654
       EH =    -2293.0037174026056164
     Eloc =     4469.4006551785123520
      Enl =      -21.3066176166943251
   Epulay =       -0.0000190610708103
     EvdW =       -0.0608618982636915
      Exc =      -57.7729291335375876
       KE =      148.9349495396423038
-------------------------------------
     Etot =     -222.3221661537652096
       TS =        0.0000002652142368
-------------------------------------
        F =     -222.3221664189794353

IonicMinimize: Iter:   0  F: -222.322166418979435  |grad|_K:  0.000e+00  t[s]:   1244.26
IonicMinimize: Converged (|grad|_K<1.000000e-04).

#--- Lowdin population analysis ---
# oxidation-state N -0.374 -0.374 -0.377 -0.374 -0.377 -0.374 -0.374 -0.377 -0.374 -0.377 -0.377 -0.374 -0.374 -0.377
# magnetic-moments N -0.000 -0.000 -0.001 -0.000 -0.001 -0.000 -0.000 -0.001 -0.000 -0.001 -0.001 -0.000 -0.000 -0.001
# oxidation-state B +0.431 +0.447 +0.447 +0.447 +0.447 +0.431 +0.431 +0.431 +0.447 +0.447 +0.431 +0.431 +0.447 +0.447
# magnetic-moments B -0.000 -0.000 -0.000 -0.000 -0.000 -0.000 -0.000 -0.000 -0.000 -0.000 -0.000 -0.000 -0.000 -0.000
# oxidation-state Na +0.088
# magnetic-moments Na -0.161


Dumping 'Na-0.322.fillings' ... done
Dumping 'Na-0.322.wfns' ... done
Dumping 'Na-0.322.n_up' ... done
Dumping 'Na-0.322.n_dn' ... done
Dumping 'Na-0.322.eigenvals' ... done
End date and time: Sun Jan 23 16:57:02 2022  (Duration: 0-0:20:57.70)
Done!
