Second Layer Distance is 0.325

--------------------------------------------------------------------------
The library attempted to open the following supporting CUDA libraries,
but each of them failed.  CUDA-aware support is disabled.
libcuda.so.1: cannot open shared object file: No such file or directory
libcuda.dylib: cannot open shared object file: No such file or directory
/usr/lib64/libcuda.so.1: cannot open shared object file: No such file or directory
/usr/lib64/libcuda.dylib: cannot open shared object file: No such file or directory
If you are not interested in CUDA-aware support, then run with
--mca opal_warn_on_missing_libcuda 0 to suppress this message.  If you are interested
in CUDA-aware support, then try setting LD_LIBRARY_PATH to the location
of libcuda.so.1 to get passed this issue.
--------------------------------------------------------------------------
--------------------------------------------------------------------------
No OpenFabrics connection schemes reported that they were able to be
used on a specific port.  As such, the openib BTL (OpenFabrics
support) will be disabled for this port.

  Local host:           d-16-12-1
  Local device:         mlx5_1
  Local port:           1
  CPCs attempted:       rdmacm, udcm
--------------------------------------------------------------------------

*************** JDFTx 1.6.0 (git hash 42ebbcc2) ***************

Start date and time: Sun Jan 23 16:36:04 2022
Executable jdftx with command-line: -i Moire.in
Running on hosts (process indices):  d-16-12-1 (0-18)
Divided in process groups (process indices):  0 (0)  1 (1)  2 (2)  3 (3)  4 (4)  5 (5)  6 (6)  7 (7)  8 (8)  9 (9)  10 (10)  11 (11)  12 (12)  13 (13)  14 (14)  15 (15)  16 (16)  17 (17)  18 (18)
Resource initialization completed at t[s]:      0.00
Run totals: 19 processes, 48 threads, 0 GPUs


Input parsed successfully to the following command list (including defaults):

basis kpoint-dependent
coords-type Lattice
core-overlap-check vector
coulomb-interaction Slab 001
davidson-band-ratio 1.1
dump End State ElecDensity BandEigs
dump-name Na-0.325.$VAR
elec-cutoff 20
elec-eigen-algo Davidson
elec-ex-corr gga-PBE
elec-initial-magnetization 0.100000 no
elec-smearing Fermi 1e-05
electronic-minimize  \
	dirUpdateScheme      FletcherReeves \
	linminMethod         DirUpdateRecommended \
	nIterations          100 \
	history              15 \
	knormThreshold       0 \
	energyDiffThreshold  1e-08 \
	nEnergyDiff          2 \
	alphaTstart          1 \
	alphaTmin            1e-10 \
	updateTestStepSize   yes \
	alphaTreduceFactor   0.1 \
	alphaTincreaseFactor 3 \
	nAlphaAdjustMax      3 \
	wolfeEnergy          0.0001 \
	wolfeGradient        0.9 \
	fdTest               no
electronic-scf  \
	nIterations	1000 \
	energyDiffThreshold	1e-08 \
	residualThreshold	1e-07 \
	mixFraction	0.5 \
	qMetric	0.8 \
	history	10 \
	nEigSteps	2 \
	eigDiffThreshold	1e-08 \
	mixedVariable	Density \
	qKerker	0.8 \
	qKappa	-1 \
	verbose	no \
	mixFractionMag	1.5
exchange-regularization WignerSeitzTruncated
fluid None
fluid-ex-corr (null) lda-PZ
fluid-gummel-loop 10 1.000000e-05
fluid-minimize  \
	dirUpdateScheme      PolakRibiere \
	linminMethod         DirUpdateRecommended \
	nIterations          100 \
	history              15 \
	knormThreshold       0 \
	energyDiffThreshold  0 \
	nEnergyDiff          2 \
	alphaTstart          1 \
	alphaTmin            1e-10 \
	updateTestStepSize   yes \
	alphaTreduceFactor   0.1 \
	alphaTincreaseFactor 3 \
	nAlphaAdjustMax      3 \
	wolfeEnergy          0.0001 \
	wolfeGradient        0.9 \
	fdTest               no
fluid-solvent H2O 55.338 ScalarEOS \
	epsBulk 78.4 \
	pMol 0.92466 \
	epsInf 1.77 \
	Pvap 1.06736e-10 \
	sigmaBulk 4.62e-05 \
	Rvdw 2.61727 \
	Res 1.42 \
	tauNuc 343133 \
	poleEl 15 7 1
forces-output-coords Positions
ion N   0.952380952380952   0.761904761904762   0.000000000000000 0
ion N   1.428571428571428   1.285714285714286   0.325000000000000 0
ion N   0.380952380952381   0.904761904761905   0.000000000000000 0
ion N   0.714285714285714   1.142857142857143   0.325000000000000 0
ion N   0.523809523809524   0.619047619047619   0.000000000000000 0
ion N   1.000000000000000   1.000000000000000   0.325000000000000 0
ion N   0.666666666666667   0.333333333333333   0.000000000000000 0
ion N   1.285714285714286   0.857142857142857   0.325000000000000 0
ion N   0.809523809523810   0.047619047619048   0.000000000000000 0
ion N   1.571428571428571   0.714285714285714   0.325000000000000 0
ion N   0.095238095238095   0.476190476190476   0.000000000000000 0
ion N   0.238095238095238   0.190476190476190   0.000000000000000 0
ion N   0.857142857142857   0.571428571428571   0.325000000000000 0
ion N   1.142857142857143   0.428571428571429   0.325000000000000 0
ion B   0.571428571428572   0.857142857142857   0.000000000000000 0
ion B   0.952380952380952   1.190476190476190   0.325000000000000 0
ion B   0.714285714285714   0.571428571428571   0.000000000000000 0
ion B   1.238095238095238   1.047619047619047   0.325000000000000 0
ion B   0.857142857142857   0.285714285714286   0.000000000000000 0
ion B   1.523809523809524   0.904761904761905   0.325000000000000 0
ion B   0.142857142857143   0.714285714285714   0.000000000000000 0
ion B   0.285714285714286   0.428571428571429   0.000000000000000 0
ion B   0.809523809523810   0.761904761904762   0.325000000000000 0
ion B   0.428571428571429   0.142857142857143   0.000000000000000 0
ion B   1.095238095238095   0.619047619047619   0.325000000000000 0
ion B   1.380952380952381   0.476190476190476   0.325000000000000 0
ion B   0.000000000000000   0.000000000000000   0.000000000000000 0
ion B   0.666666666666667   0.333333333333333   0.325000000000000 0
ion Na   0.333333333300000   0.666666666600000   0.162500000000000 0
ion-species SG15/$ID_ONCV_PBE.upf
ion-width 0
ionic-minimize  \
	dirUpdateScheme      L-BFGS \
	linminMethod         DirUpdateRecommended \
	nIterations          0 \
	history              15 \
	knormThreshold       0.0001 \
	energyDiffThreshold  1e-06 \
	nEnergyDiff          2 \
	alphaTstart          1 \
	alphaTmin            1e-10 \
	updateTestStepSize   yes \
	alphaTreduceFactor   0.1 \
	alphaTincreaseFactor 3 \
	nAlphaAdjustMax      3 \
	wolfeEnergy          0.0001 \
	wolfeGradient        0.9 \
	fdTest               no
kpoint   0.000000000000   0.000000000000   0.000000000000  1.00000000000000
kpoint-folding 12 12 1 
latt-move-scale 1 1 1
latt-scale 1 1 1 
lattice  \
	 -11.818700000000000    2.363740000000000    0.000000000000000  \
	   4.094120000000000  -12.282400000000001    0.000000000000000  \
	   0.000000000000000    0.000000000000000   40.000000000000000 
lattice-minimize  \
	dirUpdateScheme      L-BFGS \
	linminMethod         DirUpdateRecommended \
	nIterations          0 \
	history              15 \
	knormThreshold       0 \
	energyDiffThreshold  1e-06 \
	nEnergyDiff          2 \
	alphaTstart          1 \
	alphaTmin            1e-10 \
	updateTestStepSize   yes \
	alphaTreduceFactor   0.1 \
	alphaTincreaseFactor 3 \
	nAlphaAdjustMax      3 \
	wolfeEnergy          0.0001 \
	wolfeGradient        0.9 \
	fdTest               no
lcao-params -1 1e-06 1e-05
pcm-variant GLSSA13
spintype z-spin
subspace-rotation-factor 1 yes
symmetries automatic
symmetry-threshold 0.0001
van-der-waals D3



---------- Setting up symmetries ----------

Found 24 point-group symmetries of the bravais lattice
Found 6 space-group symmetries with basis
Applied RMS atom displacement 1.31765e-10 bohrs to make symmetries exact.

---------- Initializing the Grid ----------
R = 
[     -11.8187      2.36374            0  ]
[      4.09412     -12.2824            0  ]
[            0            0           40  ]
unit cell volume = 5419.38
G =
[  -0.569604   -0.10962          0  ]
[  -0.189867    -0.5481          0  ]
[          0          0    0.15708  ]
Minimum fftbox size, Smin = [  52  52  164  ]
Chosen fftbox size, S = [  54  54  168  ]

---------- Exchange Correlation functional ----------
Initalized PBE GGA exchange.
Initalized PBE GGA correlation.

---------- Setting up pseudopotentials ----------
Width of ionic core gaussian charges (only for fluid interactions / plotting) set to 0

Reading pseudopotential file '/home/gridsan/aligho/DFT/build-Nov24/pseudopotentials/SG15/N_ONCV_PBE.upf':
  'N' pseudopotential, 'PBE' functional
  Generated using ONCVPSP code by D. R. Hamann
  Author: Martin Schlipf and Francois Gygi  Date: 150915.
  5 valence electrons, 2 orbitals, 4 projectors, 1058 radial grid points, with lMax = 1
  Transforming local potential to a uniform radial grid of dG=0.02 with 1514 points.
  Transforming nonlocal projectors to a uniform radial grid of dG=0.02 with 432 points.
    2S    l: 0   occupation:  2.0   eigenvalue: -0.682907
    2P    l: 1   occupation:  3.0   eigenvalue: -0.260548
  Transforming atomic orbitals to a uniform radial grid of dG=0.02 with 432 points.
  Core radius for overlap checks: 1.35 bohrs.
  Reading pulay file /home/gridsan/aligho/DFT/build-Nov24/pseudopotentials/SG15/N_ONCV_PBE.pulay ... using dE_dnG = -2.956256e-02 computed for Ecut = 20.

Reading pseudopotential file '/home/gridsan/aligho/DFT/build-Nov24/pseudopotentials/SG15/B_ONCV_PBE.upf':
  'B' pseudopotential, 'PBE' functional
  Generated using ONCVPSP code by D. R. Hamann
  Author: Martin Schlipf and Francois Gygi  Date: 150915.
  3 valence electrons, 2 orbitals, 4 projectors, 1534 radial grid points, with lMax = 1
  Transforming local potential to a uniform radial grid of dG=0.02 with 1514 points.
  Transforming nonlocal projectors to a uniform radial grid of dG=0.02 with 432 points.
    2S    l: 0   occupation:  2.0   eigenvalue: -0.347027
    2P    l: 1   occupation:  1.0   eigenvalue: -0.132548
  Transforming atomic orbitals to a uniform radial grid of dG=0.02 with 432 points.
  Core radius for overlap checks: 1.60 bohrs.
  Reading pulay file /home/gridsan/aligho/DFT/build-Nov24/pseudopotentials/SG15/B_ONCV_PBE.pulay ... using dE_dnG = -3.748568e-04 computed for Ecut = 20.

Reading pseudopotential file '/home/gridsan/aligho/DFT/build-Nov24/pseudopotentials/SG15/Na_ONCV_PBE.upf':
  'Na' pseudopotential, 'PBE' functional
  Generated using ONCVPSP code by D. R. Hamann
  Author: Martin Schlipf and Francois Gygi  Date: 150915.
  9 valence electrons, 3 orbitals, 4 projectors, 1992 radial grid points, with lMax = 1
  Transforming local potential to a uniform radial grid of dG=0.02 with 1514 points.
  Transforming nonlocal projectors to a uniform radial grid of dG=0.02 with 432 points.
    2S    l: 0   occupation:  2.0   eigenvalue: -2.085640
    2P    l: 1   occupation:  6.0   eigenvalue: -1.053708
    3S    l: 0   occupation:  1.0   eigenvalue: -0.100838
  Transforming atomic orbitals to a uniform radial grid of dG=0.02 with 432 points.
  Core radius for overlap checks: 2.01 bohrs.
  Reading pulay file /home/gridsan/aligho/DFT/build-Nov24/pseudopotentials/SG15/Na_ONCV_PBE.pulay ... using dE_dnG = -2.946487e-03 computed for Ecut = 20.

Initialized 3 species with 29 total atoms.

Folded 1 k-points by 12x12x1 to 144 k-points.

---------- Setting up k-points, bands, fillings ----------
Adding inversion symmetry to k-mesh for non-inversion-symmetric unit cell.
Reduced to 19 k-points under symmetry. 
Computing the number of bands and number of electrons
Calculating initial fillings.
nElectrons: 121.000000   nBands: 117   nStates: 38

----- Setting up reduced wavefunction bases (one per k-point) -----
average nbasis = 23151.771 , ideal nbasis = 23152.016

---------- Setting up coulomb interaction ----------
Initialized slab truncation along lattice direction 001

Initializing DFT-D3 calculator:
	Parameters set for gga-PBE functional
	s6:  1.000  s_r6:  1.217
	s8:  0.722  s_r8:  1.000
	Per-atom parameters loaded for:
	 N:  sqrtQ[a0]:  2.712  Rcov[a0]:  1.342  CN: [ 0.00 0.99 2.01 2.99 ]
	 B:  sqrtQ[a0]:  3.644  Rcov[a0]:  1.455  CN: [ 0.00 0.97 1.94 2.91 4.59 ]
	Na:  sqrtQ[a0]:  6.586  Rcov[a0]:  2.646  CN: [ 0.00 0.97 ]

---------- Setting up 2D ewald sum ----------
Optimum gaussian width for ewald sums = 6.943804 bohr.
Real space sums over 289 unit cells with max indices [  8  8  0  ]
Reciprocal space sums over 81 terms with max indices [  4  4  0  ]

Computing DFT-D3 correction:
# coordination-number N 3.140 3.140 3.156 3.140 3.156 3.138 3.138 3.156 3.140 3.156 3.156 3.140 3.140 3.156
# coordination-number B 3.367 3.344 3.344 3.344 3.344 3.367 3.367 3.367 3.344 3.344 3.367 3.367 3.343 3.343
# coordination-number Na 0.348
# diagonal-C6 N 15.61 15.61 15.60 15.61 15.60 15.61 15.61 15.60 15.61 15.60 15.60 15.61 15.61 15.60
# diagonal-C6 B 31.44 31.44 31.44 31.44 31.44 31.44 31.44 31.44 31.44 31.44 31.44 31.44 31.44 31.44
# diagonal-C6 Na 1090.14
EvdW_6 =   -0.031345
EvdW_8 =   -0.029416

---------- Allocating electronic variables ----------
Initializing wave functions:  linear combination of atomic orbitals
N pseudo-atom occupations:   s ( 2 )  p ( 3 )
[d-16-12-1:25522] 18 more processes have sent help message help-mpi-common-cuda.txt / dlopen failed
[d-16-12-1:25522] Set MCA parameter "orte_base_help_aggregate" to 0 to see all help / error messages
[d-16-12-1:25522] 18 more processes have sent help message help-mpi-btl-openib-cpc-base.txt / no cpcs for port
B pseudo-atom occupations:   s ( 2 )  p ( 1 )
Na pseudo-atom occupations:   s ( 2 1 )  p ( 6 )
	FillingsUpdate:  mu: -0.112492080  nElectrons: 121.000000  magneticMoment: [ Abs: 0.09650  Tot: -0.02598 ]
LCAOMinimize: Iter:   0  F: -219.3404705068249427  |grad|_K:  1.602e-02  alpha:  1.000e+00
	FillingsUpdate:  mu: -0.270961188  nElectrons: 121.000000  magneticMoment: [ Abs: 0.12768  Tot: +0.11111 ]
LCAOMinimize: Iter:   1  F: -220.6835921179043680  |grad|_K:  1.053e-03  alpha:  4.966e-01  linmin:  2.727e-01  cgtest: -6.327e+00  t[s]:     49.00
LCAOMinimize: 	Bad step direction: g.d > 0.
LCAOMinimize: 	Undoing step.
LCAOMinimize: 	Step failed: resetting search direction.
	FillingsUpdate:  mu: -0.270961188  nElectrons: 121.000000  magneticMoment: [ Abs: 0.12768  Tot: +0.11111 ]
LCAOMinimize: Iter:   2  F: -220.6835921179043680  |grad|_K:  1.053e-03  alpha:  0.000e+00
	FillingsUpdate:  mu: -0.127826507  nElectrons: 121.000000  magneticMoment: [ Abs: 0.05835  Tot: -0.01389 ]
LCAOMinimize: Iter:   3  F: -220.8254644857313735  |grad|_K:  2.700e-04  alpha:  4.720e-01  linmin:  3.169e-01  cgtest: -7.951e-01  t[s]:     73.93
LCAOMinimize: 	Predicted alpha/alphaT>3.000000, increasing alphaT to 1.415909e+00.
	FillingsUpdate:  mu: -0.128506870  nElectrons: 121.000000  magneticMoment: [ Abs: 0.05760  Tot: -0.01389 ]
LCAOMinimize: Iter:   4  F: -220.8255546191797691  |grad|_K:  2.708e-04  alpha:  4.247e-02  linmin: -3.953e-03  cgtest:  9.978e-01  t[s]:     92.64
LCAOMinimize: 	Predicted alpha/alphaT>3.000000, increasing alphaT to 1.274087e-01.
LCAOMinimize: 	Predicted alpha/alphaT>3.000000, increasing alphaT to 3.822262e-01.
LCAOMinimize: 	Predicted alpha/alphaT>3.000000, increasing alphaT to 1.146679e+00.
LCAOMinimize: 	Step increased F by 2.222532e-01, reducing alpha to 2.505725e-01.
	FillingsUpdate:  mu: -0.139401543  nElectrons: 121.000000  magneticMoment: [ Abs: 0.12530  Tot: +0.07112 ]
LCAOMinimize: Iter:   5  F: -220.8381933396752856  |grad|_K:  3.684e-04  alpha:  2.506e-01  linmin: -9.783e-03  cgtest:  2.612e-01  t[s]:    126.00
	FillingsUpdate:  mu: -0.179732694  nElectrons: 121.000000  magneticMoment: [ Abs: 0.09803  Tot: +0.06956 ]
LCAOMinimize: Iter:   6  F: -220.8387239468916619  |grad|_K:  7.893e-05  alpha:  8.407e-02  linmin:  6.117e-02  cgtest: -4.354e+00  t[s]:    140.63
LCAOMinimize: 	Bad step direction: g.d > 0.
LCAOMinimize: 	Undoing step.
LCAOMinimize: 	Step failed: resetting search direction.
	FillingsUpdate:  mu: -0.179732694  nElectrons: 121.000000  magneticMoment: [ Abs: 0.09803  Tot: +0.06956 ]
LCAOMinimize: Iter:   7  F: -220.8387239468916619  |grad|_K:  7.893e-05  alpha:  0.000e+00
LCAOMinimize: 	Wrong curvature in test step, increasing alphaT to 2.522153e-01.
	FillingsUpdate:  mu: -0.175707565  nElectrons: 121.000000  magneticMoment: [ Abs: 0.11985  Tot: +0.06944 ]
LCAOMinimize: Iter:   8  F: -220.8393205949473952  |grad|_K:  6.298e-05  alpha: -3.645e-02  linmin: -1.774e-01  cgtest:  9.983e-01  t[s]:    165.22
LCAOMinimize: Encountered beta<0, resetting CG.
	FillingsUpdate:  mu: -0.161280871  nElectrons: 121.000000  magneticMoment: [ Abs: 0.04972  Tot: -0.01389 ]
LCAOMinimize: Iter:   9  F: -220.8409220284837886  |grad|_K:  3.081e-05  alpha:  9.396e-02  linmin: -6.038e-02  cgtest:  9.824e-01  t[s]:    179.76
LCAOMinimize: Encountered beta<0, resetting CG.
LCAOMinimize: 	Predicted alpha/alphaT>3.000000, increasing alphaT to 2.818753e-01.
	FillingsUpdate:  mu: -0.153623606  nElectrons: 121.000000  magneticMoment: [ Abs: 0.16939  Tot: -0.01389 ]
LCAOMinimize: Iter:  10  F: -220.8413507985405317  |grad|_K:  7.403e-06  alpha:  1.299e-01  linmin: -4.909e-02  cgtest:  6.955e-01  t[s]:    198.41
LCAOMinimize: Encountered beta<0, resetting CG.
LCAOMinimize: 	Predicted alpha/alphaT>3.000000, increasing alphaT to 3.896712e-01.
	FillingsUpdate:  mu: -0.153397174  nElectrons: 121.000000  magneticMoment: [ Abs: 0.17369  Tot: -0.01389 ]
LCAOMinimize: Iter:  11  F: -220.8413570048719805  |grad|_K:  2.736e-06  alpha:  4.280e-01  linmin: -2.793e-05  cgtest:  1.441e-03  t[s]:    217.16
	FillingsUpdate:  mu: -0.153229305  nElectrons: 121.000000  magneticMoment: [ Abs: 0.17960  Tot: -0.01389 ]
LCAOMinimize: Iter:  12  F: -220.8413583374014593  |grad|_K:  8.760e-07  alpha:  6.723e-01  linmin: -5.271e-04  cgtest:  4.268e-04  t[s]:    231.78
	FillingsUpdate:  mu: -0.153260029  nElectrons: 121.000000  magneticMoment: [ Abs: 0.18304  Tot: -0.01389 ]
LCAOMinimize: Iter:  13  F: -220.8413584848547657  |grad|_K:  2.921e-07  alpha:  7.257e-01  linmin:  2.946e-04  cgtest: -6.004e-03  t[s]:    246.38
	FillingsUpdate:  mu: -0.153265097  nElectrons: 121.000000  magneticMoment: [ Abs: 0.18478  Tot: -0.01389 ]
LCAOMinimize: Iter:  14  F: -220.8413585016478464  |grad|_K:  1.662e-07  alpha:  7.449e-01  linmin:  1.118e-03  cgtest: -9.653e-04  t[s]:    261.08
LCAOMinimize: Converged (|Delta F|<1.000000e-06 for 2 iters).


---- Citations for features of the code used in this run ----

   Software package:
      R. Sundararaman, K. Letchworth-Weaver, K.A. Schwarz, D. Gunceler, Y. Ozhabes and T.A. Arias, 'JDFTx: software for joint density-functional theory', SoftwareX 6, 278 (2017)

   gga-PBE exchange-correlation functional:
      J.P. Perdew, K. Burke and M. Ernzerhof, Phys. Rev. Lett. 77, 3865 (1996)

   Pseudopotentials:
      M Schlipf and F Gygi, Comput. Phys. Commun. 196, 36 (2015)

   Truncated Coulomb potentials:
      R. Sundararaman and T.A. Arias, Phys. Rev. B 87, 165122 (2013)

   DFT-D3 dispersion correction:
      S. Grimme, J. Antony, S. Ehrlich and H. Krieg, J. Chem. Phys. 132, 154104 (2010)

This list may not be complete. Please suggest additional citations or
report any other bugs at https://github.com/shankar1729/jdftx/issues

Initialization completed successfully at t[s]:    263.28


Computing DFT-D3 correction:
# coordination-number N 3.140 3.140 3.156 3.140 3.156 3.138 3.138 3.156 3.140 3.156 3.156 3.140 3.140 3.156
# coordination-number B 3.367 3.344 3.344 3.344 3.344 3.367 3.367 3.367 3.344 3.344 3.367 3.367 3.343 3.343
# coordination-number Na 0.348
# diagonal-C6 N 15.61 15.61 15.60 15.61 15.60 15.61 15.61 15.60 15.61 15.60 15.60 15.61 15.61 15.60
# diagonal-C6 B 31.44 31.44 31.44 31.44 31.44 31.44 31.44 31.44 31.44 31.44 31.44 31.44 31.44 31.44
# diagonal-C6 Na 1090.14
EvdW_6 =   -0.031345
EvdW_8 =   -0.029416

-------- Electronic minimization -----------
Will mix electronic density at each iteration.
	FillingsUpdate:  mu: -0.153265097  nElectrons: 121.000000  magneticMoment: [ Abs: 0.18478  Tot: -0.01389 ]
	FillingsUpdate:  mu: -0.160611063  nElectrons: 121.000000  magneticMoment: [ Abs: 0.18478  Tot: -0.01389 ]
SCF: Cycle:  0   F: -222.194095050524425   dF: -1.353e+00   |Residual|: 3.980e-01   |deigs|: 1.079e-01  t[s]:    313.29
	FillingsUpdate:  mu: -0.159581472  nElectrons: 121.000000  magneticMoment: [ Abs: 0.16434  Tot: -0.01234 ]
SCF: Cycle:  1   F: -222.273543658989126   dF: -7.945e-02   |Residual|: 2.209e-01   |deigs|: 2.006e-02  t[s]:    351.61
	FillingsUpdate:  mu: -0.162105388  nElectrons: 121.000000  magneticMoment: [ Abs: 0.23041  Tot: -0.02895 ]
SCF: Cycle:  2   F: -222.301067859428429   dF: -2.752e-02   |Residual|: 4.247e-02   |deigs|: 2.810e-02  t[s]:    389.89
	FillingsUpdate:  mu: -0.160292071  nElectrons: 121.000000  magneticMoment: [ Abs: 0.15929  Tot: -0.03615 ]
SCF: Cycle:  3   F: -222.302543022070893   dF: -1.475e-03   |Residual|: 2.913e-02   |deigs|: 4.974e-03  t[s]:    428.29
	FillingsUpdate:  mu: -0.153579386  nElectrons: 121.000000  magneticMoment: [ Abs: 0.19504  Tot: -0.05925 ]
SCF: Cycle:  4   F: -222.303671796800501   dF: -1.129e-03   |Residual|: 1.921e-02   |deigs|: 1.534e-02  t[s]:    466.82
	FillingsUpdate:  mu: -0.150786682  nElectrons: 121.000000  magneticMoment: [ Abs: 0.16785  Tot: -0.06734 ]
SCF: Cycle:  5   F: -222.305116504798178   dF: -1.445e-03   |Residual|: 1.523e-02   |deigs|: 4.944e-03  t[s]:    505.32
	FillingsUpdate:  mu: -0.142929066  nElectrons: 121.000000  magneticMoment: [ Abs: 0.16430  Tot: -0.08504 ]
SCF: Cycle:  6   F: -222.308484581689754   dF: -3.368e-03   |Residual|: 1.056e-02   |deigs|: 8.630e-03  t[s]:    543.91
	FillingsUpdate:  mu: -0.131013896  nElectrons: 121.000000  magneticMoment: [ Abs: 0.17973  Tot: -0.10894 ]
SCF: Cycle:  7   F: -222.312791482951781   dF: -4.307e-03   |Residual|: 1.403e-02   |deigs|: 1.010e-02  t[s]:    582.59
	FillingsUpdate:  mu: -0.120692655  nElectrons: 121.000000  magneticMoment: [ Abs: 0.17743  Tot: -0.12922 ]
SCF: Cycle:  8   F: -222.315974203962043   dF: -3.183e-03   |Residual|: 9.720e-03   |deigs|: 7.633e-03  t[s]:    621.54
	FillingsUpdate:  mu: -0.107972148  nElectrons: 121.000000  magneticMoment: [ Abs: 0.19212  Tot: -0.15427 ]
SCF: Cycle:  9   F: -222.319462703870414   dF: -3.488e-03   |Residual|: 7.159e-03   |deigs|: 7.830e-03  t[s]:    660.42
	FillingsUpdate:  mu: -0.099774010  nElectrons: 121.000000  magneticMoment: [ Abs: 0.20243  Tot: -0.17012 ]
SCF: Cycle: 10   F: -222.321054278603214   dF: -1.592e-03   |Residual|: 6.683e-03   |deigs|: 3.931e-03  t[s]:    699.09
	FillingsUpdate:  mu: -0.099106275  nElectrons: 121.000000  magneticMoment: [ Abs: 0.18736  Tot: -0.17145 ]
SCF: Cycle: 11   F: -222.321165251096602   dF: -1.110e-04   |Residual|: 4.751e-03   |deigs|: 1.647e-03  t[s]:    737.91
	FillingsUpdate:  mu: -0.094542733  nElectrons: 121.000000  magneticMoment: [ Abs: 0.18917  Tot: -0.17916 ]
SCF: Cycle: 12   F: -222.321512317700297   dF: -3.471e-04   |Residual|: 4.591e-03   |deigs|: 3.066e-03  t[s]:    776.66
	FillingsUpdate:  mu: -0.090387044  nElectrons: 121.000000  magneticMoment: [ Abs: 0.19624  Tot: -0.18422 ]
SCF: Cycle: 13   F: -222.321710351273936   dF: -1.980e-04   |Residual|: 3.451e-03   |deigs|: 2.434e-03  t[s]:    815.27
	FillingsUpdate:  mu: -0.088595347  nElectrons: 121.000000  magneticMoment: [ Abs: 0.19076  Tot: -0.18475 ]
SCF: Cycle: 14   F: -222.321774472901211   dF: -6.412e-05   |Residual|: 2.880e-03   |deigs|: 1.550e-03  t[s]:    854.09
	FillingsUpdate:  mu: -0.087791384  nElectrons: 121.000000  magneticMoment: [ Abs: 0.19025  Tot: -0.18359 ]
SCF: Cycle: 15   F: -222.321806231731728   dF: -3.176e-05   |Residual|: 1.926e-03   |deigs|: 2.095e-03  t[s]:    893.00
	FillingsUpdate:  mu: -0.087252334  nElectrons: 121.000000  magneticMoment: [ Abs: 0.18913  Tot: -0.18275 ]
SCF: Cycle: 16   F: -222.321814803811264   dF: -8.572e-06   |Residual|: 1.208e-03   |deigs|: 1.039e-03  t[s]:    931.86
	FillingsUpdate:  mu: -0.087312447  nElectrons: 121.000000  magneticMoment: [ Abs: 0.18436  Tot: -0.18166 ]
SCF: Cycle: 17   F: -222.321816081981353   dF: -1.278e-06   |Residual|: 6.361e-04   |deigs|: 8.690e-04  t[s]:    970.58
	FillingsUpdate:  mu: -0.087229176  nElectrons: 121.000000  magneticMoment: [ Abs: 0.18392  Tot: -0.18153 ]
SCF: Cycle: 18   F: -222.321816950474954   dF: -8.685e-07   |Residual|: 4.032e-04   |deigs|: 5.195e-04  t[s]:   1009.34
	FillingsUpdate:  mu: -0.087288870  nElectrons: 121.000000  magneticMoment: [ Abs: 0.18315  Tot: -0.18129 ]
SCF: Cycle: 19   F: -222.321817391031630   dF: -4.406e-07   |Residual|: 2.211e-04   |deigs|: 7.468e-04  t[s]:   1048.04
	FillingsUpdate:  mu: -0.087246347  nElectrons: 121.000000  magneticMoment: [ Abs: 0.18281  Tot: -0.18127 ]
SCF: Cycle: 20   F: -222.321817685819951   dF: -2.948e-07   |Residual|: 1.224e-04   |deigs|: 2.836e-04  t[s]:   1086.85
	FillingsUpdate:  mu: -0.087145544  nElectrons: 121.000000  magneticMoment: [ Abs: 0.18274  Tot: -0.18136 ]
SCF: Cycle: 21   F: -222.321817928310111   dF: -2.425e-07   |Residual|: 6.790e-05   |deigs|: 6.948e-04  t[s]:   1125.69
	FillingsUpdate:  mu: -0.087114100  nElectrons: 121.000000  magneticMoment: [ Abs: 0.18254  Tot: -0.18132 ]
SCF: Cycle: 22   F: -222.321817968037095   dF: -3.973e-08   |Residual|: 4.434e-05   |deigs|: 4.562e-04  t[s]:   1164.46
	FillingsUpdate:  mu: -0.087065184  nElectrons: 121.000000  magneticMoment: [ Abs: 0.18244  Tot: -0.18128 ]
SCF: Cycle: 23   F: -222.321817999023494   dF: -3.099e-08   |Residual|: 2.969e-05   |deigs|: 3.856e-04  t[s]:   1203.67
	FillingsUpdate:  mu: -0.087052271  nElectrons: 121.000000  magneticMoment: [ Abs: 0.18234  Tot: -0.18118 ]
SCF: Cycle: 24   F: -222.321818004925831   dF: -5.902e-09   |Residual|: 2.500e-05   |deigs|: 1.526e-04  t[s]:   1242.42
	FillingsUpdate:  mu: -0.087041035  nElectrons: 121.000000  magneticMoment: [ Abs: 0.18213  Tot: -0.18103 ]
SCF: Cycle: 25   F: -222.321818006643468   dF: -1.718e-09   |Residual|: 2.086e-05   |deigs|: 2.182e-04  t[s]:   1281.45
SCF: Converged (|Delta E|<1.000000e-08 for 2 iters).


Computing DFT-D3 correction:
# coordination-number N 3.140 3.140 3.156 3.140 3.156 3.138 3.138 3.156 3.140 3.156 3.156 3.140 3.140 3.156
# coordination-number B 3.367 3.344 3.344 3.344 3.344 3.367 3.367 3.367 3.344 3.344 3.367 3.367 3.343 3.343
# coordination-number Na 0.348
# diagonal-C6 N 15.61 15.61 15.60 15.61 15.60 15.61 15.61 15.60 15.61 15.60 15.60 15.61 15.61 15.60
# diagonal-C6 B 31.44 31.44 31.44 31.44 31.44 31.44 31.44 31.44 31.44 31.44 31.44 31.44 31.44 31.44
# diagonal-C6 Na 1090.14
EvdW_6 =   -0.031345
EvdW_8 =   -0.029416

# Ionic positions in lattice coordinates:
ion N   0.952380952379803   0.761904761902463   0.000000000000000 0
ion N   1.428571428570279   1.285714285711987   0.325000000000000 0
ion N   0.380952380951232   0.904761904759606   0.000000000000000 0
ion N   0.714285714284565   1.142857142854844   0.325000000000000 0
ion N   0.523809523808374   0.619047619045320   0.000000000000000 0
ion N   0.999999999998850   0.999999999997701   0.325000000000000 0
ion N   0.666666666665517   0.333333333331034   0.000000000000000 0
ion N   1.285714285713136   0.857142857140558   0.325000000000000 0
ion N   0.809523809522660   0.047619047616749   0.000000000000000 0
ion N   1.571428571427422   0.714285714283415   0.325000000000000 0
ion N   0.095238095236946   0.476190476188177   0.000000000000000 0
ion N   0.238095238094089   0.190476190473892   0.000000000000000 0
ion N   0.857142857141708   0.571428571426273   0.325000000000000 0
ion N   1.142857142855993   0.428571428569130   0.325000000000000 0
ion B   0.571428571427422   0.857142857140558   0.000000000000000 0
ion B   0.952380952379803   1.190476190473892   0.325000000000000 0
ion B   0.714285714284565   0.571428571426273   0.000000000000000 0
ion B   1.238095238094089   1.047619047616749   0.325000000000000 0
ion B   0.857142857141708   0.285714285711987   0.000000000000000 0
ion B   1.523809523808374   0.904761904759606   0.325000000000000 0
ion B   0.142857142855993   0.714285714283415   0.000000000000000 0
ion B   0.285714285713136   0.428571428569130   0.000000000000000 0
ion B   0.809523809522660   0.761904761902463   0.325000000000000 0
ion B   0.428571428570279   0.142857142854844   0.000000000000000 0
ion B   1.095238095236946   0.619047619045320   0.325000000000000 0
ion B   1.380952380951231   0.476190476188177   0.325000000000000 0
ion B  -0.000000000001149  -0.000000000002299   0.000000000000000 0
ion B   0.666666666665517   0.333333333331034   0.325000000000000 0
ion Na   0.333333333332184   0.666666666664368   0.162500000000000 0

# Forces in Lattice coordinates:
force N   0.005861498633947  -0.004811655646579  -0.014330081091146 0
force N  -0.004811655646579   0.005861498633947   0.014330081091032 0
force N   0.000482340412698  -0.009674500587692   0.021213283784751 0
force N  -0.001049842987367  -0.004811655646579   0.014330081091032 0
force N  -0.009674500587692   0.009192160174994   0.021213283784865 0
force N   0.000000000000000  -0.000000000000000   0.007778989610304 0
force N  -0.000000000000000   0.000000000000000  -0.007778989610076 0
force N   0.009192160174994  -0.009674500587692  -0.021213283784865 0
force N  -0.004811655646579  -0.001049842987367  -0.014330081091146 0
force N  -0.009674500587692   0.000482340412698  -0.021213283784865 0
force N   0.009192160174994   0.000482340412698   0.021213283784637 0
force N  -0.001049842987367   0.005861498633947  -0.014330081091146 0
force N   0.005861498633947  -0.001049842987367   0.014330081091032 0
force N   0.000482340412698   0.009192160174994  -0.021213283784751 0
force B   0.015657085566247   0.008899722256326  -0.008004248035267 0
force B  -0.004658014028522  -0.014626783334848  -0.050411037337782 0
force B   0.019284797363370  -0.014626783334848   0.050411037337782 0
force B  -0.014626783334848   0.019284797363370  -0.050411037337782 0
force B  -0.014626783334848  -0.004658014028522   0.050411037337782 0
force B   0.008899722256326   0.015657085566247   0.008004248035210 0
force B  -0.024556807822573   0.015657085566247  -0.008004248035267 0
force B   0.008899722256326  -0.024556807822573  -0.008004248035210 0
force B   0.019284797363370  -0.004658014028522  -0.050411037337668 0
force B  -0.004658014028522   0.019284797363370   0.050411037337668 0
force B  -0.024556807822573   0.008899722256326   0.008004248035267 0
force B   0.015657085566247  -0.024556807822573   0.008004248035267 0
force B   0.000000000000000   0.000000000000000   0.061246673064834 0
force B   0.000000000000000   0.000000000000000  -0.061246673064834 0
force Na   0.000000000000000  -0.000000000000000   0.000000000000000 0

# Energy components:
   Eewald =    -2488.7701017698509531
       EH =    -2313.1978711952269805
     Eloc =     4509.8495001731425873
      Enl =      -21.3080624972905994
   Epulay =       -0.0000190610708103
     EvdW =       -0.0607611997999932
      Exc =      -57.7737337023422839
       KE =      148.9392315110097798
-------------------------------------
     Etot =     -222.3218177414292427
       TS =        0.0000002652142368
-------------------------------------
        F =     -222.3218180066434684

IonicMinimize: Iter:   0  F: -222.321818006643468  |grad|_K:  0.000e+00  t[s]:   1285.53
IonicMinimize: Converged (|grad|_K<1.000000e-04).

#--- Lowdin population analysis ---
# oxidation-state N -0.375 -0.375 -0.377 -0.375 -0.377 -0.374 -0.374 -0.377 -0.375 -0.377 -0.377 -0.375 -0.375 -0.377
# magnetic-moments N -0.000 -0.000 -0.001 -0.000 -0.001 -0.000 -0.000 -0.001 -0.000 -0.001 -0.001 -0.000 -0.000 -0.001
# oxidation-state B +0.432 +0.447 +0.447 +0.447 +0.447 +0.432 +0.432 +0.432 +0.447 +0.447 +0.432 +0.432 +0.447 +0.447
# magnetic-moments B -0.000 -0.000 -0.000 -0.000 -0.000 -0.000 -0.000 -0.000 -0.000 -0.000 -0.000 -0.000 -0.000 -0.000
# oxidation-state Na +0.086
# magnetic-moments Na -0.161


Dumping 'Na-0.325.fillings' ... done
Dumping 'Na-0.325.wfns' ... done
Dumping 'Na-0.325.n_up' ... done
Dumping 'Na-0.325.n_dn' ... done
Dumping 'Na-0.325.eigenvals' ... done
End date and time: Sun Jan 23 16:57:35 2022  (Duration: 0-0:21:30.83)
Done!
