Second Layer Distance is 0.358

--------------------------------------------------------------------------
The library attempted to open the following supporting CUDA libraries,
but each of them failed.  CUDA-aware support is disabled.
libcuda.so.1: cannot open shared object file: No such file or directory
libcuda.dylib: cannot open shared object file: No such file or directory
/usr/lib64/libcuda.so.1: cannot open shared object file: No such file or directory
/usr/lib64/libcuda.dylib: cannot open shared object file: No such file or directory
If you are not interested in CUDA-aware support, then run with
--mca opal_warn_on_missing_libcuda 0 to suppress this message.  If you are interested
in CUDA-aware support, then try setting LD_LIBRARY_PATH to the location
of libcuda.so.1 to get passed this issue.
--------------------------------------------------------------------------
--------------------------------------------------------------------------
No OpenFabrics connection schemes reported that they were able to be
used on a specific port.  As such, the openib BTL (OpenFabrics
support) will be disabled for this port.

  Local host:           d-16-11-1
  Local device:         mlx5_1
  Local port:           1
  CPCs attempted:       rdmacm, udcm
--------------------------------------------------------------------------

*************** JDFTx 1.6.0 (git hash 42ebbcc2) ***************

Start date and time: Wed Jan 19 20:57:52 2022
Executable jdftx with command-line: -i Moire.in
Running on hosts (process indices):  d-16-11-1 (0-18)
Divided in process groups (process indices):  0 (0)  1 (1)  2 (2)  3 (3)  4 (4)  5 (5)  6 (6)  7 (7)  8 (8)  9 (9)  10 (10)  11 (11)  12 (12)  13 (13)  14 (14)  15 (15)  16 (16)  17 (17)  18 (18)
Resource initialization completed at t[s]:      0.00
Run totals: 19 processes, 48 threads, 0 GPUs


Input parsed successfully to the following command list (including defaults):

basis kpoint-dependent
coords-type Lattice
core-overlap-check vector
coulomb-interaction Slab 001
davidson-band-ratio 1.1
dump End State ElecDensity BandEigs
dump-name Na-0.358.$VAR
elec-cutoff 20
elec-eigen-algo Davidson
elec-ex-corr gga-PBE
elec-initial-magnetization 0.100000 no
elec-smearing Fermi 1e-05
electronic-minimize  \
	dirUpdateScheme      FletcherReeves \
	linminMethod         DirUpdateRecommended \
	nIterations          100 \
	history              15 \
	knormThreshold       0 \
	energyDiffThreshold  1e-08 \
	nEnergyDiff          2 \
	alphaTstart          1 \
	alphaTmin            1e-10 \
	updateTestStepSize   yes \
	alphaTreduceFactor   0.1 \
	alphaTincreaseFactor 3 \
	nAlphaAdjustMax      3 \
	wolfeEnergy          0.0001 \
	wolfeGradient        0.9 \
	fdTest               no
electronic-scf  \
	nIterations	1000 \
	energyDiffThreshold	1e-08 \
	residualThreshold	1e-07 \
	mixFraction	0.5 \
	qMetric	0.8 \
	history	10 \
	nEigSteps	2 \
	eigDiffThreshold	1e-08 \
	mixedVariable	Density \
	qKerker	0.8 \
	qKappa	-1 \
	verbose	no \
	mixFractionMag	1.5
exchange-regularization WignerSeitzTruncated
fluid None
fluid-ex-corr (null) lda-PZ
fluid-gummel-loop 10 1.000000e-05
fluid-minimize  \
	dirUpdateScheme      PolakRibiere \
	linminMethod         DirUpdateRecommended \
	nIterations          100 \
	history              15 \
	knormThreshold       0 \
	energyDiffThreshold  0 \
	nEnergyDiff          2 \
	alphaTstart          1 \
	alphaTmin            1e-10 \
	updateTestStepSize   yes \
	alphaTreduceFactor   0.1 \
	alphaTincreaseFactor 3 \
	nAlphaAdjustMax      3 \
	wolfeEnergy          0.0001 \
	wolfeGradient        0.9 \
	fdTest               no
fluid-solvent H2O 55.338 ScalarEOS \
	epsBulk 78.4 \
	pMol 0.92466 \
	epsInf 1.77 \
	Pvap 1.06736e-10 \
	sigmaBulk 4.62e-05 \
	Rvdw 2.61727 \
	Res 1.42 \
	tauNuc 343133 \
	poleEl 15 7 1
forces-output-coords Positions
ion N   0.952380952380952   0.761904761904762   0.000000000000000 0
ion N   1.428571428571428   1.285714285714286   0.358000000000000 0
ion N   0.380952380952381   0.904761904761905   0.000000000000000 0
ion N   0.714285714285714   1.142857142857143   0.358000000000000 0
ion N   0.523809523809524   0.619047619047619   0.000000000000000 0
ion N   1.000000000000000   1.000000000000000   0.358000000000000 0
ion N   0.666666666666667   0.333333333333333   0.000000000000000 0
ion N   1.285714285714286   0.857142857142857   0.358000000000000 0
ion N   0.809523809523810   0.047619047619048   0.000000000000000 0
ion N   1.571428571428571   0.714285714285714   0.358000000000000 0
ion N   0.095238095238095   0.476190476190476   0.000000000000000 0
ion N   0.238095238095238   0.190476190476190   0.000000000000000 0
ion N   0.857142857142857   0.571428571428571   0.358000000000000 0
ion N   1.142857142857143   0.428571428571429   0.358000000000000 0
ion B   0.571428571428572   0.857142857142857   0.000000000000000 0
ion B   0.952380952380952   1.190476190476190   0.358000000000000 0
ion B   0.714285714285714   0.571428571428571   0.000000000000000 0
ion B   1.238095238095238   1.047619047619047   0.358000000000000 0
ion B   0.857142857142857   0.285714285714286   0.000000000000000 0
ion B   1.523809523809524   0.904761904761905   0.358000000000000 0
ion B   0.142857142857143   0.714285714285714   0.000000000000000 0
ion B   0.285714285714286   0.428571428571429   0.000000000000000 0
ion B   0.809523809523810   0.761904761904762   0.358000000000000 0
ion B   0.428571428571429   0.142857142857143   0.000000000000000 0
ion B   1.095238095238095   0.619047619047619   0.358000000000000 0
ion B   1.380952380952381   0.476190476190476   0.358000000000000 0
ion B   0.000000000000000   0.000000000000000   0.000000000000000 0
ion B   0.666666666666667   0.333333333333333   0.358000000000000 0
ion Na   0.333333333300000   0.666666666600000   0.179000000000000 0
ion-species SG15/$ID_ONCV_PBE.upf
ion-width 0
ionic-minimize  \
	dirUpdateScheme      L-BFGS \
	linminMethod         DirUpdateRecommended \
	nIterations          0 \
	history              15 \
	knormThreshold       0.0001 \
	energyDiffThreshold  1e-06 \
	nEnergyDiff          2 \
	alphaTstart          1 \
	alphaTmin            1e-10 \
	updateTestStepSize   yes \
	alphaTreduceFactor   0.1 \
	alphaTincreaseFactor 3 \
	nAlphaAdjustMax      3 \
	wolfeEnergy          0.0001 \
	wolfeGradient        0.9 \
	fdTest               no
kpoint   0.000000000000   0.000000000000   0.000000000000  1.00000000000000
kpoint-folding 12 12 1 
latt-move-scale 1 1 1
latt-scale 1 1 1 
lattice  \
	 -11.818700000000000    2.363740000000000    0.000000000000000  \
	   4.094120000000000  -12.282400000000001    0.000000000000000  \
	   0.000000000000000    0.000000000000000   40.000000000000000 
lattice-minimize  \
	dirUpdateScheme      L-BFGS \
	linminMethod         DirUpdateRecommended \
	nIterations          0 \
	history              15 \
	knormThreshold       0 \
	energyDiffThreshold  1e-06 \
	nEnergyDiff          2 \
	alphaTstart          1 \
	alphaTmin            1e-10 \
	updateTestStepSize   yes \
	alphaTreduceFactor   0.1 \
	alphaTincreaseFactor 3 \
	nAlphaAdjustMax      3 \
	wolfeEnergy          0.0001 \
	wolfeGradient        0.9 \
	fdTest               no
lcao-params -1 1e-06 1e-05
pcm-variant GLSSA13
spintype z-spin
subspace-rotation-factor 1 yes
symmetries automatic
symmetry-threshold 0.0001
van-der-waals D3



---------- Setting up symmetries ----------

Found 24 point-group symmetries of the bravais lattice
Found 6 space-group symmetries with basis
Applied RMS atom displacement 1.31765e-10 bohrs to make symmetries exact.

---------- Initializing the Grid ----------
R = 
[     -11.8187      2.36374            0  ]
[      4.09412     -12.2824            0  ]
[            0            0           40  ]
unit cell volume = 5419.38
G =
[  -0.569604   -0.10962          0  ]
[  -0.189867    -0.5481          0  ]
[          0          0    0.15708  ]
Minimum fftbox size, Smin = [  52  52  164  ]
Chosen fftbox size, S = [  54  54  168  ]

---------- Exchange Correlation functional ----------
Initalized PBE GGA exchange.
Initalized PBE GGA correlation.

---------- Setting up pseudopotentials ----------
Width of ionic core gaussian charges (only for fluid interactions / plotting) set to 0

Reading pseudopotential file '/home/gridsan/aligho/DFT/build-Nov24/pseudopotentials/SG15/N_ONCV_PBE.upf':
  'N' pseudopotential, 'PBE' functional
  Generated using ONCVPSP code by D. R. Hamann
  Author: Martin Schlipf and Francois Gygi  Date: 150915.
  5 valence electrons, 2 orbitals, 4 projectors, 1058 radial grid points, with lMax = 1
  Transforming local potential to a uniform radial grid of dG=0.02 with 1514 points.
  Transforming nonlocal projectors to a uniform radial grid of dG=0.02 with 432 points.
    2S    l: 0   occupation:  2.0   eigenvalue: -0.682907
    2P    l: 1   occupation:  3.0   eigenvalue: -0.260548
  Transforming atomic orbitals to a uniform radial grid of dG=0.02 with 432 points.
  Core radius for overlap checks: 1.35 bohrs.
  Reading pulay file /home/gridsan/aligho/DFT/build-Nov24/pseudopotentials/SG15/N_ONCV_PBE.pulay ... using dE_dnG = -2.956256e-02 computed for Ecut = 20.

Reading pseudopotential file '/home/gridsan/aligho/DFT/build-Nov24/pseudopotentials/SG15/B_ONCV_PBE.upf':
  'B' pseudopotential, 'PBE' functional
  Generated using ONCVPSP code by D. R. Hamann
  Author: Martin Schlipf and Francois Gygi  Date: 150915.
  3 valence electrons, 2 orbitals, 4 projectors, 1534 radial grid points, with lMax = 1
  Transforming local potential to a uniform radial grid of dG=0.02 with 1514 points.
  Transforming nonlocal projectors to a uniform radial grid of dG=0.02 with 432 points.
    2S    l: 0   occupation:  2.0   eigenvalue: -0.347027
    2P    l: 1   occupation:  1.0   eigenvalue: -0.132548
  Transforming atomic orbitals to a uniform radial grid of dG=0.02 with 432 points.
  Core radius for overlap checks: 1.60 bohrs.
  Reading pulay file /home/gridsan/aligho/DFT/build-Nov24/pseudopotentials/SG15/B_ONCV_PBE.pulay ... using dE_dnG = -3.748568e-04 computed for Ecut = 20.

Reading pseudopotential file '/home/gridsan/aligho/DFT/build-Nov24/pseudopotentials/SG15/Na_ONCV_PBE.upf':
  'Na' pseudopotential, 'PBE' functional
  Generated using ONCVPSP code by D. R. Hamann
  Author: Martin Schlipf and Francois Gygi  Date: 150915.
  9 valence electrons, 3 orbitals, 4 projectors, 1992 radial grid points, with lMax = 1
  Transforming local potential to a uniform radial grid of dG=0.02 with 1514 points.
  Transforming nonlocal projectors to a uniform radial grid of dG=0.02 with 432 points.
    2S    l: 0   occupation:  2.0   eigenvalue: -2.085640
    2P    l: 1   occupation:  6.0   eigenvalue: -1.053708
    3S    l: 0   occupation:  1.0   eigenvalue: -0.100838
  Transforming atomic orbitals to a uniform radial grid of dG=0.02 with 432 points.
  Core radius for overlap checks: 2.01 bohrs.
  Reading pulay file /home/gridsan/aligho/DFT/build-Nov24/pseudopotentials/SG15/Na_ONCV_PBE.pulay ... using dE_dnG = -2.946487e-03 computed for Ecut = 20.

Initialized 3 species with 29 total atoms.

Folded 1 k-points by 12x12x1 to 144 k-points.

---------- Setting up k-points, bands, fillings ----------
Adding inversion symmetry to k-mesh for non-inversion-symmetric unit cell.
Reduced to 19 k-points under symmetry. 
Computing the number of bands and number of electrons
Calculating initial fillings.
nElectrons: 121.000000   nBands: 117   nStates: 38

----- Setting up reduced wavefunction bases (one per k-point) -----
average nbasis = 23151.771 , ideal nbasis = 23152.016

---------- Setting up coulomb interaction ----------
Initialized slab truncation along lattice direction 001

Initializing DFT-D3 calculator:
	Parameters set for gga-PBE functional
	s6:  1.000  s_r6:  1.217
	s8:  0.722  s_r8:  1.000
	Per-atom parameters loaded for:
	 N:  sqrtQ[a0]:  2.712  Rcov[a0]:  1.342  CN: [ 0.00 0.99 2.01 2.99 ]
	 B:  sqrtQ[a0]:  3.644  Rcov[a0]:  1.455  CN: [ 0.00 0.97 1.94 2.91 4.59 ]
	Na:  sqrtQ[a0]:  6.586  Rcov[a0]:  2.646  CN: [ 0.00 0.97 ]

---------- Setting up 2D ewald sum ----------
Optimum gaussian width for ewald sums = 6.943804 bohr.
Real space sums over 289 unit cells with max indices [  8  8  0  ]
Reciprocal space sums over 81 terms with max indices [  4  4  0  ]

Computing DFT-D3 correction:
# coordination-number N 3.138 3.138 3.144 3.138 3.144 3.138 3.138 3.144 3.138 3.144 3.144 3.138 3.138 3.144
# coordination-number B 3.350 3.342 3.342 3.342 3.342 3.350 3.350 3.350 3.342 3.342 3.350 3.350 3.342 3.342
# coordination-number Na 0.154
# diagonal-C6 N 15.61 15.61 15.61 15.61 15.61 15.61 15.61 15.61 15.61 15.61 15.61 15.61 15.61 15.61
# diagonal-C6 B 31.44 31.44 31.44 31.44 31.44 31.44 31.44 31.44 31.44 31.44 31.44 31.44 31.44 31.44
# diagonal-C6 Na 1453.80
EvdW_6 =   -0.030789
EvdW_8 =   -0.028251

---------- Allocating electronic variables ----------
Initializing wave functions:  linear combination of atomic orbitals
N pseudo-atom occupations:   s ( 2 )  p ( 3 )
[d-16-11-1:66596] 18 more processes have sent help message help-mpi-common-cuda.txt / dlopen failed
[d-16-11-1:66596] Set MCA parameter "orte_base_help_aggregate" to 0 to see all help / error messages
[d-16-11-1:66596] 18 more processes have sent help message help-mpi-btl-openib-cpc-base.txt / no cpcs for port
B pseudo-atom occupations:   s ( 2 )  p ( 1 )
Na pseudo-atom occupations:   s ( 2 1 )  p ( 6 )
	FillingsUpdate:  mu: -0.083623732  nElectrons: 121.000000  magneticMoment: [ Abs: 0.06282  Tot: +0.05556 ]
LCAOMinimize: Iter:   0  F: -218.8684854968344951  |grad|_K:  3.978e-03  alpha:  1.000e+00
	FillingsUpdate:  mu: -0.291734322  nElectrons: 121.000000  magneticMoment: [ Abs: 0.12635  Tot: +0.11111 ]
LCAOMinimize: Iter:   1  F: -220.6045407272128216  |grad|_K:  8.343e-04  alpha:  4.477e-01  linmin:  4.590e-01  cgtest: -1.051e+00  t[s]:     49.12
LCAOMinimize: 	Bad step direction: g.d > 0.
LCAOMinimize: 	Undoing step.
LCAOMinimize: 	Step failed: resetting search direction.
	FillingsUpdate:  mu: -0.291734322  nElectrons: 121.000000  magneticMoment: [ Abs: 0.12635  Tot: +0.11111 ]
LCAOMinimize: Iter:   2  F: -220.6045407272128216  |grad|_K:  8.343e-04  alpha:  0.000e+00
	FillingsUpdate:  mu: -0.105081844  nElectrons: 121.000000  magneticMoment: [ Abs: 0.06766  Tot: +0.01371 ]
LCAOMinimize: Iter:   3  F: -220.6643346122733362  |grad|_K:  7.145e-04  alpha:  7.096e-01  linmin:  3.262e-01  cgtest: -9.406e-01  t[s]:     74.20
LCAOMinimize: 	Bad step direction: g.d > 0.
LCAOMinimize: 	Undoing step.
LCAOMinimize: 	Step failed: resetting search direction.
	FillingsUpdate:  mu: -0.105081844  nElectrons: 121.000000  magneticMoment: [ Abs: 0.06766  Tot: +0.01371 ]
LCAOMinimize: Iter:   4  F: -220.6643346122733362  |grad|_K:  7.145e-04  alpha:  0.000e+00
	FillingsUpdate:  mu: -0.115542359  nElectrons: 121.000000  magneticMoment: [ Abs: 0.05528  Tot: +0.01389 ]
LCAOMinimize: Iter:   5  F: -220.7180042754997089  |grad|_K:  1.939e-04  alpha:  3.237e-01  linmin: -1.030e-01  cgtest:  9.122e-01  t[s]:     99.28
LCAOMinimize: Encountered beta<0, resetting CG.
LCAOMinimize: 	Wrong curvature in test step, increasing alphaT to 9.710637e-01.
	FillingsUpdate:  mu: -0.133721259  nElectrons: 121.000000  magneticMoment: [ Abs: 0.20294  Tot: +0.18056 ]
LCAOMinimize: Iter:   6  F: -220.7281829917629921  |grad|_K:  3.082e-04  alpha: -2.789e-01  linmin: -9.486e-03  cgtest:  7.129e-02  t[s]:    113.61
LCAOMinimize: 	Step increased F by 7.984536e-02, reducing alpha to 4.152962e-02.
LCAOMinimize: 	Step increased F by 4.835916e-03, reducing alpha to 4.152962e-03.
	FillingsUpdate:  mu: -0.136176855  nElectrons: 121.000000  magneticMoment: [ Abs: 0.17670  Tot: +0.15278 ]
LCAOMinimize: Iter:   7  F: -220.7284016286689621  |grad|_K:  1.728e-05  alpha:  4.153e-03  linmin: -3.991e-02  cgtest:  8.916e+00  t[s]:    149.02
LCAOMinimize: Encountered beta<0, resetting CG.
LCAOMinimize: 	Predicted alpha/alphaT>3.000000, increasing alphaT to 1.245889e-02.
LCAOMinimize: 	Predicted alpha/alphaT>3.000000, increasing alphaT to 3.737666e-02.
LCAOMinimize: 	Predicted alpha/alphaT>3.000000, increasing alphaT to 1.121300e-01.
	FillingsUpdate:  mu: -0.136367412  nElectrons: 121.000000  magneticMoment: [ Abs: 0.19811  Tot: +0.15278 ]
LCAOMinimize: Iter:   8  F: -220.7284391541594459  |grad|_K:  6.060e-06  alpha:  4.746e-01  linmin: -4.556e-04  cgtest:  2.604e-03  t[s]:    172.12
	FillingsUpdate:  mu: -0.136369578  nElectrons: 121.000000  magneticMoment: [ Abs: 0.19843  Tot: +0.15278 ]
LCAOMinimize: Iter:   9  F: -220.7284393133169829  |grad|_K:  6.006e-06  alpha:  8.217e-03  linmin: -8.724e-02  cgtest:  1.000e+00  t[s]:    186.70
LCAOMinimize: Encountered beta<0, resetting CG.
LCAOMinimize: 	Predicted alpha/alphaT>3.000000, increasing alphaT to 2.465107e-02.
LCAOMinimize: 	Predicted alpha/alphaT>3.000000, increasing alphaT to 7.395321e-02.
LCAOMinimize: 	Predicted alpha/alphaT>3.000000, increasing alphaT to 2.218596e-01.
LCAOMinimize: 	Step increased F by 2.646391e-04, reducing alpha to 7.430921e-02.
	FillingsUpdate:  mu: -0.136384369  nElectrons: 121.000000  magneticMoment: [ Abs: 0.20090  Tot: +0.15278 ]
LCAOMinimize: Iter:  10  F: -220.7284406605157869  |grad|_K:  5.419e-06  alpha:  7.431e-02  linmin: -1.087e-01  cgtest:  9.971e-01  t[s]:    220.09
LCAOMinimize: Encountered beta<0, resetting CG.
LCAOMinimize: 	Predicted alpha/alphaT>3.000000, increasing alphaT to 2.229276e-01.
LCAOMinimize: 	Predicted alpha/alphaT>3.000000, increasing alphaT to 6.687829e-01.
	FillingsUpdate:  mu: -0.136386598  nElectrons: 121.000000  magneticMoment: [ Abs: 0.20131  Tot: +0.15278 ]
LCAOMinimize: Iter:  11  F: -220.7284408577832266  |grad|_K:  5.334e-06  alpha:  1.280e-02  linmin: -1.060e-01  cgtest:  9.999e-01  t[s]:    243.18
LCAOMinimize: Encountered beta<0, resetting CG.
LCAOMinimize: 	Predicted alpha/alphaT>3.000000, increasing alphaT to 3.839213e-02.
LCAOMinimize: 	Predicted alpha/alphaT>3.000000, increasing alphaT to 1.151764e-01.
LCAOMinimize: 	Predicted alpha/alphaT>3.000000, increasing alphaT to 3.455292e-01.
LCAOMinimize: 	Step increased F by 1.083392e-03, reducing alpha to 8.323016e-02.
	FillingsUpdate:  mu: -0.136400810  nElectrons: 121.000000  magneticMoment: [ Abs: 0.20394  Tot: +0.15278 ]
LCAOMinimize: Iter:  12  F: -220.7284420484267571  |grad|_K:  4.814e-06  alpha:  8.323e-02  linmin: -1.041e-01  cgtest:  9.970e-01  t[s]:    276.74
LCAOMinimize: Encountered beta<0, resetting CG.
LCAOMinimize: 	Predicted alpha/alphaT>3.000000, increasing alphaT to 2.496905e-01.
LCAOMinimize: 	Wrong curvature in test step, increasing alphaT to 7.490715e-01.
	FillingsUpdate:  mu: -0.136592946  nElectrons: 121.000000  magneticMoment: [ Abs: 0.21138  Tot: +0.15278 ]
LCAOMinimize: Iter:  13  F: -220.7284452441954556  |grad|_K:  7.252e-06  alpha: -2.855e+00  linmin: -1.049e-02  cgtest:  4.701e-01  t[s]:    295.24
	FillingsUpdate:  mu: -0.137208205  nElectrons: 121.000000  magneticMoment: [ Abs: 0.21215  Tot: +0.15278 ]
LCAOMinimize: Iter:  14  F: -220.7284463301129733  |grad|_K:  3.736e-06  alpha:  1.085e-02  linmin:  4.886e-03  cgtest:  2.035e-01  t[s]:    309.89
	FillingsUpdate:  mu: -0.137217794  nElectrons: 121.000000  magneticMoment: [ Abs: 0.21224  Tot: +0.15278 ]
LCAOMinimize: Iter:  15  F: -220.7284463340065486  |grad|_K:  4.140e-06  alpha:  2.462e-03  linmin: -7.023e-05  cgtest:  9.822e-01  t[s]:    324.49
LCAOMinimize: 	Predicted alpha/alphaT>3.000000, increasing alphaT to 7.384643e-03.
LCAOMinimize: 	Predicted alpha/alphaT>3.000000, increasing alphaT to 2.215393e-02.
LCAOMinimize: 	Predicted alpha/alphaT>3.000000, increasing alphaT to 6.646179e-02.
	FillingsUpdate:  mu: -0.136925138  nElectrons: 121.000000  magneticMoment: [ Abs: 0.21556  Tot: +0.15278 ]
LCAOMinimize: Iter:  16  F: -220.7284469891796164  |grad|_K:  5.156e-06  alpha:  1.186e-01  linmin: -9.258e-04  cgtest: -1.716e-01  t[s]:    347.60
LCAOMinimize: Converged (|Delta F|<1.000000e-06 for 2 iters).


---- Citations for features of the code used in this run ----

   Software package:
      R. Sundararaman, K. Letchworth-Weaver, K.A. Schwarz, D. Gunceler, Y. Ozhabes and T.A. Arias, 'JDFTx: software for joint density-functional theory', SoftwareX 6, 278 (2017)

   gga-PBE exchange-correlation functional:
      J.P. Perdew, K. Burke and M. Ernzerhof, Phys. Rev. Lett. 77, 3865 (1996)

   Pseudopotentials:
      M Schlipf and F Gygi, Comput. Phys. Commun. 196, 36 (2015)

   Truncated Coulomb potentials:
      R. Sundararaman and T.A. Arias, Phys. Rev. B 87, 165122 (2013)

   DFT-D3 dispersion correction:
      S. Grimme, J. Antony, S. Ehrlich and H. Krieg, J. Chem. Phys. 132, 154104 (2010)

This list may not be complete. Please suggest additional citations or
report any other bugs at https://github.com/shankar1729/jdftx/issues

Initialization completed successfully at t[s]:    349.73


Computing DFT-D3 correction:
# coordination-number N 3.138 3.138 3.144 3.138 3.144 3.138 3.138 3.144 3.138 3.144 3.144 3.138 3.138 3.144
# coordination-number B 3.350 3.342 3.342 3.342 3.342 3.350 3.350 3.350 3.342 3.342 3.350 3.350 3.342 3.342
# coordination-number Na 0.154
# diagonal-C6 N 15.61 15.61 15.61 15.61 15.61 15.61 15.61 15.61 15.61 15.61 15.61 15.61 15.61 15.61
# diagonal-C6 B 31.44 31.44 31.44 31.44 31.44 31.44 31.44 31.44 31.44 31.44 31.44 31.44 31.44 31.44
# diagonal-C6 Na 1453.80
EvdW_6 =   -0.030789
EvdW_8 =   -0.028251

-------- Electronic minimization -----------
Will mix electronic density at each iteration.
	FillingsUpdate:  mu: -0.136925134  nElectrons: 121.000000  magneticMoment: [ Abs: 0.21556  Tot: +0.15278 ]
	FillingsUpdate:  mu: -0.145253916  nElectrons: 121.000000  magneticMoment: [ Abs: 0.21556  Tot: +0.15278 ]
SCF: Cycle:  0   F: -222.142172316740925   dF: -1.414e+00   |Residual|: 4.045e-01   |deigs|: 1.019e-01  t[s]:    398.41
	FillingsUpdate:  mu: -0.143400281  nElectrons: 121.000000  magneticMoment: [ Abs: 0.24440  Tot: +0.15432 ]
SCF: Cycle:  1   F: -222.244147481063351   dF: -1.020e-01   |Residual|: 2.244e-01   |deigs|: 2.253e-02  t[s]:    435.87
	FillingsUpdate:  mu: -0.145683837  nElectrons: 121.000000  magneticMoment: [ Abs: 0.31632  Tot: +0.13850 ]
SCF: Cycle:  2   F: -222.268151382427988   dF: -2.400e-02   |Residual|: 4.441e-02   |deigs|: 3.018e-02  t[s]:    473.22
	FillingsUpdate:  mu: -0.144166994  nElectrons: 121.000000  magneticMoment: [ Abs: 0.15357  Tot: +0.13079 ]
SCF: Cycle:  3   F: -222.272148244116778   dF: -3.997e-03   |Residual|: 3.176e-02   |deigs|: 7.891e-03  t[s]:    510.79
	FillingsUpdate:  mu: -0.138672769  nElectrons: 121.000000  magneticMoment: [ Abs: 0.19341  Tot: +0.11078 ]
SCF: Cycle:  4   F: -222.279181685245391   dF: -7.033e-03   |Residual|: 1.671e-02   |deigs|: 1.538e-02  t[s]:    548.62
	FillingsUpdate:  mu: -0.135221634  nElectrons: 121.000000  magneticMoment: [ Abs: 0.12166  Tot: +0.09971 ]
SCF: Cycle:  5   F: -222.282822763094742   dF: -3.641e-03   |Residual|: 1.508e-02   |deigs|: 7.371e-03  t[s]:    586.32
	FillingsUpdate:  mu: -0.127551580  nElectrons: 121.000000  magneticMoment: [ Abs: 0.10488  Tot: +0.08160 ]
SCF: Cycle:  6   F: -222.288743284871146   dF: -5.921e-03   |Residual|: 9.948e-03   |deigs|: 8.398e-03  t[s]:    623.90
	FillingsUpdate:  mu: -0.118788917  nElectrons: 121.000000  magneticMoment: [ Abs: 0.09462  Tot: +0.06351 ]
SCF: Cycle:  7   F: -222.293397201934454   dF: -4.654e-03   |Residual|: 9.843e-03   |deigs|: 6.792e-03  t[s]:    661.49
	FillingsUpdate:  mu: -0.109702407  nElectrons: 121.000000  magneticMoment: [ Abs: 0.08694  Tot: +0.04616 ]
SCF: Cycle:  8   F: -222.296936408267015   dF: -3.539e-03   |Residual|: 9.138e-03   |deigs|: 5.485e-03  t[s]:    699.35
	FillingsUpdate:  mu: -0.100688190  nElectrons: 121.000000  magneticMoment: [ Abs: 0.05411  Tot: +0.03008 ]
SCF: Cycle:  9   F: -222.299293335165061   dF: -2.357e-03   |Residual|: 6.380e-03   |deigs|: 4.731e-03  t[s]:    737.21
	FillingsUpdate:  mu: -0.090294798  nElectrons: 121.000000  magneticMoment: [ Abs: 0.04587  Tot: +0.01279 ]
SCF: Cycle: 10   F: -222.300714997561528   dF: -1.422e-03   |Residual|: 6.396e-03   |deigs|: 4.924e-03  t[s]:    774.98
	FillingsUpdate:  mu: -0.087624914  nElectrons: 121.000000  magneticMoment: [ Abs: 0.04146  Tot: +0.01079 ]
SCF: Cycle: 11   F: -222.300827260269557   dF: -1.123e-04   |Residual|: 4.346e-03   |deigs|: 1.658e-03  t[s]:    812.91
	FillingsUpdate:  mu: -0.084863016  nElectrons: 121.000000  magneticMoment: [ Abs: 0.03189  Tot: +0.00869 ]
SCF: Cycle: 12   F: -222.300927570724298   dF: -1.003e-04   |Residual|: 3.542e-03   |deigs|: 1.503e-03  t[s]:    850.77
	FillingsUpdate:  mu: -0.081555764  nElectrons: 121.000000  magneticMoment: [ Abs: 0.03141  Tot: +0.00721 ]
SCF: Cycle: 13   F: -222.301018163015499   dF: -9.059e-05   |Residual|: 2.753e-03   |deigs|: 1.569e-03  t[s]:    888.49
	FillingsUpdate:  mu: -0.080285562  nElectrons: 121.000000  magneticMoment: [ Abs: 0.02787  Tot: +0.00784 ]
SCF: Cycle: 14   F: -222.301041389128329   dF: -2.323e-05   |Residual|: 2.150e-03   |deigs|: 1.238e-03  t[s]:    926.43
	FillingsUpdate:  mu: -0.079617954  nElectrons: 121.000000  magneticMoment: [ Abs: 0.02678  Tot: +0.00993 ]
SCF: Cycle: 15   F: -222.301050921650159   dF: -9.533e-06   |Residual|: 1.638e-03   |deigs|: 2.438e-03  t[s]:    964.51
	FillingsUpdate:  mu: -0.079760151  nElectrons: 121.000000  magneticMoment: [ Abs: 0.02633  Tot: +0.01151 ]
SCF: Cycle: 16   F: -222.301053506850479   dF: -2.585e-06   |Residual|: 1.135e-03   |deigs|: 8.203e-04  t[s]:   1002.48
	FillingsUpdate:  mu: -0.079790953  nElectrons: 121.000000  magneticMoment: [ Abs: 0.01677  Tot: +0.01286 ]
SCF: Cycle: 17   F: -222.301055921081513   dF: -2.414e-06   |Residual|: 7.592e-04   |deigs|: 1.154e-03  t[s]:   1040.38
	FillingsUpdate:  mu: -0.079692426  nElectrons: 121.000000  magneticMoment: [ Abs: 0.01574  Tot: +0.01297 ]
SCF: Cycle: 18   F: -222.301056568043919   dF: -6.470e-07   |Residual|: 4.425e-04   |deigs|: 6.731e-04  t[s]:   1078.23
	FillingsUpdate:  mu: -0.079790195  nElectrons: 121.000000  magneticMoment: [ Abs: 0.01633  Tot: +0.01331 ]
SCF: Cycle: 19   F: -222.301056902774690   dF: -3.347e-07   |Residual|: 2.882e-04   |deigs|: 7.677e-04  t[s]:   1116.12
	FillingsUpdate:  mu: -0.079819679  nElectrons: 121.000000  magneticMoment: [ Abs: 0.01512  Tot: +0.01347 ]
SCF: Cycle: 20   F: -222.301056959810410   dF: -5.704e-08   |Residual|: 1.344e-04   |deigs|: 1.443e-03  t[s]:   1154.04
	FillingsUpdate:  mu: -0.079889991  nElectrons: 121.000000  magneticMoment: [ Abs: 0.01428  Tot: +0.01361 ]
SCF: Cycle: 21   F: -222.301057054315635   dF: -9.451e-08   |Residual|: 7.713e-05   |deigs|: 1.166e-03  t[s]:   1191.97
	FillingsUpdate:  mu: -0.079931421  nElectrons: 121.000000  magneticMoment: [ Abs: 0.01406  Tot: +0.01369 ]
SCF: Cycle: 22   F: -222.301057112094838   dF: -5.778e-08   |Residual|: 4.756e-05   |deigs|: 2.436e-04  t[s]:   1229.69
	FillingsUpdate:  mu: -0.079962771  nElectrons: 121.000000  magneticMoment: [ Abs: 0.01398  Tot: +0.01375 ]
SCF: Cycle: 23   F: -222.301057146766027   dF: -3.467e-08   |Residual|: 3.494e-05   |deigs|: 1.525e-04  t[s]:   1267.66
	FillingsUpdate:  mu: -0.079984104  nElectrons: 121.000000  magneticMoment: [ Abs: 0.01397  Tot: +0.01380 ]
SCF: Cycle: 24   F: -222.301057162807524   dF: -1.604e-08   |Residual|: 2.068e-05   |deigs|: 2.342e-04  t[s]:   1305.48
	FillingsUpdate:  mu: -0.080001514  nElectrons: 121.000000  magneticMoment: [ Abs: 0.01396  Tot: +0.01384 ]
SCF: Cycle: 25   F: -222.301057170311140   dF: -7.504e-09   |Residual|: 1.328e-05   |deigs|: 7.481e-05  t[s]:   1343.35
	FillingsUpdate:  mu: -0.080012824  nElectrons: 121.000000  magneticMoment: [ Abs: 0.01395  Tot: +0.01386 ]
SCF: Cycle: 26   F: -222.301057173783533   dF: -3.472e-09   |Residual|: 8.817e-06   |deigs|: 5.953e-05  t[s]:   1381.24
SCF: Converged (|Delta E|<1.000000e-08 for 2 iters).


Computing DFT-D3 correction:
# coordination-number N 3.138 3.138 3.144 3.138 3.144 3.138 3.138 3.144 3.138 3.144 3.144 3.138 3.138 3.144
# coordination-number B 3.350 3.342 3.342 3.342 3.342 3.350 3.350 3.350 3.342 3.342 3.350 3.350 3.342 3.342
# coordination-number Na 0.154
# diagonal-C6 N 15.61 15.61 15.61 15.61 15.61 15.61 15.61 15.61 15.61 15.61 15.61 15.61 15.61 15.61
# diagonal-C6 B 31.44 31.44 31.44 31.44 31.44 31.44 31.44 31.44 31.44 31.44 31.44 31.44 31.44 31.44
# diagonal-C6 Na 1453.80
EvdW_6 =   -0.030789
EvdW_8 =   -0.028251

# Ionic positions in lattice coordinates:
ion N   0.952380952379803   0.761904761902463   0.000000000000000 0
ion N   1.428571428570279   1.285714285711987   0.358000000000000 0
ion N   0.380952380951232   0.904761904759606   0.000000000000000 0
ion N   0.714285714284565   1.142857142854844   0.358000000000000 0
ion N   0.523809523808374   0.619047619045320   0.000000000000000 0
ion N   0.999999999998850   0.999999999997701   0.358000000000000 0
ion N   0.666666666665517   0.333333333331034   0.000000000000000 0
ion N   1.285714285713136   0.857142857140558   0.358000000000000 0
ion N   0.809523809522660   0.047619047616749   0.000000000000000 0
ion N   1.571428571427422   0.714285714283415   0.358000000000000 0
ion N   0.095238095236946   0.476190476188177   0.000000000000000 0
ion N   0.238095238094089   0.190476190473892   0.000000000000000 0
ion N   0.857142857141708   0.571428571426273   0.358000000000000 0
ion N   1.142857142855993   0.428571428569130   0.358000000000000 0
ion B   0.571428571427422   0.857142857140558   0.000000000000000 0
ion B   0.952380952379803   1.190476190473892   0.358000000000000 0
ion B   0.714285714284565   0.571428571426273   0.000000000000000 0
ion B   1.238095238094089   1.047619047616749   0.358000000000000 0
ion B   0.857142857141708   0.285714285711987   0.000000000000000 0
ion B   1.523809523808374   0.904761904759606   0.358000000000000 0
ion B   0.142857142855993   0.714285714283415   0.000000000000000 0
ion B   0.285714285713136   0.428571428569130   0.000000000000000 0
ion B   0.809523809522660   0.761904761902463   0.358000000000000 0
ion B   0.428571428570279   0.142857142854844   0.000000000000000 0
ion B   1.095238095236946   0.619047619045320   0.358000000000000 0
ion B   1.380952380951231   0.476190476188177   0.358000000000000 0
ion B  -0.000000000001149  -0.000000000002299   0.000000000000000 0
ion B   0.666666666665517   0.333333333331034   0.358000000000000 0
ion Na   0.333333333332184   0.666666666664368   0.179000000000000 0

# Forces in Lattice coordinates:
force N   0.006031976729296  -0.003526520964004   0.043724640504483 0
force N  -0.003526520964004   0.006031976729296  -0.043724640504370 0
force N  -0.001670837556950  -0.005993745316707   0.070746081593991 0
force N  -0.002505455765291  -0.003526520964004  -0.043724640504483 0
force N  -0.005993745316707   0.007664582873656   0.070746081593991 0
force N   0.000000000000000   0.000000000000000  -0.040568344006321 0
force N   0.000000000000000  -0.000000000000000   0.040568344006321 0
force N   0.007664582873656  -0.005993745316707  -0.070746081593877 0
force N  -0.003526520964004  -0.002505455765291   0.043724640504256 0
force N  -0.005993745316707  -0.001670837556950  -0.070746081593877 0
force N   0.007664582873656  -0.001670837556950   0.070746081593991 0
force N  -0.002505455765291   0.006031976729296   0.043724640504370 0
force N   0.006031976729296  -0.002505455765291  -0.043724640504370 0
force N  -0.001670837556950   0.007664582873656  -0.070746081593991 0
force B   0.009356731065192   0.005430306185231   0.120183583680253 0
force B  -0.002881613009418  -0.009407823540105  -0.153980360868343 0
force B   0.012289436549523  -0.009407823540105   0.153980360868343 0
force B  -0.009407823540105   0.012289436549523  -0.153980360868514 0
force B  -0.009407823540105  -0.002881613009418   0.153980360868457 0
force B   0.005430306185231   0.009356731065192  -0.120183583680197 0
force B  -0.014787037250423   0.009356731065192   0.120183583680197 0
force B   0.005430306185231  -0.014787037250423   0.120183583680253 0
force B   0.012289436549523  -0.002881613009418  -0.153980360868400 0
force B  -0.002881613009418   0.012289436549523   0.153980360868457 0
force B  -0.014787037250423   0.005430306185231  -0.120183583680197 0
force B   0.009356731065192  -0.014787037250423  -0.120183583680253 0
force B   0.000000000000000   0.000000000000000   0.159137391679899 0
force B   0.000000000000000   0.000000000000000  -0.159137391679786 0
force Na   0.000000000000000  -0.000000000000000  -0.000000000000000 0

# Energy components:
   Eewald =    -2711.5931379004396149
       EH =    -2534.6184429343588818
     Eloc =     4954.0508104422033284
      Enl =      -21.3325438376229357
   Epulay =       -0.0000190610708103
     EvdW =       -0.0590399716709695
      Exc =      -57.8019465577629887
       KE =      149.0532630224075206
-------------------------------------
     Etot =     -222.3010567983158694
       TS =        0.0000003754676741
-------------------------------------
        F =     -222.3010571737835335

IonicMinimize: Iter:   0  F: -222.301057173783533  |grad|_K:  0.000e+00  t[s]:   1385.22
IonicMinimize: Converged (|grad|_K<1.000000e-04).

#--- Lowdin population analysis ---
# oxidation-state N -0.377 -0.377 -0.378 -0.377 -0.378 -0.377 -0.377 -0.378 -0.377 -0.378 -0.378 -0.377 -0.377 -0.378
# magnetic-moments N +0.000 +0.000 +0.000 +0.000 +0.000 +0.000 +0.000 +0.000 +0.000 +0.000 +0.000 +0.000 +0.000 +0.000
# oxidation-state B +0.441 +0.451 +0.451 +0.451 +0.451 +0.441 +0.441 +0.441 +0.451 +0.451 +0.441 +0.441 +0.452 +0.452
# magnetic-moments B +0.000 +0.000 +0.000 +0.000 +0.000 +0.000 +0.000 +0.000 +0.000 +0.000 +0.000 +0.000 +0.000 +0.000
# oxidation-state Na +0.068
# magnetic-moments Na +0.013


Dumping 'Na-0.358.fillings' ... done
Dumping 'Na-0.358.wfns' ... done
Dumping 'Na-0.358.n_up' ... done
Dumping 'Na-0.358.n_dn' ... done
Dumping 'Na-0.358.eigenvals' ... done
End date and time: Wed Jan 19 21:21:01 2022  (Duration: 0-0:23:08.18)
Done!
