Second Layer Distance is 0.181

--------------------------------------------------------------------------
The library attempted to open the following supporting CUDA libraries,
but each of them failed.  CUDA-aware support is disabled.
libcuda.so.1: cannot open shared object file: No such file or directory
libcuda.dylib: cannot open shared object file: No such file or directory
/usr/lib64/libcuda.so.1: cannot open shared object file: No such file or directory
/usr/lib64/libcuda.dylib: cannot open shared object file: No such file or directory
If you are not interested in CUDA-aware support, then run with
--mca opal_warn_on_missing_libcuda 0 to suppress this message.  If you are interested
in CUDA-aware support, then try setting LD_LIBRARY_PATH to the location
of libcuda.so.1 to get passed this issue.
--------------------------------------------------------------------------
--------------------------------------------------------------------------
No OpenFabrics connection schemes reported that they were able to be
used on a specific port.  As such, the openib BTL (OpenFabrics
support) will be disabled for this port.

  Local host:           d-17-5-1
  Local device:         mlx5_1
  Local port:           1
  CPCs attempted:       rdmacm, udcm
--------------------------------------------------------------------------

*************** JDFTx 1.6.0 (git hash 42ebbcc2) ***************

Start date and time: Wed Jan 19 20:01:54 2022
Executable jdftx with command-line: -i Moire.in
Running on hosts (process indices):  d-17-5-1 (0-18)
Divided in process groups (process indices):  0 (0)  1 (1)  2 (2)  3 (3)  4 (4)  5 (5)  6 (6)  7 (7)  8 (8)  9 (9)  10 (10)  11 (11)  12 (12)  13 (13)  14 (14)  15 (15)  16 (16)  17 (17)  18 (18)
Resource initialization completed at t[s]:      0.00
Run totals: 19 processes, 48 threads, 0 GPUs


Input parsed successfully to the following command list (including defaults):

basis kpoint-dependent
coords-type Lattice
core-overlap-check vector
coulomb-interaction Slab 001
davidson-band-ratio 1.1
dump End State ElecDensity BandEigs
dump-name Na-0.181.$VAR
elec-cutoff 20
elec-eigen-algo Davidson
elec-ex-corr gga-PBE
elec-initial-magnetization 0.100000 no
elec-smearing Fermi 1e-05
electronic-minimize  \
	dirUpdateScheme      FletcherReeves \
	linminMethod         DirUpdateRecommended \
	nIterations          100 \
	history              15 \
	knormThreshold       0 \
	energyDiffThreshold  1e-08 \
	nEnergyDiff          2 \
	alphaTstart          1 \
	alphaTmin            1e-10 \
	updateTestStepSize   yes \
	alphaTreduceFactor   0.1 \
	alphaTincreaseFactor 3 \
	nAlphaAdjustMax      3 \
	wolfeEnergy          0.0001 \
	wolfeGradient        0.9 \
	fdTest               no
electronic-scf  \
	nIterations	1000 \
	energyDiffThreshold	1e-08 \
	residualThreshold	1e-07 \
	mixFraction	0.5 \
	qMetric	0.8 \
	history	10 \
	nEigSteps	2 \
	eigDiffThreshold	1e-08 \
	mixedVariable	Density \
	qKerker	0.8 \
	qKappa	-1 \
	verbose	no \
	mixFractionMag	1.5
exchange-regularization WignerSeitzTruncated
fluid None
fluid-ex-corr (null) lda-PZ
fluid-gummel-loop 10 1.000000e-05
fluid-minimize  \
	dirUpdateScheme      PolakRibiere \
	linminMethod         DirUpdateRecommended \
	nIterations          100 \
	history              15 \
	knormThreshold       0 \
	energyDiffThreshold  0 \
	nEnergyDiff          2 \
	alphaTstart          1 \
	alphaTmin            1e-10 \
	updateTestStepSize   yes \
	alphaTreduceFactor   0.1 \
	alphaTincreaseFactor 3 \
	nAlphaAdjustMax      3 \
	wolfeEnergy          0.0001 \
	wolfeGradient        0.9 \
	fdTest               no
fluid-solvent H2O 55.338 ScalarEOS \
	epsBulk 78.4 \
	pMol 0.92466 \
	epsInf 1.77 \
	Pvap 1.06736e-10 \
	sigmaBulk 4.62e-05 \
	Rvdw 2.61727 \
	Res 1.42 \
	tauNuc 343133 \
	poleEl 15 7 1
forces-output-coords Positions
ion N   0.952380952380952   0.761904761904762   0.000000000000000 0
ion N   1.428571428571428   1.285714285714286   0.181000000000000 0
ion N   0.380952380952381   0.904761904761905   0.000000000000000 0
ion N   0.714285714285714   1.142857142857143   0.181000000000000 0
ion N   0.523809523809524   0.619047619047619   0.000000000000000 0
ion N   1.000000000000000   1.000000000000000   0.181000000000000 0
ion N   0.666666666666667   0.333333333333333   0.000000000000000 0
ion N   1.285714285714286   0.857142857142857   0.181000000000000 0
ion N   0.809523809523810   0.047619047619048   0.000000000000000 0
ion N   1.571428571428571   0.714285714285714   0.181000000000000 0
ion N   0.095238095238095   0.476190476190476   0.000000000000000 0
ion N   0.238095238095238   0.190476190476190   0.000000000000000 0
ion N   0.857142857142857   0.571428571428571   0.181000000000000 0
ion N   1.142857142857143   0.428571428571429   0.181000000000000 0
ion B   0.571428571428572   0.857142857142857   0.000000000000000 0
ion B   0.952380952380952   1.190476190476190   0.181000000000000 0
ion B   0.714285714285714   0.571428571428571   0.000000000000000 0
ion B   1.238095238095238   1.047619047619047   0.181000000000000 0
ion B   0.857142857142857   0.285714285714286   0.000000000000000 0
ion B   1.523809523809524   0.904761904761905   0.181000000000000 0
ion B   0.142857142857143   0.714285714285714   0.000000000000000 0
ion B   0.285714285714286   0.428571428571429   0.000000000000000 0
ion B   0.809523809523810   0.761904761904762   0.181000000000000 0
ion B   0.428571428571429   0.142857142857143   0.000000000000000 0
ion B   1.095238095238095   0.619047619047619   0.181000000000000 0
ion B   1.380952380952381   0.476190476190476   0.181000000000000 0
ion B   0.000000000000000   0.000000000000000   0.000000000000000 0
ion B   0.666666666666667   0.333333333333333   0.181000000000000 0
ion Na   0.333333333300000   0.666666666600000   0.090500000000000 0
ion-species SG15/$ID_ONCV_PBE.upf
ion-width 0
ionic-minimize  \
	dirUpdateScheme      L-BFGS \
	linminMethod         DirUpdateRecommended \
	nIterations          0 \
	history              15 \
	knormThreshold       0.0001 \
	energyDiffThreshold  1e-06 \
	nEnergyDiff          2 \
	alphaTstart          1 \
	alphaTmin            1e-10 \
	updateTestStepSize   yes \
	alphaTreduceFactor   0.1 \
	alphaTincreaseFactor 3 \
	nAlphaAdjustMax      3 \
	wolfeEnergy          0.0001 \
	wolfeGradient        0.9 \
	fdTest               no
kpoint   0.000000000000   0.000000000000   0.000000000000  1.00000000000000
kpoint-folding 12 12 1 
latt-move-scale 1 1 1
latt-scale 1 1 1 
lattice  \
	 -11.818700000000000    2.363740000000000    0.000000000000000  \
	   4.094120000000000  -12.282400000000001    0.000000000000000  \
	   0.000000000000000    0.000000000000000   40.000000000000000 
lattice-minimize  \
	dirUpdateScheme      L-BFGS \
	linminMethod         DirUpdateRecommended \
	nIterations          0 \
	history              15 \
	knormThreshold       0 \
	energyDiffThreshold  1e-06 \
	nEnergyDiff          2 \
	alphaTstart          1 \
	alphaTmin            1e-10 \
	updateTestStepSize   yes \
	alphaTreduceFactor   0.1 \
	alphaTincreaseFactor 3 \
	nAlphaAdjustMax      3 \
	wolfeEnergy          0.0001 \
	wolfeGradient        0.9 \
	fdTest               no
lcao-params -1 1e-06 1e-05
pcm-variant GLSSA13
spintype z-spin
subspace-rotation-factor 1 yes
symmetries automatic
symmetry-threshold 0.0001
van-der-waals D3



---------- Setting up symmetries ----------

Found 24 point-group symmetries of the bravais lattice
Found 6 space-group symmetries with basis
Applied RMS atom displacement 1.31765e-10 bohrs to make symmetries exact.

---------- Initializing the Grid ----------
R = 
[     -11.8187      2.36374            0  ]
[      4.09412     -12.2824            0  ]
[            0            0           40  ]
unit cell volume = 5419.38
G =
[  -0.569604   -0.10962          0  ]
[  -0.189867    -0.5481          0  ]
[          0          0    0.15708  ]
Minimum fftbox size, Smin = [  52  52  164  ]
Chosen fftbox size, S = [  54  54  168  ]

---------- Exchange Correlation functional ----------
Initalized PBE GGA exchange.
Initalized PBE GGA correlation.

---------- Setting up pseudopotentials ----------
Width of ionic core gaussian charges (only for fluid interactions / plotting) set to 0

Reading pseudopotential file '/home/gridsan/aligho/DFT/build-Nov24/pseudopotentials/SG15/N_ONCV_PBE.upf':
  'N' pseudopotential, 'PBE' functional
  Generated using ONCVPSP code by D. R. Hamann
  Author: Martin Schlipf and Francois Gygi  Date: 150915.
  5 valence electrons, 2 orbitals, 4 projectors, 1058 radial grid points, with lMax = 1
  Transforming local potential to a uniform radial grid of dG=0.02 with 1514 points.
  Transforming nonlocal projectors to a uniform radial grid of dG=0.02 with 432 points.
    2S    l: 0   occupation:  2.0   eigenvalue: -0.682907
    2P    l: 1   occupation:  3.0   eigenvalue: -0.260548
  Transforming atomic orbitals to a uniform radial grid of dG=0.02 with 432 points.
  Core radius for overlap checks: 1.35 bohrs.
  Reading pulay file /home/gridsan/aligho/DFT/build-Nov24/pseudopotentials/SG15/N_ONCV_PBE.pulay ... using dE_dnG = -2.956256e-02 computed for Ecut = 20.

Reading pseudopotential file '/home/gridsan/aligho/DFT/build-Nov24/pseudopotentials/SG15/B_ONCV_PBE.upf':
  'B' pseudopotential, 'PBE' functional
  Generated using ONCVPSP code by D. R. Hamann
  Author: Martin Schlipf and Francois Gygi  Date: 150915.
  3 valence electrons, 2 orbitals, 4 projectors, 1534 radial grid points, with lMax = 1
  Transforming local potential to a uniform radial grid of dG=0.02 with 1514 points.
  Transforming nonlocal projectors to a uniform radial grid of dG=0.02 with 432 points.
    2S    l: 0   occupation:  2.0   eigenvalue: -0.347027
    2P    l: 1   occupation:  1.0   eigenvalue: -0.132548
  Transforming atomic orbitals to a uniform radial grid of dG=0.02 with 432 points.
  Core radius for overlap checks: 1.60 bohrs.
  Reading pulay file /home/gridsan/aligho/DFT/build-Nov24/pseudopotentials/SG15/B_ONCV_PBE.pulay ... using dE_dnG = -3.748568e-04 computed for Ecut = 20.

Reading pseudopotential file '/home/gridsan/aligho/DFT/build-Nov24/pseudopotentials/SG15/Na_ONCV_PBE.upf':
  'Na' pseudopotential, 'PBE' functional
  Generated using ONCVPSP code by D. R. Hamann
  Author: Martin Schlipf and Francois Gygi  Date: 150915.
  9 valence electrons, 3 orbitals, 4 projectors, 1992 radial grid points, with lMax = 1
  Transforming local potential to a uniform radial grid of dG=0.02 with 1514 points.
  Transforming nonlocal projectors to a uniform radial grid of dG=0.02 with 432 points.
    2S    l: 0   occupation:  2.0   eigenvalue: -2.085640
    2P    l: 1   occupation:  6.0   eigenvalue: -1.053708
    3S    l: 0   occupation:  1.0   eigenvalue: -0.100838
  Transforming atomic orbitals to a uniform radial grid of dG=0.02 with 432 points.
  Core radius for overlap checks: 2.01 bohrs.
  Reading pulay file /home/gridsan/aligho/DFT/build-Nov24/pseudopotentials/SG15/Na_ONCV_PBE.pulay ... using dE_dnG = -2.946487e-03 computed for Ecut = 20.

Initialized 3 species with 29 total atoms.

Folded 1 k-points by 12x12x1 to 144 k-points.

---------- Setting up k-points, bands, fillings ----------
Adding inversion symmetry to k-mesh for non-inversion-symmetric unit cell.
Reduced to 19 k-points under symmetry. 
Computing the number of bands and number of electrons
Calculating initial fillings.
nElectrons: 121.000000   nBands: 117   nStates: 38

----- Setting up reduced wavefunction bases (one per k-point) -----
average nbasis = 23151.771 , ideal nbasis = 23152.016

---------- Setting up coulomb interaction ----------
Initialized slab truncation along lattice direction 001

Initializing DFT-D3 calculator:
	Parameters set for gga-PBE functional
	s6:  1.000  s_r6:  1.217
	s8:  0.722  s_r8:  1.000
	Per-atom parameters loaded for:
	 N:  sqrtQ[a0]:  2.712  Rcov[a0]:  1.342  CN: [ 0.00 0.99 2.01 2.99 ]
	 B:  sqrtQ[a0]:  3.644  Rcov[a0]:  1.455  CN: [ 0.00 0.97 1.94 2.91 4.59 ]
	Na:  sqrtQ[a0]:  6.586  Rcov[a0]:  2.646  CN: [ 0.00 0.97 ]

---------- Setting up 2D ewald sum ----------
Optimum gaussian width for ewald sums = 6.943804 bohr.
Real space sums over 289 unit cells with max indices [  8  8  0  ]
Reciprocal space sums over 81 terms with max indices [  4  4  0  ]

Computing DFT-D3 correction:
# coordination-number N 3.190 3.190 4.080 3.190 4.080 3.151 3.151 4.080 3.190 4.080 4.080 3.190 3.190 4.080
# coordination-number B 4.308 3.416 3.416 3.416 3.416 4.308 4.308 4.308 3.416 3.416 4.308 4.308 3.360 3.360
# coordination-number Na 12.253
# diagonal-C6 N 15.60 15.60 15.58 15.60 15.58 15.61 15.61 15.58 15.60 15.58 15.58 15.60 15.60 15.58
# diagonal-C6 B 28.03 31.41 31.41 31.41 31.41 28.03 28.03 28.03 31.41 31.41 28.03 28.03 31.44 31.44
# diagonal-C6 Na 186.11
EvdW_6 =   -0.041445
EvdW_8 =   -0.033806

---------- Allocating electronic variables ----------
Initializing wave functions:  linear combination of atomic orbitals
N pseudo-atom occupations:   s ( 2 )  p ( 3 )
[d-17-5-1:03854] 18 more processes have sent help message help-mpi-common-cuda.txt / dlopen failed
[d-17-5-1:03854] Set MCA parameter "orte_base_help_aggregate" to 0 to see all help / error messages
[d-17-5-1:03854] 18 more processes have sent help message help-mpi-btl-openib-cpc-base.txt / no cpcs for port
B pseudo-atom occupations:   s ( 2 )  p ( 1 )
Na pseudo-atom occupations:   s ( 2 1 )  p ( 6 )
	FillingsUpdate:  mu: -0.195003541  nElectrons: 121.000000  magneticMoment: [ Abs: 0.12130  Tot: +0.11111 ]
LCAOMinimize: Iter:   0  F: -219.8256970460135733  |grad|_K:  3.279e-03  alpha:  1.000e+00
	FillingsUpdate:  mu: -0.165000283  nElectrons: 121.000000  magneticMoment: [ Abs: 0.15296  Tot: +0.13889 ]
LCAOMinimize: Iter:   1  F: -220.8664858476883524  |grad|_K:  3.624e-04  alpha:  4.396e-01  linmin:  5.169e-01  cgtest: -1.082e+00  t[s]:     48.89
LCAOMinimize: 	Bad step direction: g.d > 0.
LCAOMinimize: 	Undoing step.
LCAOMinimize: 	Step failed: resetting search direction.
	FillingsUpdate:  mu: -0.165000283  nElectrons: 121.000000  magneticMoment: [ Abs: 0.15296  Tot: +0.13889 ]
LCAOMinimize: Iter:   2  F: -220.8664858476883524  |grad|_K:  3.624e-04  alpha:  0.000e+00
	FillingsUpdate:  mu: -0.171489879  nElectrons: 121.000000  magneticMoment: [ Abs: 0.20670  Tot: +0.18941 ]
LCAOMinimize: Iter:   3  F: -220.8809783569052456  |grad|_K:  2.521e-05  alpha:  4.164e-01  linmin:  2.490e-03  cgtest: -2.022e-01  t[s]:     73.96
	FillingsUpdate:  mu: -0.171756851  nElectrons: 121.000000  magneticMoment: [ Abs: 0.21840  Tot: +0.19444 ]
LCAOMinimize: Iter:   4  F: -220.8809951698882799  |grad|_K:  8.925e-06  alpha:  2.451e-01  linmin: -1.427e-01  cgtest:  2.163e+00  t[s]:     88.71
LCAOMinimize: Encountered beta<0, resetting CG.
	FillingsUpdate:  mu: -0.171931562  nElectrons: 121.000000  magneticMoment: [ Abs: 0.23354  Tot: +0.19444 ]
LCAOMinimize: Iter:   5  F: -220.8810063288977972  |grad|_K:  3.782e-06  alpha:  5.295e-01  linmin: -4.621e-07  cgtest: -3.599e-04  t[s]:    103.29
	FillingsUpdate:  mu: -0.172101978  nElectrons: 121.000000  magneticMoment: [ Abs: 0.25518  Tot: +0.19444 ]
LCAOMinimize: Iter:   6  F: -220.8810093981946352  |grad|_K:  1.931e-06  alpha:  8.115e-01  linmin:  4.331e-04  cgtest: -3.768e-03  t[s]:    117.86
	FillingsUpdate:  mu: -0.172065610  nElectrons: 121.000000  magneticMoment: [ Abs: 0.26330  Tot: +0.19444 ]
LCAOMinimize: Iter:   7  F: -220.8810099186271714  |grad|_K:  7.872e-07  alpha:  5.284e-01  linmin: -2.762e-05  cgtest:  6.533e-03  t[s]:    132.43
	FillingsUpdate:  mu: -0.172033528  nElectrons: 121.000000  magneticMoment: [ Abs: 0.26738  Tot: +0.19444 ]
LCAOMinimize: Iter:   8  F: -220.8810100317150784  |grad|_K:  2.975e-07  alpha:  6.902e-01  linmin:  7.228e-04  cgtest: -4.632e-03  t[s]:    147.00
LCAOMinimize: Converged (|Delta F|<1.000000e-06 for 2 iters).


---- Citations for features of the code used in this run ----

   Software package:
      R. Sundararaman, K. Letchworth-Weaver, K.A. Schwarz, D. Gunceler, Y. Ozhabes and T.A. Arias, 'JDFTx: software for joint density-functional theory', SoftwareX 6, 278 (2017)

   gga-PBE exchange-correlation functional:
      J.P. Perdew, K. Burke and M. Ernzerhof, Phys. Rev. Lett. 77, 3865 (1996)

   Pseudopotentials:
      M Schlipf and F Gygi, Comput. Phys. Commun. 196, 36 (2015)

   Truncated Coulomb potentials:
      R. Sundararaman and T.A. Arias, Phys. Rev. B 87, 165122 (2013)

   DFT-D3 dispersion correction:
      S. Grimme, J. Antony, S. Ehrlich and H. Krieg, J. Chem. Phys. 132, 154104 (2010)

This list may not be complete. Please suggest additional citations or
report any other bugs at https://github.com/shankar1729/jdftx/issues

Initialization completed successfully at t[s]:    149.15


Computing DFT-D3 correction:
# coordination-number N 3.190 3.190 4.080 3.190 4.080 3.151 3.151 4.080 3.190 4.080 4.080 3.190 3.190 4.080
# coordination-number B 4.308 3.416 3.416 3.416 3.416 4.308 4.308 4.308 3.416 3.416 4.308 4.308 3.360 3.360
# coordination-number Na 12.253
# diagonal-C6 N 15.60 15.60 15.58 15.60 15.58 15.61 15.61 15.58 15.60 15.58 15.58 15.60 15.60 15.58
# diagonal-C6 B 28.03 31.41 31.41 31.41 31.41 28.03 28.03 28.03 31.41 31.41 28.03 28.03 31.44 31.44
# diagonal-C6 Na 186.11
EvdW_6 =   -0.041445
EvdW_8 =   -0.033806

-------- Electronic minimization -----------
Will mix electronic density at each iteration.
	FillingsUpdate:  mu: -0.172033528  nElectrons: 121.000000  magneticMoment: [ Abs: 0.26738  Tot: +0.19444 ]
	FillingsUpdate:  mu: -0.189192754  nElectrons: 121.000000  magneticMoment: [ Abs: 0.26738  Tot: +0.19444 ]
SCF: Cycle:  0   F: -222.165897215365788   dF: -1.285e+00   |Residual|: 3.849e-01   |deigs|: 1.046e-01  t[s]:    198.17
	FillingsUpdate:  mu: -0.172926082  nElectrons: 121.000000  magneticMoment: [ Abs: 0.46059  Tot: +0.20759 ]
SCF: Cycle:  1   F: -222.224687322550579   dF: -5.879e-02   |Residual|: 2.147e-01   |deigs|: 1.905e-02  t[s]:    236.00
	FillingsUpdate:  mu: -0.152779608  nElectrons: 121.000000  magneticMoment: [ Abs: 1.19825  Tot: +0.26862 ]
SCF: Cycle:  2   F: -222.261662980627051   dF: -3.698e-02   |Residual|: 4.410e-02   |deigs|: 2.291e-02  t[s]:    273.68
	FillingsUpdate:  mu: -0.147789034  nElectrons: 121.000000  magneticMoment: [ Abs: 1.20843  Tot: +0.34067 ]
SCF: Cycle:  3   F: -222.264663089493382   dF: -3.000e-03   |Residual|: 3.231e-02   |deigs|: 4.759e-03  t[s]:    311.32
	FillingsUpdate:  mu: -0.137829741  nElectrons: 121.000000  magneticMoment: [ Abs: 1.37149  Tot: +0.46676 ]
SCF: Cycle:  4   F: -222.269785744705700   dF: -5.123e-03   |Residual|: 2.531e-02   |deigs|: 1.050e-02  t[s]:    349.02
	FillingsUpdate:  mu: -0.127574405  nElectrons: 121.000000  magneticMoment: [ Abs: 1.35789  Tot: +0.59913 ]
SCF: Cycle:  5   F: -222.272293984797244   dF: -2.508e-03   |Residual|: 1.711e-02   |deigs|: 9.451e-03  t[s]:    387.03
	FillingsUpdate:  mu: -0.116553734  nElectrons: 121.000000  magneticMoment: [ Abs: 1.29819  Tot: +0.77954 ]
SCF: Cycle:  6   F: -222.272820935388609   dF: -5.270e-04   |Residual|: 1.403e-02   |deigs|: 1.260e-02  t[s]:    425.07
	FillingsUpdate:  mu: -0.109830740  nElectrons: 121.000000  magneticMoment: [ Abs: 1.33635  Tot: +0.88640 ]
SCF: Cycle:  7   F: -222.273142395983854   dF: -3.215e-04   |Residual|: 1.210e-02   |deigs|: 7.177e-03  t[s]:    462.89
	FillingsUpdate:  mu: -0.103073308  nElectrons: 121.000000  magneticMoment: [ Abs: 1.35907  Tot: +0.97795 ]
SCF: Cycle:  8   F: -222.273369612152379   dF: -2.272e-04   |Residual|: 7.687e-03   |deigs|: 6.953e-03  t[s]:    500.93
	FillingsUpdate:  mu: -0.101473154  nElectrons: 121.000000  magneticMoment: [ Abs: 1.29551  Tot: +0.97451 ]
SCF: Cycle:  9   F: -222.273284088198466   dF: +8.552e-05   |Residual|: 5.458e-03   |deigs|: 1.545e-03  t[s]:    539.16
	FillingsUpdate:  mu: -0.097022522  nElectrons: 121.000000  magneticMoment: [ Abs: 1.27293  Tot: +1.00095 ]
SCF: Cycle: 10   F: -222.273377643640003   dF: -9.356e-05   |Residual|: 4.288e-03   |deigs|: 4.322e-03  t[s]:    577.17
	FillingsUpdate:  mu: -0.090711597  nElectrons: 121.000000  magneticMoment: [ Abs: 1.32241  Tot: +1.02958 ]
SCF: Cycle: 11   F: -222.273655470178596   dF: -2.778e-04   |Residual|: 3.939e-03   |deigs|: 5.881e-03  t[s]:    615.39
	FillingsUpdate:  mu: -0.085865934  nElectrons: 121.000000  magneticMoment: [ Abs: 1.32305  Tot: +1.02033 ]
SCF: Cycle: 12   F: -222.273887299409751   dF: -2.318e-04   |Residual|: 3.773e-03   |deigs|: 4.084e-03  t[s]:    653.41
	FillingsUpdate:  mu: -0.078083977  nElectrons: 121.000000  magneticMoment: [ Abs: 1.31898  Tot: +1.01734 ]
SCF: Cycle: 13   F: -222.274221487522169   dF: -3.342e-04   |Residual|: 3.683e-03   |deigs|: 6.571e-03  t[s]:    691.60
	FillingsUpdate:  mu: -0.069602466  nElectrons: 121.000000  magneticMoment: [ Abs: 1.29742  Tot: +1.01419 ]
SCF: Cycle: 14   F: -222.274474711425000   dF: -2.532e-04   |Residual|: 2.986e-03   |deigs|: 7.199e-03  t[s]:    729.78
	FillingsUpdate:  mu: -0.064685216  nElectrons: 121.000000  magneticMoment: [ Abs: 1.28380  Tot: +1.00721 ]
SCF: Cycle: 15   F: -222.274535006421161   dF: -6.029e-05   |Residual|: 2.050e-03   |deigs|: 4.248e-03  t[s]:    768.19
	FillingsUpdate:  mu: -0.062397361  nElectrons: 121.000000  magneticMoment: [ Abs: 1.28418  Tot: +1.00562 ]
SCF: Cycle: 16   F: -222.274540316191775   dF: -5.310e-06   |Residual|: 1.290e-03   |deigs|: 2.079e-03  t[s]:    806.66
	FillingsUpdate:  mu: -0.061517082  nElectrons: 121.000000  magneticMoment: [ Abs: 1.28212  Tot: +1.00431 ]
SCF: Cycle: 17   F: -222.274541048769123   dF: -7.326e-07   |Residual|: 8.788e-04   |deigs|: 8.823e-04  t[s]:    844.77
	FillingsUpdate:  mu: -0.060871528  nElectrons: 121.000000  magneticMoment: [ Abs: 1.28023  Tot: +1.00531 ]
SCF: Cycle: 18   F: -222.274541433299163   dF: -3.845e-07   |Residual|: 5.253e-04   |deigs|: 8.609e-04  t[s]:    882.91
	FillingsUpdate:  mu: -0.060665163  nElectrons: 121.000000  magneticMoment: [ Abs: 1.27957  Tot: +1.00472 ]
SCF: Cycle: 19   F: -222.274541420876204   dF: +1.242e-08   |Residual|: 4.272e-04   |deigs|: 3.347e-04  t[s]:    921.08
	FillingsUpdate:  mu: -0.060370426  nElectrons: 121.000000  magneticMoment: [ Abs: 1.27871  Tot: +1.00339 ]
SCF: Cycle: 20   F: -222.274541322992377   dF: +9.788e-08   |Residual|: 3.665e-04   |deigs|: 5.336e-04  t[s]:    959.14
	FillingsUpdate:  mu: -0.060056345  nElectrons: 121.000000  magneticMoment: [ Abs: 1.27751  Tot: +1.00191 ]
SCF: Cycle: 21   F: -222.274541334549866   dF: -1.156e-08   |Residual|: 3.156e-04   |deigs|: 6.368e-04  t[s]:    997.51
	FillingsUpdate:  mu: -0.059682276  nElectrons: 121.000000  magneticMoment: [ Abs: 1.27575  Tot: +1.00011 ]
SCF: Cycle: 22   F: -222.274541523252168   dF: -1.887e-07   |Residual|: 2.189e-04   |deigs|: 9.499e-04  t[s]:   1035.91
	FillingsUpdate:  mu: -0.059480498  nElectrons: 121.000000  magneticMoment: [ Abs: 1.27498  Tot: +0.99972 ]
SCF: Cycle: 23   F: -222.274541647694178   dF: -1.244e-07   |Residual|: 1.306e-04   |deigs|: 4.742e-04  t[s]:   1073.71
	FillingsUpdate:  mu: -0.059391318  nElectrons: 121.000000  magneticMoment: [ Abs: 1.27506  Tot: +0.99979 ]
SCF: Cycle: 24   F: -222.274541681854799   dF: -3.416e-08   |Residual|: 6.357e-05   |deigs|: 2.582e-04  t[s]:   1111.65
	FillingsUpdate:  mu: -0.059369857  nElectrons: 121.000000  magneticMoment: [ Abs: 1.27514  Tot: +0.99990 ]
SCF: Cycle: 25   F: -222.274541681264054   dF: +5.907e-10   |Residual|: 3.789e-05   |deigs|: 9.043e-05  t[s]:   1149.61
	FillingsUpdate:  mu: -0.059371466  nElectrons: 121.000000  magneticMoment: [ Abs: 1.27519  Tot: +0.99997 ]
SCF: Cycle: 26   F: -222.274541683824822   dF: -2.561e-09   |Residual|: 2.581e-05   |deigs|: 1.291e-04  t[s]:   1187.68
	FillingsUpdate:  mu: -0.059376963  nElectrons: 121.000000  magneticMoment: [ Abs: 1.27524  Tot: +1.00002 ]
SCF: Cycle: 27   F: -222.274541688817692   dF: -4.993e-09   |Residual|: 1.887e-05   |deigs|: 1.462e-04  t[s]:   1225.90
SCF: Converged (|Delta E|<1.000000e-08 for 2 iters).


Computing DFT-D3 correction:
# coordination-number N 3.190 3.190 4.080 3.190 4.080 3.151 3.151 4.080 3.190 4.080 4.080 3.190 3.190 4.080
# coordination-number B 4.308 3.416 3.416 3.416 3.416 4.308 4.308 4.308 3.416 3.416 4.308 4.308 3.360 3.360
# coordination-number Na 12.253
# diagonal-C6 N 15.60 15.60 15.58 15.60 15.58 15.61 15.61 15.58 15.60 15.58 15.58 15.60 15.60 15.58
# diagonal-C6 B 28.03 31.41 31.41 31.41 31.41 28.03 28.03 28.03 31.41 31.41 28.03 28.03 31.44 31.44
# diagonal-C6 Na 186.11
EvdW_6 =   -0.041445
EvdW_8 =   -0.033806

# Ionic positions in lattice coordinates:
ion N   0.952380952379803   0.761904761902463   0.000000000000000 0
ion N   1.428571428570279   1.285714285711987   0.181000000000000 0
ion N   0.380952380951232   0.904761904759606   0.000000000000000 0
ion N   0.714285714284565   1.142857142854844   0.181000000000000 0
ion N   0.523809523808374   0.619047619045320   0.000000000000000 0
ion N   0.999999999998850   0.999999999997701   0.181000000000000 0
ion N   0.666666666665517   0.333333333331034   0.000000000000000 0
ion N   1.285714285713136   0.857142857140558   0.181000000000000 0
ion N   0.809523809522660   0.047619047616749   0.000000000000000 0
ion N   1.571428571427422   0.714285714283415   0.181000000000000 0
ion N   0.095238095236946   0.476190476188177   0.000000000000000 0
ion N   0.238095238094089   0.190476190473892   0.000000000000000 0
ion N   0.857142857141708   0.571428571426273   0.181000000000000 0
ion N   1.142857142855993   0.428571428569130   0.181000000000000 0
ion B   0.571428571427422   0.857142857140558   0.000000000000000 0
ion B   0.952380952379803   1.190476190473892   0.181000000000000 0
ion B   0.714285714284565   0.571428571426273   0.000000000000000 0
ion B   1.238095238094089   1.047619047616749   0.181000000000000 0
ion B   0.857142857141708   0.285714285711987   0.000000000000000 0
ion B   1.523809523808374   0.904761904759606   0.181000000000000 0
ion B   0.142857142855993   0.714285714283415   0.000000000000000 0
ion B   0.285714285713136   0.428571428569130   0.000000000000000 0
ion B   0.809523809522660   0.761904761902463   0.181000000000000 0
ion B   0.428571428570279   0.142857142854844   0.000000000000000 0
ion B   1.095238095236946   0.619047619045320   0.181000000000000 0
ion B   1.380952380951231   0.476190476188177   0.181000000000000 0
ion B  -0.000000000001149  -0.000000000002299   0.000000000000000 0
ion B   0.666666666665517   0.333333333331034   0.181000000000000 0
ion Na   0.333333333332184   0.666666666664368   0.090500000000000 0

# Forces in Lattice coordinates:
force N  -0.003695134503939  -0.003698443510166   0.034662893124865 0
force N  -0.003698443510166  -0.003695134503939  -0.034662893124865 0
force N  -0.023396125255244  -0.011052336134477   0.105718229235157 0
force N   0.007393578014105  -0.003698443510166  -0.034662893124865 0
force N  -0.011052336134477   0.034448461389722   0.105718229235157 0
force N   0.000000000000000   0.000000000000000  -0.025609484500601 0
force N   0.000000000000000   0.000000000000000   0.025609484500828 0
force N   0.034448461389720  -0.011052336134480  -0.105718229235271 0
force N  -0.003698443510166   0.007393578014105   0.034662893124751 0
force N  -0.011052336134477  -0.023396125255244  -0.105718229235157 0
force N   0.034448461389722  -0.023396125255244   0.105718229235157 0
force N   0.007393578014105  -0.003695134503939   0.034662893124979 0
force N  -0.003695134503939   0.007393578014105  -0.034662893124865 0
force N  -0.023396125255244   0.034448461389722  -0.105718229235157 0
force B   0.150965075190128   0.060165776892966  -0.584277082508930 0
force B  -0.025692620617734  -0.028245714948371  -0.023494695752246 0
force B   0.053938335566104  -0.028245714948371   0.023494695752133 0
force B  -0.028245714948370   0.053938335566104  -0.023494695752133 0
force B  -0.028245714948370  -0.025692620617734   0.023494695752133 0
force B   0.060165776892966   0.150965075190128   0.584277082508987 0
force B  -0.211130852083093   0.150965075190128  -0.584277082508930 0
force B   0.060165776892966  -0.211130852083095  -0.584277082508987 0
force B   0.053938335566104  -0.025692620617734  -0.023494695752133 0
force B  -0.025692620617734   0.053938335566104   0.023494695752133 0
force B  -0.211130852083095   0.060165776892966   0.584277082508873 0
force B   0.150965075190128  -0.211130852083094   0.584277082508930 0
force B   0.000000000000000   0.000000000000000  -0.013815870759715 0
force B   0.000000000000000   0.000000000000000   0.013815870759772 0
force Na   0.000000000000000   0.000000000000000   0.000000000000000 0

# Energy components:
   Eewald =    -1516.7823370472801798
       EH =    -1342.1060481741189960
     Eloc =     2566.4552229711584914
      Enl =      -21.4976699087523642
   Epulay =       -0.0000190610708103
     EvdW =       -0.0752510884503430
      Exc =      -58.0232430268706878
       KE =      149.7548040220480345
-------------------------------------
     Etot =     -222.2745413133370391
       TS =        0.0000003754806463
-------------------------------------
        F =     -222.2745416888176919

IonicMinimize: Iter:   0  F: -222.274541688817692  |grad|_K:  0.000e+00  t[s]:   1229.93
IonicMinimize: Converged (|grad|_K<1.000000e-04).

#--- Lowdin population analysis ---
# oxidation-state N -0.361 -0.361 -0.383 -0.361 -0.383 -0.369 -0.369 -0.383 -0.361 -0.383 -0.383 -0.361 -0.361 -0.383
# magnetic-moments N -0.015 -0.015 -0.017 -0.015 -0.017 -0.004 -0.004 -0.017 -0.015 -0.017 -0.017 -0.015 -0.015 -0.017
# oxidation-state B +0.315 +0.412 +0.412 +0.412 +0.412 +0.315 +0.315 +0.315 +0.412 +0.412 +0.315 +0.315 +0.422 +0.422
# magnetic-moments B +0.124 +0.056 +0.056 +0.056 +0.056 +0.124 +0.124 +0.124 +0.056 +0.056 +0.124 +0.124 +0.035 +0.035
# oxidation-state Na +0.917
# magnetic-moments Na +0.003


Dumping 'Na-0.181.fillings' ... done
Dumping 'Na-0.181.wfns' ... done
Dumping 'Na-0.181.n_up' ... done
Dumping 'Na-0.181.n_dn' ... done
Dumping 'Na-0.181.eigenvals' ... done
End date and time: Wed Jan 19 20:22:28 2022  (Duration: 0-0:20:33.82)
Done!
