Second Layer Distance is 0.304

--------------------------------------------------------------------------
The library attempted to open the following supporting CUDA libraries,
but each of them failed.  CUDA-aware support is disabled.
libcuda.so.1: cannot open shared object file: No such file or directory
libcuda.dylib: cannot open shared object file: No such file or directory
/usr/lib64/libcuda.so.1: cannot open shared object file: No such file or directory
/usr/lib64/libcuda.dylib: cannot open shared object file: No such file or directory
If you are not interested in CUDA-aware support, then run with
--mca opal_warn_on_missing_libcuda 0 to suppress this message.  If you are interested
in CUDA-aware support, then try setting LD_LIBRARY_PATH to the location
of libcuda.so.1 to get passed this issue.
--------------------------------------------------------------------------
--------------------------------------------------------------------------
No OpenFabrics connection schemes reported that they were able to be
used on a specific port.  As such, the openib BTL (OpenFabrics
support) will be disabled for this port.

  Local host:           d-4-7-1
  Local device:         mlx5_1
  Local port:           1
  CPCs attempted:       rdmacm, udcm
--------------------------------------------------------------------------

*************** JDFTx 1.6.0 (git hash 42ebbcc2) ***************

Start date and time: Sun Jan 23 16:36:02 2022
Executable jdftx with command-line: -i Moire.in
Running on hosts (process indices):  d-4-7-1 (0-18)
Divided in process groups (process indices):  0 (0)  1 (1)  2 (2)  3 (3)  4 (4)  5 (5)  6 (6)  7 (7)  8 (8)  9 (9)  10 (10)  11 (11)  12 (12)  13 (13)  14 (14)  15 (15)  16 (16)  17 (17)  18 (18)
Resource initialization completed at t[s]:      0.00
Run totals: 19 processes, 48 threads, 0 GPUs


Input parsed successfully to the following command list (including defaults):

basis kpoint-dependent
coords-type Lattice
core-overlap-check vector
coulomb-interaction Slab 001
davidson-band-ratio 1.1
dump End State ElecDensity BandEigs
dump-name Na-0.304.$VAR
elec-cutoff 20
elec-eigen-algo Davidson
elec-ex-corr gga-PBE
elec-initial-magnetization 0.100000 no
elec-smearing Fermi 1e-05
electronic-minimize  \
	dirUpdateScheme      FletcherReeves \
	linminMethod         DirUpdateRecommended \
	nIterations          100 \
	history              15 \
	knormThreshold       0 \
	energyDiffThreshold  1e-08 \
	nEnergyDiff          2 \
	alphaTstart          1 \
	alphaTmin            1e-10 \
	updateTestStepSize   yes \
	alphaTreduceFactor   0.1 \
	alphaTincreaseFactor 3 \
	nAlphaAdjustMax      3 \
	wolfeEnergy          0.0001 \
	wolfeGradient        0.9 \
	fdTest               no
electronic-scf  \
	nIterations	1000 \
	energyDiffThreshold	1e-08 \
	residualThreshold	1e-07 \
	mixFraction	0.5 \
	qMetric	0.8 \
	history	10 \
	nEigSteps	2 \
	eigDiffThreshold	1e-08 \
	mixedVariable	Density \
	qKerker	0.8 \
	qKappa	-1 \
	verbose	no \
	mixFractionMag	1.5
exchange-regularization WignerSeitzTruncated
fluid None
fluid-ex-corr (null) lda-PZ
fluid-gummel-loop 10 1.000000e-05
fluid-minimize  \
	dirUpdateScheme      PolakRibiere \
	linminMethod         DirUpdateRecommended \
	nIterations          100 \
	history              15 \
	knormThreshold       0 \
	energyDiffThreshold  0 \
	nEnergyDiff          2 \
	alphaTstart          1 \
	alphaTmin            1e-10 \
	updateTestStepSize   yes \
	alphaTreduceFactor   0.1 \
	alphaTincreaseFactor 3 \
	nAlphaAdjustMax      3 \
	wolfeEnergy          0.0001 \
	wolfeGradient        0.9 \
	fdTest               no
fluid-solvent H2O 55.338 ScalarEOS \
	epsBulk 78.4 \
	pMol 0.92466 \
	epsInf 1.77 \
	Pvap 1.06736e-10 \
	sigmaBulk 4.62e-05 \
	Rvdw 2.61727 \
	Res 1.42 \
	tauNuc 343133 \
	poleEl 15 7 1
forces-output-coords Positions
ion N   0.952380952380952   0.761904761904762   0.000000000000000 0
ion N   1.428571428571428   1.285714285714286   0.304000000000000 0
ion N   0.380952380952381   0.904761904761905   0.000000000000000 0
ion N   0.714285714285714   1.142857142857143   0.304000000000000 0
ion N   0.523809523809524   0.619047619047619   0.000000000000000 0
ion N   1.000000000000000   1.000000000000000   0.304000000000000 0
ion N   0.666666666666667   0.333333333333333   0.000000000000000 0
ion N   1.285714285714286   0.857142857142857   0.304000000000000 0
ion N   0.809523809523810   0.047619047619048   0.000000000000000 0
ion N   1.571428571428571   0.714285714285714   0.304000000000000 0
ion N   0.095238095238095   0.476190476190476   0.000000000000000 0
ion N   0.238095238095238   0.190476190476190   0.000000000000000 0
ion N   0.857142857142857   0.571428571428571   0.304000000000000 0
ion N   1.142857142857143   0.428571428571429   0.304000000000000 0
ion B   0.571428571428572   0.857142857142857   0.000000000000000 0
ion B   0.952380952380952   1.190476190476190   0.304000000000000 0
ion B   0.714285714285714   0.571428571428571   0.000000000000000 0
ion B   1.238095238095238   1.047619047619047   0.304000000000000 0
ion B   0.857142857142857   0.285714285714286   0.000000000000000 0
ion B   1.523809523809524   0.904761904761905   0.304000000000000 0
ion B   0.142857142857143   0.714285714285714   0.000000000000000 0
ion B   0.285714285714286   0.428571428571429   0.000000000000000 0
ion B   0.809523809523810   0.761904761904762   0.304000000000000 0
ion B   0.428571428571429   0.142857142857143   0.000000000000000 0
ion B   1.095238095238095   0.619047619047619   0.304000000000000 0
ion B   1.380952380952381   0.476190476190476   0.304000000000000 0
ion B   0.000000000000000   0.000000000000000   0.000000000000000 0
ion B   0.666666666666667   0.333333333333333   0.304000000000000 0
ion Na   0.333333333300000   0.666666666600000   0.152000000000000 0
ion-species SG15/$ID_ONCV_PBE.upf
ion-width 0
ionic-minimize  \
	dirUpdateScheme      L-BFGS \
	linminMethod         DirUpdateRecommended \
	nIterations          0 \
	history              15 \
	knormThreshold       0.0001 \
	energyDiffThreshold  1e-06 \
	nEnergyDiff          2 \
	alphaTstart          1 \
	alphaTmin            1e-10 \
	updateTestStepSize   yes \
	alphaTreduceFactor   0.1 \
	alphaTincreaseFactor 3 \
	nAlphaAdjustMax      3 \
	wolfeEnergy          0.0001 \
	wolfeGradient        0.9 \
	fdTest               no
kpoint   0.000000000000   0.000000000000   0.000000000000  1.00000000000000
kpoint-folding 12 12 1 
latt-move-scale 1 1 1
latt-scale 1 1 1 
lattice  \
	 -11.818700000000000    2.363740000000000    0.000000000000000  \
	   4.094120000000000  -12.282400000000001    0.000000000000000  \
	   0.000000000000000    0.000000000000000   40.000000000000000 
lattice-minimize  \
	dirUpdateScheme      L-BFGS \
	linminMethod         DirUpdateRecommended \
	nIterations          0 \
	history              15 \
	knormThreshold       0 \
	energyDiffThreshold  1e-06 \
	nEnergyDiff          2 \
	alphaTstart          1 \
	alphaTmin            1e-10 \
	updateTestStepSize   yes \
	alphaTreduceFactor   0.1 \
	alphaTincreaseFactor 3 \
	nAlphaAdjustMax      3 \
	wolfeEnergy          0.0001 \
	wolfeGradient        0.9 \
	fdTest               no
lcao-params -1 1e-06 1e-05
pcm-variant GLSSA13
spintype z-spin
subspace-rotation-factor 1 yes
symmetries automatic
symmetry-threshold 0.0001
van-der-waals D3



---------- Setting up symmetries ----------

Found 24 point-group symmetries of the bravais lattice
Found 6 space-group symmetries with basis
Applied RMS atom displacement 1.31765e-10 bohrs to make symmetries exact.

---------- Initializing the Grid ----------
R = 
[     -11.8187      2.36374            0  ]
[      4.09412     -12.2824            0  ]
[            0            0           40  ]
unit cell volume = 5419.38
G =
[  -0.569604   -0.10962          0  ]
[  -0.189867    -0.5481          0  ]
[          0          0    0.15708  ]
Minimum fftbox size, Smin = [  52  52  164  ]
Chosen fftbox size, S = [  54  54  168  ]

---------- Exchange Correlation functional ----------
Initalized PBE GGA exchange.
Initalized PBE GGA correlation.

---------- Setting up pseudopotentials ----------
Width of ionic core gaussian charges (only for fluid interactions / plotting) set to 0

Reading pseudopotential file '/home/gridsan/aligho/DFT/build-Nov24/pseudopotentials/SG15/N_ONCV_PBE.upf':
  'N' pseudopotential, 'PBE' functional
  Generated using ONCVPSP code by D. R. Hamann
  Author: Martin Schlipf and Francois Gygi  Date: 150915.
  5 valence electrons, 2 orbitals, 4 projectors, 1058 radial grid points, with lMax = 1
  Transforming local potential to a uniform radial grid of dG=0.02 with 1514 points.
  Transforming nonlocal projectors to a uniform radial grid of dG=0.02 with 432 points.
    2S    l: 0   occupation:  2.0   eigenvalue: -0.682907
    2P    l: 1   occupation:  3.0   eigenvalue: -0.260548
  Transforming atomic orbitals to a uniform radial grid of dG=0.02 with 432 points.
  Core radius for overlap checks: 1.35 bohrs.
  Reading pulay file /home/gridsan/aligho/DFT/build-Nov24/pseudopotentials/SG15/N_ONCV_PBE.pulay ... using dE_dnG = -2.956256e-02 computed for Ecut = 20.

Reading pseudopotential file '/home/gridsan/aligho/DFT/build-Nov24/pseudopotentials/SG15/B_ONCV_PBE.upf':
  'B' pseudopotential, 'PBE' functional
  Generated using ONCVPSP code by D. R. Hamann
  Author: Martin Schlipf and Francois Gygi  Date: 150915.
  3 valence electrons, 2 orbitals, 4 projectors, 1534 radial grid points, with lMax = 1
  Transforming local potential to a uniform radial grid of dG=0.02 with 1514 points.
  Transforming nonlocal projectors to a uniform radial grid of dG=0.02 with 432 points.
    2S    l: 0   occupation:  2.0   eigenvalue: -0.347027
    2P    l: 1   occupation:  1.0   eigenvalue: -0.132548
  Transforming atomic orbitals to a uniform radial grid of dG=0.02 with 432 points.
  Core radius for overlap checks: 1.60 bohrs.
  Reading pulay file /home/gridsan/aligho/DFT/build-Nov24/pseudopotentials/SG15/B_ONCV_PBE.pulay ... using dE_dnG = -3.748568e-04 computed for Ecut = 20.

Reading pseudopotential file '/home/gridsan/aligho/DFT/build-Nov24/pseudopotentials/SG15/Na_ONCV_PBE.upf':
  'Na' pseudopotential, 'PBE' functional
  Generated using ONCVPSP code by D. R. Hamann
  Author: Martin Schlipf and Francois Gygi  Date: 150915.
  9 valence electrons, 3 orbitals, 4 projectors, 1992 radial grid points, with lMax = 1
  Transforming local potential to a uniform radial grid of dG=0.02 with 1514 points.
  Transforming nonlocal projectors to a uniform radial grid of dG=0.02 with 432 points.
    2S    l: 0   occupation:  2.0   eigenvalue: -2.085640
    2P    l: 1   occupation:  6.0   eigenvalue: -1.053708
    3S    l: 0   occupation:  1.0   eigenvalue: -0.100838
  Transforming atomic orbitals to a uniform radial grid of dG=0.02 with 432 points.
  Core radius for overlap checks: 2.01 bohrs.
  Reading pulay file /home/gridsan/aligho/DFT/build-Nov24/pseudopotentials/SG15/Na_ONCV_PBE.pulay ... using dE_dnG = -2.946487e-03 computed for Ecut = 20.

Initialized 3 species with 29 total atoms.

Folded 1 k-points by 12x12x1 to 144 k-points.

---------- Setting up k-points, bands, fillings ----------
Adding inversion symmetry to k-mesh for non-inversion-symmetric unit cell.
Reduced to 19 k-points under symmetry. 
Computing the number of bands and number of electrons
Calculating initial fillings.
nElectrons: 121.000000   nBands: 117   nStates: 38

----- Setting up reduced wavefunction bases (one per k-point) -----
average nbasis = 23151.771 , ideal nbasis = 23152.016

---------- Setting up coulomb interaction ----------
Initialized slab truncation along lattice direction 001

Initializing DFT-D3 calculator:
	Parameters set for gga-PBE functional
	s6:  1.000  s_r6:  1.217
	s8:  0.722  s_r8:  1.000
	Per-atom parameters loaded for:
	 N:  sqrtQ[a0]:  2.712  Rcov[a0]:  1.342  CN: [ 0.00 0.99 2.01 2.99 ]
	 B:  sqrtQ[a0]:  3.644  Rcov[a0]:  1.455  CN: [ 0.00 0.97 1.94 2.91 4.59 ]
	Na:  sqrtQ[a0]:  6.586  Rcov[a0]:  2.646  CN: [ 0.00 0.97 ]

---------- Setting up 2D ewald sum ----------
Optimum gaussian width for ewald sums = 6.943804 bohr.
Real space sums over 289 unit cells with max indices [  8  8  0  ]
Reciprocal space sums over 81 terms with max indices [  4  4  0  ]

Computing DFT-D3 correction:
# coordination-number N 3.141 3.141 3.174 3.141 3.174 3.139 3.139 3.174 3.141 3.174 3.174 3.141 3.141 3.174
# coordination-number B 3.394 3.346 3.346 3.346 3.346 3.394 3.394 3.394 3.346 3.346 3.394 3.394 3.344 3.344
# coordination-number Na 0.644
# diagonal-C6 N 15.61 15.61 15.60 15.61 15.60 15.61 15.61 15.60 15.61 15.60 15.60 15.61 15.61 15.60
# diagonal-C6 B 31.42 31.44 31.44 31.44 31.44 31.42 31.42 31.42 31.44 31.44 31.42 31.42 31.44 31.44
# diagonal-C6 Na 369.57
EvdW_6 =   -0.031320
EvdW_8 =   -0.029915

---------- Allocating electronic variables ----------
Initializing wave functions:  linear combination of atomic orbitals
N pseudo-atom occupations:   s ( 2 )  p ( 3 )
[d-4-7-1:37758] 18 more processes have sent help message help-mpi-common-cuda.txt / dlopen failed
[d-4-7-1:37758] Set MCA parameter "orte_base_help_aggregate" to 0 to see all help / error messages
[d-4-7-1:37758] 18 more processes have sent help message help-mpi-btl-openib-cpc-base.txt / no cpcs for port
B pseudo-atom occupations:   s ( 2 )  p ( 1 )
Na pseudo-atom occupations:   s ( 2 1 )  p ( 6 )
	FillingsUpdate:  mu: -0.134360393  nElectrons: 121.000000  magneticMoment: [ Abs: 0.05681  Tot: +0.01384 ]
LCAOMinimize: Iter:   0  F: -219.6268450063613784  |grad|_K:  3.573e-03  alpha:  1.000e+00
	FillingsUpdate:  mu: -0.140407076  nElectrons: 121.000000  magneticMoment: [ Abs: 0.12353  Tot: +0.09722 ]
LCAOMinimize: Iter:   1  F: -220.8402372775231584  |grad|_K:  4.368e-04  alpha:  4.411e-01  linmin:  4.667e-01  cgtest: -1.071e+00  t[s]:     49.92
LCAOMinimize: 	Bad step direction: g.d > 0.
LCAOMinimize: 	Undoing step.
LCAOMinimize: 	Step failed: resetting search direction.
	FillingsUpdate:  mu: -0.140407076  nElectrons: 121.000000  magneticMoment: [ Abs: 0.12353  Tot: +0.09722 ]
LCAOMinimize: Iter:   2  F: -220.8402372775231584  |grad|_K:  4.368e-04  alpha:  0.000e+00
	FillingsUpdate:  mu: -0.174392395  nElectrons: 121.000000  magneticMoment: [ Abs: 0.13005  Tot: +0.09722 ]
LCAOMinimize: Iter:   3  F: -220.8622515868396476  |grad|_K:  7.340e-05  alpha:  3.992e-01  linmin: -6.098e-02  cgtest:  1.459e-01  t[s]:     75.36
	FillingsUpdate:  mu: -0.159806669  nElectrons: 121.000000  magneticMoment: [ Abs: 0.05027  Tot: +0.00176 ]
LCAOMinimize: Iter:   4  F: -220.8637412082517244  |grad|_K:  1.288e-05  alpha:  2.896e-01  linmin: -6.030e-02  cgtest:  8.652e-01  t[s]:     90.20
LCAOMinimize: Encountered beta<0, resetting CG.
	FillingsUpdate:  mu: -0.159784886  nElectrons: 121.000000  magneticMoment: [ Abs: 0.05011  Tot: +0.00199 ]
LCAOMinimize: Iter:   5  F: -220.8637423267332451  |grad|_K:  1.261e-05  alpha:  1.288e-02  linmin: -3.901e-02  cgtest:  9.999e-01  t[s]:    105.12
LCAOMinimize: Encountered beta<0, resetting CG.
LCAOMinimize: 	Predicted alpha/alphaT>3.000000, increasing alphaT to 3.863374e-02.
LCAOMinimize: 	Predicted alpha/alphaT>3.000000, increasing alphaT to 1.159012e-01.
LCAOMinimize: 	Wrong curvature in test step, increasing alphaT to 3.477036e-01.
	FillingsUpdate:  mu: -0.159413702  nElectrons: 121.000000  magneticMoment: [ Abs: 0.05346  Tot: +0.00951 ]
LCAOMinimize: Iter:   6  F: -220.8637535132101277  |grad|_K:  1.399e-05  alpha: -3.917e-01  linmin: -7.924e-03  cgtest:  6.730e-01  t[s]:    128.19
LCAOMinimize: 	Step increased F by 1.086877e-04, reducing alpha to 6.292381e-03.
	FillingsUpdate:  mu: -0.159088065  nElectrons: 121.000000  magneticMoment: [ Abs: 0.05626  Tot: +0.01295 ]
LCAOMinimize: Iter:   7  F: -220.8637546773184113  |grad|_K:  1.156e-05  alpha:  6.292e-03  linmin: -6.993e-03  cgtest:  9.023e-01  t[s]:    153.65
LCAOMinimize: Encountered beta<0, resetting CG.
LCAOMinimize: 	Predicted alpha/alphaT>3.000000, increasing alphaT to 1.887714e-02.
LCAOMinimize: 	Predicted alpha/alphaT>3.000000, increasing alphaT to 5.663143e-02.
	FillingsUpdate:  mu: -0.157985145  nElectrons: 121.000000  magneticMoment: [ Abs: 0.07617  Tot: +0.03722 ]
LCAOMinimize: Iter:   8  F: -220.8637565629196899  |grad|_K:  2.934e-05  alpha:  7.159e-02  linmin:  1.452e-03  cgtest:  5.828e-03  t[s]:    177.12
	FillingsUpdate:  mu: -0.157909194  nElectrons: 121.000000  magneticMoment: [ Abs: 0.07775  Tot: +0.03914 ]
LCAOMinimize: Iter:   9  F: -220.8637565781780836  |grad|_K:  3.114e-05  alpha:  8.176e-04  linmin:  3.771e-05  cgtest:  1.010e+00  t[s]:    192.02
LCAOMinimize: 	Predicted alpha/alphaT>3.000000, increasing alphaT to 2.452808e-03.
LCAOMinimize: 	Predicted alpha/alphaT>3.000000, increasing alphaT to 7.358424e-03.
	FillingsUpdate:  mu: -0.158631051  nElectrons: 121.000000  magneticMoment: [ Abs: 0.07216  Tot: +0.03334 ]
LCAOMinimize: Iter:  10  F: -220.8637602692411406  |grad|_K:  1.188e-05  alpha:  1.290e-02  linmin: -1.720e-02  cgtest:  1.174e+00  t[s]:    215.34
LCAOMinimize: Encountered beta<0, resetting CG.
	FillingsUpdate:  mu: -0.158776690  nElectrons: 121.000000  magneticMoment: [ Abs: 0.07075  Tot: +0.03243 ]
LCAOMinimize: Iter:  11  F: -220.8637615958953688  |grad|_K:  7.848e-06  alpha:  2.936e-02  linmin: -8.582e-03  cgtest:  1.307e+00  t[s]:    230.18
LCAOMinimize: Encountered beta<0, resetting CG.
	FillingsUpdate:  mu: -0.158359692  nElectrons: 121.000000  magneticMoment: [ Abs: 0.07530  Tot: +0.03913 ]
LCAOMinimize: Iter:  12  F: -220.8637629223605927  |grad|_K:  9.154e-06  alpha:  7.077e-02  linmin: -6.730e-04  cgtest:  4.929e-01  t[s]:    245.09
	FillingsUpdate:  mu: -0.158807279  nElectrons: 121.000000  magneticMoment: [ Abs: 0.06059  Tot: +0.02575 ]
LCAOMinimize: Iter:  13  F: -220.8637650675107693  |grad|_K:  8.524e-06  alpha:  8.151e-02  linmin: -1.041e-03  cgtest: -5.043e-01  t[s]:    259.94
	FillingsUpdate:  mu: -0.158081231  nElectrons: 121.000000  magneticMoment: [ Abs: 0.05595  Tot: +0.03171 ]
LCAOMinimize: Iter:  14  F: -220.8637691509729279  |grad|_K:  8.900e-06  alpha:  1.533e-01  linmin:  9.894e-05  cgtest: -6.380e-01  t[s]:    274.82
LCAOMinimize: 	Wrong curvature in test step, increasing alphaT to 4.599058e-01.
	FillingsUpdate:  mu: -0.157745824  nElectrons: 121.000000  magneticMoment: [ Abs: 0.11171  Tot: +0.09731 ]
LCAOMinimize: Iter:  15  F: -220.8638019485308064  |grad|_K:  9.223e-06  alpha: -1.560e-02  linmin:  5.940e-02  cgtest:  2.576e-01  t[s]:    289.32
LCAOMinimize: 	Bad step direction: g.d > 0.
LCAOMinimize: 	Undoing step.
LCAOMinimize: 	Step failed: resetting search direction.
	FillingsUpdate:  mu: -0.157745824  nElectrons: 121.000000  magneticMoment: [ Abs: 0.11171  Tot: +0.09731 ]
LCAOMinimize: Iter:  16  F: -220.8638019485308064  |grad|_K:  9.223e-06  alpha:  0.000e+00
	FillingsUpdate:  mu: -0.158354501  nElectrons: 121.000000  magneticMoment: [ Abs: 0.10880  Tot: +0.09724 ]
LCAOMinimize: Iter:  17  F: -220.8638120122857913  |grad|_K:  2.065e-05  alpha:  4.521e-01  linmin:  1.387e-05  cgtest: -5.832e-03  t[s]:    314.80
	FillingsUpdate:  mu: -0.157714199  nElectrons: 121.000000  magneticMoment: [ Abs: 0.13639  Tot: +0.09724 ]
LCAOMinimize: Iter:  18  F: -220.8638139242860632  |grad|_K:  8.071e-06  alpha:  6.120e-02  linmin:  4.036e-03  cgtest: -1.246e+00  t[s]:    329.65
LCAOMinimize: 	Bad step direction: g.d > 0.
LCAOMinimize: 	Undoing step.
LCAOMinimize: 	Step failed: resetting search direction.
	FillingsUpdate:  mu: -0.157714199  nElectrons: 121.000000  magneticMoment: [ Abs: 0.13639  Tot: +0.09724 ]
LCAOMinimize: Iter:  19  F: -220.8638139242860632  |grad|_K:  8.071e-06  alpha:  0.000e+00
	FillingsUpdate:  mu: -0.158361285  nElectrons: 121.000000  magneticMoment: [ Abs: 0.12362  Tot: +0.09722 ]
LCAOMinimize: Iter:  20  F: -220.8638148182757277  |grad|_K:  1.164e-05  alpha:  6.852e-02  linmin:  5.340e-03  cgtest: -1.425e-01  t[s]:    355.13
LCAOMinimize: 	Bad step direction: g.d > 0.
LCAOMinimize: 	Undoing step.
LCAOMinimize: 	Step failed: resetting search direction.
	FillingsUpdate:  mu: -0.158361285  nElectrons: 121.000000  magneticMoment: [ Abs: 0.12362  Tot: +0.09722 ]
LCAOMinimize: Iter:  21  F: -220.8638148182757277  |grad|_K:  1.164e-05  alpha:  0.000e+00
	FillingsUpdate:  mu: -0.157986215  nElectrons: 121.000000  magneticMoment: [ Abs: 0.13356  Tot: +0.09722 ]
LCAOMinimize: Iter:  22  F: -220.8638157684369503  |grad|_K:  5.141e-06  alpha:  3.954e-02  linmin:  5.010e-03  cgtest: -5.237e-01  t[s]:    380.63
LCAOMinimize: 	Predicted alpha/alphaT>3.000000, increasing alphaT to 1.186245e-01.
	FillingsUpdate:  mu: -0.157924283  nElectrons: 121.000000  magneticMoment: [ Abs: 0.13709  Tot: +0.09722 ]
LCAOMinimize: Iter:  23  F: -220.8638171480930907  |grad|_K:  3.842e-06  alpha:  2.425e-01  linmin: -7.532e-06  cgtest:  6.942e-01  t[s]:    399.81
	FillingsUpdate:  mu: -0.158026762  nElectrons: 121.000000  magneticMoment: [ Abs: 0.13584  Tot: +0.09722 ]
LCAOMinimize: Iter:  24  F: -220.8638172624734750  |grad|_K:  2.487e-06  alpha:  1.702e-02  linmin: -7.730e-03  cgtest:  9.229e-01  t[s]:    414.76
LCAOMinimize: Encountered beta<0, resetting CG.
	FillingsUpdate:  mu: -0.158166005  nElectrons: 121.000000  magneticMoment: [ Abs: 0.13351  Tot: +0.09722 ]
LCAOMinimize: Iter:  25  F: -220.8638173262763189  |grad|_K:  1.457e-06  alpha:  4.737e-02  linmin:  3.290e-03  cgtest: -3.920e-01  t[s]:    429.64
LCAOMinimize: Converged (|Delta F|<1.000000e-06 for 2 iters).


---- Citations for features of the code used in this run ----

   Software package:
      R. Sundararaman, K. Letchworth-Weaver, K.A. Schwarz, D. Gunceler, Y. Ozhabes and T.A. Arias, 'JDFTx: software for joint density-functional theory', SoftwareX 6, 278 (2017)

   gga-PBE exchange-correlation functional:
      J.P. Perdew, K. Burke and M. Ernzerhof, Phys. Rev. Lett. 77, 3865 (1996)

   Pseudopotentials:
      M Schlipf and F Gygi, Comput. Phys. Commun. 196, 36 (2015)

   Truncated Coulomb potentials:
      R. Sundararaman and T.A. Arias, Phys. Rev. B 87, 165122 (2013)

   DFT-D3 dispersion correction:
      S. Grimme, J. Antony, S. Ehrlich and H. Krieg, J. Chem. Phys. 132, 154104 (2010)

This list may not be complete. Please suggest additional citations or
report any other bugs at https://github.com/shankar1729/jdftx/issues

Initialization completed successfully at t[s]:    431.82


Computing DFT-D3 correction:
# coordination-number N 3.141 3.141 3.174 3.141 3.174 3.139 3.139 3.174 3.141 3.174 3.174 3.141 3.141 3.174
# coordination-number B 3.394 3.346 3.346 3.346 3.346 3.394 3.394 3.394 3.346 3.346 3.394 3.394 3.344 3.344
# coordination-number Na 0.644
# diagonal-C6 N 15.61 15.61 15.60 15.61 15.60 15.61 15.61 15.60 15.61 15.60 15.60 15.61 15.61 15.60
# diagonal-C6 B 31.42 31.44 31.44 31.44 31.44 31.42 31.42 31.42 31.44 31.44 31.42 31.42 31.44 31.44
# diagonal-C6 Na 369.57
EvdW_6 =   -0.031320
EvdW_8 =   -0.029915

-------- Electronic minimization -----------
Will mix electronic density at each iteration.
	FillingsUpdate:  mu: -0.158166005  nElectrons: 121.000000  magneticMoment: [ Abs: 0.13351  Tot: +0.09722 ]
	FillingsUpdate:  mu: -0.164522286  nElectrons: 121.000000  magneticMoment: [ Abs: 0.13351  Tot: +0.09722 ]
SCF: Cycle:  0   F: -222.198193514916710   dF: -1.334e+00   |Residual|: 3.989e-01   |deigs|: 1.109e-01  t[s]:    481.85
	FillingsUpdate:  mu: -0.163011293  nElectrons: 121.000000  magneticMoment: [ Abs: 0.20745  Tot: +0.09104 ]
SCF: Cycle:  1   F: -222.277978917420825   dF: -7.979e-02   |Residual|: 2.186e-01   |deigs|: 1.946e-02  t[s]:    520.12
	FillingsUpdate:  mu: -0.164728931  nElectrons: 121.000000  magneticMoment: [ Abs: 0.25118  Tot: +0.09827 ]
SCF: Cycle:  2   F: -222.306392642018409   dF: -2.841e-02   |Residual|: 4.059e-02   |deigs|: 2.581e-02  t[s]:    558.51
	FillingsUpdate:  mu: -0.162523654  nElectrons: 121.000000  magneticMoment: [ Abs: 0.15225  Tot: +0.10160 ]
SCF: Cycle:  3   F: -222.307470578995151   dF: -1.078e-03   |Residual|: 2.751e-02   |deigs|: 4.632e-03  t[s]:    596.76
	FillingsUpdate:  mu: -0.155647236  nElectrons: 121.000000  magneticMoment: [ Abs: 0.19695  Tot: +0.11105 ]
SCF: Cycle:  4   F: -222.307836403000579   dF: -3.658e-04   |Residual|: 1.712e-02   |deigs|: 1.287e-02  t[s]:    635.01
	FillingsUpdate:  mu: -0.152621556  nElectrons: 121.000000  magneticMoment: [ Abs: 0.16021  Tot: +0.11472 ]
SCF: Cycle:  5   F: -222.308746852208145   dF: -9.104e-04   |Residual|: 1.457e-02   |deigs|: 4.617e-03  t[s]:    673.30
	FillingsUpdate:  mu: -0.143566068  nElectrons: 121.000000  magneticMoment: [ Abs: 0.16611  Tot: +0.12370 ]
SCF: Cycle:  6   F: -222.311170983153005   dF: -2.424e-03   |Residual|: 1.016e-02   |deigs|: 9.738e-03  t[s]:    711.73
	FillingsUpdate:  mu: -0.131449558  nElectrons: 121.000000  magneticMoment: [ Abs: 0.18677  Tot: +0.13433 ]
SCF: Cycle:  7   F: -222.314064449549505   dF: -2.893e-03   |Residual|: 1.186e-02   |deigs|: 1.065e-02  t[s]:    750.43
	FillingsUpdate:  mu: -0.120995684  nElectrons: 121.000000  magneticMoment: [ Abs: 0.18191  Tot: +0.14475 ]
SCF: Cycle:  8   F: -222.316614881979092   dF: -2.550e-03   |Residual|: 9.476e-03   |deigs|: 8.286e-03  t[s]:    789.10
	FillingsUpdate:  mu: -0.108120050  nElectrons: 121.000000  magneticMoment: [ Abs: 0.19207  Tot: +0.15895 ]
SCF: Cycle:  9   F: -222.320176230420174   dF: -3.561e-03   |Residual|: 7.250e-03   |deigs|: 8.807e-03  t[s]:    827.94
	FillingsUpdate:  mu: -0.102128708  nElectrons: 121.000000  magneticMoment: [ Abs: 0.20143  Tot: +0.16675 ]
SCF: Cycle: 10   F: -222.321772556222157   dF: -1.596e-03   |Residual|: 6.564e-03   |deigs|: 3.515e-03  t[s]:    866.64
	FillingsUpdate:  mu: -0.100706538  nElectrons: 121.000000  magneticMoment: [ Abs: 0.18845  Tot: +0.16962 ]
SCF: Cycle: 11   F: -222.322207449568879   dF: -4.349e-04   |Residual|: 5.124e-03   |deigs|: 1.810e-03  t[s]:    905.41
	FillingsUpdate:  mu: -0.095263885  nElectrons: 121.000000  magneticMoment: [ Abs: 0.19100  Tot: +0.17574 ]
SCF: Cycle: 12   F: -222.322686033123176   dF: -4.786e-04   |Residual|: 4.929e-03   |deigs|: 4.209e-03  t[s]:    944.05
	FillingsUpdate:  mu: -0.089615821  nElectrons: 121.000000  magneticMoment: [ Abs: 0.19888  Tot: +0.18140 ]
SCF: Cycle: 13   F: -222.322962209804075   dF: -2.762e-04   |Residual|: 3.773e-03   |deigs|: 3.957e-03  t[s]:    982.67
	FillingsUpdate:  mu: -0.086930970  nElectrons: 121.000000  magneticMoment: [ Abs: 0.19355  Tot: +0.18347 ]
SCF: Cycle: 14   F: -222.323065207503163   dF: -1.030e-04   |Residual|: 3.045e-03   |deigs|: 2.170e-03  t[s]:   1021.57
	FillingsUpdate:  mu: -0.085826674  nElectrons: 121.000000  magneticMoment: [ Abs: 0.19272  Tot: +0.18363 ]
SCF: Cycle: 15   F: -222.323108636931693   dF: -4.343e-05   |Residual|: 1.970e-03   |deigs|: 2.107e-03  t[s]:   1060.18
	FillingsUpdate:  mu: -0.085165184  nElectrons: 121.000000  magneticMoment: [ Abs: 0.18981  Tot: +0.18344 ]
SCF: Cycle: 16   F: -222.323119555823212   dF: -1.092e-05   |Residual|: 1.206e-03   |deigs|: 1.281e-03  t[s]:   1098.83
	FillingsUpdate:  mu: -0.085110840  nElectrons: 121.000000  magneticMoment: [ Abs: 0.18659  Tot: +0.18292 ]
SCF: Cycle: 17   F: -222.323121673646881   dF: -2.118e-06   |Residual|: 6.065e-04   |deigs|: 4.946e-04  t[s]:   1137.86
	FillingsUpdate:  mu: -0.084988389  nElectrons: 121.000000  magneticMoment: [ Abs: 0.18551  Tot: +0.18271 ]
SCF: Cycle: 18   F: -222.323122144535205   dF: -4.709e-07   |Residual|: 3.273e-04   |deigs|: 4.629e-04  t[s]:   1176.80
	FillingsUpdate:  mu: -0.085037774  nElectrons: 121.000000  magneticMoment: [ Abs: 0.18478  Tot: +0.18241 ]
SCF: Cycle: 19   F: -222.323122294743513   dF: -1.502e-07   |Residual|: 1.800e-04   |deigs|: 5.568e-04  t[s]:   1215.69
	FillingsUpdate:  mu: -0.085033452  nElectrons: 121.000000  magneticMoment: [ Abs: 0.18414  Tot: +0.18220 ]
SCF: Cycle: 20   F: -222.323122352635437   dF: -5.789e-08   |Residual|: 1.012e-04   |deigs|: 3.964e-04  t[s]:   1254.42
	FillingsUpdate:  mu: -0.084991174  nElectrons: 121.000000  magneticMoment: [ Abs: 0.18365  Tot: +0.18194 ]
SCF: Cycle: 21   F: -222.323122420394043   dF: -6.776e-08   |Residual|: 6.533e-05   |deigs|: 5.870e-04  t[s]:   1293.13
	FillingsUpdate:  mu: -0.084948463  nElectrons: 121.000000  magneticMoment: [ Abs: 0.18322  Tot: +0.18173 ]
SCF: Cycle: 22   F: -222.323122456895419   dF: -3.650e-08   |Residual|: 5.668e-05   |deigs|: 1.001e-03  t[s]:   1331.95
	FillingsUpdate:  mu: -0.084882669  nElectrons: 121.000000  magneticMoment: [ Abs: 0.18287  Tot: +0.18150 ]
SCF: Cycle: 23   F: -222.323122502531419   dF: -4.564e-08   |Residual|: 4.593e-05   |deigs|: 4.305e-04  t[s]:   1370.74
	FillingsUpdate:  mu: -0.084842400  nElectrons: 121.000000  magneticMoment: [ Abs: 0.18266  Tot: +0.18130 ]
SCF: Cycle: 24   F: -222.323122510619129   dF: -8.088e-09   |Residual|: 3.696e-05   |deigs|: 1.169e-04  t[s]:   1409.52
	FillingsUpdate:  mu: -0.084822465  nElectrons: 121.000000  magneticMoment: [ Abs: 0.18244  Tot: +0.18113 ]
SCF: Cycle: 25   F: -222.323122513198769   dF: -2.580e-09   |Residual|: 2.591e-05   |deigs|: 2.811e-04  t[s]:   1448.30
SCF: Converged (|Delta E|<1.000000e-08 for 2 iters).


Computing DFT-D3 correction:
# coordination-number N 3.141 3.141 3.174 3.141 3.174 3.139 3.139 3.174 3.141 3.174 3.174 3.141 3.141 3.174
# coordination-number B 3.394 3.346 3.346 3.346 3.346 3.394 3.394 3.394 3.346 3.346 3.394 3.394 3.344 3.344
# coordination-number Na 0.644
# diagonal-C6 N 15.61 15.61 15.60 15.61 15.60 15.61 15.61 15.60 15.61 15.60 15.60 15.61 15.61 15.60
# diagonal-C6 B 31.42 31.44 31.44 31.44 31.44 31.42 31.42 31.42 31.44 31.44 31.42 31.42 31.44 31.44
# diagonal-C6 Na 369.57
EvdW_6 =   -0.031320
EvdW_8 =   -0.029915

# Ionic positions in lattice coordinates:
ion N   0.952380952379803   0.761904761902463   0.000000000000000 0
ion N   1.428571428570279   1.285714285711987   0.304000000000000 0
ion N   0.380952380951232   0.904761904759606   0.000000000000000 0
ion N   0.714285714284565   1.142857142854844   0.304000000000000 0
ion N   0.523809523808374   0.619047619045320   0.000000000000000 0
ion N   0.999999999998850   0.999999999997701   0.304000000000000 0
ion N   0.666666666665517   0.333333333331034   0.000000000000000 0
ion N   1.285714285713136   0.857142857140558   0.304000000000000 0
ion N   0.809523809522660   0.047619047616749   0.000000000000000 0
ion N   1.571428571427422   0.714285714283415   0.304000000000000 0
ion N   0.095238095236946   0.476190476188177   0.000000000000000 0
ion N   0.238095238094089   0.190476190473892   0.000000000000000 0
ion N   0.857142857141708   0.571428571426273   0.304000000000000 0
ion N   1.142857142855993   0.428571428569130   0.304000000000000 0
ion B   0.571428571427422   0.857142857140558   0.000000000000000 0
ion B   0.952380952379803   1.190476190473892   0.304000000000000 0
ion B   0.714285714284565   0.571428571426273   0.000000000000000 0
ion B   1.238095238094089   1.047619047616749   0.304000000000000 0
ion B   0.857142857141708   0.285714285711987   0.000000000000000 0
ion B   1.523809523808374   0.904761904759606   0.304000000000000 0
ion B   0.142857142855993   0.714285714283415   0.000000000000000 0
ion B   0.285714285713136   0.428571428569130   0.000000000000000 0
ion B   0.809523809522660   0.761904761902463   0.304000000000000 0
ion B   0.428571428570279   0.142857142854844   0.000000000000000 0
ion B   1.095238095236946   0.619047619045320   0.304000000000000 0
ion B   1.380952380951231   0.476190476188177   0.304000000000000 0
ion B  -0.000000000001149  -0.000000000002299   0.000000000000000 0
ion B   0.666666666665517   0.333333333331034   0.304000000000000 0
ion Na   0.333333333332184   0.666666666664368   0.152000000000000 0

# Forces in Lattice coordinates:
force N   0.007906179377246  -0.006327547036551  -0.032951919157603 0
force N  -0.006327547036551   0.007906179377246   0.032951919157717 0
force N   0.000355554110796  -0.013198756208935   0.012400724857885 0
force N  -0.001578632340695  -0.006327547036551   0.032951919157717 0
force N  -0.013198756208935   0.012843202098139   0.012400724857885 0
force N   0.000000000000000   0.000000000000000   0.023872529723979 0
force N   0.000000000000000   0.000000000000000  -0.023872529724093 0
force N   0.012843202098139  -0.013198756208935  -0.012400724857885 0
force N  -0.006327547036551  -0.001578632340695  -0.032951919157603 0
force N  -0.013198756208935   0.000355554110796  -0.012400724857885 0
force N   0.012843202098139   0.000355554110796   0.012400724857771 0
force N  -0.001578632340695   0.007906179377246  -0.032951919157717 0
force N   0.007906179377246  -0.001578632340695   0.032951919157603 0
force N   0.000355554110796   0.012843202098138  -0.012400724857885 0
force B   0.021464630954830   0.012090838317237  -0.039559313086838 0
force B  -0.006557958093884  -0.019481093334195  -0.038104927801309 0
force B   0.026039051428079  -0.019481093334195   0.038104927801309 0
force B  -0.019481093334195   0.026039051428079  -0.038104927801309 0
force B  -0.019481093334195  -0.006557958093884   0.038104927801423 0
force B   0.012090838317237   0.021464630954830   0.039559313086895 0
force B  -0.033555469272068   0.021464630954830  -0.039559313086838 0
force B   0.012090838317237  -0.033555469272068  -0.039559313086838 0
force B   0.026039051428079  -0.006557958093884  -0.038104927801423 0
force B  -0.006557958093884   0.026039051428079   0.038104927801309 0
force B  -0.033555469272068   0.012090838317237   0.039559313086838 0
force B   0.021464630954830  -0.033555469272068   0.039559313086838 0
force B   0.000000000000000  -0.000000000000000   0.051642718589155 0
force B   0.000000000000000   0.000000000000000  -0.051642718589325 0
force Na  -0.000000000000000  -0.000000000000000  -0.000000000000000 0

# Energy components:
   Eewald =    -2346.9757448901964381
       EH =    -2171.7546487154977513
     Eloc =     4226.6177486096285065
      Enl =      -21.3004326841436793
   Epulay =       -0.0000190610708103
     EvdW =       -0.0612353736106087
      Exc =      -57.7732551285816669
       KE =      148.9244649954879378
-------------------------------------
     Etot =     -222.3231222479845428
       TS =        0.0000002652142368
-------------------------------------
        F =     -222.3231225131987685

IonicMinimize: Iter:   0  F: -222.323122513198769  |grad|_K:  0.000e+00  t[s]:   1452.33
IonicMinimize: Converged (|grad|_K<1.000000e-04).

#--- Lowdin population analysis ---
# oxidation-state N -0.374 -0.374 -0.377 -0.374 -0.377 -0.373 -0.373 -0.377 -0.374 -0.377 -0.377 -0.374 -0.374 -0.377
# magnetic-moments N +0.000 +0.000 +0.001 +0.000 +0.001 +0.000 +0.000 +0.001 +0.000 +0.001 +0.001 +0.000 +0.000 +0.001
# oxidation-state B +0.427 +0.446 +0.446 +0.446 +0.446 +0.427 +0.427 +0.427 +0.446 +0.446 +0.427 +0.427 +0.447 +0.447
# magnetic-moments B +0.001 +0.000 +0.000 +0.000 +0.000 +0.001 +0.001 +0.001 +0.000 +0.000 +0.001 +0.001 +0.000 +0.000
# oxidation-state Na +0.103
# magnetic-moments Na +0.157


Dumping 'Na-0.304.fillings' ... done
Dumping 'Na-0.304.wfns' ... done
Dumping 'Na-0.304.n_up' ... done
Dumping 'Na-0.304.n_dn' ... done
Dumping 'Na-0.304.eigenvals' ... done
End date and time: Sun Jan 23 17:00:54 2022  (Duration: 0-0:24:52.51)
Done!
