Second Layer Distance is 0.154

--------------------------------------------------------------------------
The library attempted to open the following supporting CUDA libraries,
but each of them failed.  CUDA-aware support is disabled.
libcuda.so.1: cannot open shared object file: No such file or directory
libcuda.dylib: cannot open shared object file: No such file or directory
/usr/lib64/libcuda.so.1: cannot open shared object file: No such file or directory
/usr/lib64/libcuda.dylib: cannot open shared object file: No such file or directory
If you are not interested in CUDA-aware support, then run with
--mca opal_warn_on_missing_libcuda 0 to suppress this message.  If you are interested
in CUDA-aware support, then try setting LD_LIBRARY_PATH to the location
of libcuda.so.1 to get passed this issue.
--------------------------------------------------------------------------
--------------------------------------------------------------------------
No OpenFabrics connection schemes reported that they were able to be
used on a specific port.  As such, the openib BTL (OpenFabrics
support) will be disabled for this port.

  Local host:           d-16-4-2
  Local device:         mlx5_1
  Local port:           1
  CPCs attempted:       rdmacm, udcm
--------------------------------------------------------------------------

*************** JDFTx 1.6.0 (git hash 42ebbcc2) ***************

Start date and time: Wed Jan 19 19:46:29 2022
Executable jdftx with command-line: -i Moire.in
Running on hosts (process indices):  d-16-4-2 (0-18)
Divided in process groups (process indices):  0 (0)  1 (1)  2 (2)  3 (3)  4 (4)  5 (5)  6 (6)  7 (7)  8 (8)  9 (9)  10 (10)  11 (11)  12 (12)  13 (13)  14 (14)  15 (15)  16 (16)  17 (17)  18 (18)
Resource initialization completed at t[s]:      0.00
Run totals: 19 processes, 48 threads, 0 GPUs


Input parsed successfully to the following command list (including defaults):

basis kpoint-dependent
coords-type Lattice
core-overlap-check vector
coulomb-interaction Slab 001
davidson-band-ratio 1.1
dump End State ElecDensity BandEigs
dump-name Na-0.154.$VAR
elec-cutoff 20
elec-eigen-algo Davidson
elec-ex-corr gga-PBE
elec-initial-magnetization 0.100000 no
elec-smearing Fermi 1e-05
electronic-minimize  \
	dirUpdateScheme      FletcherReeves \
	linminMethod         DirUpdateRecommended \
	nIterations          100 \
	history              15 \
	knormThreshold       0 \
	energyDiffThreshold  1e-08 \
	nEnergyDiff          2 \
	alphaTstart          1 \
	alphaTmin            1e-10 \
	updateTestStepSize   yes \
	alphaTreduceFactor   0.1 \
	alphaTincreaseFactor 3 \
	nAlphaAdjustMax      3 \
	wolfeEnergy          0.0001 \
	wolfeGradient        0.9 \
	fdTest               no
electronic-scf  \
	nIterations	1000 \
	energyDiffThreshold	1e-08 \
	residualThreshold	1e-07 \
	mixFraction	0.5 \
	qMetric	0.8 \
	history	10 \
	nEigSteps	2 \
	eigDiffThreshold	1e-08 \
	mixedVariable	Density \
	qKerker	0.8 \
	qKappa	-1 \
	verbose	no \
	mixFractionMag	1.5
exchange-regularization WignerSeitzTruncated
fluid None
fluid-ex-corr (null) lda-PZ
fluid-gummel-loop 10 1.000000e-05
fluid-minimize  \
	dirUpdateScheme      PolakRibiere \
	linminMethod         DirUpdateRecommended \
	nIterations          100 \
	history              15 \
	knormThreshold       0 \
	energyDiffThreshold  0 \
	nEnergyDiff          2 \
	alphaTstart          1 \
	alphaTmin            1e-10 \
	updateTestStepSize   yes \
	alphaTreduceFactor   0.1 \
	alphaTincreaseFactor 3 \
	nAlphaAdjustMax      3 \
	wolfeEnergy          0.0001 \
	wolfeGradient        0.9 \
	fdTest               no
fluid-solvent H2O 55.338 ScalarEOS \
	epsBulk 78.4 \
	pMol 0.92466 \
	epsInf 1.77 \
	Pvap 1.06736e-10 \
	sigmaBulk 4.62e-05 \
	Rvdw 2.61727 \
	Res 1.42 \
	tauNuc 343133 \
	poleEl 15 7 1
forces-output-coords Positions
ion N   0.952380952380952   0.761904761904762   0.000000000000000 0
ion N   1.428571428571428   1.285714285714286   0.154000000000000 0
ion N   0.380952380952381   0.904761904761905   0.000000000000000 0
ion N   0.714285714285714   1.142857142857143   0.154000000000000 0
ion N   0.523809523809524   0.619047619047619   0.000000000000000 0
ion N   1.000000000000000   1.000000000000000   0.154000000000000 0
ion N   0.666666666666667   0.333333333333333   0.000000000000000 0
ion N   1.285714285714286   0.857142857142857   0.154000000000000 0
ion N   0.809523809523810   0.047619047619048   0.000000000000000 0
ion N   1.571428571428571   0.714285714285714   0.154000000000000 0
ion N   0.095238095238095   0.476190476190476   0.000000000000000 0
ion N   0.238095238095238   0.190476190476190   0.000000000000000 0
ion N   0.857142857142857   0.571428571428571   0.154000000000000 0
ion N   1.142857142857143   0.428571428571429   0.154000000000000 0
ion B   0.571428571428572   0.857142857142857   0.000000000000000 0
ion B   0.952380952380952   1.190476190476190   0.154000000000000 0
ion B   0.714285714285714   0.571428571428571   0.000000000000000 0
ion B   1.238095238095238   1.047619047619047   0.154000000000000 0
ion B   0.857142857142857   0.285714285714286   0.000000000000000 0
ion B   1.523809523809524   0.904761904761905   0.154000000000000 0
ion B   0.142857142857143   0.714285714285714   0.000000000000000 0
ion B   0.285714285714286   0.428571428571429   0.000000000000000 0
ion B   0.809523809523810   0.761904761904762   0.154000000000000 0
ion B   0.428571428571429   0.142857142857143   0.000000000000000 0
ion B   1.095238095238095   0.619047619047619   0.154000000000000 0
ion B   1.380952380952381   0.476190476190476   0.154000000000000 0
ion B   0.000000000000000   0.000000000000000   0.000000000000000 0
ion B   0.666666666666667   0.333333333333333   0.154000000000000 0
ion Na   0.333333333300000   0.666666666600000   0.077000000000000 0
ion-species SG15/$ID_ONCV_PBE.upf
ion-width 0
ionic-minimize  \
	dirUpdateScheme      L-BFGS \
	linminMethod         DirUpdateRecommended \
	nIterations          0 \
	history              15 \
	knormThreshold       0.0001 \
	energyDiffThreshold  1e-06 \
	nEnergyDiff          2 \
	alphaTstart          1 \
	alphaTmin            1e-10 \
	updateTestStepSize   yes \
	alphaTreduceFactor   0.1 \
	alphaTincreaseFactor 3 \
	nAlphaAdjustMax      3 \
	wolfeEnergy          0.0001 \
	wolfeGradient        0.9 \
	fdTest               no
kpoint   0.000000000000   0.000000000000   0.000000000000  1.00000000000000
kpoint-folding 12 12 1 
latt-move-scale 1 1 1
latt-scale 1 1 1 
lattice  \
	 -11.818700000000000    2.363740000000000    0.000000000000000  \
	   4.094120000000000  -12.282400000000001    0.000000000000000  \
	   0.000000000000000    0.000000000000000   40.000000000000000 
lattice-minimize  \
	dirUpdateScheme      L-BFGS \
	linminMethod         DirUpdateRecommended \
	nIterations          0 \
	history              15 \
	knormThreshold       0 \
	energyDiffThreshold  1e-06 \
	nEnergyDiff          2 \
	alphaTstart          1 \
	alphaTmin            1e-10 \
	updateTestStepSize   yes \
	alphaTreduceFactor   0.1 \
	alphaTincreaseFactor 3 \
	nAlphaAdjustMax      3 \
	wolfeEnergy          0.0001 \
	wolfeGradient        0.9 \
	fdTest               no
lcao-params -1 1e-06 1e-05
pcm-variant GLSSA13
spintype z-spin
subspace-rotation-factor 1 yes
symmetries automatic
symmetry-threshold 0.0001
van-der-waals D3



---------- Setting up symmetries ----------

Found 24 point-group symmetries of the bravais lattice
Found 6 space-group symmetries with basis
Applied RMS atom displacement 1.31765e-10 bohrs to make symmetries exact.

---------- Initializing the Grid ----------
R = 
[     -11.8187      2.36374            0  ]
[      4.09412     -12.2824            0  ]
[            0            0           40  ]
unit cell volume = 5419.38
G =
[  -0.569604   -0.10962          0  ]
[  -0.189867    -0.5481          0  ]
[          0          0    0.15708  ]
Minimum fftbox size, Smin = [  52  52  164  ]
Chosen fftbox size, S = [  54  54  168  ]

---------- Exchange Correlation functional ----------
Initalized PBE GGA exchange.
Initalized PBE GGA correlation.

---------- Setting up pseudopotentials ----------
Width of ionic core gaussian charges (only for fluid interactions / plotting) set to 0

Reading pseudopotential file '/home/gridsan/aligho/DFT/build-Nov24/pseudopotentials/SG15/N_ONCV_PBE.upf':
  'N' pseudopotential, 'PBE' functional
  Generated using ONCVPSP code by D. R. Hamann
  Author: Martin Schlipf and Francois Gygi  Date: 150915.
  5 valence electrons, 2 orbitals, 4 projectors, 1058 radial grid points, with lMax = 1
  Transforming local potential to a uniform radial grid of dG=0.02 with 1514 points.
  Transforming nonlocal projectors to a uniform radial grid of dG=0.02 with 432 points.
    2S    l: 0   occupation:  2.0   eigenvalue: -0.682907
    2P    l: 1   occupation:  3.0   eigenvalue: -0.260548
  Transforming atomic orbitals to a uniform radial grid of dG=0.02 with 432 points.
  Core radius for overlap checks: 1.35 bohrs.
  Reading pulay file /home/gridsan/aligho/DFT/build-Nov24/pseudopotentials/SG15/N_ONCV_PBE.pulay ... using dE_dnG = -2.956256e-02 computed for Ecut = 20.

Reading pseudopotential file '/home/gridsan/aligho/DFT/build-Nov24/pseudopotentials/SG15/B_ONCV_PBE.upf':
  'B' pseudopotential, 'PBE' functional
  Generated using ONCVPSP code by D. R. Hamann
  Author: Martin Schlipf and Francois Gygi  Date: 150915.
  3 valence electrons, 2 orbitals, 4 projectors, 1534 radial grid points, with lMax = 1
  Transforming local potential to a uniform radial grid of dG=0.02 with 1514 points.
  Transforming nonlocal projectors to a uniform radial grid of dG=0.02 with 432 points.
    2S    l: 0   occupation:  2.0   eigenvalue: -0.347027
    2P    l: 1   occupation:  1.0   eigenvalue: -0.132548
  Transforming atomic orbitals to a uniform radial grid of dG=0.02 with 432 points.
  Core radius for overlap checks: 1.60 bohrs.
  Reading pulay file /home/gridsan/aligho/DFT/build-Nov24/pseudopotentials/SG15/B_ONCV_PBE.pulay ... using dE_dnG = -3.748568e-04 computed for Ecut = 20.

Reading pseudopotential file '/home/gridsan/aligho/DFT/build-Nov24/pseudopotentials/SG15/Na_ONCV_PBE.upf':
  'Na' pseudopotential, 'PBE' functional
  Generated using ONCVPSP code by D. R. Hamann
  Author: Martin Schlipf and Francois Gygi  Date: 150915.
  9 valence electrons, 3 orbitals, 4 projectors, 1992 radial grid points, with lMax = 1
  Transforming local potential to a uniform radial grid of dG=0.02 with 1514 points.
  Transforming nonlocal projectors to a uniform radial grid of dG=0.02 with 432 points.
    2S    l: 0   occupation:  2.0   eigenvalue: -2.085640
    2P    l: 1   occupation:  6.0   eigenvalue: -1.053708
    3S    l: 0   occupation:  1.0   eigenvalue: -0.100838
  Transforming atomic orbitals to a uniform radial grid of dG=0.02 with 432 points.
  Core radius for overlap checks: 2.01 bohrs.
  Reading pulay file /home/gridsan/aligho/DFT/build-Nov24/pseudopotentials/SG15/Na_ONCV_PBE.pulay ... using dE_dnG = -2.946487e-03 computed for Ecut = 20.

Initialized 3 species with 29 total atoms.

Folded 1 k-points by 12x12x1 to 144 k-points.

---------- Setting up k-points, bands, fillings ----------
Adding inversion symmetry to k-mesh for non-inversion-symmetric unit cell.
Reduced to 19 k-points under symmetry. 
Computing the number of bands and number of electrons
Calculating initial fillings.
nElectrons: 121.000000   nBands: 117   nStates: 38

----- Setting up reduced wavefunction bases (one per k-point) -----
average nbasis = 23151.771 , ideal nbasis = 23152.016

---------- Setting up coulomb interaction ----------
Initialized slab truncation along lattice direction 001

Initializing DFT-D3 calculator:
	Parameters set for gga-PBE functional
	s6:  1.000  s_r6:  1.217
	s8:  0.722  s_r8:  1.000
	Per-atom parameters loaded for:
	 N:  sqrtQ[a0]:  2.712  Rcov[a0]:  1.342  CN: [ 0.00 0.99 2.01 2.99 ]
	 B:  sqrtQ[a0]:  3.644  Rcov[a0]:  1.455  CN: [ 0.00 0.97 1.94 2.91 4.59 ]
	Na:  sqrtQ[a0]:  6.586  Rcov[a0]:  2.646  CN: [ 0.00 0.97 ]

---------- Setting up 2D ewald sum ----------
Optimum gaussian width for ewald sums = 6.943804 bohr.
Real space sums over 289 unit cells with max indices [  8  8  0  ]
Reciprocal space sums over 81 terms with max indices [  4  4  0  ]

Computing DFT-D3 correction:
# coordination-number N 3.229 3.229 4.134 3.229 4.134 3.159 3.159 4.134 3.229 4.134 4.134 3.229 3.229 4.134
# coordination-number B 4.344 3.471 3.471 3.471 3.471 4.344 4.344 4.344 3.471 3.471 4.344 4.344 3.371 3.371
# coordination-number Na 13.278
# diagonal-C6 N 15.59 15.59 15.58 15.59 15.58 15.60 15.60 15.58 15.59 15.58 15.58 15.59 15.59 15.58
# diagonal-C6 B 28.03 31.37 31.37 31.37 31.37 28.03 28.03 28.03 31.37 31.37 28.03 28.03 31.43 31.43
# diagonal-C6 Na 186.11
EvdW_6 =   -0.045070
EvdW_8 =   -0.040487

---------- Allocating electronic variables ----------
Initializing wave functions:  linear combination of atomic orbitals
N pseudo-atom occupations:   s ( 2 )  p ( 3 )
[d-16-4-2:90161] 18 more processes have sent help message help-mpi-common-cuda.txt / dlopen failed
[d-16-4-2:90161] Set MCA parameter "orte_base_help_aggregate" to 0 to see all help / error messages
[d-16-4-2:90161] 18 more processes have sent help message help-mpi-btl-openib-cpc-base.txt / no cpcs for port
B pseudo-atom occupations:   s ( 2 )  p ( 1 )
Na pseudo-atom occupations:   s ( 2 1 )  p ( 6 )
	FillingsUpdate:  mu: -0.220816531  nElectrons: 121.000000  magneticMoment: [ Abs: 0.11828  Tot: +0.11111 ]
LCAOMinimize: Iter:   0  F: -219.7916546128422794  |grad|_K:  3.257e-03  alpha:  1.000e+00
	FillingsUpdate:  mu: -0.171567650  nElectrons: 121.000000  magneticMoment: [ Abs: 0.12296  Tot: +0.11111 ]
LCAOMinimize: Iter:   1  F: -220.8127768271199329  |grad|_K:  3.798e-04  alpha:  4.412e-01  linmin:  5.113e-01  cgtest: -1.074e+00  t[s]:     49.72
LCAOMinimize: 	Bad step direction: g.d > 0.
LCAOMinimize: 	Undoing step.
LCAOMinimize: 	Step failed: resetting search direction.
	FillingsUpdate:  mu: -0.171567650  nElectrons: 121.000000  magneticMoment: [ Abs: 0.12296  Tot: +0.11111 ]
LCAOMinimize: Iter:   2  F: -220.8127768271199329  |grad|_K:  3.798e-04  alpha:  0.000e+00
	FillingsUpdate:  mu: -0.181202738  nElectrons: 121.000000  magneticMoment: [ Abs: 0.11574  Tot: +0.09722 ]
LCAOMinimize: Iter:   3  F: -220.8285651632484701  |grad|_K:  2.481e-05  alpha:  4.128e-01  linmin:  1.023e-01  cgtest: -2.037e-01  t[s]:     75.10
	FillingsUpdate:  mu: -0.181558922  nElectrons: 121.000000  magneticMoment: [ Abs: 0.11676  Tot: +0.09722 ]
LCAOMinimize: Iter:   4  F: -220.8286189039494616  |grad|_K:  7.007e-06  alpha:  3.491e-01  linmin:  8.128e-04  cgtest:  2.001e-01  t[s]:     89.98
	FillingsUpdate:  mu: -0.181639208  nElectrons: 121.000000  magneticMoment: [ Abs: 0.11781  Tot: +0.09722 ]
LCAOMinimize: Iter:   5  F: -220.8286252428747218  |grad|_K:  1.859e-06  alpha:  4.881e-01  linmin:  2.375e-04  cgtest: -3.139e-03  t[s]:    104.77
	FillingsUpdate:  mu: -0.181701681  nElectrons: 121.000000  magneticMoment: [ Abs: 0.11886  Tot: +0.09722 ]
LCAOMinimize: Iter:   6  F: -220.8286258603284864  |grad|_K:  7.960e-07  alpha:  6.755e-01  linmin:  1.251e-04  cgtest:  3.243e-04  t[s]:    119.52
	FillingsUpdate:  mu: -0.181682897  nElectrons: 121.000000  magneticMoment: [ Abs: 0.11928  Tot: +0.09722 ]
LCAOMinimize: Iter:   7  F: -220.8286259332551822  |grad|_K:  2.034e-07  alpha:  4.358e-01  linmin:  3.611e-04  cgtest:  2.328e-05  t[s]:    134.47
LCAOMinimize: Converged (|Delta F|<1.000000e-06 for 2 iters).


---- Citations for features of the code used in this run ----

   Software package:
      R. Sundararaman, K. Letchworth-Weaver, K.A. Schwarz, D. Gunceler, Y. Ozhabes and T.A. Arias, 'JDFTx: software for joint density-functional theory', SoftwareX 6, 278 (2017)

   gga-PBE exchange-correlation functional:
      J.P. Perdew, K. Burke and M. Ernzerhof, Phys. Rev. Lett. 77, 3865 (1996)

   Pseudopotentials:
      M Schlipf and F Gygi, Comput. Phys. Commun. 196, 36 (2015)

   Truncated Coulomb potentials:
      R. Sundararaman and T.A. Arias, Phys. Rev. B 87, 165122 (2013)

   DFT-D3 dispersion correction:
      S. Grimme, J. Antony, S. Ehrlich and H. Krieg, J. Chem. Phys. 132, 154104 (2010)

This list may not be complete. Please suggest additional citations or
report any other bugs at https://github.com/shankar1729/jdftx/issues

Initialization completed successfully at t[s]:    136.67


Computing DFT-D3 correction:
# coordination-number N 3.229 3.229 4.134 3.229 4.134 3.159 3.159 4.134 3.229 4.134 4.134 3.229 3.229 4.134
# coordination-number B 4.344 3.471 3.471 3.471 3.471 4.344 4.344 4.344 3.471 3.471 4.344 4.344 3.371 3.371
# coordination-number Na 13.278
# diagonal-C6 N 15.59 15.59 15.58 15.59 15.58 15.60 15.60 15.58 15.59 15.58 15.58 15.59 15.59 15.58
# diagonal-C6 B 28.03 31.37 31.37 31.37 31.37 28.03 28.03 28.03 31.37 31.37 28.03 28.03 31.43 31.43
# diagonal-C6 Na 186.11
EvdW_6 =   -0.045070
EvdW_8 =   -0.040487

-------- Electronic minimization -----------
Will mix electronic density at each iteration.
	FillingsUpdate:  mu: -0.181682897  nElectrons: 121.000000  magneticMoment: [ Abs: 0.11928  Tot: +0.09722 ]
	FillingsUpdate:  mu: -0.202316860  nElectrons: 121.000000  magneticMoment: [ Abs: 0.11928  Tot: +0.09722 ]
SCF: Cycle:  0   F: -222.092812750912856   dF: -1.264e+00   |Residual|: 3.814e-01   |deigs|: 1.005e-01  t[s]:    186.52
	FillingsUpdate:  mu: -0.187410277  nElectrons: 121.000000  magneticMoment: [ Abs: 0.18208  Tot: +0.10186 ]
SCF: Cycle:  1   F: -222.152968464084950   dF: -6.016e-02   |Residual|: 2.116e-01   |deigs|: 1.945e-02  t[s]:    224.56
	FillingsUpdate:  mu: -0.164817334  nElectrons: 121.000000  magneticMoment: [ Abs: 0.22613  Tot: +0.11151 ]
SCF: Cycle:  2   F: -222.193002155949415   dF: -4.003e-02   |Residual|: 4.340e-02   |deigs|: 2.269e-02  t[s]:    262.91
	FillingsUpdate:  mu: -0.160767439  nElectrons: 121.000000  magneticMoment: [ Abs: 0.21588  Tot: +0.11673 ]
SCF: Cycle:  3   F: -222.196253496867769   dF: -3.251e-03   |Residual|: 2.531e-02   |deigs|: 4.381e-03  t[s]:    301.42
	FillingsUpdate:  mu: -0.148936447  nElectrons: 121.000000  magneticMoment: [ Abs: 0.22535  Tot: +0.12902 ]
SCF: Cycle:  4   F: -222.202456367196589   dF: -6.203e-03   |Residual|: 1.686e-02   |deigs|: 1.091e-02  t[s]:    339.60
	FillingsUpdate:  mu: -0.140745630  nElectrons: 121.000000  magneticMoment: [ Abs: 0.24065  Tot: +0.13946 ]
SCF: Cycle:  5   F: -222.204442992277819   dF: -1.987e-03   |Residual|: 1.281e-02   |deigs|: 7.302e-03  t[s]:    378.00
	FillingsUpdate:  mu: -0.133903209  nElectrons: 121.000000  magneticMoment: [ Abs: 0.26761  Tot: +0.15224 ]
SCF: Cycle:  6   F: -222.205022706658752   dF: -5.797e-04   |Residual|: 9.086e-03   |deigs|: 6.879e-03  t[s]:    416.42
	FillingsUpdate:  mu: -0.127288755  nElectrons: 121.000000  magneticMoment: [ Abs: 0.31187  Tot: +0.16765 ]
SCF: Cycle:  7   F: -222.205136414822363   dF: -1.137e-04   |Residual|: 8.791e-03   |deigs|: 7.407e-03  t[s]:    454.77
	FillingsUpdate:  mu: -0.128035057  nElectrons: 121.000000  magneticMoment: [ Abs: 0.29274  Tot: +0.16431 ]
SCF: Cycle:  8   F: -222.205093072499636   dF: +4.334e-05   |Residual|: 7.949e-03   |deigs|: 8.180e-04  t[s]:    493.21
	FillingsUpdate:  mu: -0.120764347  nElectrons: 121.000000  magneticMoment: [ Abs: 0.26452  Tot: +0.17687 ]
SCF: Cycle:  9   F: -222.205286236268421   dF: -1.932e-04   |Residual|: 6.786e-03   |deigs|: 7.682e-03  t[s]:    531.88
	FillingsUpdate:  mu: -0.114562412  nElectrons: 121.000000  magneticMoment: [ Abs: 0.24318  Tot: +0.18639 ]
SCF: Cycle: 10   F: -222.205301854291520   dF: -1.562e-05   |Residual|: 5.227e-03   |deigs|: 5.949e-03  t[s]:    570.73
	FillingsUpdate:  mu: -0.106742413  nElectrons: 121.000000  magneticMoment: [ Abs: 0.24666  Tot: +0.19435 ]
SCF: Cycle: 11   F: -222.205385121655212   dF: -8.327e-05   |Residual|: 4.784e-03   |deigs|: 7.474e-03  t[s]:    609.31
	FillingsUpdate:  mu: -0.098563988  nElectrons: 121.000000  magneticMoment: [ Abs: 0.26119  Tot: +0.19937 ]
SCF: Cycle: 12   F: -222.205555463606061   dF: -1.703e-04   |Residual|: 4.162e-03   |deigs|: 7.669e-03  t[s]:    648.12
	FillingsUpdate:  mu: -0.091052425  nElectrons: 121.000000  magneticMoment: [ Abs: 0.27189  Tot: +0.20095 ]
SCF: Cycle: 13   F: -222.205747931878392   dF: -1.925e-04   |Residual|: 4.713e-03   |deigs|: 6.584e-03  t[s]:    686.95
	FillingsUpdate:  mu: -0.083182366  nElectrons: 121.000000  magneticMoment: [ Abs: 0.25634  Tot: +0.19601 ]
SCF: Cycle: 14   F: -222.205970480419808   dF: -2.225e-04   |Residual|: 3.791e-03   |deigs|: 6.574e-03  t[s]:    725.61
	FillingsUpdate:  mu: -0.077229334  nElectrons: 121.000000  magneticMoment: [ Abs: 0.24695  Tot: +0.19149 ]
SCF: Cycle: 15   F: -222.206122557320839   dF: -1.521e-04   |Residual|: 3.362e-03   |deigs|: 4.928e-03  t[s]:    764.56
	FillingsUpdate:  mu: -0.071767107  nElectrons: 121.000000  magneticMoment: [ Abs: 0.24660  Tot: +0.18638 ]
SCF: Cycle: 16   F: -222.206213555498152   dF: -9.100e-05   |Residual|: 2.630e-03   |deigs|: 4.631e-03  t[s]:    803.32
	FillingsUpdate:  mu: -0.069427583  nElectrons: 121.000000  magneticMoment: [ Abs: 0.23395  Tot: +0.18291 ]
SCF: Cycle: 17   F: -222.206224244292457   dF: -1.069e-05   |Residual|: 1.848e-03   |deigs|: 2.050e-03  t[s]:    842.11
	FillingsUpdate:  mu: -0.067905675  nElectrons: 121.000000  magneticMoment: [ Abs: 0.22940  Tot: +0.18111 ]
SCF: Cycle: 18   F: -222.206222758455112   dF: +1.486e-06   |Residual|: 9.641e-04   |deigs|: 1.808e-03  t[s]:    880.85
	FillingsUpdate:  mu: -0.067382837  nElectrons: 121.000000  magneticMoment: [ Abs: 0.22849  Tot: +0.18028 ]
SCF: Cycle: 19   F: -222.206222811126736   dF: -5.267e-08   |Residual|: 4.665e-04   |deigs|: 9.698e-04  t[s]:    919.44
	FillingsUpdate:  mu: -0.067287236  nElectrons: 121.000000  magneticMoment: [ Abs: 0.22793  Tot: +0.17996 ]
SCF: Cycle: 20   F: -222.206223572878542   dF: -7.618e-07   |Residual|: 3.897e-04   |deigs|: 5.451e-04  t[s]:    958.20
	FillingsUpdate:  mu: -0.067346447  nElectrons: 121.000000  magneticMoment: [ Abs: 0.22734  Tot: +0.17957 ]
SCF: Cycle: 21   F: -222.206223845095110   dF: -2.722e-07   |Residual|: 3.531e-04   |deigs|: 1.981e-04  t[s]:    997.00
	FillingsUpdate:  mu: -0.067455098  nElectrons: 121.000000  magneticMoment: [ Abs: 0.22685  Tot: +0.17923 ]
SCF: Cycle: 22   F: -222.206224065276388   dF: -2.202e-07   |Residual|: 3.078e-04   |deigs|: 6.533e-04  t[s]:   1035.81
	FillingsUpdate:  mu: -0.067615138  nElectrons: 121.000000  magneticMoment: [ Abs: 0.22608  Tot: +0.17864 ]
SCF: Cycle: 23   F: -222.206224124061521   dF: -5.879e-08   |Residual|: 2.205e-04   |deigs|: 4.682e-04  t[s]:   1074.35
	FillingsUpdate:  mu: -0.067670072  nElectrons: 121.000000  magneticMoment: [ Abs: 0.22518  Tot: +0.17796 ]
SCF: Cycle: 24   F: -222.206224144701395   dF: -2.064e-08   |Residual|: 1.595e-04   |deigs|: 2.000e-04  t[s]:   1112.92
	FillingsUpdate:  mu: -0.067723569  nElectrons: 121.000000  magneticMoment: [ Abs: 0.22490  Tot: +0.17778 ]
SCF: Cycle: 25   F: -222.206224143089003   dF: +1.612e-09   |Residual|: 1.586e-04   |deigs|: 7.015e-05  t[s]:   1151.47
	FillingsUpdate:  mu: -0.067749461  nElectrons: 121.000000  magneticMoment: [ Abs: 0.22482  Tot: +0.17772 ]
SCF: Cycle: 26   F: -222.206224140117342   dF: +2.972e-09   |Residual|: 1.576e-04   |deigs|: 5.747e-05  t[s]:   1190.09
	FillingsUpdate:  mu: -0.067708915  nElectrons: 121.000000  magneticMoment: [ Abs: 0.22476  Tot: +0.17773 ]
SCF: Cycle: 27   F: -222.206224140346734   dF: -2.294e-10   |Residual|: 1.617e-04   |deigs|: 1.500e-04  t[s]:   1228.86
	FillingsUpdate:  mu: -0.067719993  nElectrons: 121.000000  magneticMoment: [ Abs: 0.22518  Tot: +0.17791 ]
SCF: Cycle: 28   F: -222.206224138525727   dF: +1.821e-09   |Residual|: 1.553e-04   |deigs|: 4.631e-04  t[s]:   1267.41
	FillingsUpdate:  mu: -0.067788704  nElectrons: 121.000000  magneticMoment: [ Abs: 0.22483  Tot: +0.17757 ]
SCF: Cycle: 29   F: -222.206224129656533   dF: +8.869e-09   |Residual|: 1.574e-04   |deigs|: 3.190e-04  t[s]:   1305.83
	FillingsUpdate:  mu: -0.067712191  nElectrons: 121.000000  magneticMoment: [ Abs: 0.22532  Tot: +0.17807 ]
SCF: Cycle: 30   F: -222.206224139916088   dF: -1.026e-08   |Residual|: 1.530e-04   |deigs|: 3.528e-04  t[s]:   1344.50
	FillingsUpdate:  mu: -0.067666156  nElectrons: 121.000000  magneticMoment: [ Abs: 0.22589  Tot: +0.17850 ]
SCF: Cycle: 31   F: -222.206224155057328   dF: -1.514e-08   |Residual|: 1.519e-04   |deigs|: 1.776e-04  t[s]:   1383.22
	FillingsUpdate:  mu: -0.067600173  nElectrons: 121.000000  magneticMoment: [ Abs: 0.22718  Tot: +0.17958 ]
SCF: Cycle: 32   F: -222.206224250596705   dF: -9.554e-08   |Residual|: 2.442e-04   |deigs|: 9.444e-05  t[s]:   1421.62
	FillingsUpdate:  mu: -0.067604150  nElectrons: 121.000000  magneticMoment: [ Abs: 0.22572  Tot: +0.17837 ]
SCF: Cycle: 33   F: -222.206224158036292   dF: +9.256e-08   |Residual|: 1.416e-04   |deigs|: 2.416e-04  t[s]:   1460.26
	FillingsUpdate:  mu: -0.067582444  nElectrons: 121.000000  magneticMoment: [ Abs: 0.22466  Tot: +0.17755 ]
SCF: Cycle: 34   F: -222.206224145640334   dF: +1.240e-08   |Residual|: 1.507e-04   |deigs|: 5.482e-05  t[s]:   1499.49
	FillingsUpdate:  mu: -0.067580604  nElectrons: 121.000000  magneticMoment: [ Abs: 0.22318  Tot: +0.17636 ]
SCF: Cycle: 35   F: -222.206224133101074   dF: +1.254e-08   |Residual|: 1.914e-04   |deigs|: 4.461e-05  t[s]:   1538.50
	FillingsUpdate:  mu: -0.067577577  nElectrons: 121.000000  magneticMoment: [ Abs: 0.22467  Tot: +0.17758 ]
SCF: Cycle: 36   F: -222.206224145737423   dF: -1.264e-08   |Residual|: 1.477e-04   |deigs|: 2.395e-05  t[s]:   1577.14
	FillingsUpdate:  mu: -0.067557266  nElectrons: 121.000000  magneticMoment: [ Abs: 0.22673  Tot: +0.17944 ]
SCF: Cycle: 37   F: -222.206224216637366   dF: -7.090e-08   |Residual|: 1.979e-04   |deigs|: 5.391e-05  t[s]:   1615.70
	FillingsUpdate:  mu: -0.067555496  nElectrons: 121.000000  magneticMoment: [ Abs: 0.22871  Tot: +0.18112 ]
SCF: Cycle: 38   F: -222.206224887918779   dF: -6.713e-07   |Residual|: 6.516e-04   |deigs|: 5.087e-05  t[s]:   1654.27
	FillingsUpdate:  mu: -0.067546662  nElectrons: 121.000000  magneticMoment: [ Abs: 0.22572  Tot: +0.17871 ]
SCF: Cycle: 39   F: -222.206224171309316   dF: +7.166e-07   |Residual|: 1.443e-04   |deigs|: 4.990e-05  t[s]:   1692.94
	FillingsUpdate:  mu: -0.067546965  nElectrons: 121.000000  magneticMoment: [ Abs: 0.22522  Tot: +0.17822 ]
SCF: Cycle: 40   F: -222.206224158994360   dF: +1.231e-08   |Residual|: 1.371e-04   |deigs|: 2.104e-05  t[s]:   1730.61
	FillingsUpdate:  mu: -0.067548477  nElectrons: 121.000000  magneticMoment: [ Abs: 0.22458  Tot: +0.17768 ]
SCF: Cycle: 41   F: -222.206224149923770   dF: +9.071e-09   |Residual|: 1.436e-04   |deigs|: 1.918e-05  t[s]:   1769.18
	FillingsUpdate:  mu: -0.067549609  nElectrons: 121.000000  magneticMoment: [ Abs: 0.22385  Tot: +0.17710 ]
SCF: Cycle: 42   F: -222.206224142841450   dF: +7.082e-09   |Residual|: 1.604e-04   |deigs|: 1.728e-05  t[s]:   1807.74
	FillingsUpdate:  mu: -0.067552617  nElectrons: 121.000000  magneticMoment: [ Abs: 0.22282  Tot: +0.17627 ]
SCF: Cycle: 43   F: -222.206224134688966   dF: +8.152e-09   |Residual|: 1.921e-04   |deigs|: 1.521e-05  t[s]:   1846.51
	FillingsUpdate:  mu: -0.067553769  nElectrons: 121.000000  magneticMoment: [ Abs: 0.22298  Tot: +0.17639 ]
SCF: Cycle: 44   F: -222.206224135712461   dF: -1.023e-09   |Residual|: 1.864e-04   |deigs|: 1.229e-05  t[s]:   1884.05
	FillingsUpdate:  mu: -0.067553074  nElectrons: 121.000000  magneticMoment: [ Abs: 0.22297  Tot: +0.17638 ]
SCF: Cycle: 45   F: -222.206224135562309   dF: +1.502e-10   |Residual|: 1.869e-04   |deigs|: 9.624e-06  t[s]:   1918.37
	FillingsUpdate:  mu: -0.067553421  nElectrons: 121.000000  magneticMoment: [ Abs: 0.22296  Tot: +0.17637 ]
SCF: Cycle: 46   F: -222.206224135503987   dF: +5.832e-11   |Residual|: 1.872e-04   |deigs|: 9.377e-06  t[s]:   1947.38
	FillingsUpdate:  mu: -0.067554880  nElectrons: 121.000000  magneticMoment: [ Abs: 0.22289  Tot: +0.17630 ]
SCF: Cycle: 47   F: -222.206224134697464   dF: +8.065e-10   |Residual|: 1.892e-04   |deigs|: 9.611e-06  t[s]:   1981.81
	FillingsUpdate:  mu: -0.067549736  nElectrons: 121.000000  magneticMoment: [ Abs: 0.22379  Tot: +0.17708 ]
SCF: Cycle: 48   F: -222.206224140556657   dF: -5.859e-09   |Residual|: 1.579e-04   |deigs|: 1.033e-05  t[s]:   2020.43
	FillingsUpdate:  mu: -0.067534132  nElectrons: 121.000000  magneticMoment: [ Abs: 0.22839  Tot: +0.18077 ]
SCF: Cycle: 49   F: -222.206224478226233   dF: -3.377e-07   |Residual|: 4.037e-04   |deigs|: 3.754e-05  t[s]:   2058.90
	FillingsUpdate:  mu: -0.067559069  nElectrons: 121.000000  magneticMoment: [ Abs: 0.22229  Tot: +0.17582 ]
SCF: Cycle: 50   F: -222.206224129928813   dF: +3.483e-07   |Residual|: 2.098e-04   |deigs|: 4.233e-05  t[s]:   2097.34
	FillingsUpdate:  mu: -0.067566819  nElectrons: 121.000000  magneticMoment: [ Abs: 0.22110  Tot: +0.17480 ]
SCF: Cycle: 51   F: -222.206224121229099   dF: +8.700e-09   |Residual|: 2.537e-04   |deigs|: 8.478e-06  t[s]:   2135.84
	FillingsUpdate:  mu: -0.067567947  nElectrons: 121.000000  magneticMoment: [ Abs: 0.22024  Tot: +0.17408 ]
SCF: Cycle: 52   F: -222.206224120401345   dF: +8.278e-10   |Residual|: 2.926e-04   |deigs|: 7.331e-06  t[s]:   2174.49
	FillingsUpdate:  mu: -0.067560510  nElectrons: 121.000000  magneticMoment: [ Abs: 0.22052  Tot: +0.17441 ]
SCF: Cycle: 53   F: -222.206224123616181   dF: -3.215e-09   |Residual|: 2.802e-04   |deigs|: 1.612e-05  t[s]:   2212.92
	FillingsUpdate:  mu: -0.067566136  nElectrons: 121.000000  magneticMoment: [ Abs: 0.22091  Tot: +0.17473 ]
SCF: Cycle: 54   F: -222.206224122970980   dF: +6.452e-10   |Residual|: 2.615e-04   |deigs|: 1.363e-05  t[s]:   2251.19
	FillingsUpdate:  mu: -0.067565890  nElectrons: 121.000000  magneticMoment: [ Abs: 0.22068  Tot: +0.17452 ]
SCF: Cycle: 55   F: -222.206224120495335   dF: +2.476e-09   |Residual|: 2.689e-04   |deigs|: 7.158e-06  t[s]:   2289.65
	FillingsUpdate:  mu: -0.067563852  nElectrons: 121.000000  magneticMoment: [ Abs: 0.22124  Tot: +0.17500 ]
SCF: Cycle: 56   F: -222.206224122993433   dF: -2.498e-09   |Residual|: 2.460e-04   |deigs|: 6.739e-06  t[s]:   2326.56
	FillingsUpdate:  mu: -0.067563843  nElectrons: 121.000000  magneticMoment: [ Abs: 0.22141  Tot: +0.17513 ]
SCF: Cycle: 57   F: -222.206224125534476   dF: -2.541e-09   |Residual|: 2.415e-04   |deigs|: 9.138e-06  t[s]:   2365.16
SCF: Converged (|Delta E|<1.000000e-08 for 2 iters).


Computing DFT-D3 correction:
# coordination-number N 3.229 3.229 4.134 3.229 4.134 3.159 3.159 4.134 3.229 4.134 4.134 3.229 3.229 4.134
# coordination-number B 4.344 3.471 3.471 3.471 3.471 4.344 4.344 4.344 3.471 3.471 4.344 4.344 3.371 3.371
# coordination-number Na 13.278
# diagonal-C6 N 15.59 15.59 15.58 15.59 15.58 15.60 15.60 15.58 15.59 15.58 15.58 15.59 15.59 15.58
# diagonal-C6 B 28.03 31.37 31.37 31.37 31.37 28.03 28.03 28.03 31.37 31.37 28.03 28.03 31.43 31.43
# diagonal-C6 Na 186.11
EvdW_6 =   -0.045070
EvdW_8 =   -0.040487

# Ionic positions in lattice coordinates:
ion N   0.952380952379803   0.761904761902463   0.000000000000000 0
ion N   1.428571428570279   1.285714285711987   0.154000000000000 0
ion N   0.380952380951232   0.904761904759606   0.000000000000000 0
ion N   0.714285714284565   1.142857142854844   0.154000000000000 0
ion N   0.523809523808374   0.619047619045320   0.000000000000000 0
ion N   0.999999999998850   0.999999999997701   0.154000000000000 0
ion N   0.666666666665517   0.333333333331034   0.000000000000000 0
ion N   1.285714285713136   0.857142857140558   0.154000000000000 0
ion N   0.809523809522660   0.047619047616749   0.000000000000000 0
ion N   1.571428571427422   0.714285714283415   0.154000000000000 0
ion N   0.095238095236946   0.476190476188177   0.000000000000000 0
ion N   0.238095238094089   0.190476190473892   0.000000000000000 0
ion N   0.857142857141708   0.571428571426273   0.154000000000000 0
ion N   1.142857142855993   0.428571428569130   0.154000000000000 0
ion B   0.571428571427422   0.857142857140558   0.000000000000000 0
ion B   0.952380952379803   1.190476190473892   0.154000000000000 0
ion B   0.714285714284565   0.571428571426273   0.000000000000000 0
ion B   1.238095238094089   1.047619047616749   0.154000000000000 0
ion B   0.857142857141708   0.285714285711987   0.000000000000000 0
ion B   1.523809523808374   0.904761904759606   0.154000000000000 0
ion B   0.142857142855993   0.714285714283415   0.000000000000000 0
ion B   0.285714285713136   0.428571428569130   0.000000000000000 0
ion B   0.809523809522660   0.761904761902463   0.154000000000000 0
ion B   0.428571428570279   0.142857142854844   0.000000000000000 0
ion B   1.095238095236946   0.619047619045320   0.154000000000000 0
ion B   1.380952380951231   0.476190476188177   0.154000000000000 0
ion B  -0.000000000001149  -0.000000000002299   0.000000000000000 0
ion B   0.666666666665517   0.333333333331034   0.154000000000000 0
ion Na   0.333333333332184   0.666666666664368   0.077000000000000 0

# Forces in Lattice coordinates:
force N  -0.013675569881315  -0.005047549774963  -0.047210723112963 0
force N  -0.005047549774962  -0.013675569881316   0.047210723112849 0
force N  -0.058103992239950   0.060866222611512  -0.329505016949779 0
force N   0.018723119656278  -0.005047549774963   0.047210723112849 0
force N   0.060866222611512  -0.002762230371560  -0.329505016949779 0
force N   0.000000000000000   0.000000000000000   0.027826549094678 0
force N   0.000000000000000   0.000000000000000  -0.027826549094678 0
force N  -0.002762230371560   0.060866222611515   0.329505016949779 0
force N  -0.005047549774962   0.018723119656278  -0.047210723112849 0
force N   0.060866222611512  -0.058103992239950   0.329505016949779 0
force N  -0.002762230371560  -0.058103992239951  -0.329505016949893 0
force N   0.018723119656278  -0.013675569881314  -0.047210723112849 0
force N  -0.013675569881316   0.018723119656278   0.047210723112849 0
force N  -0.058103992239950  -0.002762230371562   0.329505016949779 0
force B   0.246844689944699   0.104499714614138  -1.031636824210113 0
force B  -0.034429747181081  -0.018511064987185  -0.030445374688409 0
force B   0.052940812168266  -0.018511064987185   0.030445374688409 0
force B  -0.018511064987185   0.052940812168266  -0.030445374688579 0
force B  -0.018511064987184  -0.034429747181081   0.030445374688523 0
force B   0.104499714614138   0.246844689944700   1.031636824210113 0
force B  -0.351344404558837   0.246844689944699  -1.031636824210000 0
force B   0.104499714614138  -0.351344404558837  -1.031636824210113 0
force B   0.052940812168267  -0.034429747181082  -0.030445374688409 0
force B  -0.034429747181082   0.052940812168266   0.030445374688523 0
force B  -0.351344404558839   0.104499714614138   1.031636824210000 0
force B   0.246844689944700  -0.351344404558839   1.031636824210113 0
force B   0.000000000000000   0.000000000000000  -0.009781540554352 0
force B   0.000000000000000   0.000000000000000   0.009781540554352 0
force Na   0.000000000000000   0.000000000000000   0.000000000000000 0

# Energy components:
   Eewald =    -1334.9069460037926547
       EH =    -1160.4091264618646164
     Eloc =     2202.7292512560729847
      Enl =      -21.6069258547267147
   Epulay =       -0.0000190610708103
     EvdW =       -0.0855570610841412
      Exc =      -58.1361458331860419
       KE =      150.2092452701848799
-------------------------------------
     Etot =     -222.2062237494671706
       TS =        0.0000003760672919
-------------------------------------
        F =     -222.2062241255344759

IonicMinimize: Iter:   0  F: -222.206224125534476  |grad|_K:  0.000e+00  t[s]:   2369.18
IonicMinimize: Converged (|grad|_K<1.000000e-04).

#--- Lowdin population analysis ---
# oxidation-state N -0.354 -0.354 -0.385 -0.354 -0.385 -0.369 -0.369 -0.385 -0.354 -0.385 -0.385 -0.354 -0.354 -0.385
# magnetic-moments N -0.002 -0.002 -0.003 -0.002 -0.003 +0.001 +0.001 -0.003 -0.002 -0.003 -0.003 -0.002 -0.002 -0.003
# oxidation-state B +0.304 +0.414 +0.414 +0.414 +0.414 +0.304 +0.304 +0.304 +0.414 +0.414 +0.304 +0.304 +0.425 +0.425
# magnetic-moments B +0.023 +0.009 +0.009 +0.009 +0.009 +0.023 +0.023 +0.023 +0.009 +0.009 +0.023 +0.023 +0.004 +0.004
# oxidation-state Na +0.911
# magnetic-moments Na +0.001


Dumping 'Na-0.154.fillings' ... done
Dumping 'Na-0.154.wfns' ... done
Dumping 'Na-0.154.n_up' ... done
Dumping 'Na-0.154.n_dn' ... done
Dumping 'Na-0.154.eigenvals' ... done
End date and time: Wed Jan 19 20:26:01 2022  (Duration: 0-0:39:32.00)
Done!
