Second Layer Distance is 0.319

--------------------------------------------------------------------------
The library attempted to open the following supporting CUDA libraries,
but each of them failed.  CUDA-aware support is disabled.
libcuda.so.1: cannot open shared object file: No such file or directory
libcuda.dylib: cannot open shared object file: No such file or directory
/usr/lib64/libcuda.so.1: cannot open shared object file: No such file or directory
/usr/lib64/libcuda.dylib: cannot open shared object file: No such file or directory
If you are not interested in CUDA-aware support, then run with
--mca opal_warn_on_missing_libcuda 0 to suppress this message.  If you are interested
in CUDA-aware support, then try setting LD_LIBRARY_PATH to the location
of libcuda.so.1 to get passed this issue.
--------------------------------------------------------------------------
--------------------------------------------------------------------------
No OpenFabrics connection schemes reported that they were able to be
used on a specific port.  As such, the openib BTL (OpenFabrics
support) will be disabled for this port.

  Local host:           d-3-1-3
  Local device:         mlx5_1
  Local port:           1
  CPCs attempted:       rdmacm, udcm
--------------------------------------------------------------------------

*************** JDFTx 1.6.0 (git hash 42ebbcc2) ***************

Start date and time: Mon Jan 24 05:38:46 2022
Executable jdftx with command-line: -i Moire.bands.in
Running on hosts (process indices):  d-3-1-3 (0-47)  d-3-1-4 (48-57)
Divided in process groups (process indices):  0 (0)  1 (1)  2 (2)  3 (3)  4 (4)  5 (5)  6 (6)  7 (7)  8 (8)  9 (9)  10 (10)  11 (11)  12 (12)  13 (13)  14 (14)  15 (15)  16 (16)  17 (17)  18 (18)  19 (19)  20 (20)  21 (21)  22 (22)  23 (23)  24 (24)  25 (25)  26 (26)  27 (27)  28 (28)  29 (29)  30 (30)  31 (31)  32 (32)  33 (33)  34 (34)  35 (35)  36 (36)  37 (37)  38 (38)  39 (39)  40 (40)  41 (41)  42 (42)  43 (43)  44 (44)  45 (45)  46 (46)  47 (47)  48 (48)  49 (49)  50 (50)  51 (51)  52 (52)  53 (53)  54 (54)  55 (55)  56 (56)  57 (57)
Resource initialization completed at t[s]:      0.05
Run totals: 58 processes, 96 threads, 0 GPUs


Input parsed successfully to the following command list (including defaults):

basis kpoint-dependent
coords-type Lattice
core-overlap-check vector
coulomb-interaction Slab 001
davidson-band-ratio 1.1
dump End BandEigs
dump-name Na-bands-0.319.$VAR
elec-cutoff 20
elec-eigen-algo Davidson
elec-ex-corr gga-PBE
elec-initial-magnetization 0.100000 no
elec-smearing Fermi 1e-05
electronic-minimize  \
	dirUpdateScheme      FletcherReeves \
	linminMethod         DirUpdateRecommended \
	nIterations          10000 \
	history              15 \
	knormThreshold       0 \
	energyDiffThreshold  1e-08 \
	nEnergyDiff          2 \
	alphaTstart          1 \
	alphaTmin            1e-10 \
	updateTestStepSize   yes \
	alphaTreduceFactor   0.1 \
	alphaTincreaseFactor 3 \
	nAlphaAdjustMax      3 \
	wolfeEnergy          0.0001 \
	wolfeGradient        0.9 \
	fdTest               no
exchange-regularization WignerSeitzTruncated
fix-electron-density Na-0.319.$VAR
fluid None
fluid-ex-corr (null) lda-PZ
fluid-gummel-loop 10 1.000000e-05
fluid-minimize  \
	dirUpdateScheme      PolakRibiere \
	linminMethod         DirUpdateRecommended \
	nIterations          100 \
	history              15 \
	knormThreshold       0 \
	energyDiffThreshold  0 \
	nEnergyDiff          2 \
	alphaTstart          1 \
	alphaTmin            1e-10 \
	updateTestStepSize   yes \
	alphaTreduceFactor   0.1 \
	alphaTincreaseFactor 3 \
	nAlphaAdjustMax      3 \
	wolfeEnergy          0.0001 \
	wolfeGradient        0.9 \
	fdTest               no
fluid-solvent H2O 55.338 ScalarEOS \
	epsBulk 78.4 \
	pMol 0.92466 \
	epsInf 1.77 \
	Pvap 1.06736e-10 \
	sigmaBulk 4.62e-05 \
	Rvdw 2.61727 \
	Res 1.42 \
	tauNuc 343133 \
	poleEl 15 7 1
forces-output-coords Positions
ion N   0.952380952380952   0.761904761904762   0.000000000000000 0
ion N   1.428571428571428   1.285714285714286   0.319000000000000 0
ion N   0.380952380952381   0.904761904761905   0.000000000000000 0
ion N   0.714285714285714   1.142857142857143   0.319000000000000 0
ion N   0.523809523809524   0.619047619047619   0.000000000000000 0
ion N   1.000000000000000   1.000000000000000   0.319000000000000 0
ion N   0.666666666666667   0.333333333333333   0.000000000000000 0
ion N   1.285714285714286   0.857142857142857   0.319000000000000 0
ion N   0.809523809523810   0.047619047619048   0.000000000000000 0
ion N   1.571428571428571   0.714285714285714   0.319000000000000 0
ion N   0.095238095238095   0.476190476190476   0.000000000000000 0
ion N   0.238095238095238   0.190476190476190   0.000000000000000 0
ion N   0.857142857142857   0.571428571428571   0.319000000000000 0
ion N   1.142857142857143   0.428571428571429   0.319000000000000 0
ion B   0.571428571428572   0.857142857142857   0.000000000000000 0
ion B   0.952380952380952   1.190476190476190   0.319000000000000 0
ion B   0.714285714285714   0.571428571428571   0.000000000000000 0
ion B   1.238095238095238   1.047619047619047   0.319000000000000 0
ion B   0.857142857142857   0.285714285714286   0.000000000000000 0
ion B   1.523809523809524   0.904761904761905   0.319000000000000 0
ion B   0.142857142857143   0.714285714285714   0.000000000000000 0
ion B   0.285714285714286   0.428571428571429   0.000000000000000 0
ion B   0.809523809523810   0.761904761904762   0.319000000000000 0
ion B   0.428571428571429   0.142857142857143   0.000000000000000 0
ion B   1.095238095238095   0.619047619047619   0.319000000000000 0
ion B   1.380952380952381   0.476190476190476   0.319000000000000 0
ion B   0.000000000000000   0.000000000000000   0.000000000000000 0
ion B   0.666666666666667   0.333333333333333   0.319000000000000 0
ion Na   0.333333333300000   0.666666666600000   0.159500000000000 0
ion-species SG15/$ID_ONCV_PBE.upf
ion-width 0
ionic-minimize  \
	dirUpdateScheme      L-BFGS \
	linminMethod         DirUpdateRecommended \
	nIterations          0 \
	history              15 \
	knormThreshold       0.0001 \
	energyDiffThreshold  1e-06 \
	nEnergyDiff          2 \
	alphaTstart          1 \
	alphaTmin            1e-10 \
	updateTestStepSize   yes \
	alphaTreduceFactor   0.1 \
	alphaTincreaseFactor 3 \
	nAlphaAdjustMax      3 \
	wolfeEnergy          0.0001 \
	wolfeGradient        0.9 \
	fdTest               no
kpoint   0.000000000000   0.000000000000   0.000000000000  0.01785714285714
kpoint   0.029411764706   0.000000000000   0.000000000000  0.01785714285714
kpoint   0.058823529412   0.000000000000   0.000000000000  0.01785714285714
kpoint   0.088235294118   0.000000000000   0.000000000000  0.01785714285714
kpoint   0.117647058824   0.000000000000   0.000000000000  0.01785714285714
kpoint   0.147058823529   0.000000000000   0.000000000000  0.01785714285714
kpoint   0.176470588235   0.000000000000   0.000000000000  0.01785714285714
kpoint   0.205882352941   0.000000000000   0.000000000000  0.01785714285714
kpoint   0.235294117647   0.000000000000   0.000000000000  0.01785714285714
kpoint   0.264705882353   0.000000000000   0.000000000000  0.01785714285714
kpoint   0.294117647059   0.000000000000   0.000000000000  0.01785714285714
kpoint   0.323529411765   0.000000000000   0.000000000000  0.01785714285714
kpoint   0.352941176471   0.000000000000   0.000000000000  0.01785714285714
kpoint   0.382352941176   0.000000000000   0.000000000000  0.01785714285714
kpoint   0.411764705882   0.000000000000   0.000000000000  0.01785714285714
kpoint   0.441176470588   0.000000000000   0.000000000000  0.01785714285714
kpoint   0.470588235294   0.000000000000   0.000000000000  0.01785714285714
kpoint   0.500000000000   0.000000000000   0.000000000000  0.01785714285714
kpoint   0.512820512769  -0.025641025385   0.000000000000  0.01785714285714
kpoint   0.525641025538  -0.051282050769   0.000000000000  0.01785714285714
kpoint   0.538461538308  -0.076923076154   0.000000000000  0.01785714285714
kpoint   0.551282051077  -0.102564101538   0.000000000000  0.01785714285714
kpoint   0.564102563846  -0.128205126923   0.000000000000  0.01785714285714
kpoint   0.576923076615  -0.153846152308   0.000000000000  0.01785714285714
kpoint   0.589743589385  -0.179487177692   0.000000000000  0.01785714285714
kpoint   0.602564102154  -0.205128203077   0.000000000000  0.01785714285714
kpoint   0.615384614923  -0.230769228462   0.000000000000  0.01785714285714
kpoint   0.628205127692  -0.256410253846   0.000000000000  0.01785714285714
kpoint   0.641025640462  -0.282051279231   0.000000000000  0.01785714285714
kpoint   0.653846153231  -0.307692304615   0.000000000000  0.01785714285714
kpoint   0.666666666000  -0.333333330000   0.000000000000  0.01785714285714
kpoint   0.639999999360  -0.319999996800   0.000000000000  0.01785714285714
kpoint   0.613333332720  -0.306666663600   0.000000000000  0.01785714285714
kpoint   0.586666666080  -0.293333330400   0.000000000000  0.01785714285714
kpoint   0.559999999440  -0.279999997200   0.000000000000  0.01785714285714
kpoint   0.533333332800  -0.266666664000   0.000000000000  0.01785714285714
kpoint   0.506666666160  -0.253333330800   0.000000000000  0.01785714285714
kpoint   0.479999999520  -0.239999997600   0.000000000000  0.01785714285714
kpoint   0.453333332880  -0.226666664400   0.000000000000  0.01785714285714
kpoint   0.426666666240  -0.213333331200   0.000000000000  0.01785714285714
kpoint   0.399999999600  -0.199999998000   0.000000000000  0.01785714285714
kpoint   0.373333332960  -0.186666664800   0.000000000000  0.01785714285714
kpoint   0.346666666320  -0.173333331600   0.000000000000  0.01785714285714
kpoint   0.319999999680  -0.159999998400   0.000000000000  0.01785714285714
kpoint   0.293333333040  -0.146666665200   0.000000000000  0.01785714285714
kpoint   0.266666666400  -0.133333332000   0.000000000000  0.01785714285714
kpoint   0.239999999760  -0.119999998800   0.000000000000  0.01785714285714
kpoint   0.213333333120  -0.106666665600   0.000000000000  0.01785714285714
kpoint   0.186666666480  -0.093333332400   0.000000000000  0.01785714285714
kpoint   0.159999999840  -0.079999999200   0.000000000000  0.01785714285714
kpoint   0.133333333200  -0.066666666000   0.000000000000  0.01785714285714
kpoint   0.106666666560  -0.053333332800   0.000000000000  0.01785714285714
kpoint   0.079999999920  -0.039999999600   0.000000000000  0.01785714285714
kpoint   0.053333333280  -0.026666666400   0.000000000000  0.01785714285714
kpoint   0.026666666640  -0.013333333200   0.000000000000  0.01785714285714
kpoint   0.000000000000   0.000000000000   0.000000000000  0.01785714285714
kpoint-folding 1 1 1 
latt-move-scale 1 1 1
latt-scale 1 1 1 
lattice  \
	 -11.818700000000000    2.363740000000000    0.000000000000000  \
	   4.094120000000000  -12.282400000000001    0.000000000000000  \
	   0.000000000000000    0.000000000000000   40.000000000000000 
lattice-minimize  \
	dirUpdateScheme      L-BFGS \
	linminMethod         DirUpdateRecommended \
	nIterations          0 \
	history              15 \
	knormThreshold       0 \
	energyDiffThreshold  1e-06 \
	nEnergyDiff          2 \
	alphaTstart          1 \
	alphaTmin            1e-10 \
	updateTestStepSize   yes \
	alphaTreduceFactor   0.1 \
	alphaTincreaseFactor 3 \
	nAlphaAdjustMax      3 \
	wolfeEnergy          0.0001 \
	wolfeGradient        0.9 \
	fdTest               no
lcao-params -1 1e-06 1e-05
pcm-variant GLSSA13
spintype z-spin
subspace-rotation-factor 1 yes
symmetries none
symmetry-threshold 0.0001
van-der-waals D3


Applied RMS atom displacement 0 bohrs to make symmetries exact.

---------- Initializing the Grid ----------
R = 
[     -11.8187      2.36374            0  ]
[      4.09412     -12.2824            0  ]
[            0            0           40  ]
unit cell volume = 5419.38
G =
[  -0.569604   -0.10962          0  ]
[  -0.189867    -0.5481          0  ]
[          0          0    0.15708  ]
Minimum fftbox size, Smin = [  52  52  164  ]
Chosen fftbox size, S = [  54  54  168  ]

---------- Exchange Correlation functional ----------
Initalized PBE GGA exchange.
Initalized PBE GGA correlation.

---------- Setting up pseudopotentials ----------
Width of ionic core gaussian charges (only for fluid interactions / plotting) set to 0

Reading pseudopotential file '/home/gridsan/aligho/DFT/build-Nov24/pseudopotentials/SG15/N_ONCV_PBE.upf':
  'N' pseudopotential, 'PBE' functional
  Generated using ONCVPSP code by D. R. Hamann
  Author: Martin Schlipf and Francois Gygi  Date: 150915.
  5 valence electrons, 2 orbitals, 4 projectors, 1058 radial grid points, with lMax = 1
  Transforming local potential to a uniform radial grid of dG=0.02 with 1514 points.
  Transforming nonlocal projectors to a uniform radial grid of dG=0.02 with 432 points.
    2S    l: 0   occupation:  2.0   eigenvalue: -0.682907
    2P    l: 1   occupation:  3.0   eigenvalue: -0.260548
  Transforming atomic orbitals to a uniform radial grid of dG=0.02 with 432 points.
  Core radius for overlap checks: 1.35 bohrs.
  Reading pulay file /home/gridsan/aligho/DFT/build-Nov24/pseudopotentials/SG15/N_ONCV_PBE.pulay ... using dE_dnG = -2.956256e-02 computed for Ecut = 20.

Reading pseudopotential file '/home/gridsan/aligho/DFT/build-Nov24/pseudopotentials/SG15/B_ONCV_PBE.upf':
  'B' pseudopotential, 'PBE' functional
  Generated using ONCVPSP code by D. R. Hamann
  Author: Martin Schlipf and Francois Gygi  Date: 150915.
  3 valence electrons, 2 orbitals, 4 projectors, 1534 radial grid points, with lMax = 1
  Transforming local potential to a uniform radial grid of dG=0.02 with 1514 points.
  Transforming nonlocal projectors to a uniform radial grid of dG=0.02 with 432 points.
    2S    l: 0   occupation:  2.0   eigenvalue: -0.347027
    2P    l: 1   occupation:  1.0   eigenvalue: -0.132548
  Transforming atomic orbitals to a uniform radial grid of dG=0.02 with 432 points.
  Core radius for overlap checks: 1.60 bohrs.
  Reading pulay file /home/gridsan/aligho/DFT/build-Nov24/pseudopotentials/SG15/B_ONCV_PBE.pulay ... using dE_dnG = -3.748568e-04 computed for Ecut = 20.

Reading pseudopotential file '/home/gridsan/aligho/DFT/build-Nov24/pseudopotentials/SG15/Na_ONCV_PBE.upf':
  'Na' pseudopotential, 'PBE' functional
  Generated using ONCVPSP code by D. R. Hamann
  Author: Martin Schlipf and Francois Gygi  Date: 150915.
  9 valence electrons, 3 orbitals, 4 projectors, 1992 radial grid points, with lMax = 1
  Transforming local potential to a uniform radial grid of dG=0.02 with 1514 points.
  Transforming nonlocal projectors to a uniform radial grid of dG=0.02 with 432 points.
    2S    l: 0   occupation:  2.0   eigenvalue: -2.085640
    2P    l: 1   occupation:  6.0   eigenvalue: -1.053708
    3S    l: 0   occupation:  1.0   eigenvalue: -0.100838
  Transforming atomic orbitals to a uniform radial grid of dG=0.02 with 432 points.
  Core radius for overlap checks: 2.01 bohrs.
  Reading pulay file /home/gridsan/aligho/DFT/build-Nov24/pseudopotentials/SG15/Na_ONCV_PBE.pulay ... using dE_dnG = -2.946487e-03 computed for Ecut = 20.

Initialized 3 species with 29 total atoms.

Folded 56 k-points by 1x1x1 to 56 k-points.

---------- Setting up k-points, bands, fillings ----------
No reducable k-points. 
Computing the number of bands and number of electrons
Calculating initial fillings.
nElectrons: 121.000000   nBands: 117   nStates: 112

----- Setting up reduced wavefunction bases (one per k-point) -----
average nbasis = 23160.018 , ideal nbasis = 23152.016

---------- Setting up coulomb interaction ----------
Initialized slab truncation along lattice direction 001

Initializing DFT-D3 calculator:
	Parameters set for gga-PBE functional
	s6:  1.000  s_r6:  1.217
	s8:  0.722  s_r8:  1.000
	Per-atom parameters loaded for:
	 N:  sqrtQ[a0]:  2.712  Rcov[a0]:  1.342  CN: [ 0.00 0.99 2.01 2.99 ]
	 B:  sqrtQ[a0]:  3.644  Rcov[a0]:  1.455  CN: [ 0.00 0.97 1.94 2.91 4.59 ]
	Na:  sqrtQ[a0]:  6.586  Rcov[a0]:  2.646  CN: [ 0.00 0.97 ]

---------- Setting up 2D ewald sum ----------
Optimum gaussian width for ewald sums = 6.943804 bohr.
Real space sums over 289 unit cells with max indices [  8  8  0  ]
Reciprocal space sums over 81 terms with max indices [  4  4  0  ]

Computing DFT-D3 correction:
# coordination-number N 3.140 3.140 3.160 3.140 3.160 3.139 3.139 3.160 3.140 3.160 3.160 3.140 3.140 3.160
# coordination-number B 3.373 3.345 3.345 3.345 3.345 3.373 3.373 3.373 3.345 3.345 3.373 3.373 3.343 3.343
# coordination-number Na 0.412
# diagonal-C6 N 15.61 15.61 15.60 15.61 15.60 15.61 15.61 15.60 15.61 15.60 15.60 15.61 15.61 15.60
# diagonal-C6 B 31.43 31.44 31.44 31.44 31.44 31.43 31.43 31.43 31.44 31.44 31.43 31.43 31.44 31.44
# diagonal-C6 Na 909.56
EvdW_6 =   -0.031355
EvdW_8 =   -0.029588

---------- Allocating electronic variables ----------
Reading n_up from file 'Na-0.319.n_up' ... done
Reading n_dn from file 'Na-0.319.n_dn' ... done
Initializing wave functions:  linear combination of atomic orbitals
[d-3-1-3:03417] 57 more processes have sent help message help-mpi-common-cuda.txt / dlopen failed
[d-3-1-3:03417] Set MCA parameter "orte_base_help_aggregate" to 0 to see all help / error messages
[d-3-1-3:03417] 57 more processes have sent help message help-mpi-btl-openib-cpc-base.txt / no cpcs for port


---- Citations for features of the code used in this run ----

   Software package:
      R. Sundararaman, K. Letchworth-Weaver, K.A. Schwarz, D. Gunceler, Y. Ozhabes and T.A. Arias, 'JDFTx: software for joint density-functional theory', SoftwareX 6, 278 (2017)

   gga-PBE exchange-correlation functional:
      J.P. Perdew, K. Burke and M. Ernzerhof, Phys. Rev. Lett. 77, 3865 (1996)

   Pseudopotentials:
      M Schlipf and F Gygi, Comput. Phys. Commun. 196, 36 (2015)

   Truncated Coulomb potentials:
      R. Sundararaman and T.A. Arias, Phys. Rev. B 87, 165122 (2013)

   DFT-D3 dispersion correction:
      S. Grimme, J. Antony, S. Ehrlich and H. Krieg, J. Chem. Phys. 132, 154104 (2010)

   Total energy minimization with Auxiliary Hamiltonian:
      C. Freysoldt, S. Boeck, and J. Neugebauer, Phys. Rev. B 79, 241103(R) (2009)

This list may not be complete. Please suggest additional citations or
report any other bugs at https://github.com/shankar1729/jdftx/issues

Initialization completed successfully at t[s]:     17.93


----------- Band structure minimization -------------
Minimization will be done independently for each quantum number.

---- Minimization of quantum number:     0  [ +0.0000000 +0.0000000 +0.0000000 ]  0.017857143  spin +1 ----
BandDavidson: Iter:   0  Eband: -0.218499673596731
BandDavidson: Iter:   1  Eband: -0.346628787860185  dEband: -1.281291e-01  t[s]:     29.50
BandDavidson: Iter:   2  Eband: -0.389761060108618  dEband: -4.313227e-02  t[s]:     36.19
BandDavidson: Iter:   3  Eband: -0.409255726385950  dEband: -1.949467e-02  t[s]:     42.95
BandDavidson: Iter:   4  Eband: -0.422303697781448  dEband: -1.304797e-02  t[s]:     49.67
BandDavidson: Iter:   5  Eband: -0.426927908455129  dEband: -4.624211e-03  t[s]:     56.39
BandDavidson: Iter:   6  Eband: -0.429467101893862  dEband: -2.539193e-03  t[s]:     63.08
BandDavidson: Iter:   7  Eband: -0.430646441773651  dEband: -1.179340e-03  t[s]:     69.78
BandDavidson: Iter:   8  Eband: -0.431294947312568  dEband: -6.485055e-04  t[s]:     76.47
BandDavidson: Iter:   9  Eband: -0.431700239666698  dEband: -4.052924e-04  t[s]:     83.16
BandDavidson: Iter:  10  Eband: -0.431969475981737  dEband: -2.692363e-04  t[s]:     89.86
BandDavidson: Iter:  11  Eband: -0.432322105065305  dEband: -3.526291e-04  t[s]:     96.55
BandDavidson: Iter:  12  Eband: -0.432572630813277  dEband: -2.505257e-04  t[s]:    103.23
BandDavidson: Iter:  13  Eband: -0.432732451257859  dEband: -1.598204e-04  t[s]:    109.78
BandDavidson: Iter:  14  Eband: -0.432841392962413  dEband: -1.089417e-04  t[s]:    116.36
BandDavidson: Iter:  15  Eband: -0.433003811319106  dEband: -1.624184e-04  t[s]:    122.90
BandDavidson: Iter:  16  Eband: -0.433136320439753  dEband: -1.325091e-04  t[s]:    129.44
BandDavidson: Iter:  17  Eband: -0.433227299026510  dEband: -9.097859e-05  t[s]:    135.96
BandDavidson: Iter:  18  Eband: -0.433296927978195  dEband: -6.962895e-05  t[s]:    142.50
BandDavidson: Iter:  19  Eband: -0.433352321149817  dEband: -5.539317e-05  t[s]:    149.07
BandDavidson: Iter:  20  Eband: -0.433398376928460  dEband: -4.605578e-05  t[s]:    155.59
BandDavidson: Iter:  21  Eband: -0.433437827381068  dEband: -3.945045e-05  t[s]:    162.02
BandDavidson: Iter:  22  Eband: -0.433472437312197  dEband: -3.460993e-05  t[s]:    168.37
BandDavidson: Iter:  23  Eband: -0.433502668754620  dEband: -3.023144e-05  t[s]:    174.70
BandDavidson: Iter:  24  Eband: -0.433529127945001  dEband: -2.645919e-05  t[s]:    181.03
BandDavidson: Iter:  25  Eband: -0.433552021831670  dEband: -2.289389e-05  t[s]:    187.37
BandDavidson: Iter:  26  Eband: -0.433571665213342  dEband: -1.964338e-05  t[s]:    193.70
BandDavidson: Iter:  27  Eband: -0.433588444871160  dEband: -1.677966e-05  t[s]:    199.91
BandDavidson: Iter:  28  Eband: -0.433602980320703  dEband: -1.453545e-05  t[s]:    205.98
BandDavidson: Iter:  29  Eband: -0.433615751099677  dEband: -1.277078e-05  t[s]:    211.78
BandDavidson: Iter:  30  Eband: -0.433627256645861  dEband: -1.150555e-05  t[s]:    217.48
BandDavidson: Iter:  31  Eband: -0.433637916823451  dEband: -1.066018e-05  t[s]:    222.72
BandDavidson: Iter:  32  Eband: -0.433648019551378  dEband: -1.010273e-05  t[s]:    227.60
BandDavidson: Iter:  33  Eband: -0.433658237356559  dEband: -1.021781e-05  t[s]:    232.33
BandDavidson: Iter:  34  Eband: -0.433670362227718  dEband: -1.212487e-05  t[s]:    237.06
BandDavidson: Iter:  35  Eband: -0.433682363409821  dEband: -1.200118e-05  t[s]:    241.80
BandDavidson: Iter:  36  Eband: -0.433693449722185  dEband: -1.108631e-05  t[s]:    246.56
BandDavidson: Iter:  37  Eband: -0.433703561105376  dEband: -1.011138e-05  t[s]:    251.22
BandDavidson: Iter:  38  Eband: -0.433712872332345  dEband: -9.311227e-06  t[s]:    255.56
BandDavidson: Iter:  39  Eband: -0.433721732932878  dEband: -8.860601e-06  t[s]:    259.87
BandDavidson: Iter:  40  Eband: -0.433729964590080  dEband: -8.231657e-06  t[s]:    264.08
BandDavidson: Iter:  41  Eband: -0.433737462061914  dEband: -7.497472e-06  t[s]:    268.26
BandDavidson: Iter:  42  Eband: -0.433744384741705  dEband: -6.922680e-06  t[s]:    272.43
BandDavidson: Iter:  43  Eband: -0.433750948518424  dEband: -6.563777e-06  t[s]:    276.61
BandDavidson: Iter:  44  Eband: -0.433757208469078  dEband: -6.259951e-06  t[s]:    280.79
BandDavidson: Iter:  45  Eband: -0.433763132055254  dEband: -5.923586e-06  t[s]:    284.91
BandDavidson: Iter:  46  Eband: -0.433768630717643  dEband: -5.498662e-06  t[s]:    289.05
BandDavidson: Iter:  47  Eband: -0.433773501510165  dEband: -4.870793e-06  t[s]:    293.07
BandDavidson: Iter:  48  Eband: -0.433777701227728  dEband: -4.199718e-06  t[s]:    297.05
BandDavidson: Iter:  49  Eband: -0.433781289347097  dEband: -3.588119e-06  t[s]:    300.99
BandDavidson: Iter:  50  Eband: -0.433784319250567  dEband: -3.029903e-06  t[s]:    304.84
BandDavidson: Iter:  51  Eband: -0.433786868253116  dEband: -2.549003e-06  t[s]:    308.60
BandDavidson: Iter:  52  Eband: -0.433789001542843  dEband: -2.133290e-06  t[s]:    312.29
BandDavidson: Iter:  53  Eband: -0.433790789257165  dEband: -1.787714e-06  t[s]:    315.97
BandDavidson: Iter:  54  Eband: -0.433792283928636  dEband: -1.494671e-06  t[s]:    319.64
BandDavidson: Iter:  55  Eband: -0.433793538828896  dEband: -1.254900e-06  t[s]:    323.29
BandDavidson: Iter:  56  Eband: -0.433794586342622  dEband: -1.047514e-06  t[s]:    326.95
BandDavidson: Iter:  57  Eband: -0.433795462685082  dEband: -8.763425e-07  t[s]:    330.51
BandDavidson: Iter:  58  Eband: -0.433796191682012  dEband: -7.289969e-07  t[s]:    334.04
BandDavidson: Iter:  59  Eband: -0.433796801131078  dEband: -6.094491e-07  t[s]:    337.53
BandDavidson: Iter:  60  Eband: -0.433797308755262  dEband: -5.076242e-07  t[s]:    341.02
BandDavidson: Iter:  61  Eband: -0.433797734230955  dEband: -4.254757e-07  t[s]:    344.53
BandDavidson: Iter:  62  Eband: -0.433798089087341  dEband: -3.548564e-07  t[s]:    348.02
BandDavidson: Iter:  63  Eband: -0.433798385386512  dEband: -2.962992e-07  t[s]:    351.49
BandDavidson: Iter:  64  Eband: -0.433798631296246  dEband: -2.459097e-07  t[s]:    354.84
BandDavidson: Iter:  65  Eband: -0.433798835385698  dEband: -2.040895e-07  t[s]:    358.15
BandDavidson: Iter:  66  Eband: -0.433799004720018  dEband: -1.693343e-07  t[s]:    361.42
BandDavidson: Iter:  67  Eband: -0.433799145285523  dEband: -1.405655e-07  t[s]:    364.67
BandDavidson: Iter:  68  Eband: -0.433799262420892  dEband: -1.171354e-07  t[s]:    367.93
BandDavidson: Iter:  69  Eband: -0.433799360280694  dEband: -9.785980e-08  t[s]:    371.13
BandDavidson: Iter:  70  Eband: -0.433799441607937  dEband: -8.132724e-08  t[s]:    374.27
BandDavidson: Iter:  71  Eband: -0.433799509387673  dEband: -6.777974e-08  t[s]:    377.29
BandDavidson: Iter:  72  Eband: -0.433799565833106  dEband: -5.644543e-08  t[s]:    380.26
BandDavidson: Iter:  73  Eband: -0.433799612943203  dEband: -4.711010e-08  t[s]:    383.24
BandDavidson: Iter:  74  Eband: -0.433799652232787  dEband: -3.928958e-08  t[s]:    386.22
BandDavidson: Iter:  75  Eband: -0.433799685044613  dEband: -3.281183e-08  t[s]:    389.21
BandDavidson: Iter:  76  Eband: -0.433799712474006  dEband: -2.742939e-08  t[s]:    392.20
BandDavidson: Iter:  77  Eband: -0.433799735472644  dEband: -2.299864e-08  t[s]:    395.25
BandDavidson: Iter:  78  Eband: -0.433799754738815  dEband: -1.926617e-08  t[s]:    398.25
BandDavidson: Iter:  79  Eband: -0.433799770907932  dEband: -1.616912e-08  t[s]:    401.16
BandDavidson: Iter:  80  Eband: -0.433799784463159  dEband: -1.355523e-08  t[s]:    404.06
BandDavidson: Iter:  81  Eband: -0.433799795854298  dEband: -1.139114e-08  t[s]:    406.97
BandDavidson: Iter:  82  Eband: -0.433799805408943  dEband: -9.554645e-09  t[s]:    409.84
BandDavidson: Converged (dEband<1.000000e-08)
Setting wave functions to eigenvectors of Hamiltonian
	FillingsUpdate:  mu: -0.087506762  nElectrons: 121.000000  magneticMoment: [ Abs: 0.18156  Tot: -0.18056 ]

Dumping 'Na-bands-0.319.eigenvals' ... done
End date and time: Mon Jan 24 05:54:24 2022  (Duration: 0-0:15:38.01)
Done!
