Second Layer Distance is 0.31

--------------------------------------------------------------------------
The library attempted to open the following supporting CUDA libraries,
but each of them failed.  CUDA-aware support is disabled.
libcuda.so.1: cannot open shared object file: No such file or directory
libcuda.dylib: cannot open shared object file: No such file or directory
/usr/lib64/libcuda.so.1: cannot open shared object file: No such file or directory
/usr/lib64/libcuda.dylib: cannot open shared object file: No such file or directory
If you are not interested in CUDA-aware support, then run with
--mca opal_warn_on_missing_libcuda 0 to suppress this message.  If you are interested
in CUDA-aware support, then try setting LD_LIBRARY_PATH to the location
of libcuda.so.1 to get passed this issue.
--------------------------------------------------------------------------
--------------------------------------------------------------------------
No OpenFabrics connection schemes reported that they were able to be
used on a specific port.  As such, the openib BTL (OpenFabrics
support) will be disabled for this port.

  Local host:           d-16-10-1
  Local device:         mlx5_1
  Local port:           1
  CPCs attempted:       rdmacm, udcm
--------------------------------------------------------------------------

*************** JDFTx 1.6.0 (git hash 42ebbcc2) ***************

Start date and time: Sun Jan 23 16:36:04 2022
Executable jdftx with command-line: -i Moire.in
Running on hosts (process indices):  d-16-10-1 (0-18)
Divided in process groups (process indices):  0 (0)  1 (1)  2 (2)  3 (3)  4 (4)  5 (5)  6 (6)  7 (7)  8 (8)  9 (9)  10 (10)  11 (11)  12 (12)  13 (13)  14 (14)  15 (15)  16 (16)  17 (17)  18 (18)
Resource initialization completed at t[s]:      0.00
Run totals: 19 processes, 48 threads, 0 GPUs


Input parsed successfully to the following command list (including defaults):

basis kpoint-dependent
coords-type Lattice
core-overlap-check vector
coulomb-interaction Slab 001
davidson-band-ratio 1.1
dump End State ElecDensity BandEigs
dump-name Na-0.31.$VAR
elec-cutoff 20
elec-eigen-algo Davidson
elec-ex-corr gga-PBE
elec-initial-magnetization 0.100000 no
elec-smearing Fermi 1e-05
electronic-minimize  \
	dirUpdateScheme      FletcherReeves \
	linminMethod         DirUpdateRecommended \
	nIterations          100 \
	history              15 \
	knormThreshold       0 \
	energyDiffThreshold  1e-08 \
	nEnergyDiff          2 \
	alphaTstart          1 \
	alphaTmin            1e-10 \
	updateTestStepSize   yes \
	alphaTreduceFactor   0.1 \
	alphaTincreaseFactor 3 \
	nAlphaAdjustMax      3 \
	wolfeEnergy          0.0001 \
	wolfeGradient        0.9 \
	fdTest               no
electronic-scf  \
	nIterations	1000 \
	energyDiffThreshold	1e-08 \
	residualThreshold	1e-07 \
	mixFraction	0.5 \
	qMetric	0.8 \
	history	10 \
	nEigSteps	2 \
	eigDiffThreshold	1e-08 \
	mixedVariable	Density \
	qKerker	0.8 \
	qKappa	-1 \
	verbose	no \
	mixFractionMag	1.5
exchange-regularization WignerSeitzTruncated
fluid None
fluid-ex-corr (null) lda-PZ
fluid-gummel-loop 10 1.000000e-05
fluid-minimize  \
	dirUpdateScheme      PolakRibiere \
	linminMethod         DirUpdateRecommended \
	nIterations          100 \
	history              15 \
	knormThreshold       0 \
	energyDiffThreshold  0 \
	nEnergyDiff          2 \
	alphaTstart          1 \
	alphaTmin            1e-10 \
	updateTestStepSize   yes \
	alphaTreduceFactor   0.1 \
	alphaTincreaseFactor 3 \
	nAlphaAdjustMax      3 \
	wolfeEnergy          0.0001 \
	wolfeGradient        0.9 \
	fdTest               no
fluid-solvent H2O 55.338 ScalarEOS \
	epsBulk 78.4 \
	pMol 0.92466 \
	epsInf 1.77 \
	Pvap 1.06736e-10 \
	sigmaBulk 4.62e-05 \
	Rvdw 2.61727 \
	Res 1.42 \
	tauNuc 343133 \
	poleEl 15 7 1
forces-output-coords Positions
ion N   0.952380952380952   0.761904761904762   0.000000000000000 0
ion N   1.428571428571428   1.285714285714286   0.310000000000000 0
ion N   0.380952380952381   0.904761904761905   0.000000000000000 0
ion N   0.714285714285714   1.142857142857143   0.310000000000000 0
ion N   0.523809523809524   0.619047619047619   0.000000000000000 0
ion N   1.000000000000000   1.000000000000000   0.310000000000000 0
ion N   0.666666666666667   0.333333333333333   0.000000000000000 0
ion N   1.285714285714286   0.857142857142857   0.310000000000000 0
ion N   0.809523809523810   0.047619047619048   0.000000000000000 0
ion N   1.571428571428571   0.714285714285714   0.310000000000000 0
ion N   0.095238095238095   0.476190476190476   0.000000000000000 0
ion N   0.238095238095238   0.190476190476190   0.000000000000000 0
ion N   0.857142857142857   0.571428571428571   0.310000000000000 0
ion N   1.142857142857143   0.428571428571429   0.310000000000000 0
ion B   0.571428571428572   0.857142857142857   0.000000000000000 0
ion B   0.952380952380952   1.190476190476190   0.310000000000000 0
ion B   0.714285714285714   0.571428571428571   0.000000000000000 0
ion B   1.238095238095238   1.047619047619047   0.310000000000000 0
ion B   0.857142857142857   0.285714285714286   0.000000000000000 0
ion B   1.523809523809524   0.904761904761905   0.310000000000000 0
ion B   0.142857142857143   0.714285714285714   0.000000000000000 0
ion B   0.285714285714286   0.428571428571429   0.000000000000000 0
ion B   0.809523809523810   0.761904761904762   0.310000000000000 0
ion B   0.428571428571429   0.142857142857143   0.000000000000000 0
ion B   1.095238095238095   0.619047619047619   0.310000000000000 0
ion B   1.380952380952381   0.476190476190476   0.310000000000000 0
ion B   0.000000000000000   0.000000000000000   0.000000000000000 0
ion B   0.666666666666667   0.333333333333333   0.310000000000000 0
ion Na   0.333333333300000   0.666666666600000   0.155000000000000 0
ion-species SG15/$ID_ONCV_PBE.upf
ion-width 0
ionic-minimize  \
	dirUpdateScheme      L-BFGS \
	linminMethod         DirUpdateRecommended \
	nIterations          0 \
	history              15 \
	knormThreshold       0.0001 \
	energyDiffThreshold  1e-06 \
	nEnergyDiff          2 \
	alphaTstart          1 \
	alphaTmin            1e-10 \
	updateTestStepSize   yes \
	alphaTreduceFactor   0.1 \
	alphaTincreaseFactor 3 \
	nAlphaAdjustMax      3 \
	wolfeEnergy          0.0001 \
	wolfeGradient        0.9 \
	fdTest               no
kpoint   0.000000000000   0.000000000000   0.000000000000  1.00000000000000
kpoint-folding 12 12 1 
latt-move-scale 1 1 1
latt-scale 1 1 1 
lattice  \
	 -11.818700000000000    2.363740000000000    0.000000000000000  \
	   4.094120000000000  -12.282400000000001    0.000000000000000  \
	   0.000000000000000    0.000000000000000   40.000000000000000 
lattice-minimize  \
	dirUpdateScheme      L-BFGS \
	linminMethod         DirUpdateRecommended \
	nIterations          0 \
	history              15 \
	knormThreshold       0 \
	energyDiffThreshold  1e-06 \
	nEnergyDiff          2 \
	alphaTstart          1 \
	alphaTmin            1e-10 \
	updateTestStepSize   yes \
	alphaTreduceFactor   0.1 \
	alphaTincreaseFactor 3 \
	nAlphaAdjustMax      3 \
	wolfeEnergy          0.0001 \
	wolfeGradient        0.9 \
	fdTest               no
lcao-params -1 1e-06 1e-05
pcm-variant GLSSA13
spintype z-spin
subspace-rotation-factor 1 yes
symmetries automatic
symmetry-threshold 0.0001
van-der-waals D3



---------- Setting up symmetries ----------

Found 24 point-group symmetries of the bravais lattice
Found 6 space-group symmetries with basis
Applied RMS atom displacement 1.31765e-10 bohrs to make symmetries exact.

---------- Initializing the Grid ----------
R = 
[     -11.8187      2.36374            0  ]
[      4.09412     -12.2824            0  ]
[            0            0           40  ]
unit cell volume = 5419.38
G =
[  -0.569604   -0.10962          0  ]
[  -0.189867    -0.5481          0  ]
[          0          0    0.15708  ]
Minimum fftbox size, Smin = [  52  52  164  ]
Chosen fftbox size, S = [  54  54  168  ]

---------- Exchange Correlation functional ----------
Initalized PBE GGA exchange.
Initalized PBE GGA correlation.

---------- Setting up pseudopotentials ----------
Width of ionic core gaussian charges (only for fluid interactions / plotting) set to 0

Reading pseudopotential file '/home/gridsan/aligho/DFT/build-Nov24/pseudopotentials/SG15/N_ONCV_PBE.upf':
  'N' pseudopotential, 'PBE' functional
  Generated using ONCVPSP code by D. R. Hamann
  Author: Martin Schlipf and Francois Gygi  Date: 150915.
  5 valence electrons, 2 orbitals, 4 projectors, 1058 radial grid points, with lMax = 1
  Transforming local potential to a uniform radial grid of dG=0.02 with 1514 points.
  Transforming nonlocal projectors to a uniform radial grid of dG=0.02 with 432 points.
    2S    l: 0   occupation:  2.0   eigenvalue: -0.682907
    2P    l: 1   occupation:  3.0   eigenvalue: -0.260548
  Transforming atomic orbitals to a uniform radial grid of dG=0.02 with 432 points.
  Core radius for overlap checks: 1.35 bohrs.
  Reading pulay file /home/gridsan/aligho/DFT/build-Nov24/pseudopotentials/SG15/N_ONCV_PBE.pulay ... using dE_dnG = -2.956256e-02 computed for Ecut = 20.

Reading pseudopotential file '/home/gridsan/aligho/DFT/build-Nov24/pseudopotentials/SG15/B_ONCV_PBE.upf':
  'B' pseudopotential, 'PBE' functional
  Generated using ONCVPSP code by D. R. Hamann
  Author: Martin Schlipf and Francois Gygi  Date: 150915.
  3 valence electrons, 2 orbitals, 4 projectors, 1534 radial grid points, with lMax = 1
  Transforming local potential to a uniform radial grid of dG=0.02 with 1514 points.
  Transforming nonlocal projectors to a uniform radial grid of dG=0.02 with 432 points.
    2S    l: 0   occupation:  2.0   eigenvalue: -0.347027
    2P    l: 1   occupation:  1.0   eigenvalue: -0.132548
  Transforming atomic orbitals to a uniform radial grid of dG=0.02 with 432 points.
  Core radius for overlap checks: 1.60 bohrs.
  Reading pulay file /home/gridsan/aligho/DFT/build-Nov24/pseudopotentials/SG15/B_ONCV_PBE.pulay ... using dE_dnG = -3.748568e-04 computed for Ecut = 20.

Reading pseudopotential file '/home/gridsan/aligho/DFT/build-Nov24/pseudopotentials/SG15/Na_ONCV_PBE.upf':
  'Na' pseudopotential, 'PBE' functional
  Generated using ONCVPSP code by D. R. Hamann
  Author: Martin Schlipf and Francois Gygi  Date: 150915.
  9 valence electrons, 3 orbitals, 4 projectors, 1992 radial grid points, with lMax = 1
  Transforming local potential to a uniform radial grid of dG=0.02 with 1514 points.
  Transforming nonlocal projectors to a uniform radial grid of dG=0.02 with 432 points.
    2S    l: 0   occupation:  2.0   eigenvalue: -2.085640
    2P    l: 1   occupation:  6.0   eigenvalue: -1.053708
    3S    l: 0   occupation:  1.0   eigenvalue: -0.100838
  Transforming atomic orbitals to a uniform radial grid of dG=0.02 with 432 points.
  Core radius for overlap checks: 2.01 bohrs.
  Reading pulay file /home/gridsan/aligho/DFT/build-Nov24/pseudopotentials/SG15/Na_ONCV_PBE.pulay ... using dE_dnG = -2.946487e-03 computed for Ecut = 20.

Initialized 3 species with 29 total atoms.

Folded 1 k-points by 12x12x1 to 144 k-points.

---------- Setting up k-points, bands, fillings ----------
Adding inversion symmetry to k-mesh for non-inversion-symmetric unit cell.
Reduced to 19 k-points under symmetry. 
Computing the number of bands and number of electrons
Calculating initial fillings.
nElectrons: 121.000000   nBands: 117   nStates: 38

----- Setting up reduced wavefunction bases (one per k-point) -----
average nbasis = 23151.771 , ideal nbasis = 23152.016

---------- Setting up coulomb interaction ----------
Initialized slab truncation along lattice direction 001

Initializing DFT-D3 calculator:
	Parameters set for gga-PBE functional
	s6:  1.000  s_r6:  1.217
	s8:  0.722  s_r8:  1.000
	Per-atom parameters loaded for:
	 N:  sqrtQ[a0]:  2.712  Rcov[a0]:  1.342  CN: [ 0.00 0.99 2.01 2.99 ]
	 B:  sqrtQ[a0]:  3.644  Rcov[a0]:  1.455  CN: [ 0.00 0.97 1.94 2.91 4.59 ]
	Na:  sqrtQ[a0]:  6.586  Rcov[a0]:  2.646  CN: [ 0.00 0.97 ]

---------- Setting up 2D ewald sum ----------
Optimum gaussian width for ewald sums = 6.943804 bohr.
Real space sums over 289 unit cells with max indices [  8  8  0  ]
Reciprocal space sums over 81 terms with max indices [  4  4  0  ]

Computing DFT-D3 correction:
# coordination-number N 3.141 3.141 3.168 3.141 3.168 3.139 3.139 3.168 3.141 3.168 3.168 3.141 3.141 3.168
# coordination-number B 3.384 3.346 3.346 3.346 3.346 3.384 3.384 3.384 3.346 3.346 3.384 3.384 3.343 3.343
# coordination-number Na 0.536
# diagonal-C6 N 15.61 15.61 15.60 15.61 15.60 15.61 15.61 15.60 15.61 15.60 15.60 15.61 15.61 15.60
# diagonal-C6 B 31.43 31.44 31.44 31.44 31.44 31.43 31.43 31.43 31.44 31.44 31.43 31.43 31.44 31.44
# diagonal-C6 Na 567.72
EvdW_6 =   -0.031312
EvdW_8 =   -0.029787

---------- Allocating electronic variables ----------
Initializing wave functions:  linear combination of atomic orbitals
N pseudo-atom occupations:   s ( 2 )  p ( 3 )
[d-16-10-1:91482] 18 more processes have sent help message help-mpi-common-cuda.txt / dlopen failed
[d-16-10-1:91482] Set MCA parameter "orte_base_help_aggregate" to 0 to see all help / error messages
[d-16-10-1:91482] 18 more processes have sent help message help-mpi-btl-openib-cpc-base.txt / no cpcs for port
B pseudo-atom occupations:   s ( 2 )  p ( 1 )
Na pseudo-atom occupations:   s ( 2 1 )  p ( 6 )
	FillingsUpdate:  mu: -0.131894240  nElectrons: 121.000000  magneticMoment: [ Abs: 0.10118  Tot: -0.04062 ]
LCAOMinimize: Iter:   0  F: -219.5960728120648184  |grad|_K:  3.610e-03  alpha:  1.000e+00
	FillingsUpdate:  mu: -0.143449542  nElectrons: 121.000000  magneticMoment: [ Abs: 0.19443  Tot: +0.09722 ]
LCAOMinimize: Iter:   1  F: -220.8351073141624283  |grad|_K:  4.518e-04  alpha:  4.416e-01  linmin:  2.910e-01  cgtest: -1.079e+00  t[s]:     49.33
LCAOMinimize: 	Bad step direction: g.d > 0.
LCAOMinimize: 	Undoing step.
LCAOMinimize: 	Step failed: resetting search direction.
	FillingsUpdate:  mu: -0.143449542  nElectrons: 121.000000  magneticMoment: [ Abs: 0.19443  Tot: +0.09722 ]
LCAOMinimize: Iter:   2  F: -220.8351073141624283  |grad|_K:  4.518e-04  alpha:  0.000e+00
	FillingsUpdate:  mu: -0.173406218  nElectrons: 121.000000  magneticMoment: [ Abs: 0.13572  Tot: +0.06944 ]
LCAOMinimize: Iter:   3  F: -220.8575287313072124  |grad|_K:  6.426e-05  alpha:  4.107e-01  linmin: -1.436e-02  cgtest:  2.918e-02  t[s]:     74.54
	FillingsUpdate:  mu: -0.160419107  nElectrons: 121.000000  magneticMoment: [ Abs: 0.06571  Tot: -0.01389 ]
LCAOMinimize: Iter:   4  F: -220.8587680061020535  |grad|_K:  2.795e-05  alpha:  1.434e-01  linmin: -8.480e-02  cgtest:  9.643e-01  t[s]:     89.21
LCAOMinimize: Encountered beta<0, resetting CG.
LCAOMinimize: 	Wrong curvature in test step, increasing alphaT to 4.302327e-01.
	FillingsUpdate:  mu: -0.154564349  nElectrons: 121.000000  magneticMoment: [ Abs: 0.18139  Tot: -0.01389 ]
LCAOMinimize: Iter:   5  F: -220.8588818519501444  |grad|_K:  9.373e-06  alpha: -7.792e-02  linmin: -1.817e-02  cgtest:  4.104e-01  t[s]:    103.49
LCAOMinimize: Encountered beta<0, resetting CG.
	FillingsUpdate:  mu: -0.156106053  nElectrons: 121.000000  magneticMoment: [ Abs: 0.15707  Tot: -0.01389 ]
LCAOMinimize: Iter:   6  F: -220.8589039066887949  |grad|_K:  3.339e-05  alpha:  3.720e-02  linmin: -1.271e-02  cgtest:  2.418e-01  t[s]:    118.13
LCAOMinimize: 	Step increased F by 4.340794e-05, reducing alpha to 1.751099e-03.
LCAOMinimize: 	Step increased F by 3.605336e-05, reducing alpha to 1.751099e-04.
	FillingsUpdate:  mu: -0.156551610  nElectrons: 121.000000  magneticMoment: [ Abs: 0.15100  Tot: -0.01389 ]
LCAOMinimize: Iter:   7  F: -220.8589065200594064  |grad|_K:  2.445e-05  alpha:  1.751e-04  linmin: -1.260e-02  cgtest:  9.385e-01  t[s]:    153.68
LCAOMinimize: Encountered beta<0, resetting CG.
LCAOMinimize: 	Predicted alpha/alphaT>3.000000, increasing alphaT to 5.253296e-04.
LCAOMinimize: 	Predicted alpha/alphaT>3.000000, increasing alphaT to 1.575989e-03.
LCAOMinimize: 	Predicted alpha/alphaT>3.000000, increasing alphaT to 4.727966e-03.
	FillingsUpdate:  mu: -0.157585245  nElectrons: 121.000000  magneticMoment: [ Abs: 0.13121  Tot: -0.01393 ]
LCAOMinimize: Iter:   8  F: -220.8589087685580239  |grad|_K:  1.956e-05  alpha:  2.151e-02  linmin:  3.872e-03  cgtest: -4.764e-01  t[s]:    176.73
	FillingsUpdate:  mu: -0.157745663  nElectrons: 121.000000  magneticMoment: [ Abs: 0.12492  Tot: -0.01527 ]
LCAOMinimize: Iter:   9  F: -220.8589090932801469  |grad|_K:  3.305e-05  alpha:  1.750e-02  linmin: -3.241e-05  cgtest:  9.558e-01  t[s]:    191.39
LCAOMinimize: 	Wrong curvature in test step, increasing alphaT to 5.251246e-02.
	FillingsUpdate:  mu: -0.157867314  nElectrons: 121.000000  magneticMoment: [ Abs: 0.15441  Tot: -0.05842 ]
LCAOMinimize: Iter:  10  F: -220.8589321996012416  |grad|_K:  6.882e-05  alpha: -6.940e-03  linmin: -4.940e-03  cgtest:  1.042e+00  t[s]:    205.69
LCAOMinimize: 	Step increased F by 1.246927e-04, reducing alpha to 2.963134e-02.
	FillingsUpdate:  mu: -0.157705035  nElectrons: 121.000000  magneticMoment: [ Abs: 0.18062  Tot: -0.09722 ]
LCAOMinimize: Iter:  11  F: -220.8589793709786306  |grad|_K:  8.478e-06  alpha:  2.963e-02  linmin: -1.672e-01  cgtest:  1.089e+01  t[s]:    230.86
LCAOMinimize: Encountered beta<0, resetting CG.
LCAOMinimize: 	Predicted alpha/alphaT>3.000000, increasing alphaT to 8.889401e-02.
LCAOMinimize: 	Predicted alpha/alphaT>3.000000, increasing alphaT to 2.666820e-01.
	FillingsUpdate:  mu: -0.157210518  nElectrons: 121.000000  magneticMoment: [ Abs: 0.17467  Tot: -0.09722 ]
LCAOMinimize: Iter:  12  F: -220.8589894745469735  |grad|_K:  2.248e-06  alpha:  4.708e-01  linmin: -2.076e-01  cgtest:  9.042e-01  t[s]:    254.04
LCAOMinimize: Encountered beta<0, resetting CG.
	FillingsUpdate:  mu: -0.157060931  nElectrons: 121.000000  magneticMoment: [ Abs: 0.16690  Tot: -0.09722 ]
LCAOMinimize: Iter:  13  F: -220.8589905851069943  |grad|_K:  9.752e-07  alpha:  8.306e-01  linmin: -8.913e-05  cgtest:  1.433e-04  t[s]:    268.79
	FillingsUpdate:  mu: -0.157111882  nElectrons: 121.000000  magneticMoment: [ Abs: 0.16182  Tot: -0.09722 ]
LCAOMinimize: Iter:  14  F: -220.8589907770701473  |grad|_K:  5.343e-07  alpha:  7.624e-01  linmin:  8.679e-07  cgtest: -2.645e-04  t[s]:    283.51
	FillingsUpdate:  mu: -0.157136239  nElectrons: 121.000000  magneticMoment: [ Abs: 0.15988  Tot: -0.09722 ]
LCAOMinimize: Iter:  15  F: -220.8589908140579325  |grad|_K:  1.732e-07  alpha:  4.905e-01  linmin: -2.856e-04  cgtest:  1.483e-03  t[s]:    298.17
LCAOMinimize: Converged (|Delta F|<1.000000e-06 for 2 iters).


---- Citations for features of the code used in this run ----

   Software package:
      R. Sundararaman, K. Letchworth-Weaver, K.A. Schwarz, D. Gunceler, Y. Ozhabes and T.A. Arias, 'JDFTx: software for joint density-functional theory', SoftwareX 6, 278 (2017)

   gga-PBE exchange-correlation functional:
      J.P. Perdew, K. Burke and M. Ernzerhof, Phys. Rev. Lett. 77, 3865 (1996)

   Pseudopotentials:
      M Schlipf and F Gygi, Comput. Phys. Commun. 196, 36 (2015)

   Truncated Coulomb potentials:
      R. Sundararaman and T.A. Arias, Phys. Rev. B 87, 165122 (2013)

   DFT-D3 dispersion correction:
      S. Grimme, J. Antony, S. Ehrlich and H. Krieg, J. Chem. Phys. 132, 154104 (2010)

This list may not be complete. Please suggest additional citations or
report any other bugs at https://github.com/shankar1729/jdftx/issues

Initialization completed successfully at t[s]:    300.42


Computing DFT-D3 correction:
# coordination-number N 3.141 3.141 3.168 3.141 3.168 3.139 3.139 3.168 3.141 3.168 3.168 3.141 3.141 3.168
# coordination-number B 3.384 3.346 3.346 3.346 3.346 3.384 3.384 3.384 3.346 3.346 3.384 3.384 3.343 3.343
# coordination-number Na 0.536
# diagonal-C6 N 15.61 15.61 15.60 15.61 15.60 15.61 15.61 15.60 15.61 15.60 15.60 15.61 15.61 15.60
# diagonal-C6 B 31.43 31.44 31.44 31.44 31.44 31.43 31.43 31.43 31.44 31.44 31.43 31.43 31.44 31.44
# diagonal-C6 Na 567.72
EvdW_6 =   -0.031312
EvdW_8 =   -0.029787

-------- Electronic minimization -----------
Will mix electronic density at each iteration.
	FillingsUpdate:  mu: -0.157136239  nElectrons: 121.000000  magneticMoment: [ Abs: 0.15988  Tot: -0.09722 ]
	FillingsUpdate:  mu: -0.164286661  nElectrons: 121.000000  magneticMoment: [ Abs: 0.15988  Tot: -0.09722 ]
SCF: Cycle:  0   F: -222.204207030541994   dF: -1.345e+00   |Residual|: 3.976e-01   |deigs|: 1.102e-01  t[s]:    350.23
	FillingsUpdate:  mu: -0.163037060  nElectrons: 121.000000  magneticMoment: [ Abs: 0.13461  Tot: -0.09722 ]
SCF: Cycle:  1   F: -222.276915484159588   dF: -7.271e-02   |Residual|: 2.195e-01   |deigs|: 1.936e-02  t[s]:    388.56
	FillingsUpdate:  mu: -0.164840448  nElectrons: 121.000000  magneticMoment: [ Abs: 0.14457  Tot: -0.10389 ]
SCF: Cycle:  2   F: -222.305472482531400   dF: -2.856e-02   |Residual|: 4.194e-02   |deigs|: 2.701e-02  t[s]:    427.16
	FillingsUpdate:  mu: -0.162674544  nElectrons: 121.000000  magneticMoment: [ Abs: 0.14100  Tot: -0.10680 ]
SCF: Cycle:  3   F: -222.306402247877202   dF: -9.298e-04   |Residual|: 2.742e-02   |deigs|: 4.329e-03  t[s]:    465.62
	FillingsUpdate:  mu: -0.155546109  nElectrons: 121.000000  magneticMoment: [ Abs: 0.15312  Tot: -0.11597 ]
SCF: Cycle:  4   F: -222.306788376936936   dF: -3.861e-04   |Residual|: 1.886e-02   |deigs|: 1.438e-02  t[s]:    504.04
	FillingsUpdate:  mu: -0.151977266  nElectrons: 121.000000  magneticMoment: [ Abs: 0.15263  Tot: -0.11961 ]
SCF: Cycle:  5   F: -222.308212416752951   dF: -1.424e-03   |Residual|: 1.325e-02   |deigs|: 5.140e-03  t[s]:    542.87
	FillingsUpdate:  mu: -0.142893549  nElectrons: 121.000000  magneticMoment: [ Abs: 0.15646  Tot: -0.12747 ]
SCF: Cycle:  6   F: -222.310849463013398   dF: -2.637e-03   |Residual|: 1.061e-02   |deigs|: 9.314e-03  t[s]:    581.39
	FillingsUpdate:  mu: -0.129741472  nElectrons: 121.000000  magneticMoment: [ Abs: 0.15702  Tot: -0.13741 ]
SCF: Cycle:  7   F: -222.314221661543769   dF: -3.372e-03   |Residual|: 1.456e-02   |deigs|: 1.095e-02  t[s]:    619.92
	FillingsUpdate:  mu: -0.119103175  nElectrons: 121.000000  magneticMoment: [ Abs: 0.16804  Tot: -0.14724 ]
SCF: Cycle:  8   F: -222.317295798891678   dF: -3.074e-03   |Residual|: 8.456e-03   |deigs|: 8.408e-03  t[s]:    658.51
	FillingsUpdate:  mu: -0.106506307  nElectrons: 121.000000  magneticMoment: [ Abs: 0.18966  Tot: -0.16030 ]
SCF: Cycle:  9   F: -222.320763050547697   dF: -3.467e-03   |Residual|: 7.205e-03   |deigs|: 7.883e-03  t[s]:    697.15
	FillingsUpdate:  mu: -0.100698780  nElectrons: 121.000000  magneticMoment: [ Abs: 0.18888  Tot: -0.16776 ]
SCF: Cycle: 10   F: -222.322109496302119   dF: -1.346e-03   |Residual|: 6.541e-03   |deigs|: 3.044e-03  t[s]:    736.01
	FillingsUpdate:  mu: -0.099666337  nElectrons: 121.000000  magneticMoment: [ Abs: 0.18117  Tot: -0.17034 ]
SCF: Cycle: 11   F: -222.322303040202314   dF: -1.935e-04   |Residual|: 4.795e-03   |deigs|: 1.855e-03  t[s]:    775.06
	FillingsUpdate:  mu: -0.094787360  nElectrons: 121.000000  magneticMoment: [ Abs: 0.18489  Tot: -0.17576 ]
SCF: Cycle: 12   F: -222.322673609779798   dF: -3.706e-04   |Residual|: 4.467e-03   |deigs|: 3.248e-03  t[s]:    813.79
	FillingsUpdate:  mu: -0.090075750  nElectrons: 121.000000  magneticMoment: [ Abs: 0.19189  Tot: -0.18077 ]
SCF: Cycle: 13   F: -222.322915330551297   dF: -2.417e-04   |Residual|: 3.514e-03   |deigs|: 3.298e-03  t[s]:    852.81
	FillingsUpdate:  mu: -0.087628795  nElectrons: 121.000000  magneticMoment: [ Abs: 0.18998  Tot: -0.18249 ]
SCF: Cycle: 14   F: -222.323011434389798   dF: -9.610e-05   |Residual|: 2.563e-03   |deigs|: 2.200e-03  t[s]:    891.77
	FillingsUpdate:  mu: -0.086754282  nElectrons: 121.000000  magneticMoment: [ Abs: 0.18842  Tot: -0.18267 ]
SCF: Cycle: 15   F: -222.323039301020060   dF: -2.787e-05   |Residual|: 1.749e-03   |deigs|: 2.131e-03  t[s]:    930.82
	FillingsUpdate:  mu: -0.086107319  nElectrons: 121.000000  magneticMoment: [ Abs: 0.18751  Tot: -0.18265 ]
SCF: Cycle: 16   F: -222.323049638153805   dF: -1.034e-05   |Residual|: 9.784e-04   |deigs|: 7.589e-04  t[s]:    969.76
	FillingsUpdate:  mu: -0.085798473  nElectrons: 121.000000  magneticMoment: [ Abs: 0.18536  Tot: -0.18254 ]
SCF: Cycle: 17   F: -222.323051618716505   dF: -1.981e-06   |Residual|: 5.541e-04   |deigs|: 5.768e-04  t[s]:   1008.64
	FillingsUpdate:  mu: -0.085742990  nElectrons: 121.000000  magneticMoment: [ Abs: 0.18485  Tot: -0.18235 ]
SCF: Cycle: 18   F: -222.323052094452294   dF: -4.757e-07   |Residual|: 2.793e-04   |deigs|: 4.681e-04  t[s]:   1047.28
	FillingsUpdate:  mu: -0.085841958  nElectrons: 121.000000  magneticMoment: [ Abs: 0.18412  Tot: -0.18206 ]
SCF: Cycle: 19   F: -222.323052225143101   dF: -1.307e-07   |Residual|: 1.522e-04   |deigs|: 4.748e-04  t[s]:   1086.13
	FillingsUpdate:  mu: -0.085865125  nElectrons: 121.000000  magneticMoment: [ Abs: 0.18362  Tot: -0.18186 ]
SCF: Cycle: 20   F: -222.323052268257896   dF: -4.311e-08   |Residual|: 8.142e-05   |deigs|: 5.440e-04  t[s]:   1124.91
	FillingsUpdate:  mu: -0.085861645  nElectrons: 121.000000  magneticMoment: [ Abs: 0.18329  Tot: -0.18173 ]
SCF: Cycle: 21   F: -222.323052295583835   dF: -2.733e-08   |Residual|: 6.108e-05   |deigs|: 4.248e-04  t[s]:   1163.76
	FillingsUpdate:  mu: -0.085820406  nElectrons: 121.000000  magneticMoment: [ Abs: 0.18295  Tot: -0.18154 ]
SCF: Cycle: 22   F: -222.323052341197638   dF: -4.561e-08   |Residual|: 4.794e-05   |deigs|: 4.460e-04  t[s]:   1202.69
	FillingsUpdate:  mu: -0.085779961  nElectrons: 121.000000  magneticMoment: [ Abs: 0.18259  Tot: -0.18134 ]
SCF: Cycle: 23   F: -222.323052356311308   dF: -1.511e-08   |Residual|: 3.960e-05   |deigs|: 6.987e-04  t[s]:   1241.72
	FillingsUpdate:  mu: -0.085747395  nElectrons: 121.000000  magneticMoment: [ Abs: 0.18235  Tot: -0.18111 ]
SCF: Cycle: 24   F: -222.323052355277639   dF: +1.034e-09   |Residual|: 2.882e-05   |deigs|: 2.813e-04  t[s]:   1280.46
	FillingsUpdate:  mu: -0.085724640  nElectrons: 121.000000  magneticMoment: [ Abs: 0.18213  Tot: -0.18095 ]
SCF: Cycle: 25   F: -222.323052352091167   dF: +3.186e-09   |Residual|: 2.323e-05   |deigs|: 2.015e-04  t[s]:   1319.39
	FillingsUpdate:  mu: -0.085720407  nElectrons: 121.000000  magneticMoment: [ Abs: 0.18199  Tot: -0.18083 ]
SCF: Cycle: 26   F: -222.323052352549837   dF: -4.587e-10   |Residual|: 1.859e-05   |deigs|: 1.905e-04  t[s]:   1358.41
	FillingsUpdate:  mu: -0.085720718  nElectrons: 121.000000  magneticMoment: [ Abs: 0.18185  Tot: -0.18071 ]
SCF: Cycle: 27   F: -222.323052353899925   dF: -1.350e-09   |Residual|: 1.418e-05   |deigs|: 2.260e-04  t[s]:   1397.23
SCF: Converged (|Delta E|<1.000000e-08 for 2 iters).


Computing DFT-D3 correction:
# coordination-number N 3.141 3.141 3.168 3.141 3.168 3.139 3.139 3.168 3.141 3.168 3.168 3.141 3.141 3.168
# coordination-number B 3.384 3.346 3.346 3.346 3.346 3.384 3.384 3.384 3.346 3.346 3.384 3.384 3.343 3.343
# coordination-number Na 0.536
# diagonal-C6 N 15.61 15.61 15.60 15.61 15.60 15.61 15.61 15.60 15.61 15.60 15.60 15.61 15.61 15.60
# diagonal-C6 B 31.43 31.44 31.44 31.44 31.44 31.43 31.43 31.43 31.44 31.44 31.43 31.43 31.44 31.44
# diagonal-C6 Na 567.72
EvdW_6 =   -0.031312
EvdW_8 =   -0.029787

# Ionic positions in lattice coordinates:
ion N   0.952380952379803   0.761904761902463   0.000000000000000 0
ion N   1.428571428570279   1.285714285711987   0.310000000000000 0
ion N   0.380952380951232   0.904761904759606   0.000000000000000 0
ion N   0.714285714284565   1.142857142854844   0.310000000000000 0
ion N   0.523809523808374   0.619047619045320   0.000000000000000 0
ion N   0.999999999998850   0.999999999997701   0.310000000000000 0
ion N   0.666666666665517   0.333333333331034   0.000000000000000 0
ion N   1.285714285713136   0.857142857140558   0.310000000000000 0
ion N   0.809523809522660   0.047619047616749   0.000000000000000 0
ion N   1.571428571427422   0.714285714283415   0.310000000000000 0
ion N   0.095238095236946   0.476190476188177   0.000000000000000 0
ion N   0.238095238094089   0.190476190473892   0.000000000000000 0
ion N   0.857142857141708   0.571428571426273   0.310000000000000 0
ion N   1.142857142855993   0.428571428569130   0.310000000000000 0
ion B   0.571428571427422   0.857142857140558   0.000000000000000 0
ion B   0.952380952379803   1.190476190473892   0.310000000000000 0
ion B   0.714285714284565   0.571428571426273   0.000000000000000 0
ion B   1.238095238094089   1.047619047616749   0.310000000000000 0
ion B   0.857142857141708   0.285714285711987   0.000000000000000 0
ion B   1.523809523808374   0.904761904759606   0.310000000000000 0
ion B   0.142857142855993   0.714285714283415   0.000000000000000 0
ion B   0.285714285713136   0.428571428569130   0.000000000000000 0
ion B   0.809523809522660   0.761904761902463   0.310000000000000 0
ion B   0.428571428570279   0.142857142854844   0.000000000000000 0
ion B   1.095238095236946   0.619047619045320   0.310000000000000 0
ion B   1.380952380951231   0.476190476188177   0.310000000000000 0
ion B  -0.000000000001149  -0.000000000002299   0.000000000000000 0
ion B   0.666666666665517   0.333333333331034   0.310000000000000 0
ion Na   0.333333333332184   0.666666666664368   0.155000000000000 0

# Forces in Lattice coordinates:
force N   0.007559758823536  -0.005851234635180  -0.030404726197894 0
force N  -0.005851234635180   0.007559758823536   0.030404726197894 0
force N  -0.000083838899809  -0.011690603284456   0.010538743126817 0
force N  -0.001708524188356  -0.005851234635180   0.030404726197894 0
force N  -0.011690603284456   0.011774442184264   0.010538743126817 0
force N   0.000000000000000   0.000000000000000   0.023004960707326 0
force N   0.000000000000000   0.000000000000000  -0.023004960707098 0
force N   0.011774442184265  -0.011690603284456  -0.010538743126704 0
force N  -0.005851234635180  -0.001708524188356  -0.030404726198007 0
force N  -0.011690603284456  -0.000083838899809  -0.010538743126817 0
force N   0.011774442184265  -0.000083838899809   0.010538743126817 0
force N  -0.001708524188356   0.007559758823536  -0.030404726197780 0
force N   0.007559758823536  -0.001708524188356   0.030404726197894 0
force N  -0.000083838899809   0.011774442184264  -0.010538743126704 0
force B   0.019920837049834   0.011224335090147  -0.035085161266275 0
force B  -0.005977247844079  -0.017974391720290  -0.039509995587511 0
force B   0.023951639564369  -0.017974391720290   0.039509995587511 0
force B  -0.017974391720290   0.023951639564369  -0.039509995587511 0
force B  -0.017974391720290  -0.005977247844079   0.039509995587511 0
force B   0.011224335090147   0.019920837049834   0.035085161266332 0
force B  -0.031145172139981   0.019920837049834  -0.035085161266218 0
force B   0.011224335090147  -0.031145172139981  -0.035085161266332 0
force B   0.023951639564369  -0.005977247844079  -0.039509995587511 0
force B  -0.005977247844079   0.023951639564369   0.039509995587511 0
force B  -0.031145172139981   0.011224335090147   0.035085161266332 0
force B   0.019920837049834  -0.031145172139981   0.035085161266218 0
force B   0.000000000000000  -0.000000000000000   0.051787696704268 0
force B   0.000000000000000   0.000000000000000  -0.051787696704381 0
force Na   0.000000000000000   0.000000000000000  -0.000000000000000 0

# Energy components:
   Eewald =    -2387.4881561818951923
       EH =    -2212.1835404863777512
     Eloc =     4307.5582527697333717
      Enl =      -21.3023334697124511
   Epulay =       -0.0000190610708103
     EvdW =       -0.0610990262297486
      Exc =      -57.7726343185956708
       KE =      148.9264776854620891
-------------------------------------
     Etot =     -222.3230520886856993
       TS =        0.0000002652142368
-------------------------------------
        F =     -222.3230523538999250

IonicMinimize: Iter:   0  F: -222.323052353899925  |grad|_K:  0.000e+00  t[s]:   1401.30
IonicMinimize: Converged (|grad|_K<1.000000e-04).

#--- Lowdin population analysis ---
# oxidation-state N -0.374 -0.374 -0.377 -0.374 -0.377 -0.374 -0.374 -0.377 -0.374 -0.377 -0.377 -0.374 -0.374 -0.377
# magnetic-moments N -0.000 -0.000 -0.001 -0.000 -0.001 -0.000 -0.000 -0.001 -0.000 -0.001 -0.001 -0.000 -0.000 -0.001
# oxidation-state B +0.428 +0.446 +0.446 +0.446 +0.446 +0.428 +0.428 +0.428 +0.446 +0.446 +0.428 +0.428 +0.447 +0.447
# magnetic-moments B -0.001 -0.000 -0.000 -0.000 -0.000 -0.001 -0.001 -0.001 -0.000 -0.000 -0.001 -0.001 -0.000 -0.000
# oxidation-state Na +0.098
# magnetic-moments Na -0.158


Dumping 'Na-0.31.fillings' ... done
Dumping 'Na-0.31.wfns' ... done
Dumping 'Na-0.31.n_up' ... done
Dumping 'Na-0.31.n_dn' ... done
Dumping 'Na-0.31.eigenvals' ... done
End date and time: Sun Jan 23 16:59:28 2022  (Duration: 0-0:23:23.86)
Done!
