Second Layer Distance is 0.208

--------------------------------------------------------------------------
The library attempted to open the following supporting CUDA libraries,
but each of them failed.  CUDA-aware support is disabled.
libcuda.so.1: cannot open shared object file: No such file or directory
libcuda.dylib: cannot open shared object file: No such file or directory
/usr/lib64/libcuda.so.1: cannot open shared object file: No such file or directory
/usr/lib64/libcuda.dylib: cannot open shared object file: No such file or directory
If you are not interested in CUDA-aware support, then run with
--mca opal_warn_on_missing_libcuda 0 to suppress this message.  If you are interested
in CUDA-aware support, then try setting LD_LIBRARY_PATH to the location
of libcuda.so.1 to get passed this issue.
--------------------------------------------------------------------------
--------------------------------------------------------------------------
No OpenFabrics connection schemes reported that they were able to be
used on a specific port.  As such, the openib BTL (OpenFabrics
support) will be disabled for this port.

  Local host:           d-6-13-3
  Local device:         mlx5_1
  Local port:           1
  CPCs attempted:       rdmacm, udcm
--------------------------------------------------------------------------

*************** JDFTx 1.6.0 (git hash 42ebbcc2) ***************

Start date and time: Wed Jan 19 20:05:00 2022
Executable jdftx with command-line: -i Moire.in
Running on hosts (process indices):  d-6-13-3 (0-18)
Divided in process groups (process indices):  0 (0)  1 (1)  2 (2)  3 (3)  4 (4)  5 (5)  6 (6)  7 (7)  8 (8)  9 (9)  10 (10)  11 (11)  12 (12)  13 (13)  14 (14)  15 (15)  16 (16)  17 (17)  18 (18)
Resource initialization completed at t[s]:      0.00
Run totals: 19 processes, 48 threads, 0 GPUs


Input parsed successfully to the following command list (including defaults):

basis kpoint-dependent
coords-type Lattice
core-overlap-check vector
coulomb-interaction Slab 001
davidson-band-ratio 1.1
dump End State ElecDensity BandEigs
dump-name Na-0.208.$VAR
elec-cutoff 20
elec-eigen-algo Davidson
elec-ex-corr gga-PBE
elec-initial-magnetization 0.100000 no
elec-smearing Fermi 1e-05
electronic-minimize  \
	dirUpdateScheme      FletcherReeves \
	linminMethod         DirUpdateRecommended \
	nIterations          100 \
	history              15 \
	knormThreshold       0 \
	energyDiffThreshold  1e-08 \
	nEnergyDiff          2 \
	alphaTstart          1 \
	alphaTmin            1e-10 \
	updateTestStepSize   yes \
	alphaTreduceFactor   0.1 \
	alphaTincreaseFactor 3 \
	nAlphaAdjustMax      3 \
	wolfeEnergy          0.0001 \
	wolfeGradient        0.9 \
	fdTest               no
electronic-scf  \
	nIterations	1000 \
	energyDiffThreshold	1e-08 \
	residualThreshold	1e-07 \
	mixFraction	0.5 \
	qMetric	0.8 \
	history	10 \
	nEigSteps	2 \
	eigDiffThreshold	1e-08 \
	mixedVariable	Density \
	qKerker	0.8 \
	qKappa	-1 \
	verbose	no \
	mixFractionMag	1.5
exchange-regularization WignerSeitzTruncated
fluid None
fluid-ex-corr (null) lda-PZ
fluid-gummel-loop 10 1.000000e-05
fluid-minimize  \
	dirUpdateScheme      PolakRibiere \
	linminMethod         DirUpdateRecommended \
	nIterations          100 \
	history              15 \
	knormThreshold       0 \
	energyDiffThreshold  0 \
	nEnergyDiff          2 \
	alphaTstart          1 \
	alphaTmin            1e-10 \
	updateTestStepSize   yes \
	alphaTreduceFactor   0.1 \
	alphaTincreaseFactor 3 \
	nAlphaAdjustMax      3 \
	wolfeEnergy          0.0001 \
	wolfeGradient        0.9 \
	fdTest               no
fluid-solvent H2O 55.338 ScalarEOS \
	epsBulk 78.4 \
	pMol 0.92466 \
	epsInf 1.77 \
	Pvap 1.06736e-10 \
	sigmaBulk 4.62e-05 \
	Rvdw 2.61727 \
	Res 1.42 \
	tauNuc 343133 \
	poleEl 15 7 1
forces-output-coords Positions
ion N   0.952380952380952   0.761904761904762   0.000000000000000 0
ion N   1.428571428571428   1.285714285714286   0.208000000000000 0
ion N   0.380952380952381   0.904761904761905   0.000000000000000 0
ion N   0.714285714285714   1.142857142857143   0.208000000000000 0
ion N   0.523809523809524   0.619047619047619   0.000000000000000 0
ion N   1.000000000000000   1.000000000000000   0.208000000000000 0
ion N   0.666666666666667   0.333333333333333   0.000000000000000 0
ion N   1.285714285714286   0.857142857142857   0.208000000000000 0
ion N   0.809523809523810   0.047619047619048   0.000000000000000 0
ion N   1.571428571428571   0.714285714285714   0.208000000000000 0
ion N   0.095238095238095   0.476190476190476   0.000000000000000 0
ion N   0.238095238095238   0.190476190476190   0.000000000000000 0
ion N   0.857142857142857   0.571428571428571   0.208000000000000 0
ion N   1.142857142857143   0.428571428571429   0.208000000000000 0
ion B   0.571428571428572   0.857142857142857   0.000000000000000 0
ion B   0.952380952380952   1.190476190476190   0.208000000000000 0
ion B   0.714285714285714   0.571428571428571   0.000000000000000 0
ion B   1.238095238095238   1.047619047619047   0.208000000000000 0
ion B   0.857142857142857   0.285714285714286   0.000000000000000 0
ion B   1.523809523809524   0.904761904761905   0.208000000000000 0
ion B   0.142857142857143   0.714285714285714   0.000000000000000 0
ion B   0.285714285714286   0.428571428571429   0.000000000000000 0
ion B   0.809523809523810   0.761904761904762   0.208000000000000 0
ion B   0.428571428571429   0.142857142857143   0.000000000000000 0
ion B   1.095238095238095   0.619047619047619   0.208000000000000 0
ion B   1.380952380952381   0.476190476190476   0.208000000000000 0
ion B   0.000000000000000   0.000000000000000   0.000000000000000 0
ion B   0.666666666666667   0.333333333333333   0.208000000000000 0
ion Na   0.333333333300000   0.666666666600000   0.104000000000000 0
ion-species SG15/$ID_ONCV_PBE.upf
ion-width 0
ionic-minimize  \
	dirUpdateScheme      L-BFGS \
	linminMethod         DirUpdateRecommended \
	nIterations          0 \
	history              15 \
	knormThreshold       0.0001 \
	energyDiffThreshold  1e-06 \
	nEnergyDiff          2 \
	alphaTstart          1 \
	alphaTmin            1e-10 \
	updateTestStepSize   yes \
	alphaTreduceFactor   0.1 \
	alphaTincreaseFactor 3 \
	nAlphaAdjustMax      3 \
	wolfeEnergy          0.0001 \
	wolfeGradient        0.9 \
	fdTest               no
kpoint   0.000000000000   0.000000000000   0.000000000000  1.00000000000000
kpoint-folding 12 12 1 
latt-move-scale 1 1 1
latt-scale 1 1 1 
lattice  \
	 -11.818700000000000    2.363740000000000    0.000000000000000  \
	   4.094120000000000  -12.282400000000001    0.000000000000000  \
	   0.000000000000000    0.000000000000000   40.000000000000000 
lattice-minimize  \
	dirUpdateScheme      L-BFGS \
	linminMethod         DirUpdateRecommended \
	nIterations          0 \
	history              15 \
	knormThreshold       0 \
	energyDiffThreshold  1e-06 \
	nEnergyDiff          2 \
	alphaTstart          1 \
	alphaTmin            1e-10 \
	updateTestStepSize   yes \
	alphaTreduceFactor   0.1 \
	alphaTincreaseFactor 3 \
	nAlphaAdjustMax      3 \
	wolfeEnergy          0.0001 \
	wolfeGradient        0.9 \
	fdTest               no
lcao-params -1 1e-06 1e-05
pcm-variant GLSSA13
spintype z-spin
subspace-rotation-factor 1 yes
symmetries automatic
symmetry-threshold 0.0001
van-der-waals D3



---------- Setting up symmetries ----------

Found 24 point-group symmetries of the bravais lattice
Found 6 space-group symmetries with basis
Applied RMS atom displacement 1.31765e-10 bohrs to make symmetries exact.

---------- Initializing the Grid ----------
R = 
[     -11.8187      2.36374            0  ]
[      4.09412     -12.2824            0  ]
[            0            0           40  ]
unit cell volume = 5419.38
G =
[  -0.569604   -0.10962          0  ]
[  -0.189867    -0.5481          0  ]
[          0          0    0.15708  ]
Minimum fftbox size, Smin = [  52  52  164  ]
Chosen fftbox size, S = [  54  54  168  ]

---------- Exchange Correlation functional ----------
Initalized PBE GGA exchange.
Initalized PBE GGA correlation.

---------- Setting up pseudopotentials ----------
Width of ionic core gaussian charges (only for fluid interactions / plotting) set to 0

Reading pseudopotential file '/home/gridsan/aligho/DFT/build-Nov24/pseudopotentials/SG15/N_ONCV_PBE.upf':
  'N' pseudopotential, 'PBE' functional
  Generated using ONCVPSP code by D. R. Hamann
  Author: Martin Schlipf and Francois Gygi  Date: 150915.
  5 valence electrons, 2 orbitals, 4 projectors, 1058 radial grid points, with lMax = 1
  Transforming local potential to a uniform radial grid of dG=0.02 with 1514 points.
  Transforming nonlocal projectors to a uniform radial grid of dG=0.02 with 432 points.
    2S    l: 0   occupation:  2.0   eigenvalue: -0.682907
    2P    l: 1   occupation:  3.0   eigenvalue: -0.260548
  Transforming atomic orbitals to a uniform radial grid of dG=0.02 with 432 points.
  Core radius for overlap checks: 1.35 bohrs.
  Reading pulay file /home/gridsan/aligho/DFT/build-Nov24/pseudopotentials/SG15/N_ONCV_PBE.pulay ... using dE_dnG = -2.956256e-02 computed for Ecut = 20.

Reading pseudopotential file '/home/gridsan/aligho/DFT/build-Nov24/pseudopotentials/SG15/B_ONCV_PBE.upf':
  'B' pseudopotential, 'PBE' functional
  Generated using ONCVPSP code by D. R. Hamann
  Author: Martin Schlipf and Francois Gygi  Date: 150915.
  3 valence electrons, 2 orbitals, 4 projectors, 1534 radial grid points, with lMax = 1
  Transforming local potential to a uniform radial grid of dG=0.02 with 1514 points.
  Transforming nonlocal projectors to a uniform radial grid of dG=0.02 with 432 points.
    2S    l: 0   occupation:  2.0   eigenvalue: -0.347027
    2P    l: 1   occupation:  1.0   eigenvalue: -0.132548
  Transforming atomic orbitals to a uniform radial grid of dG=0.02 with 432 points.
  Core radius for overlap checks: 1.60 bohrs.
  Reading pulay file /home/gridsan/aligho/DFT/build-Nov24/pseudopotentials/SG15/B_ONCV_PBE.pulay ... using dE_dnG = -3.748568e-04 computed for Ecut = 20.

Reading pseudopotential file '/home/gridsan/aligho/DFT/build-Nov24/pseudopotentials/SG15/Na_ONCV_PBE.upf':
  'Na' pseudopotential, 'PBE' functional
  Generated using ONCVPSP code by D. R. Hamann
  Author: Martin Schlipf and Francois Gygi  Date: 150915.
  9 valence electrons, 3 orbitals, 4 projectors, 1992 radial grid points, with lMax = 1
  Transforming local potential to a uniform radial grid of dG=0.02 with 1514 points.
  Transforming nonlocal projectors to a uniform radial grid of dG=0.02 with 432 points.
    2S    l: 0   occupation:  2.0   eigenvalue: -2.085640
    2P    l: 1   occupation:  6.0   eigenvalue: -1.053708
    3S    l: 0   occupation:  1.0   eigenvalue: -0.100838
  Transforming atomic orbitals to a uniform radial grid of dG=0.02 with 432 points.
  Core radius for overlap checks: 2.01 bohrs.
  Reading pulay file /home/gridsan/aligho/DFT/build-Nov24/pseudopotentials/SG15/Na_ONCV_PBE.pulay ... using dE_dnG = -2.946487e-03 computed for Ecut = 20.

Initialized 3 species with 29 total atoms.

Folded 1 k-points by 12x12x1 to 144 k-points.

---------- Setting up k-points, bands, fillings ----------
Adding inversion symmetry to k-mesh for non-inversion-symmetric unit cell.
Reduced to 19 k-points under symmetry. 
Computing the number of bands and number of electrons
Calculating initial fillings.
nElectrons: 121.000000   nBands: 117   nStates: 38

----- Setting up reduced wavefunction bases (one per k-point) -----
average nbasis = 23151.771 , ideal nbasis = 23152.016

---------- Setting up coulomb interaction ----------
Initialized slab truncation along lattice direction 001

Initializing DFT-D3 calculator:
	Parameters set for gga-PBE functional
	s6:  1.000  s_r6:  1.217
	s8:  0.722  s_r8:  1.000
	Per-atom parameters loaded for:
	 N:  sqrtQ[a0]:  2.712  Rcov[a0]:  1.342  CN: [ 0.00 0.99 2.01 2.99 ]
	 B:  sqrtQ[a0]:  3.644  Rcov[a0]:  1.455  CN: [ 0.00 0.97 1.94 2.91 4.59 ]
	Na:  sqrtQ[a0]:  6.586  Rcov[a0]:  2.646  CN: [ 0.00 0.97 ]

---------- Setting up 2D ewald sum ----------
Optimum gaussian width for ewald sums = 6.943804 bohr.
Real space sums over 289 unit cells with max indices [  8  8  0  ]
Reciprocal space sums over 81 terms with max indices [  4  4  0  ]

Computing DFT-D3 correction:
# coordination-number N 3.167 3.167 3.888 3.167 3.888 3.147 3.147 3.888 3.167 3.888 3.888 3.167 3.167 3.888
# coordination-number B 4.172 3.383 3.383 3.383 3.383 4.172 4.172 4.172 3.383 3.383 4.172 4.172 3.354 3.354
# coordination-number Na 9.967
# diagonal-C6 N 15.60 15.60 15.58 15.60 15.58 15.61 15.61 15.58 15.60 15.58 15.58 15.60 15.60 15.58
# diagonal-C6 B 28.04 31.43 31.43 31.43 31.43 28.04 28.04 28.04 31.43 31.43 28.04 28.04 31.44 31.44
# diagonal-C6 Na 186.11
EvdW_6 =   -0.036521
EvdW_8 =   -0.030435

---------- Allocating electronic variables ----------
Initializing wave functions:  linear combination of atomic orbitals
N pseudo-atom occupations:   s ( 2 )  p ( 3 )
[d-6-13-3:10309] 18 more processes have sent help message help-mpi-common-cuda.txt / dlopen failed
[d-6-13-3:10309] Set MCA parameter "orte_base_help_aggregate" to 0 to see all help / error messages
[d-6-13-3:10309] 18 more processes have sent help message help-mpi-btl-openib-cpc-base.txt / no cpcs for port
B pseudo-atom occupations:   s ( 2 )  p ( 1 )
Na pseudo-atom occupations:   s ( 2 1 )  p ( 6 )
	FillingsUpdate:  mu: -0.181078034  nElectrons: 121.000000  magneticMoment: [ Abs: 0.12339  Tot: +0.11111 ]
LCAOMinimize: Iter:   0  F: -219.8094309708944820  |grad|_K:  3.319e-03  alpha:  1.000e+00
	FillingsUpdate:  mu: -0.162363383  nElectrons: 121.000000  magneticMoment: [ Abs: 0.13238  Tot: +0.11111 ]
LCAOMinimize: Iter:   1  F: -220.8750804826806871  |grad|_K:  3.648e-04  alpha:  4.393e-01  linmin:  5.652e-01  cgtest: -1.083e+00  t[s]:     48.99
LCAOMinimize: 	Bad step direction: g.d > 0.
LCAOMinimize: 	Undoing step.
LCAOMinimize: 	Step failed: resetting search direction.
	FillingsUpdate:  mu: -0.162363383  nElectrons: 121.000000  magneticMoment: [ Abs: 0.13238  Tot: +0.11111 ]
LCAOMinimize: Iter:   2  F: -220.8750804826806871  |grad|_K:  3.648e-04  alpha:  0.000e+00
	FillingsUpdate:  mu: -0.167559844  nElectrons: 121.000000  magneticMoment: [ Abs: 0.13904  Tot: +0.11111 ]
LCAOMinimize: Iter:   3  F: -220.8897188451122702  |grad|_K:  8.711e-06  alpha:  4.154e-01  linmin:  5.034e-02  cgtest: -3.774e-01  t[s]:     74.08
	FillingsUpdate:  mu: -0.168126065  nElectrons: 121.000000  magneticMoment: [ Abs: 0.14534  Tot: +0.11111 ]
LCAOMinimize: Iter:   4  F: -220.8897292163147199  |grad|_K:  4.528e-06  alpha:  6.034e-01  linmin:  1.595e-04  cgtest:  3.108e-01  t[s]:     88.72
	FillingsUpdate:  mu: -0.168082779  nElectrons: 121.000000  magneticMoment: [ Abs: 0.14876  Tot: +0.11111 ]
LCAOMinimize: Iter:   5  F: -220.8897316416471597  |grad|_K:  1.209e-06  alpha:  4.473e-01  linmin:  4.172e-06  cgtest: -1.641e-02  t[s]:    103.24
	FillingsUpdate:  mu: -0.168021132  nElectrons: 121.000000  magneticMoment: [ Abs: 0.15248  Tot: +0.11111 ]
LCAOMinimize: Iter:   6  F: -220.8897319233325618  |grad|_K:  4.590e-07  alpha:  7.291e-01  linmin:  1.161e-04  cgtest: -4.998e-03  t[s]:    117.88
	FillingsUpdate:  mu: -0.168032951  nElectrons: 121.000000  magneticMoment: [ Abs: 0.15416  Tot: +0.11111 ]
LCAOMinimize: Iter:   7  F: -220.8897319540083686  |grad|_K:  2.217e-07  alpha:  5.530e-01  linmin: -2.024e-04  cgtest:  6.843e-03  t[s]:    132.45
LCAOMinimize: Converged (|Delta F|<1.000000e-06 for 2 iters).


---- Citations for features of the code used in this run ----

   Software package:
      R. Sundararaman, K. Letchworth-Weaver, K.A. Schwarz, D. Gunceler, Y. Ozhabes and T.A. Arias, 'JDFTx: software for joint density-functional theory', SoftwareX 6, 278 (2017)

   gga-PBE exchange-correlation functional:
      J.P. Perdew, K. Burke and M. Ernzerhof, Phys. Rev. Lett. 77, 3865 (1996)

   Pseudopotentials:
      M Schlipf and F Gygi, Comput. Phys. Commun. 196, 36 (2015)

   Truncated Coulomb potentials:
      R. Sundararaman and T.A. Arias, Phys. Rev. B 87, 165122 (2013)

   DFT-D3 dispersion correction:
      S. Grimme, J. Antony, S. Ehrlich and H. Krieg, J. Chem. Phys. 132, 154104 (2010)

This list may not be complete. Please suggest additional citations or
report any other bugs at https://github.com/shankar1729/jdftx/issues

Initialization completed successfully at t[s]:    134.69


Computing DFT-D3 correction:
# coordination-number N 3.167 3.167 3.888 3.167 3.888 3.147 3.147 3.888 3.167 3.888 3.888 3.167 3.167 3.888
# coordination-number B 4.172 3.383 3.383 3.383 3.383 4.172 4.172 4.172 3.383 3.383 4.172 4.172 3.354 3.354
# coordination-number Na 9.967
# diagonal-C6 N 15.60 15.60 15.58 15.60 15.58 15.61 15.61 15.58 15.60 15.58 15.58 15.60 15.60 15.58
# diagonal-C6 B 28.04 31.43 31.43 31.43 31.43 28.04 28.04 28.04 31.43 31.43 28.04 28.04 31.44 31.44
# diagonal-C6 Na 186.11
EvdW_6 =   -0.036521
EvdW_8 =   -0.030435

-------- Electronic minimization -----------
Will mix electronic density at each iteration.
	FillingsUpdate:  mu: -0.168032951  nElectrons: 121.000000  magneticMoment: [ Abs: 0.15416  Tot: +0.11111 ]
	FillingsUpdate:  mu: -0.182653528  nElectrons: 121.000000  magneticMoment: [ Abs: 0.15416  Tot: +0.11111 ]
SCF: Cycle:  0   F: -222.181741979349368   dF: -1.292e+00   |Residual|: 3.875e-01   |deigs|: 1.070e-01  t[s]:    184.30
	FillingsUpdate:  mu: -0.166548318  nElectrons: 121.000000  magneticMoment: [ Abs: 0.28569  Tot: +0.11962 ]
SCF: Cycle:  1   F: -222.239753071600717   dF: -5.801e-02   |Residual|: 2.152e-01   |deigs|: 1.868e-02  t[s]:    222.41
	FillingsUpdate:  mu: -0.148530647  nElectrons: 121.000000  magneticMoment: [ Abs: 0.74225  Tot: +0.15744 ]
SCF: Cycle:  2   F: -222.273744635340108   dF: -3.399e-02   |Residual|: 4.646e-02   |deigs|: 2.415e-02  t[s]:    260.59
	FillingsUpdate:  mu: -0.146126858  nElectrons: 121.000000  magneticMoment: [ Abs: 0.61893  Tot: +0.17600 ]
SCF: Cycle:  3   F: -222.278069638862405   dF: -4.325e-03   |Residual|: 2.868e-02   |deigs|: 3.052e-03  t[s]:    299.09
	FillingsUpdate:  mu: -0.139554308  nElectrons: 121.000000  magneticMoment: [ Abs: 0.70558  Tot: +0.23025 ]
SCF: Cycle:  4   F: -222.284372152001112   dF: -6.303e-03   |Residual|: 2.455e-02   |deigs|: 6.767e-03  t[s]:    337.31
	FillingsUpdate:  mu: -0.136771643  nElectrons: 121.000000  magneticMoment: [ Abs: 0.78740  Tot: +0.26030 ]
SCF: Cycle:  5   F: -222.285435515772036   dF: -1.063e-03   |Residual|: 1.983e-02   |deigs|: 2.771e-03  t[s]:    375.56
	FillingsUpdate:  mu: -0.122219862  nElectrons: 121.000000  magneticMoment: [ Abs: 0.98658  Tot: +0.43792 ]
SCF: Cycle:  6   F: -222.287980534602838   dF: -2.545e-03   |Residual|: 1.386e-02   |deigs|: 1.515e-02  t[s]:    413.93
	FillingsUpdate:  mu: -0.110042867  nElectrons: 121.000000  magneticMoment: [ Abs: 0.97144  Tot: +0.57474 ]
SCF: Cycle:  7   F: -222.288268221272489   dF: -2.877e-04   |Residual|: 1.270e-02   |deigs|: 1.245e-02  t[s]:    452.35
	FillingsUpdate:  mu: -0.101413556  nElectrons: 121.000000  magneticMoment: [ Abs: 0.98070  Tot: +0.67836 ]
SCF: Cycle:  8   F: -222.288884332388477   dF: -6.161e-04   |Residual|: 9.973e-03   |deigs|: 9.204e-03  t[s]:    490.90
	FillingsUpdate:  mu: -0.098535502  nElectrons: 121.000000  magneticMoment: [ Abs: 0.96264  Tot: +0.70753 ]
SCF: Cycle:  9   F: -222.289210001328541   dF: -3.257e-04   |Residual|: 6.459e-03   |deigs|: 3.417e-03  t[s]:    529.43
	FillingsUpdate:  mu: -0.093226203  nElectrons: 121.000000  magneticMoment: [ Abs: 0.94059  Tot: +0.74527 ]
SCF: Cycle: 10   F: -222.289693040903842   dF: -4.830e-04   |Residual|: 5.059e-03   |deigs|: 4.919e-03  t[s]:    567.86
	FillingsUpdate:  mu: -0.089736034  nElectrons: 121.000000  magneticMoment: [ Abs: 0.93916  Tot: +0.75286 ]
SCF: Cycle: 11   F: -222.290216101705852   dF: -5.231e-04   |Residual|: 4.637e-03   |deigs|: 3.146e-03  t[s]:    606.30
	FillingsUpdate:  mu: -0.084509249  nElectrons: 121.000000  magneticMoment: [ Abs: 0.93165  Tot: +0.75615 ]
SCF: Cycle: 12   F: -222.291068380067770   dF: -8.523e-04   |Residual|: 4.615e-03   |deigs|: 4.290e-03  t[s]:    644.78
	FillingsUpdate:  mu: -0.081213929  nElectrons: 121.000000  magneticMoment: [ Abs: 0.90691  Tot: +0.73905 ]
SCF: Cycle: 13   F: -222.291532981005531   dF: -4.646e-04   |Residual|: 4.134e-03   |deigs|: 2.943e-03  t[s]:    683.33
	FillingsUpdate:  mu: -0.075869156  nElectrons: 121.000000  magneticMoment: [ Abs: 0.90556  Tot: +0.74284 ]
SCF: Cycle: 14   F: -222.291869210186547   dF: -3.362e-04   |Residual|: 3.881e-03   |deigs|: 4.876e-03  t[s]:    721.84
	FillingsUpdate:  mu: -0.071932045  nElectrons: 121.000000  magneticMoment: [ Abs: 0.89248  Tot: +0.73439 ]
SCF: Cycle: 15   F: -222.292001599219986   dF: -1.324e-04   |Residual|: 3.057e-03   |deigs|: 3.789e-03  t[s]:    760.32
	FillingsUpdate:  mu: -0.072926669  nElectrons: 121.000000  magneticMoment: [ Abs: 0.86044  Tot: +0.70515 ]
SCF: Cycle: 16   F: -222.292038276068070   dF: -3.668e-05   |Residual|: 4.412e-03   |deigs|: 1.560e-03  t[s]:    799.04
	FillingsUpdate:  mu: -0.069392908  nElectrons: 121.000000  magneticMoment: [ Abs: 0.90208  Tot: +0.74425 ]
SCF: Cycle: 17   F: -222.292025790907672   dF: +1.249e-05   |Residual|: 2.632e-03   |deigs|: 3.584e-03  t[s]:    837.56
	FillingsUpdate:  mu: -0.066889862  nElectrons: 121.000000  magneticMoment: [ Abs: 0.91245  Tot: +0.75837 ]
SCF: Cycle: 18   F: -222.292059043860718   dF: -3.325e-05   |Residual|: 6.260e-03   |deigs|: 2.573e-03  t[s]:    876.05
	FillingsUpdate:  mu: -0.067290127  nElectrons: 121.000000  magneticMoment: [ Abs: 0.90990  Tot: +0.75567 ]
SCF: Cycle: 19   F: -222.292045415202296   dF: +1.363e-05   |Residual|: 4.811e-03   |deigs|: 9.008e-04  t[s]:    914.46
	FillingsUpdate:  mu: -0.067255221  nElectrons: 121.000000  magneticMoment: [ Abs: 0.90966  Tot: +0.75472 ]
SCF: Cycle: 20   F: -222.292035242552544   dF: +1.017e-05   |Residual|: 3.292e-03   |deigs|: 7.616e-04  t[s]:    952.81
	FillingsUpdate:  mu: -0.066730428  nElectrons: 121.000000  magneticMoment: [ Abs: 0.90218  Tot: +0.74487 ]
SCF: Cycle: 21   F: -222.292061853342602   dF: -2.661e-05   |Residual|: 6.057e-03   |deigs|: 1.057e-03  t[s]:    991.34
	FillingsUpdate:  mu: -0.066723879  nElectrons: 121.000000  magneticMoment: [ Abs: 0.89818  Tot: +0.73989 ]
SCF: Cycle: 22   F: -222.292063003666811   dF: -1.150e-06   |Residual|: 5.860e-03   |deigs|: 4.715e-04  t[s]:   1029.86
	FillingsUpdate:  mu: -0.066791697  nElectrons: 121.000000  magneticMoment: [ Abs: 0.89325  Tot: +0.73517 ]
SCF: Cycle: 23   F: -222.292064261358149   dF: -1.258e-06   |Residual|: 5.679e-03   |deigs|: 2.713e-04  t[s]:   1068.64
	FillingsUpdate:  mu: -0.066713900  nElectrons: 121.000000  magneticMoment: [ Abs: 0.88679  Tot: +0.72871 ]
SCF: Cycle: 24   F: -222.292065532938580   dF: -1.272e-06   |Residual|: 5.461e-03   |deigs|: 1.182e-04  t[s]:   1107.06
	FillingsUpdate:  mu: -0.066714393  nElectrons: 121.000000  magneticMoment: [ Abs: 0.87473  Tot: +0.71626 ]
SCF: Cycle: 25   F: -222.292068651595258   dF: -3.119e-06   |Residual|: 5.013e-03   |deigs|: 5.185e-04  t[s]:   1145.83
	FillingsUpdate:  mu: -0.066754436  nElectrons: 121.000000  magneticMoment: [ Abs: 0.86592  Tot: +0.70751 ]
SCF: Cycle: 26   F: -222.292070567440504   dF: -1.916e-06   |Residual|: 4.699e-03   |deigs|: 1.401e-04  t[s]:   1184.40
	FillingsUpdate:  mu: -0.066758030  nElectrons: 121.000000  magneticMoment: [ Abs: 0.83833  Tot: +0.68147 ]
SCF: Cycle: 27   F: -222.292074799813463   dF: -4.232e-06   |Residual|: 3.796e-03   |deigs|: 2.497e-04  t[s]:   1222.91
	FillingsUpdate:  mu: -0.066761123  nElectrons: 121.000000  magneticMoment: [ Abs: 0.78930  Tot: +0.63551 ]
SCF: Cycle: 28   F: -222.292080832516376   dF: -6.033e-06   |Residual|: 2.173e-03   |deigs|: 2.744e-04  t[s]:   1261.54
	FillingsUpdate:  mu: -0.066764135  nElectrons: 121.000000  magneticMoment: [ Abs: 0.78115  Tot: +0.62824 ]
SCF: Cycle: 29   F: -222.292082562273634   dF: -1.730e-06   |Residual|: 1.914e-03   |deigs|: 3.012e-04  t[s]:   1300.24
	FillingsUpdate:  mu: -0.066896972  nElectrons: 121.000000  magneticMoment: [ Abs: 0.73034  Tot: +0.57925 ]
SCF: Cycle: 30   F: -222.292084735906201   dF: -2.174e-06   |Residual|: 2.499e-04   |deigs|: 7.009e-04  t[s]:   1338.80
	FillingsUpdate:  mu: -0.067172600  nElectrons: 121.000000  magneticMoment: [ Abs: 0.72286  Tot: +0.57262 ]
SCF: Cycle: 31   F: -222.292085472269861   dF: -7.364e-07   |Residual|: 1.248e-04   |deigs|: 3.538e-04  t[s]:   1377.41
	FillingsUpdate:  mu: -0.067246347  nElectrons: 121.000000  magneticMoment: [ Abs: 0.72257  Tot: +0.57176 ]
SCF: Cycle: 32   F: -222.292085478058226   dF: -5.788e-09   |Residual|: 1.174e-04   |deigs|: 3.105e-04  t[s]:   1416.03
	FillingsUpdate:  mu: -0.067289224  nElectrons: 121.000000  magneticMoment: [ Abs: 0.72223  Tot: +0.57148 ]
SCF: Cycle: 33   F: -222.292085426672458   dF: +5.139e-08   |Residual|: 1.126e-04   |deigs|: 3.392e-04  t[s]:   1454.70
	FillingsUpdate:  mu: -0.067321233  nElectrons: 121.000000  magneticMoment: [ Abs: 0.72207  Tot: +0.57158 ]
SCF: Cycle: 34   F: -222.292085432956668   dF: -6.284e-09   |Residual|: 1.020e-04   |deigs|: 4.627e-04  t[s]:   1493.14
	FillingsUpdate:  mu: -0.067341081  nElectrons: 121.000000  magneticMoment: [ Abs: 0.72171  Tot: +0.57154 ]
SCF: Cycle: 35   F: -222.292085431111786   dF: +1.845e-09   |Residual|: 8.590e-05   |deigs|: 6.508e-05  t[s]:   1531.81
	FillingsUpdate:  mu: -0.067328095  nElectrons: 121.000000  magneticMoment: [ Abs: 0.72081  Tot: +0.57115 ]
SCF: Cycle: 36   F: -222.292085460690686   dF: -2.958e-08   |Residual|: 7.408e-05   |deigs|: 1.780e-04  t[s]:   1570.33
	FillingsUpdate:  mu: -0.067231254  nElectrons: 121.000000  magneticMoment: [ Abs: 0.72014  Tot: +0.57060 ]
SCF: Cycle: 37   F: -222.292085573951510   dF: -1.133e-07   |Residual|: 5.561e-05   |deigs|: 5.668e-04  t[s]:   1608.86
	FillingsUpdate:  mu: -0.067192627  nElectrons: 121.000000  magneticMoment: [ Abs: 0.71987  Tot: +0.57007 ]
SCF: Cycle: 38   F: -222.292085577028757   dF: -3.077e-09   |Residual|: 3.722e-05   |deigs|: 5.329e-04  t[s]:   1647.55
	FillingsUpdate:  mu: -0.067195905  nElectrons: 121.000000  magneticMoment: [ Abs: 0.71923  Tot: +0.56972 ]
SCF: Cycle: 39   F: -222.292085581657062   dF: -4.628e-09   |Residual|: 2.743e-05   |deigs|: 5.489e-05  t[s]:   1686.21
SCF: Converged (|Delta E|<1.000000e-08 for 2 iters).


Computing DFT-D3 correction:
# coordination-number N 3.167 3.167 3.888 3.167 3.888 3.147 3.147 3.888 3.167 3.888 3.888 3.167 3.167 3.888
# coordination-number B 4.172 3.383 3.383 3.383 3.383 4.172 4.172 4.172 3.383 3.383 4.172 4.172 3.354 3.354
# coordination-number Na 9.967
# diagonal-C6 N 15.60 15.60 15.58 15.60 15.58 15.61 15.61 15.58 15.60 15.58 15.58 15.60 15.60 15.58
# diagonal-C6 B 28.04 31.43 31.43 31.43 31.43 28.04 28.04 28.04 31.43 31.43 28.04 28.04 31.44 31.44
# diagonal-C6 Na 186.11
EvdW_6 =   -0.036521
EvdW_8 =   -0.030435

# Ionic positions in lattice coordinates:
ion N   0.952380952379803   0.761904761902463   0.000000000000000 0
ion N   1.428571428570279   1.285714285711987   0.208000000000000 0
ion N   0.380952380951232   0.904761904759606   0.000000000000000 0
ion N   0.714285714284565   1.142857142854844   0.208000000000000 0
ion N   0.523809523808374   0.619047619045320   0.000000000000000 0
ion N   0.999999999998850   0.999999999997701   0.208000000000000 0
ion N   0.666666666665517   0.333333333331034   0.000000000000000 0
ion N   1.285714285713136   0.857142857140558   0.208000000000000 0
ion N   0.809523809522660   0.047619047616749   0.000000000000000 0
ion N   1.571428571427422   0.714285714283415   0.208000000000000 0
ion N   0.095238095236946   0.476190476188177   0.000000000000000 0
ion N   0.238095238094089   0.190476190473892   0.000000000000000 0
ion N   0.857142857141708   0.571428571426273   0.208000000000000 0
ion N   1.142857142855993   0.428571428569130   0.208000000000000 0
ion B   0.571428571427422   0.857142857140558   0.000000000000000 0
ion B   0.952380952379803   1.190476190473892   0.208000000000000 0
ion B   0.714285714284565   0.571428571426273   0.000000000000000 0
ion B   1.238095238094089   1.047619047616749   0.208000000000000 0
ion B   0.857142857141708   0.285714285711987   0.000000000000000 0
ion B   1.523809523808374   0.904761904759606   0.208000000000000 0
ion B   0.142857142855993   0.714285714283415   0.000000000000000 0
ion B   0.285714285713136   0.428571428569130   0.000000000000000 0
ion B   0.809523809522660   0.761904761902463   0.208000000000000 0
ion B   0.428571428570279   0.142857142854844   0.000000000000000 0
ion B   1.095238095236946   0.619047619045320   0.208000000000000 0
ion B   1.380952380951231   0.476190476188177   0.208000000000000 0
ion B  -0.000000000001149  -0.000000000002299   0.000000000000000 0
ion B   0.666666666665517   0.333333333331034   0.208000000000000 0
ion Na   0.333333333332184   0.666666666664368   0.104000000000000 0

# Forces in Lattice coordinates:
force N   0.002734341945407  -0.009929289750084   0.030824324902004 0
force N  -0.009929289750084   0.002734341945407  -0.030824324902004 0
force N  -0.011015213421814  -0.029559560781802   0.164241899272039 0
force N   0.007194947804677  -0.009929289750084  -0.030824324902118 0
force N  -0.029559560781800   0.040574774203615   0.164241899272039 0
force N   0.000000000000000   0.000000000000000  -0.048371485194477 0
force N   0.000000000000000   0.000000000000000   0.048371485194363 0
force N   0.040574774203615  -0.029559560781800  -0.164241899271925 0
force N  -0.009929289750084   0.007194947804677   0.030824324902345 0
force N  -0.029559560781802  -0.011015213421814  -0.164241899271925 0
force N   0.040574774203615  -0.011015213421814   0.164241899271925 0
force N   0.007194947804677   0.002734341945407   0.030824324902232 0
force N   0.002734341945407   0.007194947804677  -0.030824324902232 0
force N  -0.011015213421814   0.040574774203615  -0.164241899272039 0
force B   0.100492348933170   0.041464044960162  -0.330713368095222 0
force B  -0.023248385222104  -0.035992121087824   0.018835654421653 0
force B   0.059240506309928  -0.035992121087824  -0.018835654421653 0
force B  -0.035992121087824   0.059240506309928   0.018835654421653 0
force B  -0.035992121087824  -0.023248385222104  -0.018835654421653 0
force B   0.041464044960162   0.100492348933171   0.330713368095222 0
force B  -0.141956393893334   0.100492348933171  -0.330713368095222 0
force B   0.041464044960162  -0.141956393893331  -0.330713368095222 0
force B   0.059240506309928  -0.023248385222104   0.018835654421653 0
force B  -0.023248385222104   0.059240506309928  -0.018835654421653 0
force B  -0.141956393893331   0.041464044960162   0.330713368095279 0
force B   0.100492348933170  -0.141956393893331   0.330713368095279 0
force B   0.000000000000000   0.000000000000000  -0.034873642793633 0
force B   0.000000000000000   0.000000000000000   0.034873642793576 0
force Na   0.000000000000000   0.000000000000000  -0.000000000000000 0

# Energy components:
   Eewald =    -1698.9000254796585523
       EH =    -1525.5029041203065390
     Eloc =     2932.1487223686899597
      Enl =      -21.3638020766492360
   Epulay =       -0.0000190610708103
     EvdW =       -0.0669556055244908
      Exc =      -57.8965742909015972
       KE =      149.2894731523770133
-------------------------------------
     Etot =     -222.2920851130444362
       TS =        0.0000004686126205
-------------------------------------
        F =     -222.2920855816570622

IonicMinimize: Iter:   0  F: -222.292085581657062  |grad|_K:  0.000e+00  t[s]:   1690.36
IonicMinimize: Converged (|grad|_K<1.000000e-04).

#--- Lowdin population analysis ---
# oxidation-state N -0.366 -0.366 -0.382 -0.366 -0.382 -0.370 -0.370 -0.382 -0.366 -0.382 -0.382 -0.366 -0.366 -0.382
# magnetic-moments N -0.008 -0.008 -0.009 -0.008 -0.009 -0.001 -0.001 -0.009 -0.008 -0.009 -0.009 -0.008 -0.008 -0.009
# oxidation-state B +0.357 +0.433 +0.433 +0.433 +0.433 +0.357 +0.357 +0.357 +0.433 +0.433 +0.357 +0.357 +0.437 +0.437
# magnetic-moments B +0.070 +0.026 +0.026 +0.026 +0.026 +0.070 +0.070 +0.070 +0.026 +0.026 +0.070 +0.070 +0.018 +0.018
# oxidation-state Na +0.597
# magnetic-moments Na +0.034


Dumping 'Na-0.208.fillings' ... done
Dumping 'Na-0.208.wfns' ... done
Dumping 'Na-0.208.n_up' ... done
Dumping 'Na-0.208.n_dn' ... done
Dumping 'Na-0.208.eigenvals' ... done
End date and time: Wed Jan 19 20:33:15 2022  (Duration: 0-0:28:15.39)
Done!
