Second Layer Distance is 0.19

--------------------------------------------------------------------------
The library attempted to open the following supporting CUDA libraries,
but each of them failed.  CUDA-aware support is disabled.
libcuda.so.1: cannot open shared object file: No such file or directory
libcuda.dylib: cannot open shared object file: No such file or directory
/usr/lib64/libcuda.so.1: cannot open shared object file: No such file or directory
/usr/lib64/libcuda.dylib: cannot open shared object file: No such file or directory
If you are not interested in CUDA-aware support, then run with
--mca opal_warn_on_missing_libcuda 0 to suppress this message.  If you are interested
in CUDA-aware support, then try setting LD_LIBRARY_PATH to the location
of libcuda.so.1 to get passed this issue.
--------------------------------------------------------------------------
--------------------------------------------------------------------------
No OpenFabrics connection schemes reported that they were able to be
used on a specific port.  As such, the openib BTL (OpenFabrics
support) will be disabled for this port.

  Local host:           d-16-3-4
  Local device:         mlx5_1
  Local port:           1
  CPCs attempted:       rdmacm, udcm
--------------------------------------------------------------------------

*************** JDFTx 1.6.0 (git hash 42ebbcc2) ***************

Start date and time: Wed Jan 19 20:04:13 2022
Executable jdftx with command-line: -i Moire.in
Running on hosts (process indices):  d-16-3-4 (0-18)
Divided in process groups (process indices):  0 (0)  1 (1)  2 (2)  3 (3)  4 (4)  5 (5)  6 (6)  7 (7)  8 (8)  9 (9)  10 (10)  11 (11)  12 (12)  13 (13)  14 (14)  15 (15)  16 (16)  17 (17)  18 (18)
Resource initialization completed at t[s]:      0.00
Run totals: 19 processes, 48 threads, 0 GPUs


Input parsed successfully to the following command list (including defaults):

basis kpoint-dependent
coords-type Lattice
core-overlap-check vector
coulomb-interaction Slab 001
davidson-band-ratio 1.1
dump End State ElecDensity BandEigs
dump-name Na-0.19.$VAR
elec-cutoff 20
elec-eigen-algo Davidson
elec-ex-corr gga-PBE
elec-initial-magnetization 0.100000 no
elec-smearing Fermi 1e-05
electronic-minimize  \
	dirUpdateScheme      FletcherReeves \
	linminMethod         DirUpdateRecommended \
	nIterations          100 \
	history              15 \
	knormThreshold       0 \
	energyDiffThreshold  1e-08 \
	nEnergyDiff          2 \
	alphaTstart          1 \
	alphaTmin            1e-10 \
	updateTestStepSize   yes \
	alphaTreduceFactor   0.1 \
	alphaTincreaseFactor 3 \
	nAlphaAdjustMax      3 \
	wolfeEnergy          0.0001 \
	wolfeGradient        0.9 \
	fdTest               no
electronic-scf  \
	nIterations	1000 \
	energyDiffThreshold	1e-08 \
	residualThreshold	1e-07 \
	mixFraction	0.5 \
	qMetric	0.8 \
	history	10 \
	nEigSteps	2 \
	eigDiffThreshold	1e-08 \
	mixedVariable	Density \
	qKerker	0.8 \
	qKappa	-1 \
	verbose	no \
	mixFractionMag	1.5
exchange-regularization WignerSeitzTruncated
fluid None
fluid-ex-corr (null) lda-PZ
fluid-gummel-loop 10 1.000000e-05
fluid-minimize  \
	dirUpdateScheme      PolakRibiere \
	linminMethod         DirUpdateRecommended \
	nIterations          100 \
	history              15 \
	knormThreshold       0 \
	energyDiffThreshold  0 \
	nEnergyDiff          2 \
	alphaTstart          1 \
	alphaTmin            1e-10 \
	updateTestStepSize   yes \
	alphaTreduceFactor   0.1 \
	alphaTincreaseFactor 3 \
	nAlphaAdjustMax      3 \
	wolfeEnergy          0.0001 \
	wolfeGradient        0.9 \
	fdTest               no
fluid-solvent H2O 55.338 ScalarEOS \
	epsBulk 78.4 \
	pMol 0.92466 \
	epsInf 1.77 \
	Pvap 1.06736e-10 \
	sigmaBulk 4.62e-05 \
	Rvdw 2.61727 \
	Res 1.42 \
	tauNuc 343133 \
	poleEl 15 7 1
forces-output-coords Positions
ion N   0.952380952380952   0.761904761904762   0.000000000000000 0
ion N   1.428571428571428   1.285714285714286   0.190000000000000 0
ion N   0.380952380952381   0.904761904761905   0.000000000000000 0
ion N   0.714285714285714   1.142857142857143   0.190000000000000 0
ion N   0.523809523809524   0.619047619047619   0.000000000000000 0
ion N   1.000000000000000   1.000000000000000   0.190000000000000 0
ion N   0.666666666666667   0.333333333333333   0.000000000000000 0
ion N   1.285714285714286   0.857142857142857   0.190000000000000 0
ion N   0.809523809523810   0.047619047619048   0.000000000000000 0
ion N   1.571428571428571   0.714285714285714   0.190000000000000 0
ion N   0.095238095238095   0.476190476190476   0.000000000000000 0
ion N   0.238095238095238   0.190476190476190   0.000000000000000 0
ion N   0.857142857142857   0.571428571428571   0.190000000000000 0
ion N   1.142857142857143   0.428571428571429   0.190000000000000 0
ion B   0.571428571428572   0.857142857142857   0.000000000000000 0
ion B   0.952380952380952   1.190476190476190   0.190000000000000 0
ion B   0.714285714285714   0.571428571428571   0.000000000000000 0
ion B   1.238095238095238   1.047619047619047   0.190000000000000 0
ion B   0.857142857142857   0.285714285714286   0.000000000000000 0
ion B   1.523809523809524   0.904761904761905   0.190000000000000 0
ion B   0.142857142857143   0.714285714285714   0.000000000000000 0
ion B   0.285714285714286   0.428571428571429   0.000000000000000 0
ion B   0.809523809523810   0.761904761904762   0.190000000000000 0
ion B   0.428571428571429   0.142857142857143   0.000000000000000 0
ion B   1.095238095238095   0.619047619047619   0.190000000000000 0
ion B   1.380952380952381   0.476190476190476   0.190000000000000 0
ion B   0.000000000000000   0.000000000000000   0.000000000000000 0
ion B   0.666666666666667   0.333333333333333   0.190000000000000 0
ion Na   0.333333333300000   0.666666666600000   0.095000000000000 0
ion-species SG15/$ID_ONCV_PBE.upf
ion-width 0
ionic-minimize  \
	dirUpdateScheme      L-BFGS \
	linminMethod         DirUpdateRecommended \
	nIterations          0 \
	history              15 \
	knormThreshold       0.0001 \
	energyDiffThreshold  1e-06 \
	nEnergyDiff          2 \
	alphaTstart          1 \
	alphaTmin            1e-10 \
	updateTestStepSize   yes \
	alphaTreduceFactor   0.1 \
	alphaTincreaseFactor 3 \
	nAlphaAdjustMax      3 \
	wolfeEnergy          0.0001 \
	wolfeGradient        0.9 \
	fdTest               no
kpoint   0.000000000000   0.000000000000   0.000000000000  1.00000000000000
kpoint-folding 12 12 1 
latt-move-scale 1 1 1
latt-scale 1 1 1 
lattice  \
	 -11.818700000000000    2.363740000000000    0.000000000000000  \
	   4.094120000000000  -12.282400000000001    0.000000000000000  \
	   0.000000000000000    0.000000000000000   40.000000000000000 
lattice-minimize  \
	dirUpdateScheme      L-BFGS \
	linminMethod         DirUpdateRecommended \
	nIterations          0 \
	history              15 \
	knormThreshold       0 \
	energyDiffThreshold  1e-06 \
	nEnergyDiff          2 \
	alphaTstart          1 \
	alphaTmin            1e-10 \
	updateTestStepSize   yes \
	alphaTreduceFactor   0.1 \
	alphaTincreaseFactor 3 \
	nAlphaAdjustMax      3 \
	wolfeEnergy          0.0001 \
	wolfeGradient        0.9 \
	fdTest               no
lcao-params -1 1e-06 1e-05
pcm-variant GLSSA13
spintype z-spin
subspace-rotation-factor 1 yes
symmetries automatic
symmetry-threshold 0.0001
van-der-waals D3



---------- Setting up symmetries ----------

Found 24 point-group symmetries of the bravais lattice
Found 6 space-group symmetries with basis
Applied RMS atom displacement 1.31765e-10 bohrs to make symmetries exact.

---------- Initializing the Grid ----------
R = 
[     -11.8187      2.36374            0  ]
[      4.09412     -12.2824            0  ]
[            0            0           40  ]
unit cell volume = 5419.38
G =
[  -0.569604   -0.10962          0  ]
[  -0.189867    -0.5481          0  ]
[          0          0    0.15708  ]
Minimum fftbox size, Smin = [  52  52  164  ]
Chosen fftbox size, S = [  54  54  168  ]

---------- Exchange Correlation functional ----------
Initalized PBE GGA exchange.
Initalized PBE GGA correlation.

---------- Setting up pseudopotentials ----------
Width of ionic core gaussian charges (only for fluid interactions / plotting) set to 0

Reading pseudopotential file '/home/gridsan/aligho/DFT/build-Nov24/pseudopotentials/SG15/N_ONCV_PBE.upf':
  'N' pseudopotential, 'PBE' functional
  Generated using ONCVPSP code by D. R. Hamann
  Author: Martin Schlipf and Francois Gygi  Date: 150915.
  5 valence electrons, 2 orbitals, 4 projectors, 1058 radial grid points, with lMax = 1
  Transforming local potential to a uniform radial grid of dG=0.02 with 1514 points.
  Transforming nonlocal projectors to a uniform radial grid of dG=0.02 with 432 points.
    2S    l: 0   occupation:  2.0   eigenvalue: -0.682907
    2P    l: 1   occupation:  3.0   eigenvalue: -0.260548
  Transforming atomic orbitals to a uniform radial grid of dG=0.02 with 432 points.
  Core radius for overlap checks: 1.35 bohrs.
  Reading pulay file /home/gridsan/aligho/DFT/build-Nov24/pseudopotentials/SG15/N_ONCV_PBE.pulay ... using dE_dnG = -2.956256e-02 computed for Ecut = 20.

Reading pseudopotential file '/home/gridsan/aligho/DFT/build-Nov24/pseudopotentials/SG15/B_ONCV_PBE.upf':
  'B' pseudopotential, 'PBE' functional
  Generated using ONCVPSP code by D. R. Hamann
  Author: Martin Schlipf and Francois Gygi  Date: 150915.
  3 valence electrons, 2 orbitals, 4 projectors, 1534 radial grid points, with lMax = 1
  Transforming local potential to a uniform radial grid of dG=0.02 with 1514 points.
  Transforming nonlocal projectors to a uniform radial grid of dG=0.02 with 432 points.
    2S    l: 0   occupation:  2.0   eigenvalue: -0.347027
    2P    l: 1   occupation:  1.0   eigenvalue: -0.132548
  Transforming atomic orbitals to a uniform radial grid of dG=0.02 with 432 points.
  Core radius for overlap checks: 1.60 bohrs.
  Reading pulay file /home/gridsan/aligho/DFT/build-Nov24/pseudopotentials/SG15/B_ONCV_PBE.pulay ... using dE_dnG = -3.748568e-04 computed for Ecut = 20.

Reading pseudopotential file '/home/gridsan/aligho/DFT/build-Nov24/pseudopotentials/SG15/Na_ONCV_PBE.upf':
  'Na' pseudopotential, 'PBE' functional
  Generated using ONCVPSP code by D. R. Hamann
  Author: Martin Schlipf and Francois Gygi  Date: 150915.
  9 valence electrons, 3 orbitals, 4 projectors, 1992 radial grid points, with lMax = 1
  Transforming local potential to a uniform radial grid of dG=0.02 with 1514 points.
  Transforming nonlocal projectors to a uniform radial grid of dG=0.02 with 432 points.
    2S    l: 0   occupation:  2.0   eigenvalue: -2.085640
    2P    l: 1   occupation:  6.0   eigenvalue: -1.053708
    3S    l: 0   occupation:  1.0   eigenvalue: -0.100838
  Transforming atomic orbitals to a uniform radial grid of dG=0.02 with 432 points.
  Core radius for overlap checks: 2.01 bohrs.
  Reading pulay file /home/gridsan/aligho/DFT/build-Nov24/pseudopotentials/SG15/Na_ONCV_PBE.pulay ... using dE_dnG = -2.946487e-03 computed for Ecut = 20.

Initialized 3 species with 29 total atoms.

Folded 1 k-points by 12x12x1 to 144 k-points.

---------- Setting up k-points, bands, fillings ----------
Adding inversion symmetry to k-mesh for non-inversion-symmetric unit cell.
Reduced to 19 k-points under symmetry. 
Computing the number of bands and number of electrons
Calculating initial fillings.
nElectrons: 121.000000   nBands: 117   nStates: 38

----- Setting up reduced wavefunction bases (one per k-point) -----
average nbasis = 23151.771 , ideal nbasis = 23152.016

---------- Setting up coulomb interaction ----------
Initialized slab truncation along lattice direction 001

Initializing DFT-D3 calculator:
	Parameters set for gga-PBE functional
	s6:  1.000  s_r6:  1.217
	s8:  0.722  s_r8:  1.000
	Per-atom parameters loaded for:
	 N:  sqrtQ[a0]:  2.712  Rcov[a0]:  1.342  CN: [ 0.00 0.99 2.01 2.99 ]
	 B:  sqrtQ[a0]:  3.644  Rcov[a0]:  1.455  CN: [ 0.00 0.97 1.94 2.91 4.59 ]
	Na:  sqrtQ[a0]:  6.586  Rcov[a0]:  2.646  CN: [ 0.00 0.97 ]

---------- Setting up 2D ewald sum ----------
Optimum gaussian width for ewald sums = 6.943804 bohr.
Real space sums over 289 unit cells with max indices [  8  8  0  ]
Reciprocal space sums over 81 terms with max indices [  4  4  0  ]

Computing DFT-D3 correction:
# coordination-number N 3.181 3.181 4.037 3.181 4.037 3.149 3.149 4.037 3.181 4.037 4.037 3.181 3.181 4.037
# coordination-number B 4.280 3.403 3.403 3.403 3.403 4.280 4.280 4.280 3.403 3.403 4.280 4.280 3.358 3.358
# coordination-number Na 11.706
# diagonal-C6 N 15.60 15.60 15.58 15.60 15.58 15.61 15.61 15.58 15.60 15.58 15.58 15.60 15.60 15.58
# diagonal-C6 B 28.03 31.42 31.42 31.42 31.42 28.03 28.03 28.03 31.42 31.42 28.03 28.03 31.44 31.44
# diagonal-C6 Na 186.11
EvdW_6 =   -0.039777
EvdW_8 =   -0.032366

---------- Allocating electronic variables ----------
Initializing wave functions:  linear combination of atomic orbitals
N pseudo-atom occupations:   s ( 2 )  p ( 3 )
B pseudo-atom occupations:   s ( 2 )  p ( 1 )
Na pseudo-atom occupations:   s ( 2 1 )  p ( 6 )
[d-16-3-4:20883] 18 more processes have sent help message help-mpi-common-cuda.txt / dlopen failed
[d-16-3-4:20883] Set MCA parameter "orte_base_help_aggregate" to 0 to see all help / error messages
[d-16-3-4:20883] 18 more processes have sent help message help-mpi-btl-openib-cpc-base.txt / no cpcs for port
	FillingsUpdate:  mu: -0.189369043  nElectrons: 121.000000  magneticMoment: [ Abs: 0.12217  Tot: +0.11111 ]
LCAOMinimize: Iter:   0  F: -219.8228445773185911  |grad|_K:  3.292e-03  alpha:  1.000e+00
	FillingsUpdate:  mu: -0.163997435  nElectrons: 121.000000  magneticMoment: [ Abs: 0.13734  Tot: +0.11932 ]
LCAOMinimize: Iter:   1  F: -220.8720385328007580  |grad|_K:  3.616e-04  alpha:  4.394e-01  linmin:  2.557e-01  cgtest: -1.082e+00  t[s]:     46.49
LCAOMinimize: 	Bad step direction: g.d > 0.
LCAOMinimize: 	Undoing step.
LCAOMinimize: 	Step failed: resetting search direction.
	FillingsUpdate:  mu: -0.163997435  nElectrons: 121.000000  magneticMoment: [ Abs: 0.13734  Tot: +0.11932 ]
LCAOMinimize: Iter:   2  F: -220.8720385328007580  |grad|_K:  3.616e-04  alpha:  0.000e+00
	FillingsUpdate:  mu: -0.169523078  nElectrons: 121.000000  magneticMoment: [ Abs: 0.13715  Tot: +0.11111 ]
LCAOMinimize: Iter:   3  F: -220.8864149151853553  |grad|_K:  9.148e-06  alpha:  4.152e-01  linmin:  1.492e-01  cgtest: -3.345e-01  t[s]:     70.84
	FillingsUpdate:  mu: -0.170024394  nElectrons: 121.000000  magneticMoment: [ Abs: 0.14200  Tot: +0.11111 ]
LCAOMinimize: Iter:   4  F: -220.8864259117451070  |grad|_K:  4.632e-06  alpha:  5.585e-01  linmin:  4.179e-05  cgtest:  2.555e-01  t[s]:     85.04
	FillingsUpdate:  mu: -0.170042252  nElectrons: 121.000000  magneticMoment: [ Abs: 0.14509  Tot: +0.11111 ]
LCAOMinimize: Iter:   5  F: -220.8864284702815439  |grad|_K:  1.218e-06  alpha:  4.508e-01  linmin:  3.004e-05  cgtest: -2.230e-02  t[s]:     99.22
	FillingsUpdate:  mu: -0.169975216  nElectrons: 121.000000  magneticMoment: [ Abs: 0.14848  Tot: +0.11111 ]
LCAOMinimize: Iter:   6  F: -220.8864287684508270  |grad|_K:  3.630e-07  alpha:  7.594e-01  linmin: -5.963e-05  cgtest: -4.034e-05  t[s]:    113.42
	FillingsUpdate:  mu: -0.169991187  nElectrons: 121.000000  magneticMoment: [ Abs: 0.14983  Tot: +0.11113 ]
LCAOMinimize: Iter:   7  F: -220.8864287886786713  |grad|_K:  1.833e-07  alpha:  5.803e-01  linmin: -4.577e-05  cgtest: -4.851e-03  t[s]:    127.63
LCAOMinimize: Converged (|Delta F|<1.000000e-06 for 2 iters).


---- Citations for features of the code used in this run ----

   Software package:
      R. Sundararaman, K. Letchworth-Weaver, K.A. Schwarz, D. Gunceler, Y. Ozhabes and T.A. Arias, 'JDFTx: software for joint density-functional theory', SoftwareX 6, 278 (2017)

   gga-PBE exchange-correlation functional:
      J.P. Perdew, K. Burke and M. Ernzerhof, Phys. Rev. Lett. 77, 3865 (1996)

   Pseudopotentials:
      M Schlipf and F Gygi, Comput. Phys. Commun. 196, 36 (2015)

   Truncated Coulomb potentials:
      R. Sundararaman and T.A. Arias, Phys. Rev. B 87, 165122 (2013)

   DFT-D3 dispersion correction:
      S. Grimme, J. Antony, S. Ehrlich and H. Krieg, J. Chem. Phys. 132, 154104 (2010)

This list may not be complete. Please suggest additional citations or
report any other bugs at https://github.com/shankar1729/jdftx/issues

Initialization completed successfully at t[s]:    129.09


Computing DFT-D3 correction:
# coordination-number N 3.181 3.181 4.037 3.181 4.037 3.149 3.149 4.037 3.181 4.037 4.037 3.181 3.181 4.037
# coordination-number B 4.280 3.403 3.403 3.403 3.403 4.280 4.280 4.280 3.403 3.403 4.280 4.280 3.358 3.358
# coordination-number Na 11.706
# diagonal-C6 N 15.60 15.60 15.58 15.60 15.58 15.61 15.61 15.58 15.60 15.58 15.58 15.60 15.60 15.58
# diagonal-C6 B 28.03 31.42 31.42 31.42 31.42 28.03 28.03 28.03 31.42 31.42 28.03 28.03 31.44 31.44
# diagonal-C6 Na 186.11
EvdW_6 =   -0.039777
EvdW_8 =   -0.032366

-------- Electronic minimization -----------
Will mix electronic density at each iteration.
	FillingsUpdate:  mu: -0.169991187  nElectrons: 121.000000  magneticMoment: [ Abs: 0.14983  Tot: +0.11113 ]
	FillingsUpdate:  mu: -0.186645746  nElectrons: 121.000000  magneticMoment: [ Abs: 0.14983  Tot: +0.11113 ]
SCF: Cycle:  0   F: -222.174577602388155   dF: -1.288e+00   |Residual|: 3.856e-01   |deigs|: 1.056e-01  t[s]:    173.04
	FillingsUpdate:  mu: -0.171252167  nElectrons: 121.000000  magneticMoment: [ Abs: 0.24446  Tot: +0.11726 ]
SCF: Cycle:  1   F: -222.232870810191002   dF: -5.829e-02   |Residual|: 2.149e-01   |deigs|: 1.903e-02  t[s]:    205.97
	FillingsUpdate:  mu: -0.147540054  nElectrons: 121.000000  magneticMoment: [ Abs: 0.77069  Tot: +0.15516 ]
SCF: Cycle:  2   F: -222.270192339051334   dF: -3.732e-02   |Residual|: 4.799e-02   |deigs|: 2.360e-02  t[s]:    238.87
	FillingsUpdate:  mu: -0.147221812  nElectrons: 121.000000  magneticMoment: [ Abs: 0.94846  Tot: +0.17736 ]
SCF: Cycle:  3   F: -222.271605309464604   dF: -1.413e-03   |Residual|: 4.052e-02   |deigs|: 2.497e-03  t[s]:    271.77
	FillingsUpdate:  mu: -0.137138570  nElectrons: 121.000000  magneticMoment: [ Abs: 1.43578  Tot: +0.34344 ]
SCF: Cycle:  4   F: -222.276501804222733   dF: -4.896e-03   |Residual|: 2.163e-02   |deigs|: 1.090e-02  t[s]:    304.69
	FillingsUpdate:  mu: -0.127020403  nElectrons: 121.000000  magneticMoment: [ Abs: 1.20997  Tot: +0.48552 ]
SCF: Cycle:  5   F: -222.279441947522997   dF: -2.940e-03   |Residual|: 2.377e-02   |deigs|: 9.685e-03  t[s]:    337.67
	FillingsUpdate:  mu: -0.116071167  nElectrons: 121.000000  magneticMoment: [ Abs: 1.14337  Tot: +0.68660 ]
SCF: Cycle:  6   F: -222.280422770130031   dF: -9.808e-04   |Residual|: 1.625e-02   |deigs|: 1.179e-02  t[s]:    370.71
	FillingsUpdate:  mu: -0.108304200  nElectrons: 121.000000  magneticMoment: [ Abs: 1.27575  Tot: +0.83762 ]
SCF: Cycle:  7   F: -222.280899985688677   dF: -4.772e-04   |Residual|: 1.262e-02   |deigs|: 9.159e-03  t[s]:    403.74
	FillingsUpdate:  mu: -0.102187731  nElectrons: 121.000000  magneticMoment: [ Abs: 1.33936  Tot: +0.93931 ]
SCF: Cycle:  8   F: -222.281177911516750   dF: -2.779e-04   |Residual|: 9.590e-03   |deigs|: 6.321e-03  t[s]:    436.81
	FillingsUpdate:  mu: -0.099833839  nElectrons: 121.000000  magneticMoment: [ Abs: 1.30674  Tot: +0.95919 ]
SCF: Cycle:  9   F: -222.281118842598062   dF: +5.907e-05   |Residual|: 5.659e-03   |deigs|: 2.326e-03  t[s]:    469.92
	FillingsUpdate:  mu: -0.093228209  nElectrons: 121.000000  magneticMoment: [ Abs: 1.32875  Tot: +1.02904 ]
SCF: Cycle: 10   F: -222.281382165778382   dF: -2.633e-04   |Residual|: 5.182e-03   |deigs|: 6.751e-03  t[s]:    503.11
	FillingsUpdate:  mu: -0.089840152  nElectrons: 121.000000  magneticMoment: [ Abs: 1.32401  Tot: +1.03226 ]
SCF: Cycle: 11   F: -222.281587605274780   dF: -2.054e-04   |Residual|: 4.216e-03   |deigs|: 3.073e-03  t[s]:    536.23
	FillingsUpdate:  mu: -0.085108583  nElectrons: 121.000000  magneticMoment: [ Abs: 1.32783  Tot: +1.01700 ]
SCF: Cycle: 12   F: -222.281869844909693   dF: -2.822e-04   |Residual|: 3.834e-03   |deigs|: 4.035e-03  t[s]:    569.40
	FillingsUpdate:  mu: -0.077796430  nElectrons: 121.000000  magneticMoment: [ Abs: 1.33566  Tot: +1.01590 ]
SCF: Cycle: 13   F: -222.282204539070307   dF: -3.347e-04   |Residual|: 3.738e-03   |deigs|: 6.214e-03  t[s]:    602.51
	FillingsUpdate:  mu: -0.068463090  nElectrons: 121.000000  magneticMoment: [ Abs: 1.32249  Tot: +1.01292 ]
SCF: Cycle: 14   F: -222.282534998852157   dF: -3.305e-04   |Residual|: 3.098e-03   |deigs|: 8.021e-03  t[s]:    635.62
	FillingsUpdate:  mu: -0.063117453  nElectrons: 121.000000  magneticMoment: [ Abs: 1.29782  Tot: +1.00797 ]
SCF: Cycle: 15   F: -222.282620539966103   dF: -8.554e-05   |Residual|: 2.083e-03   |deigs|: 4.902e-03  t[s]:    668.76
	FillingsUpdate:  mu: -0.061333291  nElectrons: 121.000000  magneticMoment: [ Abs: 1.28031  Tot: +1.00183 ]
SCF: Cycle: 16   F: -222.282620203340286   dF: +3.366e-07   |Residual|: 2.040e-03   |deigs|: 1.737e-03  t[s]:    701.87
	FillingsUpdate:  mu: -0.061539211  nElectrons: 121.000000  magneticMoment: [ Abs: 1.27268  Tot: +0.99772 ]
SCF: Cycle: 17   F: -222.282622347880874   dF: -2.145e-06   |Residual|: 1.182e-03   |deigs|: 4.706e-04  t[s]:    734.97
	FillingsUpdate:  mu: -0.061225525  nElectrons: 121.000000  magneticMoment: [ Abs: 1.26668  Tot: +0.99761 ]
SCF: Cycle: 18   F: -222.282622710930610   dF: -3.630e-07   |Residual|: 5.131e-04   |deigs|: 6.404e-04  t[s]:    768.14
	FillingsUpdate:  mu: -0.060896267  nElectrons: 121.000000  magneticMoment: [ Abs: 1.26766  Tot: +0.99857 ]
SCF: Cycle: 19   F: -222.282623986310085   dF: -1.275e-06   |Residual|: 7.909e-04   |deigs|: 4.376e-04  t[s]:    801.33
	FillingsUpdate:  mu: -0.060641453  nElectrons: 121.000000  magneticMoment: [ Abs: 1.27057  Tot: +0.99985 ]
SCF: Cycle: 20   F: -222.282623459756451   dF: +5.266e-07   |Residual|: 3.922e-04   |deigs|: 3.192e-04  t[s]:    834.51
	FillingsUpdate:  mu: -0.060347149  nElectrons: 121.000000  magneticMoment: [ Abs: 1.26850  Tot: +1.00021 ]
SCF: Cycle: 21   F: -222.282627328792643   dF: -3.869e-06   |Residual|: 2.101e-03   |deigs|: 8.088e-04  t[s]:    867.62
	FillingsUpdate:  mu: -0.060046782  nElectrons: 121.000000  magneticMoment: [ Abs: 1.27223  Tot: +1.00141 ]
SCF: Cycle: 22   F: -222.282622978526945   dF: +4.350e-06   |Residual|: 7.853e-04   |deigs|: 7.898e-04  t[s]:    900.79
	FillingsUpdate:  mu: -0.059754427  nElectrons: 121.000000  magneticMoment: [ Abs: 1.27276  Tot: +1.00154 ]
SCF: Cycle: 23   F: -222.282629385405812   dF: -6.407e-06   |Residual|: 1.205e-03   |deigs|: 7.196e-04  t[s]:    933.94
	FillingsUpdate:  mu: -0.059256100  nElectrons: 121.000000  magneticMoment: [ Abs: 1.27705  Tot: +1.00226 ]
SCF: Cycle: 24   F: -222.282630328649731   dF: -9.432e-07   |Residual|: 6.207e-04   |deigs|: 5.047e-04  t[s]:    967.11
	FillingsUpdate:  mu: -0.058811076  nElectrons: 121.000000  magneticMoment: [ Abs: 1.28078  Tot: +1.00267 ]
SCF: Cycle: 25   F: -222.282630836713537   dF: -5.081e-07   |Residual|: 2.041e-04   |deigs|: 6.057e-04  t[s]:   1000.29
	FillingsUpdate:  mu: -0.058621279  nElectrons: 121.000000  magneticMoment: [ Abs: 1.28182  Tot: +1.00258 ]
SCF: Cycle: 26   F: -222.282630935840274   dF: -9.913e-08   |Residual|: 1.093e-04   |deigs|: 3.272e-04  t[s]:   1033.46
	FillingsUpdate:  mu: -0.058464416  nElectrons: 121.000000  magneticMoment: [ Abs: 1.28185  Tot: +1.00223 ]
SCF: Cycle: 27   F: -222.282631037792697   dF: -1.020e-07   |Residual|: 8.173e-05   |deigs|: 6.623e-04  t[s]:   1066.59
	FillingsUpdate:  mu: -0.058492048  nElectrons: 121.000000  magneticMoment: [ Abs: 1.28060  Tot: +1.00152 ]
SCF: Cycle: 28   F: -222.282631061060442   dF: -2.327e-08   |Residual|: 8.851e-05   |deigs|: 6.762e-04  t[s]:   1099.76
	FillingsUpdate:  mu: -0.058527723  nElectrons: 121.000000  magneticMoment: [ Abs: 1.27971  Tot: +1.00099 ]
SCF: Cycle: 29   F: -222.282631052612544   dF: +8.448e-09   |Residual|: 1.411e-04   |deigs|: 4.187e-04  t[s]:   1132.92
	FillingsUpdate:  mu: -0.058523628  nElectrons: 121.000000  magneticMoment: [ Abs: 1.27925  Tot: +1.00067 ]
SCF: Cycle: 30   F: -222.282631044587191   dF: +8.025e-09   |Residual|: 1.765e-04   |deigs|: 1.343e-04  t[s]:   1166.13
	FillingsUpdate:  mu: -0.058485628  nElectrons: 121.000000  magneticMoment: [ Abs: 1.27902  Tot: +1.00047 ]
SCF: Cycle: 31   F: -222.282631055260737   dF: -1.067e-08   |Residual|: 1.820e-04   |deigs|: 2.606e-04  t[s]:   1199.30
	FillingsUpdate:  mu: -0.058462621  nElectrons: 121.000000  magneticMoment: [ Abs: 1.27903  Tot: +1.00037 ]
SCF: Cycle: 32   F: -222.282631066599180   dF: -1.134e-08   |Residual|: 1.646e-04   |deigs|: 1.372e-04  t[s]:   1232.43
	FillingsUpdate:  mu: -0.058313616  nElectrons: 121.000000  magneticMoment: [ Abs: 1.28011  Tot: +1.00034 ]
SCF: Cycle: 33   F: -222.282631091140843   dF: -2.454e-08   |Residual|: 1.710e-05   |deigs|: 1.503e-04  t[s]:   1265.61
	FillingsUpdate:  mu: -0.058309361  nElectrons: 121.000000  magneticMoment: [ Abs: 1.28002  Tot: +1.00024 ]
SCF: Cycle: 34   F: -222.282631094953473   dF: -3.813e-09   |Residual|: 1.565e-05   |deigs|: 5.577e-05  t[s]:   1298.74
	FillingsUpdate:  mu: -0.058306204  nElectrons: 121.000000  magneticMoment: [ Abs: 1.28004  Tot: +1.00016 ]
SCF: Cycle: 35   F: -222.282631099650700   dF: -4.697e-09   |Residual|: 1.019e-05   |deigs|: 7.166e-05  t[s]:   1331.88
SCF: Converged (|Delta E|<1.000000e-08 for 2 iters).


Computing DFT-D3 correction:
# coordination-number N 3.181 3.181 4.037 3.181 4.037 3.149 3.149 4.037 3.181 4.037 4.037 3.181 3.181 4.037
# coordination-number B 4.280 3.403 3.403 3.403 3.403 4.280 4.280 4.280 3.403 3.403 4.280 4.280 3.358 3.358
# coordination-number Na 11.706
# diagonal-C6 N 15.60 15.60 15.58 15.60 15.58 15.61 15.61 15.58 15.60 15.58 15.58 15.60 15.60 15.58
# diagonal-C6 B 28.03 31.42 31.42 31.42 31.42 28.03 28.03 28.03 31.42 31.42 28.03 28.03 31.44 31.44
# diagonal-C6 Na 186.11
EvdW_6 =   -0.039777
EvdW_8 =   -0.032366

# Ionic positions in lattice coordinates:
ion N   0.952380952379803   0.761904761902463   0.000000000000000 0
ion N   1.428571428570279   1.285714285711987   0.190000000000000 0
ion N   0.380952380951232   0.904761904759606   0.000000000000000 0
ion N   0.714285714284565   1.142857142854844   0.190000000000000 0
ion N   0.523809523808374   0.619047619045320   0.000000000000000 0
ion N   0.999999999998850   0.999999999997701   0.190000000000000 0
ion N   0.666666666665517   0.333333333331034   0.000000000000000 0
ion N   1.285714285713136   0.857142857140558   0.190000000000000 0
ion N   0.809523809522660   0.047619047616749   0.000000000000000 0
ion N   1.571428571427422   0.714285714283415   0.190000000000000 0
ion N   0.095238095236946   0.476190476188177   0.000000000000000 0
ion N   0.238095238094089   0.190476190473892   0.000000000000000 0
ion N   0.857142857141708   0.571428571426273   0.190000000000000 0
ion N   1.142857142855993   0.428571428569130   0.190000000000000 0
ion B   0.571428571427422   0.857142857140558   0.000000000000000 0
ion B   0.952380952379803   1.190476190473892   0.190000000000000 0
ion B   0.714285714284565   0.571428571426273   0.000000000000000 0
ion B   1.238095238094089   1.047619047616749   0.190000000000000 0
ion B   0.857142857141708   0.285714285711987   0.000000000000000 0
ion B   1.523809523808374   0.904761904759606   0.190000000000000 0
ion B   0.142857142855993   0.714285714283415   0.000000000000000 0
ion B   0.285714285713136   0.428571428569130   0.000000000000000 0
ion B   0.809523809522660   0.761904761902463   0.190000000000000 0
ion B   0.428571428570279   0.142857142854844   0.000000000000000 0
ion B   1.095238095236946   0.619047619045320   0.190000000000000 0
ion B   1.380952380951231   0.476190476188177   0.190000000000000 0
ion B  -0.000000000001149  -0.000000000002299   0.000000000000000 0
ion B   0.666666666665517   0.333333333331034   0.190000000000000 0
ion Na   0.333333333332184   0.666666666664368   0.095000000000000 0

# Forces in Lattice coordinates:
force N  -0.000674240099300  -0.004474260390544   0.051331535339156 0
force N  -0.004474260390544  -0.000674240099300  -0.051331535339156 0
force N  -0.021252864823611  -0.018833223576406   0.195757390984196 0
force N   0.005148500489844  -0.004474260390544  -0.051331535339156 0
force N  -0.018833223576406   0.040086088400017   0.195757390984196 0
force N   0.000000000000000   0.000000000000000  -0.039255363799381 0
force N   0.000000000000000   0.000000000000000   0.039255363799381 0
force N   0.040086088400018  -0.018833223576406  -0.195757390984196 0
force N  -0.004474260390544   0.005148500489844   0.051331535339156 0
force N  -0.018833223576406  -0.021252864823612  -0.195757390984196 0
force N   0.040086088400017  -0.021252864823611   0.195757390984196 0
force N   0.005148500489844  -0.000674240099300   0.051331535339270 0
force N  -0.000674240099300   0.005148500489844  -0.051331535339042 0
force N  -0.021252864823611   0.040086088400018  -0.195757390984196 0
force B   0.131669802441571   0.050526793742125  -0.477224901512169 0
force B  -0.023877649714094  -0.028411618643275  -0.004485372595857 0
force B   0.052289268357370  -0.028411618643275   0.004485372595857 0
force B  -0.028411618643275   0.052289268357370  -0.004485372595857 0
force B  -0.028411618643275  -0.023877649714094   0.004485372595857 0
force B   0.050526793742124   0.131669802441572   0.477224901512169 0
force B  -0.182196596183697   0.131669802441572  -0.477224901512226 0
force B   0.050526793742125  -0.182196596183695  -0.477224901512226 0
force B   0.052289268357370  -0.023877649714094  -0.004485372595857 0
force B  -0.023877649714094   0.052289268357370   0.004485372595857 0
force B  -0.182196596183697   0.050526793742125   0.477224901512226 0
force B   0.131669802441572  -0.182196596183698   0.477224901512226 0
force B   0.000000000000000   0.000000000000000  -0.025703649040996 0
force B   0.000000000000000   0.000000000000000   0.025703649040996 0
force Na   0.000000000000000   0.000000000000000   0.000000000000000 0

# Energy components:
   Eewald =    -1577.4700788339064275
       EH =    -1402.8718573662101790
     Eloc =     2687.9468212491910890
      Enl =      -21.4701768322455351
   Epulay =       -0.0000190610708103
     EvdW =       -0.0721428761562381
      Exc =      -57.9960748326279187
       KE =      149.6508976411128913
-------------------------------------
     Etot =     -222.2826309119134010
       TS =        0.0000001877372917
-------------------------------------
        F =     -222.2826310996507004

IonicMinimize: Iter:   0  F: -222.282631099650700  |grad|_K:  0.000e+00  t[s]:   1334.77
IonicMinimize: Converged (|grad|_K<1.000000e-04).

#--- Lowdin population analysis ---
# oxidation-state N -0.363 -0.363 -0.382 -0.363 -0.382 -0.369 -0.369 -0.382 -0.363 -0.382 -0.382 -0.363 -0.363 -0.382
# magnetic-moments N -0.015 -0.015 -0.017 -0.015 -0.017 -0.005 -0.005 -0.017 -0.015 -0.017 -0.017 -0.015 -0.015 -0.017
# oxidation-state B +0.319 +0.412 +0.412 +0.412 +0.412 +0.319 +0.319 +0.319 +0.412 +0.412 +0.319 +0.319 +0.421 +0.421
# magnetic-moments B +0.122 +0.056 +0.056 +0.056 +0.056 +0.122 +0.122 +0.122 +0.056 +0.056 +0.122 +0.122 +0.037 +0.037
# oxidation-state Na +0.910
# magnetic-moments Na +0.012


Dumping 'Na-0.19.fillings' ... done
Dumping 'Na-0.19.wfns' ... done
Dumping 'Na-0.19.n_up' ... done
Dumping 'Na-0.19.n_dn' ... done
Dumping 'Na-0.19.eigenvals' ... done
End date and time: Wed Jan 19 20:26:32 2022  (Duration: 0-0:22:19.28)
Done!
