Second Layer Distance is 0.364

--------------------------------------------------------------------------
The library attempted to open the following supporting CUDA libraries,
but each of them failed.  CUDA-aware support is disabled.
libcuda.so.1: cannot open shared object file: No such file or directory
libcuda.dylib: cannot open shared object file: No such file or directory
/usr/lib64/libcuda.so.1: cannot open shared object file: No such file or directory
/usr/lib64/libcuda.dylib: cannot open shared object file: No such file or directory
If you are not interested in CUDA-aware support, then run with
--mca opal_warn_on_missing_libcuda 0 to suppress this message.  If you are interested
in CUDA-aware support, then try setting LD_LIBRARY_PATH to the location
of libcuda.so.1 to get passed this issue.
--------------------------------------------------------------------------
--------------------------------------------------------------------------
No OpenFabrics connection schemes reported that they were able to be
used on a specific port.  As such, the openib BTL (OpenFabrics
support) will be disabled for this port.

  Local host:           d-3-1-2
  Local device:         mlx5_1
  Local port:           1
  CPCs attempted:       rdmacm, udcm
--------------------------------------------------------------------------

*************** JDFTx 1.6.0 (git hash 42ebbcc2) ***************

Start date and time: Mon Jan 24 05:57:24 2022
Executable jdftx with command-line: -i Moire.bands.in
Running on hosts (process indices):  d-3-1-1 (0-47)  d-3-1-2 (48-57)
Divided in process groups (process indices):  0 (0)  1 (1)  2 (2)  3 (3)  4 (4)  5 (5)  6 (6)  7 (7)  8 (8)  9 (9)  10 (10)  11 (11)  12 (12)  13 (13)  14 (14)  15 (15)  16 (16)  17 (17)  18 (18)  19 (19)  20 (20)  21 (21)  22 (22)  23 (23)  24 (24)  25 (25)  26 (26)  27 (27)  28 (28)  29 (29)  30 (30)  31 (31)  32 (32)  33 (33)  34 (34)  35 (35)  36 (36)  37 (37)  38 (38)  39 (39)  40 (40)  41 (41)  42 (42)  43 (43)  44 (44)  45 (45)  46 (46)  47 (47)  48 (48)  49 (49)  50 (50)  51 (51)  52 (52)  53 (53)  54 (54)  55 (55)  56 (56)  57 (57)
Resource initialization completed at t[s]:      0.05
Run totals: 58 processes, 96 threads, 0 GPUs


Input parsed successfully to the following command list (including defaults):

basis kpoint-dependent
coords-type Lattice
core-overlap-check vector
coulomb-interaction Slab 001
davidson-band-ratio 1.1
dump End BandEigs
dump-name Na-bands-0.364.$VAR
elec-cutoff 20
elec-eigen-algo Davidson
elec-ex-corr gga-PBE
elec-initial-magnetization 0.100000 no
elec-smearing Fermi 1e-05
electronic-minimize  \
	dirUpdateScheme      FletcherReeves \
	linminMethod         DirUpdateRecommended \
	nIterations          10000 \
	history              15 \
	knormThreshold       0 \
	energyDiffThreshold  1e-08 \
	nEnergyDiff          2 \
	alphaTstart          1 \
	alphaTmin            1e-10 \
	updateTestStepSize   yes \
	alphaTreduceFactor   0.1 \
	alphaTincreaseFactor 3 \
	nAlphaAdjustMax      3 \
	wolfeEnergy          0.0001 \
	wolfeGradient        0.9 \
	fdTest               no
exchange-regularization WignerSeitzTruncated
fix-electron-density Na-0.364.$VAR
fluid None
fluid-ex-corr (null) lda-PZ
fluid-gummel-loop 10 1.000000e-05
fluid-minimize  \
	dirUpdateScheme      PolakRibiere \
	linminMethod         DirUpdateRecommended \
	nIterations          100 \
	history              15 \
	knormThreshold       0 \
	energyDiffThreshold  0 \
	nEnergyDiff          2 \
	alphaTstart          1 \
	alphaTmin            1e-10 \
	updateTestStepSize   yes \
	alphaTreduceFactor   0.1 \
	alphaTincreaseFactor 3 \
	nAlphaAdjustMax      3 \
	wolfeEnergy          0.0001 \
	wolfeGradient        0.9 \
	fdTest               no
fluid-solvent H2O 55.338 ScalarEOS \
	epsBulk 78.4 \
	pMol 0.92466 \
	epsInf 1.77 \
	Pvap 1.06736e-10 \
	sigmaBulk 4.62e-05 \
	Rvdw 2.61727 \
	Res 1.42 \
	tauNuc 343133 \
	poleEl 15 7 1
forces-output-coords Positions
ion N   0.952380952380952   0.761904761904762   0.000000000000000 0
ion N   1.428571428571428   1.285714285714286   0.364000000000000 0
ion N   0.380952380952381   0.904761904761905   0.000000000000000 0
ion N   0.714285714285714   1.142857142857143   0.364000000000000 0
ion N   0.523809523809524   0.619047619047619   0.000000000000000 0
ion N   1.000000000000000   1.000000000000000   0.364000000000000 0
ion N   0.666666666666667   0.333333333333333   0.000000000000000 0
ion N   1.285714285714286   0.857142857142857   0.364000000000000 0
ion N   0.809523809523810   0.047619047619048   0.000000000000000 0
ion N   1.571428571428571   0.714285714285714   0.364000000000000 0
ion N   0.095238095238095   0.476190476190476   0.000000000000000 0
ion N   0.238095238095238   0.190476190476190   0.000000000000000 0
ion N   0.857142857142857   0.571428571428571   0.364000000000000 0
ion N   1.142857142857143   0.428571428571429   0.364000000000000 0
ion B   0.571428571428572   0.857142857142857   0.000000000000000 0
ion B   0.952380952380952   1.190476190476190   0.364000000000000 0
ion B   0.714285714285714   0.571428571428571   0.000000000000000 0
ion B   1.238095238095238   1.047619047619047   0.364000000000000 0
ion B   0.857142857142857   0.285714285714286   0.000000000000000 0
ion B   1.523809523809524   0.904761904761905   0.364000000000000 0
ion B   0.142857142857143   0.714285714285714   0.000000000000000 0
ion B   0.285714285714286   0.428571428571429   0.000000000000000 0
ion B   0.809523809523810   0.761904761904762   0.364000000000000 0
ion B   0.428571428571429   0.142857142857143   0.000000000000000 0
ion B   1.095238095238095   0.619047619047619   0.364000000000000 0
ion B   1.380952380952381   0.476190476190476   0.364000000000000 0
ion B   0.000000000000000   0.000000000000000   0.000000000000000 0
ion B   0.666666666666667   0.333333333333333   0.364000000000000 0
ion Na   0.333333333300000   0.666666666600000   0.182000000000000 0
ion-species SG15/$ID_ONCV_PBE.upf
ion-width 0
ionic-minimize  \
	dirUpdateScheme      L-BFGS \
	linminMethod         DirUpdateRecommended \
	nIterations          0 \
	history              15 \
	knormThreshold       0.0001 \
	energyDiffThreshold  1e-06 \
	nEnergyDiff          2 \
	alphaTstart          1 \
	alphaTmin            1e-10 \
	updateTestStepSize   yes \
	alphaTreduceFactor   0.1 \
	alphaTincreaseFactor 3 \
	nAlphaAdjustMax      3 \
	wolfeEnergy          0.0001 \
	wolfeGradient        0.9 \
	fdTest               no
kpoint   0.000000000000   0.000000000000   0.000000000000  0.01785714285714
kpoint   0.029411764706   0.000000000000   0.000000000000  0.01785714285714
kpoint   0.058823529412   0.000000000000   0.000000000000  0.01785714285714
kpoint   0.088235294118   0.000000000000   0.000000000000  0.01785714285714
kpoint   0.117647058824   0.000000000000   0.000000000000  0.01785714285714
kpoint   0.147058823529   0.000000000000   0.000000000000  0.01785714285714
kpoint   0.176470588235   0.000000000000   0.000000000000  0.01785714285714
kpoint   0.205882352941   0.000000000000   0.000000000000  0.01785714285714
kpoint   0.235294117647   0.000000000000   0.000000000000  0.01785714285714
kpoint   0.264705882353   0.000000000000   0.000000000000  0.01785714285714
kpoint   0.294117647059   0.000000000000   0.000000000000  0.01785714285714
kpoint   0.323529411765   0.000000000000   0.000000000000  0.01785714285714
kpoint   0.352941176471   0.000000000000   0.000000000000  0.01785714285714
kpoint   0.382352941176   0.000000000000   0.000000000000  0.01785714285714
kpoint   0.411764705882   0.000000000000   0.000000000000  0.01785714285714
kpoint   0.441176470588   0.000000000000   0.000000000000  0.01785714285714
kpoint   0.470588235294   0.000000000000   0.000000000000  0.01785714285714
kpoint   0.500000000000   0.000000000000   0.000000000000  0.01785714285714
kpoint   0.512820512769  -0.025641025385   0.000000000000  0.01785714285714
kpoint   0.525641025538  -0.051282050769   0.000000000000  0.01785714285714
kpoint   0.538461538308  -0.076923076154   0.000000000000  0.01785714285714
kpoint   0.551282051077  -0.102564101538   0.000000000000  0.01785714285714
kpoint   0.564102563846  -0.128205126923   0.000000000000  0.01785714285714
kpoint   0.576923076615  -0.153846152308   0.000000000000  0.01785714285714
kpoint   0.589743589385  -0.179487177692   0.000000000000  0.01785714285714
kpoint   0.602564102154  -0.205128203077   0.000000000000  0.01785714285714
kpoint   0.615384614923  -0.230769228462   0.000000000000  0.01785714285714
kpoint   0.628205127692  -0.256410253846   0.000000000000  0.01785714285714
kpoint   0.641025640462  -0.282051279231   0.000000000000  0.01785714285714
kpoint   0.653846153231  -0.307692304615   0.000000000000  0.01785714285714
kpoint   0.666666666000  -0.333333330000   0.000000000000  0.01785714285714
kpoint   0.639999999360  -0.319999996800   0.000000000000  0.01785714285714
kpoint   0.613333332720  -0.306666663600   0.000000000000  0.01785714285714
kpoint   0.586666666080  -0.293333330400   0.000000000000  0.01785714285714
kpoint   0.559999999440  -0.279999997200   0.000000000000  0.01785714285714
kpoint   0.533333332800  -0.266666664000   0.000000000000  0.01785714285714
kpoint   0.506666666160  -0.253333330800   0.000000000000  0.01785714285714
kpoint   0.479999999520  -0.239999997600   0.000000000000  0.01785714285714
kpoint   0.453333332880  -0.226666664400   0.000000000000  0.01785714285714
kpoint   0.426666666240  -0.213333331200   0.000000000000  0.01785714285714
kpoint   0.399999999600  -0.199999998000   0.000000000000  0.01785714285714
kpoint   0.373333332960  -0.186666664800   0.000000000000  0.01785714285714
kpoint   0.346666666320  -0.173333331600   0.000000000000  0.01785714285714
kpoint   0.319999999680  -0.159999998400   0.000000000000  0.01785714285714
kpoint   0.293333333040  -0.146666665200   0.000000000000  0.01785714285714
kpoint   0.266666666400  -0.133333332000   0.000000000000  0.01785714285714
kpoint   0.239999999760  -0.119999998800   0.000000000000  0.01785714285714
kpoint   0.213333333120  -0.106666665600   0.000000000000  0.01785714285714
kpoint   0.186666666480  -0.093333332400   0.000000000000  0.01785714285714
kpoint   0.159999999840  -0.079999999200   0.000000000000  0.01785714285714
kpoint   0.133333333200  -0.066666666000   0.000000000000  0.01785714285714
kpoint   0.106666666560  -0.053333332800   0.000000000000  0.01785714285714
kpoint   0.079999999920  -0.039999999600   0.000000000000  0.01785714285714
kpoint   0.053333333280  -0.026666666400   0.000000000000  0.01785714285714
kpoint   0.026666666640  -0.013333333200   0.000000000000  0.01785714285714
kpoint   0.000000000000   0.000000000000   0.000000000000  0.01785714285714
kpoint-folding 1 1 1 
latt-move-scale 1 1 1
latt-scale 1 1 1 
lattice  \
	 -11.818700000000000    2.363740000000000    0.000000000000000  \
	   4.094120000000000  -12.282400000000001    0.000000000000000  \
	   0.000000000000000    0.000000000000000   40.000000000000000 
lattice-minimize  \
	dirUpdateScheme      L-BFGS \
	linminMethod         DirUpdateRecommended \
	nIterations          0 \
	history              15 \
	knormThreshold       0 \
	energyDiffThreshold  1e-06 \
	nEnergyDiff          2 \
	alphaTstart          1 \
	alphaTmin            1e-10 \
	updateTestStepSize   yes \
	alphaTreduceFactor   0.1 \
	alphaTincreaseFactor 3 \
	nAlphaAdjustMax      3 \
	wolfeEnergy          0.0001 \
	wolfeGradient        0.9 \
	fdTest               no
lcao-params -1 1e-06 1e-05
pcm-variant GLSSA13
spintype z-spin
subspace-rotation-factor 1 yes
symmetries none
symmetry-threshold 0.0001
van-der-waals D3


Applied RMS atom displacement 0 bohrs to make symmetries exact.

---------- Initializing the Grid ----------
R = 
[     -11.8187      2.36374            0  ]
[      4.09412     -12.2824            0  ]
[            0            0           40  ]
unit cell volume = 5419.38
G =
[  -0.569604   -0.10962          0  ]
[  -0.189867    -0.5481          0  ]
[          0          0    0.15708  ]
Minimum fftbox size, Smin = [  52  52  164  ]
Chosen fftbox size, S = [  54  54  168  ]

---------- Exchange Correlation functional ----------
Initalized PBE GGA exchange.
Initalized PBE GGA correlation.

---------- Setting up pseudopotentials ----------
Width of ionic core gaussian charges (only for fluid interactions / plotting) set to 0

Reading pseudopotential file '/home/gridsan/aligho/DFT/build-Nov24/pseudopotentials/SG15/N_ONCV_PBE.upf':
  'N' pseudopotential, 'PBE' functional
  Generated using ONCVPSP code by D. R. Hamann
  Author: Martin Schlipf and Francois Gygi  Date: 150915.
  5 valence electrons, 2 orbitals, 4 projectors, 1058 radial grid points, with lMax = 1
  Transforming local potential to a uniform radial grid of dG=0.02 with 1514 points.
  Transforming nonlocal projectors to a uniform radial grid of dG=0.02 with 432 points.
    2S    l: 0   occupation:  2.0   eigenvalue: -0.682907
    2P    l: 1   occupation:  3.0   eigenvalue: -0.260548
  Transforming atomic orbitals to a uniform radial grid of dG=0.02 with 432 points.
  Core radius for overlap checks: 1.35 bohrs.
  Reading pulay file /home/gridsan/aligho/DFT/build-Nov24/pseudopotentials/SG15/N_ONCV_PBE.pulay ... using dE_dnG = -2.956256e-02 computed for Ecut = 20.

Reading pseudopotential file '/home/gridsan/aligho/DFT/build-Nov24/pseudopotentials/SG15/B_ONCV_PBE.upf':
  'B' pseudopotential, 'PBE' functional
  Generated using ONCVPSP code by D. R. Hamann
  Author: Martin Schlipf and Francois Gygi  Date: 150915.
  3 valence electrons, 2 orbitals, 4 projectors, 1534 radial grid points, with lMax = 1
  Transforming local potential to a uniform radial grid of dG=0.02 with 1514 points.
  Transforming nonlocal projectors to a uniform radial grid of dG=0.02 with 432 points.
    2S    l: 0   occupation:  2.0   eigenvalue: -0.347027
    2P    l: 1   occupation:  1.0   eigenvalue: -0.132548
  Transforming atomic orbitals to a uniform radial grid of dG=0.02 with 432 points.
  Core radius for overlap checks: 1.60 bohrs.
  Reading pulay file /home/gridsan/aligho/DFT/build-Nov24/pseudopotentials/SG15/B_ONCV_PBE.pulay ... using dE_dnG = -3.748568e-04 computed for Ecut = 20.

Reading pseudopotential file '/home/gridsan/aligho/DFT/build-Nov24/pseudopotentials/SG15/Na_ONCV_PBE.upf':
  'Na' pseudopotential, 'PBE' functional
  Generated using ONCVPSP code by D. R. Hamann
  Author: Martin Schlipf and Francois Gygi  Date: 150915.
  9 valence electrons, 3 orbitals, 4 projectors, 1992 radial grid points, with lMax = 1
  Transforming local potential to a uniform radial grid of dG=0.02 with 1514 points.
  Transforming nonlocal projectors to a uniform radial grid of dG=0.02 with 432 points.
    2S    l: 0   occupation:  2.0   eigenvalue: -2.085640
    2P    l: 1   occupation:  6.0   eigenvalue: -1.053708
    3S    l: 0   occupation:  1.0   eigenvalue: -0.100838
  Transforming atomic orbitals to a uniform radial grid of dG=0.02 with 432 points.
  Core radius for overlap checks: 2.01 bohrs.
  Reading pulay file /home/gridsan/aligho/DFT/build-Nov24/pseudopotentials/SG15/Na_ONCV_PBE.pulay ... using dE_dnG = -2.946487e-03 computed for Ecut = 20.

Initialized 3 species with 29 total atoms.

Folded 56 k-points by 1x1x1 to 56 k-points.

---------- Setting up k-points, bands, fillings ----------
No reducable k-points. 
Computing the number of bands and number of electrons
Calculating initial fillings.
nElectrons: 121.000000   nBands: 117   nStates: 112

----- Setting up reduced wavefunction bases (one per k-point) -----
average nbasis = 23160.018 , ideal nbasis = 23152.016

---------- Setting up coulomb interaction ----------
Initialized slab truncation along lattice direction 001

Initializing DFT-D3 calculator:
	Parameters set for gga-PBE functional
	s6:  1.000  s_r6:  1.217
	s8:  0.722  s_r8:  1.000
	Per-atom parameters loaded for:
	 N:  sqrtQ[a0]:  2.712  Rcov[a0]:  1.342  CN: [ 0.00 0.99 2.01 2.99 ]
	 B:  sqrtQ[a0]:  3.644  Rcov[a0]:  1.455  CN: [ 0.00 0.97 1.94 2.91 4.59 ]
	Na:  sqrtQ[a0]:  6.586  Rcov[a0]:  2.646  CN: [ 0.00 0.97 ]

---------- Setting up 2D ewald sum ----------
Optimum gaussian width for ewald sums = 6.943804 bohr.
Real space sums over 289 unit cells with max indices [  8  8  0  ]
Reciprocal space sums over 81 terms with max indices [  4  4  0  ]

Computing DFT-D3 correction:
# coordination-number N 3.138 3.138 3.143 3.138 3.143 3.137 3.137 3.143 3.138 3.143 3.143 3.138 3.138 3.143
# coordination-number B 3.349 3.342 3.342 3.342 3.342 3.349 3.349 3.349 3.342 3.342 3.349 3.349 3.341 3.341
# coordination-number Na 0.135
# diagonal-C6 N 15.61 15.61 15.61 15.61 15.61 15.61 15.61 15.61 15.61 15.61 15.61 15.61 15.61 15.61
# diagonal-C6 B 31.44 31.44 31.44 31.44 31.44 31.44 31.44 31.44 31.44 31.44 31.44 31.44 31.44 31.44
# diagonal-C6 Na 1472.85
EvdW_6 =   -0.030650
EvdW_8 =   -0.028043

---------- Allocating electronic variables ----------
Reading n_up from file 'Na-0.364.n_up' ... done
Reading n_dn from file 'Na-0.364.n_dn' ... done
Initializing wave functions:  linear combination of atomic orbitals
[d-3-1-1:52993] 57 more processes have sent help message help-mpi-common-cuda.txt / dlopen failed
[d-3-1-1:52993] Set MCA parameter "orte_base_help_aggregate" to 0 to see all help / error messages
[d-3-1-1:52993] 57 more processes have sent help message help-mpi-btl-openib-cpc-base.txt / no cpcs for port


---- Citations for features of the code used in this run ----

   Software package:
      R. Sundararaman, K. Letchworth-Weaver, K.A. Schwarz, D. Gunceler, Y. Ozhabes and T.A. Arias, 'JDFTx: software for joint density-functional theory', SoftwareX 6, 278 (2017)

   gga-PBE exchange-correlation functional:
      J.P. Perdew, K. Burke and M. Ernzerhof, Phys. Rev. Lett. 77, 3865 (1996)

   Pseudopotentials:
      M Schlipf and F Gygi, Comput. Phys. Commun. 196, 36 (2015)

   Truncated Coulomb potentials:
      R. Sundararaman and T.A. Arias, Phys. Rev. B 87, 165122 (2013)

   DFT-D3 dispersion correction:
      S. Grimme, J. Antony, S. Ehrlich and H. Krieg, J. Chem. Phys. 132, 154104 (2010)

   Total energy minimization with Auxiliary Hamiltonian:
      C. Freysoldt, S. Boeck, and J. Neugebauer, Phys. Rev. B 79, 241103(R) (2009)

This list may not be complete. Please suggest additional citations or
report any other bugs at https://github.com/shankar1729/jdftx/issues

Initialization completed successfully at t[s]:     17.84


----------- Band structure minimization -------------
Minimization will be done independently for each quantum number.

---- Minimization of quantum number:     0  [ +0.0000000 +0.0000000 +0.0000000 ]  0.017857143  spin +1 ----
BandDavidson: Iter:   0  Eband: -0.180638982864225
BandDavidson: Iter:   1  Eband: -0.298011549430385  dEband: -1.173726e-01  t[s]:     29.21
BandDavidson: Iter:   2  Eband: -0.345172242679700  dEband: -4.716069e-02  t[s]:     35.93
BandDavidson: Iter:   3  Eband: -0.370378402791836  dEband: -2.520616e-02  t[s]:     42.49
BandDavidson: Iter:   4  Eband: -0.387280942644999  dEband: -1.690254e-02  t[s]:     49.04
BandDavidson: Iter:   5  Eband: -0.393204729570101  dEband: -5.923787e-03  t[s]:     55.65
BandDavidson: Iter:   6  Eband: -0.394749234394342  dEband: -1.544505e-03  t[s]:     62.30
BandDavidson: Iter:   7  Eband: -0.396554769680975  dEband: -1.805535e-03  t[s]:     68.93
BandDavidson: Iter:   8  Eband: -0.398121070113148  dEband: -1.566300e-03  t[s]:     75.58
BandDavidson: Iter:   9  Eband: -0.399048530497052  dEband: -9.274604e-04  t[s]:     82.21
BandDavidson: Iter:  10  Eband: -0.399813301989658  dEband: -7.647715e-04  t[s]:     88.81
BandDavidson: Iter:  11  Eband: -0.400438795602396  dEband: -6.254936e-04  t[s]:     95.40
BandDavidson: Iter:  12  Eband: -0.401573163463316  dEband: -1.134368e-03  t[s]:    102.00
BandDavidson: Iter:  13  Eband: -0.402637054384766  dEband: -1.063891e-03  t[s]:    108.47
BandDavidson: Iter:  14  Eband: -0.403005028980792  dEband: -3.679746e-04  t[s]:    114.99
BandDavidson: Iter:  15  Eband: -0.403217530932689  dEband: -2.125020e-04  t[s]:    121.50
BandDavidson: Iter:  16  Eband: -0.404131169473485  dEband: -9.136385e-04  t[s]:    128.03
BandDavidson: Iter:  17  Eband: -0.404371234780653  dEband: -2.400653e-04  t[s]:    134.50
BandDavidson: Iter:  18  Eband: -0.404459882288932  dEband: -8.864751e-05  t[s]:    140.97
BandDavidson: Iter:  19  Eband: -0.404512146360458  dEband: -5.226407e-05  t[s]:    147.48
BandDavidson: Iter:  20  Eband: -0.404546469136186  dEband: -3.432278e-05  t[s]:    153.98
BandDavidson: Iter:  21  Eband: -0.404569855970631  dEband: -2.338683e-05  t[s]:    160.27
BandDavidson: Iter:  22  Eband: -0.404587229948995  dEband: -1.737398e-05  t[s]:    166.59
BandDavidson: Iter:  23  Eband: -0.404599914578058  dEband: -1.268463e-05  t[s]:    172.84
BandDavidson: Iter:  24  Eband: -0.404609300515450  dEband: -9.385937e-06  t[s]:    179.13
BandDavidson: Iter:  25  Eband: -0.404616191189085  dEband: -6.890674e-06  t[s]:    185.40
BandDavidson: Iter:  26  Eband: -0.404621239722470  dEband: -5.048533e-06  t[s]:    191.68
BandDavidson: Iter:  27  Eband: -0.404625036241998  dEband: -3.796520e-06  t[s]:    197.96
BandDavidson: Iter:  28  Eband: -0.404627909750595  dEband: -2.873509e-06  t[s]:    204.21
BandDavidson: Iter:  29  Eband: -0.404630088332021  dEband: -2.178581e-06  t[s]:    210.16
BandDavidson: Iter:  30  Eband: -0.404631748825916  dEband: -1.660494e-06  t[s]:    215.94
BandDavidson: Iter:  31  Eband: -0.404633012162073  dEband: -1.263336e-06  t[s]:    221.22
BandDavidson: Iter:  32  Eband: -0.404633983865092  dEband: -9.717030e-07  t[s]:    226.13
BandDavidson: Iter:  33  Eband: -0.404634736833369  dEband: -7.529683e-07  t[s]:    230.81
BandDavidson: Iter:  34  Eband: -0.404635339343969  dEband: -6.025106e-07  t[s]:    235.50
BandDavidson: Iter:  35  Eband: -0.404635829827079  dEband: -4.904831e-07  t[s]:    240.14
BandDavidson: Iter:  36  Eband: -0.404636243184457  dEband: -4.133574e-07  t[s]:    244.38
BandDavidson: Iter:  37  Eband: -0.404636638789590  dEband: -3.956051e-07  t[s]:    248.58
BandDavidson: Iter:  38  Eband: -0.404637286669889  dEband: -6.478803e-07  t[s]:    252.75
BandDavidson: Iter:  39  Eband: -0.404638600260046  dEband: -1.313590e-06  t[s]:    256.95
BandDavidson: Iter:  40  Eband: -0.404640106847704  dEband: -1.506588e-06  t[s]:    261.15
BandDavidson: Iter:  41  Eband: -0.404641469601010  dEband: -1.362753e-06  t[s]:    265.36
BandDavidson: Iter:  42  Eband: -0.404642655632129  dEband: -1.186031e-06  t[s]:    269.42
BandDavidson: Iter:  43  Eband: -0.404643651735754  dEband: -9.961036e-07  t[s]:    273.57
BandDavidson: Iter:  44  Eband: -0.404644494553447  dEband: -8.428177e-07  t[s]:    277.69
BandDavidson: Iter:  45  Eband: -0.404645214585361  dEband: -7.200319e-07  t[s]:    281.77
BandDavidson: Iter:  46  Eband: -0.404645836458943  dEband: -6.218736e-07  t[s]:    285.83
BandDavidson: Iter:  47  Eband: -0.404646368688914  dEband: -5.322300e-07  t[s]:    289.79
BandDavidson: Iter:  48  Eband: -0.404646823322427  dEband: -4.546335e-07  t[s]:    293.77
BandDavidson: Iter:  49  Eband: -0.404647212731930  dEband: -3.894095e-07  t[s]:    297.61
BandDavidson: Iter:  50  Eband: -0.404647543039491  dEband: -3.303076e-07  t[s]:    301.44
BandDavidson: Iter:  51  Eband: -0.404647826723805  dEband: -2.836843e-07  t[s]:    305.18
BandDavidson: Iter:  52  Eband: -0.404648070900722  dEband: -2.441769e-07  t[s]:    308.82
BandDavidson: Iter:  53  Eband: -0.404648283465014  dEband: -2.125643e-07  t[s]:    312.41
BandDavidson: Iter:  54  Eband: -0.404648468039884  dEband: -1.845749e-07  t[s]:    316.05
BandDavidson: Iter:  55  Eband: -0.404648630761161  dEband: -1.627213e-07  t[s]:    319.67
BandDavidson: Iter:  56  Eband: -0.404648772198076  dEband: -1.414369e-07  t[s]:    323.29
BandDavidson: Iter:  57  Eband: -0.404648897703175  dEband: -1.255051e-07  t[s]:    326.90
BandDavidson: Iter:  58  Eband: -0.404649006126452  dEband: -1.084233e-07  t[s]:    330.44
BandDavidson: Iter:  59  Eband: -0.404649102685505  dEband: -9.655905e-08  t[s]:    333.96
BandDavidson: Iter:  60  Eband: -0.404649186544782  dEband: -8.385928e-08  t[s]:    337.51
BandDavidson: Iter:  61  Eband: -0.404649260381417  dEband: -7.383663e-08  t[s]:    341.05
BandDavidson: Iter:  62  Eband: -0.404649323506766  dEband: -6.312535e-08  t[s]:    344.49
BandDavidson: Iter:  63  Eband: -0.404649377187589  dEband: -5.368082e-08  t[s]:    347.87
BandDavidson: Iter:  64  Eband: -0.404649423561515  dEband: -4.637393e-08  t[s]:    351.19
BandDavidson: Iter:  65  Eband: -0.404649463780433  dEband: -4.021892e-08  t[s]:    354.52
BandDavidson: Iter:  66  Eband: -0.404649499263428  dEband: -3.548299e-08  t[s]:    357.75
BandDavidson: Iter:  67  Eband: -0.404649531561415  dEband: -3.229799e-08  t[s]:    360.94
BandDavidson: Iter:  68  Eband: -0.404649560610843  dEband: -2.904943e-08  t[s]:    364.07
BandDavidson: Iter:  69  Eband: -0.404649587194313  dEband: -2.658347e-08  t[s]:    367.18
BandDavidson: Iter:  70  Eband: -0.404649611966524  dEband: -2.477221e-08  t[s]:    370.27
BandDavidson: Iter:  71  Eband: -0.404649634744980  dEband: -2.277846e-08  t[s]:    373.33
BandDavidson: Iter:  72  Eband: -0.404649656935987  dEband: -2.219101e-08  t[s]:    376.29
BandDavidson: Iter:  73  Eband: -0.404649678112303  dEband: -2.117632e-08  t[s]:    379.24
BandDavidson: Iter:  74  Eband: -0.404649699395682  dEband: -2.128338e-08  t[s]:    382.16
BandDavidson: Iter:  75  Eband: -0.404649720480248  dEband: -2.108457e-08  t[s]:    385.04
BandDavidson: Iter:  76  Eband: -0.404649741791944  dEband: -2.131170e-08  t[s]:    387.86
BandDavidson: Iter:  77  Eband: -0.404649763249628  dEband: -2.145768e-08  t[s]:    390.71
BandDavidson: Iter:  78  Eband: -0.404649784871343  dEband: -2.162172e-08  t[s]:    393.56
BandDavidson: Iter:  79  Eband: -0.404649806773157  dEband: -2.190181e-08  t[s]:    396.37
BandDavidson: Iter:  80  Eband: -0.404649828821874  dEband: -2.204872e-08  t[s]:    399.20
BandDavidson: Iter:  81  Eband: -0.404649850869881  dEband: -2.204801e-08  t[s]:    402.04
BandDavidson: Iter:  82  Eband: -0.404649872455797  dEband: -2.158592e-08  t[s]:    404.89
BandDavidson: Iter:  83  Eband: -0.404649893523781  dEband: -2.106798e-08  t[s]:    407.71
BandDavidson: Iter:  84  Eband: -0.404649913593283  dEband: -2.006950e-08  t[s]:    410.59
BandDavidson: Iter:  85  Eband: -0.404649933072297  dEband: -1.947901e-08  t[s]:    413.42
BandDavidson: Iter:  86  Eband: -0.404649951115812  dEband: -1.804351e-08  t[s]:    416.25
BandDavidson: Iter:  87  Eband: -0.404649968375896  dEband: -1.726008e-08  t[s]:    419.06
BandDavidson: Iter:  88  Eband: -0.404649983928972  dEband: -1.555308e-08  t[s]:    421.87
BandDavidson: Iter:  89  Eband: -0.404649998469220  dEband: -1.454025e-08  t[s]:    424.69
BandDavidson: Iter:  90  Eband: -0.404650011312474  dEband: -1.284325e-08  t[s]:    427.50
BandDavidson: Iter:  91  Eband: -0.404650023215986  dEband: -1.190351e-08  t[s]:    430.31
BandDavidson: Iter:  92  Eband: -0.404650033765620  dEband: -1.054963e-08  t[s]:    433.10
BandDavidson: Iter:  93  Eband: -0.404650043466702  dEband: -9.701081e-09  t[s]:    435.94
BandDavidson: Converged (dEband<1.000000e-08)
Setting wave functions to eigenvectors of Hamiltonian
	FillingsUpdate:  mu: -0.077707833  nElectrons: 121.000000  magneticMoment: [ Abs: 0.01394  Tot: +0.01389 ]

Dumping 'Na-bands-0.364.eigenvals' ... done
End date and time: Mon Jan 24 06:11:22 2022  (Duration: 0-0:13:58.17)
Done!
