Second Layer Distance is 0.175

--------------------------------------------------------------------------
The library attempted to open the following supporting CUDA libraries,
but each of them failed.  CUDA-aware support is disabled.
libcuda.so.1: cannot open shared object file: No such file or directory
libcuda.dylib: cannot open shared object file: No such file or directory
/usr/lib64/libcuda.so.1: cannot open shared object file: No such file or directory
/usr/lib64/libcuda.dylib: cannot open shared object file: No such file or directory
If you are not interested in CUDA-aware support, then run with
--mca opal_warn_on_missing_libcuda 0 to suppress this message.  If you are interested
in CUDA-aware support, then try setting LD_LIBRARY_PATH to the location
of libcuda.so.1 to get passed this issue.
--------------------------------------------------------------------------
--------------------------------------------------------------------------
No OpenFabrics connection schemes reported that they were able to be
used on a specific port.  As such, the openib BTL (OpenFabrics
support) will be disabled for this port.

  Local host:           d-5-14-3
  Local device:         mlx5_1
  Local port:           1
  CPCs attempted:       rdmacm, udcm
--------------------------------------------------------------------------

*************** JDFTx 1.6.0 (git hash 42ebbcc2) ***************

Start date and time: Wed Jan 19 19:59:36 2022
Executable jdftx with command-line: -i Moire.in
Running on hosts (process indices):  d-5-14-3 (0-18)
Divided in process groups (process indices):  0 (0)  1 (1)  2 (2)  3 (3)  4 (4)  5 (5)  6 (6)  7 (7)  8 (8)  9 (9)  10 (10)  11 (11)  12 (12)  13 (13)  14 (14)  15 (15)  16 (16)  17 (17)  18 (18)
Resource initialization completed at t[s]:      0.00
Run totals: 19 processes, 48 threads, 0 GPUs


Input parsed successfully to the following command list (including defaults):

basis kpoint-dependent
coords-type Lattice
core-overlap-check vector
coulomb-interaction Slab 001
davidson-band-ratio 1.1
dump End State ElecDensity BandEigs
dump-name Na-0.175.$VAR
elec-cutoff 20
elec-eigen-algo Davidson
elec-ex-corr gga-PBE
elec-initial-magnetization 0.100000 no
elec-smearing Fermi 1e-05
electronic-minimize  \
	dirUpdateScheme      FletcherReeves \
	linminMethod         DirUpdateRecommended \
	nIterations          100 \
	history              15 \
	knormThreshold       0 \
	energyDiffThreshold  1e-08 \
	nEnergyDiff          2 \
	alphaTstart          1 \
	alphaTmin            1e-10 \
	updateTestStepSize   yes \
	alphaTreduceFactor   0.1 \
	alphaTincreaseFactor 3 \
	nAlphaAdjustMax      3 \
	wolfeEnergy          0.0001 \
	wolfeGradient        0.9 \
	fdTest               no
electronic-scf  \
	nIterations	1000 \
	energyDiffThreshold	1e-08 \
	residualThreshold	1e-07 \
	mixFraction	0.5 \
	qMetric	0.8 \
	history	10 \
	nEigSteps	2 \
	eigDiffThreshold	1e-08 \
	mixedVariable	Density \
	qKerker	0.8 \
	qKappa	-1 \
	verbose	no \
	mixFractionMag	1.5
exchange-regularization WignerSeitzTruncated
fluid None
fluid-ex-corr (null) lda-PZ
fluid-gummel-loop 10 1.000000e-05
fluid-minimize  \
	dirUpdateScheme      PolakRibiere \
	linminMethod         DirUpdateRecommended \
	nIterations          100 \
	history              15 \
	knormThreshold       0 \
	energyDiffThreshold  0 \
	nEnergyDiff          2 \
	alphaTstart          1 \
	alphaTmin            1e-10 \
	updateTestStepSize   yes \
	alphaTreduceFactor   0.1 \
	alphaTincreaseFactor 3 \
	nAlphaAdjustMax      3 \
	wolfeEnergy          0.0001 \
	wolfeGradient        0.9 \
	fdTest               no
fluid-solvent H2O 55.338 ScalarEOS \
	epsBulk 78.4 \
	pMol 0.92466 \
	epsInf 1.77 \
	Pvap 1.06736e-10 \
	sigmaBulk 4.62e-05 \
	Rvdw 2.61727 \
	Res 1.42 \
	tauNuc 343133 \
	poleEl 15 7 1
forces-output-coords Positions
ion N   0.952380952380952   0.761904761904762   0.000000000000000 0
ion N   1.428571428571428   1.285714285714286   0.175000000000000 0
ion N   0.380952380952381   0.904761904761905   0.000000000000000 0
ion N   0.714285714285714   1.142857142857143   0.175000000000000 0
ion N   0.523809523809524   0.619047619047619   0.000000000000000 0
ion N   1.000000000000000   1.000000000000000   0.175000000000000 0
ion N   0.666666666666667   0.333333333333333   0.000000000000000 0
ion N   1.285714285714286   0.857142857142857   0.175000000000000 0
ion N   0.809523809523810   0.047619047619048   0.000000000000000 0
ion N   1.571428571428571   0.714285714285714   0.175000000000000 0
ion N   0.095238095238095   0.476190476190476   0.000000000000000 0
ion N   0.238095238095238   0.190476190476190   0.000000000000000 0
ion N   0.857142857142857   0.571428571428571   0.175000000000000 0
ion N   1.142857142857143   0.428571428571429   0.175000000000000 0
ion B   0.571428571428572   0.857142857142857   0.000000000000000 0
ion B   0.952380952380952   1.190476190476190   0.175000000000000 0
ion B   0.714285714285714   0.571428571428571   0.000000000000000 0
ion B   1.238095238095238   1.047619047619047   0.175000000000000 0
ion B   0.857142857142857   0.285714285714286   0.000000000000000 0
ion B   1.523809523809524   0.904761904761905   0.175000000000000 0
ion B   0.142857142857143   0.714285714285714   0.000000000000000 0
ion B   0.285714285714286   0.428571428571429   0.000000000000000 0
ion B   0.809523809523810   0.761904761904762   0.175000000000000 0
ion B   0.428571428571429   0.142857142857143   0.000000000000000 0
ion B   1.095238095238095   0.619047619047619   0.175000000000000 0
ion B   1.380952380952381   0.476190476190476   0.175000000000000 0
ion B   0.000000000000000   0.000000000000000   0.000000000000000 0
ion B   0.666666666666667   0.333333333333333   0.175000000000000 0
ion Na   0.333333333300000   0.666666666600000   0.087500000000000 0
ion-species SG15/$ID_ONCV_PBE.upf
ion-width 0
ionic-minimize  \
	dirUpdateScheme      L-BFGS \
	linminMethod         DirUpdateRecommended \
	nIterations          0 \
	history              15 \
	knormThreshold       0.0001 \
	energyDiffThreshold  1e-06 \
	nEnergyDiff          2 \
	alphaTstart          1 \
	alphaTmin            1e-10 \
	updateTestStepSize   yes \
	alphaTreduceFactor   0.1 \
	alphaTincreaseFactor 3 \
	nAlphaAdjustMax      3 \
	wolfeEnergy          0.0001 \
	wolfeGradient        0.9 \
	fdTest               no
kpoint   0.000000000000   0.000000000000   0.000000000000  1.00000000000000
kpoint-folding 12 12 1 
latt-move-scale 1 1 1
latt-scale 1 1 1 
lattice  \
	 -11.818700000000000    2.363740000000000    0.000000000000000  \
	   4.094120000000000  -12.282400000000001    0.000000000000000  \
	   0.000000000000000    0.000000000000000   40.000000000000000 
lattice-minimize  \
	dirUpdateScheme      L-BFGS \
	linminMethod         DirUpdateRecommended \
	nIterations          0 \
	history              15 \
	knormThreshold       0 \
	energyDiffThreshold  1e-06 \
	nEnergyDiff          2 \
	alphaTstart          1 \
	alphaTmin            1e-10 \
	updateTestStepSize   yes \
	alphaTreduceFactor   0.1 \
	alphaTincreaseFactor 3 \
	nAlphaAdjustMax      3 \
	wolfeEnergy          0.0001 \
	wolfeGradient        0.9 \
	fdTest               no
lcao-params -1 1e-06 1e-05
pcm-variant GLSSA13
spintype z-spin
subspace-rotation-factor 1 yes
symmetries automatic
symmetry-threshold 0.0001
van-der-waals D3



---------- Setting up symmetries ----------

Found 24 point-group symmetries of the bravais lattice
Found 6 space-group symmetries with basis
Applied RMS atom displacement 1.31765e-10 bohrs to make symmetries exact.

---------- Initializing the Grid ----------
R = 
[     -11.8187      2.36374            0  ]
[      4.09412     -12.2824            0  ]
[            0            0           40  ]
unit cell volume = 5419.38
G =
[  -0.569604   -0.10962          0  ]
[  -0.189867    -0.5481          0  ]
[          0          0    0.15708  ]
Minimum fftbox size, Smin = [  52  52  164  ]
Chosen fftbox size, S = [  54  54  168  ]

---------- Exchange Correlation functional ----------
Initalized PBE GGA exchange.
Initalized PBE GGA correlation.

---------- Setting up pseudopotentials ----------
Width of ionic core gaussian charges (only for fluid interactions / plotting) set to 0

Reading pseudopotential file '/home/gridsan/aligho/DFT/build-Nov24/pseudopotentials/SG15/N_ONCV_PBE.upf':
  'N' pseudopotential, 'PBE' functional
  Generated using ONCVPSP code by D. R. Hamann
  Author: Martin Schlipf and Francois Gygi  Date: 150915.
  5 valence electrons, 2 orbitals, 4 projectors, 1058 radial grid points, with lMax = 1
  Transforming local potential to a uniform radial grid of dG=0.02 with 1514 points.
  Transforming nonlocal projectors to a uniform radial grid of dG=0.02 with 432 points.
    2S    l: 0   occupation:  2.0   eigenvalue: -0.682907
    2P    l: 1   occupation:  3.0   eigenvalue: -0.260548
  Transforming atomic orbitals to a uniform radial grid of dG=0.02 with 432 points.
  Core radius for overlap checks: 1.35 bohrs.
  Reading pulay file /home/gridsan/aligho/DFT/build-Nov24/pseudopotentials/SG15/N_ONCV_PBE.pulay ... using dE_dnG = -2.956256e-02 computed for Ecut = 20.

Reading pseudopotential file '/home/gridsan/aligho/DFT/build-Nov24/pseudopotentials/SG15/B_ONCV_PBE.upf':
  'B' pseudopotential, 'PBE' functional
  Generated using ONCVPSP code by D. R. Hamann
  Author: Martin Schlipf and Francois Gygi  Date: 150915.
  3 valence electrons, 2 orbitals, 4 projectors, 1534 radial grid points, with lMax = 1
  Transforming local potential to a uniform radial grid of dG=0.02 with 1514 points.
  Transforming nonlocal projectors to a uniform radial grid of dG=0.02 with 432 points.
    2S    l: 0   occupation:  2.0   eigenvalue: -0.347027
    2P    l: 1   occupation:  1.0   eigenvalue: -0.132548
  Transforming atomic orbitals to a uniform radial grid of dG=0.02 with 432 points.
  Core radius for overlap checks: 1.60 bohrs.
  Reading pulay file /home/gridsan/aligho/DFT/build-Nov24/pseudopotentials/SG15/B_ONCV_PBE.pulay ... using dE_dnG = -3.748568e-04 computed for Ecut = 20.

Reading pseudopotential file '/home/gridsan/aligho/DFT/build-Nov24/pseudopotentials/SG15/Na_ONCV_PBE.upf':
  'Na' pseudopotential, 'PBE' functional
  Generated using ONCVPSP code by D. R. Hamann
  Author: Martin Schlipf and Francois Gygi  Date: 150915.
  9 valence electrons, 3 orbitals, 4 projectors, 1992 radial grid points, with lMax = 1
  Transforming local potential to a uniform radial grid of dG=0.02 with 1514 points.
  Transforming nonlocal projectors to a uniform radial grid of dG=0.02 with 432 points.
    2S    l: 0   occupation:  2.0   eigenvalue: -2.085640
    2P    l: 1   occupation:  6.0   eigenvalue: -1.053708
    3S    l: 0   occupation:  1.0   eigenvalue: -0.100838
  Transforming atomic orbitals to a uniform radial grid of dG=0.02 with 432 points.
  Core radius for overlap checks: 2.01 bohrs.
  Reading pulay file /home/gridsan/aligho/DFT/build-Nov24/pseudopotentials/SG15/Na_ONCV_PBE.pulay ... using dE_dnG = -2.946487e-03 computed for Ecut = 20.

Initialized 3 species with 29 total atoms.

Folded 1 k-points by 12x12x1 to 144 k-points.

---------- Setting up k-points, bands, fillings ----------
Adding inversion symmetry to k-mesh for non-inversion-symmetric unit cell.
Reduced to 19 k-points under symmetry. 
Computing the number of bands and number of electrons
Calculating initial fillings.
nElectrons: 121.000000   nBands: 117   nStates: 38

----- Setting up reduced wavefunction bases (one per k-point) -----
average nbasis = 23151.771 , ideal nbasis = 23152.016

---------- Setting up coulomb interaction ----------
Initialized slab truncation along lattice direction 001

Initializing DFT-D3 calculator:
	Parameters set for gga-PBE functional
	s6:  1.000  s_r6:  1.217
	s8:  0.722  s_r8:  1.000
	Per-atom parameters loaded for:
	 N:  sqrtQ[a0]:  2.712  Rcov[a0]:  1.342  CN: [ 0.00 0.99 2.01 2.99 ]
	 B:  sqrtQ[a0]:  3.644  Rcov[a0]:  1.455  CN: [ 0.00 0.97 1.94 2.91 4.59 ]
	Na:  sqrtQ[a0]:  6.586  Rcov[a0]:  2.646  CN: [ 0.00 0.97 ]

---------- Setting up 2D ewald sum ----------
Optimum gaussian width for ewald sums = 6.943804 bohr.
Real space sums over 289 unit cells with max indices [  8  8  0  ]
Reciprocal space sums over 81 terms with max indices [  4  4  0  ]

Computing DFT-D3 correction:
# coordination-number N 3.197 3.197 4.099 3.197 4.099 3.153 3.153 4.099 3.197 4.099 4.099 3.197 3.197 4.099
# coordination-number B 4.321 3.426 3.426 3.426 3.426 4.321 4.321 4.321 3.426 3.426 4.321 4.321 3.362 3.362
# coordination-number Na 12.537
# diagonal-C6 N 15.60 15.60 15.58 15.60 15.58 15.61 15.61 15.58 15.60 15.58 15.58 15.60 15.60 15.58
# diagonal-C6 B 28.03 31.41 31.41 31.41 31.41 28.03 28.03 28.03 31.41 31.41 28.03 28.03 31.44 31.44
# diagonal-C6 Na 186.11
EvdW_6 =   -0.042482
EvdW_8 =   -0.034982

---------- Allocating electronic variables ----------
Initializing wave functions:  linear combination of atomic orbitals
N pseudo-atom occupations:   s ( 2 )  p ( 3 )
[d-5-14-3:79604] 18 more processes have sent help message help-mpi-common-cuda.txt / dlopen failed
[d-5-14-3:79604] Set MCA parameter "orte_base_help_aggregate" to 0 to see all help / error messages
[d-5-14-3:79604] 18 more processes have sent help message help-mpi-btl-openib-cpc-base.txt / no cpcs for port
B pseudo-atom occupations:   s ( 2 )  p ( 1 )
Na pseudo-atom occupations:   s ( 2 1 )  p ( 6 )
	FillingsUpdate:  mu: -0.199508560  nElectrons: 121.000000  magneticMoment: [ Abs: 0.12066  Tot: +0.11111 ]
LCAOMinimize: Iter:   0  F: -219.8245279909151577  |grad|_K:  3.272e-03  alpha:  1.000e+00
	FillingsUpdate:  mu: -0.165874606  nElectrons: 121.000000  magneticMoment: [ Abs: 0.15244  Tot: +0.13951 ]
LCAOMinimize: Iter:   1  F: -220.8600954577548521  |grad|_K:  3.639e-04  alpha:  4.399e-01  linmin:  4.930e-01  cgtest: -1.080e+00  t[s]:     49.16
LCAOMinimize: 	Bad step direction: g.d > 0.
LCAOMinimize: 	Undoing step.
LCAOMinimize: 	Step failed: resetting search direction.
	FillingsUpdate:  mu: -0.165874606  nElectrons: 121.000000  magneticMoment: [ Abs: 0.15244  Tot: +0.13951 ]
LCAOMinimize: Iter:   2  F: -220.8600954577548521  |grad|_K:  3.639e-04  alpha:  0.000e+00
	FillingsUpdate:  mu: -0.172735189  nElectrons: 121.000000  magneticMoment: [ Abs: 0.20875  Tot: +0.19444 ]
LCAOMinimize: Iter:   3  F: -220.8746731981193250  |grad|_K:  1.480e-05  alpha:  4.156e-01  linmin:  1.326e-01  cgtest: -2.893e-01  t[s]:     74.28
	FillingsUpdate:  mu: -0.173137224  nElectrons: 121.000000  magneticMoment: [ Abs: 0.22052  Tot: +0.19444 ]
LCAOMinimize: Iter:   4  F: -220.8746951915511261  |grad|_K:  7.034e-06  alpha:  4.171e-01  linmin:  2.847e-04  cgtest:  2.096e-01  t[s]:     88.89
	FillingsUpdate:  mu: -0.173294211  nElectrons: 121.000000  magneticMoment: [ Abs: 0.23525  Tot: +0.19444 ]
LCAOMinimize: Iter:   5  F: -220.8747024859640078  |grad|_K:  2.628e-06  alpha:  5.574e-01  linmin:  5.951e-05  cgtest: -2.288e-02  t[s]:    103.62
	FillingsUpdate:  mu: -0.173298855  nElectrons: 121.000000  magneticMoment: [ Abs: 0.25106  Tot: +0.19444 ]
LCAOMinimize: Iter:   6  F: -220.8747040451846999  |grad|_K:  1.346e-06  alpha:  8.537e-01  linmin:  3.278e-04  cgtest: -2.039e-03  t[s]:    118.18
	FillingsUpdate:  mu: -0.173288086  nElectrons: 121.000000  magneticMoment: [ Abs: 0.25557  Tot: +0.19444 ]
LCAOMinimize: Iter:   7  F: -220.8747042580398841  |grad|_K:  5.250e-07  alpha:  4.446e-01  linmin: -3.353e-05  cgtest:  4.744e-03  t[s]:    132.86
	FillingsUpdate:  mu: -0.173296471  nElectrons: 121.000000  magneticMoment: [ Abs: 0.25863  Tot: +0.19444 ]
LCAOMinimize: Iter:   8  F: -220.8747043149558351  |grad|_K:  2.218e-07  alpha:  7.783e-01  linmin: -2.586e-03  cgtest:  9.521e-03  t[s]:    147.50
LCAOMinimize: Converged (|Delta F|<1.000000e-06 for 2 iters).


---- Citations for features of the code used in this run ----

   Software package:
      R. Sundararaman, K. Letchworth-Weaver, K.A. Schwarz, D. Gunceler, Y. Ozhabes and T.A. Arias, 'JDFTx: software for joint density-functional theory', SoftwareX 6, 278 (2017)

   gga-PBE exchange-correlation functional:
      J.P. Perdew, K. Burke and M. Ernzerhof, Phys. Rev. Lett. 77, 3865 (1996)

   Pseudopotentials:
      M Schlipf and F Gygi, Comput. Phys. Commun. 196, 36 (2015)

   Truncated Coulomb potentials:
      R. Sundararaman and T.A. Arias, Phys. Rev. B 87, 165122 (2013)

   DFT-D3 dispersion correction:
      S. Grimme, J. Antony, S. Ehrlich and H. Krieg, J. Chem. Phys. 132, 154104 (2010)

This list may not be complete. Please suggest additional citations or
report any other bugs at https://github.com/shankar1729/jdftx/issues

Initialization completed successfully at t[s]:    149.70


Computing DFT-D3 correction:
# coordination-number N 3.197 3.197 4.099 3.197 4.099 3.153 3.153 4.099 3.197 4.099 4.099 3.197 3.197 4.099
# coordination-number B 4.321 3.426 3.426 3.426 3.426 4.321 4.321 4.321 3.426 3.426 4.321 4.321 3.362 3.362
# coordination-number Na 12.537
# diagonal-C6 N 15.60 15.60 15.58 15.60 15.58 15.61 15.61 15.58 15.60 15.58 15.58 15.60 15.60 15.58
# diagonal-C6 B 28.03 31.41 31.41 31.41 31.41 28.03 28.03 28.03 31.41 31.41 28.03 28.03 31.44 31.44
# diagonal-C6 Na 186.11
EvdW_6 =   -0.042482
EvdW_8 =   -0.034982

-------- Electronic minimization -----------
Will mix electronic density at each iteration.
	FillingsUpdate:  mu: -0.173296471  nElectrons: 121.000000  magneticMoment: [ Abs: 0.25863  Tot: +0.19444 ]
	FillingsUpdate:  mu: -0.191358020  nElectrons: 121.000000  magneticMoment: [ Abs: 0.25863  Tot: +0.19444 ]
SCF: Cycle:  0   F: -222.156352408981036   dF: -1.282e+00   |Residual|: 3.842e-01   |deigs|: 1.038e-01  t[s]:    199.16
	FillingsUpdate:  mu: -0.175662730  nElectrons: 121.000000  magneticMoment: [ Abs: 0.37519  Tot: +0.20313 ]
SCF: Cycle:  1   F: -222.215238762189671   dF: -5.889e-02   |Residual|: 2.140e-01   |deigs|: 1.905e-02  t[s]:    237.11
	FillingsUpdate:  mu: -0.153345854  nElectrons: 121.000000  magneticMoment: [ Abs: 0.86815  Tot: +0.24413 ]
SCF: Cycle:  2   F: -222.253172592809506   dF: -3.793e-02   |Residual|: 4.641e-02   |deigs|: 2.312e-02  t[s]:    275.07
	FillingsUpdate:  mu: -0.152442083  nElectrons: 121.000000  magneticMoment: [ Abs: 1.06886  Tot: +0.27640 ]
SCF: Cycle:  3   F: -222.254978551175611   dF: -1.806e-03   |Residual|: 3.522e-02   |deigs|: 2.949e-03  t[s]:    313.19
	FillingsUpdate:  mu: -0.140538299  nElectrons: 121.000000  magneticMoment: [ Abs: 1.41769  Tot: +0.43480 ]
SCF: Cycle:  4   F: -222.261260481447806   dF: -6.282e-03   |Residual|: 2.002e-02   |deigs|: 1.228e-02  t[s]:    351.25
	FillingsUpdate:  mu: -0.130236121  nElectrons: 121.000000  magneticMoment: [ Abs: 1.19851  Tot: +0.56969 ]
SCF: Cycle:  5   F: -222.263939378774097   dF: -2.679e-03   |Residual|: 2.139e-02   |deigs|: 9.322e-03  t[s]:    389.41
	FillingsUpdate:  mu: -0.120501660  nElectrons: 121.000000  magneticMoment: [ Abs: 1.19245  Tot: +0.73094 ]
SCF: Cycle:  6   F: -222.264445861717405   dF: -5.065e-04   |Residual|: 1.487e-02   |deigs|: 1.105e-02  t[s]:    428.20
	FillingsUpdate:  mu: -0.112456783  nElectrons: 121.000000  magneticMoment: [ Abs: 1.31596  Tot: +0.86846 ]
SCF: Cycle:  7   F: -222.264819430993413   dF: -3.736e-04   |Residual|: 1.198e-02   |deigs|: 9.209e-03  t[s]:    466.32
	FillingsUpdate:  mu: -0.107593447  nElectrons: 121.000000  magneticMoment: [ Abs: 1.32750  Tot: +0.93746 ]
SCF: Cycle:  8   F: -222.264910738035042   dF: -9.131e-05   |Residual|: 8.845e-03   |deigs|: 4.859e-03  t[s]:    504.68
	FillingsUpdate:  mu: -0.104196709  nElectrons: 121.000000  magneticMoment: [ Abs: 1.28416  Tot: +0.96828 ]
SCF: Cycle:  9   F: -222.264784436500292   dF: +1.263e-04   |Residual|: 5.423e-03   |deigs|: 3.402e-03  t[s]:    542.97
	FillingsUpdate:  mu: -0.098028873  nElectrons: 121.000000  magneticMoment: [ Abs: 1.29497  Tot: +1.02409 ]
SCF: Cycle: 10   F: -222.264958187662671   dF: -1.738e-04   |Residual|: 4.941e-03   |deigs|: 6.187e-03  t[s]:    581.39
	FillingsUpdate:  mu: -0.094834323  nElectrons: 121.000000  magneticMoment: [ Abs: 1.29349  Tot: +1.02324 ]
SCF: Cycle: 11   F: -222.265096381995221   dF: -1.382e-04   |Residual|: 3.809e-03   |deigs|: 2.866e-03  t[s]:    619.67
	FillingsUpdate:  mu: -0.089990804  nElectrons: 121.000000  magneticMoment: [ Abs: 1.30871  Tot: +1.01826 ]
SCF: Cycle: 12   F: -222.265301043635844   dF: -2.047e-04   |Residual|: 3.675e-03   |deigs|: 4.140e-03  t[s]:    658.03
	FillingsUpdate:  mu: -0.082469638  nElectrons: 121.000000  magneticMoment: [ Abs: 1.31082  Tot: +1.01752 ]
SCF: Cycle: 13   F: -222.265606639167629   dF: -3.056e-04   |Residual|: 3.545e-03   |deigs|: 6.322e-03  t[s]:    696.62
	FillingsUpdate:  mu: -0.072967535  nElectrons: 121.000000  magneticMoment: [ Abs: 1.29462  Tot: +1.01454 ]
SCF: Cycle: 14   F: -222.265914575856868   dF: -3.079e-04   |Residual|: 3.084e-03   |deigs|: 8.038e-03  t[s]:    735.03
	FillingsUpdate:  mu: -0.067015331  nElectrons: 121.000000  magneticMoment: [ Abs: 1.27789  Tot: +1.01149 ]
SCF: Cycle: 15   F: -222.265996255147655   dF: -8.168e-05   |Residual|: 2.275e-03   |deigs|: 5.147e-03  t[s]:    773.35
	FillingsUpdate:  mu: -0.064481182  nElectrons: 121.000000  magneticMoment: [ Abs: 1.26895  Tot: +1.00568 ]
SCF: Cycle: 16   F: -222.266003718297782   dF: -7.463e-06   |Residual|: 1.364e-03   |deigs|: 2.246e-03  t[s]:    811.77
	FillingsUpdate:  mu: -0.063211901  nElectrons: 121.000000  magneticMoment: [ Abs: 1.27160  Tot: +1.00511 ]
SCF: Cycle: 17   F: -222.266004814545767   dF: -1.096e-06   |Residual|: 8.584e-04   |deigs|: 1.243e-03  t[s]:    850.05
	FillingsUpdate:  mu: -0.062614505  nElectrons: 121.000000  magneticMoment: [ Abs: 1.26997  Tot: +1.00556 ]
SCF: Cycle: 18   F: -222.266005255129159   dF: -4.406e-07   |Residual|: 5.740e-04   |deigs|: 7.337e-04  t[s]:    888.41
	FillingsUpdate:  mu: -0.062368103  nElectrons: 121.000000  magneticMoment: [ Abs: 1.26763  Tot: +1.00460 ]
SCF: Cycle: 19   F: -222.266005371463791   dF: -1.163e-07   |Residual|: 4.549e-04   |deigs|: 3.555e-04  t[s]:    926.79
	FillingsUpdate:  mu: -0.062150935  nElectrons: 121.000000  magneticMoment: [ Abs: 1.26616  Tot: +1.00276 ]
SCF: Cycle: 20   F: -222.266005297392269   dF: +7.407e-08   |Residual|: 3.885e-04   |deigs|: 3.738e-04  t[s]:    965.28
	FillingsUpdate:  mu: -0.061974017  nElectrons: 121.000000  magneticMoment: [ Abs: 1.26507  Tot: +1.00077 ]
SCF: Cycle: 21   F: -222.266005228885973   dF: +6.851e-08   |Residual|: 3.365e-04   |deigs|: 3.887e-04  t[s]:   1004.04
	FillingsUpdate:  mu: -0.061668241  nElectrons: 121.000000  magneticMoment: [ Abs: 1.26432  Tot: +0.99953 ]
SCF: Cycle: 22   F: -222.266005333956912   dF: -1.051e-07   |Residual|: 2.331e-04   |deigs|: 6.408e-04  t[s]:   1042.42
	FillingsUpdate:  mu: -0.061457488  nElectrons: 121.000000  magneticMoment: [ Abs: 1.26365  Tot: +0.99929 ]
SCF: Cycle: 23   F: -222.266005458654860   dF: -1.247e-07   |Residual|: 1.622e-04   |deigs|: 5.582e-04  t[s]:   1080.99
	FillingsUpdate:  mu: -0.061324348  nElectrons: 121.000000  magneticMoment: [ Abs: 1.26333  Tot: +0.99963 ]
SCF: Cycle: 24   F: -222.266005545882734   dF: -8.723e-08   |Residual|: 8.005e-05   |deigs|: 3.596e-04  t[s]:   1119.21
	FillingsUpdate:  mu: -0.061274259  nElectrons: 121.000000  magneticMoment: [ Abs: 1.26333  Tot: +0.99979 ]
SCF: Cycle: 25   F: -222.266005571733018   dF: -2.585e-08   |Residual|: 3.778e-05   |deigs|: 1.900e-04  t[s]:   1157.53
	FillingsUpdate:  mu: -0.061248933  nElectrons: 121.000000  magneticMoment: [ Abs: 1.26336  Tot: +0.99989 ]
SCF: Cycle: 26   F: -222.266005580548125   dF: -8.815e-09   |Residual|: 2.641e-05   |deigs|: 1.314e-04  t[s]:   1196.02
	FillingsUpdate:  mu: -0.061231307  nElectrons: 121.000000  magneticMoment: [ Abs: 1.26334  Tot: +0.99995 ]
SCF: Cycle: 27   F: -222.266005584202560   dF: -3.654e-09   |Residual|: 1.930e-05   |deigs|: 2.169e-04  t[s]:   1234.34
SCF: Converged (|Delta E|<1.000000e-08 for 2 iters).


Computing DFT-D3 correction:
# coordination-number N 3.197 3.197 4.099 3.197 4.099 3.153 3.153 4.099 3.197 4.099 4.099 3.197 3.197 4.099
# coordination-number B 4.321 3.426 3.426 3.426 3.426 4.321 4.321 4.321 3.426 3.426 4.321 4.321 3.362 3.362
# coordination-number Na 12.537
# diagonal-C6 N 15.60 15.60 15.58 15.60 15.58 15.61 15.61 15.58 15.60 15.58 15.58 15.60 15.60 15.58
# diagonal-C6 B 28.03 31.41 31.41 31.41 31.41 28.03 28.03 28.03 31.41 31.41 28.03 28.03 31.44 31.44
# diagonal-C6 Na 186.11
EvdW_6 =   -0.042482
EvdW_8 =   -0.034982

# Ionic positions in lattice coordinates:
ion N   0.952380952379803   0.761904761902463   0.000000000000000 0
ion N   1.428571428570279   1.285714285711987   0.175000000000000 0
ion N   0.380952380951232   0.904761904759606   0.000000000000000 0
ion N   0.714285714284565   1.142857142854844   0.175000000000000 0
ion N   0.523809523808374   0.619047619045320   0.000000000000000 0
ion N   0.999999999998850   0.999999999997701   0.175000000000000 0
ion N   0.666666666665517   0.333333333331034   0.000000000000000 0
ion N   1.285714285713136   0.857142857140558   0.175000000000000 0
ion N   0.809523809522660   0.047619047616749   0.000000000000000 0
ion N   1.571428571427422   0.714285714283415   0.175000000000000 0
ion N   0.095238095236946   0.476190476188177   0.000000000000000 0
ion N   0.238095238094089   0.190476190473892   0.000000000000000 0
ion N   0.857142857141708   0.571428571426273   0.175000000000000 0
ion N   1.142857142855993   0.428571428569130   0.175000000000000 0
ion B   0.571428571427422   0.857142857140558   0.000000000000000 0
ion B   0.952380952379803   1.190476190473892   0.175000000000000 0
ion B   0.714285714284565   0.571428571426273   0.000000000000000 0
ion B   1.238095238094089   1.047619047616749   0.175000000000000 0
ion B   0.857142857141708   0.285714285711987   0.000000000000000 0
ion B   1.523809523808374   0.904761904759606   0.175000000000000 0
ion B   0.142857142855993   0.714285714283415   0.000000000000000 0
ion B   0.285714285713136   0.428571428569130   0.000000000000000 0
ion B   0.809523809522660   0.761904761902463   0.175000000000000 0
ion B   0.428571428570279   0.142857142854844   0.000000000000000 0
ion B   1.095238095236946   0.619047619045320   0.175000000000000 0
ion B   1.380952380951231   0.476190476188177   0.175000000000000 0
ion B  -0.000000000001149  -0.000000000002299   0.000000000000000 0
ion B   0.666666666665517   0.333333333331034   0.175000000000000 0
ion Na   0.333333333332184   0.666666666664368   0.087500000000000 0

# Forces in Lattice coordinates:
force N  -0.004814381580499  -0.003737043786806   0.021468807777340 0
force N  -0.003737043786806  -0.004814381580499  -0.021468807777340 0
force N  -0.028003680058306  -0.000943660991397   0.041005936476377 0
force N   0.008551425367305  -0.003737043786806  -0.021468807777454 0
force N  -0.000943660991396   0.028947341049704   0.041005936476377 0
force N   0.000000000000000   0.000000000000000  -0.015412798366137 0
force N   0.000000000000000   0.000000000000000   0.015412798366137 0
force N   0.028947341049702  -0.000943660991396  -0.041005936476491 0
force N  -0.003737043786806   0.008551425367305   0.021468807777454 0
force N  -0.000943660991396  -0.028003680058306  -0.041005936476491 0
force N   0.028947341049704  -0.028003680058306   0.041005936476377 0
force N   0.008551425367305  -0.004814381580500   0.021468807777454 0
force N  -0.004814381580499   0.008551425367305  -0.021468807777340 0
force N  -0.028003680058306   0.028947341049702  -0.041005936476491 0
force B   0.166785174980773   0.067548768526761  -0.662000597020072 0
force B  -0.027058713153674  -0.026896061654314  -0.035862387129825 0
force B   0.053954774807988  -0.026896061654314   0.035862387129768 0
force B  -0.026896061654314   0.053954774807988  -0.035862387129938 0
force B  -0.026896061654314  -0.027058713153674   0.035862387129768 0
force B   0.067548768526761   0.166785174980773   0.662000597020129 0
force B  -0.234333943507533   0.166785174980773  -0.662000597020129 0
force B   0.067548768526761  -0.234333943507532  -0.662000597020129 0
force B   0.053954774807988  -0.027058713153674  -0.035862387129768 0
force B  -0.027058713153674   0.053954774807988   0.035862387129938 0
force B  -0.234333943507532   0.067548768526760   0.662000597020129 0
force B   0.166785174980772  -0.234333943507532   0.662000597020072 0
force B   0.000000000000000   0.000000000000000  -0.003632149418528 0
force B   0.000000000000000   0.000000000000000   0.003632149418642 0
force Na  -0.000000000000000  -0.000000000000000   0.000000000000000 0

# Energy components:
   Eewald =    -1476.3376949046573827
       EH =    -1301.6623311509849827
     Eloc =     2485.5401959002624608
      Enl =      -21.5168829915526985
   Epulay =       -0.0000190610708103
     EvdW =       -0.0774637113768909
      Exc =      -58.0431553914628395
       KE =      149.8313462570702939
-------------------------------------
     Etot =     -222.2660050537730569
       TS =        0.0000005304295085
-------------------------------------
        F =     -222.2660055842025599

IonicMinimize: Iter:   0  F: -222.266005584202560  |grad|_K:  0.000e+00  t[s]:   1238.41
IonicMinimize: Converged (|grad|_K<1.000000e-04).

#--- Lowdin population analysis ---
# oxidation-state N -0.360 -0.360 -0.384 -0.360 -0.384 -0.368 -0.368 -0.384 -0.360 -0.384 -0.384 -0.360 -0.360 -0.384
# magnetic-moments N -0.014 -0.014 -0.016 -0.014 -0.016 -0.002 -0.002 -0.016 -0.014 -0.016 -0.016 -0.014 -0.014 -0.016
# oxidation-state B +0.313 +0.413 +0.413 +0.413 +0.413 +0.313 +0.313 +0.313 +0.413 +0.413 +0.313 +0.313 +0.423 +0.423
# magnetic-moments B +0.125 +0.054 +0.054 +0.054 +0.054 +0.125 +0.125 +0.125 +0.054 +0.054 +0.125 +0.125 +0.032 +0.032
# oxidation-state Na +0.916
# magnetic-moments Na +0.003


Dumping 'Na-0.175.fillings' ... done
Dumping 'Na-0.175.wfns' ... done
Dumping 'Na-0.175.n_up' ... done
Dumping 'Na-0.175.n_dn' ... done
Dumping 'Na-0.175.eigenvals' ... done
End date and time: Wed Jan 19 20:20:18 2022  (Duration: 0-0:20:42.48)
Done!
