Second Layer Distance is 0.259

--------------------------------------------------------------------------
The library attempted to open the following supporting CUDA libraries,
but each of them failed.  CUDA-aware support is disabled.
libcuda.so.1: cannot open shared object file: No such file or directory
libcuda.dylib: cannot open shared object file: No such file or directory
/usr/lib64/libcuda.so.1: cannot open shared object file: No such file or directory
/usr/lib64/libcuda.dylib: cannot open shared object file: No such file or directory
If you are not interested in CUDA-aware support, then run with
--mca opal_warn_on_missing_libcuda 0 to suppress this message.  If you are interested
in CUDA-aware support, then try setting LD_LIBRARY_PATH to the location
of libcuda.so.1 to get passed this issue.
--------------------------------------------------------------------------
--------------------------------------------------------------------------
No OpenFabrics connection schemes reported that they were able to be
used on a specific port.  As such, the openib BTL (OpenFabrics
support) will be disabled for this port.

  Local host:           d-5-1-1
  Local device:         mlx5_1
  Local port:           1
  CPCs attempted:       rdmacm, udcm
--------------------------------------------------------------------------

*************** JDFTx 1.6.0 (git hash 42ebbcc2) ***************

Start date and time: Wed Jan 19 20:27:58 2022
Executable jdftx with command-line: -i Moire.in
Running on hosts (process indices):  d-5-1-1 (0-18)
Divided in process groups (process indices):  0 (0)  1 (1)  2 (2)  3 (3)  4 (4)  5 (5)  6 (6)  7 (7)  8 (8)  9 (9)  10 (10)  11 (11)  12 (12)  13 (13)  14 (14)  15 (15)  16 (16)  17 (17)  18 (18)
Resource initialization completed at t[s]:      0.00
Run totals: 19 processes, 48 threads, 0 GPUs


Input parsed successfully to the following command list (including defaults):

basis kpoint-dependent
coords-type Lattice
core-overlap-check vector
coulomb-interaction Slab 001
davidson-band-ratio 1.1
dump End State ElecDensity BandEigs
dump-name Na-0.259.$VAR
elec-cutoff 20
elec-eigen-algo Davidson
elec-ex-corr gga-PBE
elec-initial-magnetization 0.100000 no
elec-smearing Fermi 1e-05
electronic-minimize  \
	dirUpdateScheme      FletcherReeves \
	linminMethod         DirUpdateRecommended \
	nIterations          100 \
	history              15 \
	knormThreshold       0 \
	energyDiffThreshold  1e-08 \
	nEnergyDiff          2 \
	alphaTstart          1 \
	alphaTmin            1e-10 \
	updateTestStepSize   yes \
	alphaTreduceFactor   0.1 \
	alphaTincreaseFactor 3 \
	nAlphaAdjustMax      3 \
	wolfeEnergy          0.0001 \
	wolfeGradient        0.9 \
	fdTest               no
electronic-scf  \
	nIterations	1000 \
	energyDiffThreshold	1e-08 \
	residualThreshold	1e-07 \
	mixFraction	0.5 \
	qMetric	0.8 \
	history	10 \
	nEigSteps	2 \
	eigDiffThreshold	1e-08 \
	mixedVariable	Density \
	qKerker	0.8 \
	qKappa	-1 \
	verbose	no \
	mixFractionMag	1.5
exchange-regularization WignerSeitzTruncated
fluid None
fluid-ex-corr (null) lda-PZ
fluid-gummel-loop 10 1.000000e-05
fluid-minimize  \
	dirUpdateScheme      PolakRibiere \
	linminMethod         DirUpdateRecommended \
	nIterations          100 \
	history              15 \
	knormThreshold       0 \
	energyDiffThreshold  0 \
	nEnergyDiff          2 \
	alphaTstart          1 \
	alphaTmin            1e-10 \
	updateTestStepSize   yes \
	alphaTreduceFactor   0.1 \
	alphaTincreaseFactor 3 \
	nAlphaAdjustMax      3 \
	wolfeEnergy          0.0001 \
	wolfeGradient        0.9 \
	fdTest               no
fluid-solvent H2O 55.338 ScalarEOS \
	epsBulk 78.4 \
	pMol 0.92466 \
	epsInf 1.77 \
	Pvap 1.06736e-10 \
	sigmaBulk 4.62e-05 \
	Rvdw 2.61727 \
	Res 1.42 \
	tauNuc 343133 \
	poleEl 15 7 1
forces-output-coords Positions
ion N   0.952380952380952   0.761904761904762   0.000000000000000 0
ion N   1.428571428571428   1.285714285714286   0.259000000000000 0
ion N   0.380952380952381   0.904761904761905   0.000000000000000 0
ion N   0.714285714285714   1.142857142857143   0.259000000000000 0
ion N   0.523809523809524   0.619047619047619   0.000000000000000 0
ion N   1.000000000000000   1.000000000000000   0.259000000000000 0
ion N   0.666666666666667   0.333333333333333   0.000000000000000 0
ion N   1.285714285714286   0.857142857142857   0.259000000000000 0
ion N   0.809523809523810   0.047619047619048   0.000000000000000 0
ion N   1.571428571428571   0.714285714285714   0.259000000000000 0
ion N   0.095238095238095   0.476190476190476   0.000000000000000 0
ion N   0.238095238095238   0.190476190476190   0.000000000000000 0
ion N   0.857142857142857   0.571428571428571   0.259000000000000 0
ion N   1.142857142857143   0.428571428571429   0.259000000000000 0
ion B   0.571428571428572   0.857142857142857   0.000000000000000 0
ion B   0.952380952380952   1.190476190476190   0.259000000000000 0
ion B   0.714285714285714   0.571428571428571   0.000000000000000 0
ion B   1.238095238095238   1.047619047619047   0.259000000000000 0
ion B   0.857142857142857   0.285714285714286   0.000000000000000 0
ion B   1.523809523809524   0.904761904761905   0.259000000000000 0
ion B   0.142857142857143   0.714285714285714   0.000000000000000 0
ion B   0.285714285714286   0.428571428571429   0.000000000000000 0
ion B   0.809523809523810   0.761904761904762   0.259000000000000 0
ion B   0.428571428571429   0.142857142857143   0.000000000000000 0
ion B   1.095238095238095   0.619047619047619   0.259000000000000 0
ion B   1.380952380952381   0.476190476190476   0.259000000000000 0
ion B   0.000000000000000   0.000000000000000   0.000000000000000 0
ion B   0.666666666666667   0.333333333333333   0.259000000000000 0
ion Na   0.333333333300000   0.666666666600000   0.129500000000000 0
ion-species SG15/$ID_ONCV_PBE.upf
ion-width 0
ionic-minimize  \
	dirUpdateScheme      L-BFGS \
	linminMethod         DirUpdateRecommended \
	nIterations          0 \
	history              15 \
	knormThreshold       0.0001 \
	energyDiffThreshold  1e-06 \
	nEnergyDiff          2 \
	alphaTstart          1 \
	alphaTmin            1e-10 \
	updateTestStepSize   yes \
	alphaTreduceFactor   0.1 \
	alphaTincreaseFactor 3 \
	nAlphaAdjustMax      3 \
	wolfeEnergy          0.0001 \
	wolfeGradient        0.9 \
	fdTest               no
kpoint   0.000000000000   0.000000000000   0.000000000000  1.00000000000000
kpoint-folding 12 12 1 
latt-move-scale 1 1 1
latt-scale 1 1 1 
lattice  \
	 -11.818700000000000    2.363740000000000    0.000000000000000  \
	   4.094120000000000  -12.282400000000001    0.000000000000000  \
	   0.000000000000000    0.000000000000000   40.000000000000000 
lattice-minimize  \
	dirUpdateScheme      L-BFGS \
	linminMethod         DirUpdateRecommended \
	nIterations          0 \
	history              15 \
	knormThreshold       0 \
	energyDiffThreshold  1e-06 \
	nEnergyDiff          2 \
	alphaTstart          1 \
	alphaTmin            1e-10 \
	updateTestStepSize   yes \
	alphaTreduceFactor   0.1 \
	alphaTincreaseFactor 3 \
	nAlphaAdjustMax      3 \
	wolfeEnergy          0.0001 \
	wolfeGradient        0.9 \
	fdTest               no
lcao-params -1 1e-06 1e-05
pcm-variant GLSSA13
spintype z-spin
subspace-rotation-factor 1 yes
symmetries automatic
symmetry-threshold 0.0001
van-der-waals D3



---------- Setting up symmetries ----------

Found 24 point-group symmetries of the bravais lattice
Found 6 space-group symmetries with basis
Applied RMS atom displacement 1.31765e-10 bohrs to make symmetries exact.

---------- Initializing the Grid ----------
R = 
[     -11.8187      2.36374            0  ]
[      4.09412     -12.2824            0  ]
[            0            0           40  ]
unit cell volume = 5419.38
G =
[  -0.569604   -0.10962          0  ]
[  -0.189867    -0.5481          0  ]
[          0          0    0.15708  ]
Minimum fftbox size, Smin = [  52  52  164  ]
Chosen fftbox size, S = [  54  54  168  ]

---------- Exchange Correlation functional ----------
Initalized PBE GGA exchange.
Initalized PBE GGA correlation.

---------- Setting up pseudopotentials ----------
Width of ionic core gaussian charges (only for fluid interactions / plotting) set to 0

Reading pseudopotential file '/home/gridsan/aligho/DFT/build-Nov24/pseudopotentials/SG15/N_ONCV_PBE.upf':
  'N' pseudopotential, 'PBE' functional
  Generated using ONCVPSP code by D. R. Hamann
  Author: Martin Schlipf and Francois Gygi  Date: 150915.
  5 valence electrons, 2 orbitals, 4 projectors, 1058 radial grid points, with lMax = 1
  Transforming local potential to a uniform radial grid of dG=0.02 with 1514 points.
  Transforming nonlocal projectors to a uniform radial grid of dG=0.02 with 432 points.
    2S    l: 0   occupation:  2.0   eigenvalue: -0.682907
    2P    l: 1   occupation:  3.0   eigenvalue: -0.260548
  Transforming atomic orbitals to a uniform radial grid of dG=0.02 with 432 points.
  Core radius for overlap checks: 1.35 bohrs.
  Reading pulay file /home/gridsan/aligho/DFT/build-Nov24/pseudopotentials/SG15/N_ONCV_PBE.pulay ... using dE_dnG = -2.956256e-02 computed for Ecut = 20.

Reading pseudopotential file '/home/gridsan/aligho/DFT/build-Nov24/pseudopotentials/SG15/B_ONCV_PBE.upf':
  'B' pseudopotential, 'PBE' functional
  Generated using ONCVPSP code by D. R. Hamann
  Author: Martin Schlipf and Francois Gygi  Date: 150915.
  3 valence electrons, 2 orbitals, 4 projectors, 1534 radial grid points, with lMax = 1
  Transforming local potential to a uniform radial grid of dG=0.02 with 1514 points.
  Transforming nonlocal projectors to a uniform radial grid of dG=0.02 with 432 points.
    2S    l: 0   occupation:  2.0   eigenvalue: -0.347027
    2P    l: 1   occupation:  1.0   eigenvalue: -0.132548
  Transforming atomic orbitals to a uniform radial grid of dG=0.02 with 432 points.
  Core radius for overlap checks: 1.60 bohrs.
  Reading pulay file /home/gridsan/aligho/DFT/build-Nov24/pseudopotentials/SG15/B_ONCV_PBE.pulay ... using dE_dnG = -3.748568e-04 computed for Ecut = 20.

Reading pseudopotential file '/home/gridsan/aligho/DFT/build-Nov24/pseudopotentials/SG15/Na_ONCV_PBE.upf':
  'Na' pseudopotential, 'PBE' functional
  Generated using ONCVPSP code by D. R. Hamann
  Author: Martin Schlipf and Francois Gygi  Date: 150915.
  9 valence electrons, 3 orbitals, 4 projectors, 1992 radial grid points, with lMax = 1
  Transforming local potential to a uniform radial grid of dG=0.02 with 1514 points.
  Transforming nonlocal projectors to a uniform radial grid of dG=0.02 with 432 points.
    2S    l: 0   occupation:  2.0   eigenvalue: -2.085640
    2P    l: 1   occupation:  6.0   eigenvalue: -1.053708
    3S    l: 0   occupation:  1.0   eigenvalue: -0.100838
  Transforming atomic orbitals to a uniform radial grid of dG=0.02 with 432 points.
  Core radius for overlap checks: 2.01 bohrs.
  Reading pulay file /home/gridsan/aligho/DFT/build-Nov24/pseudopotentials/SG15/Na_ONCV_PBE.pulay ... using dE_dnG = -2.946487e-03 computed for Ecut = 20.

Initialized 3 species with 29 total atoms.

Folded 1 k-points by 12x12x1 to 144 k-points.

---------- Setting up k-points, bands, fillings ----------
Adding inversion symmetry to k-mesh for non-inversion-symmetric unit cell.
Reduced to 19 k-points under symmetry. 
Computing the number of bands and number of electrons
Calculating initial fillings.
nElectrons: 121.000000   nBands: 117   nStates: 38

----- Setting up reduced wavefunction bases (one per k-point) -----
average nbasis = 23151.771 , ideal nbasis = 23152.016

---------- Setting up coulomb interaction ----------
Initialized slab truncation along lattice direction 001

Initializing DFT-D3 calculator:
	Parameters set for gga-PBE functional
	s6:  1.000  s_r6:  1.217
	s8:  0.722  s_r8:  1.000
	Per-atom parameters loaded for:
	 N:  sqrtQ[a0]:  2.712  Rcov[a0]:  1.342  CN: [ 0.00 0.99 2.01 2.99 ]
	 B:  sqrtQ[a0]:  3.644  Rcov[a0]:  1.455  CN: [ 0.00 0.97 1.94 2.91 4.59 ]
	Na:  sqrtQ[a0]:  6.586  Rcov[a0]:  2.646  CN: [ 0.00 0.97 ]

---------- Setting up 2D ewald sum ----------
Optimum gaussian width for ewald sums = 6.943804 bohr.
Real space sums over 289 unit cells with max indices [  8  8  0  ]
Reciprocal space sums over 81 terms with max indices [  4  4  0  ]

Computing DFT-D3 correction:
# coordination-number N 3.148 3.148 3.324 3.148 3.324 3.141 3.141 3.324 3.148 3.324 3.324 3.148 3.148 3.324
# coordination-number B 3.598 3.355 3.355 3.355 3.355 3.598 3.598 3.598 3.355 3.355 3.598 3.598 3.347 3.347
# coordination-number Na 2.860
# diagonal-C6 N 15.61 15.61 15.59 15.61 15.59 15.61 15.61 15.59 15.61 15.59 15.59 15.61 15.61 15.59
# diagonal-C6 B 31.03 31.44 31.44 31.44 31.44 31.03 31.03 31.03 31.44 31.44 31.03 31.03 31.44 31.44
# diagonal-C6 Na 186.11
EvdW_6 =   -0.033340
EvdW_8 =   -0.030945

---------- Allocating electronic variables ----------
Initializing wave functions:  linear combination of atomic orbitals
N pseudo-atom occupations:   s ( 2 )  p ( 3 )
[d-5-1-1:02001] 18 more processes have sent help message help-mpi-common-cuda.txt / dlopen failed
[d-5-1-1:02001] Set MCA parameter "orte_base_help_aggregate" to 0 to see all help / error messages
[d-5-1-1:02001] 18 more processes have sent help message help-mpi-btl-openib-cpc-base.txt / no cpcs for port
B pseudo-atom occupations:   s ( 2 )  p ( 1 )
Na pseudo-atom occupations:   s ( 2 1 )  p ( 6 )
	FillingsUpdate:  mu: -0.143074395  nElectrons: 121.000000  magneticMoment: [ Abs: 0.07273  Tot: +0.00829 ]
LCAOMinimize: Iter:   0  F: -219.7018545180817739  |grad|_K:  3.480e-03  alpha:  1.000e+00
	FillingsUpdate:  mu: -0.186924927  nElectrons: 121.000000  magneticMoment: [ Abs: 0.04574  Tot: +0.01388 ]
LCAOMinimize: Iter:   1  F: -220.8575862273392261  |grad|_K:  4.520e-04  alpha:  4.421e-01  linmin:  3.230e-01  cgtest: -1.065e+00  t[s]:     48.69
LCAOMinimize: 	Bad step direction: g.d > 0.
LCAOMinimize: 	Undoing step.
LCAOMinimize: 	Step failed: resetting search direction.
	FillingsUpdate:  mu: -0.186924927  nElectrons: 121.000000  magneticMoment: [ Abs: 0.04574  Tot: +0.01388 ]
LCAOMinimize: Iter:   2  F: -220.8575862273392261  |grad|_K:  4.520e-04  alpha:  0.000e+00
	FillingsUpdate:  mu: -0.150553598  nElectrons: 121.000000  magneticMoment: [ Abs: 0.03906  Tot: +0.01389 ]
LCAOMinimize: Iter:   3  F: -220.8810401844654052  |grad|_K:  9.618e-05  alpha:  4.248e-01  linmin:  9.240e-02  cgtest: -4.915e-01  t[s]:     73.70
LCAOMinimize: 	Wrong curvature in test step, increasing alphaT to 1.274483e+00.
	FillingsUpdate:  mu: -0.168347525  nElectrons: 121.000000  magneticMoment: [ Abs: 0.15931  Tot: +0.15461 ]
LCAOMinimize: Iter:   4  F: -220.8826776986207392  |grad|_K:  7.759e-05  alpha: -8.773e-01  linmin:  5.187e-03  cgtest: -2.357e-01  t[s]:     87.80
LCAOMinimize: 	Step increased F by 4.784241e-04, reducing alpha to 8.675217e-03.
	FillingsUpdate:  mu: -0.168483089  nElectrons: 121.000000  magneticMoment: [ Abs: 0.16705  Tot: +0.16271 ]
LCAOMinimize: Iter:   5  F: -220.8826847676607201  |grad|_K:  7.803e-05  alpha:  8.675e-03  linmin: -1.493e-03  cgtest:  1.017e+00  t[s]:    112.61
LCAOMinimize: Encountered beta<0, resetting CG.
LCAOMinimize: 	Predicted alpha/alphaT>3.000000, increasing alphaT to 2.602565e-02.
LCAOMinimize: 	Wrong curvature in test step, increasing alphaT to 7.807695e-02.
	FillingsUpdate:  mu: -0.166383315  nElectrons: 121.000000  magneticMoment: [ Abs: 0.16517  Tot: +0.15981 ]
LCAOMinimize: Iter:   6  F: -220.8829560061644486  |grad|_K:  1.487e-04  alpha: -5.821e-03  linmin: -1.504e-02  cgtest:  5.299e-01  t[s]:    130.96
LCAOMinimize: 	Step increased F by 1.615454e-03, reducing alpha to 2.465001e-02.
	FillingsUpdate:  mu: -0.162208497  nElectrons: 121.000000  magneticMoment: [ Abs: 0.03744  Tot: +0.01389 ]
LCAOMinimize: Iter:   7  F: -220.8832805491593660  |grad|_K:  4.735e-05  alpha:  2.465e-02  linmin: -3.420e-01  cgtest:  1.964e-01  t[s]:    156.00
LCAOMinimize: 	Predicted alpha/alphaT>3.000000, increasing alphaT to 7.395002e-02.
LCAOMinimize: 	Predicted alpha/alphaT>3.000000, increasing alphaT to 2.218501e-01.
	FillingsUpdate:  mu: -0.161609853  nElectrons: 121.000000  magneticMoment: [ Abs: 0.03576  Tot: +0.01389 ]
LCAOMinimize: Iter:   8  F: -220.8835205050487787  |grad|_K:  3.624e-06  alpha:  3.405e-01  linmin: -8.933e-03  cgtest:  8.884e-02  t[s]:    178.78
LCAOMinimize: Encountered beta<0, resetting CG.
	FillingsUpdate:  mu: -0.161893793  nElectrons: 121.000000  magneticMoment: [ Abs: 0.03121  Tot: +0.01389 ]
LCAOMinimize: Iter:   9  F: -220.8835224121344538  |grad|_K:  1.414e-06  alpha:  5.489e-01  linmin: -5.782e-05  cgtest:  5.300e-04  t[s]:    193.26
	FillingsUpdate:  mu: -0.161911783  nElectrons: 121.000000  magneticMoment: [ Abs: 0.02766  Tot: +0.01390 ]
LCAOMinimize: Iter:  10  F: -220.8835226886377257  |grad|_K:  6.296e-07  alpha:  5.222e-01  linmin:  1.066e-03  cgtest:  4.285e-03  t[s]:    207.79
	FillingsUpdate:  mu: -0.161863061  nElectrons: 121.000000  magneticMoment: [ Abs: 0.02371  Tot: +0.01389 ]
LCAOMinimize: Iter:  11  F: -220.8835227759608131  |grad|_K:  1.761e-07  alpha:  8.244e-01  linmin: -1.603e-02  cgtest:  1.291e-01  t[s]:    222.24
LCAOMinimize: Converged (|Delta F|<1.000000e-06 for 2 iters).


---- Citations for features of the code used in this run ----

   Software package:
      R. Sundararaman, K. Letchworth-Weaver, K.A. Schwarz, D. Gunceler, Y. Ozhabes and T.A. Arias, 'JDFTx: software for joint density-functional theory', SoftwareX 6, 278 (2017)

   gga-PBE exchange-correlation functional:
      J.P. Perdew, K. Burke and M. Ernzerhof, Phys. Rev. Lett. 77, 3865 (1996)

   Pseudopotentials:
      M Schlipf and F Gygi, Comput. Phys. Commun. 196, 36 (2015)

   Truncated Coulomb potentials:
      R. Sundararaman and T.A. Arias, Phys. Rev. B 87, 165122 (2013)

   DFT-D3 dispersion correction:
      S. Grimme, J. Antony, S. Ehrlich and H. Krieg, J. Chem. Phys. 132, 154104 (2010)

This list may not be complete. Please suggest additional citations or
report any other bugs at https://github.com/shankar1729/jdftx/issues

Initialization completed successfully at t[s]:    224.38


Computing DFT-D3 correction:
# coordination-number N 3.148 3.148 3.324 3.148 3.324 3.141 3.141 3.324 3.148 3.324 3.324 3.148 3.148 3.324
# coordination-number B 3.598 3.355 3.355 3.355 3.355 3.598 3.598 3.598 3.355 3.355 3.598 3.598 3.347 3.347
# coordination-number Na 2.860
# diagonal-C6 N 15.61 15.61 15.59 15.61 15.59 15.61 15.61 15.59 15.61 15.59 15.59 15.61 15.61 15.59
# diagonal-C6 B 31.03 31.44 31.44 31.44 31.44 31.03 31.03 31.03 31.44 31.44 31.03 31.03 31.44 31.44
# diagonal-C6 Na 186.11
EvdW_6 =   -0.033340
EvdW_8 =   -0.030945

-------- Electronic minimization -----------
Will mix electronic density at each iteration.
	FillingsUpdate:  mu: -0.161863061  nElectrons: 121.000000  magneticMoment: [ Abs: 0.02371  Tot: +0.01389 ]
	FillingsUpdate:  mu: -0.172102519  nElectrons: 121.000000  magneticMoment: [ Abs: 0.02371  Tot: +0.01389 ]
SCF: Cycle:  0   F: -222.191345814854742   dF: -1.308e+00   |Residual|: 3.959e-01   |deigs|: 1.114e-01  t[s]:    273.28
	FillingsUpdate:  mu: -0.164165695  nElectrons: 121.000000  magneticMoment: [ Abs: 0.02205  Tot: +0.01389 ]
SCF: Cycle:  1   F: -222.270557651762260   dF: -7.921e-02   |Residual|: 2.144e-01   |deigs|: 1.897e-02  t[s]:    311.02
	FillingsUpdate:  mu: -0.161956783  nElectrons: 121.000000  magneticMoment: [ Abs: 0.02737  Tot: +0.01376 ]
SCF: Cycle:  2   F: -222.302178144518308   dF: -3.162e-02   |Residual|: 3.932e-02   |deigs|: 2.152e-02  t[s]:    348.52
	FillingsUpdate:  mu: -0.158614694  nElectrons: 121.000000  magneticMoment: [ Abs: 0.01870  Tot: +0.01377 ]
SCF: Cycle:  3   F: -222.304763475982924   dF: -2.585e-03   |Residual|: 2.569e-02   |deigs|: 4.462e-03  t[s]:    386.14
	FillingsUpdate:  mu: -0.149832549  nElectrons: 121.000000  magneticMoment: [ Abs: 0.02056  Tot: +0.01379 ]
SCF: Cycle:  4   F: -222.307374455510285   dF: -2.611e-03   |Residual|: 1.627e-02   |deigs|: 9.539e-03  t[s]:    423.64
	FillingsUpdate:  mu: -0.143043245  nElectrons: 121.000000  magneticMoment: [ Abs: 0.02400  Tot: +0.01381 ]
SCF: Cycle:  5   F: -222.309397379550290   dF: -2.023e-03   |Residual|: 1.242e-02   |deigs|: 6.994e-03  t[s]:    461.32
	FillingsUpdate:  mu: -0.128749191  nElectrons: 121.000000  magneticMoment: [ Abs: 0.04776  Tot: +0.01385 ]
SCF: Cycle:  6   F: -222.311571683387967   dF: -2.174e-03   |Residual|: 1.289e-02   |deigs|: 1.235e-02  t[s]:    499.08
	FillingsUpdate:  mu: -0.117327016  nElectrons: 121.000000  magneticMoment: [ Abs: 0.03039  Tot: +0.01387 ]
SCF: Cycle:  7   F: -222.312616303228765   dF: -1.045e-03   |Residual|: 8.838e-03   |deigs|: 1.131e-02  t[s]:    536.69
	FillingsUpdate:  mu: -0.104052783  nElectrons: 121.000000  magneticMoment: [ Abs: 0.03685  Tot: +0.01389 ]
SCF: Cycle:  8   F: -222.315019055018865   dF: -2.403e-03   |Residual|: 7.732e-03   |deigs|: 1.224e-02  t[s]:    574.63
	FillingsUpdate:  mu: -0.098856406  nElectrons: 121.000000  magneticMoment: [ Abs: 0.02752  Tot: +0.01390 ]
SCF: Cycle:  9   F: -222.316376301292394   dF: -1.357e-03   |Residual|: 6.403e-03   |deigs|: 4.416e-03  t[s]:    612.65
	FillingsUpdate:  mu: -0.096227818  nElectrons: 121.000000  magneticMoment: [ Abs: 0.03780  Tot: +0.01390 ]
SCF: Cycle: 10   F: -222.317745502809601   dF: -1.369e-03   |Residual|: 5.721e-03   |deigs|: 3.109e-03  t[s]:    650.85
	FillingsUpdate:  mu: -0.091780811  nElectrons: 121.000000  magneticMoment: [ Abs: 0.02866  Tot: +0.01390 ]
SCF: Cycle: 11   F: -222.318392866906379   dF: -6.474e-04   |Residual|: 5.156e-03   |deigs|: 3.831e-03  t[s]:    688.78
	FillingsUpdate:  mu: -0.082161741  nElectrons: 121.000000  magneticMoment: [ Abs: 0.03139  Tot: +0.01390 ]
SCF: Cycle: 12   F: -222.319089693413218   dF: -6.968e-04   |Residual|: 4.752e-03   |deigs|: 7.929e-03  t[s]:    726.72
	FillingsUpdate:  mu: -0.080022025  nElectrons: 121.000000  magneticMoment: [ Abs: 0.02512  Tot: +0.01389 ]
SCF: Cycle: 13   F: -222.319171666277725   dF: -8.197e-05   |Residual|: 3.304e-03   |deigs|: 1.930e-03  t[s]:    764.63
	FillingsUpdate:  mu: -0.075698830  nElectrons: 121.000000  magneticMoment: [ Abs: 0.02539  Tot: +0.01389 ]
SCF: Cycle: 14   F: -222.319219927816846   dF: -4.826e-05   |Residual|: 1.608e-03   |deigs|: 3.717e-03  t[s]:    802.51
	FillingsUpdate:  mu: -0.074696430  nElectrons: 121.000000  magneticMoment: [ Abs: 0.01784  Tot: +0.01389 ]
SCF: Cycle: 15   F: -222.319223631486551   dF: -3.704e-06   |Residual|: 9.398e-04   |deigs|: 1.337e-03  t[s]:    840.54
	FillingsUpdate:  mu: -0.074436161  nElectrons: 121.000000  magneticMoment: [ Abs: 0.01732  Tot: +0.01389 ]
SCF: Cycle: 16   F: -222.319224575611258   dF: -9.441e-07   |Residual|: 5.199e-04   |deigs|: 9.423e-04  t[s]:    878.36
	FillingsUpdate:  mu: -0.074274891  nElectrons: 121.000000  magneticMoment: [ Abs: 0.01460  Tot: +0.01389 ]
SCF: Cycle: 17   F: -222.319224911741685   dF: -3.361e-07   |Residual|: 1.915e-04   |deigs|: 6.846e-04  t[s]:    916.30
	FillingsUpdate:  mu: -0.074235802  nElectrons: 121.000000  magneticMoment: [ Abs: 0.01431  Tot: +0.01389 ]
SCF: Cycle: 18   F: -222.319224977372130   dF: -6.563e-08   |Residual|: 1.223e-04   |deigs|: 2.744e-04  t[s]:    954.26
	FillingsUpdate:  mu: -0.074207560  nElectrons: 121.000000  magneticMoment: [ Abs: 0.01419  Tot: +0.01389 ]
SCF: Cycle: 19   F: -222.319225015729785   dF: -3.836e-08   |Residual|: 6.106e-05   |deigs|: 3.643e-04  t[s]:    992.33
	FillingsUpdate:  mu: -0.074222491  nElectrons: 121.000000  magneticMoment: [ Abs: 0.01414  Tot: +0.01389 ]
SCF: Cycle: 20   F: -222.319225021919976   dF: -6.190e-09   |Residual|: 3.618e-05   |deigs|: 4.410e-04  t[s]:   1030.45
	FillingsUpdate:  mu: -0.074216843  nElectrons: 121.000000  magneticMoment: [ Abs: 0.01411  Tot: +0.01389 ]
SCF: Cycle: 21   F: -222.319225023958666   dF: -2.039e-09   |Residual|: 2.233e-05   |deigs|: 4.613e-04  t[s]:   1068.39
SCF: Converged (|Delta E|<1.000000e-08 for 2 iters).


Computing DFT-D3 correction:
# coordination-number N 3.148 3.148 3.324 3.148 3.324 3.141 3.141 3.324 3.148 3.324 3.324 3.148 3.148 3.324
# coordination-number B 3.598 3.355 3.355 3.355 3.355 3.598 3.598 3.598 3.355 3.355 3.598 3.598 3.347 3.347
# coordination-number Na 2.860
# diagonal-C6 N 15.61 15.61 15.59 15.61 15.59 15.61 15.61 15.59 15.61 15.59 15.59 15.61 15.61 15.59
# diagonal-C6 B 31.03 31.44 31.44 31.44 31.44 31.03 31.03 31.03 31.44 31.44 31.03 31.03 31.44 31.44
# diagonal-C6 Na 186.11
EvdW_6 =   -0.033340
EvdW_8 =   -0.030945

# Ionic positions in lattice coordinates:
ion N   0.952380952379803   0.761904761902463   0.000000000000000 0
ion N   1.428571428570279   1.285714285711987   0.259000000000000 0
ion N   0.380952380951232   0.904761904759606   0.000000000000000 0
ion N   0.714285714284565   1.142857142854844   0.259000000000000 0
ion N   0.523809523808374   0.619047619045320   0.000000000000000 0
ion N   0.999999999998850   0.999999999997701   0.259000000000000 0
ion N   0.666666666665517   0.333333333331034   0.000000000000000 0
ion N   1.285714285713136   0.857142857140558   0.259000000000000 0
ion N   0.809523809522660   0.047619047616749   0.000000000000000 0
ion N   1.571428571427422   0.714285714283415   0.259000000000000 0
ion N   0.095238095236946   0.476190476188177   0.000000000000000 0
ion N   0.238095238094089   0.190476190473892   0.000000000000000 0
ion N   0.857142857141708   0.571428571426273   0.259000000000000 0
ion N   1.142857142855993   0.428571428569130   0.259000000000000 0
ion B   0.571428571427422   0.857142857140558   0.000000000000000 0
ion B   0.952380952379803   1.190476190473892   0.259000000000000 0
ion B   0.714285714284565   0.571428571426273   0.000000000000000 0
ion B   1.238095238094089   1.047619047616749   0.259000000000000 0
ion B   0.857142857141708   0.285714285711987   0.000000000000000 0
ion B   1.523809523808374   0.904761904759606   0.259000000000000 0
ion B   0.142857142855993   0.714285714283415   0.000000000000000 0
ion B   0.285714285713136   0.428571428569130   0.000000000000000 0
ion B   0.809523809522660   0.761904761902463   0.259000000000000 0
ion B   0.428571428570279   0.142857142854844   0.000000000000000 0
ion B   1.095238095236946   0.619047619045320   0.259000000000000 0
ion B   1.380952380951231   0.476190476188177   0.259000000000000 0
ion B  -0.000000000001149  -0.000000000002299   0.000000000000000 0
ion B   0.666666666665517   0.333333333331034   0.259000000000000 0
ion Na   0.333333333332184   0.666666666664368   0.129500000000000 0

# Forces in Lattice coordinates:
force N   0.008832973542268  -0.010173585957444  -0.039250550165013 0
force N  -0.010173585957444   0.008832973542268   0.039250550165013 0
force N   0.005802302016343  -0.026331306943531   0.030311331129586 0
force N   0.001340612415176  -0.010173585957444   0.039250550165013 0
force N  -0.026331306943531   0.020529004927188   0.030311331129700 0
force N   0.000000000000000   0.000000000000000   0.021139315823055 0
force N   0.000000000000000   0.000000000000000  -0.021139315823055 0
force N   0.020529004927188  -0.026331306943531  -0.030311331129473 0
force N  -0.010173585957444   0.001340612415176  -0.039250550165013 0
force N  -0.026331306943530   0.005802302016343  -0.030311331129473 0
force N   0.020529004927188   0.005802302016343   0.030311331129586 0
force N   0.001340612415176   0.008832973542268  -0.039250550165127 0
force N   0.008832973542268   0.001340612415176   0.039250550165013 0
force N   0.005802302016343   0.020529004927188  -0.030311331129586 0
force B   0.045736695827451   0.025074477248152  -0.123934545214646 0
force B  -0.011973927361904  -0.036768855460544  -0.037036800368220 0
force B   0.048742782822448  -0.036768855460544   0.037036800368220 0
force B  -0.036768855460544   0.048742782822447  -0.037036800368220 0
force B  -0.036768855460544  -0.011973927361904   0.037036800368334 0
force B   0.025074477248152   0.045736695827451   0.123934545214760 0
force B  -0.070811173075603   0.045736695827451  -0.123934545214760 0
force B   0.025074477248152  -0.070811173075603  -0.123934545214532 0
force B   0.048742782822447  -0.011973927361904  -0.037036800368334 0
force B  -0.011973927361904   0.048742782822448   0.037036800368334 0
force B  -0.070811173075603   0.025074477248152   0.123934545214760 0
force B   0.045736695827451  -0.070811173075603   0.123934545214646 0
force B   0.000000000000000  -0.000000000000000   0.061436853741624 0
force B  -0.000000000000000   0.000000000000000  -0.061436853741738 0
force Na   0.000000000000000   0.000000000000000   0.000000000000000 0

# Energy components:
   Eewald =    -2043.1465034734194433
       EH =    -1868.6259610430122393
     Eloc =     3619.6540179579274081
      Enl =      -21.2886773002047036
   Epulay =       -0.0000190610708103
     EvdW =       -0.0642842362347591
      Exc =      -57.7893572310540620
       KE =      148.9415597385776096
-------------------------------------
     Etot =     -222.3192246484910015
       TS =        0.0000003754676741
-------------------------------------
        F =     -222.3192250239586656

IonicMinimize: Iter:   0  F: -222.319225023958666  |grad|_K:  0.000e+00  t[s]:   1072.23
IonicMinimize: Converged (|grad|_K<1.000000e-04).

#--- Lowdin population analysis ---
# oxidation-state N -0.371 -0.371 -0.379 -0.371 -0.379 -0.371 -0.371 -0.379 -0.371 -0.379 -0.379 -0.371 -0.371 -0.379
# magnetic-moments N +0.000 +0.000 +0.000 +0.000 +0.000 +0.000 +0.000 +0.000 +0.000 +0.000 +0.000 +0.000 +0.000 +0.000
# oxidation-state B +0.416 +0.448 +0.448 +0.448 +0.448 +0.416 +0.416 +0.416 +0.448 +0.448 +0.416 +0.416 +0.448 +0.448
# magnetic-moments B +0.000 +0.000 +0.000 +0.000 +0.000 +0.000 +0.000 +0.000 +0.000 +0.000 +0.000 +0.000 +0.000 +0.000
# oxidation-state Na +0.163
# magnetic-moments Na +0.011


Dumping 'Na-0.259.fillings' ... done
Dumping 'Na-0.259.wfns' ... done
Dumping 'Na-0.259.n_up' ... done
Dumping 'Na-0.259.n_dn' ... done
Dumping 'Na-0.259.eigenvals' ... done
End date and time: Wed Jan 19 20:45:54 2022  (Duration: 0-0:17:55.97)
Done!
