Second Layer Distance is 0.307

--------------------------------------------------------------------------
The library attempted to open the following supporting CUDA libraries,
but each of them failed.  CUDA-aware support is disabled.
libcuda.so.1: cannot open shared object file: No such file or directory
libcuda.dylib: cannot open shared object file: No such file or directory
/usr/lib64/libcuda.so.1: cannot open shared object file: No such file or directory
/usr/lib64/libcuda.dylib: cannot open shared object file: No such file or directory
If you are not interested in CUDA-aware support, then run with
--mca opal_warn_on_missing_libcuda 0 to suppress this message.  If you are interested
in CUDA-aware support, then try setting LD_LIBRARY_PATH to the location
of libcuda.so.1 to get passed this issue.
--------------------------------------------------------------------------
--------------------------------------------------------------------------
No OpenFabrics connection schemes reported that they were able to be
used on a specific port.  As such, the openib BTL (OpenFabrics
support) will be disabled for this port.

  Local host:           d-4-7-2
  Local device:         mlx5_1
  Local port:           1
  CPCs attempted:       rdmacm, udcm
--------------------------------------------------------------------------

*************** JDFTx 1.6.0 (git hash 42ebbcc2) ***************

Start date and time: Sun Jan 23 16:36:02 2022
Executable jdftx with command-line: -i Moire.in
Running on hosts (process indices):  d-4-7-2 (0-18)
Divided in process groups (process indices):  0 (0)  1 (1)  2 (2)  3 (3)  4 (4)  5 (5)  6 (6)  7 (7)  8 (8)  9 (9)  10 (10)  11 (11)  12 (12)  13 (13)  14 (14)  15 (15)  16 (16)  17 (17)  18 (18)
Resource initialization completed at t[s]:      0.00
Run totals: 19 processes, 48 threads, 0 GPUs


Input parsed successfully to the following command list (including defaults):

basis kpoint-dependent
coords-type Lattice
core-overlap-check vector
coulomb-interaction Slab 001
davidson-band-ratio 1.1
dump End State ElecDensity BandEigs
dump-name Na-0.307.$VAR
elec-cutoff 20
elec-eigen-algo Davidson
elec-ex-corr gga-PBE
elec-initial-magnetization 0.100000 no
elec-smearing Fermi 1e-05
electronic-minimize  \
	dirUpdateScheme      FletcherReeves \
	linminMethod         DirUpdateRecommended \
	nIterations          100 \
	history              15 \
	knormThreshold       0 \
	energyDiffThreshold  1e-08 \
	nEnergyDiff          2 \
	alphaTstart          1 \
	alphaTmin            1e-10 \
	updateTestStepSize   yes \
	alphaTreduceFactor   0.1 \
	alphaTincreaseFactor 3 \
	nAlphaAdjustMax      3 \
	wolfeEnergy          0.0001 \
	wolfeGradient        0.9 \
	fdTest               no
electronic-scf  \
	nIterations	1000 \
	energyDiffThreshold	1e-08 \
	residualThreshold	1e-07 \
	mixFraction	0.5 \
	qMetric	0.8 \
	history	10 \
	nEigSteps	2 \
	eigDiffThreshold	1e-08 \
	mixedVariable	Density \
	qKerker	0.8 \
	qKappa	-1 \
	verbose	no \
	mixFractionMag	1.5
exchange-regularization WignerSeitzTruncated
fluid None
fluid-ex-corr (null) lda-PZ
fluid-gummel-loop 10 1.000000e-05
fluid-minimize  \
	dirUpdateScheme      PolakRibiere \
	linminMethod         DirUpdateRecommended \
	nIterations          100 \
	history              15 \
	knormThreshold       0 \
	energyDiffThreshold  0 \
	nEnergyDiff          2 \
	alphaTstart          1 \
	alphaTmin            1e-10 \
	updateTestStepSize   yes \
	alphaTreduceFactor   0.1 \
	alphaTincreaseFactor 3 \
	nAlphaAdjustMax      3 \
	wolfeEnergy          0.0001 \
	wolfeGradient        0.9 \
	fdTest               no
fluid-solvent H2O 55.338 ScalarEOS \
	epsBulk 78.4 \
	pMol 0.92466 \
	epsInf 1.77 \
	Pvap 1.06736e-10 \
	sigmaBulk 4.62e-05 \
	Rvdw 2.61727 \
	Res 1.42 \
	tauNuc 343133 \
	poleEl 15 7 1
forces-output-coords Positions
ion N   0.952380952380952   0.761904761904762   0.000000000000000 0
ion N   1.428571428571428   1.285714285714286   0.307000000000000 0
ion N   0.380952380952381   0.904761904761905   0.000000000000000 0
ion N   0.714285714285714   1.142857142857143   0.307000000000000 0
ion N   0.523809523809524   0.619047619047619   0.000000000000000 0
ion N   1.000000000000000   1.000000000000000   0.307000000000000 0
ion N   0.666666666666667   0.333333333333333   0.000000000000000 0
ion N   1.285714285714286   0.857142857142857   0.307000000000000 0
ion N   0.809523809523810   0.047619047619048   0.000000000000000 0
ion N   1.571428571428571   0.714285714285714   0.307000000000000 0
ion N   0.095238095238095   0.476190476190476   0.000000000000000 0
ion N   0.238095238095238   0.190476190476190   0.000000000000000 0
ion N   0.857142857142857   0.571428571428571   0.307000000000000 0
ion N   1.142857142857143   0.428571428571429   0.307000000000000 0
ion B   0.571428571428572   0.857142857142857   0.000000000000000 0
ion B   0.952380952380952   1.190476190476190   0.307000000000000 0
ion B   0.714285714285714   0.571428571428571   0.000000000000000 0
ion B   1.238095238095238   1.047619047619047   0.307000000000000 0
ion B   0.857142857142857   0.285714285714286   0.000000000000000 0
ion B   1.523809523809524   0.904761904761905   0.307000000000000 0
ion B   0.142857142857143   0.714285714285714   0.000000000000000 0
ion B   0.285714285714286   0.428571428571429   0.000000000000000 0
ion B   0.809523809523810   0.761904761904762   0.307000000000000 0
ion B   0.428571428571429   0.142857142857143   0.000000000000000 0
ion B   1.095238095238095   0.619047619047619   0.307000000000000 0
ion B   1.380952380952381   0.476190476190476   0.307000000000000 0
ion B   0.000000000000000   0.000000000000000   0.000000000000000 0
ion B   0.666666666666667   0.333333333333333   0.307000000000000 0
ion Na   0.333333333300000   0.666666666600000   0.153500000000000 0
ion-species SG15/$ID_ONCV_PBE.upf
ion-width 0
ionic-minimize  \
	dirUpdateScheme      L-BFGS \
	linminMethod         DirUpdateRecommended \
	nIterations          0 \
	history              15 \
	knormThreshold       0.0001 \
	energyDiffThreshold  1e-06 \
	nEnergyDiff          2 \
	alphaTstart          1 \
	alphaTmin            1e-10 \
	updateTestStepSize   yes \
	alphaTreduceFactor   0.1 \
	alphaTincreaseFactor 3 \
	nAlphaAdjustMax      3 \
	wolfeEnergy          0.0001 \
	wolfeGradient        0.9 \
	fdTest               no
kpoint   0.000000000000   0.000000000000   0.000000000000  1.00000000000000
kpoint-folding 12 12 1 
latt-move-scale 1 1 1
latt-scale 1 1 1 
lattice  \
	 -11.818700000000000    2.363740000000000    0.000000000000000  \
	   4.094120000000000  -12.282400000000001    0.000000000000000  \
	   0.000000000000000    0.000000000000000   40.000000000000000 
lattice-minimize  \
	dirUpdateScheme      L-BFGS \
	linminMethod         DirUpdateRecommended \
	nIterations          0 \
	history              15 \
	knormThreshold       0 \
	energyDiffThreshold  1e-06 \
	nEnergyDiff          2 \
	alphaTstart          1 \
	alphaTmin            1e-10 \
	updateTestStepSize   yes \
	alphaTreduceFactor   0.1 \
	alphaTincreaseFactor 3 \
	nAlphaAdjustMax      3 \
	wolfeEnergy          0.0001 \
	wolfeGradient        0.9 \
	fdTest               no
lcao-params -1 1e-06 1e-05
pcm-variant GLSSA13
spintype z-spin
subspace-rotation-factor 1 yes
symmetries automatic
symmetry-threshold 0.0001
van-der-waals D3



---------- Setting up symmetries ----------

Found 24 point-group symmetries of the bravais lattice
Found 6 space-group symmetries with basis
Applied RMS atom displacement 1.31765e-10 bohrs to make symmetries exact.

---------- Initializing the Grid ----------
R = 
[     -11.8187      2.36374            0  ]
[      4.09412     -12.2824            0  ]
[            0            0           40  ]
unit cell volume = 5419.38
G =
[  -0.569604   -0.10962          0  ]
[  -0.189867    -0.5481          0  ]
[          0          0    0.15708  ]
Minimum fftbox size, Smin = [  52  52  164  ]
Chosen fftbox size, S = [  54  54  168  ]

---------- Exchange Correlation functional ----------
Initalized PBE GGA exchange.
Initalized PBE GGA correlation.

---------- Setting up pseudopotentials ----------
Width of ionic core gaussian charges (only for fluid interactions / plotting) set to 0

Reading pseudopotential file '/home/gridsan/aligho/DFT/build-Nov24/pseudopotentials/SG15/N_ONCV_PBE.upf':
  'N' pseudopotential, 'PBE' functional
  Generated using ONCVPSP code by D. R. Hamann
  Author: Martin Schlipf and Francois Gygi  Date: 150915.
  5 valence electrons, 2 orbitals, 4 projectors, 1058 radial grid points, with lMax = 1
  Transforming local potential to a uniform radial grid of dG=0.02 with 1514 points.
  Transforming nonlocal projectors to a uniform radial grid of dG=0.02 with 432 points.
    2S    l: 0   occupation:  2.0   eigenvalue: -0.682907
    2P    l: 1   occupation:  3.0   eigenvalue: -0.260548
  Transforming atomic orbitals to a uniform radial grid of dG=0.02 with 432 points.
  Core radius for overlap checks: 1.35 bohrs.
  Reading pulay file /home/gridsan/aligho/DFT/build-Nov24/pseudopotentials/SG15/N_ONCV_PBE.pulay ... using dE_dnG = -2.956256e-02 computed for Ecut = 20.

Reading pseudopotential file '/home/gridsan/aligho/DFT/build-Nov24/pseudopotentials/SG15/B_ONCV_PBE.upf':
  'B' pseudopotential, 'PBE' functional
  Generated using ONCVPSP code by D. R. Hamann
  Author: Martin Schlipf and Francois Gygi  Date: 150915.
  3 valence electrons, 2 orbitals, 4 projectors, 1534 radial grid points, with lMax = 1
  Transforming local potential to a uniform radial grid of dG=0.02 with 1514 points.
  Transforming nonlocal projectors to a uniform radial grid of dG=0.02 with 432 points.
    2S    l: 0   occupation:  2.0   eigenvalue: -0.347027
    2P    l: 1   occupation:  1.0   eigenvalue: -0.132548
  Transforming atomic orbitals to a uniform radial grid of dG=0.02 with 432 points.
  Core radius for overlap checks: 1.60 bohrs.
  Reading pulay file /home/gridsan/aligho/DFT/build-Nov24/pseudopotentials/SG15/B_ONCV_PBE.pulay ... using dE_dnG = -3.748568e-04 computed for Ecut = 20.

Reading pseudopotential file '/home/gridsan/aligho/DFT/build-Nov24/pseudopotentials/SG15/Na_ONCV_PBE.upf':
  'Na' pseudopotential, 'PBE' functional
  Generated using ONCVPSP code by D. R. Hamann
  Author: Martin Schlipf and Francois Gygi  Date: 150915.
  9 valence electrons, 3 orbitals, 4 projectors, 1992 radial grid points, with lMax = 1
  Transforming local potential to a uniform radial grid of dG=0.02 with 1514 points.
  Transforming nonlocal projectors to a uniform radial grid of dG=0.02 with 432 points.
    2S    l: 0   occupation:  2.0   eigenvalue: -2.085640
    2P    l: 1   occupation:  6.0   eigenvalue: -1.053708
    3S    l: 0   occupation:  1.0   eigenvalue: -0.100838
  Transforming atomic orbitals to a uniform radial grid of dG=0.02 with 432 points.
  Core radius for overlap checks: 2.01 bohrs.
  Reading pulay file /home/gridsan/aligho/DFT/build-Nov24/pseudopotentials/SG15/Na_ONCV_PBE.pulay ... using dE_dnG = -2.946487e-03 computed for Ecut = 20.

Initialized 3 species with 29 total atoms.

Folded 1 k-points by 12x12x1 to 144 k-points.

---------- Setting up k-points, bands, fillings ----------
Adding inversion symmetry to k-mesh for non-inversion-symmetric unit cell.
Reduced to 19 k-points under symmetry. 
Computing the number of bands and number of electrons
Calculating initial fillings.
nElectrons: 121.000000   nBands: 117   nStates: 38

----- Setting up reduced wavefunction bases (one per k-point) -----
average nbasis = 23151.771 , ideal nbasis = 23152.016

---------- Setting up coulomb interaction ----------
Initialized slab truncation along lattice direction 001

Initializing DFT-D3 calculator:
	Parameters set for gga-PBE functional
	s6:  1.000  s_r6:  1.217
	s8:  0.722  s_r8:  1.000
	Per-atom parameters loaded for:
	 N:  sqrtQ[a0]:  2.712  Rcov[a0]:  1.342  CN: [ 0.00 0.99 2.01 2.99 ]
	 B:  sqrtQ[a0]:  3.644  Rcov[a0]:  1.455  CN: [ 0.00 0.97 1.94 2.91 4.59 ]
	Na:  sqrtQ[a0]:  6.586  Rcov[a0]:  2.646  CN: [ 0.00 0.97 ]

---------- Setting up 2D ewald sum ----------
Optimum gaussian width for ewald sums = 6.943804 bohr.
Real space sums over 289 unit cells with max indices [  8  8  0  ]
Reciprocal space sums over 81 terms with max indices [  4  4  0  ]

Computing DFT-D3 correction:
# coordination-number N 3.141 3.141 3.171 3.141 3.171 3.139 3.139 3.171 3.141 3.171 3.171 3.141 3.141 3.171
# coordination-number B 3.389 3.346 3.346 3.346 3.346 3.389 3.389 3.389 3.346 3.346 3.389 3.389 3.343 3.343
# coordination-number Na 0.587
# diagonal-C6 N 15.61 15.61 15.60 15.61 15.60 15.61 15.61 15.60 15.61 15.60 15.60 15.61 15.61 15.60
# diagonal-C6 B 31.43 31.44 31.44 31.44 31.44 31.43 31.43 31.43 31.44 31.44 31.43 31.43 31.44 31.44
# diagonal-C6 Na 460.06
EvdW_6 =   -0.031306
EvdW_8 =   -0.029848

---------- Allocating electronic variables ----------
Initializing wave functions:  linear combination of atomic orbitals
N pseudo-atom occupations:   s ( 2 )  p ( 3 )
[d-4-7-2:69929] 18 more processes have sent help message help-mpi-common-cuda.txt / dlopen failed
[d-4-7-2:69929] Set MCA parameter "orte_base_help_aggregate" to 0 to see all help / error messages
[d-4-7-2:69929] 18 more processes have sent help message help-mpi-btl-openib-cpc-base.txt / no cpcs for port
B pseudo-atom occupations:   s ( 2 )  p ( 1 )
Na pseudo-atom occupations:   s ( 2 1 )  p ( 6 )
	FillingsUpdate:  mu: -0.132461253  nElectrons: 121.000000  magneticMoment: [ Abs: 0.10101  Tot: -0.04071 ]
LCAOMinimize: Iter:   0  F: -219.6036801541621060  |grad|_K:  3.594e-03  alpha:  1.000e+00
	FillingsUpdate:  mu: -0.144740982  nElectrons: 121.000000  magneticMoment: [ Abs: 0.19913  Tot: +0.15278 ]
LCAOMinimize: Iter:   1  F: -220.8385306727791999  |grad|_K:  4.490e-04  alpha:  4.414e-01  linmin:  2.948e-01  cgtest: -1.084e+00  t[s]:     49.03
LCAOMinimize: 	Bad step direction: g.d > 0.
LCAOMinimize: 	Undoing step.
LCAOMinimize: 	Step failed: resetting search direction.
	FillingsUpdate:  mu: -0.144740982  nElectrons: 121.000000  magneticMoment: [ Abs: 0.19913  Tot: +0.15278 ]
LCAOMinimize: Iter:   2  F: -220.8385306727791999  |grad|_K:  4.490e-04  alpha:  0.000e+00
	FillingsUpdate:  mu: -0.171750258  nElectrons: 121.000000  magneticMoment: [ Abs: 0.14034  Tot: +0.06944 ]
LCAOMinimize: Iter:   3  F: -220.8604950114454937  |grad|_K:  5.917e-05  alpha:  4.082e-01  linmin: -5.046e-02  cgtest:  8.444e-02  t[s]:     74.06
	FillingsUpdate:  mu: -0.159465504  nElectrons: 121.000000  magneticMoment: [ Abs: 0.09957  Tot: -0.01389 ]
LCAOMinimize: Iter:   4  F: -220.8616334497270373  |grad|_K:  5.692e-05  alpha:  1.744e-01  linmin: -1.002e-02  cgtest:  2.758e-01  t[s]:     88.76
LCAOMinimize: 	Step increased F by 1.262119e-04, reducing alpha to 6.302539e-03.
LCAOMinimize: 	Step increased F by 3.554437e-05, reducing alpha to 6.302539e-04.
	FillingsUpdate:  mu: -0.158747469  nElectrons: 121.000000  magneticMoment: [ Abs: 0.11078  Tot: -0.01389 ]
LCAOMinimize: Iter:   5  F: -220.8616410447780254  |grad|_K:  3.884e-05  alpha:  6.303e-04  linmin: -1.001e-02  cgtest:  9.321e-01  t[s]:    124.42
LCAOMinimize: Encountered beta<0, resetting CG.
LCAOMinimize: 	Predicted alpha/alphaT>3.000000, increasing alphaT to 1.890762e-03.
LCAOMinimize: 	Predicted alpha/alphaT>3.000000, increasing alphaT to 5.672285e-03.
	FillingsUpdate:  mu: -0.157835403  nElectrons: 121.000000  magneticMoment: [ Abs: 0.13327  Tot: -0.01389 ]
LCAOMinimize: Iter:   6  F: -220.8616466971302827  |grad|_K:  1.778e-05  alpha:  1.588e-02  linmin:  2.949e-03  cgtest: -3.107e-01  t[s]:    147.50
LCAOMinimize: 	Predicted alpha/alphaT>3.000000, increasing alphaT to 4.763829e-02.
LCAOMinimize: 	Predicted alpha/alphaT>3.000000, increasing alphaT to 1.429149e-01.
	FillingsUpdate:  mu: -0.156089931  nElectrons: 121.000000  magneticMoment: [ Abs: 0.13524  Tot: -0.01491 ]
LCAOMinimize: Iter:   7  F: -220.8616651427074657  |grad|_K:  5.271e-05  alpha:  2.926e-01  linmin: -4.214e-04  cgtest:  7.047e-01  t[s]:    170.44
	FillingsUpdate:  mu: -0.158032165  nElectrons: 121.000000  magneticMoment: [ Abs: 0.12367  Tot: -0.09722 ]
LCAOMinimize: Iter:   8  F: -220.8616768437563564  |grad|_K:  1.577e-05  alpha:  8.159e-02  linmin:  9.168e-02  cgtest: -6.535e+00  t[s]:    185.09
LCAOMinimize: 	Bad step direction: g.d > 0.
LCAOMinimize: 	Undoing step.
LCAOMinimize: 	Step failed: resetting search direction.
	FillingsUpdate:  mu: -0.158032165  nElectrons: 121.000000  magneticMoment: [ Abs: 0.12367  Tot: -0.09722 ]
LCAOMinimize: Iter:   9  F: -220.8616768437563564  |grad|_K:  1.577e-05  alpha:  0.000e+00
LCAOMinimize: 	Wrong curvature in test step, increasing alphaT to 2.447616e-01.
	FillingsUpdate:  mu: -0.156749751  nElectrons: 121.000000  magneticMoment: [ Abs: 0.16895  Tot: -0.09722 ]
LCAOMinimize: Iter:  10  F: -220.8617210210172459  |grad|_K:  1.357e-05  alpha: -1.309e-02  linmin: -1.226e-01  cgtest:  7.985e-01  t[s]:    209.71
	FillingsUpdate:  mu: -0.157279822  nElectrons: 121.000000  magneticMoment: [ Abs: 0.16599  Tot: -0.09722 ]
LCAOMinimize: Iter:  11  F: -220.8617413099582620  |grad|_K:  4.198e-06  alpha:  3.968e-01  linmin:  3.927e-04  cgtest:  2.451e-02  t[s]:    224.44
	FillingsUpdate:  mu: -0.157541640  nElectrons: 121.000000  magneticMoment: [ Abs: 0.16343  Tot: -0.09722 ]
LCAOMinimize: Iter:  12  F: -220.8617435354989027  |grad|_K:  6.681e-07  alpha:  4.775e-01  linmin: -8.162e-06  cgtest:  3.290e-02  t[s]:    239.10
	FillingsUpdate:  mu: -0.157543486  nElectrons: 121.000000  magneticMoment: [ Abs: 0.16030  Tot: -0.09722 ]
LCAOMinimize: Iter:  13  F: -220.8617436470919131  |grad|_K:  3.034e-07  alpha:  9.481e-01  linmin:  1.127e-03  cgtest: -5.922e-03  t[s]:    253.85
	FillingsUpdate:  mu: -0.157544023  nElectrons: 121.000000  magneticMoment: [ Abs: 0.15908  Tot: -0.09722 ]
LCAOMinimize: Iter:  14  F: -220.8617436614254359  |grad|_K:  1.293e-07  alpha:  5.884e-01  linmin: -1.134e-04  cgtest:  6.453e-03  t[s]:    268.57
LCAOMinimize: Converged (|Delta F|<1.000000e-06 for 2 iters).


---- Citations for features of the code used in this run ----

   Software package:
      R. Sundararaman, K. Letchworth-Weaver, K.A. Schwarz, D. Gunceler, Y. Ozhabes and T.A. Arias, 'JDFTx: software for joint density-functional theory', SoftwareX 6, 278 (2017)

   gga-PBE exchange-correlation functional:
      J.P. Perdew, K. Burke and M. Ernzerhof, Phys. Rev. Lett. 77, 3865 (1996)

   Pseudopotentials:
      M Schlipf and F Gygi, Comput. Phys. Commun. 196, 36 (2015)

   Truncated Coulomb potentials:
      R. Sundararaman and T.A. Arias, Phys. Rev. B 87, 165122 (2013)

   DFT-D3 dispersion correction:
      S. Grimme, J. Antony, S. Ehrlich and H. Krieg, J. Chem. Phys. 132, 154104 (2010)

This list may not be complete. Please suggest additional citations or
report any other bugs at https://github.com/shankar1729/jdftx/issues

Initialization completed successfully at t[s]:    270.78


Computing DFT-D3 correction:
# coordination-number N 3.141 3.141 3.171 3.141 3.171 3.139 3.139 3.171 3.141 3.171 3.171 3.141 3.141 3.171
# coordination-number B 3.389 3.346 3.346 3.346 3.346 3.389 3.389 3.389 3.346 3.346 3.389 3.389 3.343 3.343
# coordination-number Na 0.587
# diagonal-C6 N 15.61 15.61 15.60 15.61 15.60 15.61 15.61 15.60 15.61 15.60 15.60 15.61 15.61 15.60
# diagonal-C6 B 31.43 31.44 31.44 31.44 31.44 31.43 31.43 31.43 31.44 31.44 31.43 31.43 31.44 31.44
# diagonal-C6 Na 460.06
EvdW_6 =   -0.031306
EvdW_8 =   -0.029848

-------- Electronic minimization -----------
Will mix electronic density at each iteration.
	FillingsUpdate:  mu: -0.157544023  nElectrons: 121.000000  magneticMoment: [ Abs: 0.15908  Tot: -0.09722 ]
	FillingsUpdate:  mu: -0.164136454  nElectrons: 121.000000  magneticMoment: [ Abs: 0.15908  Tot: -0.09722 ]
SCF: Cycle:  0   F: -222.200110566856040   dF: -1.338e+00   |Residual|: 3.985e-01   |deigs|: 1.106e-01  t[s]:    320.24
	FillingsUpdate:  mu: -0.162714395  nElectrons: 121.000000  magneticMoment: [ Abs: 0.17798  Tot: -0.09104 ]
SCF: Cycle:  1   F: -222.277681465306671   dF: -7.757e-02   |Residual|: 2.190e-01   |deigs|: 1.945e-02  t[s]:    358.06
	FillingsUpdate:  mu: -0.164623064  nElectrons: 121.000000  magneticMoment: [ Abs: 0.21994  Tot: -0.09832 ]
SCF: Cycle:  2   F: -222.306134264142003   dF: -2.845e-02   |Residual|: 4.102e-02   |deigs|: 2.625e-02  t[s]:    395.98
	FillingsUpdate:  mu: -0.162472190  nElectrons: 121.000000  magneticMoment: [ Abs: 0.14413  Tot: -0.10160 ]
SCF: Cycle:  3   F: -222.307190238282772   dF: -1.056e-03   |Residual|: 2.764e-02   |deigs|: 4.589e-03  t[s]:    434.65
	FillingsUpdate:  mu: -0.155544640  nElectrons: 121.000000  magneticMoment: [ Abs: 0.18252  Tot: -0.11126 ]
SCF: Cycle:  4   F: -222.307548999635429   dF: -3.588e-04   |Residual|: 1.760e-02   |deigs|: 1.337e-02  t[s]:    472.81
	FillingsUpdate:  mu: -0.152658640  nElectrons: 121.000000  magneticMoment: [ Abs: 0.15547  Tot: -0.11478 ]
SCF: Cycle:  5   F: -222.308527717814741   dF: -9.787e-04   |Residual|: 1.455e-02   |deigs|: 4.488e-03  t[s]:    510.77
	FillingsUpdate:  mu: -0.143556738  nElectrons: 121.000000  magneticMoment: [ Abs: 0.15738  Tot: -0.12378 ]
SCF: Cycle:  6   F: -222.311109866170966   dF: -2.582e-03   |Residual|: 1.010e-02   |deigs|: 9.800e-03  t[s]:    548.78
	FillingsUpdate:  mu: -0.131304229  nElectrons: 121.000000  magneticMoment: [ Abs: 0.17978  Tot: -0.13444 ]
SCF: Cycle:  7   F: -222.314200738013596   dF: -3.091e-03   |Residual|: 1.271e-02   |deigs|: 1.056e-02  t[s]:    586.90
	FillingsUpdate:  mu: -0.120778219  nElectrons: 121.000000  magneticMoment: [ Abs: 0.17728  Tot: -0.14491 ]
SCF: Cycle:  8   F: -222.316907440433141   dF: -2.707e-03   |Residual|: 9.394e-03   |deigs|: 8.283e-03  t[s]:    625.20
	FillingsUpdate:  mu: -0.107938532  nElectrons: 121.000000  magneticMoment: [ Abs: 0.19026  Tot: -0.15909 ]
SCF: Cycle:  9   F: -222.320454235359222   dF: -3.547e-03   |Residual|: 7.305e-03   |deigs|: 8.646e-03  t[s]:    663.58
	FillingsUpdate:  mu: -0.101733536  nElectrons: 121.000000  magneticMoment: [ Abs: 0.20017  Tot: -0.16718 ]
SCF: Cycle: 10   F: -222.322046190179606   dF: -1.592e-03   |Residual|: 6.695e-03   |deigs|: 3.455e-03  t[s]:    702.00
	FillingsUpdate:  mu: -0.100589139  nElectrons: 121.000000  magneticMoment: [ Abs: 0.18600  Tot: -0.16975 ]
SCF: Cycle: 11   F: -222.322368595233343   dF: -3.224e-04   |Residual|: 4.990e-03   |deigs|: 1.749e-03  t[s]:    740.57
	FillingsUpdate:  mu: -0.095457645  nElectrons: 121.000000  magneticMoment: [ Abs: 0.18804  Tot: -0.17557 ]
SCF: Cycle: 12   F: -222.322814697850873   dF: -4.461e-04   |Residual|: 4.756e-03   |deigs|: 3.865e-03  t[s]:    778.97
	FillingsUpdate:  mu: -0.089829216  nElectrons: 121.000000  magneticMoment: [ Abs: 0.19659  Tot: -0.18143 ]
SCF: Cycle: 13   F: -222.323091593143744   dF: -2.769e-04   |Residual|: 3.738e-03   |deigs|: 3.912e-03  t[s]:    817.28
	FillingsUpdate:  mu: -0.087252669  nElectrons: 121.000000  magneticMoment: [ Abs: 0.19211  Tot: -0.18352 ]
SCF: Cycle: 14   F: -222.323188077245533   dF: -9.648e-05   |Residual|: 3.047e-03   |deigs|: 2.086e-03  t[s]:    855.65
	FillingsUpdate:  mu: -0.086193836  nElectrons: 121.000000  magneticMoment: [ Abs: 0.19159  Tot: -0.18362 ]
SCF: Cycle: 15   F: -222.323231712798702   dF: -4.364e-05   |Residual|: 1.901e-03   |deigs|: 2.203e-03  t[s]:    893.99
	FillingsUpdate:  mu: -0.085663992  nElectrons: 121.000000  magneticMoment: [ Abs: 0.18951  Tot: -0.18335 ]
SCF: Cycle: 16   F: -222.323240850818763   dF: -9.138e-06   |Residual|: 1.183e-03   |deigs|: 1.080e-03  t[s]:    932.22
	FillingsUpdate:  mu: -0.085700112  nElectrons: 121.000000  magneticMoment: [ Abs: 0.18584  Tot: -0.18277 ]
SCF: Cycle: 17   F: -222.323242696861087   dF: -1.846e-06   |Residual|: 5.976e-04   |deigs|: 5.647e-04  t[s]:    970.39
	FillingsUpdate:  mu: -0.085575835  nElectrons: 121.000000  magneticMoment: [ Abs: 0.18537  Tot: -0.18260 ]
SCF: Cycle: 18   F: -222.323243318028688   dF: -6.212e-07   |Residual|: 3.551e-04   |deigs|: 4.918e-04  t[s]:   1009.02
	FillingsUpdate:  mu: -0.085578971  nElectrons: 121.000000  magneticMoment: [ Abs: 0.18467  Tot: -0.18234 ]
SCF: Cycle: 19   F: -222.323243590824461   dF: -2.728e-07   |Residual|: 1.981e-04   |deigs|: 4.902e-04  t[s]:   1047.61
	FillingsUpdate:  mu: -0.085529273  nElectrons: 121.000000  magneticMoment: [ Abs: 0.18404  Tot: -0.18215 ]
SCF: Cycle: 20   F: -222.323243720280630   dF: -1.295e-07   |Residual|: 1.060e-04   |deigs|: 3.342e-04  t[s]:   1086.17
	FillingsUpdate:  mu: -0.085442568  nElectrons: 121.000000  magneticMoment: [ Abs: 0.18358  Tot: -0.18195 ]
SCF: Cycle: 21   F: -222.323243849410062   dF: -1.291e-07   |Residual|: 6.933e-05   |deigs|: 5.917e-04  t[s]:   1124.61
	FillingsUpdate:  mu: -0.085398263  nElectrons: 121.000000  magneticMoment: [ Abs: 0.18321  Tot: -0.18178 ]
SCF: Cycle: 22   F: -222.323243891628010   dF: -4.222e-08   |Residual|: 5.632e-05   |deigs|: 9.969e-04  t[s]:   1163.06
	FillingsUpdate:  mu: -0.085324317  nElectrons: 121.000000  magneticMoment: [ Abs: 0.18292  Tot: -0.18156 ]
SCF: Cycle: 23   F: -222.323243935541484   dF: -4.391e-08   |Residual|: 4.362e-05   |deigs|: 3.844e-04  t[s]:   1201.34
	FillingsUpdate:  mu: -0.085301829  nElectrons: 121.000000  magneticMoment: [ Abs: 0.18272  Tot: -0.18135 ]
SCF: Cycle: 24   F: -222.323243938351652   dF: -2.810e-09   |Residual|: 3.557e-05   |deigs|: 1.640e-04  t[s]:   1239.64
	FillingsUpdate:  mu: -0.085290336  nElectrons: 121.000000  magneticMoment: [ Abs: 0.18245  Tot: -0.18116 ]
SCF: Cycle: 25   F: -222.323243938483955   dF: -1.323e-10   |Residual|: 2.662e-05   |deigs|: 3.374e-04  t[s]:   1277.86
SCF: Converged (|Delta E|<1.000000e-08 for 2 iters).


Computing DFT-D3 correction:
# coordination-number N 3.141 3.141 3.171 3.141 3.171 3.139 3.139 3.171 3.141 3.171 3.171 3.141 3.141 3.171
# coordination-number B 3.389 3.346 3.346 3.346 3.346 3.389 3.389 3.389 3.346 3.346 3.389 3.389 3.343 3.343
# coordination-number Na 0.587
# diagonal-C6 N 15.61 15.61 15.60 15.61 15.60 15.61 15.61 15.60 15.61 15.60 15.60 15.61 15.61 15.60
# diagonal-C6 B 31.43 31.44 31.44 31.44 31.44 31.43 31.43 31.43 31.44 31.44 31.43 31.43 31.44 31.44
# diagonal-C6 Na 460.06
EvdW_6 =   -0.031306
EvdW_8 =   -0.029848

# Ionic positions in lattice coordinates:
ion N   0.952380952379803   0.761904761902463   0.000000000000000 0
ion N   1.428571428570279   1.285714285711987   0.307000000000000 0
ion N   0.380952380951232   0.904761904759606   0.000000000000000 0
ion N   0.714285714284565   1.142857142854844   0.307000000000000 0
ion N   0.523809523808374   0.619047619045320   0.000000000000000 0
ion N   0.999999999998850   0.999999999997701   0.307000000000000 0
ion N   0.666666666665517   0.333333333331034   0.000000000000000 0
ion N   1.285714285713136   0.857142857140558   0.307000000000000 0
ion N   0.809523809522660   0.047619047616749   0.000000000000000 0
ion N   1.571428571427422   0.714285714283415   0.307000000000000 0
ion N   0.095238095236946   0.476190476188177   0.000000000000000 0
ion N   0.238095238094089   0.190476190473892   0.000000000000000 0
ion N   0.857142857141708   0.571428571426273   0.307000000000000 0
ion N   1.142857142855993   0.428571428569130   0.307000000000000 0
ion B   0.571428571427422   0.857142857140558   0.000000000000000 0
ion B   0.952380952379803   1.190476190473892   0.307000000000000 0
ion B   0.714285714284565   0.571428571426273   0.000000000000000 0
ion B   1.238095238094089   1.047619047616749   0.307000000000000 0
ion B   0.857142857141708   0.285714285711987   0.000000000000000 0
ion B   1.523809523808374   0.904761904759606   0.307000000000000 0
ion B   0.142857142855993   0.714285714283415   0.000000000000000 0
ion B   0.285714285713136   0.428571428569130   0.000000000000000 0
ion B   0.809523809522660   0.761904761902463   0.307000000000000 0
ion B   0.428571428570279   0.142857142854844   0.000000000000000 0
ion B   1.095238095236946   0.619047619045320   0.307000000000000 0
ion B   1.380952380951231   0.476190476188177   0.307000000000000 0
ion B  -0.000000000001149  -0.000000000002299   0.000000000000000 0
ion B   0.666666666665517   0.333333333331034   0.307000000000000 0
ion Na   0.333333333332184   0.666666666664368   0.153500000000000 0

# Forces in Lattice coordinates:
force N   0.006366803484111  -0.005865999489520  -0.027457113767172 0
force N  -0.005865999489520   0.006366803484111   0.027457113767172 0
force N   0.001477429699281  -0.012695061811054   0.015463012467523 0
force N  -0.000500803994592  -0.005865999489520   0.027457113767172 0
force N  -0.012695061811054   0.011217632111773   0.015463012467523 0
force N   0.000000000000000   0.000000000000000   0.018531773461283 0
force N   0.000000000000000   0.000000000000000  -0.018531773461055 0
force N   0.011217632111773  -0.012695061811054  -0.015463012467637 0
force N  -0.005865999489520  -0.000500803994592  -0.027457113767172 0
force N  -0.012695061811054   0.001477429699281  -0.015463012467523 0
force N   0.011217632111773   0.001477429699281   0.015463012467523 0
force N  -0.000500803994592   0.006366803484111  -0.027457113767172 0
force N   0.006366803484111  -0.000500803994592   0.027457113767172 0
force N   0.001477429699281   0.011217632111773  -0.015463012467637 0
force B   0.020713912432795   0.011665798137144  -0.037801406839272 0
force B  -0.006207666243607  -0.018744095695511  -0.038693737612412 0
force B   0.024951761939118  -0.018744095695511   0.038693737612412 0
force B  -0.018744095695511   0.024951761939118  -0.038693737612469 0
force B  -0.018744095695511  -0.006207666243607   0.038693737612412 0
force B   0.011665798137144   0.020713912432795   0.037801406839158 0
force B  -0.032379710569938   0.020713912432795  -0.037801406839272 0
force B   0.011665798137144  -0.032379710569938  -0.037801406839272 0
force B   0.024951761939118  -0.006207666243607  -0.038693737612469 0
force B  -0.006207666243607   0.024951761939118   0.038693737612469 0
force B  -0.032379710569938   0.011665798137144   0.037801406839272 0
force B   0.020713912432795  -0.032379710569938   0.037801406839272 0
force B   0.000000000000000   0.000000000000000   0.053447682122786 0
force B   0.000000000000000   0.000000000000000  -0.053447682122615 0
force Na   0.000000000000000   0.000000000000000  -0.000000000000000 0

# Energy components:
   Eewald =    -2367.2319192982408822
       EH =    -2191.9684569035366621
     Eloc =     4267.0869144161679287
      Enl =      -21.3015862850776685
   Epulay =       -0.0000190610708103
     EvdW =       -0.0611544388052898
      Exc =      -57.7731974209284402
       KE =      148.9261753182221639
-------------------------------------
     Etot =     -222.3232436732697295
       TS =        0.0000002652142368
-------------------------------------
        F =     -222.3232439384839552

IonicMinimize: Iter:   0  F: -222.323243938483955  |grad|_K:  0.000e+00  t[s]:   1281.88
IonicMinimize: Converged (|grad|_K<1.000000e-04).

#--- Lowdin population analysis ---
# oxidation-state N -0.374 -0.374 -0.377 -0.374 -0.377 -0.374 -0.374 -0.377 -0.374 -0.377 -0.377 -0.374 -0.374 -0.377
# magnetic-moments N -0.000 -0.000 -0.001 -0.000 -0.001 -0.000 -0.000 -0.001 -0.000 -0.001 -0.001 -0.000 -0.000 -0.001
# oxidation-state B +0.428 +0.446 +0.446 +0.446 +0.446 +0.428 +0.428 +0.428 +0.446 +0.446 +0.428 +0.428 +0.447 +0.447
# magnetic-moments B -0.001 -0.000 -0.000 -0.000 -0.000 -0.001 -0.001 -0.001 -0.000 -0.000 -0.001 -0.001 -0.000 -0.000
# oxidation-state Na +0.100
# magnetic-moments Na -0.158


Dumping 'Na-0.307.fillings' ... done
Dumping 'Na-0.307.wfns' ... done
Dumping 'Na-0.307.n_up' ... done
Dumping 'Na-0.307.n_dn' ... done
Dumping 'Na-0.307.eigenvals' ... done
End date and time: Sun Jan 23 16:57:36 2022  (Duration: 0-0:21:33.79)
Done!
