Second Layer Distance is 0.283

--------------------------------------------------------------------------
The library attempted to open the following supporting CUDA libraries,
but each of them failed.  CUDA-aware support is disabled.
libcuda.so.1: cannot open shared object file: No such file or directory
libcuda.dylib: cannot open shared object file: No such file or directory
/usr/lib64/libcuda.so.1: cannot open shared object file: No such file or directory
/usr/lib64/libcuda.dylib: cannot open shared object file: No such file or directory
If you are not interested in CUDA-aware support, then run with
--mca opal_warn_on_missing_libcuda 0 to suppress this message.  If you are interested
in CUDA-aware support, then try setting LD_LIBRARY_PATH to the location
of libcuda.so.1 to get passed this issue.
--------------------------------------------------------------------------
--------------------------------------------------------------------------
No OpenFabrics connection schemes reported that they were able to be
used on a specific port.  As such, the openib BTL (OpenFabrics
support) will be disabled for this port.

  Local host:           d-17-1-2
  Local device:         mlx5_1
  Local port:           1
  CPCs attempted:       rdmacm, udcm
--------------------------------------------------------------------------

*************** JDFTx 1.6.0 (git hash 42ebbcc2) ***************

Start date and time: Sun Jan 23 16:36:02 2022
Executable jdftx with command-line: -i Moire.in
Running on hosts (process indices):  d-17-1-2 (0-18)
Divided in process groups (process indices):  0 (0)  1 (1)  2 (2)  3 (3)  4 (4)  5 (5)  6 (6)  7 (7)  8 (8)  9 (9)  10 (10)  11 (11)  12 (12)  13 (13)  14 (14)  15 (15)  16 (16)  17 (17)  18 (18)
Resource initialization completed at t[s]:      0.00
Run totals: 19 processes, 48 threads, 0 GPUs


Input parsed successfully to the following command list (including defaults):

basis kpoint-dependent
coords-type Lattice
core-overlap-check vector
coulomb-interaction Slab 001
davidson-band-ratio 1.1
dump End State ElecDensity BandEigs
dump-name Na-0.283.$VAR
elec-cutoff 20
elec-eigen-algo Davidson
elec-ex-corr gga-PBE
elec-initial-magnetization 0.100000 no
elec-smearing Fermi 1e-05
electronic-minimize  \
	dirUpdateScheme      FletcherReeves \
	linminMethod         DirUpdateRecommended \
	nIterations          100 \
	history              15 \
	knormThreshold       0 \
	energyDiffThreshold  1e-08 \
	nEnergyDiff          2 \
	alphaTstart          1 \
	alphaTmin            1e-10 \
	updateTestStepSize   yes \
	alphaTreduceFactor   0.1 \
	alphaTincreaseFactor 3 \
	nAlphaAdjustMax      3 \
	wolfeEnergy          0.0001 \
	wolfeGradient        0.9 \
	fdTest               no
electronic-scf  \
	nIterations	1000 \
	energyDiffThreshold	1e-08 \
	residualThreshold	1e-07 \
	mixFraction	0.5 \
	qMetric	0.8 \
	history	10 \
	nEigSteps	2 \
	eigDiffThreshold	1e-08 \
	mixedVariable	Density \
	qKerker	0.8 \
	qKappa	-1 \
	verbose	no \
	mixFractionMag	1.5
exchange-regularization WignerSeitzTruncated
fluid None
fluid-ex-corr (null) lda-PZ
fluid-gummel-loop 10 1.000000e-05
fluid-minimize  \
	dirUpdateScheme      PolakRibiere \
	linminMethod         DirUpdateRecommended \
	nIterations          100 \
	history              15 \
	knormThreshold       0 \
	energyDiffThreshold  0 \
	nEnergyDiff          2 \
	alphaTstart          1 \
	alphaTmin            1e-10 \
	updateTestStepSize   yes \
	alphaTreduceFactor   0.1 \
	alphaTincreaseFactor 3 \
	nAlphaAdjustMax      3 \
	wolfeEnergy          0.0001 \
	wolfeGradient        0.9 \
	fdTest               no
fluid-solvent H2O 55.338 ScalarEOS \
	epsBulk 78.4 \
	pMol 0.92466 \
	epsInf 1.77 \
	Pvap 1.06736e-10 \
	sigmaBulk 4.62e-05 \
	Rvdw 2.61727 \
	Res 1.42 \
	tauNuc 343133 \
	poleEl 15 7 1
forces-output-coords Positions
ion N   0.952380952380952   0.761904761904762   0.000000000000000 0
ion N   1.428571428571428   1.285714285714286   0.283000000000000 0
ion N   0.380952380952381   0.904761904761905   0.000000000000000 0
ion N   0.714285714285714   1.142857142857143   0.283000000000000 0
ion N   0.523809523809524   0.619047619047619   0.000000000000000 0
ion N   1.000000000000000   1.000000000000000   0.283000000000000 0
ion N   0.666666666666667   0.333333333333333   0.000000000000000 0
ion N   1.285714285714286   0.857142857142857   0.283000000000000 0
ion N   0.809523809523810   0.047619047619048   0.000000000000000 0
ion N   1.571428571428571   0.714285714285714   0.283000000000000 0
ion N   0.095238095238095   0.476190476190476   0.000000000000000 0
ion N   0.238095238095238   0.190476190476190   0.000000000000000 0
ion N   0.857142857142857   0.571428571428571   0.283000000000000 0
ion N   1.142857142857143   0.428571428571429   0.283000000000000 0
ion B   0.571428571428572   0.857142857142857   0.000000000000000 0
ion B   0.952380952380952   1.190476190476190   0.283000000000000 0
ion B   0.714285714285714   0.571428571428571   0.000000000000000 0
ion B   1.238095238095238   1.047619047619047   0.283000000000000 0
ion B   0.857142857142857   0.285714285714286   0.000000000000000 0
ion B   1.523809523809524   0.904761904761905   0.283000000000000 0
ion B   0.142857142857143   0.714285714285714   0.000000000000000 0
ion B   0.285714285714286   0.428571428571429   0.000000000000000 0
ion B   0.809523809523810   0.761904761904762   0.283000000000000 0
ion B   0.428571428571429   0.142857142857143   0.000000000000000 0
ion B   1.095238095238095   0.619047619047619   0.283000000000000 0
ion B   1.380952380952381   0.476190476190476   0.283000000000000 0
ion B   0.000000000000000   0.000000000000000   0.000000000000000 0
ion B   0.666666666666667   0.333333333333333   0.283000000000000 0
ion Na   0.333333333300000   0.666666666600000   0.141500000000000 0
ion-species SG15/$ID_ONCV_PBE.upf
ion-width 0
ionic-minimize  \
	dirUpdateScheme      L-BFGS \
	linminMethod         DirUpdateRecommended \
	nIterations          0 \
	history              15 \
	knormThreshold       0.0001 \
	energyDiffThreshold  1e-06 \
	nEnergyDiff          2 \
	alphaTstart          1 \
	alphaTmin            1e-10 \
	updateTestStepSize   yes \
	alphaTreduceFactor   0.1 \
	alphaTincreaseFactor 3 \
	nAlphaAdjustMax      3 \
	wolfeEnergy          0.0001 \
	wolfeGradient        0.9 \
	fdTest               no
kpoint   0.000000000000   0.000000000000   0.000000000000  1.00000000000000
kpoint-folding 12 12 1 
latt-move-scale 1 1 1
latt-scale 1 1 1 
lattice  \
	 -11.818700000000000    2.363740000000000    0.000000000000000  \
	   4.094120000000000  -12.282400000000001    0.000000000000000  \
	   0.000000000000000    0.000000000000000   40.000000000000000 
lattice-minimize  \
	dirUpdateScheme      L-BFGS \
	linminMethod         DirUpdateRecommended \
	nIterations          0 \
	history              15 \
	knormThreshold       0 \
	energyDiffThreshold  1e-06 \
	nEnergyDiff          2 \
	alphaTstart          1 \
	alphaTmin            1e-10 \
	updateTestStepSize   yes \
	alphaTreduceFactor   0.1 \
	alphaTincreaseFactor 3 \
	nAlphaAdjustMax      3 \
	wolfeEnergy          0.0001 \
	wolfeGradient        0.9 \
	fdTest               no
lcao-params -1 1e-06 1e-05
pcm-variant GLSSA13
spintype z-spin
subspace-rotation-factor 1 yes
symmetries automatic
symmetry-threshold 0.0001
van-der-waals D3



---------- Setting up symmetries ----------

Found 24 point-group symmetries of the bravais lattice
Found 6 space-group symmetries with basis
Applied RMS atom displacement 1.31765e-10 bohrs to make symmetries exact.

---------- Initializing the Grid ----------
R = 
[     -11.8187      2.36374            0  ]
[      4.09412     -12.2824            0  ]
[            0            0           40  ]
unit cell volume = 5419.38
G =
[  -0.569604   -0.10962          0  ]
[  -0.189867    -0.5481          0  ]
[          0          0    0.15708  ]
Minimum fftbox size, Smin = [  52  52  164  ]
Chosen fftbox size, S = [  54  54  168  ]

---------- Exchange Correlation functional ----------
Initalized PBE GGA exchange.
Initalized PBE GGA correlation.

---------- Setting up pseudopotentials ----------
Width of ionic core gaussian charges (only for fluid interactions / plotting) set to 0

Reading pseudopotential file '/home/gridsan/aligho/DFT/build-Nov24/pseudopotentials/SG15/N_ONCV_PBE.upf':
  'N' pseudopotential, 'PBE' functional
  Generated using ONCVPSP code by D. R. Hamann
  Author: Martin Schlipf and Francois Gygi  Date: 150915.
  5 valence electrons, 2 orbitals, 4 projectors, 1058 radial grid points, with lMax = 1
  Transforming local potential to a uniform radial grid of dG=0.02 with 1514 points.
  Transforming nonlocal projectors to a uniform radial grid of dG=0.02 with 432 points.
    2S    l: 0   occupation:  2.0   eigenvalue: -0.682907
    2P    l: 1   occupation:  3.0   eigenvalue: -0.260548
  Transforming atomic orbitals to a uniform radial grid of dG=0.02 with 432 points.
  Core radius for overlap checks: 1.35 bohrs.
  Reading pulay file /home/gridsan/aligho/DFT/build-Nov24/pseudopotentials/SG15/N_ONCV_PBE.pulay ... using dE_dnG = -2.956256e-02 computed for Ecut = 20.

Reading pseudopotential file '/home/gridsan/aligho/DFT/build-Nov24/pseudopotentials/SG15/B_ONCV_PBE.upf':
  'B' pseudopotential, 'PBE' functional
  Generated using ONCVPSP code by D. R. Hamann
  Author: Martin Schlipf and Francois Gygi  Date: 150915.
  3 valence electrons, 2 orbitals, 4 projectors, 1534 radial grid points, with lMax = 1
  Transforming local potential to a uniform radial grid of dG=0.02 with 1514 points.
  Transforming nonlocal projectors to a uniform radial grid of dG=0.02 with 432 points.
    2S    l: 0   occupation:  2.0   eigenvalue: -0.347027
    2P    l: 1   occupation:  1.0   eigenvalue: -0.132548
  Transforming atomic orbitals to a uniform radial grid of dG=0.02 with 432 points.
  Core radius for overlap checks: 1.60 bohrs.
  Reading pulay file /home/gridsan/aligho/DFT/build-Nov24/pseudopotentials/SG15/B_ONCV_PBE.pulay ... using dE_dnG = -3.748568e-04 computed for Ecut = 20.

Reading pseudopotential file '/home/gridsan/aligho/DFT/build-Nov24/pseudopotentials/SG15/Na_ONCV_PBE.upf':
  'Na' pseudopotential, 'PBE' functional
  Generated using ONCVPSP code by D. R. Hamann
  Author: Martin Schlipf and Francois Gygi  Date: 150915.
  9 valence electrons, 3 orbitals, 4 projectors, 1992 radial grid points, with lMax = 1
  Transforming local potential to a uniform radial grid of dG=0.02 with 1514 points.
  Transforming nonlocal projectors to a uniform radial grid of dG=0.02 with 432 points.
    2S    l: 0   occupation:  2.0   eigenvalue: -2.085640
    2P    l: 1   occupation:  6.0   eigenvalue: -1.053708
    3S    l: 0   occupation:  1.0   eigenvalue: -0.100838
  Transforming atomic orbitals to a uniform radial grid of dG=0.02 with 432 points.
  Core radius for overlap checks: 2.01 bohrs.
  Reading pulay file /home/gridsan/aligho/DFT/build-Nov24/pseudopotentials/SG15/Na_ONCV_PBE.pulay ... using dE_dnG = -2.946487e-03 computed for Ecut = 20.

Initialized 3 species with 29 total atoms.

Folded 1 k-points by 12x12x1 to 144 k-points.

---------- Setting up k-points, bands, fillings ----------
Adding inversion symmetry to k-mesh for non-inversion-symmetric unit cell.
Reduced to 19 k-points under symmetry. 
Computing the number of bands and number of electrons
Calculating initial fillings.
nElectrons: 121.000000   nBands: 117   nStates: 38

----- Setting up reduced wavefunction bases (one per k-point) -----
average nbasis = 23151.771 , ideal nbasis = 23152.016

---------- Setting up coulomb interaction ----------
Initialized slab truncation along lattice direction 001

Initializing DFT-D3 calculator:
	Parameters set for gga-PBE functional
	s6:  1.000  s_r6:  1.217
	s8:  0.722  s_r8:  1.000
	Per-atom parameters loaded for:
	 N:  sqrtQ[a0]:  2.712  Rcov[a0]:  1.342  CN: [ 0.00 0.99 2.01 2.99 ]
	 B:  sqrtQ[a0]:  3.644  Rcov[a0]:  1.455  CN: [ 0.00 0.97 1.94 2.91 4.59 ]
	Na:  sqrtQ[a0]:  6.586  Rcov[a0]:  2.646  CN: [ 0.00 0.97 ]

---------- Setting up 2D ewald sum ----------
Optimum gaussian width for ewald sums = 6.943804 bohr.
Real space sums over 289 unit cells with max indices [  8  8  0  ]
Reciprocal space sums over 81 terms with max indices [  4  4  0  ]

Computing DFT-D3 correction:
# coordination-number N 3.143 3.143 3.215 3.143 3.215 3.140 3.140 3.215 3.143 3.215 3.215 3.143 3.143 3.215
# coordination-number B 3.452 3.350 3.350 3.350 3.350 3.452 3.452 3.452 3.350 3.350 3.452 3.452 3.345 3.345
# coordination-number Na 1.270
# diagonal-C6 N 15.61 15.61 15.60 15.61 15.60 15.61 15.61 15.60 15.61 15.60 15.60 15.61 15.61 15.60
# diagonal-C6 B 31.39 31.44 31.44 31.44 31.44 31.39 31.39 31.39 31.44 31.44 31.39 31.39 31.44 31.44
# diagonal-C6 Na 187.56
EvdW_6 =   -0.032047
EvdW_8 =   -0.030600

---------- Allocating electronic variables ----------
Initializing wave functions:  linear combination of atomic orbitals
N pseudo-atom occupations:   s ( 2 )  p ( 3 )
[d-17-1-2:96307] 18 more processes have sent help message help-mpi-common-cuda.txt / dlopen failed
[d-17-1-2:96307] Set MCA parameter "orte_base_help_aggregate" to 0 to see all help / error messages
[d-17-1-2:96307] 18 more processes have sent help message help-mpi-btl-openib-cpc-base.txt / no cpcs for port
B pseudo-atom occupations:   s ( 2 )  p ( 1 )
Na pseudo-atom occupations:   s ( 2 1 )  p ( 6 )
	FillingsUpdate:  mu: -0.138366945  nElectrons: 121.000000  magneticMoment: [ Abs: 0.07632  Tot: -0.01374 ]
LCAOMinimize: Iter:   0  F: -219.6698307929492842  |grad|_K:  3.523e-03  alpha:  1.000e+00
	FillingsUpdate:  mu: -0.163188288  nElectrons: 121.000000  magneticMoment: [ Abs: 0.12175  Tot: +0.09722 ]
LCAOMinimize: Iter:   1  F: -220.8551895567912311  |grad|_K:  4.338e-04  alpha:  4.413e-01  linmin:  3.198e-01  cgtest: -1.094e+00  t[s]:     48.33
LCAOMinimize: 	Bad step direction: g.d > 0.
LCAOMinimize: 	Undoing step.
LCAOMinimize: 	Step failed: resetting search direction.
	FillingsUpdate:  mu: -0.163188288  nElectrons: 121.000000  magneticMoment: [ Abs: 0.12175  Tot: +0.09722 ]
LCAOMinimize: Iter:   2  F: -220.8551895567912311  |grad|_K:  4.338e-04  alpha:  0.000e+00
	FillingsUpdate:  mu: -0.156238283  nElectrons: 121.000000  magneticMoment: [ Abs: 0.05500  Tot: -0.01388 ]
LCAOMinimize: Iter:   3  F: -220.8756881156460281  |grad|_K:  2.660e-05  alpha:  4.109e-01  linmin:  7.182e-02  cgtest: -2.126e-01  t[s]:     73.15
	FillingsUpdate:  mu: -0.164365804  nElectrons: 121.000000  magneticMoment: [ Abs: 0.08857  Tot: +0.06944 ]
LCAOMinimize: Iter:   4  F: -220.8756941867266619  |grad|_K:  3.687e-05  alpha:  6.885e-01  linmin:  8.102e-02  cgtest: -8.749e-01  t[s]:     87.53
LCAOMinimize: 	Bad step direction: g.d > 0.
LCAOMinimize: 	Undoing step.
LCAOMinimize: 	Step failed: resetting search direction.
	FillingsUpdate:  mu: -0.164365804  nElectrons: 121.000000  magneticMoment: [ Abs: 0.08857  Tot: +0.06944 ]
LCAOMinimize: Iter:   5  F: -220.8756941867266619  |grad|_K:  3.687e-05  alpha:  0.000e+00
	FillingsUpdate:  mu: -0.163256581  nElectrons: 121.000000  magneticMoment: [ Abs: 0.09181  Tot: +0.06944 ]
LCAOMinimize: Iter:   6  F: -220.8758253545698835  |grad|_K:  1.463e-05  alpha:  2.693e-01  linmin: -1.976e-01  cgtest:  8.930e-01  t[s]:    112.26
LCAOMinimize: Encountered beta<0, resetting CG.
LCAOMinimize: 	Wrong curvature in test step, increasing alphaT to 8.079009e-01.
	FillingsUpdate:  mu: -0.157447988  nElectrons: 121.000000  magneticMoment: [ Abs: 0.07161  Tot: +0.01389 ]
LCAOMinimize: Iter:   7  F: -220.8758602225015295  |grad|_K:  8.279e-05  alpha: -9.406e-01  linmin:  2.191e-02  cgtest: -1.026e-01  t[s]:    126.37
LCAOMinimize: 	Bad step direction: g.d > 0.
LCAOMinimize: 	Undoing step.
LCAOMinimize: 	Step failed: resetting search direction.
	FillingsUpdate:  mu: -0.157447988  nElectrons: 121.000000  magneticMoment: [ Abs: 0.07161  Tot: +0.01389 ]
LCAOMinimize: Iter:   8  F: -220.8758602225015295  |grad|_K:  8.279e-05  alpha:  0.000e+00
LCAOMinimize: 	Step increased F by 3.923699e-05, reducing alpha to 4.879143e-02.
	FillingsUpdate:  mu: -0.158909138  nElectrons: 121.000000  magneticMoment: [ Abs: 0.11094  Tot: +0.01416 ]
LCAOMinimize: Iter:   9  F: -220.8759108049197835  |grad|_K:  4.746e-06  alpha:  4.879e-02  linmin: -2.383e-02  cgtest:  6.887e+00  t[s]:    161.26
LCAOMinimize: Encountered beta<0, resetting CG.
	FillingsUpdate:  mu: -0.158974140  nElectrons: 121.000000  magneticMoment: [ Abs: 0.11123  Tot: +0.01467 ]
LCAOMinimize: Iter:  10  F: -220.8759111397018273  |grad|_K:  2.935e-06  alpha:  5.286e-02  linmin: -2.846e-02  cgtest:  1.441e+00  t[s]:    175.72
LCAOMinimize: Encountered beta<0, resetting CG.
LCAOMinimize: 	Predicted alpha/alphaT>3.000000, increasing alphaT to 1.585916e-01.
LCAOMinimize: 	Step increased F by 1.202416e-06, reducing alpha to 2.658316e-02.
	FillingsUpdate:  mu: -0.159008119  nElectrons: 121.000000  magneticMoment: [ Abs: 0.11133  Tot: +0.01506 ]
LCAOMinimize: Iter:  11  F: -220.8759112609684507  |grad|_K:  2.805e-06  alpha:  2.658e-02  linmin: -2.195e-02  cgtest:  9.604e-01  t[s]:    204.66
LCAOMinimize: Encountered beta<0, resetting CG.
LCAOMinimize: Converged (|Delta F|<1.000000e-06 for 2 iters).


---- Citations for features of the code used in this run ----

   Software package:
      R. Sundararaman, K. Letchworth-Weaver, K.A. Schwarz, D. Gunceler, Y. Ozhabes and T.A. Arias, 'JDFTx: software for joint density-functional theory', SoftwareX 6, 278 (2017)

   gga-PBE exchange-correlation functional:
      J.P. Perdew, K. Burke and M. Ernzerhof, Phys. Rev. Lett. 77, 3865 (1996)

   Pseudopotentials:
      M Schlipf and F Gygi, Comput. Phys. Commun. 196, 36 (2015)

   Truncated Coulomb potentials:
      R. Sundararaman and T.A. Arias, Phys. Rev. B 87, 165122 (2013)

   DFT-D3 dispersion correction:
      S. Grimme, J. Antony, S. Ehrlich and H. Krieg, J. Chem. Phys. 132, 154104 (2010)

This list may not be complete. Please suggest additional citations or
report any other bugs at https://github.com/shankar1729/jdftx/issues

Initialization completed successfully at t[s]:    206.76


Computing DFT-D3 correction:
# coordination-number N 3.143 3.143 3.215 3.143 3.215 3.140 3.140 3.215 3.143 3.215 3.215 3.143 3.143 3.215
# coordination-number B 3.452 3.350 3.350 3.350 3.350 3.452 3.452 3.452 3.350 3.350 3.452 3.452 3.345 3.345
# coordination-number Na 1.270
# diagonal-C6 N 15.61 15.61 15.60 15.61 15.60 15.61 15.61 15.60 15.61 15.60 15.60 15.61 15.61 15.60
# diagonal-C6 B 31.39 31.44 31.44 31.44 31.44 31.39 31.39 31.39 31.44 31.44 31.39 31.39 31.44 31.44
# diagonal-C6 Na 187.56
EvdW_6 =   -0.032047
EvdW_8 =   -0.030600

-------- Electronic minimization -----------
Will mix electronic density at each iteration.
	FillingsUpdate:  mu: -0.159008119  nElectrons: 121.000000  magneticMoment: [ Abs: 0.11133  Tot: +0.01506 ]
	FillingsUpdate:  mu: -0.168200930  nElectrons: 121.000000  magneticMoment: [ Abs: 0.11133  Tot: +0.01506 ]
SCF: Cycle:  0   F: -222.199294064974367   dF: -1.323e+00   |Residual|: 3.977e-01   |deigs|: 1.122e-01  t[s]:    255.36
	FillingsUpdate:  mu: -0.163909587  nElectrons: 121.000000  magneticMoment: [ Abs: 0.20712  Tot: +0.01963 ]
SCF: Cycle:  1   F: -222.277853002464269   dF: -7.856e-02   |Residual|: 2.164e-01   |deigs|: 1.909e-02  t[s]:    292.78
	FillingsUpdate:  mu: -0.164047740  nElectrons: 121.000000  magneticMoment: [ Abs: 0.21520  Tot: +0.01576 ]
SCF: Cycle:  2   F: -222.307204916597868   dF: -2.935e-02   |Residual|: 3.938e-02   |deigs|: 2.392e-02  t[s]:    330.34
	FillingsUpdate:  mu: -0.161664576  nElectrons: 121.000000  magneticMoment: [ Abs: 0.07772  Tot: +0.01386 ]
SCF: Cycle:  3   F: -222.308556022074697   dF: -1.351e-03   |Residual|: 2.643e-02   |deigs|: 4.479e-03  t[s]:    367.79
	FillingsUpdate:  mu: -0.154787777  nElectrons: 121.000000  magneticMoment: [ Abs: 0.10493  Tot: +0.00918 ]
SCF: Cycle:  4   F: -222.309472688258467   dF: -9.167e-04   |Residual|: 1.594e-02   |deigs|: 1.043e-02  t[s]:    405.17
	FillingsUpdate:  mu: -0.150859042  nElectrons: 121.000000  magneticMoment: [ Abs: 0.05947  Tot: +0.00686 ]
SCF: Cycle:  5   F: -222.310370937374159   dF: -8.982e-04   |Residual|: 1.435e-02   |deigs|: 4.931e-03  t[s]:    442.85
	FillingsUpdate:  mu: -0.140983205  nElectrons: 121.000000  magneticMoment: [ Abs: 0.06484  Tot: +0.00171 ]
SCF: Cycle:  6   F: -222.312351318441500   dF: -1.980e-03   |Residual|: 1.038e-02   |deigs|: 9.902e-03  t[s]:    480.46
	FillingsUpdate:  mu: -0.128371502  nElectrons: 121.000000  magneticMoment: [ Abs: 0.06269  Tot: -0.00433 ]
SCF: Cycle:  7   F: -222.314314351942471   dF: -1.963e-03   |Residual|: 1.032e-02   |deigs|: 1.145e-02  t[s]:    517.96
	FillingsUpdate:  mu: -0.117338272  nElectrons: 121.000000  magneticMoment: [ Abs: 0.04981  Tot: -0.00907 ]
SCF: Cycle:  8   F: -222.316409274622885   dF: -2.095e-03   |Residual|: 8.579e-03   |deigs|: 9.536e-03  t[s]:    555.90
	FillingsUpdate:  mu: -0.105157554  nElectrons: 121.000000  magneticMoment: [ Abs: 0.04185  Tot: -0.01371 ]
SCF: Cycle:  9   F: -222.319559971707662   dF: -3.151e-03   |Residual|: 7.170e-03   |deigs|: 9.515e-03  t[s]:    594.09
	FillingsUpdate:  mu: -0.100755442  nElectrons: 121.000000  magneticMoment: [ Abs: 0.03889  Tot: -0.01457 ]
SCF: Cycle: 10   F: -222.320945003244844   dF: -1.385e-03   |Residual|: 6.368e-03   |deigs|: 3.287e-03  t[s]:    632.07
	FillingsUpdate:  mu: -0.098974604  nElectrons: 121.000000  magneticMoment: [ Abs: 0.03710  Tot: -0.01350 ]
SCF: Cycle: 11   F: -222.321713729298864   dF: -7.687e-04   |Residual|: 5.291e-03   |deigs|: 2.405e-03  t[s]:    669.73
	FillingsUpdate:  mu: -0.093067557  nElectrons: 121.000000  magneticMoment: [ Abs: 0.04289  Tot: -0.01455 ]
SCF: Cycle: 12   F: -222.322276270663451   dF: -5.625e-04   |Residual|: 5.003e-03   |deigs|: 4.740e-03  t[s]:    707.62
	FillingsUpdate:  mu: -0.085850529  nElectrons: 121.000000  magneticMoment: [ Abs: 0.03764  Tot: -0.01498 ]
SCF: Cycle: 13   F: -222.322624299734116   dF: -3.480e-04   |Residual|: 3.933e-03   |deigs|: 5.476e-03  t[s]:    745.35
	FillingsUpdate:  mu: -0.082746057  nElectrons: 121.000000  magneticMoment: [ Abs: 0.02839  Tot: -0.01451 ]
SCF: Cycle: 14   F: -222.322720130435414   dF: -9.583e-05   |Residual|: 2.851e-03   |deigs|: 2.539e-03  t[s]:    783.05
	FillingsUpdate:  mu: -0.080685425  nElectrons: 121.000000  magneticMoment: [ Abs: 0.03036  Tot: -0.01420 ]
SCF: Cycle: 15   F: -222.322757234016706   dF: -3.710e-05   |Residual|: 1.669e-03   |deigs|: 2.771e-03  t[s]:    820.87
	FillingsUpdate:  mu: -0.080161822  nElectrons: 121.000000  magneticMoment: [ Abs: 0.01973  Tot: -0.01403 ]
SCF: Cycle: 16   F: -222.322763732515170   dF: -6.498e-06   |Residual|: 9.778e-04   |deigs|: 9.378e-04  t[s]:    858.67
	FillingsUpdate:  mu: -0.080198134  nElectrons: 121.000000  magneticMoment: [ Abs: 0.01877  Tot: -0.01386 ]
SCF: Cycle: 17   F: -222.322765443955063   dF: -1.711e-06   |Residual|: 4.872e-04   |deigs|: 4.830e-04  t[s]:    896.60
	FillingsUpdate:  mu: -0.080136033  nElectrons: 121.000000  magneticMoment: [ Abs: 0.01496  Tot: -0.01385 ]
SCF: Cycle: 18   F: -222.322765759639083   dF: -3.157e-07   |Residual|: 2.391e-04   |deigs|: 4.944e-04  t[s]:    934.40
	FillingsUpdate:  mu: -0.080186529  nElectrons: 121.000000  magneticMoment: [ Abs: 0.01460  Tot: -0.01384 ]
SCF: Cycle: 19   F: -222.322765848874155   dF: -8.924e-08   |Residual|: 1.314e-04   |deigs|: 4.766e-04  t[s]:    972.05
	FillingsUpdate:  mu: -0.080205567  nElectrons: 121.000000  magneticMoment: [ Abs: 0.01405  Tot: -0.01385 ]
SCF: Cycle: 20   F: -222.322765875184700   dF: -2.631e-08   |Residual|: 6.294e-05   |deigs|: 3.489e-04  t[s]:   1009.69
	FillingsUpdate:  mu: -0.080209416  nElectrons: 121.000000  magneticMoment: [ Abs: 0.01412  Tot: -0.01385 ]
SCF: Cycle: 21   F: -222.322765880452124   dF: -5.267e-09   |Residual|: 3.533e-05   |deigs|: 2.111e-04  t[s]:   1047.33
	FillingsUpdate:  mu: -0.080197632  nElectrons: 121.000000  magneticMoment: [ Abs: 0.01407  Tot: -0.01386 ]
SCF: Cycle: 22   F: -222.322765885167371   dF: -4.715e-09   |Residual|: 1.938e-05   |deigs|: 3.528e-04  t[s]:   1085.23
SCF: Converged (|Delta E|<1.000000e-08 for 2 iters).


Computing DFT-D3 correction:
# coordination-number N 3.143 3.143 3.215 3.143 3.215 3.140 3.140 3.215 3.143 3.215 3.215 3.143 3.143 3.215
# coordination-number B 3.452 3.350 3.350 3.350 3.350 3.452 3.452 3.452 3.350 3.350 3.452 3.452 3.345 3.345
# coordination-number Na 1.270
# diagonal-C6 N 15.61 15.61 15.60 15.61 15.60 15.61 15.61 15.60 15.61 15.60 15.60 15.61 15.61 15.60
# diagonal-C6 B 31.39 31.44 31.44 31.44 31.44 31.39 31.39 31.39 31.44 31.44 31.39 31.39 31.44 31.44
# diagonal-C6 Na 187.56
EvdW_6 =   -0.032047
EvdW_8 =   -0.030600

# Ionic positions in lattice coordinates:
ion N   0.952380952379803   0.761904761902463   0.000000000000000 0
ion N   1.428571428570279   1.285714285711987   0.283000000000000 0
ion N   0.380952380951232   0.904761904759606   0.000000000000000 0
ion N   0.714285714284565   1.142857142854844   0.283000000000000 0
ion N   0.523809523808374   0.619047619045320   0.000000000000000 0
ion N   0.999999999998850   0.999999999997701   0.283000000000000 0
ion N   0.666666666665517   0.333333333331034   0.000000000000000 0
ion N   1.285714285713136   0.857142857140558   0.283000000000000 0
ion N   0.809523809522660   0.047619047616749   0.000000000000000 0
ion N   1.571428571427422   0.714285714283415   0.283000000000000 0
ion N   0.095238095236946   0.476190476188177   0.000000000000000 0
ion N   0.238095238094089   0.190476190473892   0.000000000000000 0
ion N   0.857142857141708   0.571428571426273   0.283000000000000 0
ion N   1.142857142855993   0.428571428569130   0.283000000000000 0
ion B   0.571428571427422   0.857142857140558   0.000000000000000 0
ion B   0.952380952379803   1.190476190473892   0.283000000000000 0
ion B   0.714285714284565   0.571428571426273   0.000000000000000 0
ion B   1.238095238094089   1.047619047616749   0.283000000000000 0
ion B   0.857142857141708   0.285714285711987   0.000000000000000 0
ion B   1.523809523808374   0.904761904759606   0.283000000000000 0
ion B   0.142857142855993   0.714285714283415   0.000000000000000 0
ion B   0.285714285713136   0.428571428569130   0.000000000000000 0
ion B   0.809523809522660   0.761904761902463   0.283000000000000 0
ion B   0.428571428570279   0.142857142854844   0.000000000000000 0
ion B   1.095238095236946   0.619047619045320   0.283000000000000 0
ion B   1.380952380951231   0.476190476188177   0.283000000000000 0
ion B  -0.000000000001149  -0.000000000002299   0.000000000000000 0
ion B   0.666666666665517   0.333333333331034   0.283000000000000 0
ion Na   0.333333333332184   0.666666666664368   0.141500000000000 0

# Forces in Lattice coordinates:
force N   0.007470877830765  -0.007821259477078  -0.031655760618970 0
force N  -0.007821259477078   0.007470877830765   0.031655760618970 0
force N   0.003397975399942  -0.018594952681669   0.024576370081314 0
force N   0.000350381646313  -0.007821259477078   0.031655760618970 0
force N  -0.018594952681669   0.015196977281726   0.024576370081314 0
force N   0.000000000000000   0.000000000000000   0.019017997025600 0
force N   0.000000000000000   0.000000000000000  -0.019017997025487 0
force N   0.015196977281726  -0.018594952681668  -0.024576370081427 0
force N  -0.007821259477078   0.000350381646313  -0.031655760618970 0
force N  -0.018594952681668   0.003397975399942  -0.024576370081427 0
force N   0.015196977281726   0.003397975399942   0.024576370081314 0
force N   0.000350381646313   0.007470877830765  -0.031655760618970 0
force N   0.007470877830765   0.000350381646313   0.031655760618970 0
force N   0.003397975399942   0.015196977281726  -0.024576370081427 0
force B   0.028668361128341   0.016046638970654  -0.056124372963835 0
force B  -0.008904339032348  -0.025979276844383  -0.039166452506180 0
force B   0.034883615876731  -0.025979276844383   0.039166452506237 0
force B  -0.025979276844383   0.034883615876730  -0.039166452506066 0
force B  -0.025979276844383  -0.008904339032348   0.039166452506180 0
force B   0.016046638970654   0.028668361128341   0.056124372963835 0
force B  -0.044715000098995   0.028668361128341  -0.056124372963835 0
force B   0.016046638970654  -0.044715000098995  -0.056124372963835 0
force B   0.034883615876730  -0.008904339032348  -0.039166452506123 0
force B  -0.008904339032348   0.034883615876730   0.039166452506180 0
force B  -0.044715000098995   0.016046638970654   0.056124372963835 0
force B   0.028668361128342  -0.044715000098995   0.056124372963835 0
force B   0.000000000000000   0.000000000000000   0.059240975217710 0
force B   0.000000000000000   0.000000000000000  -0.059240975217710 0
force Na  -0.000000000000000  -0.000000000000000   0.000000000000000 0

# Energy components:
   Eewald =    -2205.1848583352248170
       EH =    -2030.2377470322887802
     Eloc =     3943.3092449626647067
      Enl =      -21.2945870070388494
   Epulay =       -0.0000190610708103
     EvdW =       -0.0626462012824317
      Exc =      -57.7785823858042988
       KE =      148.9264295503458015
-------------------------------------
     Etot =     -222.3227655096997069
       TS =        0.0000003754676741
-------------------------------------
        F =     -222.3227658851673709

IonicMinimize: Iter:   0  F: -222.322765885167371  |grad|_K:  0.000e+00  t[s]:   1089.26
IonicMinimize: Converged (|grad|_K<1.000000e-04).

#--- Lowdin population analysis ---
# oxidation-state N -0.373 -0.373 -0.378 -0.373 -0.378 -0.372 -0.372 -0.378 -0.373 -0.378 -0.378 -0.373 -0.373 -0.378
# magnetic-moments N -0.000 -0.000 -0.000 -0.000 -0.000 -0.000 -0.000 -0.000 -0.000 -0.000 -0.000 -0.000 -0.000 -0.000
# oxidation-state B +0.422 +0.447 +0.447 +0.447 +0.447 +0.422 +0.422 +0.422 +0.447 +0.447 +0.422 +0.422 +0.447 +0.447
# magnetic-moments B -0.000 -0.000 -0.000 -0.000 -0.000 -0.000 -0.000 -0.000 -0.000 -0.000 -0.000 -0.000 -0.000 -0.000
# oxidation-state Na +0.126
# magnetic-moments Na -0.012


Dumping 'Na-0.283.fillings' ... done
Dumping 'Na-0.283.wfns' ... done
Dumping 'Na-0.283.n_up' ... done
Dumping 'Na-0.283.n_dn' ... done
Dumping 'Na-0.283.eigenvals' ... done
End date and time: Sun Jan 23 16:54:14 2022  (Duration: 0-0:18:12.49)
Done!
