Second Layer Distance is 0.16

--------------------------------------------------------------------------
The library attempted to open the following supporting CUDA libraries,
but each of them failed.  CUDA-aware support is disabled.
libcuda.so.1: cannot open shared object file: No such file or directory
libcuda.dylib: cannot open shared object file: No such file or directory
/usr/lib64/libcuda.so.1: cannot open shared object file: No such file or directory
/usr/lib64/libcuda.dylib: cannot open shared object file: No such file or directory
If you are not interested in CUDA-aware support, then run with
--mca opal_warn_on_missing_libcuda 0 to suppress this message.  If you are interested
in CUDA-aware support, then try setting LD_LIBRARY_PATH to the location
of libcuda.so.1 to get passed this issue.
--------------------------------------------------------------------------
--------------------------------------------------------------------------
No OpenFabrics connection schemes reported that they were able to be
used on a specific port.  As such, the openib BTL (OpenFabrics
support) will be disabled for this port.

  Local host:           d-16-15-4
  Local device:         mlx5_1
  Local port:           1
  CPCs attempted:       rdmacm, udcm
--------------------------------------------------------------------------

*************** JDFTx 1.6.0 (git hash 42ebbcc2) ***************

Start date and time: Wed Jan 19 19:47:16 2022
Executable jdftx with command-line: -i Moire.in
Running on hosts (process indices):  d-16-15-4 (0-18)
Divided in process groups (process indices):  0 (0)  1 (1)  2 (2)  3 (3)  4 (4)  5 (5)  6 (6)  7 (7)  8 (8)  9 (9)  10 (10)  11 (11)  12 (12)  13 (13)  14 (14)  15 (15)  16 (16)  17 (17)  18 (18)
Resource initialization completed at t[s]:      0.00
Run totals: 19 processes, 48 threads, 0 GPUs


Input parsed successfully to the following command list (including defaults):

basis kpoint-dependent
coords-type Lattice
core-overlap-check vector
coulomb-interaction Slab 001
davidson-band-ratio 1.1
dump End State ElecDensity BandEigs
dump-name Na-0.16.$VAR
elec-cutoff 20
elec-eigen-algo Davidson
elec-ex-corr gga-PBE
elec-initial-magnetization 0.100000 no
elec-smearing Fermi 1e-05
electronic-minimize  \
	dirUpdateScheme      FletcherReeves \
	linminMethod         DirUpdateRecommended \
	nIterations          100 \
	history              15 \
	knormThreshold       0 \
	energyDiffThreshold  1e-08 \
	nEnergyDiff          2 \
	alphaTstart          1 \
	alphaTmin            1e-10 \
	updateTestStepSize   yes \
	alphaTreduceFactor   0.1 \
	alphaTincreaseFactor 3 \
	nAlphaAdjustMax      3 \
	wolfeEnergy          0.0001 \
	wolfeGradient        0.9 \
	fdTest               no
electronic-scf  \
	nIterations	1000 \
	energyDiffThreshold	1e-08 \
	residualThreshold	1e-07 \
	mixFraction	0.5 \
	qMetric	0.8 \
	history	10 \
	nEigSteps	2 \
	eigDiffThreshold	1e-08 \
	mixedVariable	Density \
	qKerker	0.8 \
	qKappa	-1 \
	verbose	no \
	mixFractionMag	1.5
exchange-regularization WignerSeitzTruncated
fluid None
fluid-ex-corr (null) lda-PZ
fluid-gummel-loop 10 1.000000e-05
fluid-minimize  \
	dirUpdateScheme      PolakRibiere \
	linminMethod         DirUpdateRecommended \
	nIterations          100 \
	history              15 \
	knormThreshold       0 \
	energyDiffThreshold  0 \
	nEnergyDiff          2 \
	alphaTstart          1 \
	alphaTmin            1e-10 \
	updateTestStepSize   yes \
	alphaTreduceFactor   0.1 \
	alphaTincreaseFactor 3 \
	nAlphaAdjustMax      3 \
	wolfeEnergy          0.0001 \
	wolfeGradient        0.9 \
	fdTest               no
fluid-solvent H2O 55.338 ScalarEOS \
	epsBulk 78.4 \
	pMol 0.92466 \
	epsInf 1.77 \
	Pvap 1.06736e-10 \
	sigmaBulk 4.62e-05 \
	Rvdw 2.61727 \
	Res 1.42 \
	tauNuc 343133 \
	poleEl 15 7 1
forces-output-coords Positions
ion N   0.952380952380952   0.761904761904762   0.000000000000000 0
ion N   1.428571428571428   1.285714285714286   0.160000000000000 0
ion N   0.380952380952381   0.904761904761905   0.000000000000000 0
ion N   0.714285714285714   1.142857142857143   0.160000000000000 0
ion N   0.523809523809524   0.619047619047619   0.000000000000000 0
ion N   1.000000000000000   1.000000000000000   0.160000000000000 0
ion N   0.666666666666667   0.333333333333333   0.000000000000000 0
ion N   1.285714285714286   0.857142857142857   0.160000000000000 0
ion N   0.809523809523810   0.047619047619048   0.000000000000000 0
ion N   1.571428571428571   0.714285714285714   0.160000000000000 0
ion N   0.095238095238095   0.476190476190476   0.000000000000000 0
ion N   0.238095238095238   0.190476190476190   0.000000000000000 0
ion N   0.857142857142857   0.571428571428571   0.160000000000000 0
ion N   1.142857142857143   0.428571428571429   0.160000000000000 0
ion B   0.571428571428572   0.857142857142857   0.000000000000000 0
ion B   0.952380952380952   1.190476190476190   0.160000000000000 0
ion B   0.714285714285714   0.571428571428571   0.000000000000000 0
ion B   1.238095238095238   1.047619047619047   0.160000000000000 0
ion B   0.857142857142857   0.285714285714286   0.000000000000000 0
ion B   1.523809523809524   0.904761904761905   0.160000000000000 0
ion B   0.142857142857143   0.714285714285714   0.000000000000000 0
ion B   0.285714285714286   0.428571428571429   0.000000000000000 0
ion B   0.809523809523810   0.761904761904762   0.160000000000000 0
ion B   0.428571428571429   0.142857142857143   0.000000000000000 0
ion B   1.095238095238095   0.619047619047619   0.160000000000000 0
ion B   1.380952380952381   0.476190476190476   0.160000000000000 0
ion B   0.000000000000000   0.000000000000000   0.000000000000000 0
ion B   0.666666666666667   0.333333333333333   0.160000000000000 0
ion Na   0.333333333300000   0.666666666600000   0.080000000000000 0
ion-species SG15/$ID_ONCV_PBE.upf
ion-width 0
ionic-minimize  \
	dirUpdateScheme      L-BFGS \
	linminMethod         DirUpdateRecommended \
	nIterations          0 \
	history              15 \
	knormThreshold       0.0001 \
	energyDiffThreshold  1e-06 \
	nEnergyDiff          2 \
	alphaTstart          1 \
	alphaTmin            1e-10 \
	updateTestStepSize   yes \
	alphaTreduceFactor   0.1 \
	alphaTincreaseFactor 3 \
	nAlphaAdjustMax      3 \
	wolfeEnergy          0.0001 \
	wolfeGradient        0.9 \
	fdTest               no
kpoint   0.000000000000   0.000000000000   0.000000000000  1.00000000000000
kpoint-folding 12 12 1 
latt-move-scale 1 1 1
latt-scale 1 1 1 
lattice  \
	 -11.818700000000000    2.363740000000000    0.000000000000000  \
	   4.094120000000000  -12.282400000000001    0.000000000000000  \
	   0.000000000000000    0.000000000000000   40.000000000000000 
lattice-minimize  \
	dirUpdateScheme      L-BFGS \
	linminMethod         DirUpdateRecommended \
	nIterations          0 \
	history              15 \
	knormThreshold       0 \
	energyDiffThreshold  1e-06 \
	nEnergyDiff          2 \
	alphaTstart          1 \
	alphaTmin            1e-10 \
	updateTestStepSize   yes \
	alphaTreduceFactor   0.1 \
	alphaTincreaseFactor 3 \
	nAlphaAdjustMax      3 \
	wolfeEnergy          0.0001 \
	wolfeGradient        0.9 \
	fdTest               no
lcao-params -1 1e-06 1e-05
pcm-variant GLSSA13
spintype z-spin
subspace-rotation-factor 1 yes
symmetries automatic
symmetry-threshold 0.0001
van-der-waals D3



---------- Setting up symmetries ----------

Found 24 point-group symmetries of the bravais lattice
Found 6 space-group symmetries with basis
Applied RMS atom displacement 1.31765e-10 bohrs to make symmetries exact.

---------- Initializing the Grid ----------
R = 
[     -11.8187      2.36374            0  ]
[      4.09412     -12.2824            0  ]
[            0            0           40  ]
unit cell volume = 5419.38
G =
[  -0.569604   -0.10962          0  ]
[  -0.189867    -0.5481          0  ]
[          0          0    0.15708  ]
Minimum fftbox size, Smin = [  52  52  164  ]
Chosen fftbox size, S = [  54  54  168  ]

---------- Exchange Correlation functional ----------
Initalized PBE GGA exchange.
Initalized PBE GGA correlation.

---------- Setting up pseudopotentials ----------
Width of ionic core gaussian charges (only for fluid interactions / plotting) set to 0

Reading pseudopotential file '/home/gridsan/aligho/DFT/build-Nov24/pseudopotentials/SG15/N_ONCV_PBE.upf':
  'N' pseudopotential, 'PBE' functional
  Generated using ONCVPSP code by D. R. Hamann
  Author: Martin Schlipf and Francois Gygi  Date: 150915.
  5 valence electrons, 2 orbitals, 4 projectors, 1058 radial grid points, with lMax = 1
  Transforming local potential to a uniform radial grid of dG=0.02 with 1514 points.
  Transforming nonlocal projectors to a uniform radial grid of dG=0.02 with 432 points.
    2S    l: 0   occupation:  2.0   eigenvalue: -0.682907
    2P    l: 1   occupation:  3.0   eigenvalue: -0.260548
  Transforming atomic orbitals to a uniform radial grid of dG=0.02 with 432 points.
  Core radius for overlap checks: 1.35 bohrs.
  Reading pulay file /home/gridsan/aligho/DFT/build-Nov24/pseudopotentials/SG15/N_ONCV_PBE.pulay ... using dE_dnG = -2.956256e-02 computed for Ecut = 20.

Reading pseudopotential file '/home/gridsan/aligho/DFT/build-Nov24/pseudopotentials/SG15/B_ONCV_PBE.upf':
  'B' pseudopotential, 'PBE' functional
  Generated using ONCVPSP code by D. R. Hamann
  Author: Martin Schlipf and Francois Gygi  Date: 150915.
  3 valence electrons, 2 orbitals, 4 projectors, 1534 radial grid points, with lMax = 1
  Transforming local potential to a uniform radial grid of dG=0.02 with 1514 points.
  Transforming nonlocal projectors to a uniform radial grid of dG=0.02 with 432 points.
    2S    l: 0   occupation:  2.0   eigenvalue: -0.347027
    2P    l: 1   occupation:  1.0   eigenvalue: -0.132548
  Transforming atomic orbitals to a uniform radial grid of dG=0.02 with 432 points.
  Core radius for overlap checks: 1.60 bohrs.
  Reading pulay file /home/gridsan/aligho/DFT/build-Nov24/pseudopotentials/SG15/B_ONCV_PBE.pulay ... using dE_dnG = -3.748568e-04 computed for Ecut = 20.

Reading pseudopotential file '/home/gridsan/aligho/DFT/build-Nov24/pseudopotentials/SG15/Na_ONCV_PBE.upf':
  'Na' pseudopotential, 'PBE' functional
  Generated using ONCVPSP code by D. R. Hamann
  Author: Martin Schlipf and Francois Gygi  Date: 150915.
  9 valence electrons, 3 orbitals, 4 projectors, 1992 radial grid points, with lMax = 1
  Transforming local potential to a uniform radial grid of dG=0.02 with 1514 points.
  Transforming nonlocal projectors to a uniform radial grid of dG=0.02 with 432 points.
    2S    l: 0   occupation:  2.0   eigenvalue: -2.085640
    2P    l: 1   occupation:  6.0   eigenvalue: -1.053708
    3S    l: 0   occupation:  1.0   eigenvalue: -0.100838
  Transforming atomic orbitals to a uniform radial grid of dG=0.02 with 432 points.
  Core radius for overlap checks: 2.01 bohrs.
  Reading pulay file /home/gridsan/aligho/DFT/build-Nov24/pseudopotentials/SG15/Na_ONCV_PBE.pulay ... using dE_dnG = -2.946487e-03 computed for Ecut = 20.

Initialized 3 species with 29 total atoms.

Folded 1 k-points by 12x12x1 to 144 k-points.

---------- Setting up k-points, bands, fillings ----------
Adding inversion symmetry to k-mesh for non-inversion-symmetric unit cell.
Reduced to 19 k-points under symmetry. 
Computing the number of bands and number of electrons
Calculating initial fillings.
nElectrons: 121.000000   nBands: 117   nStates: 38

----- Setting up reduced wavefunction bases (one per k-point) -----
average nbasis = 23151.771 , ideal nbasis = 23152.016

---------- Setting up coulomb interaction ----------
Initialized slab truncation along lattice direction 001

Initializing DFT-D3 calculator:
	Parameters set for gga-PBE functional
	s6:  1.000  s_r6:  1.217
	s8:  0.722  s_r8:  1.000
	Per-atom parameters loaded for:
	 N:  sqrtQ[a0]:  2.712  Rcov[a0]:  1.342  CN: [ 0.00 0.99 2.01 2.99 ]
	 B:  sqrtQ[a0]:  3.644  Rcov[a0]:  1.455  CN: [ 0.00 0.97 1.94 2.91 4.59 ]
	Na:  sqrtQ[a0]:  6.586  Rcov[a0]:  2.646  CN: [ 0.00 0.97 ]

---------- Setting up 2D ewald sum ----------
Optimum gaussian width for ewald sums = 6.943804 bohr.
Real space sums over 289 unit cells with max indices [  8  8  0  ]
Reciprocal space sums over 81 terms with max indices [  4  4  0  ]

Computing DFT-D3 correction:
# coordination-number N 3.219 3.219 4.127 3.219 4.127 3.157 3.157 4.127 3.219 4.127 4.127 3.219 3.219 4.127
# coordination-number B 4.339 3.456 3.456 3.456 3.456 4.339 4.339 4.339 3.456 3.456 4.339 4.339 3.368 3.368
# coordination-number Na 13.088
# diagonal-C6 N 15.60 15.60 15.58 15.60 15.58 15.60 15.60 15.58 15.60 15.58 15.58 15.60 15.60 15.58
# diagonal-C6 B 28.03 31.38 31.38 31.38 31.38 28.03 28.03 28.03 31.38 31.38 28.03 28.03 31.43 31.43
# diagonal-C6 Na 186.11
EvdW_6 =   -0.044523
EvdW_8 =   -0.038718

---------- Allocating electronic variables ----------
Initializing wave functions:  linear combination of atomic orbitals
N pseudo-atom occupations:   s ( 2 )  p ( 3 )
[d-16-15-4:95048] 18 more processes have sent help message help-mpi-common-cuda.txt / dlopen failed
[d-16-15-4:95048] Set MCA parameter "orte_base_help_aggregate" to 0 to see all help / error messages
[d-16-15-4:95048] 18 more processes have sent help message help-mpi-btl-openib-cpc-base.txt / no cpcs for port
B pseudo-atom occupations:   s ( 2 )  p ( 1 )
Na pseudo-atom occupations:   s ( 2 1 )  p ( 6 )
	FillingsUpdate:  mu: -0.213664481  nElectrons: 121.000000  magneticMoment: [ Abs: 0.11874  Tot: +0.11111 ]
LCAOMinimize: Iter:   0  F: -219.8070727022345636  |grad|_K:  3.258e-03  alpha:  1.000e+00
	FillingsUpdate:  mu: -0.169085006  nElectrons: 121.000000  magneticMoment: [ Abs: 0.12426  Tot: +0.11111 ]
LCAOMinimize: Iter:   1  F: -220.8310739496304222  |grad|_K:  3.739e-04  alpha:  4.408e-01  linmin:  5.046e-01  cgtest: -1.076e+00  t[s]:     49.16
LCAOMinimize: 	Bad step direction: g.d > 0.
LCAOMinimize: 	Undoing step.
LCAOMinimize: 	Step failed: resetting search direction.
	FillingsUpdate:  mu: -0.169085006  nElectrons: 121.000000  magneticMoment: [ Abs: 0.12426  Tot: +0.11111 ]
LCAOMinimize: Iter:   2  F: -220.8310739496304222  |grad|_K:  3.739e-04  alpha:  0.000e+00
	FillingsUpdate:  mu: -0.178129683  nElectrons: 121.000000  magneticMoment: [ Abs: 0.10318  Tot: +0.08042 ]
LCAOMinimize: Iter:   3  F: -220.8464251396686961  |grad|_K:  2.286e-05  alpha:  4.144e-01  linmin:  4.659e-03  cgtest: -2.385e-01  t[s]:     74.38
	FillingsUpdate:  mu: -0.178638193  nElectrons: 121.000000  magneticMoment: [ Abs: 0.08277  Tot: +0.05556 ]
LCAOMinimize: Iter:   4  F: -220.8464708503781253  |grad|_K:  7.556e-06  alpha:  3.538e-01  linmin:  6.299e-04  cgtest:  8.208e-01  t[s]:     89.03
LCAOMinimize: Encountered beta<0, resetting CG.
	FillingsUpdate:  mu: -0.178692385  nElectrons: 121.000000  magneticMoment: [ Abs: 0.07890  Tot: +0.05556 ]
LCAOMinimize: Iter:   5  F: -220.8464780561380962  |grad|_K:  2.112e-06  alpha:  4.765e-01  linmin: -1.810e-03  cgtest:  1.419e-02  t[s]:    103.78
	FillingsUpdate:  mu: -0.178794696  nElectrons: 121.000000  magneticMoment: [ Abs: 0.07359  Tot: +0.05556 ]
LCAOMinimize: Iter:   6  F: -220.8464790504008874  |grad|_K:  6.586e-07  alpha:  8.406e-01  linmin:  5.033e-04  cgtest: -2.142e-02  t[s]:    118.49
	FillingsUpdate:  mu: -0.178764084  nElectrons: 121.000000  magneticMoment: [ Abs: 0.07152  Tot: +0.05553 ]
LCAOMinimize: Iter:   7  F: -220.8464791233549533  |grad|_K:  3.034e-07  alpha:  6.370e-01  linmin: -9.195e-04  cgtest: -1.039e-03  t[s]:    133.11
LCAOMinimize: Converged (|Delta F|<1.000000e-06 for 2 iters).


---- Citations for features of the code used in this run ----

   Software package:
      R. Sundararaman, K. Letchworth-Weaver, K.A. Schwarz, D. Gunceler, Y. Ozhabes and T.A. Arias, 'JDFTx: software for joint density-functional theory', SoftwareX 6, 278 (2017)

   gga-PBE exchange-correlation functional:
      J.P. Perdew, K. Burke and M. Ernzerhof, Phys. Rev. Lett. 77, 3865 (1996)

   Pseudopotentials:
      M Schlipf and F Gygi, Comput. Phys. Commun. 196, 36 (2015)

   Truncated Coulomb potentials:
      R. Sundararaman and T.A. Arias, Phys. Rev. B 87, 165122 (2013)

   DFT-D3 dispersion correction:
      S. Grimme, J. Antony, S. Ehrlich and H. Krieg, J. Chem. Phys. 132, 154104 (2010)

This list may not be complete. Please suggest additional citations or
report any other bugs at https://github.com/shankar1729/jdftx/issues

Initialization completed successfully at t[s]:    135.23


Computing DFT-D3 correction:
# coordination-number N 3.219 3.219 4.127 3.219 4.127 3.157 3.157 4.127 3.219 4.127 4.127 3.219 3.219 4.127
# coordination-number B 4.339 3.456 3.456 3.456 3.456 4.339 4.339 4.339 3.456 3.456 4.339 4.339 3.368 3.368
# coordination-number Na 13.088
# diagonal-C6 N 15.60 15.60 15.58 15.60 15.58 15.60 15.60 15.58 15.60 15.58 15.58 15.60 15.60 15.58
# diagonal-C6 B 28.03 31.38 31.38 31.38 31.38 28.03 28.03 28.03 31.38 31.38 28.03 28.03 31.43 31.43
# diagonal-C6 Na 186.11
EvdW_6 =   -0.044523
EvdW_8 =   -0.038718

-------- Electronic minimization -----------
Will mix electronic density at each iteration.
	FillingsUpdate:  mu: -0.178764084  nElectrons: 121.000000  magneticMoment: [ Abs: 0.07152  Tot: +0.05553 ]
	FillingsUpdate:  mu: -0.198726819  nElectrons: 121.000000  magneticMoment: [ Abs: 0.07152  Tot: +0.05553 ]
SCF: Cycle:  0   F: -222.116913853321108   dF: -1.270e+00   |Residual|: 3.823e-01   |deigs|: 1.015e-01  t[s]:    184.31
	FillingsUpdate:  mu: -0.183849783  nElectrons: 121.000000  magneticMoment: [ Abs: 0.06813  Tot: +0.05321 ]
SCF: Cycle:  1   F: -222.176426946593722   dF: -5.951e-02   |Residual|: 2.123e-01   |deigs|: 1.931e-02  t[s]:    221.81
	FillingsUpdate:  mu: -0.161720617  nElectrons: 121.000000  magneticMoment: [ Abs: 0.07985  Tot: +0.05180 ]
SCF: Cycle:  2   F: -222.215369840800236   dF: -3.894e-02   |Residual|: 4.343e-02   |deigs|: 2.291e-02  t[s]:    259.47
	FillingsUpdate:  mu: -0.157629250  nElectrons: 121.000000  magneticMoment: [ Abs: 0.14871  Tot: +0.05783 ]
SCF: Cycle:  3   F: -222.218460210553218   dF: -3.090e-03   |Residual|: 2.560e-02   |deigs|: 4.117e-03  t[s]:    297.27
	FillingsUpdate:  mu: -0.146712565  nElectrons: 121.000000  magneticMoment: [ Abs: 0.31071  Tot: +0.07576 ]
SCF: Cycle:  4   F: -222.223993593878276   dF: -5.533e-03   |Residual|: 1.625e-02   |deigs|: 9.575e-03  t[s]:    335.08
	FillingsUpdate:  mu: -0.138146963  nElectrons: 121.000000  magneticMoment: [ Abs: 0.38027  Tot: +0.11110 ]
SCF: Cycle:  5   F: -222.226269727502824   dF: -2.276e-03   |Residual|: 1.348e-02   |deigs|: 7.756e-03  t[s]:    372.95
	FillingsUpdate:  mu: -0.129818862  nElectrons: 121.000000  magneticMoment: [ Abs: 0.42303  Tot: +0.15453 ]
SCF: Cycle:  6   F: -222.227156498056786   dF: -8.868e-04   |Residual|: 1.336e-02   |deigs|: 8.908e-03  t[s]:    410.90
	FillingsUpdate:  mu: -0.131652964  nElectrons: 121.000000  magneticMoment: [ Abs: 0.35389  Tot: +0.13764 ]
SCF: Cycle:  7   F: -222.226969640785427   dF: +1.869e-04   |Residual|: 9.926e-03   |deigs|: 2.388e-03  t[s]:    448.74
	FillingsUpdate:  mu: -0.125741807  nElectrons: 121.000000  magneticMoment: [ Abs: 0.28439  Tot: +0.15505 ]
SCF: Cycle:  8   F: -222.227188234636259   dF: -2.186e-04   |Residual|: 8.111e-03   |deigs|: 6.824e-03  t[s]:    486.74
	FillingsUpdate:  mu: -0.118598141  nElectrons: 121.000000  magneticMoment: [ Abs: 0.26451  Tot: +0.17670 ]
SCF: Cycle:  9   F: -222.227419909450617   dF: -2.317e-04   |Residual|: 6.844e-03   |deigs|: 7.304e-03  t[s]:    524.60
	FillingsUpdate:  mu: -0.111192290  nElectrons: 121.000000  magneticMoment: [ Abs: 0.28092  Tot: +0.19274 ]
SCF: Cycle: 10   F: -222.227489835492833   dF: -6.993e-05   |Residual|: 5.228e-03   |deigs|: 7.249e-03  t[s]:    562.76
	FillingsUpdate:  mu: -0.103779331  nElectrons: 121.000000  magneticMoment: [ Abs: 0.28203  Tot: +0.20392 ]
SCF: Cycle: 11   F: -222.227610599504260   dF: -1.208e-04   |Residual|: 5.303e-03   |deigs|: 7.159e-03  t[s]:    600.93
	FillingsUpdate:  mu: -0.095501158  nElectrons: 121.000000  magneticMoment: [ Abs: 0.27861  Tot: +0.20722 ]
SCF: Cycle: 12   F: -222.227784781310561   dF: -1.742e-04   |Residual|: 4.343e-03   |deigs|: 7.661e-03  t[s]:    638.83
	FillingsUpdate:  mu: -0.089894505  nElectrons: 121.000000  magneticMoment: [ Abs: 0.28501  Tot: +0.20803 ]
SCF: Cycle: 13   F: -222.227930988872004   dF: -1.462e-04   |Residual|: 3.937e-03   |deigs|: 4.945e-03  t[s]:    676.91
	FillingsUpdate:  mu: -0.079545887  nElectrons: 121.000000  magneticMoment: [ Abs: 0.28665  Tot: +0.20784 ]
SCF: Cycle: 14   F: -222.228237914072167   dF: -3.069e-04   |Residual|: 4.530e-03   |deigs|: 8.758e-03  t[s]:    715.19
	FillingsUpdate:  mu: -0.074380781  nElectrons: 121.000000  magneticMoment: [ Abs: 0.25649  Tot: +0.19804 ]
SCF: Cycle: 15   F: -222.228390610097676   dF: -1.527e-04   |Residual|: 3.535e-03   |deigs|: 4.257e-03  t[s]:    753.28
	FillingsUpdate:  mu: -0.070397125  nElectrons: 121.000000  magneticMoment: [ Abs: 0.24717  Tot: +0.19143 ]
SCF: Cycle: 16   F: -222.228468446383943   dF: -7.784e-05   |Residual|: 2.834e-03   |deigs|: 3.304e-03  t[s]:    791.46
	FillingsUpdate:  mu: -0.067290753  nElectrons: 121.000000  magneticMoment: [ Abs: 0.24243  Tot: +0.18471 ]
SCF: Cycle: 17   F: -222.228493802595750   dF: -2.536e-05   |Residual|: 2.118e-03   |deigs|: 2.637e-03  t[s]:    829.39
	FillingsUpdate:  mu: -0.065637470  nElectrons: 121.000000  magneticMoment: [ Abs: 0.23414  Tot: +0.18090 ]
SCF: Cycle: 18   F: -222.228496429118280   dF: -2.627e-06   |Residual|: 1.550e-03   |deigs|: 1.553e-03  t[s]:    867.57
	FillingsUpdate:  mu: -0.064814009  nElectrons: 121.000000  magneticMoment: [ Abs: 0.22701  Tot: +0.17781 ]
SCF: Cycle: 19   F: -222.228494791832134   dF: +1.637e-06   |Residual|: 5.043e-04   |deigs|: 1.079e-03  t[s]:    905.84
	FillingsUpdate:  mu: -0.064683416  nElectrons: 121.000000  magneticMoment: [ Abs: 0.22676  Tot: +0.17726 ]
SCF: Cycle: 20   F: -222.228494860270843   dF: -6.844e-08   |Residual|: 2.740e-04   |deigs|: 4.386e-04  t[s]:    944.28
	FillingsUpdate:  mu: -0.064629978  nElectrons: 121.000000  magneticMoment: [ Abs: 0.22605  Tot: +0.17703 ]
SCF: Cycle: 21   F: -222.228494898505517   dF: -3.823e-08   |Residual|: 2.205e-04   |deigs|: 1.984e-04  t[s]:    982.53
	FillingsUpdate:  mu: -0.064659000  nElectrons: 121.000000  magneticMoment: [ Abs: 0.22528  Tot: +0.17665 ]
SCF: Cycle: 22   F: -222.228494951710360   dF: -5.320e-08   |Residual|: 2.107e-04   |deigs|: 2.596e-04  t[s]:   1020.59
	FillingsUpdate:  mu: -0.064686907  nElectrons: 121.000000  magneticMoment: [ Abs: 0.22499  Tot: +0.17651 ]
SCF: Cycle: 23   F: -222.228494951500636   dF: +2.097e-10   |Residual|: 2.140e-04   |deigs|: 1.158e-04  t[s]:   1058.78
	FillingsUpdate:  mu: -0.064544346  nElectrons: 121.000000  magneticMoment: [ Abs: 0.22517  Tot: +0.17657 ]
SCF: Cycle: 24   F: -222.228494957558752   dF: -6.058e-09   |Residual|: 2.133e-04   |deigs|: 2.465e-04  t[s]:   1096.87
	FillingsUpdate:  mu: -0.064654844  nElectrons: 121.000000  magneticMoment: [ Abs: 0.22563  Tot: +0.17673 ]
SCF: Cycle: 25   F: -222.228494942282822   dF: +1.528e-08   |Residual|: 2.102e-04   |deigs|: 2.012e-04  t[s]:   1135.13
	FillingsUpdate:  mu: -0.064648238  nElectrons: 121.000000  magneticMoment: [ Abs: 0.22538  Tot: +0.17652 ]
SCF: Cycle: 26   F: -222.228494933391431   dF: +8.891e-09   |Residual|: 2.203e-04   |deigs|: 6.242e-04  t[s]:   1173.15
	FillingsUpdate:  mu: -0.064565944  nElectrons: 121.000000  magneticMoment: [ Abs: 0.22553  Tot: +0.17672 ]
SCF: Cycle: 27   F: -222.228494935272693   dF: -1.881e-09   |Residual|: 2.149e-04   |deigs|: 2.581e-04  t[s]:   1211.39
	FillingsUpdate:  mu: -0.064543475  nElectrons: 121.000000  magneticMoment: [ Abs: 0.22546  Tot: +0.17658 ]
SCF: Cycle: 28   F: -222.228494919247225   dF: +1.603e-08   |Residual|: 2.204e-04   |deigs|: 9.708e-05  t[s]:   1249.58
	FillingsUpdate:  mu: -0.064536666  nElectrons: 121.000000  magneticMoment: [ Abs: 0.22670  Tot: +0.17743 ]
SCF: Cycle: 29   F: -222.228494927148148   dF: -7.901e-09   |Residual|: 1.956e-04   |deigs|: 1.561e-04  t[s]:   1287.53
	FillingsUpdate:  mu: -0.064522233  nElectrons: 121.000000  magneticMoment: [ Abs: 0.23010  Tot: +0.17999 ]
SCF: Cycle: 30   F: -222.228495612722867   dF: -6.856e-07   |Residual|: 6.360e-04   |deigs|: 2.885e-04  t[s]:   1325.59
	FillingsUpdate:  mu: -0.064648737  nElectrons: 121.000000  magneticMoment: [ Abs: 0.22406  Tot: +0.17593 ]
SCF: Cycle: 31   F: -222.228494974494566   dF: +6.382e-07   |Residual|: 2.380e-04   |deigs|: 8.886e-04  t[s]:   1363.81
	FillingsUpdate:  mu: -0.064652774  nElectrons: 121.000000  magneticMoment: [ Abs: 0.22223  Tot: +0.17454 ]
SCF: Cycle: 32   F: -222.228494973202402   dF: +1.292e-09   |Residual|: 2.824e-04   |deigs|: 1.225e-04  t[s]:   1401.79
	FillingsUpdate:  mu: -0.064668667  nElectrons: 121.000000  magneticMoment: [ Abs: 0.22102  Tot: +0.17370 ]
SCF: Cycle: 33   F: -222.228494961074176   dF: +1.213e-08   |Residual|: 3.195e-04   |deigs|: 1.080e-04  t[s]:   1439.82
	FillingsUpdate:  mu: -0.064682688  nElectrons: 121.000000  magneticMoment: [ Abs: 0.22210  Tot: +0.17457 ]
SCF: Cycle: 34   F: -222.228494970460076   dF: -9.386e-09   |Residual|: 2.811e-04   |deigs|: 1.261e-04  t[s]:   1477.84
	FillingsUpdate:  mu: -0.064704829  nElectrons: 121.000000  magneticMoment: [ Abs: 0.22276  Tot: +0.17525 ]
SCF: Cycle: 35   F: -222.228494977665690   dF: -7.206e-09   |Residual|: 2.541e-04   |deigs|: 5.582e-05  t[s]:   1516.06
SCF: Converged (|Delta E|<1.000000e-08 for 2 iters).


Computing DFT-D3 correction:
# coordination-number N 3.219 3.219 4.127 3.219 4.127 3.157 3.157 4.127 3.219 4.127 4.127 3.219 3.219 4.127
# coordination-number B 4.339 3.456 3.456 3.456 3.456 4.339 4.339 4.339 3.456 3.456 4.339 4.339 3.368 3.368
# coordination-number Na 13.088
# diagonal-C6 N 15.60 15.60 15.58 15.60 15.58 15.60 15.60 15.58 15.60 15.58 15.58 15.60 15.60 15.58
# diagonal-C6 B 28.03 31.38 31.38 31.38 31.38 28.03 28.03 28.03 31.38 31.38 28.03 28.03 31.43 31.43
# diagonal-C6 Na 186.11
EvdW_6 =   -0.044523
EvdW_8 =   -0.038718

# Ionic positions in lattice coordinates:
ion N   0.952380952379803   0.761904761902463   0.000000000000000 0
ion N   1.428571428570279   1.285714285711987   0.160000000000000 0
ion N   0.380952380951232   0.904761904759606   0.000000000000000 0
ion N   0.714285714284565   1.142857142854844   0.160000000000000 0
ion N   0.523809523808374   0.619047619045320   0.000000000000000 0
ion N   0.999999999998850   0.999999999997701   0.160000000000000 0
ion N   0.666666666665517   0.333333333331034   0.000000000000000 0
ion N   1.285714285713136   0.857142857140558   0.160000000000000 0
ion N   0.809523809522660   0.047619047616749   0.000000000000000 0
ion N   1.571428571427422   0.714285714283415   0.160000000000000 0
ion N   0.095238095236946   0.476190476188177   0.000000000000000 0
ion N   0.238095238094089   0.190476190473892   0.000000000000000 0
ion N   0.857142857141708   0.571428571426273   0.160000000000000 0
ion N   1.142857142855993   0.428571428569130   0.160000000000000 0
ion B   0.571428571427422   0.857142857140558   0.000000000000000 0
ion B   0.952380952379803   1.190476190473892   0.160000000000000 0
ion B   0.714285714284565   0.571428571426273   0.000000000000000 0
ion B   1.238095238094089   1.047619047616749   0.160000000000000 0
ion B   0.857142857141708   0.285714285711987   0.000000000000000 0
ion B   1.523809523808374   0.904761904759606   0.160000000000000 0
ion B   0.142857142855993   0.714285714283415   0.000000000000000 0
ion B   0.285714285713136   0.428571428569130   0.000000000000000 0
ion B   0.809523809522660   0.761904761902463   0.160000000000000 0
ion B   0.428571428570279   0.142857142854844   0.000000000000000 0
ion B   1.095238095236946   0.619047619045320   0.160000000000000 0
ion B   1.380952380951231   0.476190476188177   0.160000000000000 0
ion B  -0.000000000001149  -0.000000000002299   0.000000000000000 0
ion B   0.666666666665517   0.333333333331034   0.160000000000000 0
ion Na   0.333333333332184   0.666666666664368   0.080000000000000 0

# Forces in Lattice coordinates:
force N  -0.012695123115492  -0.006707016772722  -0.011036195901995 0
force N  -0.006707016772721  -0.012695123115492   0.011036195901995 0
force N  -0.051582601293123   0.039250537329871  -0.190162009121119 0
force N   0.019402139888215  -0.006707016772721   0.011036195901881 0
force N   0.039250537329868   0.012332063963251  -0.190162009121119 0
force N   0.000000000000000   0.000000000000000   0.015494757291968 0
force N   0.000000000000000   0.000000000000000  -0.015494757291855 0
force N   0.012332063963250   0.039250537329867   0.190162009121005 0
force N  -0.006707016772722   0.019402139888215  -0.011036195901995 0
force N   0.039250537329868  -0.051582601293122   0.190162009121119 0
force N   0.012332063963255  -0.051582601293122  -0.190162009121119 0
force N   0.019402139888215  -0.012695123115492  -0.011036195901881 0
force N  -0.012695123115492   0.019402139888215   0.011036195901881 0
force N  -0.051582601293122   0.012332063963251   0.190162009121005 0
force B   0.221044168919971   0.090409262169326  -0.905368101960272 0
force B  -0.033319903365047  -0.019595560991849  -0.040256887556661 0
force B   0.052915464356896  -0.019595560991849   0.040256887556605 0
force B  -0.019595560991849   0.052915464356897  -0.040256887556605 0
force B  -0.019595560991849  -0.033319903365047   0.040256887556605 0
force B   0.090409262169327   0.221044168919971   0.905368101960272 0
force B  -0.311453431089297   0.221044168919970  -0.905368101960272 0
force B   0.090409262169327  -0.311453431089297  -0.905368101960272 0
force B   0.052915464356896  -0.033319903365047  -0.040256887556548 0
force B  -0.033319903365047   0.052915464356897   0.040256887556605 0
force B  -0.311453431089296   0.090409262169327   0.905368101960272 0
force B   0.221044168919970  -0.311453431089296   0.905368101960272 0
force B   0.000000000000000   0.000000000000000  -0.001715653110198 0
force B   0.000000000000000   0.000000000000000   0.001715653110255 0
force Na   0.000000000000000   0.000000000000000  -0.000000000000000 0

# Energy components:
   Eewald =    -1375.2914558925322126
       EH =    -1200.7201226795025377
     Eloc =     2283.4718445172152315
      Enl =      -21.5749332423594353
   Epulay =       -0.0000190610708103
     EvdW =       -0.0832415199811617
      Exc =      -58.1015629051056450
       KE =      150.0709961815127258
-------------------------------------
     Etot =     -222.2284946018236269
       TS =        0.0000003758420766
-------------------------------------
        F =     -222.2284949776656902

IonicMinimize: Iter:   0  F: -222.228494977665690  |grad|_K:  0.000e+00  t[s]:   1520.00
IonicMinimize: Converged (|grad|_K<1.000000e-04).

#--- Lowdin population analysis ---
# oxidation-state N -0.356 -0.356 -0.384 -0.356 -0.384 -0.370 -0.370 -0.384 -0.356 -0.384 -0.384 -0.356 -0.356 -0.384
# magnetic-moments N -0.002 -0.002 -0.003 -0.002 -0.003 +0.001 +0.001 -0.003 -0.002 -0.003 -0.003 -0.002 -0.002 -0.003
# oxidation-state B +0.305 +0.415 +0.415 +0.415 +0.415 +0.305 +0.305 +0.305 +0.415 +0.415 +0.305 +0.305 +0.425 +0.425
# magnetic-moments B +0.023 +0.009 +0.009 +0.009 +0.009 +0.023 +0.023 +0.023 +0.009 +0.009 +0.023 +0.023 +0.005 +0.005
# oxidation-state Na +0.912
# magnetic-moments Na +0.001


Dumping 'Na-0.16.fillings' ... done
Dumping 'Na-0.16.wfns' ... done
Dumping 'Na-0.16.n_up' ... done
Dumping 'Na-0.16.n_dn' ... done
Dumping 'Na-0.16.eigenvals' ... done
End date and time: Wed Jan 19 20:12:39 2022  (Duration: 0-0:25:22.99)
Done!
