Second Layer Distance is 0.286

--------------------------------------------------------------------------
The library attempted to open the following supporting CUDA libraries,
but each of them failed.  CUDA-aware support is disabled.
libcuda.so.1: cannot open shared object file: No such file or directory
libcuda.dylib: cannot open shared object file: No such file or directory
/usr/lib64/libcuda.so.1: cannot open shared object file: No such file or directory
/usr/lib64/libcuda.dylib: cannot open shared object file: No such file or directory
If you are not interested in CUDA-aware support, then run with
--mca opal_warn_on_missing_libcuda 0 to suppress this message.  If you are interested
in CUDA-aware support, then try setting LD_LIBRARY_PATH to the location
of libcuda.so.1 to get passed this issue.
--------------------------------------------------------------------------
--------------------------------------------------------------------------
No OpenFabrics connection schemes reported that they were able to be
used on a specific port.  As such, the openib BTL (OpenFabrics
support) will be disabled for this port.

  Local host:           d-4-3-1
  Local device:         mlx5_1
  Local port:           1
  CPCs attempted:       rdmacm, udcm
--------------------------------------------------------------------------

*************** JDFTx 1.6.0 (git hash 42ebbcc2) ***************

Start date and time: Sun Jan 23 16:36:02 2022
Executable jdftx with command-line: -i Moire.in
Running on hosts (process indices):  d-4-3-1 (0-18)
Divided in process groups (process indices):  0 (0)  1 (1)  2 (2)  3 (3)  4 (4)  5 (5)  6 (6)  7 (7)  8 (8)  9 (9)  10 (10)  11 (11)  12 (12)  13 (13)  14 (14)  15 (15)  16 (16)  17 (17)  18 (18)
Resource initialization completed at t[s]:      0.00
Run totals: 19 processes, 48 threads, 0 GPUs


Input parsed successfully to the following command list (including defaults):

basis kpoint-dependent
coords-type Lattice
core-overlap-check vector
coulomb-interaction Slab 001
davidson-band-ratio 1.1
dump End State ElecDensity BandEigs
dump-name Na-0.286.$VAR
elec-cutoff 20
elec-eigen-algo Davidson
elec-ex-corr gga-PBE
elec-initial-magnetization 0.100000 no
elec-smearing Fermi 1e-05
electronic-minimize  \
	dirUpdateScheme      FletcherReeves \
	linminMethod         DirUpdateRecommended \
	nIterations          100 \
	history              15 \
	knormThreshold       0 \
	energyDiffThreshold  1e-08 \
	nEnergyDiff          2 \
	alphaTstart          1 \
	alphaTmin            1e-10 \
	updateTestStepSize   yes \
	alphaTreduceFactor   0.1 \
	alphaTincreaseFactor 3 \
	nAlphaAdjustMax      3 \
	wolfeEnergy          0.0001 \
	wolfeGradient        0.9 \
	fdTest               no
electronic-scf  \
	nIterations	1000 \
	energyDiffThreshold	1e-08 \
	residualThreshold	1e-07 \
	mixFraction	0.5 \
	qMetric	0.8 \
	history	10 \
	nEigSteps	2 \
	eigDiffThreshold	1e-08 \
	mixedVariable	Density \
	qKerker	0.8 \
	qKappa	-1 \
	verbose	no \
	mixFractionMag	1.5
exchange-regularization WignerSeitzTruncated
fluid None
fluid-ex-corr (null) lda-PZ
fluid-gummel-loop 10 1.000000e-05
fluid-minimize  \
	dirUpdateScheme      PolakRibiere \
	linminMethod         DirUpdateRecommended \
	nIterations          100 \
	history              15 \
	knormThreshold       0 \
	energyDiffThreshold  0 \
	nEnergyDiff          2 \
	alphaTstart          1 \
	alphaTmin            1e-10 \
	updateTestStepSize   yes \
	alphaTreduceFactor   0.1 \
	alphaTincreaseFactor 3 \
	nAlphaAdjustMax      3 \
	wolfeEnergy          0.0001 \
	wolfeGradient        0.9 \
	fdTest               no
fluid-solvent H2O 55.338 ScalarEOS \
	epsBulk 78.4 \
	pMol 0.92466 \
	epsInf 1.77 \
	Pvap 1.06736e-10 \
	sigmaBulk 4.62e-05 \
	Rvdw 2.61727 \
	Res 1.42 \
	tauNuc 343133 \
	poleEl 15 7 1
forces-output-coords Positions
ion N   0.952380952380952   0.761904761904762   0.000000000000000 0
ion N   1.428571428571428   1.285714285714286   0.286000000000000 0
ion N   0.380952380952381   0.904761904761905   0.000000000000000 0
ion N   0.714285714285714   1.142857142857143   0.286000000000000 0
ion N   0.523809523809524   0.619047619047619   0.000000000000000 0
ion N   1.000000000000000   1.000000000000000   0.286000000000000 0
ion N   0.666666666666667   0.333333333333333   0.000000000000000 0
ion N   1.285714285714286   0.857142857142857   0.286000000000000 0
ion N   0.809523809523810   0.047619047619048   0.000000000000000 0
ion N   1.571428571428571   0.714285714285714   0.286000000000000 0
ion N   0.095238095238095   0.476190476190476   0.000000000000000 0
ion N   0.238095238095238   0.190476190476190   0.000000000000000 0
ion N   0.857142857142857   0.571428571428571   0.286000000000000 0
ion N   1.142857142857143   0.428571428571429   0.286000000000000 0
ion B   0.571428571428572   0.857142857142857   0.000000000000000 0
ion B   0.952380952380952   1.190476190476190   0.286000000000000 0
ion B   0.714285714285714   0.571428571428571   0.000000000000000 0
ion B   1.238095238095238   1.047619047619047   0.286000000000000 0
ion B   0.857142857142857   0.285714285714286   0.000000000000000 0
ion B   1.523809523809524   0.904761904761905   0.286000000000000 0
ion B   0.142857142857143   0.714285714285714   0.000000000000000 0
ion B   0.285714285714286   0.428571428571429   0.000000000000000 0
ion B   0.809523809523810   0.761904761904762   0.286000000000000 0
ion B   0.428571428571429   0.142857142857143   0.000000000000000 0
ion B   1.095238095238095   0.619047619047619   0.286000000000000 0
ion B   1.380952380952381   0.476190476190476   0.286000000000000 0
ion B   0.000000000000000   0.000000000000000   0.000000000000000 0
ion B   0.666666666666667   0.333333333333333   0.286000000000000 0
ion Na   0.333333333300000   0.666666666600000   0.143000000000000 0
ion-species SG15/$ID_ONCV_PBE.upf
ion-width 0
ionic-minimize  \
	dirUpdateScheme      L-BFGS \
	linminMethod         DirUpdateRecommended \
	nIterations          0 \
	history              15 \
	knormThreshold       0.0001 \
	energyDiffThreshold  1e-06 \
	nEnergyDiff          2 \
	alphaTstart          1 \
	alphaTmin            1e-10 \
	updateTestStepSize   yes \
	alphaTreduceFactor   0.1 \
	alphaTincreaseFactor 3 \
	nAlphaAdjustMax      3 \
	wolfeEnergy          0.0001 \
	wolfeGradient        0.9 \
	fdTest               no
kpoint   0.000000000000   0.000000000000   0.000000000000  1.00000000000000
kpoint-folding 12 12 1 
latt-move-scale 1 1 1
latt-scale 1 1 1 
lattice  \
	 -11.818700000000000    2.363740000000000    0.000000000000000  \
	   4.094120000000000  -12.282400000000001    0.000000000000000  \
	   0.000000000000000    0.000000000000000   40.000000000000000 
lattice-minimize  \
	dirUpdateScheme      L-BFGS \
	linminMethod         DirUpdateRecommended \
	nIterations          0 \
	history              15 \
	knormThreshold       0 \
	energyDiffThreshold  1e-06 \
	nEnergyDiff          2 \
	alphaTstart          1 \
	alphaTmin            1e-10 \
	updateTestStepSize   yes \
	alphaTreduceFactor   0.1 \
	alphaTincreaseFactor 3 \
	nAlphaAdjustMax      3 \
	wolfeEnergy          0.0001 \
	wolfeGradient        0.9 \
	fdTest               no
lcao-params -1 1e-06 1e-05
pcm-variant GLSSA13
spintype z-spin
subspace-rotation-factor 1 yes
symmetries automatic
symmetry-threshold 0.0001
van-der-waals D3



---------- Setting up symmetries ----------

Found 24 point-group symmetries of the bravais lattice
Found 6 space-group symmetries with basis
Applied RMS atom displacement 1.31765e-10 bohrs to make symmetries exact.

---------- Initializing the Grid ----------
R = 
[     -11.8187      2.36374            0  ]
[      4.09412     -12.2824            0  ]
[            0            0           40  ]
unit cell volume = 5419.38
G =
[  -0.569604   -0.10962          0  ]
[  -0.189867    -0.5481          0  ]
[          0          0    0.15708  ]
Minimum fftbox size, Smin = [  52  52  164  ]
Chosen fftbox size, S = [  54  54  168  ]

---------- Exchange Correlation functional ----------
Initalized PBE GGA exchange.
Initalized PBE GGA correlation.

---------- Setting up pseudopotentials ----------
Width of ionic core gaussian charges (only for fluid interactions / plotting) set to 0

Reading pseudopotential file '/home/gridsan/aligho/DFT/build-Nov24/pseudopotentials/SG15/N_ONCV_PBE.upf':
  'N' pseudopotential, 'PBE' functional
  Generated using ONCVPSP code by D. R. Hamann
  Author: Martin Schlipf and Francois Gygi  Date: 150915.
  5 valence electrons, 2 orbitals, 4 projectors, 1058 radial grid points, with lMax = 1
  Transforming local potential to a uniform radial grid of dG=0.02 with 1514 points.
  Transforming nonlocal projectors to a uniform radial grid of dG=0.02 with 432 points.
    2S    l: 0   occupation:  2.0   eigenvalue: -0.682907
    2P    l: 1   occupation:  3.0   eigenvalue: -0.260548
  Transforming atomic orbitals to a uniform radial grid of dG=0.02 with 432 points.
  Core radius for overlap checks: 1.35 bohrs.
  Reading pulay file /home/gridsan/aligho/DFT/build-Nov24/pseudopotentials/SG15/N_ONCV_PBE.pulay ... using dE_dnG = -2.956256e-02 computed for Ecut = 20.

Reading pseudopotential file '/home/gridsan/aligho/DFT/build-Nov24/pseudopotentials/SG15/B_ONCV_PBE.upf':
  'B' pseudopotential, 'PBE' functional
  Generated using ONCVPSP code by D. R. Hamann
  Author: Martin Schlipf and Francois Gygi  Date: 150915.
  3 valence electrons, 2 orbitals, 4 projectors, 1534 radial grid points, with lMax = 1
  Transforming local potential to a uniform radial grid of dG=0.02 with 1514 points.
  Transforming nonlocal projectors to a uniform radial grid of dG=0.02 with 432 points.
    2S    l: 0   occupation:  2.0   eigenvalue: -0.347027
    2P    l: 1   occupation:  1.0   eigenvalue: -0.132548
  Transforming atomic orbitals to a uniform radial grid of dG=0.02 with 432 points.
  Core radius for overlap checks: 1.60 bohrs.
  Reading pulay file /home/gridsan/aligho/DFT/build-Nov24/pseudopotentials/SG15/B_ONCV_PBE.pulay ... using dE_dnG = -3.748568e-04 computed for Ecut = 20.

Reading pseudopotential file '/home/gridsan/aligho/DFT/build-Nov24/pseudopotentials/SG15/Na_ONCV_PBE.upf':
  'Na' pseudopotential, 'PBE' functional
  Generated using ONCVPSP code by D. R. Hamann
  Author: Martin Schlipf and Francois Gygi  Date: 150915.
  9 valence electrons, 3 orbitals, 4 projectors, 1992 radial grid points, with lMax = 1
  Transforming local potential to a uniform radial grid of dG=0.02 with 1514 points.
  Transforming nonlocal projectors to a uniform radial grid of dG=0.02 with 432 points.
    2S    l: 0   occupation:  2.0   eigenvalue: -2.085640
    2P    l: 1   occupation:  6.0   eigenvalue: -1.053708
    3S    l: 0   occupation:  1.0   eigenvalue: -0.100838
  Transforming atomic orbitals to a uniform radial grid of dG=0.02 with 432 points.
  Core radius for overlap checks: 2.01 bohrs.
  Reading pulay file /home/gridsan/aligho/DFT/build-Nov24/pseudopotentials/SG15/Na_ONCV_PBE.pulay ... using dE_dnG = -2.946487e-03 computed for Ecut = 20.

Initialized 3 species with 29 total atoms.

Folded 1 k-points by 12x12x1 to 144 k-points.

---------- Setting up k-points, bands, fillings ----------
Adding inversion symmetry to k-mesh for non-inversion-symmetric unit cell.
Reduced to 19 k-points under symmetry. 
Computing the number of bands and number of electrons
Calculating initial fillings.
nElectrons: 121.000000   nBands: 117   nStates: 38

----- Setting up reduced wavefunction bases (one per k-point) -----
average nbasis = 23151.771 , ideal nbasis = 23152.016

---------- Setting up coulomb interaction ----------
Initialized slab truncation along lattice direction 001

Initializing DFT-D3 calculator:
	Parameters set for gga-PBE functional
	s6:  1.000  s_r6:  1.217
	s8:  0.722  s_r8:  1.000
	Per-atom parameters loaded for:
	 N:  sqrtQ[a0]:  2.712  Rcov[a0]:  1.342  CN: [ 0.00 0.99 2.01 2.99 ]
	 B:  sqrtQ[a0]:  3.644  Rcov[a0]:  1.455  CN: [ 0.00 0.97 1.94 2.91 4.59 ]
	Na:  sqrtQ[a0]:  6.586  Rcov[a0]:  2.646  CN: [ 0.00 0.97 ]

---------- Setting up 2D ewald sum ----------
Optimum gaussian width for ewald sums = 6.943804 bohr.
Real space sums over 289 unit cells with max indices [  8  8  0  ]
Reciprocal space sums over 81 terms with max indices [  4  4  0  ]

Computing DFT-D3 correction:
# coordination-number N 3.143 3.143 3.207 3.143 3.207 3.140 3.140 3.207 3.143 3.207 3.207 3.143 3.143 3.207
# coordination-number B 3.441 3.349 3.349 3.349 3.349 3.441 3.441 3.441 3.349 3.349 3.441 3.441 3.345 3.345
# coordination-number Na 1.149
# diagonal-C6 N 15.61 15.61 15.60 15.61 15.60 15.61 15.61 15.60 15.61 15.60 15.60 15.61 15.61 15.60
# diagonal-C6 B 31.39 31.44 31.44 31.44 31.44 31.39 31.39 31.39 31.44 31.44 31.39 31.39 31.44 31.44
# diagonal-C6 Na 189.82
EvdW_6 =   -0.031898
EvdW_8 =   -0.030499

---------- Allocating electronic variables ----------
Initializing wave functions:  linear combination of atomic orbitals
N pseudo-atom occupations:   s ( 2 )  p ( 3 )
[d-4-3-1:96763] 18 more processes have sent help message help-mpi-common-cuda.txt / dlopen failed
[d-4-3-1:96763] Set MCA parameter "orte_base_help_aggregate" to 0 to see all help / error messages
[d-4-3-1:96763] 18 more processes have sent help message help-mpi-btl-openib-cpc-base.txt / no cpcs for port
B pseudo-atom occupations:   s ( 2 )  p ( 1 )
Na pseudo-atom occupations:   s ( 2 1 )  p ( 6 )
	FillingsUpdate:  mu: -0.137857690  nElectrons: 121.000000  magneticMoment: [ Abs: 0.07651  Tot: -0.01377 ]
LCAOMinimize: Iter:   0  F: -219.6648984241916764  |grad|_K:  3.529e-03  alpha:  1.000e+00
	FillingsUpdate:  mu: -0.162604306  nElectrons: 121.000000  magneticMoment: [ Abs: 0.11606  Tot: +0.06944 ]
LCAOMinimize: Iter:   1  F: -220.8536011806100134  |grad|_K:  4.338e-04  alpha:  4.413e-01  linmin:  3.175e-01  cgtest: -1.094e+00  t[s]:     48.68
LCAOMinimize: 	Bad step direction: g.d > 0.
LCAOMinimize: 	Undoing step.
LCAOMinimize: 	Step failed: resetting search direction.
	FillingsUpdate:  mu: -0.162604306  nElectrons: 121.000000  magneticMoment: [ Abs: 0.11606  Tot: +0.06944 ]
LCAOMinimize: Iter:   2  F: -220.8536011806100134  |grad|_K:  4.338e-04  alpha:  0.000e+00
	FillingsUpdate:  mu: -0.155965697  nElectrons: 121.000000  magneticMoment: [ Abs: 0.06153  Tot: -0.01389 ]
LCAOMinimize: Iter:   3  F: -220.8741352506414728  |grad|_K:  1.986e-04  alpha:  4.004e-01  linmin:  1.988e-03  cgtest:  3.010e-02  t[s]:     73.51
LCAOMinimize: 	Step increased F by 4.635584e-05, reducing alpha to 1.843481e-02.
	FillingsUpdate:  mu: -0.156582585  nElectrons: 121.000000  magneticMoment: [ Abs: 0.05231  Tot: -0.01389 ]
LCAOMinimize: Iter:   4  F: -220.8741834486518485  |grad|_K:  2.286e-05  alpha:  1.843e-02  linmin: -1.506e-01  cgtest:  8.127e+00  t[s]:     98.47
LCAOMinimize: Encountered beta<0, resetting CG.
LCAOMinimize: 	Predicted alpha/alphaT>3.000000, increasing alphaT to 5.530442e-02.
LCAOMinimize: 	Predicted alpha/alphaT>3.000000, increasing alphaT to 1.659133e-01.
	FillingsUpdate:  mu: -0.161126093  nElectrons: 121.000000  magneticMoment: [ Abs: 0.11024  Tot: +0.01392 ]
LCAOMinimize: Iter:   5  F: -220.8742982924421483  |grad|_K:  1.356e-05  alpha:  4.137e-01  linmin:  4.543e-02  cgtest: -6.397e-01  t[s]:    121.25
	FillingsUpdate:  mu: -0.161125194  nElectrons: 121.000000  magneticMoment: [ Abs: 0.11020  Tot: +0.01396 ]
LCAOMinimize: Iter:   6  F: -220.8742983007048792  |grad|_K:  1.410e-05  alpha:  3.402e-03  linmin:  8.795e-04  cgtest:  9.620e-01  t[s]:    135.85
LCAOMinimize: 	Predicted alpha/alphaT>3.000000, increasing alphaT to 1.020476e-02.
LCAOMinimize: 	Predicted alpha/alphaT>3.000000, increasing alphaT to 3.061428e-02.
LCAOMinimize: 	Predicted alpha/alphaT>3.000000, increasing alphaT to 9.184284e-02.
	FillingsUpdate:  mu: -0.160751365  nElectrons: 121.000000  magneticMoment: [ Abs: 0.11060  Tot: +0.01389 ]
LCAOMinimize: Iter:   7  F: -220.8743078123038970  |grad|_K:  9.920e-06  alpha:  1.169e-01  linmin: -3.376e-01  cgtest:  1.082e+00  t[s]:    158.73
LCAOMinimize: Encountered beta<0, resetting CG.
LCAOMinimize: 	Wrong curvature in test step, increasing alphaT to 3.508327e-01.
	FillingsUpdate:  mu: -0.159251930  nElectrons: 121.000000  magneticMoment: [ Abs: 0.09585  Tot: +0.01389 ]
LCAOMinimize: Iter:   8  F: -220.8743169484829991  |grad|_K:  5.987e-06  alpha: -1.169e-01  linmin: -2.834e-02  cgtest:  9.198e-01  t[s]:    172.87
LCAOMinimize: Encountered beta<0, resetting CG.
	FillingsUpdate:  mu: -0.158981835  nElectrons: 121.000000  magneticMoment: [ Abs: 0.09239  Tot: +0.01389 ]
LCAOMinimize: Iter:   9  F: -220.8743183262890000  |grad|_K:  4.716e-06  alpha:  9.632e-02  linmin: -1.024e-02  cgtest:  6.411e-01  t[s]:    187.49
LCAOMinimize: 	Predicted alpha/alphaT>3.000000, increasing alphaT to 2.889718e-01.
	FillingsUpdate:  mu: -0.159597309  nElectrons: 121.000000  magneticMoment: [ Abs: 0.10571  Tot: +0.01389 ]
LCAOMinimize: Iter:  10  F: -220.8743203397877437  |grad|_K:  6.964e-06  alpha:  3.091e-01  linmin: -3.468e-04  cgtest: -2.784e-02  t[s]:    206.18
	FillingsUpdate:  mu: -0.159516167  nElectrons: 121.000000  magneticMoment: [ Abs: 0.10531  Tot: +0.01389 ]
LCAOMinimize: Iter:  11  F: -220.8743207197333902  |grad|_K:  6.210e-06  alpha:  1.460e-02  linmin: -3.763e-03  cgtest:  9.814e-01  t[s]:    220.74
LCAOMinimize: Encountered beta<0, resetting CG.
LCAOMinimize: 	Predicted alpha/alphaT>3.000000, increasing alphaT to 4.380138e-02.
	FillingsUpdate:  mu: -0.158836499  nElectrons: 121.000000  magneticMoment: [ Abs: 0.09634  Tot: +0.01389 ]
LCAOMinimize: Iter:  12  F: -220.8743213141620458  |grad|_K:  3.594e-06  alpha:  7.638e-02  linmin:  7.832e-03  cgtest: -5.425e-01  t[s]:    239.46
LCAOMinimize: Converged (|Delta F|<1.000000e-06 for 2 iters).


---- Citations for features of the code used in this run ----

   Software package:
      R. Sundararaman, K. Letchworth-Weaver, K.A. Schwarz, D. Gunceler, Y. Ozhabes and T.A. Arias, 'JDFTx: software for joint density-functional theory', SoftwareX 6, 278 (2017)

   gga-PBE exchange-correlation functional:
      J.P. Perdew, K. Burke and M. Ernzerhof, Phys. Rev. Lett. 77, 3865 (1996)

   Pseudopotentials:
      M Schlipf and F Gygi, Comput. Phys. Commun. 196, 36 (2015)

   Truncated Coulomb potentials:
      R. Sundararaman and T.A. Arias, Phys. Rev. B 87, 165122 (2013)

   DFT-D3 dispersion correction:
      S. Grimme, J. Antony, S. Ehrlich and H. Krieg, J. Chem. Phys. 132, 154104 (2010)

This list may not be complete. Please suggest additional citations or
report any other bugs at https://github.com/shankar1729/jdftx/issues

Initialization completed successfully at t[s]:    241.60


Computing DFT-D3 correction:
# coordination-number N 3.143 3.143 3.207 3.143 3.207 3.140 3.140 3.207 3.143 3.207 3.207 3.143 3.143 3.207
# coordination-number B 3.441 3.349 3.349 3.349 3.349 3.441 3.441 3.441 3.349 3.349 3.441 3.441 3.345 3.345
# coordination-number Na 1.149
# diagonal-C6 N 15.61 15.61 15.60 15.61 15.60 15.61 15.61 15.60 15.61 15.60 15.60 15.61 15.61 15.60
# diagonal-C6 B 31.39 31.44 31.44 31.44 31.44 31.39 31.39 31.39 31.44 31.44 31.39 31.39 31.44 31.44
# diagonal-C6 Na 189.82
EvdW_6 =   -0.031898
EvdW_8 =   -0.030499

-------- Electronic minimization -----------
Will mix electronic density at each iteration.
	FillingsUpdate:  mu: -0.158836498  nElectrons: 121.000000  magneticMoment: [ Abs: 0.09634  Tot: +0.01389 ]
	FillingsUpdate:  mu: -0.167931082  nElectrons: 121.000000  magneticMoment: [ Abs: 0.09634  Tot: +0.01389 ]
SCF: Cycle:  0   F: -222.201542528316850   dF: -1.327e+00   |Residual|: 3.977e-01   |deigs|: 1.121e-01  t[s]:    290.52
	FillingsUpdate:  mu: -0.164517418  nElectrons: 121.000000  magneticMoment: [ Abs: 0.14719  Tot: +0.01853 ]
SCF: Cycle:  1   F: -222.277780230021108   dF: -7.624e-02   |Residual|: 2.167e-01   |deigs|: 1.902e-02  t[s]:    328.21
	FillingsUpdate:  mu: -0.164682354  nElectrons: 121.000000  magneticMoment: [ Abs: 0.16185  Tot: +0.01475 ]
SCF: Cycle:  2   F: -222.307110007784388   dF: -2.933e-02   |Residual|: 3.939e-02   |deigs|: 2.435e-02  t[s]:    365.82
	FillingsUpdate:  mu: -0.162212798  nElectrons: 121.000000  magneticMoment: [ Abs: 0.05999  Tot: +0.01289 ]
SCF: Cycle:  3   F: -222.308306171400517   dF: -1.196e-03   |Residual|: 2.613e-02   |deigs|: 4.469e-03  t[s]:    403.36
	FillingsUpdate:  mu: -0.154977954  nElectrons: 121.000000  magneticMoment: [ Abs: 0.08639  Tot: +0.00807 ]
SCF: Cycle:  4   F: -222.309167270248196   dF: -8.611e-04   |Residual|: 1.649e-02   |deigs|: 1.137e-02  t[s]:    441.18
	FillingsUpdate:  mu: -0.151304147  nElectrons: 121.000000  magneticMoment: [ Abs: 0.05064  Tot: +0.00603 ]
SCF: Cycle:  5   F: -222.310067806493777   dF: -9.005e-04   |Residual|: 1.418e-02   |deigs|: 4.520e-03  t[s]:    478.96
	FillingsUpdate:  mu: -0.140632440  nElectrons: 121.000000  magneticMoment: [ Abs: 0.05623  Tot: +0.00067 ]
SCF: Cycle:  6   F: -222.312228028770789   dF: -2.160e-03   |Residual|: 1.018e-02   |deigs|: 1.072e-02  t[s]:    516.85
	FillingsUpdate:  mu: -0.128007943  nElectrons: 121.000000  magneticMoment: [ Abs: 0.06048  Tot: -0.00505 ]
SCF: Cycle:  7   F: -222.314214011600143   dF: -1.986e-03   |Residual|: 1.079e-02   |deigs|: 1.138e-02  t[s]:    554.71
	FillingsUpdate:  mu: -0.117286596  nElectrons: 121.000000  magneticMoment: [ Abs: 0.04516  Tot: -0.00944 ]
SCF: Cycle:  8   F: -222.316523784634342   dF: -2.310e-03   |Residual|: 8.547e-03   |deigs|: 9.093e-03  t[s]:    592.52
	FillingsUpdate:  mu: -0.105147211  nElectrons: 121.000000  magneticMoment: [ Abs: 0.03788  Tot: -0.01381 ]
SCF: Cycle:  9   F: -222.319764878601688   dF: -3.241e-03   |Residual|: 7.280e-03   |deigs|: 9.235e-03  t[s]:    630.59
	FillingsUpdate:  mu: -0.100929447  nElectrons: 121.000000  magneticMoment: [ Abs: 0.04065  Tot: -0.01447 ]
SCF: Cycle: 10   F: -222.321114747984126   dF: -1.350e-03   |Residual|: 6.384e-03   |deigs|: 3.112e-03  t[s]:    668.70
	FillingsUpdate:  mu: -0.099048982  nElectrons: 121.000000  magneticMoment: [ Abs: 0.03440  Tot: -0.01358 ]
SCF: Cycle: 11   F: -222.321788415514732   dF: -6.737e-04   |Residual|: 5.255e-03   |deigs|: 2.322e-03  t[s]:    706.70
	FillingsUpdate:  mu: -0.092865043  nElectrons: 121.000000  magneticMoment: [ Abs: 0.04199  Tot: -0.01468 ]
SCF: Cycle: 12   F: -222.322333898419799   dF: -5.455e-04   |Residual|: 5.166e-03   |deigs|: 4.978e-03  t[s]:    744.83
	FillingsUpdate:  mu: -0.086258818  nElectrons: 121.000000  magneticMoment: [ Abs: 0.03441  Tot: -0.01497 ]
SCF: Cycle: 13   F: -222.322643248716673   dF: -3.094e-04   |Residual|: 3.892e-03   |deigs|: 4.942e-03  t[s]:    782.97
	FillingsUpdate:  mu: -0.083149429  nElectrons: 121.000000  magneticMoment: [ Abs: 0.02546  Tot: -0.01460 ]
SCF: Cycle: 14   F: -222.322740203507465   dF: -9.695e-05   |Residual|: 2.891e-03   |deigs|: 2.535e-03  t[s]:    820.98
	FillingsUpdate:  mu: -0.081281221  nElectrons: 121.000000  magneticMoment: [ Abs: 0.02862  Tot: -0.01422 ]
SCF: Cycle: 15   F: -222.322777511997742   dF: -3.731e-05   |Residual|: 1.639e-03   |deigs|: 2.893e-03  t[s]:    859.12
	FillingsUpdate:  mu: -0.080838447  nElectrons: 121.000000  magneticMoment: [ Abs: 0.02067  Tot: -0.01402 ]
SCF: Cycle: 16   F: -222.322783436749944   dF: -5.925e-06   |Residual|: 9.905e-04   |deigs|: 5.838e-04  t[s]:    897.23
	FillingsUpdate:  mu: -0.080929452  nElectrons: 121.000000  magneticMoment: [ Abs: 0.01837  Tot: -0.01383 ]
SCF: Cycle: 17   F: -222.322785023693484   dF: -1.587e-06   |Residual|: 4.612e-04   |deigs|: 5.274e-04  t[s]:    935.28
	FillingsUpdate:  mu: -0.080849649  nElectrons: 121.000000  magneticMoment: [ Abs: 0.01475  Tot: -0.01384 ]
SCF: Cycle: 18   F: -222.322785309745370   dF: -2.861e-07   |Residual|: 2.410e-04   |deigs|: 5.784e-04  t[s]:    973.53
	FillingsUpdate:  mu: -0.080899140  nElectrons: 121.000000  magneticMoment: [ Abs: 0.01462  Tot: -0.01383 ]
SCF: Cycle: 19   F: -222.322785408272409   dF: -9.853e-08   |Residual|: 1.215e-04   |deigs|: 3.899e-04  t[s]:   1011.50
	FillingsUpdate:  mu: -0.080907424  nElectrons: 121.000000  magneticMoment: [ Abs: 0.01401  Tot: -0.01384 ]
SCF: Cycle: 20   F: -222.322785431729017   dF: -2.346e-08   |Residual|: 6.228e-05   |deigs|: 3.858e-04  t[s]:   1049.40
	FillingsUpdate:  mu: -0.080905242  nElectrons: 121.000000  magneticMoment: [ Abs: 0.01410  Tot: -0.01385 ]
SCF: Cycle: 21   F: -222.322785438944834   dF: -7.216e-09   |Residual|: 3.635e-05   |deigs|: 2.898e-04  t[s]:   1087.33
	FillingsUpdate:  mu: -0.080901865  nElectrons: 121.000000  magneticMoment: [ Abs: 0.01404  Tot: -0.01386 ]
SCF: Cycle: 22   F: -222.322785441711261   dF: -2.766e-09   |Residual|: 2.139e-05   |deigs|: 3.866e-04  t[s]:   1125.53
SCF: Converged (|Delta E|<1.000000e-08 for 2 iters).


Computing DFT-D3 correction:
# coordination-number N 3.143 3.143 3.207 3.143 3.207 3.140 3.140 3.207 3.143 3.207 3.207 3.143 3.143 3.207
# coordination-number B 3.441 3.349 3.349 3.349 3.349 3.441 3.441 3.441 3.349 3.349 3.441 3.441 3.345 3.345
# coordination-number Na 1.149
# diagonal-C6 N 15.61 15.61 15.60 15.61 15.60 15.61 15.61 15.60 15.61 15.60 15.60 15.61 15.61 15.60
# diagonal-C6 B 31.39 31.44 31.44 31.44 31.44 31.39 31.39 31.39 31.44 31.44 31.39 31.39 31.44 31.44
# diagonal-C6 Na 189.82
EvdW_6 =   -0.031898
EvdW_8 =   -0.030499

# Ionic positions in lattice coordinates:
ion N   0.952380952379803   0.761904761902463   0.000000000000000 0
ion N   1.428571428570279   1.285714285711987   0.286000000000000 0
ion N   0.380952380951232   0.904761904759606   0.000000000000000 0
ion N   0.714285714284565   1.142857142854844   0.286000000000000 0
ion N   0.523809523808374   0.619047619045320   0.000000000000000 0
ion N   0.999999999998850   0.999999999997701   0.286000000000000 0
ion N   0.666666666665517   0.333333333331034   0.000000000000000 0
ion N   1.285714285713136   0.857142857140558   0.286000000000000 0
ion N   0.809523809522660   0.047619047616749   0.000000000000000 0
ion N   1.571428571427422   0.714285714283415   0.286000000000000 0
ion N   0.095238095236946   0.476190476188177   0.000000000000000 0
ion N   0.238095238094089   0.190476190473892   0.000000000000000 0
ion N   0.857142857141708   0.571428571426273   0.286000000000000 0
ion N   1.142857142855993   0.428571428569130   0.286000000000000 0
ion B   0.571428571427422   0.857142857140558   0.000000000000000 0
ion B   0.952380952379803   1.190476190473892   0.286000000000000 0
ion B   0.714285714284565   0.571428571426273   0.000000000000000 0
ion B   1.238095238094089   1.047619047616749   0.286000000000000 0
ion B   0.857142857141708   0.285714285711987   0.000000000000000 0
ion B   1.523809523808374   0.904761904759606   0.286000000000000 0
ion B   0.142857142855993   0.714285714283415   0.000000000000000 0
ion B   0.285714285713136   0.428571428569130   0.000000000000000 0
ion B   0.809523809522660   0.761904761902463   0.286000000000000 0
ion B   0.428571428570279   0.142857142854844   0.000000000000000 0
ion B   1.095238095236946   0.619047619045320   0.286000000000000 0
ion B   1.380952380951231   0.476190476188177   0.286000000000000 0
ion B  -0.000000000001149  -0.000000000002299   0.000000000000000 0
ion B   0.666666666665517   0.333333333331034   0.286000000000000 0
ion Na   0.333333333332184   0.666666666664368   0.143000000000000 0

# Forces in Lattice coordinates:
force N   0.008832010839613  -0.007838839721673  -0.032596572004506 0
force N  -0.007838839721673   0.008832010839613   0.032596572004506 0
force N   0.001764612578003  -0.017648616578896   0.023028847206947 0
force N  -0.000993171117940  -0.007838839721673   0.032596572004506 0
force N  -0.017648616578896   0.015884004000894   0.023028847207060 0
force N   0.000000000000000   0.000000000000000   0.019844398551302 0
force N   0.000000000000000   0.000000000000000  -0.019844398551301 0
force N   0.015884004000893  -0.017648616578897  -0.023028847206947 0
force N  -0.007838839721673  -0.000993171117940  -0.032596572004506 0
force N  -0.017648616578897   0.001764612578003  -0.023028847206947 0
force N   0.015884004000894   0.001764612578003   0.023028847207060 0
force N  -0.000993171117939   0.008832010839613  -0.032596572004506 0
force N   0.008832010839613  -0.000993171117939   0.032596572004506 0
force N   0.001764612578003   0.015884004000894  -0.023028847206947 0
force B   0.027344911758683   0.015335204420989  -0.051234023655359 0
force B  -0.008594786267489  -0.024927884732305  -0.039803611687645 0
force B   0.033522670999794  -0.024927884732305   0.039803611687645 0
force B  -0.024927884732305   0.033522670999794  -0.039803611687588 0
force B  -0.024927884732305  -0.008594786267489   0.039803611687588 0
force B   0.015335204420989   0.027344911758683   0.051234023655416 0
force B  -0.042680116179672   0.027344911758683  -0.051234023655416 0
force B   0.015335204420989  -0.042680116179672  -0.051234023655416 0
force B   0.033522670999794  -0.008594786267489  -0.039803611687588 0
force B  -0.008594786267489   0.033522670999794   0.039803611687645 0
force B  -0.042680116179672   0.015335204420989   0.051234023655359 0
force B   0.027344911758683  -0.042680116179672   0.051234023655359 0
force B   0.000000000000000  -0.000000000000000   0.058245120085540 0
force B  -0.000000000000000   0.000000000000000  -0.058245120085540 0
force Na  -0.000000000000000  -0.000000000000000  -0.000000000000000 0

# Energy components:
   Eewald =    -2225.4403906401521454
       EH =    -2050.4514263076735006
     Eloc =     3983.7790969182178742
      Enl =      -21.2952398999092445
   Epulay =       -0.0000190610708103
     EvdW =       -0.0623971131564270
      Exc =      -57.7773065681168205
       KE =      148.9248976056174740
-------------------------------------
     Etot =     -222.3227850662435969
       TS =        0.0000003754676741
-------------------------------------
        F =     -222.3227854417112610

IonicMinimize: Iter:   0  F: -222.322785441711261  |grad|_K:  0.000e+00  t[s]:   1129.57
IonicMinimize: Converged (|grad|_K<1.000000e-04).

#--- Lowdin population analysis ---
# oxidation-state N -0.373 -0.373 -0.378 -0.373 -0.378 -0.373 -0.373 -0.378 -0.373 -0.378 -0.378 -0.373 -0.373 -0.378
# magnetic-moments N -0.000 -0.000 -0.000 -0.000 -0.000 -0.000 -0.000 -0.000 -0.000 -0.000 -0.000 -0.000 -0.000 -0.000
# oxidation-state B +0.423 +0.447 +0.447 +0.447 +0.447 +0.423 +0.423 +0.423 +0.447 +0.447 +0.423 +0.423 +0.447 +0.447
# magnetic-moments B -0.000 -0.000 -0.000 -0.000 -0.000 -0.000 -0.000 -0.000 -0.000 -0.000 -0.000 -0.000 -0.000 -0.000
# oxidation-state Na +0.122
# magnetic-moments Na -0.012


Dumping 'Na-0.286.fillings' ... done
Dumping 'Na-0.286.wfns' ... done
Dumping 'Na-0.286.n_up' ... done
Dumping 'Na-0.286.n_dn' ... done
Dumping 'Na-0.286.eigenvals' ... done
End date and time: Sun Jan 23 16:54:55 2022  (Duration: 0-0:18:52.73)
Done!
