Second Layer Distance is 0.214

--------------------------------------------------------------------------
The library attempted to open the following supporting CUDA libraries,
but each of them failed.  CUDA-aware support is disabled.
libcuda.so.1: cannot open shared object file: No such file or directory
libcuda.dylib: cannot open shared object file: No such file or directory
/usr/lib64/libcuda.so.1: cannot open shared object file: No such file or directory
/usr/lib64/libcuda.dylib: cannot open shared object file: No such file or directory
If you are not interested in CUDA-aware support, then run with
--mca opal_warn_on_missing_libcuda 0 to suppress this message.  If you are interested
in CUDA-aware support, then try setting LD_LIBRARY_PATH to the location
of libcuda.so.1 to get passed this issue.
--------------------------------------------------------------------------
--------------------------------------------------------------------------
No OpenFabrics connection schemes reported that they were able to be
used on a specific port.  As such, the openib BTL (OpenFabrics
support) will be disabled for this port.

  Local host:           d-19-2-3
  Local device:         mlx5_1
  Local port:           1
  CPCs attempted:       rdmacm, udcm
--------------------------------------------------------------------------

*************** JDFTx 1.6.0 (git hash 42ebbcc2) ***************

Start date and time: Wed Jan 19 20:05:49 2022
Executable jdftx with command-line: -i Moire.in
Running on hosts (process indices):  d-19-2-3 (0-18)
Divided in process groups (process indices):  0 (0)  1 (1)  2 (2)  3 (3)  4 (4)  5 (5)  6 (6)  7 (7)  8 (8)  9 (9)  10 (10)  11 (11)  12 (12)  13 (13)  14 (14)  15 (15)  16 (16)  17 (17)  18 (18)
Resource initialization completed at t[s]:      0.00
Run totals: 19 processes, 48 threads, 0 GPUs


Input parsed successfully to the following command list (including defaults):

basis kpoint-dependent
coords-type Lattice
core-overlap-check vector
coulomb-interaction Slab 001
davidson-band-ratio 1.1
dump End State ElecDensity BandEigs
dump-name Na-0.214.$VAR
elec-cutoff 20
elec-eigen-algo Davidson
elec-ex-corr gga-PBE
elec-initial-magnetization 0.100000 no
elec-smearing Fermi 1e-05
electronic-minimize  \
	dirUpdateScheme      FletcherReeves \
	linminMethod         DirUpdateRecommended \
	nIterations          100 \
	history              15 \
	knormThreshold       0 \
	energyDiffThreshold  1e-08 \
	nEnergyDiff          2 \
	alphaTstart          1 \
	alphaTmin            1e-10 \
	updateTestStepSize   yes \
	alphaTreduceFactor   0.1 \
	alphaTincreaseFactor 3 \
	nAlphaAdjustMax      3 \
	wolfeEnergy          0.0001 \
	wolfeGradient        0.9 \
	fdTest               no
electronic-scf  \
	nIterations	1000 \
	energyDiffThreshold	1e-08 \
	residualThreshold	1e-07 \
	mixFraction	0.5 \
	qMetric	0.8 \
	history	10 \
	nEigSteps	2 \
	eigDiffThreshold	1e-08 \
	mixedVariable	Density \
	qKerker	0.8 \
	qKappa	-1 \
	verbose	no \
	mixFractionMag	1.5
exchange-regularization WignerSeitzTruncated
fluid None
fluid-ex-corr (null) lda-PZ
fluid-gummel-loop 10 1.000000e-05
fluid-minimize  \
	dirUpdateScheme      PolakRibiere \
	linminMethod         DirUpdateRecommended \
	nIterations          100 \
	history              15 \
	knormThreshold       0 \
	energyDiffThreshold  0 \
	nEnergyDiff          2 \
	alphaTstart          1 \
	alphaTmin            1e-10 \
	updateTestStepSize   yes \
	alphaTreduceFactor   0.1 \
	alphaTincreaseFactor 3 \
	nAlphaAdjustMax      3 \
	wolfeEnergy          0.0001 \
	wolfeGradient        0.9 \
	fdTest               no
fluid-solvent H2O 55.338 ScalarEOS \
	epsBulk 78.4 \
	pMol 0.92466 \
	epsInf 1.77 \
	Pvap 1.06736e-10 \
	sigmaBulk 4.62e-05 \
	Rvdw 2.61727 \
	Res 1.42 \
	tauNuc 343133 \
	poleEl 15 7 1
forces-output-coords Positions
ion N   0.952380952380952   0.761904761904762   0.000000000000000 0
ion N   1.428571428571428   1.285714285714286   0.214000000000000 0
ion N   0.380952380952381   0.904761904761905   0.000000000000000 0
ion N   0.714285714285714   1.142857142857143   0.214000000000000 0
ion N   0.523809523809524   0.619047619047619   0.000000000000000 0
ion N   1.000000000000000   1.000000000000000   0.214000000000000 0
ion N   0.666666666666667   0.333333333333333   0.000000000000000 0
ion N   1.285714285714286   0.857142857142857   0.214000000000000 0
ion N   0.809523809523810   0.047619047619048   0.000000000000000 0
ion N   1.571428571428571   0.714285714285714   0.214000000000000 0
ion N   0.095238095238095   0.476190476190476   0.000000000000000 0
ion N   0.238095238095238   0.190476190476190   0.000000000000000 0
ion N   0.857142857142857   0.571428571428571   0.214000000000000 0
ion N   1.142857142857143   0.428571428571429   0.214000000000000 0
ion B   0.571428571428572   0.857142857142857   0.000000000000000 0
ion B   0.952380952380952   1.190476190476190   0.214000000000000 0
ion B   0.714285714285714   0.571428571428571   0.000000000000000 0
ion B   1.238095238095238   1.047619047619047   0.214000000000000 0
ion B   0.857142857142857   0.285714285714286   0.000000000000000 0
ion B   1.523809523809524   0.904761904761905   0.214000000000000 0
ion B   0.142857142857143   0.714285714285714   0.000000000000000 0
ion B   0.285714285714286   0.428571428571429   0.000000000000000 0
ion B   0.809523809523810   0.761904761904762   0.214000000000000 0
ion B   0.428571428571429   0.142857142857143   0.000000000000000 0
ion B   1.095238095238095   0.619047619047619   0.214000000000000 0
ion B   1.380952380952381   0.476190476190476   0.214000000000000 0
ion B   0.000000000000000   0.000000000000000   0.000000000000000 0
ion B   0.666666666666667   0.333333333333333   0.214000000000000 0
ion Na   0.333333333300000   0.666666666600000   0.107000000000000 0
ion-species SG15/$ID_ONCV_PBE.upf
ion-width 0
ionic-minimize  \
	dirUpdateScheme      L-BFGS \
	linminMethod         DirUpdateRecommended \
	nIterations          0 \
	history              15 \
	knormThreshold       0.0001 \
	energyDiffThreshold  1e-06 \
	nEnergyDiff          2 \
	alphaTstart          1 \
	alphaTmin            1e-10 \
	updateTestStepSize   yes \
	alphaTreduceFactor   0.1 \
	alphaTincreaseFactor 3 \
	nAlphaAdjustMax      3 \
	wolfeEnergy          0.0001 \
	wolfeGradient        0.9 \
	fdTest               no
kpoint   0.000000000000   0.000000000000   0.000000000000  1.00000000000000
kpoint-folding 12 12 1 
latt-move-scale 1 1 1
latt-scale 1 1 1 
lattice  \
	 -11.818700000000000    2.363740000000000    0.000000000000000  \
	   4.094120000000000  -12.282400000000001    0.000000000000000  \
	   0.000000000000000    0.000000000000000   40.000000000000000 
lattice-minimize  \
	dirUpdateScheme      L-BFGS \
	linminMethod         DirUpdateRecommended \
	nIterations          0 \
	history              15 \
	knormThreshold       0 \
	energyDiffThreshold  1e-06 \
	nEnergyDiff          2 \
	alphaTstart          1 \
	alphaTmin            1e-10 \
	updateTestStepSize   yes \
	alphaTreduceFactor   0.1 \
	alphaTincreaseFactor 3 \
	nAlphaAdjustMax      3 \
	wolfeEnergy          0.0001 \
	wolfeGradient        0.9 \
	fdTest               no
lcao-params -1 1e-06 1e-05
pcm-variant GLSSA13
spintype z-spin
subspace-rotation-factor 1 yes
symmetries automatic
symmetry-threshold 0.0001
van-der-waals D3



---------- Setting up symmetries ----------

Found 24 point-group symmetries of the bravais lattice
Found 6 space-group symmetries with basis
Applied RMS atom displacement 1.31765e-10 bohrs to make symmetries exact.

---------- Initializing the Grid ----------
R = 
[     -11.8187      2.36374            0  ]
[      4.09412     -12.2824            0  ]
[            0            0           40  ]
unit cell volume = 5419.38
G =
[  -0.569604   -0.10962          0  ]
[  -0.189867    -0.5481          0  ]
[          0          0    0.15708  ]
Minimum fftbox size, Smin = [  52  52  164  ]
Chosen fftbox size, S = [  54  54  168  ]

---------- Exchange Correlation functional ----------
Initalized PBE GGA exchange.
Initalized PBE GGA correlation.

---------- Setting up pseudopotentials ----------
Width of ionic core gaussian charges (only for fluid interactions / plotting) set to 0

Reading pseudopotential file '/home/gridsan/aligho/DFT/build-Nov24/pseudopotentials/SG15/N_ONCV_PBE.upf':
  'N' pseudopotential, 'PBE' functional
  Generated using ONCVPSP code by D. R. Hamann
  Author: Martin Schlipf and Francois Gygi  Date: 150915.
  5 valence electrons, 2 orbitals, 4 projectors, 1058 radial grid points, with lMax = 1
  Transforming local potential to a uniform radial grid of dG=0.02 with 1514 points.
  Transforming nonlocal projectors to a uniform radial grid of dG=0.02 with 432 points.
    2S    l: 0   occupation:  2.0   eigenvalue: -0.682907
    2P    l: 1   occupation:  3.0   eigenvalue: -0.260548
  Transforming atomic orbitals to a uniform radial grid of dG=0.02 with 432 points.
  Core radius for overlap checks: 1.35 bohrs.
  Reading pulay file /home/gridsan/aligho/DFT/build-Nov24/pseudopotentials/SG15/N_ONCV_PBE.pulay ... using dE_dnG = -2.956256e-02 computed for Ecut = 20.

Reading pseudopotential file '/home/gridsan/aligho/DFT/build-Nov24/pseudopotentials/SG15/B_ONCV_PBE.upf':
  'B' pseudopotential, 'PBE' functional
  Generated using ONCVPSP code by D. R. Hamann
  Author: Martin Schlipf and Francois Gygi  Date: 150915.
  3 valence electrons, 2 orbitals, 4 projectors, 1534 radial grid points, with lMax = 1
  Transforming local potential to a uniform radial grid of dG=0.02 with 1514 points.
  Transforming nonlocal projectors to a uniform radial grid of dG=0.02 with 432 points.
    2S    l: 0   occupation:  2.0   eigenvalue: -0.347027
    2P    l: 1   occupation:  1.0   eigenvalue: -0.132548
  Transforming atomic orbitals to a uniform radial grid of dG=0.02 with 432 points.
  Core radius for overlap checks: 1.60 bohrs.
  Reading pulay file /home/gridsan/aligho/DFT/build-Nov24/pseudopotentials/SG15/B_ONCV_PBE.pulay ... using dE_dnG = -3.748568e-04 computed for Ecut = 20.

Reading pseudopotential file '/home/gridsan/aligho/DFT/build-Nov24/pseudopotentials/SG15/Na_ONCV_PBE.upf':
  'Na' pseudopotential, 'PBE' functional
  Generated using ONCVPSP code by D. R. Hamann
  Author: Martin Schlipf and Francois Gygi  Date: 150915.
  9 valence electrons, 3 orbitals, 4 projectors, 1992 radial grid points, with lMax = 1
  Transforming local potential to a uniform radial grid of dG=0.02 with 1514 points.
  Transforming nonlocal projectors to a uniform radial grid of dG=0.02 with 432 points.
    2S    l: 0   occupation:  2.0   eigenvalue: -2.085640
    2P    l: 1   occupation:  6.0   eigenvalue: -1.053708
    3S    l: 0   occupation:  1.0   eigenvalue: -0.100838
  Transforming atomic orbitals to a uniform radial grid of dG=0.02 with 432 points.
  Core radius for overlap checks: 2.01 bohrs.
  Reading pulay file /home/gridsan/aligho/DFT/build-Nov24/pseudopotentials/SG15/Na_ONCV_PBE.pulay ... using dE_dnG = -2.946487e-03 computed for Ecut = 20.

Initialized 3 species with 29 total atoms.

Folded 1 k-points by 12x12x1 to 144 k-points.

---------- Setting up k-points, bands, fillings ----------
Adding inversion symmetry to k-mesh for non-inversion-symmetric unit cell.
Reduced to 19 k-points under symmetry. 
Computing the number of bands and number of electrons
Calculating initial fillings.
nElectrons: 121.000000   nBands: 117   nStates: 38

----- Setting up reduced wavefunction bases (one per k-point) -----
average nbasis = 23151.771 , ideal nbasis = 23152.016

---------- Setting up coulomb interaction ----------
Initialized slab truncation along lattice direction 001

Initializing DFT-D3 calculator:
	Parameters set for gga-PBE functional
	s6:  1.000  s_r6:  1.217
	s8:  0.722  s_r8:  1.000
	Per-atom parameters loaded for:
	 N:  sqrtQ[a0]:  2.712  Rcov[a0]:  1.342  CN: [ 0.00 0.99 2.01 2.99 ]
	 B:  sqrtQ[a0]:  3.644  Rcov[a0]:  1.455  CN: [ 0.00 0.97 1.94 2.91 4.59 ]
	Na:  sqrtQ[a0]:  6.586  Rcov[a0]:  2.646  CN: [ 0.00 0.97 ]

---------- Setting up 2D ewald sum ----------
Optimum gaussian width for ewald sums = 6.943804 bohr.
Real space sums over 289 unit cells with max indices [  8  8  0  ]
Reciprocal space sums over 81 terms with max indices [  4  4  0  ]

Computing DFT-D3 correction:
# coordination-number N 3.164 3.164 3.819 3.164 3.819 3.146 3.146 3.819 3.164 3.819 3.819 3.164 3.164 3.819
# coordination-number B 4.116 3.378 3.378 3.378 3.378 4.116 4.116 4.116 3.378 3.378 4.116 4.116 3.352 3.352
# coordination-number Na 9.170
# diagonal-C6 N 15.60 15.60 15.58 15.60 15.58 15.61 15.61 15.58 15.60 15.58 15.58 15.60 15.60 15.58
# diagonal-C6 B 28.06 31.43 31.43 31.43 31.43 28.06 28.06 28.06 31.43 31.43 28.06 28.06 31.44 31.44
# diagonal-C6 Na 186.11
EvdW_6 =   -0.035557
EvdW_8 =   -0.030012

---------- Allocating electronic variables ----------
Initializing wave functions:  linear combination of atomic orbitals
N pseudo-atom occupations:   s ( 2 )  p ( 3 )
[d-19-2-3:41427] 18 more processes have sent help message help-mpi-common-cuda.txt / dlopen failed
[d-19-2-3:41427] Set MCA parameter "orte_base_help_aggregate" to 0 to see all help / error messages
[d-19-2-3:41427] 18 more processes have sent help message help-mpi-btl-openib-cpc-base.txt / no cpcs for port
B pseudo-atom occupations:   s ( 2 )  p ( 1 )
Na pseudo-atom occupations:   s ( 2 1 )  p ( 6 )
	FillingsUpdate:  mu: -0.179401462  nElectrons: 121.000000  magneticMoment: [ Abs: 0.12370  Tot: +0.11111 ]
LCAOMinimize: Iter:   0  F: -219.8032176670278091  |grad|_K:  3.328e-03  alpha:  1.000e+00
	FillingsUpdate:  mu: -0.161945940  nElectrons: 121.000000  magneticMoment: [ Abs: 0.13307  Tot: +0.11111 ]
LCAOMinimize: Iter:   1  F: -220.8745275226632145  |grad|_K:  3.657e-04  alpha:  4.391e-01  linmin:  5.721e-01  cgtest: -1.083e+00  t[s]:     49.87
LCAOMinimize: 	Bad step direction: g.d > 0.
LCAOMinimize: 	Undoing step.
LCAOMinimize: 	Step failed: resetting search direction.
	FillingsUpdate:  mu: -0.161945940  nElectrons: 121.000000  magneticMoment: [ Abs: 0.13307  Tot: +0.11111 ]
LCAOMinimize: Iter:   2  F: -220.8745275226632145  |grad|_K:  3.657e-04  alpha:  0.000e+00
	FillingsUpdate:  mu: -0.167025296  nElectrons: 121.000000  magneticMoment: [ Abs: 0.14050  Tot: +0.11111 ]
LCAOMinimize: Iter:   3  F: -220.8892400013692168  |grad|_K:  9.098e-06  alpha:  4.154e-01  linmin:  1.349e-01  cgtest: -3.854e-01  t[s]:     75.28
	FillingsUpdate:  mu: -0.167544114  nElectrons: 121.000000  magneticMoment: [ Abs: 0.14652  Tot: +0.11111 ]
LCAOMinimize: Iter:   4  F: -220.8892503239021892  |grad|_K:  4.962e-06  alpha:  5.551e-01  linmin: -3.140e-04  cgtest:  3.105e-01  t[s]:     90.07
	FillingsUpdate:  mu: -0.167538452  nElectrons: 121.000000  magneticMoment: [ Abs: 0.15030  Tot: +0.11111 ]
LCAOMinimize: Iter:   5  F: -220.8892532393807357  |grad|_K:  1.225e-06  alpha:  4.475e-01  linmin:  2.146e-05  cgtest: -3.027e-02  t[s]:    104.87
	FillingsUpdate:  mu: -0.167478318  nElectrons: 121.000000  magneticMoment: [ Abs: 0.15463  Tot: +0.11111 ]
LCAOMinimize: Iter:   6  F: -220.8892535563700505  |grad|_K:  3.978e-07  alpha:  7.996e-01  linmin:  5.076e-04  cgtest: -2.669e-03  t[s]:    119.61
	FillingsUpdate:  mu: -0.167495114  nElectrons: 121.000000  magneticMoment: [ Abs: 0.15635  Tot: +0.11111 ]
LCAOMinimize: Iter:   7  F: -220.8892535821577496  |grad|_K:  2.112e-07  alpha:  6.159e-01  linmin: -4.940e-04  cgtest:  4.161e-03  t[s]:    134.42
LCAOMinimize: Converged (|Delta F|<1.000000e-06 for 2 iters).


---- Citations for features of the code used in this run ----

   Software package:
      R. Sundararaman, K. Letchworth-Weaver, K.A. Schwarz, D. Gunceler, Y. Ozhabes and T.A. Arias, 'JDFTx: software for joint density-functional theory', SoftwareX 6, 278 (2017)

   gga-PBE exchange-correlation functional:
      J.P. Perdew, K. Burke and M. Ernzerhof, Phys. Rev. Lett. 77, 3865 (1996)

   Pseudopotentials:
      M Schlipf and F Gygi, Comput. Phys. Commun. 196, 36 (2015)

   Truncated Coulomb potentials:
      R. Sundararaman and T.A. Arias, Phys. Rev. B 87, 165122 (2013)

   DFT-D3 dispersion correction:
      S. Grimme, J. Antony, S. Ehrlich and H. Krieg, J. Chem. Phys. 132, 154104 (2010)

This list may not be complete. Please suggest additional citations or
report any other bugs at https://github.com/shankar1729/jdftx/issues

Initialization completed successfully at t[s]:    136.60


Computing DFT-D3 correction:
# coordination-number N 3.164 3.164 3.819 3.164 3.819 3.146 3.146 3.819 3.164 3.819 3.819 3.164 3.164 3.819
# coordination-number B 4.116 3.378 3.378 3.378 3.378 4.116 4.116 4.116 3.378 3.378 4.116 4.116 3.352 3.352
# coordination-number Na 9.170
# diagonal-C6 N 15.60 15.60 15.58 15.60 15.58 15.61 15.61 15.58 15.60 15.58 15.58 15.60 15.60 15.58
# diagonal-C6 B 28.06 31.43 31.43 31.43 31.43 28.06 28.06 28.06 31.43 31.43 28.06 28.06 31.44 31.44
# diagonal-C6 Na 186.11
EvdW_6 =   -0.035557
EvdW_8 =   -0.030012

-------- Electronic minimization -----------
Will mix electronic density at each iteration.
	FillingsUpdate:  mu: -0.167495114  nElectrons: 121.000000  magneticMoment: [ Abs: 0.15635  Tot: +0.11111 ]
	FillingsUpdate:  mu: -0.181595060  nElectrons: 121.000000  magneticMoment: [ Abs: 0.15635  Tot: +0.11111 ]
SCF: Cycle:  0   F: -222.181846203877939   dF: -1.293e+00   |Residual|: 3.879e-01   |deigs|: 1.075e-01  t[s]:    186.18
	FillingsUpdate:  mu: -0.165761892  nElectrons: 121.000000  magneticMoment: [ Abs: 0.28669  Tot: +0.11962 ]
SCF: Cycle:  1   F: -222.241379687653335   dF: -5.953e-02   |Residual|: 2.148e-01   |deigs|: 1.847e-02  t[s]:    224.21
	FillingsUpdate:  mu: -0.149943467  nElectrons: 121.000000  magneticMoment: [ Abs: 0.95454  Tot: +0.16832 ]
SCF: Cycle:  2   F: -222.272143734170271   dF: -3.076e-02   |Residual|: 5.206e-02   |deigs|: 2.345e-02  t[s]:    262.47
	FillingsUpdate:  mu: -0.146514787  nElectrons: 121.000000  magneticMoment: [ Abs: 0.52472  Tot: +0.16994 ]
SCF: Cycle:  3   F: -222.276255590862291   dF: -4.112e-03   |Residual|: 3.352e-02   |deigs|: 3.026e-03  t[s]:    300.59
	FillingsUpdate:  mu: -0.140442137  nElectrons: 121.000000  magneticMoment: [ Abs: 0.29056  Tot: +0.17749 ]
SCF: Cycle:  4   F: -222.284614058491854   dF: -8.358e-03   |Residual|: 2.031e-02   |deigs|: 5.704e-03  t[s]:    338.48
	FillingsUpdate:  mu: -0.134678789  nElectrons: 121.000000  magneticMoment: [ Abs: 0.25484  Tot: +0.19766 ]
SCF: Cycle:  5   F: -222.288689074385900   dF: -4.075e-03   |Residual|: 2.275e-02   |deigs|: 5.690e-03  t[s]:    376.64
	FillingsUpdate:  mu: -0.130110296  nElectrons: 121.000000  magneticMoment: [ Abs: 0.37740  Tot: +0.22876 ]
SCF: Cycle:  6   F: -222.290204431467487   dF: -1.515e-03   |Residual|: 1.740e-02   |deigs|: 5.137e-03  t[s]:    414.96
	FillingsUpdate:  mu: -0.119489201  nElectrons: 121.000000  magneticMoment: [ Abs: 0.51641  Tot: +0.29794 ]
SCF: Cycle:  7   F: -222.291781469937661   dF: -1.577e-03   |Residual|: 1.135e-02   |deigs|: 1.074e-02  t[s]:    453.10
	FillingsUpdate:  mu: -0.110260963  nElectrons: 121.000000  magneticMoment: [ Abs: 0.51910  Tot: +0.35555 ]
SCF: Cycle:  8   F: -222.291517352722934   dF: +2.641e-04   |Residual|: 9.239e-03   |deigs|: 9.879e-03  t[s]:    491.63
	FillingsUpdate:  mu: -0.100208349  nElectrons: 121.000000  magneticMoment: [ Abs: 0.56299  Tot: +0.42016 ]
SCF: Cycle:  9   F: -222.291806294037116   dF: -2.889e-04   |Residual|: 7.244e-03   |deigs|: 1.102e-02  t[s]:    529.80
	FillingsUpdate:  mu: -0.092872018  nElectrons: 121.000000  magneticMoment: [ Abs: 0.58671  Tot: +0.46000 ]
SCF: Cycle: 10   F: -222.292370165759223   dF: -5.639e-04   |Residual|: 5.669e-03   |deigs|: 7.408e-03  t[s]:    568.10
	FillingsUpdate:  mu: -0.087565153  nElectrons: 121.000000  magneticMoment: [ Abs: 0.58370  Tot: +0.47678 ]
SCF: Cycle: 11   F: -222.293113898180025   dF: -7.437e-04   |Residual|: 5.424e-03   |deigs|: 4.480e-03  t[s]:    606.48
	FillingsUpdate:  mu: -0.082075635  nElectrons: 121.000000  magneticMoment: [ Abs: 0.60641  Tot: +0.49191 ]
SCF: Cycle: 12   F: -222.293830091312088   dF: -7.162e-04   |Residual|: 5.002e-03   |deigs|: 4.882e-03  t[s]:    644.70
	FillingsUpdate:  mu: -0.074891293  nElectrons: 121.000000  magneticMoment: [ Abs: 0.59161  Tot: +0.50949 ]
SCF: Cycle: 13   F: -222.294680530016848   dF: -8.504e-04   |Residual|: 4.281e-03   |deigs|: 6.261e-03  t[s]:    683.25
	FillingsUpdate:  mu: -0.074454583  nElectrons: 121.000000  magneticMoment: [ Abs: 0.56120  Tot: +0.49347 ]
SCF: Cycle: 14   F: -222.294931425304753   dF: -2.509e-04   |Residual|: 3.786e-03   |deigs|: 1.585e-03  t[s]:    721.99
	FillingsUpdate:  mu: -0.071544268  nElectrons: 121.000000  magneticMoment: [ Abs: 0.55838  Tot: +0.49352 ]
SCF: Cycle: 15   F: -222.295067059901982   dF: -1.356e-04   |Residual|: 3.484e-03   |deigs|: 2.553e-03  t[s]:    760.47
	FillingsUpdate:  mu: -0.070627979  nElectrons: 121.000000  magneticMoment: [ Abs: 0.55439  Tot: +0.49083 ]
SCF: Cycle: 16   F: -222.295084531774648   dF: -1.747e-05   |Residual|: 2.430e-03   |deigs|: 1.213e-03  t[s]:    799.08
	FillingsUpdate:  mu: -0.069220659  nElectrons: 121.000000  magneticMoment: [ Abs: 0.55363  Tot: +0.49143 ]
SCF: Cycle: 17   F: -222.295094547403608   dF: -1.002e-05   |Residual|: 1.291e-03   |deigs|: 1.505e-03  t[s]:    837.64
	FillingsUpdate:  mu: -0.068477517  nElectrons: 121.000000  magneticMoment: [ Abs: 0.55020  Tot: +0.49093 ]
SCF: Cycle: 18   F: -222.295097570858417   dF: -3.023e-06   |Residual|: 6.907e-04   |deigs|: 9.635e-04  t[s]:    876.11
	FillingsUpdate:  mu: -0.068246031  nElectrons: 121.000000  magneticMoment: [ Abs: 0.55118  Tot: +0.49037 ]
SCF: Cycle: 19   F: -222.295098610108965   dF: -1.039e-06   |Residual|: 4.640e-04   |deigs|: 5.815e-04  t[s]:    914.34
	FillingsUpdate:  mu: -0.068006795  nElectrons: 121.000000  magneticMoment: [ Abs: 0.55243  Tot: +0.49033 ]
SCF: Cycle: 20   F: -222.295098979696661   dF: -3.696e-07   |Residual|: 2.844e-04   |deigs|: 2.998e-04  t[s]:    953.13
	FillingsUpdate:  mu: -0.067891504  nElectrons: 121.000000  magneticMoment: [ Abs: 0.55274  Tot: +0.48933 ]
SCF: Cycle: 21   F: -222.295098944019202   dF: +3.568e-08   |Residual|: 2.227e-04   |deigs|: 2.184e-04  t[s]:    991.45
	FillingsUpdate:  mu: -0.067743319  nElectrons: 121.000000  magneticMoment: [ Abs: 0.55250  Tot: +0.48847 ]
SCF: Cycle: 22   F: -222.295099062862619   dF: -1.188e-07   |Residual|: 2.040e-04   |deigs|: 3.544e-04  t[s]:   1029.83
	FillingsUpdate:  mu: -0.067470924  nElectrons: 121.000000  magneticMoment: [ Abs: 0.55214  Tot: +0.48747 ]
SCF: Cycle: 23   F: -222.295099287316361   dF: -2.245e-07   |Residual|: 1.745e-04   |deigs|: 5.366e-04  t[s]:   1068.32
	FillingsUpdate:  mu: -0.067298151  nElectrons: 121.000000  magneticMoment: [ Abs: 0.55095  Tot: +0.48696 ]
SCF: Cycle: 24   F: -222.295099464456513   dF: -1.771e-07   |Residual|: 1.215e-04   |deigs|: 4.519e-04  t[s]:   1107.02
	FillingsUpdate:  mu: -0.067198052  nElectrons: 121.000000  magneticMoment: [ Abs: 0.54966  Tot: +0.48668 ]
SCF: Cycle: 25   F: -222.295099505046522   dF: -4.059e-08   |Residual|: 7.146e-05   |deigs|: 3.466e-04  t[s]:   1145.62
	FillingsUpdate:  mu: -0.067157329  nElectrons: 121.000000  magneticMoment: [ Abs: 0.54893  Tot: +0.48637 ]
SCF: Cycle: 26   F: -222.295099515355787   dF: -1.031e-08   |Residual|: 4.059e-05   |deigs|: 3.647e-04  t[s]:   1183.98
	FillingsUpdate:  mu: -0.067154470  nElectrons: 121.000000  magneticMoment: [ Abs: 0.54859  Tot: +0.48622 ]
SCF: Cycle: 27   F: -222.295099523283454   dF: -7.928e-09   |Residual|: 2.425e-05   |deigs|: 2.076e-04  t[s]:   1222.15
	FillingsUpdate:  mu: -0.067163522  nElectrons: 121.000000  magneticMoment: [ Abs: 0.54841  Tot: +0.48616 ]
SCF: Cycle: 28   F: -222.295099520903534   dF: +2.380e-09   |Residual|: 1.752e-05   |deigs|: 9.713e-05  t[s]:   1260.43
	FillingsUpdate:  mu: -0.067179234  nElectrons: 121.000000  magneticMoment: [ Abs: 0.54826  Tot: +0.48612 ]
SCF: Cycle: 29   F: -222.295099531724560   dF: -1.082e-08   |Residual|: 1.106e-05   |deigs|: 1.559e-04  t[s]:   1298.90
	FillingsUpdate:  mu: -0.067190033  nElectrons: 121.000000  magneticMoment: [ Abs: 0.54818  Tot: +0.48611 ]
SCF: Cycle: 30   F: -222.295099535067465   dF: -3.343e-09   |Residual|: 9.745e-06   |deigs|: 4.693e-04  t[s]:   1337.40
	FillingsUpdate:  mu: -0.067199191  nElectrons: 121.000000  magneticMoment: [ Abs: 0.54812  Tot: +0.48612 ]
SCF: Cycle: 31   F: -222.295099537474528   dF: -2.407e-09   |Residual|: 6.877e-06   |deigs|: 3.268e-04  t[s]:   1375.88
SCF: Converged (|Delta E|<1.000000e-08 for 2 iters).


Computing DFT-D3 correction:
# coordination-number N 3.164 3.164 3.819 3.164 3.819 3.146 3.146 3.819 3.164 3.819 3.819 3.164 3.164 3.819
# coordination-number B 4.116 3.378 3.378 3.378 3.378 4.116 4.116 4.116 3.378 3.378 4.116 4.116 3.352 3.352
# coordination-number Na 9.170
# diagonal-C6 N 15.60 15.60 15.58 15.60 15.58 15.61 15.61 15.58 15.60 15.58 15.58 15.60 15.60 15.58
# diagonal-C6 B 28.06 31.43 31.43 31.43 31.43 28.06 28.06 28.06 31.43 31.43 28.06 28.06 31.44 31.44
# diagonal-C6 Na 186.11
EvdW_6 =   -0.035557
EvdW_8 =   -0.030012

# Ionic positions in lattice coordinates:
ion N   0.952380952379803   0.761904761902463   0.000000000000000 0
ion N   1.428571428570279   1.285714285711987   0.214000000000000 0
ion N   0.380952380951232   0.904761904759606   0.000000000000000 0
ion N   0.714285714284565   1.142857142854844   0.214000000000000 0
ion N   0.523809523808374   0.619047619045320   0.000000000000000 0
ion N   0.999999999998850   0.999999999997701   0.214000000000000 0
ion N   0.666666666665517   0.333333333331034   0.000000000000000 0
ion N   1.285714285713136   0.857142857140558   0.214000000000000 0
ion N   0.809523809522660   0.047619047616749   0.000000000000000 0
ion N   1.571428571427422   0.714285714283415   0.214000000000000 0
ion N   0.095238095236946   0.476190476188177   0.000000000000000 0
ion N   0.238095238094089   0.190476190473892   0.000000000000000 0
ion N   0.857142857141708   0.571428571426273   0.214000000000000 0
ion N   1.142857142855993   0.428571428569130   0.214000000000000 0
ion B   0.571428571427422   0.857142857140558   0.000000000000000 0
ion B   0.952380952379803   1.190476190473892   0.214000000000000 0
ion B   0.714285714284565   0.571428571426273   0.000000000000000 0
ion B   1.238095238094089   1.047619047616749   0.214000000000000 0
ion B   0.857142857141708   0.285714285711987   0.000000000000000 0
ion B   1.523809523808374   0.904761904759606   0.214000000000000 0
ion B   0.142857142855993   0.714285714283415   0.000000000000000 0
ion B   0.285714285713136   0.428571428569130   0.000000000000000 0
ion B   0.809523809522660   0.761904761902463   0.214000000000000 0
ion B   0.428571428570279   0.142857142854844   0.000000000000000 0
ion B   1.095238095236946   0.619047619045320   0.214000000000000 0
ion B   1.380952380951231   0.476190476188177   0.214000000000000 0
ion B  -0.000000000001149  -0.000000000002299   0.000000000000000 0
ion B   0.666666666665517   0.333333333331034   0.214000000000000 0
ion Na   0.333333333332184   0.666666666664368   0.107000000000000 0

# Forces in Lattice coordinates:
force N   0.005599104591934  -0.011012788688239   0.004869134278650 0
force N  -0.011012788688239   0.005599104591935  -0.004869134278650 0
force N  -0.004139435656603  -0.031698309403160   0.104158464516414 0
force N   0.005413684096305  -0.011012788688240  -0.004869134278650 0
force N  -0.031698309403160   0.035837745059765   0.104158464516528 0
force N   0.000000000000000   0.000000000000000  -0.043776175557241 0
force N   0.000000000000000   0.000000000000000   0.043776175557468 0
force N   0.035837745059766  -0.031698309403160  -0.104158464516414 0
force N  -0.011012788688239   0.005413684096304   0.004869134278650 0
force N  -0.031698309403162  -0.004139435656603  -0.104158464516528 0
force N   0.035837745059765  -0.004139435656603   0.104158464516414 0
force N   0.005413684096305   0.005599104591935   0.004869134278650 0
force N   0.005599104591934   0.005413684096304  -0.004869134278650 0
force N  -0.004139435656603   0.035837745059765  -0.104158464516528 0
force B   0.089069620801191   0.040858642923823  -0.267194713580172 0
force B  -0.021892016807417  -0.040624660634237   0.022954914272184 0
force B   0.062516677441654  -0.040624660634237  -0.022954914272184 0
force B  -0.040624660634237   0.062516677441654   0.022954914272241 0
force B  -0.040624660634237  -0.021892016807417  -0.022954914272184 0
force B   0.040858642923823   0.089069620801190   0.267194713580172 0
force B  -0.129928263725014   0.089069620801190  -0.267194713580172 0
force B   0.040858642923823  -0.129928263725014  -0.267194713580172 0
force B   0.062516677441654  -0.021892016807417   0.022954914272184 0
force B  -0.021892016807417   0.062516677441654  -0.022954914272241 0
force B  -0.129928263725014   0.040858642923823   0.267194713580172 0
force B   0.089069620801190  -0.129928263725014   0.267194713580172 0
force B   0.000000000000000   0.000000000000000  -0.034673693206576 0
force B   0.000000000000000   0.000000000000000   0.034673693206463 0
force Na   0.000000000000000   0.000000000000000   0.000000000000000 0

# Energy components:
   Eewald =    -1739.3882667311161185
       EH =    -1566.1103283511786231
     Eloc =     3013.2939939359644086
      Enl =      -21.3286701597017228
   Epulay =       -0.0000190610708103
     EvdW =       -0.0655687490051174
      Exc =      -57.8624937229623129
       KE =      149.1662540009320139
-------------------------------------
     Etot =     -222.2950988381383297
       TS =        0.0000006993361902
-------------------------------------
        F =     -222.2950995374745276

IonicMinimize: Iter:   0  F: -222.295099537474528  |grad|_K:  0.000e+00  t[s]:   1379.83
IonicMinimize: Converged (|grad|_K<1.000000e-04).

#--- Lowdin population analysis ---
# oxidation-state N -0.367 -0.367 -0.382 -0.367 -0.382 -0.370 -0.370 -0.382 -0.367 -0.382 -0.382 -0.367 -0.367 -0.382
# magnetic-moments N -0.004 -0.004 -0.002 -0.004 -0.002 +0.001 +0.001 -0.002 -0.004 -0.002 -0.002 -0.004 -0.004 -0.002
# oxidation-state B +0.376 +0.441 +0.441 +0.441 +0.441 +0.376 +0.376 +0.376 +0.441 +0.441 +0.376 +0.376 +0.443 +0.443
# magnetic-moments B +0.042 +0.015 +0.015 +0.015 +0.015 +0.042 +0.042 +0.042 +0.015 +0.015 +0.042 +0.042 +0.009 +0.009
# oxidation-state Na +0.453
# magnetic-moments Na +0.120


Dumping 'Na-0.214.fillings' ... done
Dumping 'Na-0.214.wfns' ... done
Dumping 'Na-0.214.n_up' ... done
Dumping 'Na-0.214.n_dn' ... done
Dumping 'Na-0.214.eigenvals' ... done
End date and time: Wed Jan 19 20:29:02 2022  (Duration: 0-0:23:13.00)
Done!
