Second Layer Distance is 0.238

--------------------------------------------------------------------------
The library attempted to open the following supporting CUDA libraries,
but each of them failed.  CUDA-aware support is disabled.
libcuda.so.1: cannot open shared object file: No such file or directory
libcuda.dylib: cannot open shared object file: No such file or directory
/usr/lib64/libcuda.so.1: cannot open shared object file: No such file or directory
/usr/lib64/libcuda.dylib: cannot open shared object file: No such file or directory
If you are not interested in CUDA-aware support, then run with
--mca opal_warn_on_missing_libcuda 0 to suppress this message.  If you are interested
in CUDA-aware support, then try setting LD_LIBRARY_PATH to the location
of libcuda.so.1 to get passed this issue.
--------------------------------------------------------------------------
--------------------------------------------------------------------------
No OpenFabrics connection schemes reported that they were able to be
used on a specific port.  As such, the openib BTL (OpenFabrics
support) will be disabled for this port.

  Local host:           d-16-6-3
  Local device:         mlx5_1
  Local port:           1
  CPCs attempted:       rdmacm, udcm
--------------------------------------------------------------------------

*************** JDFTx 1.6.0 (git hash 42ebbcc2) ***************

Start date and time: Wed Jan 19 20:21:38 2022
Executable jdftx with command-line: -i Moire.in
Running on hosts (process indices):  d-16-6-3 (0-18)
Divided in process groups (process indices):  0 (0)  1 (1)  2 (2)  3 (3)  4 (4)  5 (5)  6 (6)  7 (7)  8 (8)  9 (9)  10 (10)  11 (11)  12 (12)  13 (13)  14 (14)  15 (15)  16 (16)  17 (17)  18 (18)
Resource initialization completed at t[s]:      0.00
Run totals: 19 processes, 48 threads, 0 GPUs


Input parsed successfully to the following command list (including defaults):

basis kpoint-dependent
coords-type Lattice
core-overlap-check vector
coulomb-interaction Slab 001
davidson-band-ratio 1.1
dump End State ElecDensity BandEigs
dump-name Na-0.238.$VAR
elec-cutoff 20
elec-eigen-algo Davidson
elec-ex-corr gga-PBE
elec-initial-magnetization 0.100000 no
elec-smearing Fermi 1e-05
electronic-minimize  \
	dirUpdateScheme      FletcherReeves \
	linminMethod         DirUpdateRecommended \
	nIterations          100 \
	history              15 \
	knormThreshold       0 \
	energyDiffThreshold  1e-08 \
	nEnergyDiff          2 \
	alphaTstart          1 \
	alphaTmin            1e-10 \
	updateTestStepSize   yes \
	alphaTreduceFactor   0.1 \
	alphaTincreaseFactor 3 \
	nAlphaAdjustMax      3 \
	wolfeEnergy          0.0001 \
	wolfeGradient        0.9 \
	fdTest               no
electronic-scf  \
	nIterations	1000 \
	energyDiffThreshold	1e-08 \
	residualThreshold	1e-07 \
	mixFraction	0.5 \
	qMetric	0.8 \
	history	10 \
	nEigSteps	2 \
	eigDiffThreshold	1e-08 \
	mixedVariable	Density \
	qKerker	0.8 \
	qKappa	-1 \
	verbose	no \
	mixFractionMag	1.5
exchange-regularization WignerSeitzTruncated
fluid None
fluid-ex-corr (null) lda-PZ
fluid-gummel-loop 10 1.000000e-05
fluid-minimize  \
	dirUpdateScheme      PolakRibiere \
	linminMethod         DirUpdateRecommended \
	nIterations          100 \
	history              15 \
	knormThreshold       0 \
	energyDiffThreshold  0 \
	nEnergyDiff          2 \
	alphaTstart          1 \
	alphaTmin            1e-10 \
	updateTestStepSize   yes \
	alphaTreduceFactor   0.1 \
	alphaTincreaseFactor 3 \
	nAlphaAdjustMax      3 \
	wolfeEnergy          0.0001 \
	wolfeGradient        0.9 \
	fdTest               no
fluid-solvent H2O 55.338 ScalarEOS \
	epsBulk 78.4 \
	pMol 0.92466 \
	epsInf 1.77 \
	Pvap 1.06736e-10 \
	sigmaBulk 4.62e-05 \
	Rvdw 2.61727 \
	Res 1.42 \
	tauNuc 343133 \
	poleEl 15 7 1
forces-output-coords Positions
ion N   0.952380952380952   0.761904761904762   0.000000000000000 0
ion N   1.428571428571428   1.285714285714286   0.238000000000000 0
ion N   0.380952380952381   0.904761904761905   0.000000000000000 0
ion N   0.714285714285714   1.142857142857143   0.238000000000000 0
ion N   0.523809523809524   0.619047619047619   0.000000000000000 0
ion N   1.000000000000000   1.000000000000000   0.238000000000000 0
ion N   0.666666666666667   0.333333333333333   0.000000000000000 0
ion N   1.285714285714286   0.857142857142857   0.238000000000000 0
ion N   0.809523809523810   0.047619047619048   0.000000000000000 0
ion N   1.571428571428571   0.714285714285714   0.238000000000000 0
ion N   0.095238095238095   0.476190476190476   0.000000000000000 0
ion N   0.238095238095238   0.190476190476190   0.000000000000000 0
ion N   0.857142857142857   0.571428571428571   0.238000000000000 0
ion N   1.142857142857143   0.428571428571429   0.238000000000000 0
ion B   0.571428571428572   0.857142857142857   0.000000000000000 0
ion B   0.952380952380952   1.190476190476190   0.238000000000000 0
ion B   0.714285714285714   0.571428571428571   0.000000000000000 0
ion B   1.238095238095238   1.047619047619047   0.238000000000000 0
ion B   0.857142857142857   0.285714285714286   0.000000000000000 0
ion B   1.523809523809524   0.904761904761905   0.238000000000000 0
ion B   0.142857142857143   0.714285714285714   0.000000000000000 0
ion B   0.285714285714286   0.428571428571429   0.000000000000000 0
ion B   0.809523809523810   0.761904761904762   0.238000000000000 0
ion B   0.428571428571429   0.142857142857143   0.000000000000000 0
ion B   1.095238095238095   0.619047619047619   0.238000000000000 0
ion B   1.380952380952381   0.476190476190476   0.238000000000000 0
ion B   0.000000000000000   0.000000000000000   0.000000000000000 0
ion B   0.666666666666667   0.333333333333333   0.238000000000000 0
ion Na   0.333333333300000   0.666666666600000   0.119000000000000 0
ion-species SG15/$ID_ONCV_PBE.upf
ion-width 0
ionic-minimize  \
	dirUpdateScheme      L-BFGS \
	linminMethod         DirUpdateRecommended \
	nIterations          0 \
	history              15 \
	knormThreshold       0.0001 \
	energyDiffThreshold  1e-06 \
	nEnergyDiff          2 \
	alphaTstart          1 \
	alphaTmin            1e-10 \
	updateTestStepSize   yes \
	alphaTreduceFactor   0.1 \
	alphaTincreaseFactor 3 \
	nAlphaAdjustMax      3 \
	wolfeEnergy          0.0001 \
	wolfeGradient        0.9 \
	fdTest               no
kpoint   0.000000000000   0.000000000000   0.000000000000  1.00000000000000
kpoint-folding 12 12 1 
latt-move-scale 1 1 1
latt-scale 1 1 1 
lattice  \
	 -11.818700000000000    2.363740000000000    0.000000000000000  \
	   4.094120000000000  -12.282400000000001    0.000000000000000  \
	   0.000000000000000    0.000000000000000   40.000000000000000 
lattice-minimize  \
	dirUpdateScheme      L-BFGS \
	linminMethod         DirUpdateRecommended \
	nIterations          0 \
	history              15 \
	knormThreshold       0 \
	energyDiffThreshold  1e-06 \
	nEnergyDiff          2 \
	alphaTstart          1 \
	alphaTmin            1e-10 \
	updateTestStepSize   yes \
	alphaTreduceFactor   0.1 \
	alphaTincreaseFactor 3 \
	nAlphaAdjustMax      3 \
	wolfeEnergy          0.0001 \
	wolfeGradient        0.9 \
	fdTest               no
lcao-params -1 1e-06 1e-05
pcm-variant GLSSA13
spintype z-spin
subspace-rotation-factor 1 yes
symmetries automatic
symmetry-threshold 0.0001
van-der-waals D3



---------- Setting up symmetries ----------

Found 24 point-group symmetries of the bravais lattice
Found 6 space-group symmetries with basis
Applied RMS atom displacement 1.31765e-10 bohrs to make symmetries exact.

---------- Initializing the Grid ----------
R = 
[     -11.8187      2.36374            0  ]
[      4.09412     -12.2824            0  ]
[            0            0           40  ]
unit cell volume = 5419.38
G =
[  -0.569604   -0.10962          0  ]
[  -0.189867    -0.5481          0  ]
[          0          0    0.15708  ]
Minimum fftbox size, Smin = [  52  52  164  ]
Chosen fftbox size, S = [  54  54  168  ]

---------- Exchange Correlation functional ----------
Initalized PBE GGA exchange.
Initalized PBE GGA correlation.

---------- Setting up pseudopotentials ----------
Width of ionic core gaussian charges (only for fluid interactions / plotting) set to 0

Reading pseudopotential file '/home/gridsan/aligho/DFT/build-Nov24/pseudopotentials/SG15/N_ONCV_PBE.upf':
  'N' pseudopotential, 'PBE' functional
  Generated using ONCVPSP code by D. R. Hamann
  Author: Martin Schlipf and Francois Gygi  Date: 150915.
  5 valence electrons, 2 orbitals, 4 projectors, 1058 radial grid points, with lMax = 1
  Transforming local potential to a uniform radial grid of dG=0.02 with 1514 points.
  Transforming nonlocal projectors to a uniform radial grid of dG=0.02 with 432 points.
    2S    l: 0   occupation:  2.0   eigenvalue: -0.682907
    2P    l: 1   occupation:  3.0   eigenvalue: -0.260548
  Transforming atomic orbitals to a uniform radial grid of dG=0.02 with 432 points.
  Core radius for overlap checks: 1.35 bohrs.
  Reading pulay file /home/gridsan/aligho/DFT/build-Nov24/pseudopotentials/SG15/N_ONCV_PBE.pulay ... using dE_dnG = -2.956256e-02 computed for Ecut = 20.

Reading pseudopotential file '/home/gridsan/aligho/DFT/build-Nov24/pseudopotentials/SG15/B_ONCV_PBE.upf':
  'B' pseudopotential, 'PBE' functional
  Generated using ONCVPSP code by D. R. Hamann
  Author: Martin Schlipf and Francois Gygi  Date: 150915.
  3 valence electrons, 2 orbitals, 4 projectors, 1534 radial grid points, with lMax = 1
  Transforming local potential to a uniform radial grid of dG=0.02 with 1514 points.
  Transforming nonlocal projectors to a uniform radial grid of dG=0.02 with 432 points.
    2S    l: 0   occupation:  2.0   eigenvalue: -0.347027
    2P    l: 1   occupation:  1.0   eigenvalue: -0.132548
  Transforming atomic orbitals to a uniform radial grid of dG=0.02 with 432 points.
  Core radius for overlap checks: 1.60 bohrs.
  Reading pulay file /home/gridsan/aligho/DFT/build-Nov24/pseudopotentials/SG15/B_ONCV_PBE.pulay ... using dE_dnG = -3.748568e-04 computed for Ecut = 20.

Reading pseudopotential file '/home/gridsan/aligho/DFT/build-Nov24/pseudopotentials/SG15/Na_ONCV_PBE.upf':
  'Na' pseudopotential, 'PBE' functional
  Generated using ONCVPSP code by D. R. Hamann
  Author: Martin Schlipf and Francois Gygi  Date: 150915.
  9 valence electrons, 3 orbitals, 4 projectors, 1992 radial grid points, with lMax = 1
  Transforming local potential to a uniform radial grid of dG=0.02 with 1514 points.
  Transforming nonlocal projectors to a uniform radial grid of dG=0.02 with 432 points.
    2S    l: 0   occupation:  2.0   eigenvalue: -2.085640
    2P    l: 1   occupation:  6.0   eigenvalue: -1.053708
    3S    l: 0   occupation:  1.0   eigenvalue: -0.100838
  Transforming atomic orbitals to a uniform radial grid of dG=0.02 with 432 points.
  Core radius for overlap checks: 2.01 bohrs.
  Reading pulay file /home/gridsan/aligho/DFT/build-Nov24/pseudopotentials/SG15/Na_ONCV_PBE.pulay ... using dE_dnG = -2.946487e-03 computed for Ecut = 20.

Initialized 3 species with 29 total atoms.

Folded 1 k-points by 12x12x1 to 144 k-points.

---------- Setting up k-points, bands, fillings ----------
Adding inversion symmetry to k-mesh for non-inversion-symmetric unit cell.
Reduced to 19 k-points under symmetry. 
Computing the number of bands and number of electrons
Calculating initial fillings.
nElectrons: 121.000000   nBands: 117   nStates: 38

----- Setting up reduced wavefunction bases (one per k-point) -----
average nbasis = 23151.771 , ideal nbasis = 23152.016

---------- Setting up coulomb interaction ----------
Initialized slab truncation along lattice direction 001

Initializing DFT-D3 calculator:
	Parameters set for gga-PBE functional
	s6:  1.000  s_r6:  1.217
	s8:  0.722  s_r8:  1.000
	Per-atom parameters loaded for:
	 N:  sqrtQ[a0]:  2.712  Rcov[a0]:  1.342  CN: [ 0.00 0.99 2.01 2.99 ]
	 B:  sqrtQ[a0]:  3.644  Rcov[a0]:  1.455  CN: [ 0.00 0.97 1.94 2.91 4.59 ]
	Na:  sqrtQ[a0]:  6.586  Rcov[a0]:  2.646  CN: [ 0.00 0.97 ]

---------- Setting up 2D ewald sum ----------
Optimum gaussian width for ewald sums = 6.943804 bohr.
Real space sums over 289 unit cells with max indices [  8  8  0  ]
Reciprocal space sums over 81 terms with max indices [  4  4  0  ]

Computing DFT-D3 correction:
# coordination-number N 3.153 3.153 3.515 3.153 3.515 3.143 3.143 3.515 3.153 3.515 3.515 3.153 3.153 3.515
# coordination-number B 3.827 3.363 3.363 3.363 3.363 3.827 3.827 3.827 3.363 3.363 3.827 3.827 3.349 3.349
# coordination-number Na 5.465
# diagonal-C6 N 15.61 15.61 15.58 15.61 15.58 15.61 15.61 15.58 15.61 15.58 15.58 15.61 15.61 15.58
# diagonal-C6 B 28.90 31.44 31.44 31.44 31.44 28.90 28.90 28.90 31.44 31.44 28.90 28.90 31.44 31.44
# diagonal-C6 Na 186.11
EvdW_6 =   -0.033265
EvdW_8 =   -0.029674

---------- Allocating electronic variables ----------
Initializing wave functions:  linear combination of atomic orbitals
N pseudo-atom occupations:   s ( 2 )  p ( 3 )
[d-16-6-3:65335] 18 more processes have sent help message help-mpi-common-cuda.txt / dlopen failed
[d-16-6-3:65335] Set MCA parameter "orte_base_help_aggregate" to 0 to see all help / error messages
[d-16-6-3:65335] 18 more processes have sent help message help-mpi-btl-openib-cpc-base.txt / no cpcs for port
B pseudo-atom occupations:   s ( 2 )  p ( 1 )
Na pseudo-atom occupations:   s ( 2 1 )  p ( 6 )
	FillingsUpdate:  mu: -0.158728759  nElectrons: 121.000000  magneticMoment: [ Abs: 0.07498  Tot: +0.01389 ]
LCAOMinimize: Iter:   0  F: -219.7480489062877211  |grad|_K:  3.420e-03  alpha:  1.000e+00
	FillingsUpdate:  mu: -0.168521561  nElectrons: 121.000000  magneticMoment: [ Abs: 0.04576  Tot: +0.01389 ]
LCAOMinimize: Iter:   1  F: -220.8661604232524951  |grad|_K:  4.133e-04  alpha:  4.413e-01  linmin:  4.145e-01  cgtest: -1.085e+00  t[s]:     49.70
LCAOMinimize: 	Bad step direction: g.d > 0.
LCAOMinimize: 	Undoing step.
LCAOMinimize: 	Step failed: resetting search direction.
	FillingsUpdate:  mu: -0.168521561  nElectrons: 121.000000  magneticMoment: [ Abs: 0.04576  Tot: +0.01389 ]
LCAOMinimize: Iter:   2  F: -220.8661604232524951  |grad|_K:  4.133e-04  alpha:  0.000e+00
	FillingsUpdate:  mu: -0.164921148  nElectrons: 121.000000  magneticMoment: [ Abs: 0.08927  Tot: +0.06944 ]
LCAOMinimize: Iter:   3  F: -220.8850209174115946  |grad|_K:  2.578e-05  alpha:  4.162e-01  linmin:  1.301e-01  cgtest: -3.438e-01  t[s]:     75.19
	FillingsUpdate:  mu: -0.165236527  nElectrons: 121.000000  magneticMoment: [ Abs: 0.09230  Tot: +0.06944 ]
LCAOMinimize: Iter:   4  F: -220.8850695139352354  |grad|_K:  9.747e-06  alpha:  3.306e-01  linmin:  2.706e-02  cgtest:  3.340e-01  t[s]:     90.09
	FillingsUpdate:  mu: -0.166561986  nElectrons: 121.000000  magneticMoment: [ Abs: 0.09213  Tot: +0.06944 ]
LCAOMinimize: Iter:   5  F: -220.8850783623342124  |grad|_K:  5.892e-06  alpha:  3.510e-01  linmin: -3.549e-02  cgtest:  9.832e-02  t[s]:    105.01
	FillingsUpdate:  mu: -0.166335347  nElectrons: 121.000000  magneticMoment: [ Abs: 0.09211  Tot: +0.06944 ]
LCAOMinimize: Iter:   6  F: -220.8850821790887551  |grad|_K:  7.609e-06  alpha:  1.780e-01  linmin: -5.583e-03  cgtest:  4.234e-01  t[s]:    120.03
LCAOMinimize: 	Step increased F by 7.972904e-07, reducing alpha to 6.247251e-03.
	FillingsUpdate:  mu: -0.166285873  nElectrons: 121.000000  magneticMoment: [ Abs: 0.09221  Tot: +0.06944 ]
LCAOMinimize: Iter:   7  F: -220.8850826669651326  |grad|_K:  7.143e-06  alpha:  6.247e-03  linmin: -5.683e-03  cgtest:  9.058e-01  t[s]:    145.40
LCAOMinimize: 	Predicted alpha/alphaT>3.000000, increasing alphaT to 1.874175e-02.
LCAOMinimize: 	Predicted alpha/alphaT>3.000000, increasing alphaT to 5.622526e-02.
	FillingsUpdate:  mu: -0.165580605  nElectrons: 121.000000  magneticMoment: [ Abs: 0.09334  Tot: +0.06944 ]
LCAOMinimize: Iter:   8  F: -220.8850832408880365  |grad|_K:  6.713e-06  alpha:  1.075e-01  linmin:  4.810e-03  cgtest: -7.222e-01  t[s]:    168.79
LCAOMinimize: Converged (|Delta F|<1.000000e-06 for 2 iters).


---- Citations for features of the code used in this run ----

   Software package:
      R. Sundararaman, K. Letchworth-Weaver, K.A. Schwarz, D. Gunceler, Y. Ozhabes and T.A. Arias, 'JDFTx: software for joint density-functional theory', SoftwareX 6, 278 (2017)

   gga-PBE exchange-correlation functional:
      J.P. Perdew, K. Burke and M. Ernzerhof, Phys. Rev. Lett. 77, 3865 (1996)

   Pseudopotentials:
      M Schlipf and F Gygi, Comput. Phys. Commun. 196, 36 (2015)

   Truncated Coulomb potentials:
      R. Sundararaman and T.A. Arias, Phys. Rev. B 87, 165122 (2013)

   DFT-D3 dispersion correction:
      S. Grimme, J. Antony, S. Ehrlich and H. Krieg, J. Chem. Phys. 132, 154104 (2010)

This list may not be complete. Please suggest additional citations or
report any other bugs at https://github.com/shankar1729/jdftx/issues

Initialization completed successfully at t[s]:    170.96


Computing DFT-D3 correction:
# coordination-number N 3.153 3.153 3.515 3.153 3.515 3.143 3.143 3.515 3.153 3.515 3.515 3.153 3.153 3.515
# coordination-number B 3.827 3.363 3.363 3.363 3.363 3.827 3.827 3.827 3.363 3.363 3.827 3.827 3.349 3.349
# coordination-number Na 5.465
# diagonal-C6 N 15.61 15.61 15.58 15.61 15.58 15.61 15.61 15.58 15.61 15.58 15.58 15.61 15.61 15.58
# diagonal-C6 B 28.90 31.44 31.44 31.44 31.44 28.90 28.90 28.90 31.44 31.44 28.90 28.90 31.44 31.44
# diagonal-C6 Na 186.11
EvdW_6 =   -0.033265
EvdW_8 =   -0.029674

-------- Electronic minimization -----------
Will mix electronic density at each iteration.
	FillingsUpdate:  mu: -0.165580605  nElectrons: 121.000000  magneticMoment: [ Abs: 0.09334  Tot: +0.06944 ]
	FillingsUpdate:  mu: -0.177027103  nElectrons: 121.000000  magneticMoment: [ Abs: 0.09334  Tot: +0.06944 ]
SCF: Cycle:  0   F: -222.184657479349625   dF: -1.300e+00   |Residual|: 3.915e-01   |deigs|: 1.100e-01  t[s]:    221.09
	FillingsUpdate:  mu: -0.164594943  nElectrons: 121.000000  magneticMoment: [ Abs: 0.11142  Tot: +0.07099 ]
SCF: Cycle:  1   F: -222.252811563981226   dF: -6.815e-02   |Residual|: 2.129e-01   |deigs|: 1.834e-02  t[s]:    259.10
	FillingsUpdate:  mu: -0.159228506  nElectrons: 121.000000  magneticMoment: [ Abs: 0.13531  Tot: +0.06507 ]
SCF: Cycle:  2   F: -222.287601923634611   dF: -3.479e-02   |Residual|: 4.115e-02   |deigs|: 1.979e-02  t[s]:    297.13
	FillingsUpdate:  mu: -0.154883547  nElectrons: 121.000000  magneticMoment: [ Abs: 0.08166  Tot: +0.06128 ]
SCF: Cycle:  3   F: -222.292482599700577   dF: -4.881e-03   |Residual|: 2.602e-02   |deigs|: 4.618e-03  t[s]:    335.14
	FillingsUpdate:  mu: -0.145495742  nElectrons: 121.000000  magneticMoment: [ Abs: 0.08482  Tot: +0.05342 ]
SCF: Cycle:  4   F: -222.297590630156776   dF: -5.108e-03   |Residual|: 1.666e-02   |deigs|: 8.116e-03  t[s]:    373.48
	FillingsUpdate:  mu: -0.138330978  nElectrons: 121.000000  magneticMoment: [ Abs: 0.07878  Tot: +0.04724 ]
SCF: Cycle:  5   F: -222.300674986859178   dF: -3.084e-03   |Residual|: 1.384e-02   |deigs|: 6.545e-03  t[s]:    411.75
	FillingsUpdate:  mu: -0.127033671  nElectrons: 121.000000  magneticMoment: [ Abs: 0.07008  Tot: +0.03740 ]
SCF: Cycle:  6   F: -222.303401278584886   dF: -2.726e-03   |Residual|: 1.083e-02   |deigs|: 9.864e-03  t[s]:    450.21
	FillingsUpdate:  mu: -0.115474836  nElectrons: 121.000000  magneticMoment: [ Abs: 0.04834  Tot: +0.02770 ]
SCF: Cycle:  7   F: -222.303796593792356   dF: -3.953e-04   |Residual|: 8.837e-03   |deigs|: 1.109e-02  t[s]:    488.63
	FillingsUpdate:  mu: -0.106181838  nElectrons: 121.000000  magneticMoment: [ Abs: 0.03889  Tot: +0.02019 ]
SCF: Cycle:  8   F: -222.304665029714528   dF: -8.684e-04   |Residual|: 7.561e-03   |deigs|: 9.447e-03  t[s]:    527.36
	FillingsUpdate:  mu: -0.095760167  nElectrons: 121.000000  magneticMoment: [ Abs: 0.03496  Tot: +0.01285 ]
SCF: Cycle:  9   F: -222.306075605135476   dF: -1.411e-03   |Residual|: 6.527e-03   |deigs|: 1.062e-02  t[s]:    566.13
	FillingsUpdate:  mu: -0.093702526  nElectrons: 121.000000  magneticMoment: [ Abs: 0.03667  Tot: +0.01370 ]
SCF: Cycle: 10   F: -222.306874642038224   dF: -7.990e-04   |Residual|: 5.782e-03   |deigs|: 2.721e-03  t[s]:    604.88
	FillingsUpdate:  mu: -0.087153496  nElectrons: 121.000000  magneticMoment: [ Abs: 0.02921  Tot: +0.01282 ]
SCF: Cycle: 11   F: -222.308158396570605   dF: -1.284e-03   |Residual|: 5.459e-03   |deigs|: 6.180e-03  t[s]:    643.41
	FillingsUpdate:  mu: -0.077119060  nElectrons: 121.000000  magneticMoment: [ Abs: 0.04836  Tot: +0.01100 ]
SCF: Cycle: 12   F: -222.309215168320264   dF: -1.057e-03   |Residual|: 4.898e-03   |deigs|: 8.611e-03  t[s]:    682.01
	FillingsUpdate:  mu: -0.073333430  nElectrons: 121.000000  magneticMoment: [ Abs: 0.02474  Tot: +0.01318 ]
SCF: Cycle: 13   F: -222.309445289769059   dF: -2.301e-04   |Residual|: 3.655e-03   |deigs|: 3.348e-03  t[s]:    720.81
	FillingsUpdate:  mu: -0.072411921  nElectrons: 121.000000  magneticMoment: [ Abs: 0.02540  Tot: +0.01467 ]
SCF: Cycle: 14   F: -222.309467278546606   dF: -2.199e-05   |Residual|: 2.530e-03   |deigs|: 1.650e-03  t[s]:    759.35
	FillingsUpdate:  mu: -0.070264456  nElectrons: 121.000000  magneticMoment: [ Abs: 0.02518  Tot: +0.01473 ]
SCF: Cycle: 15   F: -222.309476350391975   dF: -9.072e-06   |Residual|: 1.286e-03   |deigs|: 1.950e-03  t[s]:    798.10
	FillingsUpdate:  mu: -0.069795476  nElectrons: 121.000000  magneticMoment: [ Abs: 0.01806  Tot: +0.01465 ]
SCF: Cycle: 16   F: -222.309476990303523   dF: -6.399e-07   |Residual|: 7.830e-04   |deigs|: 7.947e-04  t[s]:    836.91
	FillingsUpdate:  mu: -0.069334203  nElectrons: 121.000000  magneticMoment: [ Abs: 0.01582  Tot: +0.01438 ]
SCF: Cycle: 17   F: -222.309477226673607   dF: -2.364e-07   |Residual|: 3.288e-04   |deigs|: 9.522e-04  t[s]:    875.72
	FillingsUpdate:  mu: -0.069099690  nElectrons: 121.000000  magneticMoment: [ Abs: 0.01467  Tot: +0.01421 ]
SCF: Cycle: 18   F: -222.309477352898796   dF: -1.262e-07   |Residual|: 1.788e-04   |deigs|: 6.184e-04  t[s]:    914.28
	FillingsUpdate:  mu: -0.069076397  nElectrons: 121.000000  magneticMoment: [ Abs: 0.01458  Tot: +0.01417 ]
SCF: Cycle: 19   F: -222.309477410607400   dF: -5.771e-08   |Residual|: 7.807e-05   |deigs|: 4.310e-04  t[s]:    953.21
	FillingsUpdate:  mu: -0.069093440  nElectrons: 121.000000  magneticMoment: [ Abs: 0.01449  Tot: +0.01417 ]
SCF: Cycle: 20   F: -222.309477424950529   dF: -1.434e-08   |Residual|: 4.904e-05   |deigs|: 1.845e-04  t[s]:    992.38
	FillingsUpdate:  mu: -0.069082312  nElectrons: 121.000000  magneticMoment: [ Abs: 0.01449  Tot: +0.01413 ]
SCF: Cycle: 21   F: -222.309477432564336   dF: -7.614e-09   |Residual|: 2.634e-05   |deigs|: 2.833e-04  t[s]:   1030.85
	FillingsUpdate:  mu: -0.069068408  nElectrons: 121.000000  magneticMoment: [ Abs: 0.01443  Tot: +0.01409 ]
SCF: Cycle: 22   F: -222.309477434481266   dF: -1.917e-09   |Residual|: 1.520e-05   |deigs|: 5.531e-04  t[s]:   1069.33
SCF: Converged (|Delta E|<1.000000e-08 for 2 iters).


Computing DFT-D3 correction:
# coordination-number N 3.153 3.153 3.515 3.153 3.515 3.143 3.143 3.515 3.153 3.515 3.515 3.153 3.153 3.515
# coordination-number B 3.827 3.363 3.363 3.363 3.363 3.827 3.827 3.827 3.363 3.363 3.827 3.827 3.349 3.349
# coordination-number Na 5.465
# diagonal-C6 N 15.61 15.61 15.58 15.61 15.58 15.61 15.61 15.58 15.61 15.58 15.58 15.61 15.61 15.58
# diagonal-C6 B 28.90 31.44 31.44 31.44 31.44 28.90 28.90 28.90 31.44 31.44 28.90 28.90 31.44 31.44
# diagonal-C6 Na 186.11
EvdW_6 =   -0.033265
EvdW_8 =   -0.029674

# Ionic positions in lattice coordinates:
ion N   0.952380952379803   0.761904761902463   0.000000000000000 0
ion N   1.428571428570279   1.285714285711987   0.238000000000000 0
ion N   0.380952380951232   0.904761904759606   0.000000000000000 0
ion N   0.714285714284565   1.142857142854844   0.238000000000000 0
ion N   0.523809523808374   0.619047619045320   0.000000000000000 0
ion N   0.999999999998850   0.999999999997701   0.238000000000000 0
ion N   0.666666666665517   0.333333333331034   0.000000000000000 0
ion N   1.285714285713136   0.857142857140558   0.238000000000000 0
ion N   0.809523809522660   0.047619047616749   0.000000000000000 0
ion N   1.571428571427422   0.714285714283415   0.238000000000000 0
ion N   0.095238095236946   0.476190476188177   0.000000000000000 0
ion N   0.238095238094089   0.190476190473892   0.000000000000000 0
ion N   0.857142857141708   0.571428571426273   0.238000000000000 0
ion N   1.142857142855993   0.428571428569130   0.238000000000000 0
ion B   0.571428571427422   0.857142857140558   0.000000000000000 0
ion B   0.952380952379803   1.190476190473892   0.238000000000000 0
ion B   0.714285714284565   0.571428571426273   0.000000000000000 0
ion B   1.238095238094089   1.047619047616749   0.238000000000000 0
ion B   0.857142857141708   0.285714285711987   0.000000000000000 0
ion B   1.523809523808374   0.904761904759606   0.238000000000000 0
ion B   0.142857142855993   0.714285714283415   0.000000000000000 0
ion B   0.285714285713136   0.428571428569130   0.000000000000000 0
ion B   0.809523809522660   0.761904761902463   0.238000000000000 0
ion B   0.428571428570279   0.142857142854844   0.000000000000000 0
ion B   1.095238095236946   0.619047619045320   0.238000000000000 0
ion B   1.380952380951231   0.476190476188177   0.238000000000000 0
ion B  -0.000000000001149  -0.000000000002299   0.000000000000000 0
ion B   0.666666666665517   0.333333333331034   0.238000000000000 0
ion Na   0.333333333332184   0.666666666664368   0.119000000000000 0

# Forces in Lattice coordinates:
force N   0.011281727501110  -0.012421934890507  -0.039987261629826 0
force N  -0.012421934890508   0.011281727501110   0.039987261629826 0
force N   0.006620321240466  -0.034686253205418   0.038888911344056 0
force N   0.001140207389398  -0.012421934890508   0.039987261629713 0
force N  -0.034686253205418   0.028065931964952   0.038888911344170 0
force N   0.000000000000000   0.000000000000000   0.014548812838441 0
force N   0.000000000000000   0.000000000000000  -0.014548812838327 0
force N   0.028065931964952  -0.034686253205418  -0.038888911344056 0
force N  -0.012421934890507   0.001140207389398  -0.039987261629827 0
force N  -0.034686253205418   0.006620321240465  -0.038888911344057 0
force N   0.028065931964952   0.006620321240465   0.038888911344056 0
force N   0.001140207389398   0.011281727501110  -0.039987261629940 0
force N   0.011281727501110   0.001140207389398   0.039987261629826 0
force N   0.006620321240466   0.028065931964953  -0.038888911344056 0
force B   0.069752275607978   0.037505279791847  -0.233963420660193 0
force B  -0.015147666538506  -0.047943549911013  -0.028714991443911 0
force B   0.063091216449519  -0.047943549911013   0.028714991443911 0
force B  -0.047943549911013   0.063091216449518  -0.028714991443911 0
force B  -0.047943549911013  -0.015147666538506   0.028714991443911 0
force B   0.037505279791847   0.069752275607978   0.233963420660250 0
force B  -0.107257555399824   0.069752275607978  -0.233963420660307 0
force B   0.037505279791847  -0.107257555399824  -0.233963420660250 0
force B   0.063091216449519  -0.015147666538506  -0.028714991443968 0
force B  -0.015147666538506   0.063091216449519   0.028714991443911 0
force B  -0.107257555399825   0.037505279791847   0.233963420660250 0
force B   0.069752275607978  -0.107257555399824   0.233963420660193 0
force B   0.000000000000000   0.000000000000000   0.050151036993149 0
force B   0.000000000000000   0.000000000000000  -0.050151036993149 0
force Na  -0.000000000000000  -0.000000000000000  -0.000000000000000 0

# Energy components:
   Eewald =    -1901.3772728215737970
       EH =    -1727.4647427542088280
     Eloc =     3336.7123516760743769
      Enl =      -21.2865058764315691
   Epulay =       -0.0000190610708103
     EvdW =       -0.0629391720928210
      Exc =      -57.8040516182998374
       KE =      148.9737025685897152
-------------------------------------
     Etot =     -222.3094770590136022
       TS =        0.0000003754676741
-------------------------------------
        F =     -222.3094774344812663

IonicMinimize: Iter:   0  F: -222.309477434481266  |grad|_K:  0.000e+00  t[s]:   1073.32
IonicMinimize: Converged (|grad|_K<1.000000e-04).

#--- Lowdin population analysis ---
# oxidation-state N -0.370 -0.370 -0.381 -0.370 -0.381 -0.370 -0.370 -0.381 -0.370 -0.381 -0.381 -0.370 -0.370 -0.381
# magnetic-moments N +0.000 +0.000 +0.000 +0.000 +0.000 +0.000 +0.000 +0.000 +0.000 +0.000 +0.000 +0.000 +0.000 +0.000
# oxidation-state B +0.409 +0.449 +0.449 +0.449 +0.449 +0.409 +0.409 +0.409 +0.449 +0.449 +0.409 +0.409 +0.449 +0.449
# magnetic-moments B +0.000 +0.000 +0.000 +0.000 +0.000 +0.000 +0.000 +0.000 +0.000 +0.000 +0.000 +0.000 +0.000 +0.000
# oxidation-state Na +0.210
# magnetic-moments Na +0.010


Dumping 'Na-0.238.fillings' ... done
Dumping 'Na-0.238.wfns' ... done
Dumping 'Na-0.238.n_up' ... done
Dumping 'Na-0.238.n_dn' ... done
Dumping 'Na-0.238.eigenvals' ... done
End date and time: Wed Jan 19 20:39:34 2022  (Duration: 0-0:17:56.34)
Done!
