Second Layer Distance is 0.301

--------------------------------------------------------------------------
The library attempted to open the following supporting CUDA libraries,
but each of them failed.  CUDA-aware support is disabled.
libcuda.so.1: cannot open shared object file: No such file or directory
libcuda.dylib: cannot open shared object file: No such file or directory
/usr/lib64/libcuda.so.1: cannot open shared object file: No such file or directory
/usr/lib64/libcuda.dylib: cannot open shared object file: No such file or directory
If you are not interested in CUDA-aware support, then run with
--mca opal_warn_on_missing_libcuda 0 to suppress this message.  If you are interested
in CUDA-aware support, then try setting LD_LIBRARY_PATH to the location
of libcuda.so.1 to get passed this issue.
--------------------------------------------------------------------------
--------------------------------------------------------------------------
No OpenFabrics connection schemes reported that they were able to be
used on a specific port.  As such, the openib BTL (OpenFabrics
support) will be disabled for this port.

  Local host:           d-4-6-4
  Local device:         mlx5_1
  Local port:           1
  CPCs attempted:       rdmacm, udcm
--------------------------------------------------------------------------

*************** JDFTx 1.6.0 (git hash 42ebbcc2) ***************

Start date and time: Sun Jan 23 16:36:02 2022
Executable jdftx with command-line: -i Moire.in
Running on hosts (process indices):  d-4-6-4 (0-18)
Divided in process groups (process indices):  0 (0)  1 (1)  2 (2)  3 (3)  4 (4)  5 (5)  6 (6)  7 (7)  8 (8)  9 (9)  10 (10)  11 (11)  12 (12)  13 (13)  14 (14)  15 (15)  16 (16)  17 (17)  18 (18)
Resource initialization completed at t[s]:      0.00
Run totals: 19 processes, 48 threads, 0 GPUs


Input parsed successfully to the following command list (including defaults):

basis kpoint-dependent
coords-type Lattice
core-overlap-check vector
coulomb-interaction Slab 001
davidson-band-ratio 1.1
dump End State ElecDensity BandEigs
dump-name Na-0.301.$VAR
elec-cutoff 20
elec-eigen-algo Davidson
elec-ex-corr gga-PBE
elec-initial-magnetization 0.100000 no
elec-smearing Fermi 1e-05
electronic-minimize  \
	dirUpdateScheme      FletcherReeves \
	linminMethod         DirUpdateRecommended \
	nIterations          100 \
	history              15 \
	knormThreshold       0 \
	energyDiffThreshold  1e-08 \
	nEnergyDiff          2 \
	alphaTstart          1 \
	alphaTmin            1e-10 \
	updateTestStepSize   yes \
	alphaTreduceFactor   0.1 \
	alphaTincreaseFactor 3 \
	nAlphaAdjustMax      3 \
	wolfeEnergy          0.0001 \
	wolfeGradient        0.9 \
	fdTest               no
electronic-scf  \
	nIterations	1000 \
	energyDiffThreshold	1e-08 \
	residualThreshold	1e-07 \
	mixFraction	0.5 \
	qMetric	0.8 \
	history	10 \
	nEigSteps	2 \
	eigDiffThreshold	1e-08 \
	mixedVariable	Density \
	qKerker	0.8 \
	qKappa	-1 \
	verbose	no \
	mixFractionMag	1.5
exchange-regularization WignerSeitzTruncated
fluid None
fluid-ex-corr (null) lda-PZ
fluid-gummel-loop 10 1.000000e-05
fluid-minimize  \
	dirUpdateScheme      PolakRibiere \
	linminMethod         DirUpdateRecommended \
	nIterations          100 \
	history              15 \
	knormThreshold       0 \
	energyDiffThreshold  0 \
	nEnergyDiff          2 \
	alphaTstart          1 \
	alphaTmin            1e-10 \
	updateTestStepSize   yes \
	alphaTreduceFactor   0.1 \
	alphaTincreaseFactor 3 \
	nAlphaAdjustMax      3 \
	wolfeEnergy          0.0001 \
	wolfeGradient        0.9 \
	fdTest               no
fluid-solvent H2O 55.338 ScalarEOS \
	epsBulk 78.4 \
	pMol 0.92466 \
	epsInf 1.77 \
	Pvap 1.06736e-10 \
	sigmaBulk 4.62e-05 \
	Rvdw 2.61727 \
	Res 1.42 \
	tauNuc 343133 \
	poleEl 15 7 1
forces-output-coords Positions
ion N   0.952380952380952   0.761904761904762   0.000000000000000 0
ion N   1.428571428571428   1.285714285714286   0.301000000000000 0
ion N   0.380952380952381   0.904761904761905   0.000000000000000 0
ion N   0.714285714285714   1.142857142857143   0.301000000000000 0
ion N   0.523809523809524   0.619047619047619   0.000000000000000 0
ion N   1.000000000000000   1.000000000000000   0.301000000000000 0
ion N   0.666666666666667   0.333333333333333   0.000000000000000 0
ion N   1.285714285714286   0.857142857142857   0.301000000000000 0
ion N   0.809523809523810   0.047619047619048   0.000000000000000 0
ion N   1.571428571428571   0.714285714285714   0.301000000000000 0
ion N   0.095238095238095   0.476190476190476   0.000000000000000 0
ion N   0.238095238095238   0.190476190476190   0.000000000000000 0
ion N   0.857142857142857   0.571428571428571   0.301000000000000 0
ion N   1.142857142857143   0.428571428571429   0.301000000000000 0
ion B   0.571428571428572   0.857142857142857   0.000000000000000 0
ion B   0.952380952380952   1.190476190476190   0.301000000000000 0
ion B   0.714285714285714   0.571428571428571   0.000000000000000 0
ion B   1.238095238095238   1.047619047619047   0.301000000000000 0
ion B   0.857142857142857   0.285714285714286   0.000000000000000 0
ion B   1.523809523809524   0.904761904761905   0.301000000000000 0
ion B   0.142857142857143   0.714285714285714   0.000000000000000 0
ion B   0.285714285714286   0.428571428571429   0.000000000000000 0
ion B   0.809523809523810   0.761904761904762   0.301000000000000 0
ion B   0.428571428571429   0.142857142857143   0.000000000000000 0
ion B   1.095238095238095   0.619047619047619   0.301000000000000 0
ion B   1.380952380952381   0.476190476190476   0.301000000000000 0
ion B   0.000000000000000   0.000000000000000   0.000000000000000 0
ion B   0.666666666666667   0.333333333333333   0.301000000000000 0
ion Na   0.333333333300000   0.666666666600000   0.150500000000000 0
ion-species SG15/$ID_ONCV_PBE.upf
ion-width 0
ionic-minimize  \
	dirUpdateScheme      L-BFGS \
	linminMethod         DirUpdateRecommended \
	nIterations          0 \
	history              15 \
	knormThreshold       0.0001 \
	energyDiffThreshold  1e-06 \
	nEnergyDiff          2 \
	alphaTstart          1 \
	alphaTmin            1e-10 \
	updateTestStepSize   yes \
	alphaTreduceFactor   0.1 \
	alphaTincreaseFactor 3 \
	nAlphaAdjustMax      3 \
	wolfeEnergy          0.0001 \
	wolfeGradient        0.9 \
	fdTest               no
kpoint   0.000000000000   0.000000000000   0.000000000000  1.00000000000000
kpoint-folding 12 12 1 
latt-move-scale 1 1 1
latt-scale 1 1 1 
lattice  \
	 -11.818700000000000    2.363740000000000    0.000000000000000  \
	   4.094120000000000  -12.282400000000001    0.000000000000000  \
	   0.000000000000000    0.000000000000000   40.000000000000000 
lattice-minimize  \
	dirUpdateScheme      L-BFGS \
	linminMethod         DirUpdateRecommended \
	nIterations          0 \
	history              15 \
	knormThreshold       0 \
	energyDiffThreshold  1e-06 \
	nEnergyDiff          2 \
	alphaTstart          1 \
	alphaTmin            1e-10 \
	updateTestStepSize   yes \
	alphaTreduceFactor   0.1 \
	alphaTincreaseFactor 3 \
	nAlphaAdjustMax      3 \
	wolfeEnergy          0.0001 \
	wolfeGradient        0.9 \
	fdTest               no
lcao-params -1 1e-06 1e-05
pcm-variant GLSSA13
spintype z-spin
subspace-rotation-factor 1 yes
symmetries automatic
symmetry-threshold 0.0001
van-der-waals D3



---------- Setting up symmetries ----------

Found 24 point-group symmetries of the bravais lattice
Found 6 space-group symmetries with basis
Applied RMS atom displacement 1.31765e-10 bohrs to make symmetries exact.

---------- Initializing the Grid ----------
R = 
[     -11.8187      2.36374            0  ]
[      4.09412     -12.2824            0  ]
[            0            0           40  ]
unit cell volume = 5419.38
G =
[  -0.569604   -0.10962          0  ]
[  -0.189867    -0.5481          0  ]
[          0          0    0.15708  ]
Minimum fftbox size, Smin = [  52  52  164  ]
Chosen fftbox size, S = [  54  54  168  ]

---------- Exchange Correlation functional ----------
Initalized PBE GGA exchange.
Initalized PBE GGA correlation.

---------- Setting up pseudopotentials ----------
Width of ionic core gaussian charges (only for fluid interactions / plotting) set to 0

Reading pseudopotential file '/home/gridsan/aligho/DFT/build-Nov24/pseudopotentials/SG15/N_ONCV_PBE.upf':
  'N' pseudopotential, 'PBE' functional
  Generated using ONCVPSP code by D. R. Hamann
  Author: Martin Schlipf and Francois Gygi  Date: 150915.
  5 valence electrons, 2 orbitals, 4 projectors, 1058 radial grid points, with lMax = 1
  Transforming local potential to a uniform radial grid of dG=0.02 with 1514 points.
  Transforming nonlocal projectors to a uniform radial grid of dG=0.02 with 432 points.
    2S    l: 0   occupation:  2.0   eigenvalue: -0.682907
    2P    l: 1   occupation:  3.0   eigenvalue: -0.260548
  Transforming atomic orbitals to a uniform radial grid of dG=0.02 with 432 points.
  Core radius for overlap checks: 1.35 bohrs.
  Reading pulay file /home/gridsan/aligho/DFT/build-Nov24/pseudopotentials/SG15/N_ONCV_PBE.pulay ... using dE_dnG = -2.956256e-02 computed for Ecut = 20.

Reading pseudopotential file '/home/gridsan/aligho/DFT/build-Nov24/pseudopotentials/SG15/B_ONCV_PBE.upf':
  'B' pseudopotential, 'PBE' functional
  Generated using ONCVPSP code by D. R. Hamann
  Author: Martin Schlipf and Francois Gygi  Date: 150915.
  3 valence electrons, 2 orbitals, 4 projectors, 1534 radial grid points, with lMax = 1
  Transforming local potential to a uniform radial grid of dG=0.02 with 1514 points.
  Transforming nonlocal projectors to a uniform radial grid of dG=0.02 with 432 points.
    2S    l: 0   occupation:  2.0   eigenvalue: -0.347027
    2P    l: 1   occupation:  1.0   eigenvalue: -0.132548
  Transforming atomic orbitals to a uniform radial grid of dG=0.02 with 432 points.
  Core radius for overlap checks: 1.60 bohrs.
  Reading pulay file /home/gridsan/aligho/DFT/build-Nov24/pseudopotentials/SG15/B_ONCV_PBE.pulay ... using dE_dnG = -3.748568e-04 computed for Ecut = 20.

Reading pseudopotential file '/home/gridsan/aligho/DFT/build-Nov24/pseudopotentials/SG15/Na_ONCV_PBE.upf':
  'Na' pseudopotential, 'PBE' functional
  Generated using ONCVPSP code by D. R. Hamann
  Author: Martin Schlipf and Francois Gygi  Date: 150915.
  9 valence electrons, 3 orbitals, 4 projectors, 1992 radial grid points, with lMax = 1
  Transforming local potential to a uniform radial grid of dG=0.02 with 1514 points.
  Transforming nonlocal projectors to a uniform radial grid of dG=0.02 with 432 points.
    2S    l: 0   occupation:  2.0   eigenvalue: -2.085640
    2P    l: 1   occupation:  6.0   eigenvalue: -1.053708
    3S    l: 0   occupation:  1.0   eigenvalue: -0.100838
  Transforming atomic orbitals to a uniform radial grid of dG=0.02 with 432 points.
  Core radius for overlap checks: 2.01 bohrs.
  Reading pulay file /home/gridsan/aligho/DFT/build-Nov24/pseudopotentials/SG15/Na_ONCV_PBE.pulay ... using dE_dnG = -2.946487e-03 computed for Ecut = 20.

Initialized 3 species with 29 total atoms.

Folded 1 k-points by 12x12x1 to 144 k-points.

---------- Setting up k-points, bands, fillings ----------
Adding inversion symmetry to k-mesh for non-inversion-symmetric unit cell.
Reduced to 19 k-points under symmetry. 
Computing the number of bands and number of electrons
Calculating initial fillings.
nElectrons: 121.000000   nBands: 117   nStates: 38

----- Setting up reduced wavefunction bases (one per k-point) -----
average nbasis = 23151.771 , ideal nbasis = 23152.016

---------- Setting up coulomb interaction ----------
Initialized slab truncation along lattice direction 001

Initializing DFT-D3 calculator:
	Parameters set for gga-PBE functional
	s6:  1.000  s_r6:  1.217
	s8:  0.722  s_r8:  1.000
	Per-atom parameters loaded for:
	 N:  sqrtQ[a0]:  2.712  Rcov[a0]:  1.342  CN: [ 0.00 0.99 2.01 2.99 ]
	 B:  sqrtQ[a0]:  3.644  Rcov[a0]:  1.455  CN: [ 0.00 0.97 1.94 2.91 4.59 ]
	Na:  sqrtQ[a0]:  6.586  Rcov[a0]:  2.646  CN: [ 0.00 0.97 ]

---------- Setting up 2D ewald sum ----------
Optimum gaussian width for ewald sums = 6.943804 bohr.
Real space sums over 289 unit cells with max indices [  8  8  0  ]
Reciprocal space sums over 81 terms with max indices [  4  4  0  ]

Computing DFT-D3 correction:
# coordination-number N 3.141 3.141 3.179 3.141 3.179 3.139 3.139 3.179 3.141 3.179 3.179 3.141 3.141 3.179
# coordination-number B 3.400 3.347 3.347 3.347 3.347 3.400 3.400 3.400 3.347 3.347 3.400 3.400 3.344 3.344
# coordination-number Na 0.707
# diagonal-C6 N 15.61 15.61 15.60 15.61 15.60 15.61 15.61 15.60 15.61 15.60 15.60 15.61 15.61 15.60
# diagonal-C6 B 31.42 31.44 31.44 31.44 31.44 31.42 31.42 31.42 31.44 31.44 31.42 31.42 31.44 31.44
# diagonal-C6 Na 300.62
EvdW_6 =   -0.031360
EvdW_8 =   -0.029992

---------- Allocating electronic variables ----------
Initializing wave functions:  linear combination of atomic orbitals
N pseudo-atom occupations:   s ( 2 )  p ( 3 )
[d-4-6-4:71523] 18 more processes have sent help message help-mpi-common-cuda.txt / dlopen failed
[d-4-6-4:71523] Set MCA parameter "orte_base_help_aggregate" to 0 to see all help / error messages
[d-4-6-4:71523] 18 more processes have sent help message help-mpi-btl-openib-cpc-base.txt / no cpcs for port
B pseudo-atom occupations:   s ( 2 )  p ( 1 )
Na pseudo-atom occupations:   s ( 2 1 )  p ( 6 )
	FillingsUpdate:  mu: -0.135307774  nElectrons: 121.000000  magneticMoment: [ Abs: 0.07741  Tot: -0.01387 ]
LCAOMinimize: Iter:   0  F: -219.6388659302215842  |grad|_K:  3.561e-03  alpha:  1.000e+00
	FillingsUpdate:  mu: -0.144932104  nElectrons: 121.000000  magneticMoment: [ Abs: 0.19841  Tot: +0.15278 ]
LCAOMinimize: Iter:   1  F: -220.8443761055621906  |grad|_K:  4.316e-04  alpha:  4.410e-01  linmin:  3.016e-01  cgtest: -1.079e+00  t[s]:     49.65
LCAOMinimize: 	Bad step direction: g.d > 0.
LCAOMinimize: 	Undoing step.
LCAOMinimize: 	Step failed: resetting search direction.
	FillingsUpdate:  mu: -0.144932104  nElectrons: 121.000000  magneticMoment: [ Abs: 0.19841  Tot: +0.15278 ]
LCAOMinimize: Iter:   2  F: -220.8443761055621906  |grad|_K:  4.316e-04  alpha:  0.000e+00
	FillingsUpdate:  mu: -0.171574602  nElectrons: 121.000000  magneticMoment: [ Abs: 0.14498  Tot: +0.09722 ]
LCAOMinimize: Iter:   3  F: -220.8649967376801442  |grad|_K:  5.882e-05  alpha:  4.176e-01  linmin:  6.099e-02  cgtest: -1.138e-01  t[s]:     75.03
	FillingsUpdate:  mu: -0.161390967  nElectrons: 121.000000  magneticMoment: [ Abs: 0.07314  Tot: +0.01389 ]
LCAOMinimize: Iter:   4  F: -220.8659908310269770  |grad|_K:  2.536e-05  alpha:  1.527e-01  linmin: -2.087e-01  cgtest:  9.117e-01  t[s]:     89.84
LCAOMinimize: Encountered beta<0, resetting CG.
LCAOMinimize: 	Wrong curvature in test step, increasing alphaT to 4.581757e-01.
	FillingsUpdate:  mu: -0.160073322  nElectrons: 121.000000  magneticMoment: [ Abs: 0.06675  Tot: -0.01389 ]
LCAOMinimize: Iter:   5  F: -220.8660834453466180  |grad|_K:  1.566e-05  alpha: -9.759e-02  linmin: -3.403e-01  cgtest:  9.888e-01  t[s]:    104.35
LCAOMinimize: Encountered beta<0, resetting CG.
	FillingsUpdate:  mu: -0.159717924  nElectrons: 121.000000  magneticMoment: [ Abs: 0.06155  Tot: -0.01389 ]
LCAOMinimize: Iter:   6  F: -220.8661013111324394  |grad|_K:  1.120e-05  alpha:  1.610e-01  linmin: -2.288e-01  cgtest:  9.940e-01  t[s]:    119.22
LCAOMinimize: Encountered beta<0, resetting CG.
LCAOMinimize: 	Predicted alpha/alphaT>3.000000, increasing alphaT to 4.831045e-01.
	FillingsUpdate:  mu: -0.158178161  nElectrons: 121.000000  magneticMoment: [ Abs: 0.04434  Tot: -0.01389 ]
LCAOMinimize: Iter:   7  F: -220.8661209639597018  |grad|_K:  3.196e-06  alpha:  5.923e-01  linmin: -1.217e-04  cgtest: -2.492e-05  t[s]:    138.28
	FillingsUpdate:  mu: -0.158067363  nElectrons: 121.000000  magneticMoment: [ Abs: 0.02948  Tot: -0.01389 ]
LCAOMinimize: Iter:   8  F: -220.8661228766768261  |grad|_K:  2.031e-06  alpha:  7.079e-01  linmin:  4.206e-04  cgtest: -1.477e-03  t[s]:    153.26
	FillingsUpdate:  mu: -0.158209869  nElectrons: 121.000000  magneticMoment: [ Abs: 0.01730  Tot: -0.01389 ]
LCAOMinimize: Iter:   9  F: -220.8661236423037622  |grad|_K:  7.120e-07  alpha:  7.023e-01  linmin:  4.237e-05  cgtest:  6.101e-03  t[s]:    168.00
	FillingsUpdate:  mu: -0.158224493  nElectrons: 121.000000  magneticMoment: [ Abs: 0.01552  Tot: -0.01389 ]
LCAOMinimize: Iter:  10  F: -220.8661237103096937  |grad|_K:  2.699e-07  alpha:  5.071e-01  linmin: -4.650e-04  cgtest:  8.182e-04  t[s]:    182.87
LCAOMinimize: Converged (|Delta F|<1.000000e-06 for 2 iters).


---- Citations for features of the code used in this run ----

   Software package:
      R. Sundararaman, K. Letchworth-Weaver, K.A. Schwarz, D. Gunceler, Y. Ozhabes and T.A. Arias, 'JDFTx: software for joint density-functional theory', SoftwareX 6, 278 (2017)

   gga-PBE exchange-correlation functional:
      J.P. Perdew, K. Burke and M. Ernzerhof, Phys. Rev. Lett. 77, 3865 (1996)

   Pseudopotentials:
      M Schlipf and F Gygi, Comput. Phys. Commun. 196, 36 (2015)

   Truncated Coulomb potentials:
      R. Sundararaman and T.A. Arias, Phys. Rev. B 87, 165122 (2013)

   DFT-D3 dispersion correction:
      S. Grimme, J. Antony, S. Ehrlich and H. Krieg, J. Chem. Phys. 132, 154104 (2010)

This list may not be complete. Please suggest additional citations or
report any other bugs at https://github.com/shankar1729/jdftx/issues

Initialization completed successfully at t[s]:    185.07


Computing DFT-D3 correction:
# coordination-number N 3.141 3.141 3.179 3.141 3.179 3.139 3.139 3.179 3.141 3.179 3.179 3.141 3.141 3.179
# coordination-number B 3.400 3.347 3.347 3.347 3.347 3.400 3.400 3.400 3.347 3.347 3.400 3.400 3.344 3.344
# coordination-number Na 0.707
# diagonal-C6 N 15.61 15.61 15.60 15.61 15.60 15.61 15.61 15.60 15.61 15.60 15.60 15.61 15.61 15.60
# diagonal-C6 B 31.42 31.44 31.44 31.44 31.44 31.42 31.42 31.42 31.44 31.44 31.42 31.42 31.44 31.44
# diagonal-C6 Na 300.62
EvdW_6 =   -0.031360
EvdW_8 =   -0.029992

-------- Electronic minimization -----------
Will mix electronic density at each iteration.
	FillingsUpdate:  mu: -0.158224492  nElectrons: 121.000000  magneticMoment: [ Abs: 0.01552  Tot: -0.01389 ]
	FillingsUpdate:  mu: -0.165236568  nElectrons: 121.000000  magneticMoment: [ Abs: 0.01552  Tot: -0.01389 ]
SCF: Cycle:  0   F: -222.198287457159836   dF: -1.332e+00   |Residual|: 3.987e-01   |deigs|: 1.114e-01  t[s]:    234.90
	FillingsUpdate:  mu: -0.164232902  nElectrons: 121.000000  magneticMoment: [ Abs: 0.01662  Tot: -0.01320 ]
SCF: Cycle:  1   F: -222.278142309896509   dF: -7.985e-02   |Residual|: 2.181e-01   |deigs|: 1.935e-02  t[s]:    273.05
	FillingsUpdate:  mu: -0.165119507  nElectrons: 121.000000  magneticMoment: [ Abs: 0.01884  Tot: -0.01328 ]
SCF: Cycle:  2   F: -222.306534347454232   dF: -2.839e-02   |Residual|: 4.007e-02   |deigs|: 2.552e-02  t[s]:    311.50
	FillingsUpdate:  mu: -0.162853988  nElectrons: 121.000000  magneticMoment: [ Abs: 0.01515  Tot: -0.01332 ]
SCF: Cycle:  3   F: -222.307550524431889   dF: -1.016e-03   |Residual|: 2.689e-02   |deigs|: 4.556e-03  t[s]:    350.10
	FillingsUpdate:  mu: -0.155371784  nElectrons: 121.000000  magneticMoment: [ Abs: 0.01667  Tot: -0.01343 ]
SCF: Cycle:  4   F: -222.308019256706473   dF: -4.687e-04   |Residual|: 1.780e-02   |deigs|: 1.362e-02  t[s]:    388.58
	FillingsUpdate:  mu: -0.150114278  nElectrons: 121.000000  magneticMoment: [ Abs: 0.02006  Tot: -0.01350 ]
SCF: Cycle:  5   F: -222.309657708980296   dF: -1.638e-03   |Residual|: 1.181e-02   |deigs|: 6.708e-03  t[s]:    427.31
	FillingsUpdate:  mu: -0.139574097  nElectrons: 121.000000  magneticMoment: [ Abs: 0.03410  Tot: -0.01360 ]
SCF: Cycle:  6   F: -222.311906087127340   dF: -2.248e-03   |Residual|: 1.512e-02   |deigs|: 9.709e-03  t[s]:    465.64
	FillingsUpdate:  mu: -0.125553180  nElectrons: 121.000000  magneticMoment: [ Abs: 0.02887  Tot: -0.01373 ]
SCF: Cycle:  7   F: -222.315085586942985   dF: -3.179e-03   |Residual|: 1.040e-02   |deigs|: 1.260e-02  t[s]:    504.46
	FillingsUpdate:  mu: -0.113426408  nElectrons: 121.000000  magneticMoment: [ Abs: 0.03271  Tot: -0.01383 ]
SCF: Cycle:  8   F: -222.318660903817033   dF: -3.575e-03   |Residual|: 7.788e-03   |deigs|: 9.433e-03  t[s]:    543.41
	FillingsUpdate:  mu: -0.104670642  nElectrons: 121.000000  magneticMoment: [ Abs: 0.02081  Tot: -0.01389 ]
SCF: Cycle:  9   F: -222.321125322109111   dF: -2.464e-03   |Residual|: 7.239e-03   |deigs|: 5.267e-03  t[s]:    581.93
	FillingsUpdate:  mu: -0.099152992  nElectrons: 121.000000  magneticMoment: [ Abs: 0.03051  Tot: -0.01390 ]
SCF: Cycle: 10   F: -222.322477500829109   dF: -1.352e-03   |Residual|: 6.440e-03   |deigs|: 2.974e-03  t[s]:    620.72
	FillingsUpdate:  mu: -0.097497075  nElectrons: 121.000000  magneticMoment: [ Abs: 0.02362  Tot: -0.01390 ]
SCF: Cycle: 11   F: -222.322555164479326   dF: -7.766e-05   |Residual|: 4.885e-03   |deigs|: 2.363e-03  t[s]:    659.67
	FillingsUpdate:  mu: -0.092308541  nElectrons: 121.000000  magneticMoment: [ Abs: 0.03002  Tot: -0.01391 ]
SCF: Cycle: 12   F: -222.322903066995195   dF: -3.479e-04   |Residual|: 4.284e-03   |deigs|: 3.676e-03  t[s]:    698.29
	FillingsUpdate:  mu: -0.087874283  nElectrons: 121.000000  magneticMoment: [ Abs: 0.02017  Tot: -0.01391 ]
SCF: Cycle: 13   F: -222.323109957287954   dF: -2.069e-04   |Residual|: 3.429e-03   |deigs|: 3.164e-03  t[s]:    737.06
	FillingsUpdate:  mu: -0.085491778  nElectrons: 121.000000  magneticMoment: [ Abs: 0.01774  Tot: -0.01389 ]
SCF: Cycle: 14   F: -222.323198350206070   dF: -8.839e-05   |Residual|: 2.324e-03   |deigs|: 2.468e-03  t[s]:    775.94
	FillingsUpdate:  mu: -0.084472290  nElectrons: 121.000000  magneticMoment: [ Abs: 0.01741  Tot: -0.01389 ]
SCF: Cycle: 15   F: -222.323219339865034   dF: -2.099e-05   |Residual|: 1.493e-03   |deigs|: 1.837e-03  t[s]:    814.76
	FillingsUpdate:  mu: -0.083968536  nElectrons: 121.000000  magneticMoment: [ Abs: 0.01795  Tot: -0.01389 ]
SCF: Cycle: 16   F: -222.323225668092846   dF: -6.328e-06   |Residual|: 8.126e-04   |deigs|: 5.494e-04  t[s]:    853.57
	FillingsUpdate:  mu: -0.084041968  nElectrons: 121.000000  magneticMoment: [ Abs: 0.01488  Tot: -0.01389 ]
SCF: Cycle: 17   F: -222.323226447759026   dF: -7.797e-07   |Residual|: 4.986e-04   |deigs|: 3.903e-04  t[s]:    892.15
	FillingsUpdate:  mu: -0.084122276  nElectrons: 121.000000  magneticMoment: [ Abs: 0.01448  Tot: -0.01389 ]
SCF: Cycle: 18   F: -222.323226631731188   dF: -1.840e-07   |Residual|: 2.407e-04   |deigs|: 5.478e-04  t[s]:    930.87
	FillingsUpdate:  mu: -0.084098405  nElectrons: 121.000000  magneticMoment: [ Abs: 0.01420  Tot: -0.01389 ]
SCF: Cycle: 19   F: -222.323226739972029   dF: -1.082e-07   |Residual|: 1.591e-04   |deigs|: 4.330e-04  t[s]:    969.84
	FillingsUpdate:  mu: -0.083998934  nElectrons: 121.000000  magneticMoment: [ Abs: 0.01411  Tot: -0.01389 ]
SCF: Cycle: 20   F: -222.323226857474594   dF: -1.175e-07   |Residual|: 9.229e-05   |deigs|: 2.647e-04  t[s]:   1008.54
	FillingsUpdate:  mu: -0.083926180  nElectrons: 121.000000  magneticMoment: [ Abs: 0.01402  Tot: -0.01389 ]
SCF: Cycle: 21   F: -222.323226905745543   dF: -4.827e-08   |Residual|: 4.552e-05   |deigs|: 3.371e-04  t[s]:   1047.30
	FillingsUpdate:  mu: -0.083910492  nElectrons: 121.000000  magneticMoment: [ Abs: 0.01400  Tot: -0.01389 ]
SCF: Cycle: 22   F: -222.323226912702637   dF: -6.957e-09   |Residual|: 2.594e-05   |deigs|: 6.116e-04  t[s]:   1086.23
	FillingsUpdate:  mu: -0.083899952  nElectrons: 121.000000  magneticMoment: [ Abs: 0.01400  Tot: -0.01389 ]
SCF: Cycle: 23   F: -222.323226915582467   dF: -2.880e-09   |Residual|: 1.081e-05   |deigs|: 3.607e-04  t[s]:   1125.01
SCF: Converged (|Delta E|<1.000000e-08 for 2 iters).


Computing DFT-D3 correction:
# coordination-number N 3.141 3.141 3.179 3.141 3.179 3.139 3.139 3.179 3.141 3.179 3.179 3.141 3.141 3.179
# coordination-number B 3.400 3.347 3.347 3.347 3.347 3.400 3.400 3.400 3.347 3.347 3.400 3.400 3.344 3.344
# coordination-number Na 0.707
# diagonal-C6 N 15.61 15.61 15.60 15.61 15.60 15.61 15.61 15.60 15.61 15.60 15.60 15.61 15.61 15.60
# diagonal-C6 B 31.42 31.44 31.44 31.44 31.44 31.42 31.42 31.42 31.44 31.44 31.42 31.42 31.44 31.44
# diagonal-C6 Na 300.62
EvdW_6 =   -0.031360
EvdW_8 =   -0.029992

# Ionic positions in lattice coordinates:
ion N   0.952380952379803   0.761904761902463   0.000000000000000 0
ion N   1.428571428570279   1.285714285711987   0.301000000000000 0
ion N   0.380952380951232   0.904761904759606   0.000000000000000 0
ion N   0.714285714284565   1.142857142854844   0.301000000000000 0
ion N   0.523809523808374   0.619047619045320   0.000000000000000 0
ion N   0.999999999998850   0.999999999997701   0.301000000000000 0
ion N   0.666666666665517   0.333333333331034   0.000000000000000 0
ion N   1.285714285713136   0.857142857140558   0.301000000000000 0
ion N   0.809523809522660   0.047619047616749   0.000000000000000 0
ion N   1.571428571427422   0.714285714283415   0.301000000000000 0
ion N   0.095238095236946   0.476190476188177   0.000000000000000 0
ion N   0.238095238094089   0.190476190473892   0.000000000000000 0
ion N   0.857142857141708   0.571428571426273   0.301000000000000 0
ion N   1.142857142855993   0.428571428569130   0.301000000000000 0
ion B   0.571428571427422   0.857142857140558   0.000000000000000 0
ion B   0.952380952379803   1.190476190473892   0.301000000000000 0
ion B   0.714285714284565   0.571428571426273   0.000000000000000 0
ion B   1.238095238094089   1.047619047616749   0.301000000000000 0
ion B   0.857142857141708   0.285714285711987   0.000000000000000 0
ion B   1.523809523808374   0.904761904759606   0.301000000000000 0
ion B   0.142857142855993   0.714285714283415   0.000000000000000 0
ion B   0.285714285713136   0.428571428569130   0.000000000000000 0
ion B   0.809523809522660   0.761904761902463   0.301000000000000 0
ion B   0.428571428570279   0.142857142854844   0.000000000000000 0
ion B   1.095238095236946   0.619047619045320   0.301000000000000 0
ion B   1.380952380951231   0.476190476188177   0.301000000000000 0
ion B  -0.000000000001149  -0.000000000002299   0.000000000000000 0
ion B   0.666666666665517   0.333333333331034   0.301000000000000 0
ion Na   0.333333333332184   0.666666666664368   0.150500000000000 0

# Forces in Lattice coordinates:
force N   0.006658781667498  -0.006318712637196  -0.026403546167301 0
force N  -0.006318712637196   0.006658781667497   0.026403546167301 0
force N   0.001993395793507  -0.014313269573727   0.022017034423986 0
force N  -0.000340069030301  -0.006318712637196   0.026403546167301 0
force N  -0.014313269573727   0.012319873780220   0.022017034423986 0
force N   0.000000000000000   0.000000000000000   0.016910006444047 0
force N   0.000000000000000   0.000000000000000  -0.016910006443934 0
force N   0.012319873780220  -0.014313269573726  -0.022017034424100 0
force N  -0.006318712637196  -0.000340069030301  -0.026403546167415 0
force N  -0.014313269573727   0.001993395793507  -0.022017034424100 0
force N   0.012319873780220   0.001993395793507   0.022017034423986 0
force N  -0.000340069030301   0.006658781667498  -0.026403546167529 0
force N   0.006658781667497  -0.000340069030301   0.026403546167301 0
force N   0.001993395793507   0.012319873780220  -0.022017034424100 0
force B   0.022349101863198   0.012581447941020  -0.039356589127767 0
force B  -0.006843351584854  -0.020424264830759  -0.039912831314906 0
force B   0.027267616415613  -0.020424264830759   0.039912831315076 0
force B  -0.020424264830759   0.027267616415613  -0.039912831315019 0
force B  -0.020424264830759  -0.006843351584854   0.039912831315019 0
force B   0.012581447941020   0.022349101863198   0.039356589127767 0
force B  -0.034930549804218   0.022349101863198  -0.039356589127711 0
force B   0.012581447941020  -0.034930549804218  -0.039356589127767 0
force B   0.027267616415613  -0.006843351584854  -0.039912831314962 0
force B  -0.006843351584854   0.027267616415613   0.039912831314906 0
force B  -0.034930549804218   0.012581447941020   0.039356589127711 0
force B   0.022349101863198  -0.034930549804218   0.039356589127711 0
force B   0.000000000000000  -0.000000000000000   0.055646134327465 0
force B  -0.000000000000000   0.000000000000000  -0.055646134327465 0
force Na  -0.000000000000000  -0.000000000000000  -0.000000000000000 0

# Energy components:
   Eewald =    -2326.7196389680261746
       EH =    -2151.5362410077736968
     Eloc =     4186.1431193747612269
      Enl =      -21.2997514157285686
   Epulay =       -0.0000190610708103
     EvdW =       -0.0613522945026370
      Exc =      -57.7737476462672319
       KE =      148.9244044784930736
-------------------------------------
     Etot =     -222.3232265401148027
       TS =        0.0000003754676741
-------------------------------------
        F =     -222.3232269155824667

IonicMinimize: Iter:   0  F: -222.323226915582467  |grad|_K:  0.000e+00  t[s]:   1129.04
IonicMinimize: Converged (|grad|_K<1.000000e-04).

#--- Lowdin population analysis ---
# oxidation-state N -0.374 -0.374 -0.378 -0.374 -0.378 -0.373 -0.373 -0.378 -0.374 -0.378 -0.378 -0.374 -0.374 -0.378
# magnetic-moments N -0.000 -0.000 -0.000 -0.000 -0.000 -0.000 -0.000 -0.000 -0.000 -0.000 -0.000 -0.000 -0.000 -0.000
# oxidation-state B +0.426 +0.447 +0.447 +0.447 +0.447 +0.426 +0.426 +0.426 +0.447 +0.447 +0.426 +0.426 +0.447 +0.447
# magnetic-moments B -0.000 -0.000 -0.000 -0.000 -0.000 -0.000 -0.000 -0.000 -0.000 -0.000 -0.000 -0.000 -0.000 -0.000
# oxidation-state Na +0.106
# magnetic-moments Na -0.012


Dumping 'Na-0.301.fillings' ... done
Dumping 'Na-0.301.wfns' ... done
Dumping 'Na-0.301.n_up' ... done
Dumping 'Na-0.301.n_dn' ... done
Dumping 'Na-0.301.eigenvals' ... done
End date and time: Sun Jan 23 16:54:59 2022  (Duration: 0-0:18:57.36)
Done!
