Second Layer Distance is 0.16

--------------------------------------------------------------------------
The library attempted to open the following supporting CUDA libraries,
but each of them failed.  CUDA-aware support is disabled.
libcuda.so.1: cannot open shared object file: No such file or directory
libcuda.dylib: cannot open shared object file: No such file or directory
/usr/lib64/libcuda.so.1: cannot open shared object file: No such file or directory
/usr/lib64/libcuda.dylib: cannot open shared object file: No such file or directory
If you are not interested in CUDA-aware support, then run with
--mca opal_warn_on_missing_libcuda 0 to suppress this message.  If you are interested
in CUDA-aware support, then try setting LD_LIBRARY_PATH to the location
of libcuda.so.1 to get passed this issue.
--------------------------------------------------------------------------
--------------------------------------------------------------------------
No OpenFabrics connection schemes reported that they were able to be
used on a specific port.  As such, the openib BTL (OpenFabrics
support) will be disabled for this port.

  Local host:           d-4-7-1
  Local device:         mlx5_1
  Local port:           1
  CPCs attempted:       rdmacm, udcm
--------------------------------------------------------------------------

*************** JDFTx 1.6.0 (git hash 42ebbcc2) ***************

Start date and time: Mon Jan 24 04:21:45 2022
Executable jdftx with command-line: -i Moire.bands.in
Running on hosts (process indices):  d-4-6-4 (0-47)  d-4-7-1 (48-57)
Divided in process groups (process indices):  0 (0)  1 (1)  2 (2)  3 (3)  4 (4)  5 (5)  6 (6)  7 (7)  8 (8)  9 (9)  10 (10)  11 (11)  12 (12)  13 (13)  14 (14)  15 (15)  16 (16)  17 (17)  18 (18)  19 (19)  20 (20)  21 (21)  22 (22)  23 (23)  24 (24)  25 (25)  26 (26)  27 (27)  28 (28)  29 (29)  30 (30)  31 (31)  32 (32)  33 (33)  34 (34)  35 (35)  36 (36)  37 (37)  38 (38)  39 (39)  40 (40)  41 (41)  42 (42)  43 (43)  44 (44)  45 (45)  46 (46)  47 (47)  48 (48)  49 (49)  50 (50)  51 (51)  52 (52)  53 (53)  54 (54)  55 (55)  56 (56)  57 (57)
Resource initialization completed at t[s]:      0.05
Run totals: 58 processes, 96 threads, 0 GPUs


Input parsed successfully to the following command list (including defaults):

basis kpoint-dependent
coords-type Lattice
core-overlap-check vector
coulomb-interaction Slab 001
davidson-band-ratio 1.1
dump End BandEigs
dump-name Na-bands-0.16.$VAR
elec-cutoff 20
elec-eigen-algo Davidson
elec-ex-corr gga-PBE
elec-initial-magnetization 0.100000 no
elec-smearing Fermi 1e-05
electronic-minimize  \
	dirUpdateScheme      FletcherReeves \
	linminMethod         DirUpdateRecommended \
	nIterations          10000 \
	history              15 \
	knormThreshold       0 \
	energyDiffThreshold  1e-08 \
	nEnergyDiff          2 \
	alphaTstart          1 \
	alphaTmin            1e-10 \
	updateTestStepSize   yes \
	alphaTreduceFactor   0.1 \
	alphaTincreaseFactor 3 \
	nAlphaAdjustMax      3 \
	wolfeEnergy          0.0001 \
	wolfeGradient        0.9 \
	fdTest               no
exchange-regularization WignerSeitzTruncated
fix-electron-density Na-0.16.$VAR
fluid None
fluid-ex-corr (null) lda-PZ
fluid-gummel-loop 10 1.000000e-05
fluid-minimize  \
	dirUpdateScheme      PolakRibiere \
	linminMethod         DirUpdateRecommended \
	nIterations          100 \
	history              15 \
	knormThreshold       0 \
	energyDiffThreshold  0 \
	nEnergyDiff          2 \
	alphaTstart          1 \
	alphaTmin            1e-10 \
	updateTestStepSize   yes \
	alphaTreduceFactor   0.1 \
	alphaTincreaseFactor 3 \
	nAlphaAdjustMax      3 \
	wolfeEnergy          0.0001 \
	wolfeGradient        0.9 \
	fdTest               no
fluid-solvent H2O 55.338 ScalarEOS \
	epsBulk 78.4 \
	pMol 0.92466 \
	epsInf 1.77 \
	Pvap 1.06736e-10 \
	sigmaBulk 4.62e-05 \
	Rvdw 2.61727 \
	Res 1.42 \
	tauNuc 343133 \
	poleEl 15 7 1
forces-output-coords Positions
ion N   0.952380952380952   0.761904761904762   0.000000000000000 0
ion N   1.428571428571428   1.285714285714286   0.160000000000000 0
ion N   0.380952380952381   0.904761904761905   0.000000000000000 0
ion N   0.714285714285714   1.142857142857143   0.160000000000000 0
ion N   0.523809523809524   0.619047619047619   0.000000000000000 0
ion N   1.000000000000000   1.000000000000000   0.160000000000000 0
ion N   0.666666666666667   0.333333333333333   0.000000000000000 0
ion N   1.285714285714286   0.857142857142857   0.160000000000000 0
ion N   0.809523809523810   0.047619047619048   0.000000000000000 0
ion N   1.571428571428571   0.714285714285714   0.160000000000000 0
ion N   0.095238095238095   0.476190476190476   0.000000000000000 0
ion N   0.238095238095238   0.190476190476190   0.000000000000000 0
ion N   0.857142857142857   0.571428571428571   0.160000000000000 0
ion N   1.142857142857143   0.428571428571429   0.160000000000000 0
ion B   0.571428571428572   0.857142857142857   0.000000000000000 0
ion B   0.952380952380952   1.190476190476190   0.160000000000000 0
ion B   0.714285714285714   0.571428571428571   0.000000000000000 0
ion B   1.238095238095238   1.047619047619047   0.160000000000000 0
ion B   0.857142857142857   0.285714285714286   0.000000000000000 0
ion B   1.523809523809524   0.904761904761905   0.160000000000000 0
ion B   0.142857142857143   0.714285714285714   0.000000000000000 0
ion B   0.285714285714286   0.428571428571429   0.000000000000000 0
ion B   0.809523809523810   0.761904761904762   0.160000000000000 0
ion B   0.428571428571429   0.142857142857143   0.000000000000000 0
ion B   1.095238095238095   0.619047619047619   0.160000000000000 0
ion B   1.380952380952381   0.476190476190476   0.160000000000000 0
ion B   0.000000000000000   0.000000000000000   0.000000000000000 0
ion B   0.666666666666667   0.333333333333333   0.160000000000000 0
ion Na   0.333333333300000   0.666666666600000   0.080000000000000 0
ion-species SG15/$ID_ONCV_PBE.upf
ion-width 0
ionic-minimize  \
	dirUpdateScheme      L-BFGS \
	linminMethod         DirUpdateRecommended \
	nIterations          0 \
	history              15 \
	knormThreshold       0.0001 \
	energyDiffThreshold  1e-06 \
	nEnergyDiff          2 \
	alphaTstart          1 \
	alphaTmin            1e-10 \
	updateTestStepSize   yes \
	alphaTreduceFactor   0.1 \
	alphaTincreaseFactor 3 \
	nAlphaAdjustMax      3 \
	wolfeEnergy          0.0001 \
	wolfeGradient        0.9 \
	fdTest               no
kpoint   0.000000000000   0.000000000000   0.000000000000  0.01785714285714
kpoint   0.029411764706   0.000000000000   0.000000000000  0.01785714285714
kpoint   0.058823529412   0.000000000000   0.000000000000  0.01785714285714
kpoint   0.088235294118   0.000000000000   0.000000000000  0.01785714285714
kpoint   0.117647058824   0.000000000000   0.000000000000  0.01785714285714
kpoint   0.147058823529   0.000000000000   0.000000000000  0.01785714285714
kpoint   0.176470588235   0.000000000000   0.000000000000  0.01785714285714
kpoint   0.205882352941   0.000000000000   0.000000000000  0.01785714285714
kpoint   0.235294117647   0.000000000000   0.000000000000  0.01785714285714
kpoint   0.264705882353   0.000000000000   0.000000000000  0.01785714285714
kpoint   0.294117647059   0.000000000000   0.000000000000  0.01785714285714
kpoint   0.323529411765   0.000000000000   0.000000000000  0.01785714285714
kpoint   0.352941176471   0.000000000000   0.000000000000  0.01785714285714
kpoint   0.382352941176   0.000000000000   0.000000000000  0.01785714285714
kpoint   0.411764705882   0.000000000000   0.000000000000  0.01785714285714
kpoint   0.441176470588   0.000000000000   0.000000000000  0.01785714285714
kpoint   0.470588235294   0.000000000000   0.000000000000  0.01785714285714
kpoint   0.500000000000   0.000000000000   0.000000000000  0.01785714285714
kpoint   0.512820512769  -0.025641025385   0.000000000000  0.01785714285714
kpoint   0.525641025538  -0.051282050769   0.000000000000  0.01785714285714
kpoint   0.538461538308  -0.076923076154   0.000000000000  0.01785714285714
kpoint   0.551282051077  -0.102564101538   0.000000000000  0.01785714285714
kpoint   0.564102563846  -0.128205126923   0.000000000000  0.01785714285714
kpoint   0.576923076615  -0.153846152308   0.000000000000  0.01785714285714
kpoint   0.589743589385  -0.179487177692   0.000000000000  0.01785714285714
kpoint   0.602564102154  -0.205128203077   0.000000000000  0.01785714285714
kpoint   0.615384614923  -0.230769228462   0.000000000000  0.01785714285714
kpoint   0.628205127692  -0.256410253846   0.000000000000  0.01785714285714
kpoint   0.641025640462  -0.282051279231   0.000000000000  0.01785714285714
kpoint   0.653846153231  -0.307692304615   0.000000000000  0.01785714285714
kpoint   0.666666666000  -0.333333330000   0.000000000000  0.01785714285714
kpoint   0.639999999360  -0.319999996800   0.000000000000  0.01785714285714
kpoint   0.613333332720  -0.306666663600   0.000000000000  0.01785714285714
kpoint   0.586666666080  -0.293333330400   0.000000000000  0.01785714285714
kpoint   0.559999999440  -0.279999997200   0.000000000000  0.01785714285714
kpoint   0.533333332800  -0.266666664000   0.000000000000  0.01785714285714
kpoint   0.506666666160  -0.253333330800   0.000000000000  0.01785714285714
kpoint   0.479999999520  -0.239999997600   0.000000000000  0.01785714285714
kpoint   0.453333332880  -0.226666664400   0.000000000000  0.01785714285714
kpoint   0.426666666240  -0.213333331200   0.000000000000  0.01785714285714
kpoint   0.399999999600  -0.199999998000   0.000000000000  0.01785714285714
kpoint   0.373333332960  -0.186666664800   0.000000000000  0.01785714285714
kpoint   0.346666666320  -0.173333331600   0.000000000000  0.01785714285714
kpoint   0.319999999680  -0.159999998400   0.000000000000  0.01785714285714
kpoint   0.293333333040  -0.146666665200   0.000000000000  0.01785714285714
kpoint   0.266666666400  -0.133333332000   0.000000000000  0.01785714285714
kpoint   0.239999999760  -0.119999998800   0.000000000000  0.01785714285714
kpoint   0.213333333120  -0.106666665600   0.000000000000  0.01785714285714
kpoint   0.186666666480  -0.093333332400   0.000000000000  0.01785714285714
kpoint   0.159999999840  -0.079999999200   0.000000000000  0.01785714285714
kpoint   0.133333333200  -0.066666666000   0.000000000000  0.01785714285714
kpoint   0.106666666560  -0.053333332800   0.000000000000  0.01785714285714
kpoint   0.079999999920  -0.039999999600   0.000000000000  0.01785714285714
kpoint   0.053333333280  -0.026666666400   0.000000000000  0.01785714285714
kpoint   0.026666666640  -0.013333333200   0.000000000000  0.01785714285714
kpoint   0.000000000000   0.000000000000   0.000000000000  0.01785714285714
kpoint-folding 1 1 1 
latt-move-scale 1 1 1
latt-scale 1 1 1 
lattice  \
	 -11.818700000000000    2.363740000000000    0.000000000000000  \
	   4.094120000000000  -12.282400000000001    0.000000000000000  \
	   0.000000000000000    0.000000000000000   40.000000000000000 
lattice-minimize  \
	dirUpdateScheme      L-BFGS \
	linminMethod         DirUpdateRecommended \
	nIterations          0 \
	history              15 \
	knormThreshold       0 \
	energyDiffThreshold  1e-06 \
	nEnergyDiff          2 \
	alphaTstart          1 \
	alphaTmin            1e-10 \
	updateTestStepSize   yes \
	alphaTreduceFactor   0.1 \
	alphaTincreaseFactor 3 \
	nAlphaAdjustMax      3 \
	wolfeEnergy          0.0001 \
	wolfeGradient        0.9 \
	fdTest               no
lcao-params -1 1e-06 1e-05
pcm-variant GLSSA13
spintype z-spin
subspace-rotation-factor 1 yes
symmetries none
symmetry-threshold 0.0001
van-der-waals D3


Applied RMS atom displacement 0 bohrs to make symmetries exact.

---------- Initializing the Grid ----------
R = 
[     -11.8187      2.36374            0  ]
[      4.09412     -12.2824            0  ]
[            0            0           40  ]
unit cell volume = 5419.38
G =
[  -0.569604   -0.10962          0  ]
[  -0.189867    -0.5481          0  ]
[          0          0    0.15708  ]
Minimum fftbox size, Smin = [  52  52  164  ]
Chosen fftbox size, S = [  54  54  168  ]

---------- Exchange Correlation functional ----------
Initalized PBE GGA exchange.
Initalized PBE GGA correlation.

---------- Setting up pseudopotentials ----------
Width of ionic core gaussian charges (only for fluid interactions / plotting) set to 0

Reading pseudopotential file '/home/gridsan/aligho/DFT/build-Nov24/pseudopotentials/SG15/N_ONCV_PBE.upf':
  'N' pseudopotential, 'PBE' functional
  Generated using ONCVPSP code by D. R. Hamann
  Author: Martin Schlipf and Francois Gygi  Date: 150915.
  5 valence electrons, 2 orbitals, 4 projectors, 1058 radial grid points, with lMax = 1
  Transforming local potential to a uniform radial grid of dG=0.02 with 1514 points.
  Transforming nonlocal projectors to a uniform radial grid of dG=0.02 with 432 points.
    2S    l: 0   occupation:  2.0   eigenvalue: -0.682907
    2P    l: 1   occupation:  3.0   eigenvalue: -0.260548
  Transforming atomic orbitals to a uniform radial grid of dG=0.02 with 432 points.
  Core radius for overlap checks: 1.35 bohrs.
  Reading pulay file /home/gridsan/aligho/DFT/build-Nov24/pseudopotentials/SG15/N_ONCV_PBE.pulay ... using dE_dnG = -2.956256e-02 computed for Ecut = 20.

Reading pseudopotential file '/home/gridsan/aligho/DFT/build-Nov24/pseudopotentials/SG15/B_ONCV_PBE.upf':
  'B' pseudopotential, 'PBE' functional
  Generated using ONCVPSP code by D. R. Hamann
  Author: Martin Schlipf and Francois Gygi  Date: 150915.
  3 valence electrons, 2 orbitals, 4 projectors, 1534 radial grid points, with lMax = 1
  Transforming local potential to a uniform radial grid of dG=0.02 with 1514 points.
  Transforming nonlocal projectors to a uniform radial grid of dG=0.02 with 432 points.
    2S    l: 0   occupation:  2.0   eigenvalue: -0.347027
    2P    l: 1   occupation:  1.0   eigenvalue: -0.132548
  Transforming atomic orbitals to a uniform radial grid of dG=0.02 with 432 points.
  Core radius for overlap checks: 1.60 bohrs.
  Reading pulay file /home/gridsan/aligho/DFT/build-Nov24/pseudopotentials/SG15/B_ONCV_PBE.pulay ... using dE_dnG = -3.748568e-04 computed for Ecut = 20.

Reading pseudopotential file '/home/gridsan/aligho/DFT/build-Nov24/pseudopotentials/SG15/Na_ONCV_PBE.upf':
  'Na' pseudopotential, 'PBE' functional
  Generated using ONCVPSP code by D. R. Hamann
  Author: Martin Schlipf and Francois Gygi  Date: 150915.
  9 valence electrons, 3 orbitals, 4 projectors, 1992 radial grid points, with lMax = 1
  Transforming local potential to a uniform radial grid of dG=0.02 with 1514 points.
  Transforming nonlocal projectors to a uniform radial grid of dG=0.02 with 432 points.
    2S    l: 0   occupation:  2.0   eigenvalue: -2.085640
    2P    l: 1   occupation:  6.0   eigenvalue: -1.053708
    3S    l: 0   occupation:  1.0   eigenvalue: -0.100838
  Transforming atomic orbitals to a uniform radial grid of dG=0.02 with 432 points.
  Core radius for overlap checks: 2.01 bohrs.
  Reading pulay file /home/gridsan/aligho/DFT/build-Nov24/pseudopotentials/SG15/Na_ONCV_PBE.pulay ... using dE_dnG = -2.946487e-03 computed for Ecut = 20.

Initialized 3 species with 29 total atoms.

Folded 56 k-points by 1x1x1 to 56 k-points.

---------- Setting up k-points, bands, fillings ----------
No reducable k-points. 
Computing the number of bands and number of electrons
Calculating initial fillings.
nElectrons: 121.000000   nBands: 117   nStates: 112

----- Setting up reduced wavefunction bases (one per k-point) -----
average nbasis = 23160.018 , ideal nbasis = 23152.016

---------- Setting up coulomb interaction ----------
Initialized slab truncation along lattice direction 001

Initializing DFT-D3 calculator:
	Parameters set for gga-PBE functional
	s6:  1.000  s_r6:  1.217
	s8:  0.722  s_r8:  1.000
	Per-atom parameters loaded for:
	 N:  sqrtQ[a0]:  2.712  Rcov[a0]:  1.342  CN: [ 0.00 0.99 2.01 2.99 ]
	 B:  sqrtQ[a0]:  3.644  Rcov[a0]:  1.455  CN: [ 0.00 0.97 1.94 2.91 4.59 ]
	Na:  sqrtQ[a0]:  6.586  Rcov[a0]:  2.646  CN: [ 0.00 0.97 ]

---------- Setting up 2D ewald sum ----------
Optimum gaussian width for ewald sums = 6.943804 bohr.
Real space sums over 289 unit cells with max indices [  8  8  0  ]
Reciprocal space sums over 81 terms with max indices [  4  4  0  ]

Computing DFT-D3 correction:
# coordination-number N 3.219 3.219 4.127 3.219 4.127 3.157 3.157 4.127 3.219 4.127 4.127 3.219 3.219 4.127
# coordination-number B 4.339 3.456 3.456 3.456 3.456 4.339 4.339 4.339 3.456 3.456 4.339 4.339 3.368 3.368
# coordination-number Na 13.088
# diagonal-C6 N 15.60 15.60 15.58 15.60 15.58 15.60 15.60 15.58 15.60 15.58 15.58 15.60 15.60 15.58
# diagonal-C6 B 28.03 31.38 31.38 31.38 31.38 28.03 28.03 28.03 31.38 31.38 28.03 28.03 31.43 31.43
# diagonal-C6 Na 186.11
EvdW_6 =   -0.044523
EvdW_8 =   -0.038718

---------- Allocating electronic variables ----------
Reading n_up from file 'Na-0.16.n_up' ... done
Reading n_dn from file 'Na-0.16.n_dn' ... done
Initializing wave functions:  linear combination of atomic orbitals
[d-4-6-4:79066] 57 more processes have sent help message help-mpi-common-cuda.txt / dlopen failed
[d-4-6-4:79066] Set MCA parameter "orte_base_help_aggregate" to 0 to see all help / error messages
[d-4-6-4:79066] 57 more processes have sent help message help-mpi-btl-openib-cpc-base.txt / no cpcs for port


---- Citations for features of the code used in this run ----

   Software package:
      R. Sundararaman, K. Letchworth-Weaver, K.A. Schwarz, D. Gunceler, Y. Ozhabes and T.A. Arias, 'JDFTx: software for joint density-functional theory', SoftwareX 6, 278 (2017)

   gga-PBE exchange-correlation functional:
      J.P. Perdew, K. Burke and M. Ernzerhof, Phys. Rev. Lett. 77, 3865 (1996)

   Pseudopotentials:
      M Schlipf and F Gygi, Comput. Phys. Commun. 196, 36 (2015)

   Truncated Coulomb potentials:
      R. Sundararaman and T.A. Arias, Phys. Rev. B 87, 165122 (2013)

   DFT-D3 dispersion correction:
      S. Grimme, J. Antony, S. Ehrlich and H. Krieg, J. Chem. Phys. 132, 154104 (2010)

   Total energy minimization with Auxiliary Hamiltonian:
      C. Freysoldt, S. Boeck, and J. Neugebauer, Phys. Rev. B 79, 241103(R) (2009)

This list may not be complete. Please suggest additional citations or
report any other bugs at https://github.com/shankar1729/jdftx/issues

Initialization completed successfully at t[s]:     18.10


----------- Band structure minimization -------------
Minimization will be done independently for each quantum number.

---- Minimization of quantum number:     0  [ +0.0000000 +0.0000000 +0.0000000 ]  0.017857143  spin +1 ----
BandDavidson: Iter:   0  Eband: -0.227129380129299
BandDavidson: Iter:   1  Eband: -0.346097364173292  dEband: -1.189680e-01  t[s]:     29.37
BandDavidson: Iter:   2  Eband: -0.390449828084670  dEband: -4.435246e-02  t[s]:     36.02
BandDavidson: Iter:   3  Eband: -0.409041620952678  dEband: -1.859179e-02  t[s]:     42.63
BandDavidson: Iter:   4  Eband: -0.424499872483983  dEband: -1.545825e-02  t[s]:     49.22
BandDavidson: Iter:   5  Eband: -0.429687427485999  dEband: -5.187555e-03  t[s]:     55.82
BandDavidson: Iter:   6  Eband: -0.431921538462109  dEband: -2.234111e-03  t[s]:     62.45
BandDavidson: Iter:   7  Eband: -0.433399378442284  dEband: -1.477840e-03  t[s]:     69.06
BandDavidson: Iter:   8  Eband: -0.434542752650588  dEband: -1.143374e-03  t[s]:     75.68
BandDavidson: Iter:   9  Eband: -0.435402820740760  dEband: -8.600681e-04  t[s]:     82.31
BandDavidson: Iter:  10  Eband: -0.436044977749909  dEband: -6.421570e-04  t[s]:     88.91
BandDavidson: Iter:  11  Eband: -0.436524226798116  dEband: -4.792490e-04  t[s]:     95.53
BandDavidson: Iter:  12  Eband: -0.436887476646648  dEband: -3.632498e-04  t[s]:    102.12
BandDavidson: Iter:  13  Eband: -0.437163491978958  dEband: -2.760153e-04  t[s]:    108.70
BandDavidson: Iter:  14  Eband: -0.437377059546283  dEband: -2.135676e-04  t[s]:    115.33
BandDavidson: Iter:  15  Eband: -0.437542602152470  dEband: -1.655426e-04  t[s]:    121.94
BandDavidson: Iter:  16  Eband: -0.437672427303671  dEband: -1.298252e-04  t[s]:    128.54
BandDavidson: Iter:  17  Eband: -0.437773920561067  dEband: -1.014933e-04  t[s]:    135.16
BandDavidson: Iter:  18  Eband: -0.437853591509256  dEband: -7.967095e-05  t[s]:    141.77
BandDavidson: Iter:  19  Eband: -0.437916200107227  dEband: -6.260860e-05  t[s]:    148.31
BandDavidson: Iter:  20  Eband: -0.437965542524338  dEband: -4.934242e-05  t[s]:    154.82
BandDavidson: Iter:  21  Eband: -0.438004687487477  dEband: -3.914496e-05  t[s]:    161.31
BandDavidson: Iter:  22  Eband: -0.438035827421750  dEband: -3.113993e-05  t[s]:    167.74
BandDavidson: Iter:  23  Eband: -0.438060704909785  dEband: -2.487749e-05  t[s]:    174.15
BandDavidson: Iter:  24  Eband: -0.438080649342318  dEband: -1.994443e-05  t[s]:    180.50
BandDavidson: Iter:  25  Eband: -0.438096743062929  dEband: -1.609372e-05  t[s]:    186.81
BandDavidson: Iter:  26  Eband: -0.438109780608885  dEband: -1.303755e-05  t[s]:    193.09
BandDavidson: Iter:  27  Eband: -0.438120362211315  dEband: -1.058160e-05  t[s]:    199.28
BandDavidson: Iter:  28  Eband: -0.438128922384846  dEband: -8.560174e-06  t[s]:    205.11
BandDavidson: Iter:  29  Eband: -0.438135829987266  dEband: -6.907602e-06  t[s]:    210.56
BandDavidson: Iter:  30  Eband: -0.438141431589785  dEband: -5.601603e-06  t[s]:    215.55
BandDavidson: Iter:  31  Eband: -0.438145999940961  dEband: -4.568351e-06  t[s]:    220.30
BandDavidson: Iter:  32  Eband: -0.438149760547573  dEband: -3.760607e-06  t[s]:    225.04
BandDavidson: Iter:  33  Eband: -0.438152890686694  dEband: -3.130139e-06  t[s]:    229.76
BandDavidson: Iter:  34  Eband: -0.438155498584470  dEband: -2.607898e-06  t[s]:    234.34
BandDavidson: Iter:  35  Eband: -0.438157674424228  dEband: -2.175840e-06  t[s]:    238.76
BandDavidson: Iter:  36  Eband: -0.438159485365255  dEband: -1.810941e-06  t[s]:    243.18
BandDavidson: Iter:  37  Eband: -0.438160998868971  dEband: -1.513504e-06  t[s]:    247.52
BandDavidson: Iter:  38  Eband: -0.438162271790103  dEband: -1.272921e-06  t[s]:    251.84
BandDavidson: Iter:  39  Eband: -0.438163348385025  dEband: -1.076595e-06  t[s]:    256.01
BandDavidson: Iter:  40  Eband: -0.438164261186356  dEband: -9.128013e-07  t[s]:    260.21
BandDavidson: Iter:  41  Eband: -0.438165037077581  dEband: -7.758912e-07  t[s]:    264.42
BandDavidson: Iter:  42  Eband: -0.438165697588173  dEband: -6.605106e-07  t[s]:    268.56
BandDavidson: Iter:  43  Eband: -0.438166261894275  dEband: -5.643061e-07  t[s]:    272.69
BandDavidson: Iter:  44  Eband: -0.438166742581392  dEband: -4.806871e-07  t[s]:    276.81
BandDavidson: Iter:  45  Eband: -0.438167153726038  dEband: -4.111446e-07  t[s]:    280.92
BandDavidson: Iter:  46  Eband: -0.438167505120796  dEband: -3.513948e-07  t[s]:    284.93
BandDavidson: Iter:  47  Eband: -0.438167805353290  dEband: -3.002325e-07  t[s]:    288.91
BandDavidson: Iter:  48  Eband: -0.438168062111638  dEband: -2.567583e-07  t[s]:    292.87
BandDavidson: Iter:  49  Eband: -0.438168281888666  dEband: -2.197770e-07  t[s]:    296.84
BandDavidson: Iter:  50  Eband: -0.438168469894979  dEband: -1.880063e-07  t[s]:    300.65
BandDavidson: Iter:  51  Eband: -0.438168630015253  dEband: -1.601203e-07  t[s]:    304.26
BandDavidson: Iter:  52  Eband: -0.438168766959140  dEband: -1.369439e-07  t[s]:    307.85
BandDavidson: Iter:  53  Eband: -0.438168884237756  dEband: -1.172786e-07  t[s]:    311.48
BandDavidson: Iter:  54  Eband: -0.438168985071971  dEband: -1.008342e-07  t[s]:    315.09
BandDavidson: Iter:  55  Eband: -0.438169071791902  dEband: -8.671993e-08  t[s]:    318.72
BandDavidson: Iter:  56  Eband: -0.438169146473419  dEband: -7.468152e-08  t[s]:    322.34
BandDavidson: Iter:  57  Eband: -0.438169210769336  dEband: -6.429592e-08  t[s]:    325.97
BandDavidson: Iter:  58  Eband: -0.438169266202543  dEband: -5.543321e-08  t[s]:    329.61
BandDavidson: Iter:  59  Eband: -0.438169313981667  dEband: -4.777912e-08  t[s]:    333.23
BandDavidson: Iter:  60  Eband: -0.438169355111001  dEband: -4.112933e-08  t[s]:    336.81
BandDavidson: Iter:  61  Eband: -0.438169390452215  dEband: -3.534121e-08  t[s]:    340.37
BandDavidson: Iter:  62  Eband: -0.438169420850011  dEband: -3.039780e-08  t[s]:    343.98
BandDavidson: Iter:  63  Eband: -0.438169447002702  dEband: -2.615269e-08  t[s]:    347.56
BandDavidson: Iter:  64  Eband: -0.438169469500442  dEband: -2.249774e-08  t[s]:    351.15
BandDavidson: Iter:  65  Eband: -0.438169488804370  dEband: -1.930393e-08  t[s]:    354.53
BandDavidson: Iter:  66  Eband: -0.438169505390851  dEband: -1.658648e-08  t[s]:    357.86
BandDavidson: Iter:  67  Eband: -0.438169519665488  dEband: -1.427464e-08  t[s]:    361.22
BandDavidson: Iter:  68  Eband: -0.438169531967724  dEband: -1.230224e-08  t[s]:    364.53
BandDavidson: Iter:  69  Eband: -0.438169542581120  dEband: -1.061340e-08  t[s]:    367.86
BandDavidson: Iter:  70  Eband: -0.438169551743924  dEband: -9.162804e-09  t[s]:    371.22
BandDavidson: Converged (dEband<1.000000e-08)
Setting wave functions to eigenvectors of Hamiltonian
	FillingsUpdate:  mu: -0.064252942  nElectrons: 121.000000  magneticMoment: [ Abs: 0.22696  Tot: +0.18056 ]

Dumping 'Na-bands-0.16.eigenvals' ... done
End date and time: Mon Jan 24 04:35:32 2022  (Duration: 0-0:13:47.33)
Done!
