Second Layer Distance is 0.1

--------------------------------------------------------------------------
The library attempted to open the following supporting CUDA libraries,
but each of them failed.  CUDA-aware support is disabled.
libcuda.so.1: cannot open shared object file: No such file or directory
libcuda.dylib: cannot open shared object file: No such file or directory
/usr/lib64/libcuda.so.1: cannot open shared object file: No such file or directory
/usr/lib64/libcuda.dylib: cannot open shared object file: No such file or directory
If you are not interested in CUDA-aware support, then run with
--mca opal_warn_on_missing_libcuda 0 to suppress this message.  If you are interested
in CUDA-aware support, then try setting LD_LIBRARY_PATH to the location
of libcuda.so.1 to get passed this issue.
--------------------------------------------------------------------------
--------------------------------------------------------------------------
No OpenFabrics connection schemes reported that they were able to be
used on a specific port.  As such, the openib BTL (OpenFabrics
support) will be disabled for this port.

  Local host:           d-3-13-1
  Local device:         mlx5_1
  Local port:           1
  CPCs attempted:       rdmacm, udcm
--------------------------------------------------------------------------

*************** JDFTx 1.6.0 (git hash 42ebbcc2) ***************

Start date and time: Mon Jan 24 04:07:09 2022
Executable jdftx with command-line: -i Moire.bands.in
Running on hosts (process indices):  d-3-12-4 (0-47)  d-3-13-1 (48-57)
Divided in process groups (process indices):  0 (0)  1 (1)  2 (2)  3 (3)  4 (4)  5 (5)  6 (6)  7 (7)  8 (8)  9 (9)  10 (10)  11 (11)  12 (12)  13 (13)  14 (14)  15 (15)  16 (16)  17 (17)  18 (18)  19 (19)  20 (20)  21 (21)  22 (22)  23 (23)  24 (24)  25 (25)  26 (26)  27 (27)  28 (28)  29 (29)  30 (30)  31 (31)  32 (32)  33 (33)  34 (34)  35 (35)  36 (36)  37 (37)  38 (38)  39 (39)  40 (40)  41 (41)  42 (42)  43 (43)  44 (44)  45 (45)  46 (46)  47 (47)  48 (48)  49 (49)  50 (50)  51 (51)  52 (52)  53 (53)  54 (54)  55 (55)  56 (56)  57 (57)
Resource initialization completed at t[s]:      0.04
Run totals: 58 processes, 96 threads, 0 GPUs


Input parsed successfully to the following command list (including defaults):

basis kpoint-dependent
coords-type Lattice
core-overlap-check vector
coulomb-interaction Slab 001
davidson-band-ratio 1.1
dump End BandEigs
dump-name Na-bands-0.1.$VAR
elec-cutoff 20
elec-eigen-algo Davidson
elec-ex-corr gga-PBE
elec-initial-magnetization 0.100000 no
elec-smearing Fermi 1e-05
electronic-minimize  \
	dirUpdateScheme      FletcherReeves \
	linminMethod         DirUpdateRecommended \
	nIterations          10000 \
	history              15 \
	knormThreshold       0 \
	energyDiffThreshold  1e-08 \
	nEnergyDiff          2 \
	alphaTstart          1 \
	alphaTmin            1e-10 \
	updateTestStepSize   yes \
	alphaTreduceFactor   0.1 \
	alphaTincreaseFactor 3 \
	nAlphaAdjustMax      3 \
	wolfeEnergy          0.0001 \
	wolfeGradient        0.9 \
	fdTest               no
exchange-regularization WignerSeitzTruncated
fix-electron-density Na-0.1.$VAR
fluid None
fluid-ex-corr (null) lda-PZ
fluid-gummel-loop 10 1.000000e-05
fluid-minimize  \
	dirUpdateScheme      PolakRibiere \
	linminMethod         DirUpdateRecommended \
	nIterations          100 \
	history              15 \
	knormThreshold       0 \
	energyDiffThreshold  0 \
	nEnergyDiff          2 \
	alphaTstart          1 \
	alphaTmin            1e-10 \
	updateTestStepSize   yes \
	alphaTreduceFactor   0.1 \
	alphaTincreaseFactor 3 \
	nAlphaAdjustMax      3 \
	wolfeEnergy          0.0001 \
	wolfeGradient        0.9 \
	fdTest               no
fluid-solvent H2O 55.338 ScalarEOS \
	epsBulk 78.4 \
	pMol 0.92466 \
	epsInf 1.77 \
	Pvap 1.06736e-10 \
	sigmaBulk 4.62e-05 \
	Rvdw 2.61727 \
	Res 1.42 \
	tauNuc 343133 \
	poleEl 15 7 1
forces-output-coords Positions
ion N   0.952380952380952   0.761904761904762   0.000000000000000 0
ion N   1.428571428571428   1.285714285714286   0.100000000000000 0
ion N   0.380952380952381   0.904761904761905   0.000000000000000 0
ion N   0.714285714285714   1.142857142857143   0.100000000000000 0
ion N   0.523809523809524   0.619047619047619   0.000000000000000 0
ion N   1.000000000000000   1.000000000000000   0.100000000000000 0
ion N   0.666666666666667   0.333333333333333   0.000000000000000 0
ion N   1.285714285714286   0.857142857142857   0.100000000000000 0
ion N   0.809523809523810   0.047619047619048   0.000000000000000 0
ion N   1.571428571428571   0.714285714285714   0.100000000000000 0
ion N   0.095238095238095   0.476190476190476   0.000000000000000 0
ion N   0.238095238095238   0.190476190476190   0.000000000000000 0
ion N   0.857142857142857   0.571428571428571   0.100000000000000 0
ion N   1.142857142857143   0.428571428571429   0.100000000000000 0
ion B   0.571428571428572   0.857142857142857   0.000000000000000 0
ion B   0.952380952380952   1.190476190476190   0.100000000000000 0
ion B   0.714285714285714   0.571428571428571   0.000000000000000 0
ion B   1.238095238095238   1.047619047619047   0.100000000000000 0
ion B   0.857142857142857   0.285714285714286   0.000000000000000 0
ion B   1.523809523809524   0.904761904761905   0.100000000000000 0
ion B   0.142857142857143   0.714285714285714   0.000000000000000 0
ion B   0.285714285714286   0.428571428571429   0.000000000000000 0
ion B   0.809523809523810   0.761904761904762   0.100000000000000 0
ion B   0.428571428571429   0.142857142857143   0.000000000000000 0
ion B   1.095238095238095   0.619047619047619   0.100000000000000 0
ion B   1.380952380952381   0.476190476190476   0.100000000000000 0
ion B   0.000000000000000   0.000000000000000   0.000000000000000 0
ion B   0.666666666666667   0.333333333333333   0.100000000000000 0
ion Na   0.333333333300000   0.666666666600000   0.050000000000000 0
ion-species SG15/$ID_ONCV_PBE.upf
ion-width 0
ionic-minimize  \
	dirUpdateScheme      L-BFGS \
	linminMethod         DirUpdateRecommended \
	nIterations          0 \
	history              15 \
	knormThreshold       0.0001 \
	energyDiffThreshold  1e-06 \
	nEnergyDiff          2 \
	alphaTstart          1 \
	alphaTmin            1e-10 \
	updateTestStepSize   yes \
	alphaTreduceFactor   0.1 \
	alphaTincreaseFactor 3 \
	nAlphaAdjustMax      3 \
	wolfeEnergy          0.0001 \
	wolfeGradient        0.9 \
	fdTest               no
kpoint   0.000000000000   0.000000000000   0.000000000000  0.01785714285714
kpoint   0.029411764706   0.000000000000   0.000000000000  0.01785714285714
kpoint   0.058823529412   0.000000000000   0.000000000000  0.01785714285714
kpoint   0.088235294118   0.000000000000   0.000000000000  0.01785714285714
kpoint   0.117647058824   0.000000000000   0.000000000000  0.01785714285714
kpoint   0.147058823529   0.000000000000   0.000000000000  0.01785714285714
kpoint   0.176470588235   0.000000000000   0.000000000000  0.01785714285714
kpoint   0.205882352941   0.000000000000   0.000000000000  0.01785714285714
kpoint   0.235294117647   0.000000000000   0.000000000000  0.01785714285714
kpoint   0.264705882353   0.000000000000   0.000000000000  0.01785714285714
kpoint   0.294117647059   0.000000000000   0.000000000000  0.01785714285714
kpoint   0.323529411765   0.000000000000   0.000000000000  0.01785714285714
kpoint   0.352941176471   0.000000000000   0.000000000000  0.01785714285714
kpoint   0.382352941176   0.000000000000   0.000000000000  0.01785714285714
kpoint   0.411764705882   0.000000000000   0.000000000000  0.01785714285714
kpoint   0.441176470588   0.000000000000   0.000000000000  0.01785714285714
kpoint   0.470588235294   0.000000000000   0.000000000000  0.01785714285714
kpoint   0.500000000000   0.000000000000   0.000000000000  0.01785714285714
kpoint   0.512820512769  -0.025641025385   0.000000000000  0.01785714285714
kpoint   0.525641025538  -0.051282050769   0.000000000000  0.01785714285714
kpoint   0.538461538308  -0.076923076154   0.000000000000  0.01785714285714
kpoint   0.551282051077  -0.102564101538   0.000000000000  0.01785714285714
kpoint   0.564102563846  -0.128205126923   0.000000000000  0.01785714285714
kpoint   0.576923076615  -0.153846152308   0.000000000000  0.01785714285714
kpoint   0.589743589385  -0.179487177692   0.000000000000  0.01785714285714
kpoint   0.602564102154  -0.205128203077   0.000000000000  0.01785714285714
kpoint   0.615384614923  -0.230769228462   0.000000000000  0.01785714285714
kpoint   0.628205127692  -0.256410253846   0.000000000000  0.01785714285714
kpoint   0.641025640462  -0.282051279231   0.000000000000  0.01785714285714
kpoint   0.653846153231  -0.307692304615   0.000000000000  0.01785714285714
kpoint   0.666666666000  -0.333333330000   0.000000000000  0.01785714285714
kpoint   0.639999999360  -0.319999996800   0.000000000000  0.01785714285714
kpoint   0.613333332720  -0.306666663600   0.000000000000  0.01785714285714
kpoint   0.586666666080  -0.293333330400   0.000000000000  0.01785714285714
kpoint   0.559999999440  -0.279999997200   0.000000000000  0.01785714285714
kpoint   0.533333332800  -0.266666664000   0.000000000000  0.01785714285714
kpoint   0.506666666160  -0.253333330800   0.000000000000  0.01785714285714
kpoint   0.479999999520  -0.239999997600   0.000000000000  0.01785714285714
kpoint   0.453333332880  -0.226666664400   0.000000000000  0.01785714285714
kpoint   0.426666666240  -0.213333331200   0.000000000000  0.01785714285714
kpoint   0.399999999600  -0.199999998000   0.000000000000  0.01785714285714
kpoint   0.373333332960  -0.186666664800   0.000000000000  0.01785714285714
kpoint   0.346666666320  -0.173333331600   0.000000000000  0.01785714285714
kpoint   0.319999999680  -0.159999998400   0.000000000000  0.01785714285714
kpoint   0.293333333040  -0.146666665200   0.000000000000  0.01785714285714
kpoint   0.266666666400  -0.133333332000   0.000000000000  0.01785714285714
kpoint   0.239999999760  -0.119999998800   0.000000000000  0.01785714285714
kpoint   0.213333333120  -0.106666665600   0.000000000000  0.01785714285714
kpoint   0.186666666480  -0.093333332400   0.000000000000  0.01785714285714
kpoint   0.159999999840  -0.079999999200   0.000000000000  0.01785714285714
kpoint   0.133333333200  -0.066666666000   0.000000000000  0.01785714285714
kpoint   0.106666666560  -0.053333332800   0.000000000000  0.01785714285714
kpoint   0.079999999920  -0.039999999600   0.000000000000  0.01785714285714
kpoint   0.053333333280  -0.026666666400   0.000000000000  0.01785714285714
kpoint   0.026666666640  -0.013333333200   0.000000000000  0.01785714285714
kpoint   0.000000000000   0.000000000000   0.000000000000  0.01785714285714
kpoint-folding 1 1 1 
latt-move-scale 1 1 1
latt-scale 1 1 1 
lattice  \
	 -11.818700000000000    2.363740000000000    0.000000000000000  \
	   4.094120000000000  -12.282400000000001    0.000000000000000  \
	   0.000000000000000    0.000000000000000   40.000000000000000 
lattice-minimize  \
	dirUpdateScheme      L-BFGS \
	linminMethod         DirUpdateRecommended \
	nIterations          0 \
	history              15 \
	knormThreshold       0 \
	energyDiffThreshold  1e-06 \
	nEnergyDiff          2 \
	alphaTstart          1 \
	alphaTmin            1e-10 \
	updateTestStepSize   yes \
	alphaTreduceFactor   0.1 \
	alphaTincreaseFactor 3 \
	nAlphaAdjustMax      3 \
	wolfeEnergy          0.0001 \
	wolfeGradient        0.9 \
	fdTest               no
lcao-params -1 1e-06 1e-05
pcm-variant GLSSA13
spintype z-spin
subspace-rotation-factor 1 yes
symmetries none
symmetry-threshold 0.0001
van-der-waals D3


Applied RMS atom displacement 0 bohrs to make symmetries exact.

---------- Initializing the Grid ----------
R = 
[     -11.8187      2.36374            0  ]
[      4.09412     -12.2824            0  ]
[            0            0           40  ]
unit cell volume = 5419.38
G =
[  -0.569604   -0.10962          0  ]
[  -0.189867    -0.5481          0  ]
[          0          0    0.15708  ]
Minimum fftbox size, Smin = [  52  52  164  ]
Chosen fftbox size, S = [  54  54  168  ]

---------- Exchange Correlation functional ----------
Initalized PBE GGA exchange.
Initalized PBE GGA correlation.

---------- Setting up pseudopotentials ----------
Width of ionic core gaussian charges (only for fluid interactions / plotting) set to 0

Reading pseudopotential file '/home/gridsan/aligho/DFT/build-Nov24/pseudopotentials/SG15/N_ONCV_PBE.upf':
  'N' pseudopotential, 'PBE' functional
  Generated using ONCVPSP code by D. R. Hamann
  Author: Martin Schlipf and Francois Gygi  Date: 150915.
  5 valence electrons, 2 orbitals, 4 projectors, 1058 radial grid points, with lMax = 1
  Transforming local potential to a uniform radial grid of dG=0.02 with 1514 points.
  Transforming nonlocal projectors to a uniform radial grid of dG=0.02 with 432 points.
    2S    l: 0   occupation:  2.0   eigenvalue: -0.682907
    2P    l: 1   occupation:  3.0   eigenvalue: -0.260548
  Transforming atomic orbitals to a uniform radial grid of dG=0.02 with 432 points.
  Core radius for overlap checks: 1.35 bohrs.
  Reading pulay file /home/gridsan/aligho/DFT/build-Nov24/pseudopotentials/SG15/N_ONCV_PBE.pulay ... using dE_dnG = -2.956256e-02 computed for Ecut = 20.

Reading pseudopotential file '/home/gridsan/aligho/DFT/build-Nov24/pseudopotentials/SG15/B_ONCV_PBE.upf':
  'B' pseudopotential, 'PBE' functional
  Generated using ONCVPSP code by D. R. Hamann
  Author: Martin Schlipf and Francois Gygi  Date: 150915.
  3 valence electrons, 2 orbitals, 4 projectors, 1534 radial grid points, with lMax = 1
  Transforming local potential to a uniform radial grid of dG=0.02 with 1514 points.
  Transforming nonlocal projectors to a uniform radial grid of dG=0.02 with 432 points.
    2S    l: 0   occupation:  2.0   eigenvalue: -0.347027
    2P    l: 1   occupation:  1.0   eigenvalue: -0.132548
  Transforming atomic orbitals to a uniform radial grid of dG=0.02 with 432 points.
  Core radius for overlap checks: 1.60 bohrs.
  Reading pulay file /home/gridsan/aligho/DFT/build-Nov24/pseudopotentials/SG15/B_ONCV_PBE.pulay ... using dE_dnG = -3.748568e-04 computed for Ecut = 20.

Reading pseudopotential file '/home/gridsan/aligho/DFT/build-Nov24/pseudopotentials/SG15/Na_ONCV_PBE.upf':
  'Na' pseudopotential, 'PBE' functional
  Generated using ONCVPSP code by D. R. Hamann
  Author: Martin Schlipf and Francois Gygi  Date: 150915.
  9 valence electrons, 3 orbitals, 4 projectors, 1992 radial grid points, with lMax = 1
  Transforming local potential to a uniform radial grid of dG=0.02 with 1514 points.
  Transforming nonlocal projectors to a uniform radial grid of dG=0.02 with 432 points.
    2S    l: 0   occupation:  2.0   eigenvalue: -2.085640
    2P    l: 1   occupation:  6.0   eigenvalue: -1.053708
    3S    l: 0   occupation:  1.0   eigenvalue: -0.100838
  Transforming atomic orbitals to a uniform radial grid of dG=0.02 with 432 points.
  Core radius for overlap checks: 2.01 bohrs.
  Reading pulay file /home/gridsan/aligho/DFT/build-Nov24/pseudopotentials/SG15/Na_ONCV_PBE.pulay ... using dE_dnG = -2.946487e-03 computed for Ecut = 20.

Initialized 3 species with 29 total atoms.

Folded 56 k-points by 1x1x1 to 56 k-points.

---------- Setting up k-points, bands, fillings ----------
No reducable k-points. 
Computing the number of bands and number of electrons
Calculating initial fillings.
nElectrons: 121.000000   nBands: 117   nStates: 112

----- Setting up reduced wavefunction bases (one per k-point) -----
average nbasis = 23160.018 , ideal nbasis = 23152.016

---------- Setting up coulomb interaction ----------
Initialized slab truncation along lattice direction 001

Initializing DFT-D3 calculator:
	Parameters set for gga-PBE functional
	s6:  1.000  s_r6:  1.217
	s8:  0.722  s_r8:  1.000
	Per-atom parameters loaded for:
	 N:  sqrtQ[a0]:  2.712  Rcov[a0]:  1.342  CN: [ 0.00 0.99 2.01 2.99 ]
	 B:  sqrtQ[a0]:  3.644  Rcov[a0]:  1.455  CN: [ 0.00 0.97 1.94 2.91 4.59 ]
	Na:  sqrtQ[a0]:  6.586  Rcov[a0]:  2.646  CN: [ 0.00 0.97 ]

---------- Setting up 2D ewald sum ----------
Optimum gaussian width for ewald sums = 6.943804 bohr.
Real space sums over 289 unit cells with max indices [  8  8  0  ]
Reciprocal space sums over 81 terms with max indices [  4  4  0  ]

Computing DFT-D3 correction:
# coordination-number N 3.519 3.519 4.364 3.519 4.364 3.476 3.476 4.364 3.519 4.364 4.364 3.519 3.519 4.364
# coordination-number B 4.750 3.899 3.899 3.899 3.899 4.750 4.750 4.750 3.899 3.899 4.750 4.750 3.768 3.768
# coordination-number Na 15.190
# diagonal-C6 N 15.58 15.58 15.58 15.58 15.58 15.58 15.58 15.58 15.58 15.58 15.58 15.58 15.58 15.58
# diagonal-C6 B 28.03 28.43 28.43 28.43 28.43 28.03 28.03 28.03 28.43 28.43 28.03 28.03 29.50 29.50
# diagonal-C6 Na 186.11
EvdW_6 =   -0.041217
EvdW_8 =   -0.043820

---------- Allocating electronic variables ----------
Reading n_up from file 'Na-0.1.n_up' ... done
Reading n_dn from file 'Na-0.1.n_dn' ... done
Initializing wave functions:  linear combination of atomic orbitals
[d-3-12-4:49224] 57 more processes have sent help message help-mpi-common-cuda.txt / dlopen failed
[d-3-12-4:49224] Set MCA parameter "orte_base_help_aggregate" to 0 to see all help / error messages
[d-3-12-4:49224] 57 more processes have sent help message help-mpi-btl-openib-cpc-base.txt / no cpcs for port


---- Citations for features of the code used in this run ----

   Software package:
      R. Sundararaman, K. Letchworth-Weaver, K.A. Schwarz, D. Gunceler, Y. Ozhabes and T.A. Arias, 'JDFTx: software for joint density-functional theory', SoftwareX 6, 278 (2017)

   gga-PBE exchange-correlation functional:
      J.P. Perdew, K. Burke and M. Ernzerhof, Phys. Rev. Lett. 77, 3865 (1996)

   Pseudopotentials:
      M Schlipf and F Gygi, Comput. Phys. Commun. 196, 36 (2015)

   Truncated Coulomb potentials:
      R. Sundararaman and T.A. Arias, Phys. Rev. B 87, 165122 (2013)

   DFT-D3 dispersion correction:
      S. Grimme, J. Antony, S. Ehrlich and H. Krieg, J. Chem. Phys. 132, 154104 (2010)

   Total energy minimization with Auxiliary Hamiltonian:
      C. Freysoldt, S. Boeck, and J. Neugebauer, Phys. Rev. B 79, 241103(R) (2009)

This list may not be complete. Please suggest additional citations or
report any other bugs at https://github.com/shankar1729/jdftx/issues

Initialization completed successfully at t[s]:     18.28


----------- Band structure minimization -------------
Minimization will be done independently for each quantum number.

---- Minimization of quantum number:     0  [ +0.0000000 +0.0000000 +0.0000000 ]  0.017857143  spin +1 ----
BandDavidson: Iter:   0  Eband: -0.259150859204758
BandDavidson: Iter:   1  Eband: -0.372319704015264  dEband: -1.131688e-01  t[s]:     29.56
BandDavidson: Iter:   2  Eband: -0.421111055601016  dEband: -4.879135e-02  t[s]:     36.07
BandDavidson: Iter:   3  Eband: -0.442809523681238  dEband: -2.169847e-02  t[s]:     42.56
BandDavidson: Iter:   4  Eband: -0.453089448944310  dEband: -1.027993e-02  t[s]:     49.10
BandDavidson: Iter:   5  Eband: -0.459646129968895  dEband: -6.556681e-03  t[s]:     55.67
BandDavidson: Iter:   6  Eband: -0.464193061572063  dEband: -4.546932e-03  t[s]:     62.24
BandDavidson: Iter:   7  Eband: -0.466737057215147  dEband: -2.543996e-03  t[s]:     68.86
BandDavidson: Iter:   8  Eband: -0.468482090442746  dEband: -1.745033e-03  t[s]:     75.44
BandDavidson: Iter:   9  Eband: -0.469826095815625  dEband: -1.344005e-03  t[s]:     82.02
BandDavidson: Iter:  10  Eband: -0.470979975307500  dEband: -1.153879e-03  t[s]:     88.59
BandDavidson: Iter:  11  Eband: -0.471924000741084  dEband: -9.440254e-04  t[s]:     95.18
BandDavidson: Iter:  12  Eband: -0.472705886978530  dEband: -7.818862e-04  t[s]:    101.74
BandDavidson: Iter:  13  Eband: -0.473324945023449  dEband: -6.190580e-04  t[s]:    108.31
BandDavidson: Iter:  14  Eband: -0.473856588228928  dEband: -5.316432e-04  t[s]:    114.88
BandDavidson: Iter:  15  Eband: -0.474306195056959  dEband: -4.496068e-04  t[s]:    121.40
BandDavidson: Iter:  16  Eband: -0.474659720730897  dEband: -3.535257e-04  t[s]:    127.99
BandDavidson: Iter:  17  Eband: -0.474939226026572  dEband: -2.795053e-04  t[s]:    134.51
BandDavidson: Iter:  18  Eband: -0.475186433130148  dEband: -2.472071e-04  t[s]:    141.09
BandDavidson: Iter:  19  Eband: -0.475392622075481  dEband: -2.061889e-04  t[s]:    147.64
BandDavidson: Iter:  20  Eband: -0.475557753627771  dEband: -1.651316e-04  t[s]:    154.16
BandDavidson: Iter:  21  Eband: -0.475687911083789  dEband: -1.301575e-04  t[s]:    160.60
BandDavidson: Iter:  22  Eband: -0.475789998513995  dEband: -1.020874e-04  t[s]:    167.03
BandDavidson: Iter:  23  Eband: -0.475870592628753  dEband: -8.059411e-05  t[s]:    173.47
BandDavidson: Iter:  24  Eband: -0.475934409816325  dEband: -6.381719e-05  t[s]:    179.81
BandDavidson: Iter:  25  Eband: -0.475985106454740  dEband: -5.069664e-05  t[s]:    186.10
BandDavidson: Iter:  26  Eband: -0.476025547245774  dEband: -4.044079e-05  t[s]:    192.27
BandDavidson: Iter:  27  Eband: -0.476057840447255  dEband: -3.229320e-05  t[s]:    198.28
BandDavidson: Iter:  28  Eband: -0.476083634896093  dEband: -2.579445e-05  t[s]:    203.91
BandDavidson: Iter:  29  Eband: -0.476104216595912  dEband: -2.058170e-05  t[s]:    209.18
BandDavidson: Iter:  30  Eband: -0.476120712775874  dEband: -1.649618e-05  t[s]:    214.06
BandDavidson: Iter:  31  Eband: -0.476134040792279  dEband: -1.332802e-05  t[s]:    218.77
BandDavidson: Iter:  32  Eband: -0.476144884818020  dEband: -1.084403e-05  t[s]:    223.45
BandDavidson: Iter:  33  Eband: -0.476153790734608  dEband: -8.905917e-06  t[s]:    228.08
BandDavidson: Iter:  34  Eband: -0.476161112019658  dEband: -7.321285e-06  t[s]:    232.55
BandDavidson: Iter:  35  Eband: -0.476167119093228  dEband: -6.007074e-06  t[s]:    236.87
BandDavidson: Iter:  36  Eband: -0.476172034502470  dEband: -4.915409e-06  t[s]:    240.99
BandDavidson: Iter:  37  Eband: -0.476176089163640  dEband: -4.054661e-06  t[s]:    245.18
BandDavidson: Iter:  38  Eband: -0.476179461263617  dEband: -3.372100e-06  t[s]:    249.38
BandDavidson: Iter:  39  Eband: -0.476182273711064  dEband: -2.812447e-06  t[s]:    253.52
BandDavidson: Iter:  40  Eband: -0.476184626327349  dEband: -2.352616e-06  t[s]:    257.68
BandDavidson: Iter:  41  Eband: -0.476186596407135  dEband: -1.970080e-06  t[s]:    261.79
BandDavidson: Iter:  42  Eband: -0.476188247565210  dEband: -1.651158e-06  t[s]:    265.91
BandDavidson: Iter:  43  Eband: -0.476189632477716  dEband: -1.384913e-06  t[s]:    269.96
BandDavidson: Iter:  44  Eband: -0.476190795019193  dEband: -1.162541e-06  t[s]:    273.99
BandDavidson: Iter:  45  Eband: -0.476191771325954  dEband: -9.763068e-07  t[s]:    277.93
BandDavidson: Iter:  46  Eband: -0.476192592176359  dEband: -8.208504e-07  t[s]:    281.85
BandDavidson: Iter:  47  Eband: -0.476193283642741  dEband: -6.914664e-07  t[s]:    285.78
BandDavidson: Iter:  48  Eband: -0.476193867320242  dEband: -5.836775e-07  t[s]:    289.66
BandDavidson: Iter:  49  Eband: -0.476194360372766  dEband: -4.930525e-07  t[s]:    293.52
BandDavidson: Iter:  50  Eband: -0.476194776949682  dEband: -4.165769e-07  t[s]:    297.41
BandDavidson: Iter:  51  Eband: -0.476195129181605  dEband: -3.522319e-07  t[s]:    301.31
BandDavidson: Iter:  52  Eband: -0.476195426830225  dEband: -2.976486e-07  t[s]:    305.21
BandDavidson: Iter:  53  Eband: -0.476195678665102  dEband: -2.518349e-07  t[s]:    309.10
BandDavidson: Iter:  54  Eband: -0.476195891600215  dEband: -2.129351e-07  t[s]:    312.95
BandDavidson: Iter:  55  Eband: -0.476196071702234  dEband: -1.801020e-07  t[s]:    316.79
BandDavidson: Iter:  56  Eband: -0.476196224000900  dEband: -1.522987e-07  t[s]:    320.62
BandDavidson: Iter:  57  Eband: -0.476196352864128  dEband: -1.288632e-07  t[s]:    324.42
BandDavidson: Iter:  58  Eband: -0.476196461957359  dEband: -1.090932e-07  t[s]:    328.23
BandDavidson: Iter:  59  Eband: -0.476196554295969  dEband: -9.233861e-08  t[s]:    332.03
BandDavidson: Iter:  60  Eband: -0.476196632461409  dEband: -7.816544e-08  t[s]:    335.73
BandDavidson: Iter:  61  Eband: -0.476196698568929  dEband: -6.610752e-08  t[s]:    339.39
BandDavidson: Iter:  62  Eband: -0.476196754453028  dEband: -5.588410e-08  t[s]:    343.05
BandDavidson: Iter:  63  Eband: -0.476196801784371  dEband: -4.733134e-08  t[s]:    346.70
BandDavidson: Iter:  64  Eband: -0.476196841953602  dEband: -4.016923e-08  t[s]:    350.29
BandDavidson: Iter:  65  Eband: -0.476196876074734  dEband: -3.412113e-08  t[s]:    353.88
BandDavidson: Iter:  66  Eband: -0.476196905100042  dEband: -2.902531e-08  t[s]:    357.46
BandDavidson: Iter:  67  Eband: -0.476196929787775  dEband: -2.468773e-08  t[s]:    361.08
BandDavidson: Iter:  68  Eband: -0.476196950755129  dEband: -2.096735e-08  t[s]:    364.65
BandDavidson: Iter:  69  Eband: -0.476196968588161  dEband: -1.783303e-08  t[s]:    368.23
BandDavidson: Iter:  70  Eband: -0.476196983733578  dEband: -1.514542e-08  t[s]:    371.78
BandDavidson: Iter:  71  Eband: -0.476196996605282  dEband: -1.287170e-08  t[s]:    375.29
BandDavidson: Iter:  72  Eband: -0.476197007550031  dEband: -1.094475e-08  t[s]:    378.78
BandDavidson: Iter:  73  Eband: -0.476197016873589  dEband: -9.323558e-09  t[s]:    382.30
BandDavidson: Converged (dEband<1.000000e-08)
Setting wave functions to eigenvectors of Hamiltonian
	FillingsUpdate:  mu: -0.117349739  nElectrons: 121.000000  magneticMoment: [ Abs: 1.10853  Tot: +1.00000 ]

Dumping 'Na-bands-0.1.eigenvals' ... done
End date and time: Mon Jan 24 04:21:14 2022  (Duration: 0-0:14:05.71)
Done!
