Second Layer Distance is 0.196

--------------------------------------------------------------------------
The library attempted to open the following supporting CUDA libraries,
but each of them failed.  CUDA-aware support is disabled.
libcuda.so.1: cannot open shared object file: No such file or directory
libcuda.dylib: cannot open shared object file: No such file or directory
/usr/lib64/libcuda.so.1: cannot open shared object file: No such file or directory
/usr/lib64/libcuda.dylib: cannot open shared object file: No such file or directory
If you are not interested in CUDA-aware support, then run with
--mca opal_warn_on_missing_libcuda 0 to suppress this message.  If you are interested
in CUDA-aware support, then try setting LD_LIBRARY_PATH to the location
of libcuda.so.1 to get passed this issue.
--------------------------------------------------------------------------
--------------------------------------------------------------------------
No OpenFabrics connection schemes reported that they were able to be
used on a specific port.  As such, the openib BTL (OpenFabrics
support) will be disabled for this port.

  Local host:           d-4-15-2
  Local device:         mlx5_1
  Local port:           1
  CPCs attempted:       rdmacm, udcm
--------------------------------------------------------------------------

*************** JDFTx 1.6.0 (git hash 42ebbcc2) ***************

Start date and time: Wed Jan 19 20:04:15 2022
Executable jdftx with command-line: -i Moire.in
Running on hosts (process indices):  d-4-15-2 (0-18)
Divided in process groups (process indices):  0 (0)  1 (1)  2 (2)  3 (3)  4 (4)  5 (5)  6 (6)  7 (7)  8 (8)  9 (9)  10 (10)  11 (11)  12 (12)  13 (13)  14 (14)  15 (15)  16 (16)  17 (17)  18 (18)
Resource initialization completed at t[s]:      0.00
Run totals: 19 processes, 48 threads, 0 GPUs


Input parsed successfully to the following command list (including defaults):

basis kpoint-dependent
coords-type Lattice
core-overlap-check vector
coulomb-interaction Slab 001
davidson-band-ratio 1.1
dump End State ElecDensity BandEigs
dump-name Na-0.196.$VAR
elec-cutoff 20
elec-eigen-algo Davidson
elec-ex-corr gga-PBE
elec-initial-magnetization 0.100000 no
elec-smearing Fermi 1e-05
electronic-minimize  \
	dirUpdateScheme      FletcherReeves \
	linminMethod         DirUpdateRecommended \
	nIterations          100 \
	history              15 \
	knormThreshold       0 \
	energyDiffThreshold  1e-08 \
	nEnergyDiff          2 \
	alphaTstart          1 \
	alphaTmin            1e-10 \
	updateTestStepSize   yes \
	alphaTreduceFactor   0.1 \
	alphaTincreaseFactor 3 \
	nAlphaAdjustMax      3 \
	wolfeEnergy          0.0001 \
	wolfeGradient        0.9 \
	fdTest               no
electronic-scf  \
	nIterations	1000 \
	energyDiffThreshold	1e-08 \
	residualThreshold	1e-07 \
	mixFraction	0.5 \
	qMetric	0.8 \
	history	10 \
	nEigSteps	2 \
	eigDiffThreshold	1e-08 \
	mixedVariable	Density \
	qKerker	0.8 \
	qKappa	-1 \
	verbose	no \
	mixFractionMag	1.5
exchange-regularization WignerSeitzTruncated
fluid None
fluid-ex-corr (null) lda-PZ
fluid-gummel-loop 10 1.000000e-05
fluid-minimize  \
	dirUpdateScheme      PolakRibiere \
	linminMethod         DirUpdateRecommended \
	nIterations          100 \
	history              15 \
	knormThreshold       0 \
	energyDiffThreshold  0 \
	nEnergyDiff          2 \
	alphaTstart          1 \
	alphaTmin            1e-10 \
	updateTestStepSize   yes \
	alphaTreduceFactor   0.1 \
	alphaTincreaseFactor 3 \
	nAlphaAdjustMax      3 \
	wolfeEnergy          0.0001 \
	wolfeGradient        0.9 \
	fdTest               no
fluid-solvent H2O 55.338 ScalarEOS \
	epsBulk 78.4 \
	pMol 0.92466 \
	epsInf 1.77 \
	Pvap 1.06736e-10 \
	sigmaBulk 4.62e-05 \
	Rvdw 2.61727 \
	Res 1.42 \
	tauNuc 343133 \
	poleEl 15 7 1
forces-output-coords Positions
ion N   0.952380952380952   0.761904761904762   0.000000000000000 0
ion N   1.428571428571428   1.285714285714286   0.196000000000000 0
ion N   0.380952380952381   0.904761904761905   0.000000000000000 0
ion N   0.714285714285714   1.142857142857143   0.196000000000000 0
ion N   0.523809523809524   0.619047619047619   0.000000000000000 0
ion N   1.000000000000000   1.000000000000000   0.196000000000000 0
ion N   0.666666666666667   0.333333333333333   0.000000000000000 0
ion N   1.285714285714286   0.857142857142857   0.196000000000000 0
ion N   0.809523809523810   0.047619047619048   0.000000000000000 0
ion N   1.571428571428571   0.714285714285714   0.196000000000000 0
ion N   0.095238095238095   0.476190476190476   0.000000000000000 0
ion N   0.238095238095238   0.190476190476190   0.000000000000000 0
ion N   0.857142857142857   0.571428571428571   0.196000000000000 0
ion N   1.142857142857143   0.428571428571429   0.196000000000000 0
ion B   0.571428571428572   0.857142857142857   0.000000000000000 0
ion B   0.952380952380952   1.190476190476190   0.196000000000000 0
ion B   0.714285714285714   0.571428571428571   0.000000000000000 0
ion B   1.238095238095238   1.047619047619047   0.196000000000000 0
ion B   0.857142857142857   0.285714285714286   0.000000000000000 0
ion B   1.523809523809524   0.904761904761905   0.196000000000000 0
ion B   0.142857142857143   0.714285714285714   0.000000000000000 0
ion B   0.285714285714286   0.428571428571429   0.000000000000000 0
ion B   0.809523809523810   0.761904761904762   0.196000000000000 0
ion B   0.428571428571429   0.142857142857143   0.000000000000000 0
ion B   1.095238095238095   0.619047619047619   0.196000000000000 0
ion B   1.380952380952381   0.476190476190476   0.196000000000000 0
ion B   0.000000000000000   0.000000000000000   0.000000000000000 0
ion B   0.666666666666667   0.333333333333333   0.196000000000000 0
ion Na   0.333333333300000   0.666666666600000   0.098000000000000 0
ion-species SG15/$ID_ONCV_PBE.upf
ion-width 0
ionic-minimize  \
	dirUpdateScheme      L-BFGS \
	linminMethod         DirUpdateRecommended \
	nIterations          0 \
	history              15 \
	knormThreshold       0.0001 \
	energyDiffThreshold  1e-06 \
	nEnergyDiff          2 \
	alphaTstart          1 \
	alphaTmin            1e-10 \
	updateTestStepSize   yes \
	alphaTreduceFactor   0.1 \
	alphaTincreaseFactor 3 \
	nAlphaAdjustMax      3 \
	wolfeEnergy          0.0001 \
	wolfeGradient        0.9 \
	fdTest               no
kpoint   0.000000000000   0.000000000000   0.000000000000  1.00000000000000
kpoint-folding 12 12 1 
latt-move-scale 1 1 1
latt-scale 1 1 1 
lattice  \
	 -11.818700000000000    2.363740000000000    0.000000000000000  \
	   4.094120000000000  -12.282400000000001    0.000000000000000  \
	   0.000000000000000    0.000000000000000   40.000000000000000 
lattice-minimize  \
	dirUpdateScheme      L-BFGS \
	linminMethod         DirUpdateRecommended \
	nIterations          0 \
	history              15 \
	knormThreshold       0 \
	energyDiffThreshold  1e-06 \
	nEnergyDiff          2 \
	alphaTstart          1 \
	alphaTmin            1e-10 \
	updateTestStepSize   yes \
	alphaTreduceFactor   0.1 \
	alphaTincreaseFactor 3 \
	nAlphaAdjustMax      3 \
	wolfeEnergy          0.0001 \
	wolfeGradient        0.9 \
	fdTest               no
lcao-params -1 1e-06 1e-05
pcm-variant GLSSA13
spintype z-spin
subspace-rotation-factor 1 yes
symmetries automatic
symmetry-threshold 0.0001
van-der-waals D3



---------- Setting up symmetries ----------

Found 24 point-group symmetries of the bravais lattice
Found 6 space-group symmetries with basis
Applied RMS atom displacement 1.31765e-10 bohrs to make symmetries exact.

---------- Initializing the Grid ----------
R = 
[     -11.8187      2.36374            0  ]
[      4.09412     -12.2824            0  ]
[            0            0           40  ]
unit cell volume = 5419.38
G =
[  -0.569604   -0.10962          0  ]
[  -0.189867    -0.5481          0  ]
[          0          0    0.15708  ]
Minimum fftbox size, Smin = [  52  52  164  ]
Chosen fftbox size, S = [  54  54  168  ]

---------- Exchange Correlation functional ----------
Initalized PBE GGA exchange.
Initalized PBE GGA correlation.

---------- Setting up pseudopotentials ----------
Width of ionic core gaussian charges (only for fluid interactions / plotting) set to 0

Reading pseudopotential file '/home/gridsan/aligho/DFT/build-Nov24/pseudopotentials/SG15/N_ONCV_PBE.upf':
  'N' pseudopotential, 'PBE' functional
  Generated using ONCVPSP code by D. R. Hamann
  Author: Martin Schlipf and Francois Gygi  Date: 150915.
  5 valence electrons, 2 orbitals, 4 projectors, 1058 radial grid points, with lMax = 1
  Transforming local potential to a uniform radial grid of dG=0.02 with 1514 points.
  Transforming nonlocal projectors to a uniform radial grid of dG=0.02 with 432 points.
    2S    l: 0   occupation:  2.0   eigenvalue: -0.682907
    2P    l: 1   occupation:  3.0   eigenvalue: -0.260548
  Transforming atomic orbitals to a uniform radial grid of dG=0.02 with 432 points.
  Core radius for overlap checks: 1.35 bohrs.
  Reading pulay file /home/gridsan/aligho/DFT/build-Nov24/pseudopotentials/SG15/N_ONCV_PBE.pulay ... using dE_dnG = -2.956256e-02 computed for Ecut = 20.

Reading pseudopotential file '/home/gridsan/aligho/DFT/build-Nov24/pseudopotentials/SG15/B_ONCV_PBE.upf':
  'B' pseudopotential, 'PBE' functional
  Generated using ONCVPSP code by D. R. Hamann
  Author: Martin Schlipf and Francois Gygi  Date: 150915.
  3 valence electrons, 2 orbitals, 4 projectors, 1534 radial grid points, with lMax = 1
  Transforming local potential to a uniform radial grid of dG=0.02 with 1514 points.
  Transforming nonlocal projectors to a uniform radial grid of dG=0.02 with 432 points.
    2S    l: 0   occupation:  2.0   eigenvalue: -0.347027
    2P    l: 1   occupation:  1.0   eigenvalue: -0.132548
  Transforming atomic orbitals to a uniform radial grid of dG=0.02 with 432 points.
  Core radius for overlap checks: 1.60 bohrs.
  Reading pulay file /home/gridsan/aligho/DFT/build-Nov24/pseudopotentials/SG15/B_ONCV_PBE.pulay ... using dE_dnG = -3.748568e-04 computed for Ecut = 20.

Reading pseudopotential file '/home/gridsan/aligho/DFT/build-Nov24/pseudopotentials/SG15/Na_ONCV_PBE.upf':
  'Na' pseudopotential, 'PBE' functional
  Generated using ONCVPSP code by D. R. Hamann
  Author: Martin Schlipf and Francois Gygi  Date: 150915.
  9 valence electrons, 3 orbitals, 4 projectors, 1992 radial grid points, with lMax = 1
  Transforming local potential to a uniform radial grid of dG=0.02 with 1514 points.
  Transforming nonlocal projectors to a uniform radial grid of dG=0.02 with 432 points.
    2S    l: 0   occupation:  2.0   eigenvalue: -2.085640
    2P    l: 1   occupation:  6.0   eigenvalue: -1.053708
    3S    l: 0   occupation:  1.0   eigenvalue: -0.100838
  Transforming atomic orbitals to a uniform radial grid of dG=0.02 with 432 points.
  Core radius for overlap checks: 2.01 bohrs.
  Reading pulay file /home/gridsan/aligho/DFT/build-Nov24/pseudopotentials/SG15/Na_ONCV_PBE.pulay ... using dE_dnG = -2.946487e-03 computed for Ecut = 20.

Initialized 3 species with 29 total atoms.

Folded 1 k-points by 12x12x1 to 144 k-points.

---------- Setting up k-points, bands, fillings ----------
Adding inversion symmetry to k-mesh for non-inversion-symmetric unit cell.
Reduced to 19 k-points under symmetry. 
Computing the number of bands and number of electrons
Calculating initial fillings.
nElectrons: 121.000000   nBands: 117   nStates: 38

----- Setting up reduced wavefunction bases (one per k-point) -----
average nbasis = 23151.771 , ideal nbasis = 23152.016

---------- Setting up coulomb interaction ----------
Initialized slab truncation along lattice direction 001

Initializing DFT-D3 calculator:
	Parameters set for gga-PBE functional
	s6:  1.000  s_r6:  1.217
	s8:  0.722  s_r8:  1.000
	Per-atom parameters loaded for:
	 N:  sqrtQ[a0]:  2.712  Rcov[a0]:  1.342  CN: [ 0.00 0.99 2.01 2.99 ]
	 B:  sqrtQ[a0]:  3.644  Rcov[a0]:  1.455  CN: [ 0.00 0.97 1.94 2.91 4.59 ]
	Na:  sqrtQ[a0]:  6.586  Rcov[a0]:  2.646  CN: [ 0.00 0.97 ]

---------- Setting up 2D ewald sum ----------
Optimum gaussian width for ewald sums = 6.943804 bohr.
Real space sums over 289 unit cells with max indices [  8  8  0  ]
Reciprocal space sums over 81 terms with max indices [  4  4  0  ]

Computing DFT-D3 correction:
# coordination-number N 3.176 3.176 3.998 3.176 3.998 3.148 3.148 3.998 3.176 3.998 3.998 3.176 3.176 3.998
# coordination-number B 4.253 3.395 3.395 3.395 3.395 4.253 4.253 4.253 3.395 3.395 4.253 4.253 3.356 3.356
# coordination-number Na 11.234
# diagonal-C6 N 15.60 15.60 15.58 15.60 15.58 15.61 15.61 15.58 15.60 15.58 15.58 15.60 15.60 15.58
# diagonal-C6 B 28.04 31.42 31.42 31.42 31.42 28.04 28.04 28.04 31.42 31.42 28.04 28.04 31.44 31.44
# diagonal-C6 Na 186.11
EvdW_6 =   -0.038652
EvdW_8 =   -0.031597

---------- Allocating electronic variables ----------
Initializing wave functions:  linear combination of atomic orbitals
N pseudo-atom occupations:   s ( 2 )  p ( 3 )
[d-4-15-2:17108] 18 more processes have sent help message help-mpi-common-cuda.txt / dlopen failed
[d-4-15-2:17108] Set MCA parameter "orte_base_help_aggregate" to 0 to see all help / error messages
[d-4-15-2:17108] 18 more processes have sent help message help-mpi-btl-openib-cpc-base.txt / no cpcs for port
B pseudo-atom occupations:   s ( 2 )  p ( 1 )
Na pseudo-atom occupations:   s ( 2 1 )  p ( 6 )
	FillingsUpdate:  mu: -0.186199388  nElectrons: 121.000000  magneticMoment: [ Abs: 0.12267  Tot: +0.11111 ]
LCAOMinimize: Iter:   0  F: -219.8193346005241153  |grad|_K:  3.301e-03  alpha:  1.000e+00
	FillingsUpdate:  mu: -0.163419797  nElectrons: 121.000000  magneticMoment: [ Abs: 0.13087  Tot: +0.11111 ]
LCAOMinimize: Iter:   1  F: -220.8740466783297620  |grad|_K:  3.621e-04  alpha:  4.393e-01  linmin:  5.467e-01  cgtest: -1.083e+00  t[s]:     51.03
LCAOMinimize: 	Bad step direction: g.d > 0.
LCAOMinimize: 	Undoing step.
LCAOMinimize: 	Step failed: resetting search direction.
	FillingsUpdate:  mu: -0.163419797  nElectrons: 121.000000  magneticMoment: [ Abs: 0.13087  Tot: +0.11111 ]
LCAOMinimize: Iter:   2  F: -220.8740466783297620  |grad|_K:  3.621e-04  alpha:  0.000e+00
	FillingsUpdate:  mu: -0.168777725  nElectrons: 121.000000  magneticMoment: [ Abs: 0.13703  Tot: +0.11111 ]
LCAOMinimize: Iter:   3  F: -220.8884738879233396  |grad|_K:  8.660e-06  alpha:  4.156e-01  linmin:  1.693e-01  cgtest: -3.737e-01  t[s]:     76.69
	FillingsUpdate:  mu: -0.169347718  nElectrons: 121.000000  magneticMoment: [ Abs: 0.14316  Tot: +0.11111 ]
LCAOMinimize: Iter:   4  F: -220.8884845696980790  |grad|_K:  4.254e-06  alpha:  6.266e-01  linmin: -1.179e-04  cgtest:  3.275e-01  t[s]:     91.70
	FillingsUpdate:  mu: -0.169290238  nElectrons: 121.000000  magneticMoment: [ Abs: 0.14627  Tot: +0.11111 ]
LCAOMinimize: Iter:   5  F: -220.8884867439994650  |grad|_K:  1.163e-06  alpha:  4.541e-01  linmin:  1.891e-05  cgtest: -1.098e-02  t[s]:    106.75
	FillingsUpdate:  mu: -0.169230006  nElectrons: 121.000000  magneticMoment: [ Abs: 0.14962  Tot: +0.11111 ]
LCAOMinimize: Iter:   6  F: -220.8884869976901939  |grad|_K:  4.582e-07  alpha:  7.083e-01  linmin:  3.211e-06  cgtest:  1.270e-04  t[s]:    121.96
	FillingsUpdate:  mu: -0.169244184  nElectrons: 121.000000  magneticMoment: [ Abs: 0.15120  Tot: +0.11111 ]
LCAOMinimize: Iter:   7  F: -220.8884870276082779  |grad|_K:  2.134e-07  alpha:  5.384e-01  linmin: -3.187e-05  cgtest:  3.950e-04  t[s]:    137.09
LCAOMinimize: Converged (|Delta F|<1.000000e-06 for 2 iters).


---- Citations for features of the code used in this run ----

   Software package:
      R. Sundararaman, K. Letchworth-Weaver, K.A. Schwarz, D. Gunceler, Y. Ozhabes and T.A. Arias, 'JDFTx: software for joint density-functional theory', SoftwareX 6, 278 (2017)

   gga-PBE exchange-correlation functional:
      J.P. Perdew, K. Burke and M. Ernzerhof, Phys. Rev. Lett. 77, 3865 (1996)

   Pseudopotentials:
      M Schlipf and F Gygi, Comput. Phys. Commun. 196, 36 (2015)

   Truncated Coulomb potentials:
      R. Sundararaman and T.A. Arias, Phys. Rev. B 87, 165122 (2013)

   DFT-D3 dispersion correction:
      S. Grimme, J. Antony, S. Ehrlich and H. Krieg, J. Chem. Phys. 132, 154104 (2010)

This list may not be complete. Please suggest additional citations or
report any other bugs at https://github.com/shankar1729/jdftx/issues

Initialization completed successfully at t[s]:    139.38


Computing DFT-D3 correction:
# coordination-number N 3.176 3.176 3.998 3.176 3.998 3.148 3.148 3.998 3.176 3.998 3.998 3.176 3.176 3.998
# coordination-number B 4.253 3.395 3.395 3.395 3.395 4.253 4.253 4.253 3.395 3.395 4.253 4.253 3.356 3.356
# coordination-number Na 11.234
# diagonal-C6 N 15.60 15.60 15.58 15.60 15.58 15.61 15.61 15.58 15.60 15.58 15.58 15.60 15.60 15.58
# diagonal-C6 B 28.04 31.42 31.42 31.42 31.42 28.04 28.04 28.04 31.42 31.42 28.04 28.04 31.44 31.44
# diagonal-C6 Na 186.11
EvdW_6 =   -0.038652
EvdW_8 =   -0.031597

-------- Electronic minimization -----------
Will mix electronic density at each iteration.
	FillingsUpdate:  mu: -0.169244184  nElectrons: 121.000000  magneticMoment: [ Abs: 0.15120  Tot: +0.11111 ]
	FillingsUpdate:  mu: -0.185239948  nElectrons: 121.000000  magneticMoment: [ Abs: 0.15120  Tot: +0.11111 ]
SCF: Cycle:  0   F: -222.178392599467884   dF: -1.290e+00   |Residual|: 3.863e-01   |deigs|: 1.063e-01  t[s]:    190.30
	FillingsUpdate:  mu: -0.169436270  nElectrons: 121.000000  magneticMoment: [ Abs: 0.29114  Tot: +0.11962 ]
SCF: Cycle:  1   F: -222.236446220101300   dF: -5.805e-02   |Residual|: 2.150e-01   |deigs|: 1.892e-02  t[s]:    229.21
	FillingsUpdate:  mu: -0.145942811  nElectrons: 121.000000  magneticMoment: [ Abs: 0.73466  Tot: +0.15746 ]
SCF: Cycle:  2   F: -222.273131595166092   dF: -3.669e-02   |Residual|: 4.659e-02   |deigs|: 2.390e-02  t[s]:    267.99
	FillingsUpdate:  mu: -0.145426378  nElectrons: 121.000000  magneticMoment: [ Abs: 0.94100  Tot: +0.18433 ]
SCF: Cycle:  3   F: -222.275269345446873   dF: -2.138e-03   |Residual|: 3.814e-02   |deigs|: 2.618e-03  t[s]:    306.75
	FillingsUpdate:  mu: -0.145102728  nElectrons: 121.000000  magneticMoment: [ Abs: 0.96640  Tot: +0.18985 ]
SCF: Cycle:  4   F: -222.275660837356241   dF: -3.915e-04   |Residual|: 3.742e-02   |deigs|: 1.138e-03  t[s]:    345.61
	FillingsUpdate:  mu: -0.131975386  nElectrons: 121.000000  magneticMoment: [ Abs: 1.27891  Tot: +0.42753 ]
SCF: Cycle:  5   F: -222.279395813747840   dF: -3.735e-03   |Residual|: 2.902e-02   |deigs|: 1.308e-02  t[s]:    384.89
	FillingsUpdate:  mu: -0.124097816  nElectrons: 121.000000  magneticMoment: [ Abs: 1.23576  Tot: +0.55142 ]
SCF: Cycle:  6   F: -222.281604675766232   dF: -2.209e-03   |Residual|: 2.548e-02   |deigs|: 7.812e-03  t[s]:    424.10
	FillingsUpdate:  mu: -0.112574727  nElectrons: 121.000000  magneticMoment: [ Abs: 1.26841  Tot: +0.77673 ]
SCF: Cycle:  7   F: -222.282697502231912   dF: -1.093e-03   |Residual|: 1.827e-02   |deigs|: 1.328e-02  t[s]:    463.30
	FillingsUpdate:  mu: -0.104091796  nElectrons: 121.000000  magneticMoment: [ Abs: 1.35526  Tot: +0.93326 ]
SCF: Cycle:  8   F: -222.283627386202227   dF: -9.299e-04   |Residual|: 1.067e-02   |deigs|: 9.627e-03  t[s]:    502.34
	FillingsUpdate:  mu: -0.096846634  nElectrons: 121.000000  magneticMoment: [ Abs: 1.38903  Tot: +1.03493 ]
SCF: Cycle:  9   F: -222.284370541401415   dF: -7.432e-04   |Residual|: 8.688e-03   |deigs|: 7.634e-03  t[s]:    541.84
	FillingsUpdate:  mu: -0.095305840  nElectrons: 121.000000  magneticMoment: [ Abs: 1.32759  Tot: +1.02526 ]
SCF: Cycle: 10   F: -222.284464278143560   dF: -9.374e-05   |Residual|: 6.198e-03   |deigs|: 1.442e-03  t[s]:    581.01
	FillingsUpdate:  mu: -0.092320417  nElectrons: 121.000000  magneticMoment: [ Abs: 1.31380  Tot: +1.02420 ]
SCF: Cycle: 11   F: -222.284695945743977   dF: -2.317e-04   |Residual|: 4.346e-03   |deigs|: 2.756e-03  t[s]:    620.63
	FillingsUpdate:  mu: -0.087905920  nElectrons: 121.000000  magneticMoment: [ Abs: 1.32904  Tot: +1.01914 ]
SCF: Cycle: 12   F: -222.285125480804851   dF: -4.295e-04   |Residual|: 4.725e-03   |deigs|: 4.405e-03  t[s]:    659.91
	FillingsUpdate:  mu: -0.082264510  nElectrons: 121.000000  magneticMoment: [ Abs: 1.31247  Tot: +1.01777 ]
SCF: Cycle: 13   F: -222.285450997810642   dF: -3.255e-04   |Residual|: 4.171e-03   |deigs|: 4.600e-03  t[s]:    699.56
	FillingsUpdate:  mu: -0.074344027  nElectrons: 121.000000  magneticMoment: [ Abs: 1.30938  Tot: +1.01367 ]
SCF: Cycle: 14   F: -222.285935227044092   dF: -4.842e-04   |Residual|: 3.420e-03   |deigs|: 6.936e-03  t[s]:    738.96
	FillingsUpdate:  mu: -0.066605714  nElectrons: 121.000000  magneticMoment: [ Abs: 1.26186  Tot: +0.99434 ]
SCF: Cycle: 15   F: -222.286218572869757   dF: -2.833e-04   |Residual|: 2.644e-03   |deigs|: 6.789e-03  t[s]:    778.47
	FillingsUpdate:  mu: -0.064665996  nElectrons: 121.000000  magneticMoment: [ Abs: 1.21313  Tot: +0.97283 ]
SCF: Cycle: 16   F: -222.286235654887889   dF: -1.708e-05   |Residual|: 1.714e-03   |deigs|: 1.834e-03  t[s]:    817.88
	FillingsUpdate:  mu: -0.063847111  nElectrons: 121.000000  magneticMoment: [ Abs: 1.19090  Tot: +0.96077 ]
SCF: Cycle: 17   F: -222.286238834972863   dF: -3.180e-06   |Residual|: 1.576e-03   |deigs|: 8.830e-04  t[s]:    857.27
	FillingsUpdate:  mu: -0.063513212  nElectrons: 121.000000  magneticMoment: [ Abs: 1.19891  Tot: +0.96574 ]
SCF: Cycle: 18   F: -222.286237996788259   dF: +8.382e-07   |Residual|: 7.970e-04   |deigs|: 7.468e-04  t[s]:    896.53
	FillingsUpdate:  mu: -0.063200027  nElectrons: 121.000000  magneticMoment: [ Abs: 1.19544  Tot: +0.96303 ]
SCF: Cycle: 19   F: -222.286237845835075   dF: +1.510e-07   |Residual|: 2.023e-03   |deigs|: 5.344e-04  t[s]:    935.95
	FillingsUpdate:  mu: -0.063096660  nElectrons: 121.000000  magneticMoment: [ Abs: 1.19784  Tot: +0.96504 ]
SCF: Cycle: 20   F: -222.286238089394033   dF: -2.436e-07   |Residual|: 2.091e-03   |deigs|: 2.688e-04  t[s]:    975.37
	FillingsUpdate:  mu: -0.063061978  nElectrons: 121.000000  magneticMoment: [ Abs: 1.19847  Tot: +0.96541 ]
SCF: Cycle: 21   F: -222.286238145657904   dF: -5.626e-08   |Residual|: 2.111e-03   |deigs|: 2.913e-04  t[s]:   1015.24
	FillingsUpdate:  mu: -0.063097429  nElectrons: 121.000000  magneticMoment: [ Abs: 1.19860  Tot: +0.96573 ]
SCF: Cycle: 22   F: -222.286237596528281   dF: +5.491e-07   |Residual|: 1.270e-03   |deigs|: 3.480e-04  t[s]:   1054.46
	FillingsUpdate:  mu: -0.062794366  nElectrons: 121.000000  magneticMoment: [ Abs: 1.20376  Tot: +0.97078 ]
SCF: Cycle: 23   F: -222.286242868247484   dF: -5.272e-06   |Residual|: 5.662e-04   |deigs|: 7.194e-04  t[s]:   1093.85
	FillingsUpdate:  mu: -0.062518536  nElectrons: 121.000000  magneticMoment: [ Abs: 1.20807  Tot: +0.97466 ]
SCF: Cycle: 24   F: -222.286243862417933   dF: -9.942e-07   |Residual|: 3.163e-04   |deigs|: 5.220e-04  t[s]:   1133.37
	FillingsUpdate:  mu: -0.062270345  nElectrons: 121.000000  magneticMoment: [ Abs: 1.21047  Tot: +0.97677 ]
SCF: Cycle: 25   F: -222.286244098075258   dF: -2.357e-07   |Residual|: 2.271e-04   |deigs|: 8.149e-04  t[s]:   1172.77
	FillingsUpdate:  mu: -0.062162326  nElectrons: 121.000000  magneticMoment: [ Abs: 1.21143  Tot: +0.97768 ]
SCF: Cycle: 26   F: -222.286244180026841   dF: -8.195e-08   |Residual|: 2.023e-04   |deigs|: 2.790e-04  t[s]:   1212.14
	FillingsUpdate:  mu: -0.062073413  nElectrons: 121.000000  magneticMoment: [ Abs: 1.21096  Tot: +0.97767 ]
SCF: Cycle: 27   F: -222.286244202977883   dF: -2.295e-08   |Residual|: 2.202e-04   |deigs|: 1.335e-04  t[s]:   1251.57
	FillingsUpdate:  mu: -0.062056922  nElectrons: 121.000000  magneticMoment: [ Abs: 1.20985  Tot: +0.97765 ]
SCF: Cycle: 28   F: -222.286244199417837   dF: +3.560e-09   |Residual|: 2.468e-04   |deigs|: 2.159e-04  t[s]:   1290.86
	FillingsUpdate:  mu: -0.062033497  nElectrons: 121.000000  magneticMoment: [ Abs: 1.20920  Tot: +0.97798 ]
SCF: Cycle: 29   F: -222.286244199643704   dF: -2.259e-10   |Residual|: 2.534e-04   |deigs|: 1.485e-04  t[s]:   1330.18
	FillingsUpdate:  mu: -0.062035929  nElectrons: 121.000000  magneticMoment: [ Abs: 1.20895  Tot: +0.97813 ]
SCF: Cycle: 30   F: -222.286244196165427   dF: +3.478e-09   |Residual|: 2.584e-04   |deigs|: 7.846e-05  t[s]:   1369.42
	FillingsUpdate:  mu: -0.062034930  nElectrons: 121.000000  magneticMoment: [ Abs: 1.20874  Tot: +0.97824 ]
SCF: Cycle: 31   F: -222.286244196062540   dF: +1.029e-10   |Residual|: 2.626e-04   |deigs|: 2.123e-04  t[s]:   1408.73
	FillingsUpdate:  mu: -0.062077836  nElectrons: 121.000000  magneticMoment: [ Abs: 1.20826  Tot: +0.97793 ]
SCF: Cycle: 32   F: -222.286244188785275   dF: +7.277e-09   |Residual|: 2.762e-04   |deigs|: 3.344e-04  t[s]:   1448.10
	FillingsUpdate:  mu: -0.061597923  nElectrons: 121.000000  magneticMoment: [ Abs: 1.21660  Tot: +0.98358 ]
SCF: Cycle: 33   F: -222.286243945234133   dF: +2.436e-07   |Residual|: 1.382e-04   |deigs|: 1.218e-03  t[s]:   1487.51
	FillingsUpdate:  mu: -0.061599678  nElectrons: 121.000000  magneticMoment: [ Abs: 1.21628  Tot: +0.98418 ]
SCF: Cycle: 34   F: -222.286244076219987   dF: -1.310e-07   |Residual|: 8.276e-05   |deigs|: 2.895e-04  t[s]:   1526.74
	FillingsUpdate:  mu: -0.061632894  nElectrons: 121.000000  magneticMoment: [ Abs: 1.21628  Tot: +0.98469 ]
SCF: Cycle: 35   F: -222.286244115356567   dF: -3.914e-08   |Residual|: 6.104e-05   |deigs|: 1.417e-04  t[s]:   1566.09
	FillingsUpdate:  mu: -0.061723545  nElectrons: 121.000000  magneticMoment: [ Abs: 1.21622  Tot: +0.98485 ]
SCF: Cycle: 36   F: -222.286244170669079   dF: -5.531e-08   |Residual|: 5.131e-05   |deigs|: 5.175e-04  t[s]:   1605.52
	FillingsUpdate:  mu: -0.061811622  nElectrons: 121.000000  magneticMoment: [ Abs: 1.21638  Tot: +0.98522 ]
SCF: Cycle: 37   F: -222.286244211989327   dF: -4.132e-08   |Residual|: 5.063e-05   |deigs|: 4.596e-04  t[s]:   1644.88
	FillingsUpdate:  mu: -0.061941422  nElectrons: 121.000000  magneticMoment: [ Abs: 1.21655  Tot: +0.98578 ]
SCF: Cycle: 38   F: -222.286244264195830   dF: -5.221e-08   |Residual|: 3.722e-05   |deigs|: 3.242e-04  t[s]:   1684.11
	FillingsUpdate:  mu: -0.061990150  nElectrons: 121.000000  magneticMoment: [ Abs: 1.21658  Tot: +0.98611 ]
SCF: Cycle: 39   F: -222.286244279747507   dF: -1.555e-08   |Residual|: 1.999e-05   |deigs|: 1.541e-04  t[s]:   1723.36
	FillingsUpdate:  mu: -0.062007617  nElectrons: 121.000000  magneticMoment: [ Abs: 1.21655  Tot: +0.98620 ]
SCF: Cycle: 40   F: -222.286244283423144   dF: -3.676e-09   |Residual|: 9.343e-06   |deigs|: 6.532e-05  t[s]:   1762.85
	FillingsUpdate:  mu: -0.062013357  nElectrons: 121.000000  magneticMoment: [ Abs: 1.21655  Tot: +0.98620 ]
SCF: Cycle: 41   F: -222.286244284178736   dF: -7.556e-10   |Residual|: 4.928e-06   |deigs|: 3.989e-05  t[s]:   1802.23
SCF: Converged (|Delta E|<1.000000e-08 for 2 iters).


Computing DFT-D3 correction:
# coordination-number N 3.176 3.176 3.998 3.176 3.998 3.148 3.148 3.998 3.176 3.998 3.998 3.176 3.176 3.998
# coordination-number B 4.253 3.395 3.395 3.395 3.395 4.253 4.253 4.253 3.395 3.395 4.253 4.253 3.356 3.356
# coordination-number Na 11.234
# diagonal-C6 N 15.60 15.60 15.58 15.60 15.58 15.61 15.61 15.58 15.60 15.58 15.58 15.60 15.60 15.58
# diagonal-C6 B 28.04 31.42 31.42 31.42 31.42 28.04 28.04 28.04 31.42 31.42 28.04 28.04 31.44 31.44
# diagonal-C6 Na 186.11
EvdW_6 =   -0.038652
EvdW_8 =   -0.031597

# Ionic positions in lattice coordinates:
ion N   0.952380952379803   0.761904761902463   0.000000000000000 0
ion N   1.428571428570279   1.285714285711987   0.196000000000000 0
ion N   0.380952380951232   0.904761904759606   0.000000000000000 0
ion N   0.714285714284565   1.142857142854844   0.196000000000000 0
ion N   0.523809523808374   0.619047619045320   0.000000000000000 0
ion N   0.999999999998850   0.999999999997701   0.196000000000000 0
ion N   0.666666666665517   0.333333333331034   0.000000000000000 0
ion N   1.285714285713136   0.857142857140558   0.196000000000000 0
ion N   0.809523809522660   0.047619047616749   0.000000000000000 0
ion N   1.571428571427422   0.714285714283415   0.196000000000000 0
ion N   0.095238095236946   0.476190476188177   0.000000000000000 0
ion N   0.238095238094089   0.190476190473892   0.000000000000000 0
ion N   0.857142857141708   0.571428571426273   0.196000000000000 0
ion N   1.142857142855993   0.428571428569130   0.196000000000000 0
ion B   0.571428571427422   0.857142857140558   0.000000000000000 0
ion B   0.952380952379803   1.190476190473892   0.196000000000000 0
ion B   0.714285714284565   0.571428571426273   0.000000000000000 0
ion B   1.238095238094089   1.047619047616749   0.196000000000000 0
ion B   0.857142857141708   0.285714285711987   0.000000000000000 0
ion B   1.523809523808374   0.904761904759606   0.196000000000000 0
ion B   0.142857142855993   0.714285714283415   0.000000000000000 0
ion B   0.285714285713136   0.428571428569130   0.000000000000000 0
ion B   0.809523809522660   0.761904761902463   0.196000000000000 0
ion B   0.428571428570279   0.142857142854844   0.000000000000000 0
ion B   1.095238095236946   0.619047619045320   0.196000000000000 0
ion B   1.380952380951231   0.476190476188177   0.196000000000000 0
ion B  -0.000000000001149  -0.000000000002299   0.000000000000000 0
ion B   0.666666666665517   0.333333333331034   0.196000000000000 0
ion Na   0.333333333332184   0.666666666664368   0.098000000000000 0

# Forces in Lattice coordinates:
force N   0.000562276068822  -0.006047996732425   0.049978443687412 0
force N  -0.006047996732425   0.000562276068822  -0.049978443687412 0
force N  -0.019214771296255  -0.022572283860418   0.205560811949153 0
force N   0.005485720663603  -0.006047996732425  -0.049978443687526 0
force N  -0.022572283860416   0.041787055156673   0.205560811949153 0
force N   0.000000000000000   0.000000000000000  -0.048511618679382 0
force N   0.000000000000000   0.000000000000000   0.048511618679495 0
force N   0.041787055156674  -0.022572283860418  -0.205560811949153 0
force N  -0.006047996732426   0.005485720663603   0.049978443687526 0
force N  -0.022572283860416  -0.019214771296256  -0.205560811949153 0
force N   0.041787055156673  -0.019214771296256   0.205560811949152 0
force N   0.005485720663603   0.000562276068822   0.049978443687526 0
force N   0.000562276068822   0.005485720663603  -0.049978443687639 0
force N  -0.019214771296256   0.041787055156674  -0.205560811949153 0
force B   0.120730268640030   0.045680445838573  -0.420654800998754 0
force B  -0.022901653504210  -0.030066369427445   0.012387940408401 0
force B   0.052968022931655  -0.030066369427445  -0.012387940408458 0
force B  -0.030066369427445   0.052968022931655   0.012387940408401 0
force B  -0.030066369427445  -0.022901653504210  -0.012387940408401 0
force B   0.045680445838573   0.120730268640030   0.420654800998754 0
force B  -0.166410714478602   0.120730268640030  -0.420654800998754 0
force B   0.045680445838573  -0.166410714478602  -0.420654800998754 0
force B   0.052968022931655  -0.022901653504210   0.012387940408401 0
force B  -0.022901653504211   0.052968022931655  -0.012387940408458 0
force B  -0.166410714478602   0.045680445838573   0.420654800998754 0
force B   0.120730268640030  -0.166410714478602   0.420654800998754 0
force B   0.000000000000000   0.000000000000000  -0.038125079778213 0
force B   0.000000000000000   0.000000000000000   0.038125079778440 0
force Na   0.000000000000000  -0.000000000000000   0.000000000000000 0

# Energy components:
   Eewald =    -1617.9398294022773825
       EH =    -1443.8793799636407584
     Eloc =     2769.4707295903563136
      Enl =      -21.4348698746394497
   Epulay =       -0.0000190610708103
     EvdW =       -0.0702497036599462
      Exc =      -57.9635587852481251
       KE =      149.5309329160016318
-------------------------------------
     Etot =     -222.2862442841785082
       TS =        0.0000000000002325
-------------------------------------
        F =     -222.2862442841787356

IonicMinimize: Iter:   0  F: -222.286244284178736  |grad|_K:  0.000e+00  t[s]:   1806.40
IonicMinimize: Converged (|grad|_K<1.000000e-04).

#--- Lowdin population analysis ---
# oxidation-state N -0.364 -0.364 -0.382 -0.364 -0.382 -0.370 -0.370 -0.382 -0.364 -0.382 -0.382 -0.364 -0.364 -0.382
# magnetic-moments N -0.012 -0.012 -0.013 -0.012 -0.013 -0.003 -0.003 -0.013 -0.012 -0.013 -0.013 -0.012 -0.012 -0.013
# oxidation-state B +0.329 +0.418 +0.418 +0.418 +0.418 +0.329 +0.329 +0.329 +0.418 +0.418 +0.329 +0.329 +0.427 +0.427
# magnetic-moments B +0.109 +0.049 +0.049 +0.049 +0.049 +0.109 +0.109 +0.109 +0.049 +0.049 +0.109 +0.109 +0.030 +0.030
# oxidation-state Na +0.828
# magnetic-moments Na +0.087


Dumping 'Na-0.196.fillings' ... done
Dumping 'Na-0.196.wfns' ... done
Dumping 'Na-0.196.n_up' ... done
Dumping 'Na-0.196.n_dn' ... done
Dumping 'Na-0.196.eigenvals' ... done
End date and time: Wed Jan 19 20:34:25 2022  (Duration: 0-0:30:10.09)
Done!
