CRYSTAL
PRIMVEC
  4.951321   0.000000   0.000000
 -2.475660   4.287970   0.000000
  0.000000   0.000000  21.167088
PRIMCOORD
8 1
 6   0.000000   0.000000   0.000000
 5  -0.000000   1.462337   0.000000
 5  -1.209239   3.556802   0.000000
 5   2.475660   1.429323   0.000000
 5   1.209239   3.556802   0.000000
 7  -1.231656   2.147550   0.000000
 7   2.475660  -0.007130   0.000000
 7   1.231656   2.147550   0.000000
