CRYSTAL
PRIMVEC
  7.470077   0.000000   0.000000
 -3.735039   6.469297   0.000000
  0.000000   0.000000  21.167088
PRIMCOORD
18 1
 6   0.000000   0.000000   0.000000
 5   0.000000   1.487317   0.000000
 5  -1.243142   3.595134   0.000000
 5  -2.446988   5.725639   0.000000
 5   2.488121   1.436522   0.000000
 5   1.243142   3.595134   0.000000
 5  -0.000000   5.748326   0.000000
 5   4.981957   1.436522   0.000000
 5   3.735039   3.596254   0.000000
 5   2.446988   5.725639   0.000000
 7  -1.249720   2.174237   0.000000
 7  -2.476960   4.299886   0.000000
 7   2.507798  -0.004826   0.000000
 7   1.249720   2.174237   0.000000
 7  -0.000000   4.312865   0.000000
 7   4.962279  -0.004826   0.000000
 7   3.735039   2.156432   0.000000
 7   2.476960   4.299886   0.000000
