Second Layer Distance is 0.331

--------------------------------------------------------------------------
The library attempted to open the following supporting CUDA libraries,
but each of them failed.  CUDA-aware support is disabled.
libcuda.so.1: cannot open shared object file: No such file or directory
libcuda.dylib: cannot open shared object file: No such file or directory
/usr/lib64/libcuda.so.1: cannot open shared object file: No such file or directory
/usr/lib64/libcuda.dylib: cannot open shared object file: No such file or directory
If you are not interested in CUDA-aware support, then run with
--mca opal_warn_on_missing_libcuda 0 to suppress this message.  If you are interested
in CUDA-aware support, then try setting LD_LIBRARY_PATH to the location
of libcuda.so.1 to get passed this issue.
--------------------------------------------------------------------------
--------------------------------------------------------------------------
No OpenFabrics connection schemes reported that they were able to be
used on a specific port.  As such, the openib BTL (OpenFabrics
support) will be disabled for this port.

  Local host:           d-3-9-2
  Local device:         mlx5_1
  Local port:           1
  CPCs attempted:       rdmacm, udcm
--------------------------------------------------------------------------

*************** JDFTx 1.6.0 (git hash 42ebbcc2) ***************

Start date and time: Sat Apr  2 14:20:19 2022
Executable jdftx with command-line: -i Moire.dos.in
Running on hosts (process indices):  d-3-9-2 (0-18)
Divided in process groups (process indices):  0 (0)  1 (1)  2 (2)  3 (3)  4 (4)  5 (5)  6 (6)  7 (7)  8 (8)  9 (9)  10 (10)  11 (11)  12 (12)  13 (13)  14 (14)  15 (15)  16 (16)  17 (17)  18 (18)
Resource initialization completed at t[s]:      0.00
Run totals: 19 processes, 48 threads, 0 GPUs


Input parsed successfully to the following command list (including defaults):

basis kpoint-dependent
coords-type Lattice
core-overlap-check vector
coulomb-interaction Slab 001
davidson-band-ratio 1.1
dump End DOS
dump-name Rb-0.331.$VAR
elec-cutoff 20
elec-eigen-algo Davidson
elec-ex-corr gga-PBE
elec-initial-magnetization 1.000000 no
elec-smearing Fermi 1e-05
electronic-minimize  \
	dirUpdateScheme      FletcherReeves \
	linminMethod         DirUpdateRecommended \
	nIterations          100 \
	history              15 \
	knormThreshold       0 \
	energyDiffThreshold  1e-08 \
	nEnergyDiff          2 \
	alphaTstart          1 \
	alphaTmin            1e-10 \
	updateTestStepSize   yes \
	alphaTreduceFactor   0.1 \
	alphaTincreaseFactor 3 \
	nAlphaAdjustMax      3 \
	wolfeEnergy          0.0001 \
	wolfeGradient        0.9 \
	fdTest               no
exchange-regularization WignerSeitzTruncated
fix-electron-density ../Rb-0.331.$VAR
fluid None
fluid-ex-corr (null) lda-PZ
fluid-gummel-loop 10 1.000000e-05
fluid-minimize  \
	dirUpdateScheme      PolakRibiere \
	linminMethod         DirUpdateRecommended \
	nIterations          100 \
	history              15 \
	knormThreshold       0 \
	energyDiffThreshold  0 \
	nEnergyDiff          2 \
	alphaTstart          1 \
	alphaTmin            1e-10 \
	updateTestStepSize   yes \
	alphaTreduceFactor   0.1 \
	alphaTincreaseFactor 3 \
	nAlphaAdjustMax      3 \
	wolfeEnergy          0.0001 \
	wolfeGradient        0.9 \
	fdTest               no
fluid-solvent H2O 55.338 ScalarEOS \
	epsBulk 78.4 \
	pMol 0.92466 \
	epsInf 1.77 \
	Pvap 1.06736e-10 \
	sigmaBulk 4.62e-05 \
	Rvdw 2.61727 \
	Res 1.42 \
	tauNuc 343133 \
	poleEl 15 7 1
forces-output-coords Positions
ion N   0.952380952380952   0.761904761904762   0.000000000000000 0
ion N   1.428571428571428   1.285714285714286   0.331000000000000 0
ion N   0.380952380952381   0.904761904761905   0.000000000000000 0
ion N   0.714285714285714   1.142857142857143   0.331000000000000 0
ion N   0.523809523809524   0.619047619047619   0.000000000000000 0
ion N   1.000000000000000   1.000000000000000   0.331000000000000 0
ion N   0.666666666666667   0.333333333333333   0.000000000000000 0
ion N   1.285714285714286   0.857142857142857   0.331000000000000 0
ion N   0.809523809523810   0.047619047619048   0.000000000000000 0
ion N   1.571428571428571   0.714285714285714   0.331000000000000 0
ion N   0.095238095238095   0.476190476190476   0.000000000000000 0
ion N   0.238095238095238   0.190476190476190   0.000000000000000 0
ion N   0.857142857142857   0.571428571428571   0.331000000000000 0
ion N   1.142857142857143   0.428571428571429   0.331000000000000 0
ion B   0.571428571428572   0.857142857142857   0.000000000000000 0
ion B   0.952380952380952   1.190476190476190   0.331000000000000 0
ion B   0.714285714285714   0.571428571428571   0.000000000000000 0
ion B   1.238095238095238   1.047619047619047   0.331000000000000 0
ion B   0.857142857142857   0.285714285714286   0.000000000000000 0
ion B   1.523809523809524   0.904761904761905   0.331000000000000 0
ion B   0.142857142857143   0.714285714285714   0.000000000000000 0
ion B   0.285714285714286   0.428571428571429   0.000000000000000 0
ion B   0.809523809523810   0.761904761904762   0.331000000000000 0
ion B   0.428571428571429   0.142857142857143   0.000000000000000 0
ion B   1.095238095238095   0.619047619047619   0.331000000000000 0
ion B   1.380952380952381   0.476190476190476   0.331000000000000 0
ion B   0.000000000000000   0.000000000000000   0.000000000000000 0
ion B   0.666666666666667   0.333333333333333   0.331000000000000 0
ion Rb   0.333333333300000   0.666666666600000   0.165500000000000 0
ion-species SG15/$ID_ONCV_PBE.upf
ion-width 0
ionic-minimize  \
	dirUpdateScheme      L-BFGS \
	linminMethod         DirUpdateRecommended \
	nIterations          0 \
	history              15 \
	knormThreshold       0.0001 \
	energyDiffThreshold  1e-06 \
	nEnergyDiff          2 \
	alphaTstart          1 \
	alphaTmin            1e-10 \
	updateTestStepSize   yes \
	alphaTreduceFactor   0.1 \
	alphaTincreaseFactor 3 \
	nAlphaAdjustMax      3 \
	wolfeEnergy          0.0001 \
	wolfeGradient        0.9 \
	fdTest               no
kpoint   0.000000000000   0.000000000000   0.000000000000  1.00000000000000
kpoint-folding 36 36 1 
latt-move-scale 1 1 1
latt-scale 1 1 1 
lattice  \
	 -11.818700000000000    2.363740000000000    0.000000000000000  \
	   4.094120000000000  -12.282400000000001    0.000000000000000  \
	   0.000000000000000    0.000000000000000   40.000000000000000 
lattice-minimize  \
	dirUpdateScheme      L-BFGS \
	linminMethod         DirUpdateRecommended \
	nIterations          0 \
	history              15 \
	knormThreshold       0 \
	energyDiffThreshold  1e-06 \
	nEnergyDiff          2 \
	alphaTstart          1 \
	alphaTmin            1e-10 \
	updateTestStepSize   yes \
	alphaTreduceFactor   0.1 \
	alphaTincreaseFactor 3 \
	nAlphaAdjustMax      3 \
	wolfeEnergy          0.0001 \
	wolfeGradient        0.9 \
	fdTest               no
lcao-params -1 1e-06 1e-05
pcm-variant GLSSA13
spintype z-spin
subspace-rotation-factor 1 yes
symmetries automatic
symmetry-threshold 0.0001
van-der-waals D3



---------- Setting up symmetries ----------

Found 24 point-group symmetries of the bravais lattice
Found 6 space-group symmetries with basis
Applied RMS atom displacement 1.31765e-10 bohrs to make symmetries exact.

---------- Initializing the Grid ----------
R = 
[     -11.8187      2.36374            0  ]
[      4.09412     -12.2824            0  ]
[            0            0           40  ]
unit cell volume = 5419.38
G =
[  -0.569604   -0.10962          0  ]
[  -0.189867    -0.5481          0  ]
[          0          0    0.15708  ]
Minimum fftbox size, Smin = [  52  52  164  ]
Chosen fftbox size, S = [  54  54  168  ]

---------- Exchange Correlation functional ----------
Initalized PBE GGA exchange.
Initalized PBE GGA correlation.

---------- Setting up pseudopotentials ----------
Width of ionic core gaussian charges (only for fluid interactions / plotting) set to 0

Reading pseudopotential file '/home/gridsan/aligho/DFT/build-Nov24/pseudopotentials/SG15/N_ONCV_PBE.upf':
  'N' pseudopotential, 'PBE' functional
  Generated using ONCVPSP code by D. R. Hamann
  Author: Martin Schlipf and Francois Gygi  Date: 150915.
  5 valence electrons, 2 orbitals, 4 projectors, 1058 radial grid points, with lMax = 1
  Transforming local potential to a uniform radial grid of dG=0.02 with 1514 points.
  Transforming nonlocal projectors to a uniform radial grid of dG=0.02 with 432 points.
    2S    l: 0   occupation:  2.0   eigenvalue: -0.682907
    2P    l: 1   occupation:  3.0   eigenvalue: -0.260548
  Transforming atomic orbitals to a uniform radial grid of dG=0.02 with 432 points.
  Core radius for overlap checks: 1.35 bohrs.
  Reading pulay file /home/gridsan/aligho/DFT/build-Nov24/pseudopotentials/SG15/N_ONCV_PBE.pulay ... using dE_dnG = -2.956256e-02 computed for Ecut = 20.

Reading pseudopotential file '/home/gridsan/aligho/DFT/build-Nov24/pseudopotentials/SG15/B_ONCV_PBE.upf':
  'B' pseudopotential, 'PBE' functional
  Generated using ONCVPSP code by D. R. Hamann
  Author: Martin Schlipf and Francois Gygi  Date: 150915.
  3 valence electrons, 2 orbitals, 4 projectors, 1534 radial grid points, with lMax = 1
  Transforming local potential to a uniform radial grid of dG=0.02 with 1514 points.
  Transforming nonlocal projectors to a uniform radial grid of dG=0.02 with 432 points.
    2S    l: 0   occupation:  2.0   eigenvalue: -0.347027
    2P    l: 1   occupation:  1.0   eigenvalue: -0.132548
  Transforming atomic orbitals to a uniform radial grid of dG=0.02 with 432 points.
  Core radius for overlap checks: 1.60 bohrs.
  Reading pulay file /home/gridsan/aligho/DFT/build-Nov24/pseudopotentials/SG15/B_ONCV_PBE.pulay ... using dE_dnG = -3.748568e-04 computed for Ecut = 20.

Reading pseudopotential file '/home/gridsan/aligho/DFT/build-Nov24/pseudopotentials/SG15/Rb_ONCV_PBE.upf':
  'Rb' pseudopotential, 'PBE' functional
  Generated using ONCVPSP code by D. R. Hamann
  Author: Martin Schlipf and Francois Gygi  Date: 150915.
  9 valence electrons, 3 orbitals, 6 projectors, 2308 radial grid points, with lMax = 2
  Transforming local potential to a uniform radial grid of dG=0.02 with 1514 points.
  Transforming nonlocal projectors to a uniform radial grid of dG=0.02 with 432 points.
    4S    l: 0   occupation:  2.0   eigenvalue: -1.172069
    4P    l: 1   occupation:  6.0   eigenvalue: -0.586674
    5S    l: 0   occupation:  1.0   eigenvalue: -0.082006
  Transforming atomic orbitals to a uniform radial grid of dG=0.02 with 432 points.
  Core radius for overlap checks: 2.60 bohrs.
  Reading pulay file /home/gridsan/aligho/DFT/build-Nov24/pseudopotentials/SG15/Rb_ONCV_PBE.pulay ... using dE_dnG = -1.360715e-05 computed for Ecut = 20.

Initialized 3 species with 29 total atoms.

Folded 1 k-points by 36x36x1 to 1296 k-points.

---------- Setting up k-points, bands, fillings ----------
Adding inversion symmetry to k-mesh for non-inversion-symmetric unit cell.
Reduced to 127 k-points under symmetry. 
Computing the number of bands and number of electrons
Calculating initial fillings.
nElectrons: 121.000000   nBands: 117   nStates: 254

----- Setting up reduced wavefunction bases (one per k-point) -----
average nbasis = 23152.266 , ideal nbasis = 23152.016

----- Initializing Supercell corresponding to k-point mesh -----
Lattice vector linear combinations in supercell:
[  36   0   0  ]
[   0  36   0  ]
[   0   0   1  ]
Supercell lattice vectors:
[  -425.473  85.0946  0  ]
[  147.388  -442.166  0  ]
[  0  0  40  ]

---------- Setting up coulomb interaction ----------
Initialized slab truncation along lattice direction 001

Initializing DFT-D3 calculator:
	Parameters set for gga-PBE functional
	s6:  1.000  s_r6:  1.217
	s8:  0.722  s_r8:  1.000
	Per-atom parameters loaded for:
	 N:  sqrtQ[a0]:  2.712  Rcov[a0]:  1.342  CN: [ 0.00 0.99 2.01 2.99 ]
	 B:  sqrtQ[a0]:  3.644  Rcov[a0]:  1.455  CN: [ 0.00 0.97 1.94 2.91 4.59 ]
	Rb:  sqrtQ[a0]:  9.555  Rcov[a0]:  3.572  CN: [ 0.00 0.97 ]

---------- Setting up 2D ewald sum ----------
Optimum gaussian width for ewald sums = 6.943804 bohr.
Real space sums over 289 unit cells with max indices [  8  8  0  ]
Reciprocal space sums over 81 terms with max indices [  4  4  0  ]

Computing DFT-D3 correction:
# coordination-number N 3.165 3.165 3.342 3.165 3.342 3.151 3.151 3.342 3.165 3.342 3.342 3.165 3.165 3.342
# coordination-number B 3.606 3.377 3.377 3.377 3.377 3.606 3.606 3.606 3.377 3.377 3.606 3.606 3.359 3.359
# coordination-number Rb 3.428
# diagonal-C6 N 15.60 15.60 15.59 15.60 15.59 15.61 15.61 15.59 15.60 15.59 15.59 15.60 15.60 15.59
# diagonal-C6 B 30.99 31.43 31.43 31.43 31.43 30.99 30.99 30.99 31.43 31.43 30.99 30.99 31.44 31.44
# diagonal-C6 Rb 476.26
EvdW_6 =   -0.031789
EvdW_8 =   -0.034147

---------- Allocating electronic variables ----------
Reading n_up from file '../Rb-0.331.n_up' ... done
Reading n_dn from file '../Rb-0.331.n_dn' ... done
Initializing wave functions:  linear combination of atomic orbitals
[d-3-9-2:07238] 18 more processes have sent help message help-mpi-common-cuda.txt / dlopen failed
[d-3-9-2:07238] Set MCA parameter "orte_base_help_aggregate" to 0 to see all help / error messages
[d-3-9-2:07238] 18 more processes have sent help message help-mpi-btl-openib-cpc-base.txt / no cpcs for port


---- Citations for features of the code used in this run ----

   Software package:
      R. Sundararaman, K. Letchworth-Weaver, K.A. Schwarz, D. Gunceler, Y. Ozhabes and T.A. Arias, 'JDFTx: software for joint density-functional theory', SoftwareX 6, 278 (2017)

   gga-PBE exchange-correlation functional:
      J.P. Perdew, K. Burke and M. Ernzerhof, Phys. Rev. Lett. 77, 3865 (1996)

   Pseudopotentials:
      M Schlipf and F Gygi, Comput. Phys. Commun. 196, 36 (2015)

   Truncated Coulomb potentials:
      R. Sundararaman and T.A. Arias, Phys. Rev. B 87, 165122 (2013)

   DFT-D3 dispersion correction:
      S. Grimme, J. Antony, S. Ehrlich and H. Krieg, J. Chem. Phys. 132, 154104 (2010)

   Total energy minimization with Auxiliary Hamiltonian:
      C. Freysoldt, S. Boeck, and J. Neugebauer, Phys. Rev. B 79, 241103(R) (2009)

   Linear-tetrahedron sampling for density of states:
      G. Lehmann and M. Taut, Phys. status solidi (b) 54, 469 (1972)

This list may not be complete. Please suggest additional citations or
report any other bugs at https://github.com/shankar1729/jdftx/issues

Initialization completed successfully at t[s]:     93.55


----------- Band structure minimization -------------
Minimization will be done independently for each quantum number.

---- Minimization of quantum number:     0  [ +0.0000000 +0.0000000 +0.0000000 ]  0.000771605  spin +1 ----
BandDavidson: Iter:   0  Eband: -0.007433651845569
BandDavidson: Iter:   1  Eband: -0.013018398527463  dEband: -5.584747e-03  t[s]:    103.70
BandDavidson: Iter:   2  Eband: -0.014836950219745  dEband: -1.818552e-03  t[s]:    109.81
BandDavidson: Iter:   3  Eband: -0.015785326583561  dEband: -9.483764e-04  t[s]:    115.95
BandDavidson: Iter:   4  Eband: -0.016335704174945  dEband: -5.503776e-04  t[s]:    122.02
BandDavidson: Iter:   5  Eband: -0.016484668958298  dEband: -1.489648e-04  t[s]:    128.06
BandDavidson: Iter:   6  Eband: -0.016572551672817  dEband: -8.788271e-05  t[s]:    134.12
BandDavidson: Iter:   7  Eband: -0.016656095482319  dEband: -8.354381e-05  t[s]:    140.20
BandDavidson: Iter:   8  Eband: -0.016714021762434  dEband: -5.792628e-05  t[s]:    146.34
BandDavidson: Iter:   9  Eband: -0.016755089211601  dEband: -4.106745e-05  t[s]:    152.61
BandDavidson: Iter:  10  Eband: -0.016776935557262  dEband: -2.184635e-05  t[s]:    158.85
BandDavidson: Iter:  11  Eband: -0.016790808842197  dEband: -1.387328e-05  t[s]:    164.89
BandDavidson: Iter:  12  Eband: -0.016800790111713  dEband: -9.981270e-06  t[s]:    171.06
BandDavidson: Iter:  13  Eband: -0.016808349344916  dEband: -7.559233e-06  t[s]:    177.14
BandDavidson: Iter:  14  Eband: -0.016814339732747  dEband: -5.990388e-06  t[s]:    183.25
BandDavidson: Iter:  15  Eband: -0.016819235598659  dEband: -4.895866e-06  t[s]:    189.45
BandDavidson: Iter:  16  Eband: -0.016823388044531  dEband: -4.152446e-06  t[s]:    195.71
BandDavidson: Iter:  17  Eband: -0.016827049072823  dEband: -3.661028e-06  t[s]:    201.88
BandDavidson: Iter:  18  Eband: -0.016830401864946  dEband: -3.352792e-06  t[s]:    208.05
BandDavidson: Iter:  19  Eband: -0.016833595583127  dEband: -3.193718e-06  t[s]:    214.14
BandDavidson: Iter:  20  Eband: -0.016836759695433  dEband: -3.164112e-06  t[s]:    220.22
BandDavidson: Iter:  21  Eband: -0.016839918026493  dEband: -3.158331e-06  t[s]:    226.05
BandDavidson: Iter:  22  Eband: -0.016843176278902  dEband: -3.258252e-06  t[s]:    231.87
BandDavidson: Iter:  23  Eband: -0.016847146162743  dEband: -3.969884e-06  t[s]:    237.67
BandDavidson: Iter:  24  Eband: -0.016850672038935  dEband: -3.525876e-06  t[s]:    243.48
BandDavidson: Iter:  25  Eband: -0.016853664149746  dEband: -2.992111e-06  t[s]:    249.28
BandDavidson: Iter:  26  Eband: -0.016856158991376  dEband: -2.494842e-06  t[s]:    254.99
BandDavidson: Iter:  27  Eband: -0.016858217304496  dEband: -2.058313e-06  t[s]:    260.75
BandDavidson: Iter:  28  Eband: -0.016859889566955  dEband: -1.672262e-06  t[s]:    266.41
BandDavidson: Iter:  29  Eband: -0.016861246765734  dEband: -1.357199e-06  t[s]:    271.78
BandDavidson: Iter:  30  Eband: -0.016862352315660  dEband: -1.105550e-06  t[s]:    276.90
BandDavidson: Iter:  31  Eband: -0.016863248327072  dEband: -8.960114e-07  t[s]:    281.55
BandDavidson: Iter:  32  Eband: -0.016863970701560  dEband: -7.223745e-07  t[s]:    285.97
BandDavidson: Iter:  33  Eband: -0.016864597463921  dEband: -6.267624e-07  t[s]:    290.17
BandDavidson: Iter:  34  Eband: -0.016865165356230  dEband: -5.678923e-07  t[s]:    294.42
BandDavidson: Iter:  35  Eband: -0.016865635803545  dEband: -4.704473e-07  t[s]:    298.72
BandDavidson: Iter:  36  Eband: -0.016866021056395  dEband: -3.852529e-07  t[s]:    303.04
BandDavidson: Iter:  37  Eband: -0.016866338657589  dEband: -3.176012e-07  t[s]:    307.26
BandDavidson: Iter:  38  Eband: -0.016866598708602  dEband: -2.600510e-07  t[s]:    311.36
BandDavidson: Iter:  39  Eband: -0.016866811745642  dEband: -2.130370e-07  t[s]:    315.31
BandDavidson: Iter:  40  Eband: -0.016866985352863  dEband: -1.736072e-07  t[s]:    319.18
BandDavidson: Iter:  41  Eband: -0.016867128070412  dEband: -1.427175e-07  t[s]:    323.04
BandDavidson: Iter:  42  Eband: -0.016867245834545  dEband: -1.177641e-07  t[s]:    326.87
BandDavidson: Iter:  43  Eband: -0.016867343669156  dEband: -9.783461e-08  t[s]:    330.68
BandDavidson: Iter:  44  Eband: -0.016867425087995  dEband: -8.141884e-08  t[s]:    334.49
BandDavidson: Iter:  45  Eband: -0.016867492816999  dEband: -6.772900e-08  t[s]:    338.29
BandDavidson: Iter:  46  Eband: -0.016867549249552  dEband: -5.643255e-08  t[s]:    342.00
BandDavidson: Iter:  47  Eband: -0.016867596022160  dEband: -4.677261e-08  t[s]:    345.78
BandDavidson: Iter:  48  Eband: -0.016867635074105  dEband: -3.905194e-08  t[s]:    349.49
BandDavidson: Iter:  49  Eband: -0.016867667639314  dEband: -3.256521e-08  t[s]:    353.18
BandDavidson: Iter:  50  Eband: -0.016867694890755  dEband: -2.725144e-08  t[s]:    356.78
BandDavidson: Iter:  51  Eband: -0.016867717681285  dEband: -2.279053e-08  t[s]:    360.32
BandDavidson: Iter:  52  Eband: -0.016867736641879  dEband: -1.896059e-08  t[s]:    363.81
BandDavidson: Iter:  53  Eband: -0.016867752428647  dEband: -1.578677e-08  t[s]:    367.28
BandDavidson: Iter:  54  Eband: -0.016867765735151  dEband: -1.330650e-08  t[s]:    370.77
BandDavidson: Iter:  55  Eband: -0.016867777021948  dEband: -1.128680e-08  t[s]:    374.26
BandDavidson: Iter:  56  Eband: -0.016867786625102  dEband: -9.603154e-09  t[s]:    377.77
BandDavidson: Converged (dEband<1.000000e-08)

---- Minimization of quantum number:     1  [ +0.0000000 +0.0277778 +0.0000000 ]  0.004629630  spin +1 ----
BandDavidson: Iter:   0  Eband: -0.044608278984484
BandDavidson: Iter:   1  Eband: -0.078304808089760  dEband: -3.369653e-02  t[s]:    387.35
BandDavidson: Iter:   2  Eband: -0.089188872318885  dEband: -1.088406e-02  t[s]:    393.52
BandDavidson: Iter:   3  Eband: -0.094661770681039  dEband: -5.472898e-03  t[s]:    399.60
BandDavidson: Iter:   4  Eband: -0.098080943702320  dEband: -3.419173e-03  t[s]:    405.68
BandDavidson: Iter:   5  Eband: -0.099182240135303  dEband: -1.101296e-03  t[s]:    411.83
BandDavidson: Iter:   6  Eband: -0.099758045682429  dEband: -5.758055e-04  t[s]:    417.97
BandDavidson: Iter:   7  Eband: -0.100115295634324  dEband: -3.572500e-04  t[s]:    423.98
BandDavidson: Iter:   8  Eband: -0.100346459046898  dEband: -2.311634e-04  t[s]:    430.13
BandDavidson: Iter:   9  Eband: -0.100504787387217  dEband: -1.583283e-04  t[s]:    436.22
BandDavidson: Iter:  10  Eband: -0.100617890555738  dEband: -1.131032e-04  t[s]:    442.35
BandDavidson: Iter:  11  Eband: -0.100701730884018  dEband: -8.384033e-05  t[s]:    448.48
BandDavidson: Iter:  12  Eband: -0.100765468368926  dEband: -6.373748e-05  t[s]:    454.56
BandDavidson: Iter:  13  Eband: -0.100815119816103  dEband: -4.965145e-05  t[s]:    460.62
BandDavidson: Iter:  14  Eband: -0.100854888883303  dEband: -3.976907e-05  t[s]:    466.64
BandDavidson: Iter:  15  Eband: -0.100887597013690  dEband: -3.270813e-05  t[s]:    472.79
BandDavidson: Iter:  16  Eband: -0.100915437950158  dEband: -2.784094e-05  t[s]:    478.92
BandDavidson: Iter:  17  Eband: -0.100939999445328  dEband: -2.456150e-05  t[s]:    485.05
BandDavidson: Iter:  18  Eband: -0.100962551886492  dEband: -2.255244e-05  t[s]:    491.12
BandDavidson: Iter:  19  Eband: -0.100983980467814  dEband: -2.142858e-05  t[s]:    497.16
BandDavidson: Iter:  20  Eband: -0.101004941228514  dEband: -2.096076e-05  t[s]:    503.33
BandDavidson: Iter:  21  Eband: -0.101026081164345  dEband: -2.113994e-05  t[s]:    509.26
BandDavidson: Iter:  22  Eband: -0.101048182510214  dEband: -2.210135e-05  t[s]:    514.96
BandDavidson: Iter:  23  Eband: -0.101069635390899  dEband: -2.145288e-05  t[s]:    520.83
BandDavidson: Iter:  24  Eband: -0.101089524807566  dEband: -1.988942e-05  t[s]:    526.57
BandDavidson: Iter:  25  Eband: -0.101107308721712  dEband: -1.778391e-05  t[s]:    532.25
BandDavidson: Iter:  26  Eband: -0.101123193921966  dEband: -1.588520e-05  t[s]:    538.08
BandDavidson: Iter:  27  Eband: -0.101137168604862  dEband: -1.397468e-05  t[s]:    543.79
BandDavidson: Iter:  28  Eband: -0.101149356985191  dEband: -1.218838e-05  t[s]:    549.61
BandDavidson: Iter:  29  Eband: -0.101159645908464  dEband: -1.028892e-05  t[s]:    555.03
BandDavidson: Iter:  30  Eband: -0.101168229353116  dEband: -8.583445e-06  t[s]:    560.13
BandDavidson: Iter:  31  Eband: -0.101175300308297  dEband: -7.070955e-06  t[s]:    564.93
BandDavidson: Iter:  32  Eband: -0.101181119019674  dEband: -5.818711e-06  t[s]:    569.33
BandDavidson: Iter:  33  Eband: -0.101185946800484  dEband: -4.827781e-06  t[s]:    573.58
BandDavidson: Iter:  34  Eband: -0.101189990046887  dEband: -4.043246e-06  t[s]:    577.82
BandDavidson: Iter:  35  Eband: -0.101193372217130  dEband: -3.382170e-06  t[s]:    582.08
BandDavidson: Iter:  36  Eband: -0.101196208452811  dEband: -2.836236e-06  t[s]:    586.33
BandDavidson: Iter:  37  Eband: -0.101198566474316  dEband: -2.358022e-06  t[s]:    590.63
BandDavidson: Iter:  38  Eband: -0.101200525254730  dEband: -1.958780e-06  t[s]:    594.82
BandDavidson: Iter:  39  Eband: -0.101202138367617  dEband: -1.613113e-06  t[s]:    598.82
BandDavidson: Iter:  40  Eband: -0.101203461406552  dEband: -1.323039e-06  t[s]:    602.70
BandDavidson: Iter:  41  Eband: -0.101204551762884  dEband: -1.090356e-06  t[s]:    606.53
BandDavidson: Iter:  42  Eband: -0.101205456099617  dEband: -9.043367e-07  t[s]:    610.37
BandDavidson: Iter:  43  Eband: -0.101206212217378  dEband: -7.561178e-07  t[s]:    614.18
BandDavidson: Iter:  44  Eband: -0.101206844441683  dEband: -6.322243e-07  t[s]:    618.00
BandDavidson: Iter:  45  Eband: -0.101207375797946  dEband: -5.313563e-07  t[s]:    621.79
BandDavidson: Iter:  46  Eband: -0.101207819990865  dEband: -4.441929e-07  t[s]:    625.58
BandDavidson: Iter:  47  Eband: -0.101208192590416  dEband: -3.725996e-07  t[s]:    629.40
BandDavidson: Iter:  48  Eband: -0.101208502983527  dEband: -3.103931e-07  t[s]:    633.19
BandDavidson: Iter:  49  Eband: -0.101208762305734  dEband: -2.593222e-07  t[s]:    636.93
BandDavidson: Iter:  50  Eband: -0.101208979245010  dEband: -2.169393e-07  t[s]:    640.77
BandDavidson: Iter:  51  Eband: -0.101209161048692  dEband: -1.818037e-07  t[s]:    644.52
BandDavidson: Iter:  52  Eband: -0.101209313107313  dEband: -1.520586e-07  t[s]:    648.30
BandDavidson: Iter:  53  Eband: -0.101209441018360  dEband: -1.279110e-07  t[s]:    651.82
BandDavidson: Iter:  54  Eband: -0.101209548082761  dEband: -1.070644e-07  t[s]:    655.35
BandDavidson: Iter:  55  Eband: -0.101209638319707  dEband: -9.023695e-08  t[s]:    658.99
BandDavidson: Iter:  56  Eband: -0.101209714242232  dEband: -7.592252e-08  t[s]:    662.58
BandDavidson: Iter:  57  Eband: -0.101209777929616  dEband: -6.368738e-08  t[s]:    666.04
BandDavidson: Iter:  58  Eband: -0.101209831459702  dEband: -5.353009e-08  t[s]:    669.41
BandDavidson: Iter:  59  Eband: -0.101209876256923  dEband: -4.479722e-08  t[s]:    672.56
BandDavidson: Iter:  60  Eband: -0.101209914058077  dEband: -3.780115e-08  t[s]:    675.66
BandDavidson: Iter:  61  Eband: -0.101209945942592  dEband: -3.188452e-08  t[s]:    678.86
BandDavidson: Iter:  62  Eband: -0.101209973152776  dEband: -2.721018e-08  t[s]:    682.06
BandDavidson: Iter:  63  Eband: -0.101209996284885  dEband: -2.313211e-08  t[s]:    685.16
BandDavidson: Iter:  64  Eband: -0.101210015884288  dEband: -1.959940e-08  t[s]:    688.26
BandDavidson: Iter:  65  Eband: -0.101210032606325  dEband: -1.672204e-08  t[s]:    691.33
BandDavidson: Iter:  66  Eband: -0.101210046838463  dEband: -1.423214e-08  t[s]:    694.44
BandDavidson: Iter:  67  Eband: -0.101210059076327  dEband: -1.223786e-08  t[s]:    697.49
BandDavidson: Iter:  68  Eband: -0.101210069518745  dEband: -1.044242e-08  t[s]:    700.50
BandDavidson: Iter:  69  Eband: -0.101210078515347  dEband: -8.996602e-09  t[s]:    703.55
BandDavidson: Converged (dEband<1.000000e-08)

---- Minimization of quantum number:     2  [ +0.0000000 +0.0555556 +0.0000000 ]  0.004629630  spin +1 ----
BandDavidson: Iter:   0  Eband: -0.044556300853285
BandDavidson: Iter:   1  Eband: -0.078328685733648  dEband: -3.377238e-02  t[s]:    713.15
BandDavidson: Iter:   2  Eband: -0.089281407495369  dEband: -1.095272e-02  t[s]:    719.24
BandDavidson: Iter:   3  Eband: -0.094510911980311  dEband: -5.229504e-03  t[s]:    725.47
BandDavidson: Iter:   4  Eband: -0.097887425160238  dEband: -3.376513e-03  t[s]:    731.48
BandDavidson: Iter:   5  Eband: -0.099220344004332  dEband: -1.332919e-03  t[s]:    737.47
BandDavidson: Iter:   6  Eband: -0.099836076003057  dEband: -6.157320e-04  t[s]:    743.49
BandDavidson: Iter:   7  Eband: -0.100172541865871  dEband: -3.364659e-04  t[s]:    749.49
BandDavidson: Iter:   8  Eband: -0.100380491102766  dEband: -2.079492e-04  t[s]:    755.54
BandDavidson: Iter:   9  Eband: -0.100522127067889  dEband: -1.416360e-04  t[s]:    761.54
BandDavidson: Iter:  10  Eband: -0.100624302543298  dEband: -1.021755e-04  t[s]:    767.57
BandDavidson: Iter:  11  Eband: -0.100704590617186  dEband: -8.028807e-05  t[s]:    773.57
BandDavidson: Iter:  12  Eband: -0.100770778178204  dEband: -6.618756e-05  t[s]:    779.76
BandDavidson: Iter:  13  Eband: -0.100826068868868  dEband: -5.529069e-05  t[s]:    785.85
BandDavidson: Iter:  14  Eband: -0.100873033759159  dEband: -4.696489e-05  t[s]:    791.94
BandDavidson: Iter:  15  Eband: -0.100912644006117  dEband: -3.961025e-05  t[s]:    798.04
BandDavidson: Iter:  16  Eband: -0.100948345804712  dEband: -3.570180e-05  t[s]:    804.14
BandDavidson: Iter:  17  Eband: -0.100982025439518  dEband: -3.367963e-05  t[s]:    810.24
BandDavidson: Iter:  18  Eband: -0.101013833105513  dEband: -3.180767e-05  t[s]:    816.36
BandDavidson: Iter:  19  Eband: -0.101044340525254  dEband: -3.050742e-05  t[s]:    822.47
BandDavidson: Iter:  20  Eband: -0.101074108833464  dEband: -2.976831e-05  t[s]:    828.35
BandDavidson: Iter:  21  Eband: -0.101102790969189  dEband: -2.868214e-05  t[s]:    834.30
BandDavidson: Iter:  22  Eband: -0.101129925720691  dEband: -2.713475e-05  t[s]:    840.16
BandDavidson: Iter:  23  Eband: -0.101154814870152  dEband: -2.488915e-05  t[s]:    846.07
BandDavidson: Iter:  24  Eband: -0.101177197296281  dEband: -2.238243e-05  t[s]:    851.80
BandDavidson: Iter:  25  Eband: -0.101196921423044  dEband: -1.972413e-05  t[s]:    857.52
BandDavidson: Iter:  26  Eband: -0.101213895185966  dEband: -1.697376e-05  t[s]:    863.36
BandDavidson: Iter:  27  Eband: -0.101228267194904  dEband: -1.437201e-05  t[s]:    869.12
BandDavidson: Iter:  28  Eband: -0.101240399563305  dEband: -1.213237e-05  t[s]:    875.00
BandDavidson: Iter:  29  Eband: -0.101250506730174  dEband: -1.010717e-05  t[s]:    880.44
BandDavidson: Iter:  30  Eband: -0.101258851394542  dEband: -8.344664e-06  t[s]:    885.69
BandDavidson: Iter:  31  Eband: -0.101265667009842  dEband: -6.815615e-06  t[s]:    890.74
BandDavidson: Iter:  32  Eband: -0.101271285790036  dEband: -5.618780e-06  t[s]:    895.30
BandDavidson: Iter:  33  Eband: -0.101275934223583  dEband: -4.648434e-06  t[s]:    899.44
BandDavidson: Iter:  34  Eband: -0.101279808481434  dEband: -3.874258e-06  t[s]:    903.67
BandDavidson: Iter:  35  Eband: -0.101283044381698  dEband: -3.235900e-06  t[s]:    907.88
BandDavidson: Iter:  36  Eband: -0.101285740557136  dEband: -2.696175e-06  t[s]:    912.05
BandDavidson: Iter:  37  Eband: -0.101287987476638  dEband: -2.246920e-06  t[s]:    916.23
BandDavidson: Iter:  38  Eband: -0.101289871504681  dEband: -1.884028e-06  t[s]:    920.42
BandDavidson: Iter:  39  Eband: -0.101291445724128  dEband: -1.574219e-06  t[s]:    924.49
BandDavidson: Iter:  40  Eband: -0.101292752378982  dEband: -1.306655e-06  t[s]:    928.50
BandDavidson: Iter:  41  Eband: -0.101293836470329  dEband: -1.084091e-06  t[s]:    932.37
BandDavidson: Iter:  42  Eband: -0.101294743126385  dEband: -9.066561e-07  t[s]:    936.12
BandDavidson: Iter:  43  Eband: -0.101295509221344  dEband: -7.660950e-07  t[s]:    939.97
BandDavidson: Iter:  44  Eband: -0.101296162218167  dEband: -6.529968e-07  t[s]:    943.91
BandDavidson: Iter:  45  Eband: -0.101296720968762  dEband: -5.587506e-07  t[s]:    947.70
BandDavidson: Iter:  46  Eband: -0.101297199306542  dEband: -4.783378e-07  t[s]:    951.48
BandDavidson: Iter:  47  Eband: -0.101297611400651  dEband: -4.120941e-07  t[s]:    955.23
BandDavidson: Iter:  48  Eband: -0.101297964588937  dEband: -3.531883e-07  t[s]:    958.98
BandDavidson: Iter:  49  Eband: -0.101298267445281  dEband: -3.028563e-07  t[s]:    962.70
BandDavidson: Iter:  50  Eband: -0.101298526374279  dEband: -2.589290e-07  t[s]:    966.42
BandDavidson: Iter:  51  Eband: -0.101298751660559  dEband: -2.252863e-07  t[s]:    970.13
BandDavidson: Iter:  52  Eband: -0.101298945891979  dEband: -1.942314e-07  t[s]:    973.76
BandDavidson: Iter:  53  Eband: -0.101299113611386  dEband: -1.677194e-07  t[s]:    977.36
BandDavidson: Iter:  54  Eband: -0.101299256922922  dEband: -1.433115e-07  t[s]:    980.96
BandDavidson: Iter:  55  Eband: -0.101299380746876  dEband: -1.238240e-07  t[s]:    984.58
BandDavidson: Iter:  56  Eband: -0.101299486706892  dEband: -1.059600e-07  t[s]:    988.13
BandDavidson: Iter:  57  Eband: -0.101299578086565  dEband: -9.137967e-08  t[s]:    991.60
BandDavidson: Iter:  58  Eband: -0.101299655748112  dEband: -7.766155e-08  t[s]:    994.94
BandDavidson: Iter:  59  Eband: -0.101299722444890  dEband: -6.669678e-08  t[s]:    998.26
BandDavidson: Iter:  60  Eband: -0.101299779087734  dEband: -5.664284e-08  t[s]:   1001.47
BandDavidson: Iter:  61  Eband: -0.101299827835602  dEband: -4.874787e-08  t[s]:   1004.68
BandDavidson: Iter:  62  Eband: -0.101299869552616  dEband: -4.171701e-08  t[s]:   1007.88
BandDavidson: Iter:  63  Eband: -0.101299905137070  dEband: -3.558445e-08  t[s]:   1011.08
BandDavidson: Iter:  64  Eband: -0.101299935549622  dEband: -3.041255e-08  t[s]:   1014.26
BandDavidson: Iter:  65  Eband: -0.101299961306746  dEband: -2.575712e-08  t[s]:   1017.26
BandDavidson: Iter:  66  Eband: -0.101299983334696  dEband: -2.202795e-08  t[s]:   1020.34
BandDavidson: Iter:  67  Eband: -0.101300002208321  dEband: -1.887362e-08  t[s]:   1023.39
BandDavidson: Iter:  68  Eband: -0.101300018318783  dEband: -1.611046e-08  t[s]:   1026.36
BandDavidson: Iter:  69  Eband: -0.101300032087365  dEband: -1.376858e-08  t[s]:   1029.32
BandDavidson: Iter:  70  Eband: -0.101300043840192  dEband: -1.175283e-08  t[s]:   1032.27
BandDavidson: Iter:  71  Eband: -0.101300054052431  dEband: -1.021224e-08  t[s]:   1035.18
BandDavidson: Iter:  72  Eband: -0.101300062842230  dEband: -8.789799e-09  t[s]:   1038.05
BandDavidson: Converged (dEband<1.000000e-08)

---- Minimization of quantum number:     3  [ +0.0000000 +0.0833333 +0.0000000 ]  0.004629630  spin +1 ----
BandDavidson: Iter:   0  Eband: -0.044499991131714
BandDavidson: Iter:   1  Eband: -0.078265245281095  dEband: -3.376525e-02  t[s]:   1047.51
BandDavidson: Iter:   2  Eband: -0.089282630025427  dEband: -1.101738e-02  t[s]:   1053.60
BandDavidson: Iter:   3  Eband: -0.094235632373682  dEband: -4.953002e-03  t[s]:   1059.72
BandDavidson: Iter:   4  Eband: -0.097712102754648  dEband: -3.476470e-03  t[s]:   1065.74
BandDavidson: Iter:   5  Eband: -0.099102428510126  dEband: -1.390326e-03  t[s]:   1071.85
BandDavidson: Iter:   6  Eband: -0.099735359548416  dEband: -6.329310e-04  t[s]:   1077.94
BandDavidson: Iter:   7  Eband: -0.100088433035663  dEband: -3.530735e-04  t[s]:   1083.98
BandDavidson: Iter:   8  Eband: -0.100307943240021  dEband: -2.195102e-04  t[s]:   1090.04
BandDavidson: Iter:   9  Eband: -0.100490742469255  dEband: -1.827992e-04  t[s]:   1096.10
BandDavidson: Iter:  10  Eband: -0.100623490636812  dEband: -1.327482e-04  t[s]:   1102.24
BandDavidson: Iter:  11  Eband: -0.100733431962773  dEband: -1.099413e-04  t[s]:   1108.35
BandDavidson: Iter:  12  Eband: -0.100822600304081  dEband: -8.916834e-05  t[s]:   1114.32
BandDavidson: Iter:  13  Eband: -0.100888554945758  dEband: -6.595464e-05  t[s]:   1120.44
BandDavidson: Iter:  14  Eband: -0.100940991322051  dEband: -5.243638e-05  t[s]:   1126.48
BandDavidson: Iter:  15  Eband: -0.100985163591861  dEband: -4.417227e-05  t[s]:   1132.53
BandDavidson: Iter:  16  Eband: -0.101024515735173  dEband: -3.935214e-05  t[s]:   1138.57
BandDavidson: Iter:  17  Eband: -0.101060500872289  dEband: -3.598514e-05  t[s]:   1144.61
BandDavidson: Iter:  18  Eband: -0.101094245557237  dEband: -3.374468e-05  t[s]:   1150.77
BandDavidson: Iter:  19  Eband: -0.101126494245092  dEband: -3.224869e-05  t[s]:   1156.88
BandDavidson: Iter:  20  Eband: -0.101157172376743  dEband: -3.067813e-05  t[s]:   1162.90
BandDavidson: Iter:  21  Eband: -0.101186166297322  dEband: -2.899392e-05  t[s]:   1168.78
BandDavidson: Iter:  22  Eband: -0.101213257697636  dEband: -2.709140e-05  t[s]:   1174.65
BandDavidson: Iter:  23  Eband: -0.101237977328955  dEband: -2.471963e-05  t[s]:   1180.59
BandDavidson: Iter:  24  Eband: -0.101260134661083  dEband: -2.215733e-05  t[s]:   1186.42
BandDavidson: Iter:  25  Eband: -0.101279789826780  dEband: -1.965517e-05  t[s]:   1192.18
BandDavidson: Iter:  26  Eband: -0.101297080112441  dEband: -1.729029e-05  t[s]:   1197.99
BandDavidson: Iter:  27  Eband: -0.101312186463964  dEband: -1.510635e-05  t[s]:   1203.88
BandDavidson: Iter:  28  Eband: -0.101325274868685  dEband: -1.308840e-05  t[s]:   1209.56
BandDavidson: Iter:  29  Eband: -0.101336599104176  dEband: -1.132424e-05  t[s]:   1215.06
BandDavidson: Iter:  30  Eband: -0.101347720239355  dEband: -1.112114e-05  t[s]:   1220.30
BandDavidson: Iter:  31  Eband: -0.101358690787807  dEband: -1.097055e-05  t[s]:   1225.15
BandDavidson: Iter:  32  Eband: -0.101367982541918  dEband: -9.291754e-06  t[s]:   1229.69
BandDavidson: Iter:  33  Eband: -0.101375751144150  dEband: -7.768602e-06  t[s]:   1233.88
BandDavidson: Iter:  34  Eband: -0.101382216379191  dEband: -6.465235e-06  t[s]:   1238.08
BandDavidson: Iter:  35  Eband: -0.101387673139693  dEband: -5.456761e-06  t[s]:   1242.32
BandDavidson: Iter:  36  Eband: -0.101392251890238  dEband: -4.578751e-06  t[s]:   1246.59
BandDavidson: Iter:  37  Eband: -0.101396107696920  dEband: -3.855807e-06  t[s]:   1250.85
BandDavidson: Iter:  38  Eband: -0.101399325628598  dEband: -3.217932e-06  t[s]:   1255.01
BandDavidson: Iter:  39  Eband: -0.101402018949978  dEband: -2.693321e-06  t[s]:   1259.06
BandDavidson: Iter:  40  Eband: -0.101404267855064  dEband: -2.248905e-06  t[s]:   1262.97
BandDavidson: Iter:  41  Eband: -0.101406139429893  dEband: -1.871575e-06  t[s]:   1266.81
BandDavidson: Iter:  42  Eband: -0.101407716055636  dEband: -1.576626e-06  t[s]:   1270.68
BandDavidson: Iter:  43  Eband: -0.101409046386699  dEband: -1.330331e-06  t[s]:   1274.54
BandDavidson: Iter:  44  Eband: -0.101410175062595  dEband: -1.128676e-06  t[s]:   1278.34
BandDavidson: Iter:  45  Eband: -0.101411132969329  dEband: -9.579067e-07  t[s]:   1282.20
BandDavidson: Iter:  46  Eband: -0.101411948005389  dEband: -8.150361e-07  t[s]:   1285.97
BandDavidson: Iter:  47  Eband: -0.101412640847440  dEband: -6.928421e-07  t[s]:   1289.71
BandDavidson: Iter:  48  Eband: -0.101413229254356  dEband: -5.884069e-07  t[s]:   1293.54
BandDavidson: Iter:  49  Eband: -0.101413725891316  dEband: -4.966370e-07  t[s]:   1297.28
BandDavidson: Iter:  50  Eband: -0.101414141382607  dEband: -4.154913e-07  t[s]:   1300.98
BandDavidson: Iter:  51  Eband: -0.101414493368014  dEband: -3.519854e-07  t[s]:   1304.69
BandDavidson: Iter:  52  Eband: -0.101414790460490  dEband: -2.970925e-07  t[s]:   1308.39
BandDavidson: Iter:  53  Eband: -0.101415042665863  dEband: -2.522054e-07  t[s]:   1312.05
BandDavidson: Iter:  54  Eband: -0.101415257162498  dEband: -2.144966e-07  t[s]:   1315.56
BandDavidson: Iter:  55  Eband: -0.101415439008838  dEband: -1.818463e-07  t[s]:   1319.09
BandDavidson: Iter:  56  Eband: -0.101415593776599  dEband: -1.547678e-07  t[s]:   1322.55
BandDavidson: Iter:  57  Eband: -0.101415725173732  dEband: -1.313971e-07  t[s]:   1325.84
BandDavidson: Iter:  58  Eband: -0.101415837452584  dEband: -1.122789e-07  t[s]:   1329.22
BandDavidson: Iter:  59  Eband: -0.101415933568392  dEband: -9.611581e-08  t[s]:   1332.52
BandDavidson: Iter:  60  Eband: -0.101416015983749  dEband: -8.241536e-08  t[s]:   1335.70
BandDavidson: Iter:  61  Eband: -0.101416086475113  dEband: -7.049136e-08  t[s]:   1338.85
BandDavidson: Iter:  62  Eband: -0.101416147025434  dEband: -6.055032e-08  t[s]:   1342.06
BandDavidson: Iter:  63  Eband: -0.101416198854810  dEband: -5.182938e-08  t[s]:   1345.27
BandDavidson: Iter:  64  Eband: -0.101416243421868  dEband: -4.456706e-08  t[s]:   1348.31
BandDavidson: Iter:  65  Eband: -0.101416281546793  dEband: -3.812492e-08  t[s]:   1351.36
BandDavidson: Iter:  66  Eband: -0.101416314554350  dEband: -3.300756e-08  t[s]:   1354.40
BandDavidson: Iter:  67  Eband: -0.101416342820429  dEband: -2.826608e-08  t[s]:   1357.41
BandDavidson: Iter:  68  Eband: -0.101416367338955  dEband: -2.451853e-08  t[s]:   1360.42
BandDavidson: Iter:  69  Eband: -0.101416388338246  dEband: -2.099929e-08  t[s]:   1363.34
BandDavidson: Iter:  70  Eband: -0.101416406505688  dEband: -1.816744e-08  t[s]:   1366.27
BandDavidson: Iter:  71  Eband: -0.101416422088630  dEband: -1.558294e-08  t[s]:   1369.19
BandDavidson: Iter:  72  Eband: -0.101416435493097  dEband: -1.340447e-08  t[s]:   1372.03
BandDavidson: Iter:  73  Eband: -0.101416447061291  dEband: -1.156819e-08  t[s]:   1374.84
BandDavidson: Iter:  74  Eband: -0.101416457061329  dEband: -1.000004e-08  t[s]:   1377.62
BandDavidson: Iter:  75  Eband: -0.101416465740077  dEband: -8.678748e-09  t[s]:   1380.39
BandDavidson: Converged (dEband<1.000000e-08)

---- Minimization of quantum number:     4  [ +0.0000000 +0.1111111 +0.0000000 ]  0.004629630  spin +1 ----
BandDavidson: Iter:   0  Eband: -0.044500981424330
BandDavidson: Iter:   1  Eband: -0.078301854299073  dEband: -3.380087e-02  t[s]:   1389.96
BandDavidson: Iter:   2  Eband: -0.089308680790236  dEband: -1.100683e-02  t[s]:   1396.03
BandDavidson: Iter:   3  Eband: -0.094130235135653  dEband: -4.821554e-03  t[s]:   1401.96
BandDavidson: Iter:   4  Eband: -0.097610188234112  dEband: -3.479953e-03  t[s]:   1408.03
BandDavidson: Iter:   5  Eband: -0.099057765649256  dEband: -1.447577e-03  t[s]:   1414.09
BandDavidson: Iter:   6  Eband: -0.099614690312894  dEband: -5.569247e-04  t[s]:   1420.06
BandDavidson: Iter:   7  Eband: -0.099934281694312  dEband: -3.195914e-04  t[s]:   1426.19
BandDavidson: Iter:   8  Eband: -0.100161698716184  dEband: -2.274170e-04  t[s]:   1432.20
BandDavidson: Iter:   9  Eband: -0.100326348091049  dEband: -1.646494e-04  t[s]:   1438.27
BandDavidson: Iter:  10  Eband: -0.100475030942195  dEband: -1.486829e-04  t[s]:   1444.34
BandDavidson: Iter:  11  Eband: -0.100619225152821  dEband: -1.441942e-04  t[s]:   1450.42
BandDavidson: Iter:  12  Eband: -0.100725212004043  dEband: -1.059869e-04  t[s]:   1456.48
BandDavidson: Iter:  13  Eband: -0.100802821066409  dEband: -7.760906e-05  t[s]:   1462.40
BandDavidson: Iter:  14  Eband: -0.100867023396662  dEband: -6.420233e-05  t[s]:   1468.48
BandDavidson: Iter:  15  Eband: -0.100922433411548  dEband: -5.541001e-05  t[s]:   1474.57
BandDavidson: Iter:  16  Eband: -0.100976176021480  dEband: -5.374261e-05  t[s]:   1480.64
BandDavidson: Iter:  17  Eband: -0.101029435889525  dEband: -5.325987e-05  t[s]:   1486.66
BandDavidson: Iter:  18  Eband: -0.101080766341969  dEband: -5.133045e-05  t[s]:   1492.75
BandDavidson: Iter:  19  Eband: -0.101128316832582  dEband: -4.755049e-05  t[s]:   1498.89
BandDavidson: Iter:  20  Eband: -0.101171911769395  dEband: -4.359494e-05  t[s]:   1504.86
BandDavidson: Iter:  21  Eband: -0.101211737918079  dEband: -3.982615e-05  t[s]:   1510.90
BandDavidson: Iter:  22  Eband: -0.101250744500674  dEband: -3.900658e-05  t[s]:   1516.89
BandDavidson: Iter:  23  Eband: -0.101287121460124  dEband: -3.637696e-05  t[s]:   1522.69
BandDavidson: Iter:  24  Eband: -0.101320143722149  dEband: -3.302226e-05  t[s]:   1528.56
BandDavidson: Iter:  25  Eband: -0.101347771919619  dEband: -2.762820e-05  t[s]:   1534.24
BandDavidson: Iter:  26  Eband: -0.101370406854322  dEband: -2.263493e-05  t[s]:   1540.01
BandDavidson: Iter:  27  Eband: -0.101391617402245  dEband: -2.121055e-05  t[s]:   1545.78
BandDavidson: Iter:  28  Eband: -0.101412945099098  dEband: -2.132770e-05  t[s]:   1551.55
BandDavidson: Iter:  29  Eband: -0.101432328412394  dEband: -1.938331e-05  t[s]:   1557.06
BandDavidson: Iter:  30  Eband: -0.101448915484999  dEband: -1.658707e-05  t[s]:   1562.24
BandDavidson: Iter:  31  Eband: -0.101462696395552  dEband: -1.378091e-05  t[s]:   1566.98
BandDavidson: Iter:  32  Eband: -0.101474220661736  dEband: -1.152427e-05  t[s]:   1571.68
BandDavidson: Iter:  33  Eband: -0.101483774751911  dEband: -9.554090e-06  t[s]:   1575.92
BandDavidson: Iter:  34  Eband: -0.101491782694980  dEband: -8.007943e-06  t[s]:   1580.18
BandDavidson: Iter:  35  Eband: -0.101498584839318  dEband: -6.802144e-06  t[s]:   1584.38
BandDavidson: Iter:  36  Eband: -0.101504280427950  dEband: -5.695589e-06  t[s]:   1588.65
BandDavidson: Iter:  37  Eband: -0.101509093207206  dEband: -4.812779e-06  t[s]:   1592.76
BandDavidson: Iter:  38  Eband: -0.101513135889855  dEband: -4.042683e-06  t[s]:   1596.80
BandDavidson: Iter:  39  Eband: -0.101516523097666  dEband: -3.387208e-06  t[s]:   1600.90
BandDavidson: Iter:  40  Eband: -0.101519379017785  dEband: -2.855920e-06  t[s]:   1604.90
BandDavidson: Iter:  41  Eband: -0.101521798012654  dEband: -2.418995e-06  t[s]:   1608.74
BandDavidson: Iter:  42  Eband: -0.101523837432366  dEband: -2.039420e-06  t[s]:   1612.53
BandDavidson: Iter:  43  Eband: -0.101525570391513  dEband: -1.732959e-06  t[s]:   1616.29
BandDavidson: Iter:  44  Eband: -0.101527046953695  dEband: -1.476562e-06  t[s]:   1620.06
BandDavidson: Iter:  45  Eband: -0.101528313086819  dEband: -1.266133e-06  t[s]:   1623.81
BandDavidson: Iter:  46  Eband: -0.101529398116346  dEband: -1.085030e-06  t[s]:   1627.56
BandDavidson: Iter:  47  Eband: -0.101530328804457  dEband: -9.306881e-07  t[s]:   1631.37
BandDavidson: Iter:  48  Eband: -0.101531125564551  dEband: -7.967601e-07  t[s]:   1635.09
BandDavidson: Iter:  49  Eband: -0.101531806733783  dEband: -6.811692e-07  t[s]:   1638.84
BandDavidson: Iter:  50  Eband: -0.101532389680270  dEband: -5.829465e-07  t[s]:   1642.51
BandDavidson: Iter:  51  Eband: -0.101532888089817  dEband: -4.984095e-07  t[s]:   1646.06
BandDavidson: Iter:  52  Eband: -0.101533316733847  dEband: -4.286440e-07  t[s]:   1649.64
BandDavidson: Iter:  53  Eband: -0.101533684968727  dEband: -3.682349e-07  t[s]:   1653.15
BandDavidson: Iter:  54  Eband: -0.101534002034818  dEband: -3.170661e-07  t[s]:   1656.57
BandDavidson: Iter:  55  Eband: -0.101534274132420  dEband: -2.720976e-07  t[s]:   1660.03
BandDavidson: Iter:  56  Eband: -0.101534508363716  dEband: -2.342313e-07  t[s]:   1663.47
BandDavidson: Iter:  57  Eband: -0.101534710402764  dEband: -2.020390e-07  t[s]:   1666.88
BandDavidson: Iter:  58  Eband: -0.101534884026426  dEband: -1.736237e-07  t[s]:   1670.16
BandDavidson: Iter:  59  Eband: -0.101535034051004  dEband: -1.500246e-07  t[s]:   1673.46
BandDavidson: Iter:  60  Eband: -0.101535163475021  dEband: -1.294240e-07  t[s]:   1676.67
BandDavidson: Iter:  61  Eband: -0.101535275570201  dEband: -1.120952e-07  t[s]:   1679.85
BandDavidson: Iter:  62  Eband: -0.101535372607453  dEband: -9.703725e-08  t[s]:   1683.04
BandDavidson: Iter:  63  Eband: -0.101535456698397  dEband: -8.409094e-08  t[s]:   1686.14
BandDavidson: Iter:  64  Eband: -0.101535529402290  dEband: -7.270389e-08  t[s]:   1689.33
BandDavidson: Iter:  65  Eband: -0.101535592242704  dEband: -6.284041e-08  t[s]:   1692.35
BandDavidson: Iter:  66  Eband: -0.101535646376725  dEband: -5.413402e-08  t[s]:   1695.31
BandDavidson: Iter:  67  Eband: -0.101535693309376  dEband: -4.693265e-08  t[s]:   1698.33
BandDavidson: Iter:  68  Eband: -0.101535733965473  dEband: -4.065610e-08  t[s]:   1701.24
BandDavidson: Iter:  69  Eband: -0.101535769196696  dEband: -3.523122e-08  t[s]:   1704.08
BandDavidson: Iter:  70  Eband: -0.101535799813480  dEband: -3.061678e-08  t[s]:   1706.88
BandDavidson: Iter:  71  Eband: -0.101535826367817  dEband: -2.655434e-08  t[s]:   1709.67
BandDavidson: Iter:  72  Eband: -0.101535849541535  dEband: -2.317372e-08  t[s]:   1712.43
BandDavidson: Iter:  73  Eband: -0.101535869664189  dEband: -2.012265e-08  t[s]:   1715.25
BandDavidson: Iter:  74  Eband: -0.101535887187085  dEband: -1.752290e-08  t[s]:   1717.99
BandDavidson: Iter:  75  Eband: -0.101535902381759  dEband: -1.519467e-08  t[s]:   1720.66
BandDavidson: Iter:  76  Eband: -0.101535915584540  dEband: -1.320278e-08  t[s]:   1723.45
BandDavidson: Iter:  77  Eband: -0.101535927080326  dEband: -1.149579e-08  t[s]:   1726.19
BandDavidson: Iter:  78  Eband: -0.101535937113728  dEband: -1.003340e-08  t[s]:   1729.03
BandDavidson: Iter:  79  Eband: -0.101535945874089  dEband: -8.760361e-09  t[s]:   1731.78
BandDavidson: Converged (dEband<1.000000e-08)

---- Minimization of quantum number:     5  [ +0.0000000 +0.1388889 +0.0000000 ]  0.004629630  spin +1 ----
BandDavidson: Iter:   0  Eband: -0.044444830406203
BandDavidson: Iter:   1  Eband: -0.078275836428262  dEband: -3.383101e-02  t[s]:   1741.24
BandDavidson: Iter:   2  Eband: -0.089529294575256  dEband: -1.125346e-02  t[s]:   1747.33
BandDavidson: Iter:   3  Eband: -0.094290375996729  dEband: -4.761081e-03  t[s]:   1753.42
BandDavidson: Iter:   4  Eband: -0.097417551669843  dEband: -3.127176e-03  t[s]:   1759.46
BandDavidson: Iter:   5  Eband: -0.098877437617516  dEband: -1.459886e-03  t[s]:   1765.46
BandDavidson: Iter:   6  Eband: -0.099599999694473  dEband: -7.225621e-04  t[s]:   1771.59
BandDavidson: Iter:   7  Eband: -0.099979445896421  dEband: -3.794462e-04  t[s]:   1777.55
BandDavidson: Iter:   8  Eband: -0.100223030009297  dEband: -2.435841e-04  t[s]:   1783.54
BandDavidson: Iter:   9  Eband: -0.100413457589891  dEband: -1.904276e-04  t[s]:   1789.69
BandDavidson: Iter:  10  Eband: -0.100571554739285  dEband: -1.580971e-04  t[s]:   1795.71
BandDavidson: Iter:  11  Eband: -0.100706467458520  dEband: -1.349127e-04  t[s]:   1801.67
BandDavidson: Iter:  12  Eband: -0.100824189257615  dEband: -1.177218e-04  t[s]:   1807.64
BandDavidson: Iter:  13  Eband: -0.100921957038609  dEband: -9.776778e-05  t[s]:   1813.65
BandDavidson: Iter:  14  Eband: -0.100999781744357  dEband: -7.782471e-05  t[s]:   1819.67
BandDavidson: Iter:  15  Eband: -0.101067772838322  dEband: -6.799109e-05  t[s]:   1825.79
BandDavidson: Iter:  16  Eband: -0.101127275724467  dEband: -5.950289e-05  t[s]:   1831.88
BandDavidson: Iter:  17  Eband: -0.101178015298243  dEband: -5.073957e-05  t[s]:   1837.88
BandDavidson: Iter:  18  Eband: -0.101225142270769  dEband: -4.712697e-05  t[s]:   1843.88
BandDavidson: Iter:  19  Eband: -0.101271227670961  dEband: -4.608540e-05  t[s]:   1849.99
BandDavidson: Iter:  20  Eband: -0.101312967626237  dEband: -4.173996e-05  t[s]:   1855.97
BandDavidson: Iter:  21  Eband: -0.101350860368465  dEband: -3.789274e-05  t[s]:   1862.02
BandDavidson: Iter:  22  Eband: -0.101386945122426  dEband: -3.608475e-05  t[s]:   1867.99
BandDavidson: Iter:  23  Eband: -0.101422021773896  dEband: -3.507665e-05  t[s]:   1873.90
BandDavidson: Iter:  24  Eband: -0.101453901381813  dEband: -3.187961e-05  t[s]:   1879.80
BandDavidson: Iter:  25  Eband: -0.101481232811588  dEband: -2.733143e-05  t[s]:   1885.61
BandDavidson: Iter:  26  Eband: -0.101504662920722  dEband: -2.343011e-05  t[s]:   1891.37
BandDavidson: Iter:  27  Eband: -0.101524599723758  dEband: -1.993680e-05  t[s]:   1897.10
BandDavidson: Iter:  28  Eband: -0.101541496389709  dEband: -1.689667e-05  t[s]:   1902.73
BandDavidson: Iter:  29  Eband: -0.101555774867589  dEband: -1.427848e-05  t[s]:   1908.19
BandDavidson: Iter:  30  Eband: -0.101567823398029  dEband: -1.204853e-05  t[s]:   1913.45
BandDavidson: Iter:  31  Eband: -0.101577736341520  dEband: -9.912943e-06  t[s]:   1918.36
BandDavidson: Iter:  32  Eband: -0.101585967970899  dEband: -8.231629e-06  t[s]:   1922.97
BandDavidson: Iter:  33  Eband: -0.101592767894123  dEband: -6.799923e-06  t[s]:   1927.20
BandDavidson: Iter:  34  Eband: -0.101598537599789  dEband: -5.769706e-06  t[s]:   1931.41
BandDavidson: Iter:  35  Eband: -0.101603461052768  dEband: -4.923453e-06  t[s]:   1935.67
BandDavidson: Iter:  36  Eband: -0.101607707084034  dEband: -4.246031e-06  t[s]:   1939.82
BandDavidson: Iter:  37  Eband: -0.101611362754285  dEband: -3.655670e-06  t[s]:   1943.98
BandDavidson: Iter:  38  Eband: -0.101614488769727  dEband: -3.126015e-06  t[s]:   1948.04
BandDavidson: Iter:  39  Eband: -0.101617142277715  dEband: -2.653508e-06  t[s]:   1952.00
BandDavidson: Iter:  40  Eband: -0.101619425638015  dEband: -2.283360e-06  t[s]:   1955.97
BandDavidson: Iter:  41  Eband: -0.101621368616832  dEband: -1.942979e-06  t[s]:   1959.98
BandDavidson: Iter:  42  Eband: -0.101623035637854  dEband: -1.667021e-06  t[s]:   1963.74
BandDavidson: Iter:  43  Eband: -0.101624463957436  dEband: -1.428320e-06  t[s]:   1967.50
BandDavidson: Iter:  44  Eband: -0.101625698297510  dEband: -1.234340e-06  t[s]:   1971.37
BandDavidson: Iter:  45  Eband: -0.101626760620434  dEband: -1.062323e-06  t[s]:   1975.19
BandDavidson: Iter:  46  Eband: -0.101627679991404  dEband: -9.193710e-07  t[s]:   1978.95
BandDavidson: Iter:  47  Eband: -0.101628472025753  dEband: -7.920343e-07  t[s]:   1982.76
BandDavidson: Iter:  48  Eband: -0.101629155512829  dEband: -6.834871e-07  t[s]:   1986.58
BandDavidson: Iter:  49  Eband: -0.101629742913781  dEband: -5.874010e-07  t[s]:   1990.28
BandDavidson: Iter:  50  Eband: -0.101630247350371  dEband: -5.044366e-07  t[s]:   1993.90
BandDavidson: Iter:  51  Eband: -0.101630681672361  dEband: -4.343220e-07  t[s]:   1997.53
BandDavidson: Iter:  52  Eband: -0.101631055556589  dEband: -3.738842e-07  t[s]:   2001.05
BandDavidson: Iter:  53  Eband: -0.101631377835965  dEband: -3.222794e-07  t[s]:   2004.41
BandDavidson: Iter:  54  Eband: -0.101631656842335  dEband: -2.790064e-07  t[s]:   2007.85
BandDavidson: Iter:  55  Eband: -0.101631897917556  dEband: -2.410752e-07  t[s]:   2011.21
BandDavidson: Iter:  56  Eband: -0.101632107578799  dEband: -2.096612e-07  t[s]:   2014.54
BandDavidson: Iter:  57  Eband: -0.101632289288522  dEband: -1.817097e-07  t[s]:   2017.95
BandDavidson: Iter:  58  Eband: -0.101632446997603  dEband: -1.577091e-07  t[s]:   2021.23
BandDavidson: Iter:  59  Eband: -0.101632582907196  dEband: -1.359096e-07  t[s]:   2024.37
BandDavidson: Iter:  60  Eband: -0.101632700767775  dEband: -1.178606e-07  t[s]:   2027.57
BandDavidson: Iter:  61  Eband: -0.101632802877178  dEband: -1.021094e-07  t[s]:   2030.80
BandDavidson: Iter:  62  Eband: -0.101632891695490  dEband: -8.881831e-08  t[s]:   2033.98
BandDavidson: Iter:  63  Eband: -0.101632968813901  dEband: -7.711841e-08  t[s]:   2037.12
BandDavidson: Iter:  64  Eband: -0.101633035755734  dEband: -6.694183e-08  t[s]:   2040.18
BandDavidson: Iter:  65  Eband: -0.101633093593323  dEband: -5.783759e-08  t[s]:   2043.17
BandDavidson: Iter:  66  Eband: -0.101633143864163  dEband: -5.027084e-08  t[s]:   2046.11
BandDavidson: Iter:  67  Eband: -0.101633187147909  dEband: -4.328375e-08  t[s]:   2049.03
BandDavidson: Iter:  68  Eband: -0.101633224647917  dEband: -3.750001e-08  t[s]:   2051.96
BandDavidson: Iter:  69  Eband: -0.101633257049017  dEband: -3.240110e-08  t[s]:   2054.89
BandDavidson: Iter:  70  Eband: -0.101633285313446  dEband: -2.826443e-08  t[s]:   2057.74
BandDavidson: Iter:  71  Eband: -0.101633309605120  dEband: -2.429167e-08  t[s]:   2060.61
BandDavidson: Iter:  72  Eband: -0.101633330709420  dEband: -2.110430e-08  t[s]:   2063.54
BandDavidson: Iter:  73  Eband: -0.101633348879197  dEband: -1.816978e-08  t[s]:   2066.37
BandDavidson: Iter:  74  Eband: -0.101633364573936  dEband: -1.569474e-08  t[s]:   2069.20
BandDavidson: Iter:  75  Eband: -0.101633378107955  dEband: -1.353402e-08  t[s]:   2072.06
BandDavidson: Iter:  76  Eband: -0.101633389850568  dEband: -1.174261e-08  t[s]:   2074.79
BandDavidson: Iter:  77  Eband: -0.101633400026426  dEband: -1.017586e-08  t[s]:   2077.59
BandDavidson: Iter:  78  Eband: -0.101633408905861  dEband: -8.879434e-09  t[s]:   2080.33
BandDavidson: Converged (dEband<1.000000e-08)

---- Minimization of quantum number:     6  [ +0.0000000 +0.1666667 +0.0000000 ]  0.004629630  spin +1 ----
BandDavidson: Iter:   0  Eband: -0.044536343221449
BandDavidson: Iter:   1  Eband: -0.078379849235129  dEband: -3.384351e-02  t[s]:   2089.90
BandDavidson: Iter:   2  Eband: -0.089772464148475  dEband: -1.139261e-02  t[s]:   2095.90
BandDavidson: Iter:   3  Eband: -0.094250767208615  dEband: -4.478303e-03  t[s]:   2101.96
BandDavidson: Iter:   4  Eband: -0.097258362963087  dEband: -3.007596e-03  t[s]:   2108.03
BandDavidson: Iter:   5  Eband: -0.098761146408873  dEband: -1.502783e-03  t[s]:   2114.00
BandDavidson: Iter:   6  Eband: -0.099439133147343  dEband: -6.779867e-04  t[s]:   2120.05
BandDavidson: Iter:   7  Eband: -0.099787180671860  dEband: -3.480475e-04  t[s]:   2126.16
BandDavidson: Iter:   8  Eband: -0.100031148614600  dEband: -2.439679e-04  t[s]:   2132.28
BandDavidson: Iter:   9  Eband: -0.100237562547692  dEband: -2.064139e-04  t[s]:   2138.29
BandDavidson: Iter:  10  Eband: -0.100444683520854  dEband: -2.071210e-04  t[s]:   2144.32
BandDavidson: Iter:  11  Eband: -0.100660710656323  dEband: -2.160271e-04  t[s]:   2150.44
BandDavidson: Iter:  12  Eband: -0.100810315915191  dEband: -1.496053e-04  t[s]:   2156.53
BandDavidson: Iter:  13  Eband: -0.100922364198780  dEband: -1.120483e-04  t[s]:   2162.53
BandDavidson: Iter:  14  Eband: -0.101014591015343  dEband: -9.222682e-05  t[s]:   2168.59
BandDavidson: Iter:  15  Eband: -0.101089429689727  dEband: -7.483867e-05  t[s]:   2174.71
BandDavidson: Iter:  16  Eband: -0.101153150829034  dEband: -6.372114e-05  t[s]:   2180.74
BandDavidson: Iter:  17  Eband: -0.101217625999983  dEband: -6.447517e-05  t[s]:   2186.81
BandDavidson: Iter:  18  Eband: -0.101286151612057  dEband: -6.852561e-05  t[s]:   2192.82
BandDavidson: Iter:  19  Eband: -0.101351033361579  dEband: -6.488175e-05  t[s]:   2198.89
BandDavidson: Iter:  20  Eband: -0.101405809252206  dEband: -5.477589e-05  t[s]:   2204.98
BandDavidson: Iter:  21  Eband: -0.101451354465152  dEband: -4.554521e-05  t[s]:   2211.03
BandDavidson: Iter:  22  Eband: -0.101489228184007  dEband: -3.787372e-05  t[s]:   2217.09
BandDavidson: Iter:  23  Eband: -0.101520950740561  dEband: -3.172256e-05  t[s]:   2223.07
BandDavidson: Iter:  24  Eband: -0.101547339610781  dEband: -2.638887e-05  t[s]:   2228.89
BandDavidson: Iter:  25  Eband: -0.101569149188958  dEband: -2.180958e-05  t[s]:   2234.70
BandDavidson: Iter:  26  Eband: -0.101587477244287  dEband: -1.832806e-05  t[s]:   2240.43
BandDavidson: Iter:  27  Eband: -0.101602887300670  dEband: -1.541006e-05  t[s]:   2246.11
BandDavidson: Iter:  28  Eband: -0.101615881667288  dEband: -1.299437e-05  t[s]:   2251.90
BandDavidson: Iter:  29  Eband: -0.101626783540626  dEband: -1.090187e-05  t[s]:   2257.42
BandDavidson: Iter:  30  Eband: -0.101635937644254  dEband: -9.154104e-06  t[s]:   2262.65
BandDavidson: Iter:  31  Eband: -0.101643591401761  dEband: -7.653758e-06  t[s]:   2267.47
BandDavidson: Iter:  32  Eband: -0.101650085242744  dEband: -6.493841e-06  t[s]:   2272.16
BandDavidson: Iter:  33  Eband: -0.101655595591586  dEband: -5.510349e-06  t[s]:   2276.43
BandDavidson: Iter:  34  Eband: -0.101660332002694  dEband: -4.736411e-06  t[s]:   2280.75
BandDavidson: Iter:  35  Eband: -0.101664433561447  dEband: -4.101559e-06  t[s]:   2285.12
BandDavidson: Iter:  36  Eband: -0.101668006530894  dEband: -3.572969e-06  t[s]:   2289.40
BandDavidson: Iter:  37  Eband: -0.101671101519054  dEband: -3.094988e-06  t[s]:   2293.51
BandDavidson: Iter:  38  Eband: -0.101673770728235  dEband: -2.669209e-06  t[s]:   2297.51
BandDavidson: Iter:  39  Eband: -0.101676093874082  dEband: -2.323146e-06  t[s]:   2301.54
BandDavidson: Iter:  40  Eband: -0.101678134257508  dEband: -2.040383e-06  t[s]:   2305.63
BandDavidson: Iter:  41  Eband: -0.101679918222053  dEband: -1.783965e-06  t[s]:   2309.52
BandDavidson: Iter:  42  Eband: -0.101681482623097  dEband: -1.564401e-06  t[s]:   2313.31
BandDavidson: Iter:  43  Eband: -0.101682858911316  dEband: -1.376288e-06  t[s]:   2317.13
BandDavidson: Iter:  44  Eband: -0.101684075279367  dEband: -1.216368e-06  t[s]:   2320.98
BandDavidson: Iter:  45  Eband: -0.101685158925594  dEband: -1.083646e-06  t[s]:   2324.82
BandDavidson: Iter:  46  Eband: -0.101686126356246  dEband: -9.674307e-07  t[s]:   2328.61
BandDavidson: Iter:  47  Eband: -0.101686989251166  dEband: -8.628949e-07  t[s]:   2332.36
BandDavidson: Iter:  48  Eband: -0.101687758339562  dEband: -7.690884e-07  t[s]:   2336.20
BandDavidson: Iter:  49  Eband: -0.101688443919761  dEband: -6.855802e-07  t[s]:   2339.92
BandDavidson: Iter:  50  Eband: -0.101689053253023  dEband: -6.093333e-07  t[s]:   2343.54
BandDavidson: Iter:  51  Eband: -0.101689598844577  dEband: -5.455916e-07  t[s]:   2346.96
BandDavidson: Iter:  52  Eband: -0.101690086239849  dEband: -4.873953e-07  t[s]:   2350.43
BandDavidson: Iter:  53  Eband: -0.101690521430835  dEband: -4.351910e-07  t[s]:   2353.93
BandDavidson: Iter:  54  Eband: -0.101690912038648  dEband: -3.906078e-07  t[s]:   2357.32
BandDavidson: Iter:  55  Eband: -0.101691264086442  dEband: -3.520478e-07  t[s]:   2360.78
BandDavidson: Iter:  56  Eband: -0.101691580220201  dEband: -3.161338e-07  t[s]:   2364.19
BandDavidson: Iter:  57  Eband: -0.101691864200143  dEband: -2.839799e-07  t[s]:   2367.59
BandDavidson: Iter:  58  Eband: -0.101692119010224  dEband: -2.548101e-07  t[s]:   2370.97
BandDavidson: Iter:  59  Eband: -0.101692348196643  dEband: -2.291864e-07  t[s]:   2374.19
BandDavidson: Iter:  60  Eband: -0.101692553928761  dEband: -2.057321e-07  t[s]:   2377.38
BandDavidson: Iter:  61  Eband: -0.101692740077048  dEband: -1.861483e-07  t[s]:   2380.65
BandDavidson: Iter:  62  Eband: -0.101692907269119  dEband: -1.671921e-07  t[s]:   2383.83
BandDavidson: Iter:  63  Eband: -0.101693058786667  dEband: -1.515175e-07  t[s]:   2387.01
BandDavidson: Iter:  64  Eband: -0.101693194745439  dEband: -1.359588e-07  t[s]:   2390.11
BandDavidson: Iter:  65  Eband: -0.101693316635211  dEband: -1.218898e-07  t[s]:   2393.09
BandDavidson: Iter:  66  Eband: -0.101693425894811  dEband: -1.092596e-07  t[s]:   2396.07
BandDavidson: Iter:  67  Eband: -0.101693524352211  dEband: -9.845740e-08  t[s]:   2399.10
BandDavidson: Iter:  68  Eband: -0.101693612746618  dEband: -8.839441e-08  t[s]:   2401.96
BandDavidson: Iter:  69  Eband: -0.101693692701133  dEband: -7.995452e-08  t[s]:   2404.88
BandDavidson: Iter:  70  Eband: -0.101693764484717  dEband: -7.178358e-08  t[s]:   2407.71
BandDavidson: Iter:  71  Eband: -0.101693829448844  dEband: -6.496413e-08  t[s]:   2410.62
BandDavidson: Iter:  72  Eband: -0.101693887931068  dEband: -5.848222e-08  t[s]:   2413.46
BandDavidson: Iter:  73  Eband: -0.101693940494026  dEband: -5.256296e-08  t[s]:   2416.33
BandDavidson: Iter:  74  Eband: -0.101693987642299  dEband: -4.714827e-08  t[s]:   2419.17
BandDavidson: Iter:  75  Eband: -0.101694030018226  dEband: -4.237593e-08  t[s]:   2422.01
BandDavidson: Iter:  76  Eband: -0.101694068307235  dEband: -3.828901e-08  t[s]:   2424.75
BandDavidson: Iter:  77  Eband: -0.101694102779279  dEband: -3.447204e-08  t[s]:   2427.51
BandDavidson: Iter:  78  Eband: -0.101694134023278  dEband: -3.124400e-08  t[s]:   2430.30
BandDavidson: Iter:  79  Eband: -0.101694162403119  dEband: -2.837984e-08  t[s]:   2433.05
BandDavidson: Iter:  80  Eband: -0.101694188109711  dEband: -2.570659e-08  t[s]:   2435.88
BandDavidson: Iter:  81  Eband: -0.101694211455122  dEband: -2.334541e-08  t[s]:   2438.65
BandDavidson: Iter:  82  Eband: -0.101694232558292  dEband: -2.110317e-08  t[s]:   2441.31
BandDavidson: Iter:  83  Eband: -0.101694251749523  dEband: -1.919123e-08  t[s]:   2444.05
BandDavidson: Iter:  84  Eband: -0.101694269186743  dEband: -1.743722e-08  t[s]:   2446.81
BandDavidson: Iter:  85  Eband: -0.101694285133770  dEband: -1.594703e-08  t[s]:   2449.60
BandDavidson: Iter:  86  Eband: -0.101694299664935  dEband: -1.453117e-08  t[s]:   2452.35
BandDavidson: Iter:  87  Eband: -0.101694312891222  dEband: -1.322629e-08  t[s]:   2455.01
BandDavidson: Iter:  88  Eband: -0.101694324880960  dEband: -1.198974e-08  t[s]:   2457.64
BandDavidson: Iter:  89  Eband: -0.101694335856606  dEband: -1.097565e-08  t[s]:   2460.24
BandDavidson: Iter:  90  Eband: -0.101694345793330  dEband: -9.936724e-09  t[s]:   2462.80
BandDavidson: Converged (dEband<1.000000e-08)

---- Minimization of quantum number:     7  [ +0.0000000 +0.1944444 +0.0000000 ]  0.004629630  spin +1 ----
BandDavidson: Iter:   0  Eband: -0.044579566253383
BandDavidson: Iter:   1  Eband: -0.078507820981735  dEband: -3.392825e-02  t[s]:   2472.37
BandDavidson: Iter:   2  Eband: -0.089979130978542  dEband: -1.147131e-02  t[s]:   2478.52
BandDavidson: Iter:   3  Eband: -0.094248798254083  dEband: -4.269667e-03  t[s]:   2484.54
BandDavidson: Iter:   4  Eband: -0.096808494570769  dEband: -2.559696e-03  t[s]:   2490.51
BandDavidson: Iter:   5  Eband: -0.098300108191858  dEband: -1.491614e-03  t[s]:   2496.53
BandDavidson: Iter:   6  Eband: -0.099226364323008  dEband: -9.262561e-04  t[s]:   2502.56
BandDavidson: Iter:   7  Eband: -0.099790586207582  dEband: -5.642219e-04  t[s]:   2508.68
BandDavidson: Iter:   8  Eband: -0.100139691024716  dEband: -3.491048e-04  t[s]:   2514.72
BandDavidson: Iter:   9  Eband: -0.100335058717770  dEband: -1.953677e-04  t[s]:   2520.79
BandDavidson: Iter:  10  Eband: -0.100485278942600  dEband: -1.502202e-04  t[s]:   2526.95
BandDavidson: Iter:  11  Eband: -0.100626367473703  dEband: -1.410885e-04  t[s]:   2533.11
BandDavidson: Iter:  12  Eband: -0.100785295099548  dEband: -1.589276e-04  t[s]:   2539.29
BandDavidson: Iter:  13  Eband: -0.100927214260820  dEband: -1.419192e-04  t[s]:   2545.35
BandDavidson: Iter:  14  Eband: -0.101041329229645  dEband: -1.141150e-04  t[s]:   2551.40
BandDavidson: Iter:  15  Eband: -0.101134525001698  dEband: -9.319577e-05  t[s]:   2557.39
BandDavidson: Iter:  16  Eband: -0.101216538750526  dEband: -8.201375e-05  t[s]:   2563.38
BandDavidson: Iter:  17  Eband: -0.101284322535897  dEband: -6.778379e-05  t[s]:   2569.53
BandDavidson: Iter:  18  Eband: -0.101340885200421  dEband: -5.656266e-05  t[s]:   2575.59
BandDavidson: Iter:  19  Eband: -0.101388118100779  dEband: -4.723290e-05  t[s]:   2581.61
BandDavidson: Iter:  20  Eband: -0.101432312328047  dEband: -4.419423e-05  t[s]:   2587.64
BandDavidson: Iter:  21  Eband: -0.101473986112007  dEband: -4.167378e-05  t[s]:   2593.53
BandDavidson: Iter:  22  Eband: -0.101509927828359  dEband: -3.594172e-05  t[s]:   2599.53
BandDavidson: Iter:  23  Eband: -0.101541099958503  dEband: -3.117213e-05  t[s]:   2605.50
BandDavidson: Iter:  24  Eband: -0.101567394821243  dEband: -2.629486e-05  t[s]:   2611.37
BandDavidson: Iter:  25  Eband: -0.101589878610513  dEband: -2.248379e-05  t[s]:   2617.11
BandDavidson: Iter:  26  Eband: -0.101608986567123  dEband: -1.910796e-05  t[s]:   2622.91
BandDavidson: Iter:  27  Eband: -0.101625400558552  dEband: -1.641399e-05  t[s]:   2628.68
BandDavidson: Iter:  28  Eband: -0.101639722614348  dEband: -1.432206e-05  t[s]:   2634.29
BandDavidson: Iter:  29  Eband: -0.101652376724174  dEband: -1.265411e-05  t[s]:   2639.69
BandDavidson: Iter:  30  Eband: -0.101663752912150  dEband: -1.137619e-05  t[s]:   2644.86
BandDavidson: Iter:  31  Eband: -0.101673938551089  dEband: -1.018564e-05  t[s]:   2649.68
BandDavidson: Iter:  32  Eband: -0.101682994390571  dEband: -9.055839e-06  t[s]:   2654.37
BandDavidson: Iter:  33  Eband: -0.101690951058344  dEband: -7.956668e-06  t[s]:   2658.61
BandDavidson: Iter:  34  Eband: -0.101697941595765  dEband: -6.990537e-06  t[s]:   2662.85
BandDavidson: Iter:  35  Eband: -0.101704014703826  dEband: -6.073108e-06  t[s]:   2667.11
BandDavidson: Iter:  36  Eband: -0.101709333879210  dEband: -5.319175e-06  t[s]:   2671.34
BandDavidson: Iter:  37  Eband: -0.101713921806296  dEband: -4.587927e-06  t[s]:   2675.42
BandDavidson: Iter:  38  Eband: -0.101717883272446  dEband: -3.961466e-06  t[s]:   2679.49
BandDavidson: Iter:  39  Eband: -0.101721317557818  dEband: -3.434285e-06  t[s]:   2683.56
BandDavidson: Iter:  40  Eband: -0.101724311290757  dEband: -2.993733e-06  t[s]:   2687.64
BandDavidson: Iter:  41  Eband: -0.101726905375248  dEband: -2.594084e-06  t[s]:   2691.65
BandDavidson: Iter:  42  Eband: -0.101729148174891  dEband: -2.242800e-06  t[s]:   2695.49
BandDavidson: Iter:  43  Eband: -0.101731095236393  dEband: -1.947062e-06  t[s]:   2699.29
BandDavidson: Iter:  44  Eband: -0.101732790514715  dEband: -1.695278e-06  t[s]:   2703.11
BandDavidson: Iter:  45  Eband: -0.101734273990906  dEband: -1.483476e-06  t[s]:   2706.91
BandDavidson: Iter:  46  Eband: -0.101735577017531  dEband: -1.303027e-06  t[s]:   2710.71
BandDavidson: Iter:  47  Eband: -0.101736719379460  dEband: -1.142362e-06  t[s]:   2714.56
BandDavidson: Iter:  48  Eband: -0.101737718781872  dEband: -9.994024e-07  t[s]:   2718.31
BandDavidson: Iter:  49  Eband: -0.101738589905271  dEband: -8.711234e-07  t[s]:   2722.05
BandDavidson: Iter:  50  Eband: -0.101739351219752  dEband: -7.613145e-07  t[s]:   2725.73
BandDavidson: Iter:  51  Eband: -0.101740019768974  dEband: -6.685492e-07  t[s]:   2729.25
BandDavidson: Iter:  52  Eband: -0.101740607905094  dEband: -5.881361e-07  t[s]:   2732.75
BandDavidson: Iter:  53  Eband: -0.101741124564447  dEband: -5.166594e-07  t[s]:   2736.13
BandDavidson: Iter:  54  Eband: -0.101741579808765  dEband: -4.552443e-07  t[s]:   2739.54
BandDavidson: Iter:  55  Eband: -0.101741982470002  dEband: -4.026612e-07  t[s]:   2742.91
BandDavidson: Iter:  56  Eband: -0.101742338246299  dEband: -3.557763e-07  t[s]:   2746.29
BandDavidson: Iter:  57  Eband: -0.101742652101254  dEband: -3.138550e-07  t[s]:   2749.67
BandDavidson: Iter:  58  Eband: -0.101742930478708  dEband: -2.783775e-07  t[s]:   2752.95
BandDavidson: Iter:  59  Eband: -0.101743177521659  dEband: -2.470430e-07  t[s]:   2756.26
BandDavidson: Iter:  60  Eband: -0.101743396573763  dEband: -2.190521e-07  t[s]:   2759.47
BandDavidson: Iter:  61  Eband: -0.101743590539570  dEband: -1.939658e-07  t[s]:   2762.56
BandDavidson: Iter:  62  Eband: -0.101743763287708  dEband: -1.727481e-07  t[s]:   2765.73
BandDavidson: Iter:  63  Eband: -0.101743916744004  dEband: -1.534563e-07  t[s]:   2768.87
BandDavidson: Iter:  64  Eband: -0.101744053552548  dEband: -1.368085e-07  t[s]:   2772.04
BandDavidson: Iter:  65  Eband: -0.101744174820308  dEband: -1.212678e-07  t[s]:   2775.17
BandDavidson: Iter:  66  Eband: -0.101744282153650  dEband: -1.073333e-07  t[s]:   2778.15
BandDavidson: Iter:  67  Eband: -0.101744377295172  dEband: -9.514152e-08  t[s]:   2781.13
BandDavidson: Iter:  68  Eband: -0.101744461861858  dEband: -8.456669e-08  t[s]:   2784.05
BandDavidson: Iter:  69  Eband: -0.101744536898420  dEband: -7.503656e-08  t[s]:   2786.91
BandDavidson: Iter:  70  Eband: -0.101744603967998  dEband: -6.706958e-08  t[s]:   2789.82
BandDavidson: Iter:  71  Eband: -0.101744663537552  dEband: -5.956955e-08  t[s]:   2792.71
BandDavidson: Iter:  72  Eband: -0.101744716642927  dEband: -5.310538e-08  t[s]:   2795.62
BandDavidson: Iter:  73  Eband: -0.101744763723406  dEband: -4.708048e-08  t[s]:   2798.48
BandDavidson: Iter:  74  Eband: -0.101744805615862  dEband: -4.189246e-08  t[s]:   2801.39
BandDavidson: Iter:  75  Eband: -0.101744842608358  dEband: -3.699250e-08  t[s]:   2804.20
BandDavidson: Iter:  76  Eband: -0.101744875568786  dEband: -3.296043e-08  t[s]:   2807.09
BandDavidson: Iter:  77  Eband: -0.101744904810840  dEband: -2.924205e-08  t[s]:   2809.94
BandDavidson: Iter:  78  Eband: -0.101744930861208  dEband: -2.605037e-08  t[s]:   2812.70
BandDavidson: Iter:  79  Eband: -0.101744954028876  dEband: -2.316767e-08  t[s]:   2815.57
BandDavidson: Iter:  80  Eband: -0.101744974734478  dEband: -2.070560e-08  t[s]:   2818.42
BandDavidson: Iter:  81  Eband: -0.101744993136085  dEband: -1.840161e-08  t[s]:   2821.20
BandDavidson: Iter:  82  Eband: -0.101745009586330  dEband: -1.645025e-08  t[s]:   2823.96
BandDavidson: Iter:  83  Eband: -0.101745024198803  dEband: -1.461247e-08  t[s]:   2826.73
BandDavidson: Iter:  84  Eband: -0.101745037310386  dEband: -1.311158e-08  t[s]:   2829.49
BandDavidson: Iter:  85  Eband: -0.101745048930828  dEband: -1.162044e-08  t[s]:   2832.15
BandDavidson: Iter:  86  Eband: -0.101745059294348  dEband: -1.036352e-08  t[s]:   2834.74
BandDavidson: Iter:  87  Eband: -0.101745068465299  dEband: -9.170951e-09  t[s]:   2837.38
BandDavidson: Converged (dEband<1.000000e-08)

---- Minimization of quantum number:     8  [ +0.0000000 +0.2222222 +0.0000000 ]  0.004629630  spin +1 ----
BandDavidson: Iter:   0  Eband: -0.044693710171568
BandDavidson: Iter:   1  Eband: -0.078573087575123  dEband: -3.387938e-02  t[s]:   2846.92
BandDavidson: Iter:   2  Eband: -0.089917550078495  dEband: -1.134446e-02  t[s]:   2852.91
BandDavidson: Iter:   3  Eband: -0.094099223528363  dEband: -4.181673e-03  t[s]:   2858.97
BandDavidson: Iter:   4  Eband: -0.096658905792753  dEband: -2.559682e-03  t[s]:   2865.00
BandDavidson: Iter:   5  Eband: -0.098272825098867  dEband: -1.613919e-03  t[s]:   2871.12
BandDavidson: Iter:   6  Eband: -0.099035580382957  dEband: -7.627553e-04  t[s]:   2877.08
BandDavidson: Iter:   7  Eband: -0.099518705733780  dEband: -4.831254e-04  t[s]:   2883.17
BandDavidson: Iter:   8  Eband: -0.099871987054463  dEband: -3.532813e-04  t[s]:   2889.23
BandDavidson: Iter:   9  Eband: -0.100122283880301  dEband: -2.502968e-04  t[s]:   2895.29
BandDavidson: Iter:  10  Eband: -0.100381796285690  dEband: -2.595124e-04  t[s]:   2901.38
BandDavidson: Iter:  11  Eband: -0.100700362346797  dEband: -3.185661e-04  t[s]:   2907.37
BandDavidson: Iter:  12  Eband: -0.100903532414589  dEband: -2.031701e-04  t[s]:   2913.49
BandDavidson: Iter:  13  Eband: -0.101030651659420  dEband: -1.271192e-04  t[s]:   2919.51
BandDavidson: Iter:  14  Eband: -0.101128830674905  dEband: -9.817902e-05  t[s]:   2925.55
BandDavidson: Iter:  15  Eband: -0.101207524410497  dEband: -7.869374e-05  t[s]:   2931.51
BandDavidson: Iter:  16  Eband: -0.101271724499167  dEband: -6.420009e-05  t[s]:   2937.48
BandDavidson: Iter:  17  Eband: -0.101328891017661  dEband: -5.716652e-05  t[s]:   2943.51
BandDavidson: Iter:  18  Eband: -0.101378751230807  dEband: -4.986021e-05  t[s]:   2949.54
BandDavidson: Iter:  19  Eband: -0.101421736693893  dEband: -4.298546e-05  t[s]:   2955.65
BandDavidson: Iter:  20  Eband: -0.101465320208019  dEband: -4.358351e-05  t[s]:   2961.68
BandDavidson: Iter:  21  Eband: -0.101507526315014  dEband: -4.220611e-05  t[s]:   2967.66
BandDavidson: Iter:  22  Eband: -0.101545991404339  dEband: -3.846509e-05  t[s]:   2973.62
BandDavidson: Iter:  23  Eband: -0.101580196503009  dEband: -3.420510e-05  t[s]:   2979.51
BandDavidson: Iter:  24  Eband: -0.101610213375698  dEband: -3.001687e-05  t[s]:   2985.39
BandDavidson: Iter:  25  Eband: -0.101636000656044  dEband: -2.578728e-05  t[s]:   2991.15
BandDavidson: Iter:  26  Eband: -0.101658204959031  dEband: -2.220430e-05  t[s]:   2996.93
BandDavidson: Iter:  27  Eband: -0.101677321448448  dEband: -1.911649e-05  t[s]:   3002.62
BandDavidson: Iter:  28  Eband: -0.101693792117685  dEband: -1.647067e-05  t[s]:   3008.29
BandDavidson: Iter:  29  Eband: -0.101707798139968  dEband: -1.400602e-05  t[s]:   3013.77
BandDavidson: Iter:  30  Eband: -0.101719650135769  dEband: -1.185200e-05  t[s]:   3019.05
BandDavidson: Iter:  31  Eband: -0.101729627911172  dEband: -9.977775e-06  t[s]:   3024.00
BandDavidson: Iter:  32  Eband: -0.101737975777075  dEband: -8.347866e-06  t[s]:   3028.53
BandDavidson: Iter:  33  Eband: -0.101744998256967  dEband: -7.022480e-06  t[s]:   3032.88
BandDavidson: Iter:  34  Eband: -0.101751038646807  dEband: -6.040390e-06  t[s]:   3037.10
BandDavidson: Iter:  35  Eband: -0.101756264521117  dEband: -5.225874e-06  t[s]:   3041.24
BandDavidson: Iter:  36  Eband: -0.101760773406486  dEband: -4.508885e-06  t[s]:   3045.42
BandDavidson: Iter:  37  Eband: -0.101764643389511  dEband: -3.869983e-06  t[s]:   3049.42
BandDavidson: Iter:  38  Eband: -0.101767989593506  dEband: -3.346204e-06  t[s]:   3053.44
BandDavidson: Iter:  39  Eband: -0.101770921440620  dEband: -2.931847e-06  t[s]:   3057.45
BandDavidson: Iter:  40  Eband: -0.101773481656103  dEband: -2.560215e-06  t[s]:   3061.51
BandDavidson: Iter:  41  Eband: -0.101775702919869  dEband: -2.221264e-06  t[s]:   3065.51
BandDavidson: Iter:  42  Eband: -0.101777618473462  dEband: -1.915554e-06  t[s]:   3069.23
BandDavidson: Iter:  43  Eband: -0.101779276014894  dEband: -1.657541e-06  t[s]:   3073.03
BandDavidson: Iter:  44  Eband: -0.101780709753171  dEband: -1.433738e-06  t[s]:   3076.79
BandDavidson: Iter:  45  Eband: -0.101781967008852  dEband: -1.257256e-06  t[s]:   3080.54
BandDavidson: Iter:  46  Eband: -0.101783066377176  dEband: -1.099368e-06  t[s]:   3084.24
BandDavidson: Iter:  47  Eband: -0.101784034214632  dEband: -9.678375e-07  t[s]:   3088.00
BandDavidson: Iter:  48  Eband: -0.101784883625879  dEband: -8.494112e-07  t[s]:   3091.78
BandDavidson: Iter:  49  Eband: -0.101785628044244  dEband: -7.444184e-07  t[s]:   3095.45
BandDavidson: Iter:  50  Eband: -0.101786278438378  dEband: -6.503941e-07  t[s]:   3098.94
BandDavidson: Iter:  51  Eband: -0.101786849470412  dEband: -5.710320e-07  t[s]:   3102.48
BandDavidson: Iter:  52  Eband: -0.101787352203949  dEband: -5.027335e-07  t[s]:   3105.91
BandDavidson: Iter:  53  Eband: -0.101787793916040  dEband: -4.417121e-07  t[s]:   3109.28
BandDavidson: Iter:  54  Eband: -0.101788182422874  dEband: -3.885068e-07  t[s]:   3112.66
BandDavidson: Iter:  55  Eband: -0.101788525145034  dEband: -3.427222e-07  t[s]:   3116.06
BandDavidson: Iter:  56  Eband: -0.101788827703909  dEband: -3.025589e-07  t[s]:   3119.36
BandDavidson: Iter:  57  Eband: -0.101789094922098  dEband: -2.672182e-07  t[s]:   3122.64
BandDavidson: Iter:  58  Eband: -0.101789331442830  dEband: -2.365207e-07  t[s]:   3125.93
BandDavidson: Iter:  59  Eband: -0.101789541393942  dEband: -2.099511e-07  t[s]:   3129.11
BandDavidson: Iter:  60  Eband: -0.101789728206231  dEband: -1.868123e-07  t[s]:   3132.33
BandDavidson: Iter:  61  Eband: -0.101789893983166  dEband: -1.657769e-07  t[s]:   3135.53
BandDavidson: Iter:  62  Eband: -0.101790041491959  dEband: -1.475088e-07  t[s]:   3138.66
BandDavidson: Iter:  63  Eband: -0.101790172592634  dEband: -1.311007e-07  t[s]:   3141.76
BandDavidson: Iter:  64  Eband: -0.101790289635986  dEband: -1.170434e-07  t[s]:   3144.95
BandDavidson: Iter:  65  Eband: -0.101790393395589  dEband: -1.037596e-07  t[s]:   3148.04
BandDavidson: Iter:  66  Eband: -0.101790485472672  dEband: -9.207708e-08  t[s]:   3150.99
BandDavidson: Iter:  67  Eband: -0.101790566584322  dEband: -8.111165e-08  t[s]:   3153.93
BandDavidson: Iter:  68  Eband: -0.101790639028975  dEband: -7.244465e-08  t[s]:   3156.92
BandDavidson: Iter:  69  Eband: -0.101790703212412  dEband: -6.418344e-08  t[s]:   3159.82
BandDavidson: Iter:  70  Eband: -0.101790760503633  dEband: -5.729122e-08  t[s]:   3162.67
BandDavidson: Iter:  71  Eband: -0.101790811542807  dEband: -5.103917e-08  t[s]:   3165.50
BandDavidson: Iter:  72  Eband: -0.101790857139123  dEband: -4.559632e-08  t[s]:   3168.41
BandDavidson: Iter:  73  Eband: -0.101790897568142  dEband: -4.042902e-08  t[s]:   3171.29
BandDavidson: Iter:  74  Eband: -0.101790933843234  dEband: -3.627509e-08  t[s]:   3174.15
BandDavidson: Iter:  75  Eband: -0.101790966008445  dEband: -3.216521e-08  t[s]:   3176.97
BandDavidson: Iter:  76  Eband: -0.101790994715647  dEband: -2.870720e-08  t[s]:   3179.81
BandDavidson: Iter:  77  Eband: -0.101791020290070  dEband: -2.557442e-08  t[s]:   3182.54
BandDavidson: Iter:  78  Eband: -0.101791043131062  dEband: -2.284099e-08  t[s]:   3185.34
BandDavidson: Iter:  79  Eband: -0.101791063372547  dEband: -2.024148e-08  t[s]:   3188.14
BandDavidson: Iter:  80  Eband: -0.101791081383083  dEband: -1.801054e-08  t[s]:   3190.93
BandDavidson: Iter:  81  Eband: -0.101791097429671  dEband: -1.604659e-08  t[s]:   3193.73
BandDavidson: Iter:  82  Eband: -0.101791111678282  dEband: -1.424861e-08  t[s]:   3196.44
BandDavidson: Iter:  83  Eband: -0.101791124373955  dEband: -1.269567e-08  t[s]:   3199.24
BandDavidson: Iter:  84  Eband: -0.101791135677146  dEband: -1.130319e-08  t[s]:   3201.96
BandDavidson: Iter:  85  Eband: -0.101791145735153  dEband: -1.005801e-08  t[s]:   3204.64
BandDavidson: Iter:  86  Eband: -0.101791154698611  dEband: -8.963458e-09  t[s]:   3207.27
BandDavidson: Converged (dEband<1.000000e-08)

---- Minimization of quantum number:     9  [ +0.0000000 +0.2500000 +0.0000000 ]  0.004629630  spin +1 ----
BandDavidson: Iter:   0  Eband: -0.044442124945449
BandDavidson: Iter:   1  Eband: -0.078400586508379  dEband: -3.395846e-02  t[s]:   3216.84
BandDavidson: Iter:   2  Eband: -0.089586169611305  dEband: -1.118558e-02  t[s]:   3222.82
BandDavidson: Iter:   3  Eband: -0.093809859239944  dEband: -4.223690e-03  t[s]:   3228.92
BandDavidson: Iter:   4  Eband: -0.096246648116811  dEband: -2.436789e-03  t[s]:   3234.97
[...]
BandDavidson: Iter:  30  Eband: -0.101813984646825  dEband: -9.776740e-06  t[s]:   3772.40
BandDavidson: Iter:  31  Eband: -0.101822003118551  dEband: -8.018472e-06  t[s]:   3777.36
BandDavidson: Iter:  32  Eband: -0.101828554475122  dEband: -6.551357e-06  t[s]:   3782.05
BandDavidson: Iter:  33  Eband: -0.101833987544686  dEband: -5.433070e-06  t[s]:   3786.53
BandDavidson: Iter:  34  Eband: -0.101838529669052  dEband: -4.542124e-06  t[s]:   3790.78
BandDavidson: Iter:  35  Eband: -0.101842392950590  dEband: -3.863282e-06  t[s]:   3795.06
BandDavidson: Iter:  36  Eband: -0.101845680900397  dEband: -3.287950e-06  t[s]:   3799.16
BandDavidson: Iter:  37  Eband: -0.101848496577280  dEband: -2.815677e-06  t[s]:   3803.10
BandDavidson: Iter:  38  Eband: -0.101850928944433  dEband: -2.432367e-06  t[s]:   3807.06
BandDavidson: Iter:  39  Eband: -0.101853039950525  dEband: -2.111006e-06  t[s]:   3811.11
BandDavidson: Iter:  40  Eband: -0.101854875614158  dEband: -1.835664e-06  t[s]:   3815.04
BandDavidson: Iter:  41  Eband: -0.101856462753478  dEband: -1.587139e-06  t[s]:   3818.81
BandDavidson: Iter:  42  Eband: -0.101857840195895  dEband: -1.377442e-06  t[s]:   3822.57
BandDavidson: Iter:  43  Eband: -0.101859043574195  dEband: -1.203378e-06  t[s]:   3826.30
BandDavidson: Iter:  44  Eband: -0.101860097401555  dEband: -1.053827e-06  t[s]:   3829.98
BandDavidson: Iter:  45  Eband: -0.101861025218986  dEband: -9.278174e-07  t[s]:   3833.82
BandDavidson: Iter:  46  Eband: -0.101861839668659  dEband: -8.144497e-07  t[s]:   3837.69
BandDavidson: Iter:  47  Eband: -0.101862557360403  dEband: -7.176917e-07  t[s]:   3841.35
BandDavidson: Iter:  48  Eband: -0.101863184712346  dEband: -6.273519e-07  t[s]:   3844.95
BandDavidson: Iter:  49  Eband: -0.101863737384570  dEband: -5.526722e-07  t[s]:   3848.49
BandDavidson: Iter:  50  Eband: -0.101864222747412  dEband: -4.853628e-07  t[s]:   3851.98
BandDavidson: Iter:  51  Eband: -0.101864649606064  dEband: -4.268587e-07  t[s]:   3855.46
BandDavidson: Iter:  52  Eband: -0.101865025103329  dEband: -3.754973e-07  t[s]:   3858.83
BandDavidson: Iter:  53  Eband: -0.101865355906067  dEband: -3.308027e-07  t[s]:   3862.30
BandDavidson: Iter:  54  Eband: -0.101865647851861  dEband: -2.919458e-07  t[s]:   3865.68
BandDavidson: Iter:  55  Eband: -0.101865906211664  dEband: -2.583598e-07  t[s]:   3869.08
BandDavidson: Iter:  56  Eband: -0.101866134062031  dEband: -2.278504e-07  t[s]:   3872.47
BandDavidson: Iter:  57  Eband: -0.101866335909523  dEband: -2.018475e-07  t[s]:   3875.86
BandDavidson: Iter:  58  Eband: -0.101866514004866  dEband: -1.780953e-07  t[s]:   3879.21
BandDavidson: Iter:  59  Eband: -0.101866671591197  dEband: -1.575863e-07  t[s]:   3882.55
BandDavidson: Iter:  60  Eband: -0.101866811355084  dEband: -1.397639e-07  t[s]:   3885.86
BandDavidson: Iter:  61  Eband: -0.101866935332068  dEband: -1.239770e-07  t[s]:   3889.16
BandDavidson: Iter:  62  Eband: -0.101867045261841  dEband: -1.099298e-07  t[s]:   3892.37
BandDavidson: Iter:  63  Eband: -0.101867142710351  dEband: -9.744851e-08  t[s]:   3895.48
BandDavidson: Iter:  64  Eband: -0.101867229350894  dEband: -8.664054e-08  t[s]:   3898.57
BandDavidson: Iter:  65  Eband: -0.101867306207594  dEband: -7.685670e-08  t[s]:   3901.64
BandDavidson: Iter:  66  Eband: -0.101867374502023  dEband: -6.829443e-08  t[s]:   3904.55
BandDavidson: Iter:  67  Eband: -0.101867435050462  dEband: -6.054844e-08  t[s]:   3907.55
BandDavidson: Iter:  68  Eband: -0.101867488724754  dEband: -5.367429e-08  t[s]:   3910.54
BandDavidson: Iter:  69  Eband: -0.101867536471397  dEband: -4.774664e-08  t[s]:   3913.44
BandDavidson: Iter:  70  Eband: -0.101867578787405  dEband: -4.231601e-08  t[s]:   3916.27
BandDavidson: Iter:  71  Eband: -0.101867616540124  dEband: -3.775272e-08  t[s]:   3919.10
BandDavidson: Iter:  72  Eband: -0.101867650168852  dEband: -3.362873e-08  t[s]:   3921.96
BandDavidson: Iter:  73  Eband: -0.101867680223579  dEband: -3.005473e-08  t[s]:   3924.80
BandDavidson: Iter:  74  Eband: -0.101867707008575  dEband: -2.678500e-08  t[s]:   3927.59
BandDavidson: Iter:  75  Eband: -0.101867731007164  dEband: -2.399859e-08  t[s]:   3930.41
BandDavidson: Iter:  76  Eband: -0.101867752435867  dEband: -2.142870e-08  t[s]:   3933.14
BandDavidson: Iter:  77  Eband: -0.101867771604819  dEband: -1.916895e-08  t[s]:   3935.97
BandDavidson: Iter:  78  Eband: -0.101867788735522  dEband: -1.713070e-08  t[s]:   3938.77
BandDavidson: Iter:  79  Eband: -0.101867804073833  dEband: -1.533831e-08  t[s]:   3941.52
BandDavidson: Iter:  80  Eband: -0.101867817760980  dEband: -1.368715e-08  t[s]:   3944.38
BandDavidson: Iter:  81  Eband: -0.101867830008147  dEband: -1.224717e-08  t[s]:   3947.11
BandDavidson: Iter:  82  Eband: -0.101867840925561  dEband: -1.091741e-08  t[s]:   3949.91
BandDavidson: Iter:  83  Eband: -0.101867850703283  dEband: -9.777722e-09  t[s]:   3952.69
BandDavidson: Converged (dEband<1.000000e-08)

---- Minimization of quantum number:    11  [ +0.0000000 +0.3055556 +0.0000000 ]  0.004629630  spin +1 ----
BandDavidson: Iter:   0  Eband: -0.044431176343678
BandDavidson: Iter:   1  Eband: -0.078405656436925  dEband: -3.397448e-02  t[s]:   3962.19
BandDavidson: Iter:   2  Eband: -0.089733393293349  dEband: -1.132774e-02  t[s]:   3968.19
BandDavidson: Iter:   3  Eband: -0.093671627091501  dEband: -3.938234e-03  t[s]:   3974.27
BandDavidson: Iter:   4  Eband: -0.096041017643475  dEband: -2.369391e-03  t[s]:   3980.26
BandDavidson: Iter:   5  Eband: -0.097888228367631  dEband: -1.847211e-03  t[s]:   3986.32
BandDavidson: Iter:   6  Eband: -0.098739138334670  dEband: -8.509100e-04  t[s]:   3992.43
BandDavidson: Iter:   7  Eband: -0.099370673041228  dEband: -6.315347e-04  t[s]:   3998.57
BandDavidson: Iter:   8  Eband: -0.099876332881190  dEband: -5.056598e-04  t[s]:   4004.63
BandDavidson: Iter:   9  Eband: -0.100211539407089  dEband: -3.352065e-04  t[s]:   4010.73
BandDavidson: Iter:  10  Eband: -0.100510765008645  dEband: -2.992256e-04  t[s]:   4016.80
BandDavidson: Iter:  11  Eband: -0.100761902050526  dEband: -2.511370e-04  t[s]:   4022.92
BandDavidson: Iter:  12  Eband: -0.100957340191738  dEband: -1.954381e-04  t[s]:   4028.94
BandDavidson: Iter:  13  Eband: -0.101131159415922  dEband: -1.738192e-04  t[s]:   4034.89
BandDavidson: Iter:  14  Eband: -0.101264893064412  dEband: -1.337336e-04  t[s]:   4040.92
BandDavidson: Iter:  15  Eband: -0.101363254547255  dEband: -9.836148e-05  t[s]:   4046.90
BandDavidson: Iter:  16  Eband: -0.101438873648044  dEband: -7.561910e-05  t[s]:   4052.96
BandDavidson: Iter:  17  Eband: -0.101499573131862  dEband: -6.069948e-05  t[s]:   4058.89
BandDavidson: Iter:  18  Eband: -0.101554439260508  dEband: -5.486613e-05  t[s]:   4064.99
BandDavidson: Iter:  19  Eband: -0.101602274308433  dEband: -4.783505e-05  t[s]:   4071.08
BandDavidson: Iter:  20  Eband: -0.101642223036631  dEband: -3.994873e-05  t[s]:   4076.97
BandDavidson: Iter:  21  Eband: -0.101675790176184  dEband: -3.356714e-05  t[s]:   4083.04
BandDavidson: Iter:  22  Eband: -0.101706175676108  dEband: -3.038550e-05  t[s]:   4089.04
BandDavidson: Iter:  23  Eband: -0.101734908082899  dEband: -2.873241e-05  t[s]:   4095.03
BandDavidson: Iter:  24  Eband: -0.101761857244850  dEband: -2.694916e-05  t[s]:   4100.98
BandDavidson: Iter:  25  Eband: -0.101787847465404  dEband: -2.599022e-05  t[s]:   4106.74
BandDavidson: Iter:  26  Eband: -0.101813424655938  dEband: -2.557719e-05  t[s]:   4112.48
BandDavidson: Iter:  27  Eband: -0.101833855848943  dEband: -2.043119e-05  t[s]:   4118.08
BandDavidson: Iter:  28  Eband: -0.101853918154213  dEband: -2.006231e-05  t[s]:   4123.70
BandDavidson: Iter:  29  Eband: -0.101868932496910  dEband: -1.501434e-05  t[s]:   4129.04
BandDavidson: Iter:  30  Eband: -0.101879339801236  dEband: -1.040730e-05  t[s]:   4134.32
BandDavidson: Iter:  31  Eband: -0.101887508353772  dEband: -8.168553e-06  t[s]:   4139.33
BandDavidson: Iter:  32  Eband: -0.101893917410396  dEband: -6.409057e-06  t[s]:   4143.90
BandDavidson: Iter:  33  Eband: -0.101899127361139  dEband: -5.209951e-06  t[s]:   4148.28
BandDavidson: Iter:  34  Eband: -0.101903381969190  dEband: -4.254608e-06  t[s]:   4152.44
BandDavidson: Iter:  35  Eband: -0.101906940776495  dEband: -3.558807e-06  t[s]:   4156.67
BandDavidson: Iter:  36  Eband: -0.101909927703733  dEband: -2.986927e-06  t[s]:   4160.69
BandDavidson: Iter:  37  Eband: -0.101912451747068  dEband: -2.524043e-06  t[s]:   4164.69
BandDavidson: Iter:  38  Eband: -0.101914611524423  dEband: -2.159777e-06  t[s]:   4168.69
BandDavidson: Iter:  39  Eband: -0.101916475017128  dEband: -1.863493e-06  t[s]:   4172.67
BandDavidson: Iter:  40  Eband: -0.101918078282281  dEband: -1.603265e-06  t[s]:   4176.52
BandDavidson: Iter:  41  Eband: -0.101919458282665  dEband: -1.380000e-06  t[s]:   4180.39
BandDavidson: Iter:  42  Eband: -0.101920644479314  dEband: -1.186197e-06  t[s]:   4184.16
BandDavidson: Iter:  43  Eband: -0.101921666619007  dEband: -1.022140e-06  t[s]:   4187.98
BandDavidson: Iter:  44  Eband: -0.101922552596581  dEband: -8.859776e-07  t[s]:   4191.86
BandDavidson: Iter:  45  Eband: -0.101923321264435  dEband: -7.686679e-07  t[s]:   4195.58
BandDavidson: Iter:  46  Eband: -0.101923982301828  dEband: -6.610374e-07  t[s]:   4199.20
BandDavidson: Iter:  47  Eband: -0.101924552798793  dEband: -5.704970e-07  t[s]:   4202.93
BandDavidson: Iter:  48  Eband: -0.101925045026839  dEband: -4.922280e-07  t[s]:   4206.50
BandDavidson: Iter:  49  Eband: -0.101925472531881  dEband: -4.275050e-07  t[s]:   4210.19
BandDavidson: Iter:  50  Eband: -0.101925841561511  dEband: -3.690296e-07  t[s]:   4213.69
BandDavidson: Iter:  51  Eband: -0.101926158385531  dEband: -3.168240e-07  t[s]:   4217.16
BandDavidson: Iter:  52  Eband: -0.101926434484172  dEband: -2.760986e-07  t[s]:   4220.56
BandDavidson: Iter:  53  Eband: -0.101926676129491  dEband: -2.416453e-07  t[s]:   4223.99
BandDavidson: Iter:  54  Eband: -0.101926886670239  dEband: -2.105407e-07  t[s]:   4227.38
BandDavidson: Iter:  55  Eband: -0.101927070980854  dEband: -1.843106e-07  t[s]:   4230.69
BandDavidson: Iter:  56  Eband: -0.101927231740967  dEband: -1.607601e-07  t[s]:   4233.95
BandDavidson: Iter:  57  Eband: -0.101927372093685  dEband: -1.403527e-07  t[s]:   4237.31
BandDavidson: Iter:  58  Eband: -0.101927494933642  dEband: -1.228400e-07  t[s]:   4240.61
BandDavidson: Iter:  59  Eband: -0.101927602308031  dEband: -1.073744e-07  t[s]:   4243.80
BandDavidson: Iter:  60  Eband: -0.101927696422688  dEband: -9.411466e-08  t[s]:   4247.05
BandDavidson: Iter:  61  Eband: -0.101927778950151  dEband: -8.252746e-08  t[s]:   4250.29
BandDavidson: Iter:  62  Eband: -0.101927851337215  dEband: -7.238706e-08  t[s]:   4253.45
BandDavidson: Iter:  63  Eband: -0.101927914664474  dEband: -6.332726e-08  t[s]:   4256.60
BandDavidson: Iter:  64  Eband: -0.101927969892395  dEband: -5.522792e-08  t[s]:   4259.70
BandDavidson: Iter:  65  Eband: -0.101928018339347  dEband: -4.844695e-08  t[s]:   4262.82
BandDavidson: Iter:  66  Eband: -0.101928061068301  dEband: -4.272895e-08  t[s]:   4265.87
BandDavidson: Iter:  67  Eband: -0.101928098682144  dEband: -3.761384e-08  t[s]:   4268.80
BandDavidson: Iter:  68  Eband: -0.101928131875431  dEband: -3.319329e-08  t[s]:   4271.72
BandDavidson: Iter:  69  Eband: -0.101928161179074  dEband: -2.930364e-08  t[s]:   4274.63
BandDavidson: Iter:  70  Eband: -0.101928187081593  dEband: -2.590252e-08  t[s]:   4277.53
BandDavidson: Iter:  71  Eband: -0.101928210004167  dEband: -2.292257e-08  t[s]:   4280.40
BandDavidson: Iter:  72  Eband: -0.101928230252599  dEband: -2.024843e-08  t[s]:   4283.17
BandDavidson: Iter:  73  Eband: -0.101928248247692  dEband: -1.799509e-08  t[s]:   4286.00
BandDavidson: Iter:  74  Eband: -0.101928264182814  dEband: -1.593512e-08  t[s]:   4288.93
BandDavidson: Iter:  75  Eband: -0.101928278370256  dEband: -1.418744e-08  t[s]:   4291.76
BandDavidson: Iter:  76  Eband: -0.101928290957133  dEband: -1.258688e-08  t[s]:   4294.62
BandDavidson: Iter:  77  Eband: -0.101928302174622  dEband: -1.121749e-08  t[s]:   4297.43
BandDavidson: Iter:  78  Eband: -0.101928312143742  dEband: -9.969121e-09  t[s]:   4300.26
BandDavidson: Converged (dEband<1.000000e-08)

---- Minimization of quantum number:    12  [ +0.0000000 +0.3333333 +0.0000000 ]  0.004629630  spin +1 ----
BandDavidson: Iter:   0  Eband: -0.044675651485079
BandDavidson: Iter:   1  Eband: -0.078503720547476  dEband: -3.382807e-02  t[s]:   4309.75
BandDavidson: Iter:   2  Eband: -0.089761952735605  dEband: -1.125823e-02  t[s]:   4315.84
BandDavidson: Iter:   3  Eband: -0.093841891209801  dEband: -4.079938e-03  t[s]:   4321.85
BandDavidson: Iter:   4  Eband: -0.095801462530587  dEband: -1.959571e-03  t[s]:   4327.82
BandDavidson: Iter:   5  Eband: -0.097075993788367  dEband: -1.274531e-03  t[s]:   4333.88
BandDavidson: Iter:   6  Eband: -0.098307379192862  dEband: -1.231385e-03  t[s]:   4339.84
BandDavidson: Iter:   7  Eband: -0.099050477580608  dEband: -7.430984e-04  t[s]:   4346.05
BandDavidson: Iter:   8  Eband: -0.099720850965598  dEband: -6.703734e-04  t[s]:   4352.13
BandDavidson: Iter:   9  Eband: -0.100262101426445  dEband: -5.412505e-04  t[s]:   4358.21
BandDavidson: Iter:  10  Eband: -0.100594362009033  dEband: -3.322606e-04  t[s]:   4364.27
BandDavidson: Iter:  11  Eband: -0.100818074493515  dEband: -2.237125e-04  t[s]:   4370.32
BandDavidson: Iter:  12  Eband: -0.100990896845141  dEband: -1.728224e-04  t[s]:   4376.37
BandDavidson: Iter:  13  Eband: -0.101145330098398  dEband: -1.544333e-04  t[s]:   4382.43
BandDavidson: Iter:  14  Eband: -0.101275589372606  dEband: -1.302593e-04  t[s]:   4388.52
BandDavidson: Iter:  15  Eband: -0.101379789095005  dEband: -1.041997e-04  t[s]:   4394.58
BandDavidson: Iter:  16  Eband: -0.101467272252299  dEband: -8.748316e-05  t[s]:   4400.72
BandDavidson: Iter:  17  Eband: -0.101545219967200  dEband: -7.794771e-05  t[s]:   4406.71
BandDavidson: Iter:  18  Eband: -0.101622794213629  dEband: -7.757425e-05  t[s]:   4412.86
BandDavidson: Iter:  19  Eband: -0.101693589034298  dEband: -7.079482e-05  t[s]:   4418.91
BandDavidson: Iter:  20  Eband: -0.101749346143968  dEband: -5.575711e-05  t[s]:   4425.06
BandDavidson: Iter:  21  Eband: -0.101793819566705  dEband: -4.447342e-05  t[s]:   4431.10
BandDavidson: Iter:  22  Eband: -0.101830303011525  dEband: -3.648344e-05  t[s]:   4437.15
BandDavidson: Iter:  23  Eband: -0.101859051911496  dEband: -2.874890e-05  t[s]:   4443.12
BandDavidson: Iter:  24  Eband: -0.101881378073491  dEband: -2.232616e-05  t[s]:   4449.13
BandDavidson: Iter:  25  Eband: -0.101899309795009  dEband: -1.793172e-05  t[s]:   4454.97
BandDavidson: Iter:  26  Eband: -0.101914004393099  dEband: -1.469460e-05  t[s]:   4460.79
BandDavidson: Iter:  27  Eband: -0.101926085259509  dEband: -1.208087e-05  t[s]:   4466.52
BandDavidson: Iter:  28  Eband: -0.101936037314562  dEband: -9.952055e-06  t[s]:   4471.98
BandDavidson: Iter:  29  Eband: -0.101944380322127  dEband: -8.343008e-06  t[s]:   4477.32
BandDavidson: Iter:  30  Eband: -0.101951281734242  dEband: -6.901412e-06  t[s]:   4482.62
BandDavidson: Iter:  31  Eband: -0.101956892752562  dEband: -5.611018e-06  t[s]:   4487.57
BandDavidson: Iter:  32  Eband: -0.101961493160073  dEband: -4.600408e-06  t[s]:   4492.23
BandDavidson: Iter:  33  Eband: -0.101965302399705  dEband: -3.809240e-06  t[s]:   4496.75
BandDavidson: Iter:  34  Eband: -0.101968494220090  dEband: -3.191820e-06  t[s]:   4501.01
BandDavidson: Iter:  35  Eband: -0.101971194907180  dEband: -2.700687e-06  t[s]:   4505.16
BandDavidson: Iter:  36  Eband: -0.101973490047920  dEband: -2.295141e-06  t[s]:   4509.28
BandDavidson: Iter:  37  Eband: -0.101975434519590  dEband: -1.944472e-06  t[s]:   4513.36
BandDavidson: Iter:  38  Eband: -0.101977087003816  dEband: -1.652484e-06  t[s]:   4517.36
BandDavidson: Iter:  39  Eband: -0.101978503261629  dEband: -1.416258e-06  t[s]:   4521.37
BandDavidson: Iter:  40  Eband: -0.101979717887188  dEband: -1.214626e-06  t[s]:   4525.20
BandDavidson: Iter:  41  Eband: -0.101980761648880  dEband: -1.043762e-06  t[s]:   4529.07
BandDavidson: Iter:  42  Eband: -0.101981662746876  dEband: -9.010980e-07  t[s]:   4532.91
BandDavidson: Iter:  43  Eband: -0.101982442717070  dEband: -7.799702e-07  t[s]:   4536.80
BandDavidson: Iter:  44  Eband: -0.101983116693001  dEband: -6.739759e-07  t[s]:   4540.59
BandDavidson: Iter:  45  Eband: -0.101983702166656  dEband: -5.854737e-07  t[s]:   4544.40
BandDavidson: Iter:  46  Eband: -0.101984206696909  dEband: -5.045303e-07  t[s]:   4548.09
BandDavidson: Iter:  47  Eband: -0.101984643280056  dEband: -4.365831e-07  t[s]:   4551.84
BandDavidson: Iter:  48  Eband: -0.101985022919653  dEband: -3.796396e-07  t[s]:   4555.47
BandDavidson: Iter:  49  Eband: -0.101985352764300  dEband: -3.298446e-07  t[s]:   4559.01
BandDavidson: Iter:  50  Eband: -0.101985639748423  dEband: -2.869841e-07  t[s]:   4562.49
BandDavidson: Iter:  51  Eband: -0.101985891060065  dEband: -2.513116e-07  t[s]:   4565.93
BandDavidson: Iter:  52  Eband: -0.101986112276577  dEband: -2.212165e-07  t[s]:   4569.34
BandDavidson: Iter:  53  Eband: -0.101986306844417  dEband: -1.945678e-07  t[s]:   4572.78
BandDavidson: Iter:  54  Eband: -0.101986477416776  dEband: -1.705724e-07  t[s]:   4576.19
BandDavidson: Iter:  55  Eband: -0.101986627597507  dEband: -1.501807e-07  t[s]:   4579.61
BandDavidson: Iter:  56  Eband: -0.101986760494635  dEband: -1.328971e-07  t[s]:   4582.98
BandDavidson: Iter:  57  Eband: -0.101986878102109  dEband: -1.176075e-07  t[s]:   4586.30
BandDavidson: Iter:  58  Eband: -0.101986982756364  dEband: -1.046543e-07  t[s]:   4589.59
BandDavidson: Iter:  59  Eband: -0.101987075584739  dEband: -9.282838e-08  t[s]:   4592.94
BandDavidson: Iter:  60  Eband: -0.101987158098077  dEband: -8.251334e-08  t[s]:   4596.23
BandDavidson: Iter:  61  Eband: -0.101987231315505  dEband: -7.321743e-08  t[s]:   4599.47
BandDavidson: Iter:  62  Eband: -0.101987296437994  dEband: -6.512249e-08  t[s]:   4602.66
BandDavidson: Iter:  63  Eband: -0.101987354340548  dEband: -5.790255e-08  t[s]:   4605.85
BandDavidson: Iter:  64  Eband: -0.101987405970267  dEband: -5.162972e-08  t[s]:   4609.06
BandDavidson: Iter:  65  Eband: -0.101987451974712  dEband: -4.600445e-08  t[s]:   4612.21
BandDavidson: Iter:  66  Eband: -0.101987492954160  dEband: -4.097945e-08  t[s]:   4615.30
BandDavidson: Iter:  67  Eband: -0.101987529643039  dEband: -3.668888e-08  t[s]:   4618.43
BandDavidson: Iter:  68  Eband: -0.101987562192131  dEband: -3.254909e-08  t[s]:   4621.36
BandDavidson: Iter:  69  Eband: -0.101987591299617  dEband: -2.910749e-08  t[s]:   4624.28
BandDavidson: Iter:  70  Eband: -0.101987617335714  dEband: -2.603610e-08  t[s]:   4627.17
BandDavidson: Iter:  71  Eband: -0.101987640700418  dEband: -2.336470e-08  t[s]:   4630.07
BandDavidson: Iter:  72  Eband: -0.101987661692379  dEband: -2.099196e-08  t[s]:   4632.84
BandDavidson: Iter:  73  Eband: -0.101987680586919  dEband: -1.889454e-08  t[s]:   4635.68
BandDavidson: Iter:  74  Eband: -0.101987697567892  dEband: -1.698097e-08  t[s]:   4638.50
BandDavidson: Iter:  75  Eband: -0.101987712873358  dEband: -1.530547e-08  t[s]:   4641.34
BandDavidson: Iter:  76  Eband: -0.101987726640220  dEband: -1.376686e-08  t[s]:   4644.21
BandDavidson: Iter:  77  Eband: -0.101987739029613  dEband: -1.238939e-08  t[s]:   4647.03
BandDavidson: Iter:  78  Eband: -0.101987750143636  dEband: -1.111402e-08  t[s]:   4649.86
BandDavidson: Iter:  79  Eband: -0.101987760127824  dEband: -9.984188e-09  t[s]:   4652.64
BandDavidson: Converged (dEband<1.000000e-08)
Setting wave functions to eigenvectors of Hamiltonian
	FillingsUpdate:  mu: -0.058642691  nElectrons: 121.000000  magneticMoment: [ Abs: 0.15323  Tot: +0.15278 ]

Dumping 'Rb-0.331.dosUp' ... done.
Dumping 'Rb-0.331.dosDn' ... done.
End date and time: Sat Apr  2 16:01:07 2022  (Duration: 0-1:40:48.09)
Done!
