Second Layer Distance is 0.313

--------------------------------------------------------------------------
The library attempted to open the following supporting CUDA libraries,
but each of them failed.  CUDA-aware support is disabled.
libcuda.so.1: cannot open shared object file: No such file or directory
libcuda.dylib: cannot open shared object file: No such file or directory
/usr/lib64/libcuda.so.1: cannot open shared object file: No such file or directory
/usr/lib64/libcuda.dylib: cannot open shared object file: No such file or directory
If you are not interested in CUDA-aware support, then run with
--mca opal_warn_on_missing_libcuda 0 to suppress this message.  If you are interested
in CUDA-aware support, then try setting LD_LIBRARY_PATH to the location
of libcuda.so.1 to get passed this issue.
--------------------------------------------------------------------------
--------------------------------------------------------------------------
No OpenFabrics connection schemes reported that they were able to be
used on a specific port.  As such, the openib BTL (OpenFabrics
support) will be disabled for this port.

  Local host:           d-6-15-3
  Local device:         mlx5_1
  Local port:           1
  CPCs attempted:       rdmacm, udcm
--------------------------------------------------------------------------

*************** JDFTx 1.6.0 (git hash 42ebbcc2) ***************

Start date and time: Sat Apr  2 14:20:19 2022
Executable jdftx with command-line: -i Moire.dos.in
Running on hosts (process indices):  d-6-15-3 (0-18)
Divided in process groups (process indices):  0 (0)  1 (1)  2 (2)  3 (3)  4 (4)  5 (5)  6 (6)  7 (7)  8 (8)  9 (9)  10 (10)  11 (11)  12 (12)  13 (13)  14 (14)  15 (15)  16 (16)  17 (17)  18 (18)
Resource initialization completed at t[s]:      0.00
Run totals: 19 processes, 48 threads, 0 GPUs


Input parsed successfully to the following command list (including defaults):

basis kpoint-dependent
coords-type Lattice
core-overlap-check vector
coulomb-interaction Slab 001
davidson-band-ratio 1.1
dump End DOS
dump-name Rb-0.313.$VAR
elec-cutoff 20
elec-eigen-algo Davidson
elec-ex-corr gga-PBE
elec-initial-magnetization 1.000000 no
elec-smearing Fermi 1e-05
electronic-minimize  \
	dirUpdateScheme      FletcherReeves \
	linminMethod         DirUpdateRecommended \
	nIterations          100 \
	history              15 \
	knormThreshold       0 \
	energyDiffThreshold  1e-08 \
	nEnergyDiff          2 \
	alphaTstart          1 \
	alphaTmin            1e-10 \
	updateTestStepSize   yes \
	alphaTreduceFactor   0.1 \
	alphaTincreaseFactor 3 \
	nAlphaAdjustMax      3 \
	wolfeEnergy          0.0001 \
	wolfeGradient        0.9 \
	fdTest               no
exchange-regularization WignerSeitzTruncated
fix-electron-density ../Rb-0.313.$VAR
fluid None
fluid-ex-corr (null) lda-PZ
fluid-gummel-loop 10 1.000000e-05
fluid-minimize  \
	dirUpdateScheme      PolakRibiere \
	linminMethod         DirUpdateRecommended \
	nIterations          100 \
	history              15 \
	knormThreshold       0 \
	energyDiffThreshold  0 \
	nEnergyDiff          2 \
	alphaTstart          1 \
	alphaTmin            1e-10 \
	updateTestStepSize   yes \
	alphaTreduceFactor   0.1 \
	alphaTincreaseFactor 3 \
	nAlphaAdjustMax      3 \
	wolfeEnergy          0.0001 \
	wolfeGradient        0.9 \
	fdTest               no
fluid-solvent H2O 55.338 ScalarEOS \
	epsBulk 78.4 \
	pMol 0.92466 \
	epsInf 1.77 \
	Pvap 1.06736e-10 \
	sigmaBulk 4.62e-05 \
	Rvdw 2.61727 \
	Res 1.42 \
	tauNuc 343133 \
	poleEl 15 7 1
forces-output-coords Positions
ion N   0.952380952380952   0.761904761904762   0.000000000000000 0
ion N   1.428571428571428   1.285714285714286   0.313000000000000 0
ion N   0.380952380952381   0.904761904761905   0.000000000000000 0
ion N   0.714285714285714   1.142857142857143   0.313000000000000 0
ion N   0.523809523809524   0.619047619047619   0.000000000000000 0
ion N   1.000000000000000   1.000000000000000   0.313000000000000 0
ion N   0.666666666666667   0.333333333333333   0.000000000000000 0
ion N   1.285714285714286   0.857142857142857   0.313000000000000 0
ion N   0.809523809523810   0.047619047619048   0.000000000000000 0
ion N   1.571428571428571   0.714285714285714   0.313000000000000 0
ion N   0.095238095238095   0.476190476190476   0.000000000000000 0
ion N   0.238095238095238   0.190476190476190   0.000000000000000 0
ion N   0.857142857142857   0.571428571428571   0.313000000000000 0
ion N   1.142857142857143   0.428571428571429   0.313000000000000 0
ion B   0.571428571428572   0.857142857142857   0.000000000000000 0
ion B   0.952380952380952   1.190476190476190   0.313000000000000 0
ion B   0.714285714285714   0.571428571428571   0.000000000000000 0
ion B   1.238095238095238   1.047619047619047   0.313000000000000 0
ion B   0.857142857142857   0.285714285714286   0.000000000000000 0
ion B   1.523809523809524   0.904761904761905   0.313000000000000 0
ion B   0.142857142857143   0.714285714285714   0.000000000000000 0
ion B   0.285714285714286   0.428571428571429   0.000000000000000 0
ion B   0.809523809523810   0.761904761904762   0.313000000000000 0
ion B   0.428571428571429   0.142857142857143   0.000000000000000 0
ion B   1.095238095238095   0.619047619047619   0.313000000000000 0
ion B   1.380952380952381   0.476190476190476   0.313000000000000 0
ion B   0.000000000000000   0.000000000000000   0.000000000000000 0
ion B   0.666666666666667   0.333333333333333   0.313000000000000 0
ion Rb   0.333333333300000   0.666666666600000   0.156500000000000 0
ion-species SG15/$ID_ONCV_PBE.upf
ion-width 0
ionic-minimize  \
	dirUpdateScheme      L-BFGS \
	linminMethod         DirUpdateRecommended \
	nIterations          0 \
	history              15 \
	knormThreshold       0.0001 \
	energyDiffThreshold  1e-06 \
	nEnergyDiff          2 \
	alphaTstart          1 \
	alphaTmin            1e-10 \
	updateTestStepSize   yes \
	alphaTreduceFactor   0.1 \
	alphaTincreaseFactor 3 \
	nAlphaAdjustMax      3 \
	wolfeEnergy          0.0001 \
	wolfeGradient        0.9 \
	fdTest               no
kpoint   0.000000000000   0.000000000000   0.000000000000  1.00000000000000
kpoint-folding 36 36 1 
latt-move-scale 1 1 1
latt-scale 1 1 1 
lattice  \
	 -11.818700000000000    2.363740000000000    0.000000000000000  \
	   4.094120000000000  -12.282400000000001    0.000000000000000  \
	   0.000000000000000    0.000000000000000   40.000000000000000 
lattice-minimize  \
	dirUpdateScheme      L-BFGS \
	linminMethod         DirUpdateRecommended \
	nIterations          0 \
	history              15 \
	knormThreshold       0 \
	energyDiffThreshold  1e-06 \
	nEnergyDiff          2 \
	alphaTstart          1 \
	alphaTmin            1e-10 \
	updateTestStepSize   yes \
	alphaTreduceFactor   0.1 \
	alphaTincreaseFactor 3 \
	nAlphaAdjustMax      3 \
	wolfeEnergy          0.0001 \
	wolfeGradient        0.9 \
	fdTest               no
lcao-params -1 1e-06 1e-05
pcm-variant GLSSA13
spintype z-spin
subspace-rotation-factor 1 yes
symmetries automatic
symmetry-threshold 0.0001
van-der-waals D3



---------- Setting up symmetries ----------

Found 24 point-group symmetries of the bravais lattice
Found 6 space-group symmetries with basis
Applied RMS atom displacement 1.31765e-10 bohrs to make symmetries exact.

---------- Initializing the Grid ----------
R = 
[     -11.8187      2.36374            0  ]
[      4.09412     -12.2824            0  ]
[            0            0           40  ]
unit cell volume = 5419.38
G =
[  -0.569604   -0.10962          0  ]
[  -0.189867    -0.5481          0  ]
[          0          0    0.15708  ]
Minimum fftbox size, Smin = [  52  52  164  ]
Chosen fftbox size, S = [  54  54  168  ]

---------- Exchange Correlation functional ----------
Initalized PBE GGA exchange.
Initalized PBE GGA correlation.

---------- Setting up pseudopotentials ----------
Width of ionic core gaussian charges (only for fluid interactions / plotting) set to 0

Reading pseudopotential file '/home/gridsan/aligho/DFT/build-Nov24/pseudopotentials/SG15/N_ONCV_PBE.upf':
  'N' pseudopotential, 'PBE' functional
  Generated using ONCVPSP code by D. R. Hamann
  Author: Martin Schlipf and Francois Gygi  Date: 150915.
  5 valence electrons, 2 orbitals, 4 projectors, 1058 radial grid points, with lMax = 1
  Transforming local potential to a uniform radial grid of dG=0.02 with 1514 points.
  Transforming nonlocal projectors to a uniform radial grid of dG=0.02 with 432 points.
    2S    l: 0   occupation:  2.0   eigenvalue: -0.682907
    2P    l: 1   occupation:  3.0   eigenvalue: -0.260548
  Transforming atomic orbitals to a uniform radial grid of dG=0.02 with 432 points.
  Core radius for overlap checks: 1.35 bohrs.
  Reading pulay file /home/gridsan/aligho/DFT/build-Nov24/pseudopotentials/SG15/N_ONCV_PBE.pulay ... using dE_dnG = -2.956256e-02 computed for Ecut = 20.

Reading pseudopotential file '/home/gridsan/aligho/DFT/build-Nov24/pseudopotentials/SG15/B_ONCV_PBE.upf':
  'B' pseudopotential, 'PBE' functional
  Generated using ONCVPSP code by D. R. Hamann
  Author: Martin Schlipf and Francois Gygi  Date: 150915.
  3 valence electrons, 2 orbitals, 4 projectors, 1534 radial grid points, with lMax = 1
  Transforming local potential to a uniform radial grid of dG=0.02 with 1514 points.
  Transforming nonlocal projectors to a uniform radial grid of dG=0.02 with 432 points.
    2S    l: 0   occupation:  2.0   eigenvalue: -0.347027
    2P    l: 1   occupation:  1.0   eigenvalue: -0.132548
  Transforming atomic orbitals to a uniform radial grid of dG=0.02 with 432 points.
  Core radius for overlap checks: 1.60 bohrs.
  Reading pulay file /home/gridsan/aligho/DFT/build-Nov24/pseudopotentials/SG15/B_ONCV_PBE.pulay ... using dE_dnG = -3.748568e-04 computed for Ecut = 20.

Reading pseudopotential file '/home/gridsan/aligho/DFT/build-Nov24/pseudopotentials/SG15/Rb_ONCV_PBE.upf':
  'Rb' pseudopotential, 'PBE' functional
  Generated using ONCVPSP code by D. R. Hamann
  Author: Martin Schlipf and Francois Gygi  Date: 150915.
  9 valence electrons, 3 orbitals, 6 projectors, 2308 radial grid points, with lMax = 2
  Transforming local potential to a uniform radial grid of dG=0.02 with 1514 points.
  Transforming nonlocal projectors to a uniform radial grid of dG=0.02 with 432 points.
    4S    l: 0   occupation:  2.0   eigenvalue: -1.172069
    4P    l: 1   occupation:  6.0   eigenvalue: -0.586674
    5S    l: 0   occupation:  1.0   eigenvalue: -0.082006
  Transforming atomic orbitals to a uniform radial grid of dG=0.02 with 432 points.
  Core radius for overlap checks: 2.60 bohrs.
  Reading pulay file /home/gridsan/aligho/DFT/build-Nov24/pseudopotentials/SG15/Rb_ONCV_PBE.pulay ... using dE_dnG = -1.360715e-05 computed for Ecut = 20.

Initialized 3 species with 29 total atoms.

Folded 1 k-points by 36x36x1 to 1296 k-points.

---------- Setting up k-points, bands, fillings ----------
Adding inversion symmetry to k-mesh for non-inversion-symmetric unit cell.
Reduced to 127 k-points under symmetry. 
Computing the number of bands and number of electrons
Calculating initial fillings.
nElectrons: 121.000000   nBands: 117   nStates: 254

----- Setting up reduced wavefunction bases (one per k-point) -----
average nbasis = 23152.266 , ideal nbasis = 23152.016

----- Initializing Supercell corresponding to k-point mesh -----
Lattice vector linear combinations in supercell:
[  36   0   0  ]
[   0  36   0  ]
[   0   0   1  ]
Supercell lattice vectors:
[  -425.473  85.0946  0  ]
[  147.388  -442.166  0  ]
[  0  0  40  ]

---------- Setting up coulomb interaction ----------
Initialized slab truncation along lattice direction 001

Initializing DFT-D3 calculator:
	Parameters set for gga-PBE functional
	s6:  1.000  s_r6:  1.217
	s8:  0.722  s_r8:  1.000
	Per-atom parameters loaded for:
	 N:  sqrtQ[a0]:  2.712  Rcov[a0]:  1.342  CN: [ 0.00 0.99 2.01 2.99 ]
	 B:  sqrtQ[a0]:  3.644  Rcov[a0]:  1.455  CN: [ 0.00 0.97 1.94 2.91 4.59 ]
	Rb:  sqrtQ[a0]:  9.555  Rcov[a0]:  3.572  CN: [ 0.00 0.97 ]

---------- Setting up 2D ewald sum ----------
Optimum gaussian width for ewald sums = 6.943804 bohr.
Real space sums over 289 unit cells with max indices [  8  8  0  ]
Reciprocal space sums over 81 terms with max indices [  4  4  0  ]

Computing DFT-D3 correction:
# coordination-number N 3.177 3.177 3.481 3.177 3.481 3.156 3.156 3.481 3.177 3.481 3.481 3.177 3.177 3.481
# coordination-number B 3.768 3.393 3.393 3.393 3.393 3.768 3.768 3.768 3.393 3.393 3.768 3.768 3.365 3.365
# coordination-number Rb 5.430
# diagonal-C6 N 15.60 15.60 15.58 15.60 15.58 15.60 15.60 15.58 15.60 15.58 15.58 15.60 15.60 15.58
# diagonal-C6 B 29.49 31.42 31.42 31.42 31.42 29.49 29.49 29.49 31.42 31.42 29.49 29.49 31.44 31.44
# diagonal-C6 Rb 476.26
EvdW_6 =   -0.030941
EvdW_8 =   -0.033895

---------- Allocating electronic variables ----------
Reading n_up from file '../Rb-0.313.n_up' ... done
Reading n_dn from file '../Rb-0.313.n_dn' ... done
Initializing wave functions:  linear combination of atomic orbitals
[d-6-15-3:92874] 18 more processes have sent help message help-mpi-common-cuda.txt / dlopen failed
[d-6-15-3:92874] Set MCA parameter "orte_base_help_aggregate" to 0 to see all help / error messages
[d-6-15-3:92874] 18 more processes have sent help message help-mpi-btl-openib-cpc-base.txt / no cpcs for port


---- Citations for features of the code used in this run ----

   Software package:
      R. Sundararaman, K. Letchworth-Weaver, K.A. Schwarz, D. Gunceler, Y. Ozhabes and T.A. Arias, 'JDFTx: software for joint density-functional theory', SoftwareX 6, 278 (2017)

   gga-PBE exchange-correlation functional:
      J.P. Perdew, K. Burke and M. Ernzerhof, Phys. Rev. Lett. 77, 3865 (1996)

   Pseudopotentials:
      M Schlipf and F Gygi, Comput. Phys. Commun. 196, 36 (2015)

   Truncated Coulomb potentials:
      R. Sundararaman and T.A. Arias, Phys. Rev. B 87, 165122 (2013)

   DFT-D3 dispersion correction:
      S. Grimme, J. Antony, S. Ehrlich and H. Krieg, J. Chem. Phys. 132, 154104 (2010)

   Total energy minimization with Auxiliary Hamiltonian:
      C. Freysoldt, S. Boeck, and J. Neugebauer, Phys. Rev. B 79, 241103(R) (2009)

   Linear-tetrahedron sampling for density of states:
      G. Lehmann and M. Taut, Phys. status solidi (b) 54, 469 (1972)

This list may not be complete. Please suggest additional citations or
report any other bugs at https://github.com/shankar1729/jdftx/issues

Initialization completed successfully at t[s]:     92.65


----------- Band structure minimization -------------
Minimization will be done independently for each quantum number.

---- Minimization of quantum number:     0  [ +0.0000000 +0.0000000 +0.0000000 ]  0.000771605  spin +1 ----
BandDavidson: Iter:   0  Eband: -0.007776596712660
BandDavidson: Iter:   1  Eband: -0.013427219293938  dEband: -5.650623e-03  t[s]:    102.84
BandDavidson: Iter:   2  Eband: -0.015243983348995  dEband: -1.816764e-03  t[s]:    109.01
BandDavidson: Iter:   3  Eband: -0.016038394846447  dEband: -7.944115e-04  t[s]:    115.18
BandDavidson: Iter:   4  Eband: -0.016575737081331  dEband: -5.373422e-04  t[s]:    121.31
BandDavidson: Iter:   5  Eband: -0.016822431115344  dEband: -2.466940e-04  t[s]:    127.43
BandDavidson: Iter:   6  Eband: -0.016951872738793  dEband: -1.294416e-04  t[s]:    133.53
BandDavidson: Iter:   7  Eband: -0.017021495933037  dEband: -6.962319e-05  t[s]:    139.73
BandDavidson: Iter:   8  Eband: -0.017061345505290  dEband: -3.984957e-05  t[s]:    145.81
BandDavidson: Iter:   9  Eband: -0.017088585131159  dEband: -2.723963e-05  t[s]:    151.86
BandDavidson: Iter:  10  Eband: -0.017113903099296  dEband: -2.531797e-05  t[s]:    158.05
BandDavidson: Iter:  11  Eband: -0.017132454980373  dEband: -1.855188e-05  t[s]:    164.27
BandDavidson: Iter:  12  Eband: -0.017146211655415  dEband: -1.375668e-05  t[s]:    170.42
BandDavidson: Iter:  13  Eband: -0.017156416667554  dEband: -1.020501e-05  t[s]:    176.48
BandDavidson: Iter:  14  Eband: -0.017164024702970  dEband: -7.608035e-06  t[s]:    182.65
BandDavidson: Iter:  15  Eband: -0.017169732442301  dEband: -5.707739e-06  t[s]:    188.77
BandDavidson: Iter:  16  Eband: -0.017174118996054  dEband: -4.386554e-06  t[s]:    194.91
BandDavidson: Iter:  17  Eband: -0.017177542813992  dEband: -3.423818e-06  t[s]:    201.05
BandDavidson: Iter:  18  Eband: -0.017180296873173  dEband: -2.754059e-06  t[s]:    207.17
BandDavidson: Iter:  19  Eband: -0.017182553848931  dEband: -2.256976e-06  t[s]:    213.20
BandDavidson: Iter:  20  Eband: -0.017185191115028  dEband: -2.637266e-06  t[s]:    219.31
BandDavidson: Iter:  21  Eband: -0.017189237922910  dEband: -4.046808e-06  t[s]:    225.46
BandDavidson: Iter:  22  Eband: -0.017192649845812  dEband: -3.411923e-06  t[s]:    231.48
BandDavidson: Iter:  23  Eband: -0.017195536064043  dEband: -2.886218e-06  t[s]:    237.46
BandDavidson: Iter:  24  Eband: -0.017198000367129  dEband: -2.464303e-06  t[s]:    243.33
BandDavidson: Iter:  25  Eband: -0.017200125811318  dEband: -2.125444e-06  t[s]:    249.16
BandDavidson: Iter:  26  Eband: -0.017201965065044  dEband: -1.839254e-06  t[s]:    255.10
BandDavidson: Iter:  27  Eband: -0.017203561095130  dEband: -1.596030e-06  t[s]:    260.88
BandDavidson: Iter:  28  Eband: -0.017204960737048  dEband: -1.399642e-06  t[s]:    266.49
BandDavidson: Iter:  29  Eband: -0.017206210143596  dEband: -1.249407e-06  t[s]:    271.81
BandDavidson: Iter:  30  Eband: -0.017207369457684  dEband: -1.159314e-06  t[s]:    277.04
BandDavidson: Iter:  31  Eband: -0.017208311995509  dEband: -9.425378e-07  t[s]:    281.85
BandDavidson: Iter:  32  Eband: -0.017209087493191  dEband: -7.754977e-07  t[s]:    286.34
BandDavidson: Iter:  33  Eband: -0.017209720534610  dEband: -6.330414e-07  t[s]:    290.57
BandDavidson: Iter:  34  Eband: -0.017210240962170  dEband: -5.204276e-07  t[s]:    294.80
BandDavidson: Iter:  35  Eband: -0.017210672142934  dEband: -4.311808e-07  t[s]:    299.14
BandDavidson: Iter:  36  Eband: -0.017211029888652  dEband: -3.577457e-07  t[s]:    303.35
BandDavidson: Iter:  37  Eband: -0.017211326874583  dEband: -2.969859e-07  t[s]:    307.61
BandDavidson: Iter:  38  Eband: -0.017211571622401  dEband: -2.447478e-07  t[s]:    311.74
BandDavidson: Iter:  39  Eband: -0.017211771499463  dEband: -1.998771e-07  t[s]:    315.76
BandDavidson: Iter:  40  Eband: -0.017211935398148  dEband: -1.638987e-07  t[s]:    319.57
BandDavidson: Iter:  41  Eband: -0.017212070637174  dEband: -1.352390e-07  t[s]:    323.34
BandDavidson: Iter:  42  Eband: -0.017212184037204  dEband: -1.134000e-07  t[s]:    327.22
BandDavidson: Iter:  43  Eband: -0.017212279439848  dEband: -9.540264e-08  t[s]:    331.14
BandDavidson: Iter:  44  Eband: -0.017212360345872  dEband: -8.090602e-08  t[s]:    334.97
BandDavidson: Iter:  45  Eband: -0.017212428687311  dEband: -6.834144e-08  t[s]:    338.79
BandDavidson: Iter:  46  Eband: -0.017212486583208  dEband: -5.789590e-08  t[s]:    342.66
BandDavidson: Iter:  47  Eband: -0.017212535481877  dEband: -4.889867e-08  t[s]:    346.44
BandDavidson: Iter:  48  Eband: -0.017212576597232  dEband: -4.111535e-08  t[s]:    350.07
BandDavidson: Iter:  49  Eband: -0.017212611067778  dEband: -3.447055e-08  t[s]:    353.75
BandDavidson: Iter:  50  Eband: -0.017212640017792  dEband: -2.895001e-08  t[s]:    357.32
BandDavidson: Iter:  51  Eband: -0.017212664272370  dEband: -2.425458e-08  t[s]:    360.91
BandDavidson: Iter:  52  Eband: -0.017212684619271  dEband: -2.034690e-08  t[s]:    364.36
BandDavidson: Iter:  53  Eband: -0.017212701688679  dEband: -1.706941e-08  t[s]:    367.88
BandDavidson: Iter:  54  Eband: -0.017212715981328  dEband: -1.429265e-08  t[s]:    371.33
BandDavidson: Iter:  55  Eband: -0.017212727908200  dEband: -1.192687e-08  t[s]:    374.80
BandDavidson: Iter:  56  Eband: -0.017212737858360  dEband: -9.950160e-09  t[s]:    378.15
BandDavidson: Converged (dEband<1.000000e-08)

---- Minimization of quantum number:     1  [ +0.0000000 +0.0277778 +0.0000000 ]  0.004629630  spin +1 ----
BandDavidson: Iter:   0  Eband: -0.046689051857190
BandDavidson: Iter:   1  Eband: -0.080652570464427  dEband: -3.396352e-02  t[s]:    387.72
BandDavidson: Iter:   2  Eband: -0.091564829415698  dEband: -1.091226e-02  t[s]:    393.76
BandDavidson: Iter:   3  Eband: -0.095962538295303  dEband: -4.397709e-03  t[s]:    399.82
BandDavidson: Iter:   4  Eband: -0.099322784182899  dEband: -3.360246e-03  t[s]:    405.91
BandDavidson: Iter:   5  Eband: -0.100890413373268  dEband: -1.567629e-03  t[s]:    411.95
BandDavidson: Iter:   6  Eband: -0.101642089283774  dEband: -7.516759e-04  t[s]:    418.08
BandDavidson: Iter:   7  Eband: -0.102008227774199  dEband: -3.661385e-04  t[s]:    424.17
BandDavidson: Iter:   8  Eband: -0.102266066467857  dEband: -2.578387e-04  t[s]:    430.20
BandDavidson: Iter:   9  Eband: -0.102481168538939  dEband: -2.151021e-04  t[s]:    436.30
BandDavidson: Iter:  10  Eband: -0.102643607925669  dEband: -1.624394e-04  t[s]:    442.31
BandDavidson: Iter:  11  Eband: -0.102761807229045  dEband: -1.181993e-04  t[s]:    448.37
BandDavidson: Iter:  12  Eband: -0.102848773405119  dEband: -8.696618e-05  t[s]:    454.49
BandDavidson: Iter:  13  Eband: -0.102912272253839  dEband: -6.349885e-05  t[s]:    460.67
BandDavidson: Iter:  14  Eband: -0.102959330656239  dEband: -4.705840e-05  t[s]:    466.76
BandDavidson: Iter:  15  Eband: -0.102994655160792  dEband: -3.532450e-05  t[s]:    472.90
BandDavidson: Iter:  16  Eband: -0.103021774138559  dEband: -2.711898e-05  t[s]:    478.95
BandDavidson: Iter:  17  Eband: -0.103043095551740  dEband: -2.132141e-05  t[s]:    485.07
BandDavidson: Iter:  18  Eband: -0.103060220251224  dEband: -1.712470e-05  t[s]:    491.26
BandDavidson: Iter:  19  Eband: -0.103075514529359  dEband: -1.529428e-05  t[s]:    497.36
BandDavidson: Iter:  20  Eband: -0.103099661458611  dEband: -2.414693e-05  t[s]:    503.46
BandDavidson: Iter:  21  Eband: -0.103121117373855  dEband: -2.145592e-05  t[s]:    509.44
BandDavidson: Iter:  22  Eband: -0.103139823875951  dEband: -1.870650e-05  t[s]:    515.28
BandDavidson: Iter:  23  Eband: -0.103156838061313  dEband: -1.701419e-05  t[s]:    521.14
BandDavidson: Iter:  24  Eband: -0.103173714069976  dEband: -1.687601e-05  t[s]:    526.94
BandDavidson: Iter:  25  Eband: -0.103190082092983  dEband: -1.636802e-05  t[s]:    532.78
BandDavidson: Iter:  26  Eband: -0.103204752119653  dEband: -1.467003e-05  t[s]:    538.53
BandDavidson: Iter:  27  Eband: -0.103217445065631  dEband: -1.269295e-05  t[s]:    544.28
BandDavidson: Iter:  28  Eband: -0.103228551694197  dEband: -1.110663e-05  t[s]:    549.96
BandDavidson: Iter:  29  Eband: -0.103239360325013  dEband: -1.080863e-05  t[s]:    555.32
BandDavidson: Iter:  30  Eband: -0.103249832217406  dEband: -1.047189e-05  t[s]:    560.51
BandDavidson: Iter:  31  Eband: -0.103258979300220  dEband: -9.147083e-06  t[s]:    565.44
BandDavidson: Iter:  32  Eband: -0.103266649343652  dEband: -7.670043e-06  t[s]:    569.73
BandDavidson: Iter:  33  Eband: -0.103273021766627  dEband: -6.372423e-06  t[s]:    574.07
BandDavidson: Iter:  34  Eband: -0.103278199800514  dEband: -5.178034e-06  t[s]:    578.26
BandDavidson: Iter:  35  Eband: -0.103282568834417  dEband: -4.369034e-06  t[s]:    582.57
BandDavidson: Iter:  36  Eband: -0.103286315853860  dEband: -3.747019e-06  t[s]:    586.80
BandDavidson: Iter:  37  Eband: -0.103289465279085  dEband: -3.149425e-06  t[s]:    591.14
BandDavidson: Iter:  38  Eband: -0.103292081635713  dEband: -2.616357e-06  t[s]:    595.37
BandDavidson: Iter:  39  Eband: -0.103294249894662  dEband: -2.168259e-06  t[s]:    599.43
BandDavidson: Iter:  40  Eband: -0.103296065988060  dEband: -1.816093e-06  t[s]:    603.46
BandDavidson: Iter:  41  Eband: -0.103297676841177  dEband: -1.610853e-06  t[s]:    607.29
BandDavidson: Iter:  42  Eband: -0.103299476383605  dEband: -1.799542e-06  t[s]:    611.07
BandDavidson: Iter:  43  Eband: -0.103301551148445  dEband: -2.074765e-06  t[s]:    614.86
BandDavidson: Iter:  44  Eband: -0.103303396402127  dEband: -1.845254e-06  t[s]:    618.55
BandDavidson: Iter:  45  Eband: -0.103304963431542  dEband: -1.567029e-06  t[s]:    622.38
BandDavidson: Iter:  46  Eband: -0.103306279599568  dEband: -1.316168e-06  t[s]:    626.26
BandDavidson: Iter:  47  Eband: -0.103307389807798  dEband: -1.110208e-06  t[s]:    630.09
BandDavidson: Iter:  48  Eband: -0.103308320629340  dEband: -9.308215e-07  t[s]:    633.85
BandDavidson: Iter:  49  Eband: -0.103309102415562  dEband: -7.817862e-07  t[s]:    637.65
BandDavidson: Iter:  50  Eband: -0.103309758178458  dEband: -6.557629e-07  t[s]:    641.40
BandDavidson: Iter:  51  Eband: -0.103310310553339  dEband: -5.523749e-07  t[s]:    645.14
BandDavidson: Iter:  52  Eband: -0.103310774082617  dEband: -4.635293e-07  t[s]:    648.99
BandDavidson: Iter:  53  Eband: -0.103311160849592  dEband: -3.867670e-07  t[s]:    652.70
BandDavidson: Iter:  54  Eband: -0.103311479495848  dEband: -3.186463e-07  t[s]:    656.34
BandDavidson: Iter:  55  Eband: -0.103311741675981  dEband: -2.621801e-07  t[s]:    659.86
BandDavidson: Iter:  56  Eband: -0.103311957913090  dEband: -2.162371e-07  t[s]:    663.34
BandDavidson: Iter:  57  Eband: -0.103312136884132  dEband: -1.789710e-07  t[s]:    666.69
BandDavidson: Iter:  58  Eband: -0.103312285214015  dEband: -1.483299e-07  t[s]:    670.00
BandDavidson: Iter:  59  Eband: -0.103312408560261  dEband: -1.233462e-07  t[s]:    673.24
BandDavidson: Iter:  60  Eband: -0.103312511184077  dEband: -1.026238e-07  t[s]:    676.43
BandDavidson: Iter:  61  Eband: -0.103312597015433  dEband: -8.583136e-08  t[s]:    679.67
BandDavidson: Iter:  62  Eband: -0.103312668876882  dEband: -7.186145e-08  t[s]:    682.84
BandDavidson: Iter:  63  Eband: -0.103312729095589  dEband: -6.021871e-08  t[s]:    686.00
BandDavidson: Iter:  64  Eband: -0.103312779467623  dEband: -5.037203e-08  t[s]:    689.13
BandDavidson: Iter:  65  Eband: -0.103312821462174  dEband: -4.199455e-08  t[s]:    692.26
BandDavidson: Iter:  66  Eband: -0.103312856517708  dEband: -3.505553e-08  t[s]:    695.34
BandDavidson: Iter:  67  Eband: -0.103312885533845  dEband: -2.901614e-08  t[s]:    698.35
BandDavidson: Iter:  68  Eband: -0.103312909849399  dEband: -2.431555e-08  t[s]:    701.33
BandDavidson: Iter:  69  Eband: -0.103312930138368  dEband: -2.028897e-08  t[s]:    704.27
BandDavidson: Iter:  70  Eband: -0.103312947159555  dEband: -1.702119e-08  t[s]:    707.20
BandDavidson: Iter:  71  Eband: -0.103312961423489  dEband: -1.426393e-08  t[s]:    710.06
BandDavidson: Iter:  72  Eband: -0.103312973385544  dEband: -1.196206e-08  t[s]:    712.88
BandDavidson: Iter:  73  Eband: -0.103312983373726  dEband: -9.988182e-09  t[s]:    715.78
BandDavidson: Converged (dEband<1.000000e-08)

---- Minimization of quantum number:     2  [ +0.0000000 +0.0555556 +0.0000000 ]  0.004629630  spin +1 ----
BandDavidson: Iter:   0  Eband: -0.046645575971038
BandDavidson: Iter:   1  Eband: -0.080706695397468  dEband: -3.406112e-02  t[s]:    725.37
BandDavidson: Iter:   2  Eband: -0.091615385935089  dEband: -1.090869e-02  t[s]:    731.52
BandDavidson: Iter:   3  Eband: -0.096056452461149  dEband: -4.441067e-03  t[s]:    737.59
BandDavidson: Iter:   4  Eband: -0.099326778827580  dEband: -3.270326e-03  t[s]:    743.57
BandDavidson: Iter:   5  Eband: -0.100905052761482  dEband: -1.578274e-03  t[s]:    749.67
BandDavidson: Iter:   6  Eband: -0.101647837929873  dEband: -7.427852e-04  t[s]:    755.83
BandDavidson: Iter:   7  Eband: -0.102069807116633  dEband: -4.219692e-04  t[s]:    761.87
BandDavidson: Iter:   8  Eband: -0.102333818142349  dEband: -2.640110e-04  t[s]:    767.96
BandDavidson: Iter:   9  Eband: -0.102533703186569  dEband: -1.998850e-04  t[s]:    774.06
BandDavidson: Iter:  10  Eband: -0.102672054875124  dEband: -1.383517e-04  t[s]:    780.06
BandDavidson: Iter:  11  Eband: -0.102770804491079  dEband: -9.874962e-05  t[s]:    786.26
BandDavidson: Iter:  12  Eband: -0.102842722117831  dEband: -7.191763e-05  t[s]:    792.26
BandDavidson: Iter:  13  Eband: -0.102895814840774  dEband: -5.309272e-05  t[s]:    798.26
BandDavidson: Iter:  14  Eband: -0.102935694074722  dEband: -3.987923e-05  t[s]:    804.42
BandDavidson: Iter:  15  Eband: -0.102966027168879  dEband: -3.033309e-05  t[s]:    810.56
BandDavidson: Iter:  16  Eband: -0.102989607341913  dEband: -2.358017e-05  t[s]:    816.66
BandDavidson: Iter:  17  Eband: -0.103008483485008  dEband: -1.887614e-05  t[s]:    822.63
BandDavidson: Iter:  18  Eband: -0.103024352474281  dEband: -1.586899e-05  t[s]:    828.65
BandDavidson: Iter:  19  Eband: -0.103039003067520  dEband: -1.465059e-05  t[s]:    834.75
BandDavidson: Iter:  20  Eband: -0.103055926932448  dEband: -1.692386e-05  t[s]:    840.82
BandDavidson: Iter:  21  Eband: -0.103081612992138  dEband: -2.568606e-05  t[s]:    846.88
BandDavidson: Iter:  22  Eband: -0.103111173976982  dEband: -2.956098e-05  t[s]:    852.84
BandDavidson: Iter:  23  Eband: -0.103139039846570  dEband: -2.786587e-05  t[s]:    858.79
BandDavidson: Iter:  24  Eband: -0.103163151827663  dEband: -2.411198e-05  t[s]:    864.70
BandDavidson: Iter:  25  Eband: -0.103183256615472  dEband: -2.010479e-05  t[s]:    870.52
BandDavidson: Iter:  26  Eband: -0.103199960125006  dEband: -1.670351e-05  t[s]:    876.23
BandDavidson: Iter:  27  Eband: -0.103213859833605  dEband: -1.389971e-05  t[s]:    881.93
BandDavidson: Iter:  28  Eband: -0.103225515239796  dEband: -1.165541e-05  t[s]:    887.57
BandDavidson: Iter:  29  Eband: -0.103235528063126  dEband: -1.001282e-05  t[s]:    892.89
BandDavidson: Iter:  30  Eband: -0.103246449249014  dEband: -1.092119e-05  t[s]:    898.02
BandDavidson: Iter:  31  Eband: -0.103261893440002  dEband: -1.544419e-05  t[s]:    902.89
BandDavidson: Iter:  32  Eband: -0.103275334076728  dEband: -1.344064e-05  t[s]:    907.42
BandDavidson: Iter:  33  Eband: -0.103286273745681  dEband: -1.093967e-05  t[s]:    911.70
BandDavidson: Iter:  34  Eband: -0.103296037322673  dEband: -9.763577e-06  t[s]:    915.98
BandDavidson: Iter:  35  Eband: -0.103304460397185  dEband: -8.423075e-06  t[s]:    920.13
BandDavidson: Iter:  36  Eband: -0.103312331276604  dEband: -7.870879e-06  t[s]:    924.23
BandDavidson: Iter:  37  Eband: -0.103320043194456  dEband: -7.711918e-06  t[s]:    928.40
BandDavidson: Iter:  38  Eband: -0.103327106974099  dEband: -7.063780e-06  t[s]:    932.65
BandDavidson: Iter:  39  Eband: -0.103333247561745  dEband: -6.140588e-06  t[s]:    936.65
BandDavidson: Iter:  40  Eband: -0.103338366415646  dEband: -5.118854e-06  t[s]:    940.54
BandDavidson: Iter:  41  Eband: -0.103342644646355  dEband: -4.278231e-06  t[s]:    944.50
BandDavidson: Iter:  42  Eband: -0.103346227668209  dEband: -3.583022e-06  t[s]:    948.43
BandDavidson: Iter:  43  Eband: -0.103349258164277  dEband: -3.030496e-06  t[s]:    952.24
BandDavidson: Iter:  44  Eband: -0.103351820396009  dEband: -2.562232e-06  t[s]:    956.05
BandDavidson: Iter:  45  Eband: -0.103353997306168  dEband: -2.176910e-06  t[s]:    959.83
BandDavidson: Iter:  46  Eband: -0.103355830426291  dEband: -1.833120e-06  t[s]:    963.64
BandDavidson: Iter:  47  Eband: -0.103357377143032  dEband: -1.546717e-06  t[s]:    967.48
BandDavidson: Iter:  48  Eband: -0.103358675936040  dEband: -1.298793e-06  t[s]:    971.36
BandDavidson: Iter:  49  Eband: -0.103359764415131  dEband: -1.088479e-06  t[s]:    975.10
BandDavidson: Iter:  50  Eband: -0.103360671446613  dEband: -9.070315e-07  t[s]:    978.77
BandDavidson: Iter:  51  Eband: -0.103361431448156  dEband: -7.600015e-07  t[s]:    982.48
BandDavidson: Iter:  52  Eband: -0.103362066259007  dEband: -6.348109e-07  t[s]:    986.23
BandDavidson: Iter:  53  Eband: -0.103362598805206  dEband: -5.325462e-07  t[s]:    989.93
BandDavidson: Iter:  54  Eband: -0.103363045895354  dEband: -4.470901e-07  t[s]:    993.65
BandDavidson: Iter:  55  Eband: -0.103363422606272  dEband: -3.767109e-07  t[s]:    997.31
BandDavidson: Iter:  56  Eband: -0.103363739300165  dEband: -3.166939e-07  t[s]:   1000.84
BandDavidson: Iter:  57  Eband: -0.103364003224524  dEband: -2.639244e-07  t[s]:   1004.15
BandDavidson: Iter:  58  Eband: -0.103364224511997  dEband: -2.212875e-07  t[s]:   1007.38
BandDavidson: Iter:  59  Eband: -0.103364410538439  dEband: -1.860264e-07  t[s]:   1010.60
BandDavidson: Iter:  60  Eband: -0.103364568150734  dEband: -1.576123e-07  t[s]:   1013.70
BandDavidson: Iter:  61  Eband: -0.103364702024993  dEband: -1.338743e-07  t[s]:   1016.89
BandDavidson: Iter:  62  Eband: -0.103364815635738  dEband: -1.136107e-07  t[s]:   1020.14
BandDavidson: Iter:  63  Eband: -0.103364912092620  dEband: -9.645688e-08  t[s]:   1023.32
BandDavidson: Iter:  64  Eband: -0.103364993885800  dEband: -8.179318e-08  t[s]:   1026.52
BandDavidson: Iter:  65  Eband: -0.103365063318679  dEband: -6.943288e-08  t[s]:   1029.69
BandDavidson: Iter:  66  Eband: -0.103365122098871  dEband: -5.878019e-08  t[s]:   1032.75
BandDavidson: Iter:  67  Eband: -0.103365171963314  dEband: -4.986444e-08  t[s]:   1035.75
BandDavidson: Iter:  68  Eband: -0.103365214122734  dEband: -4.215942e-08  t[s]:   1038.66
BandDavidson: Iter:  69  Eband: -0.103365249951020  dEband: -3.582829e-08  t[s]:   1041.60
BandDavidson: Iter:  70  Eband: -0.103365280266455  dEband: -3.031543e-08  t[s]:   1044.50
BandDavidson: Iter:  71  Eband: -0.103365306188798  dEband: -2.592234e-08  t[s]:   1047.46
BandDavidson: Iter:  72  Eband: -0.103365328246218  dEband: -2.205742e-08  t[s]:   1050.31
BandDavidson: Iter:  73  Eband: -0.103365347167383  dEband: -1.892116e-08  t[s]:   1053.13
BandDavidson: Iter:  74  Eband: -0.103365363316717  dEband: -1.614933e-08  t[s]:   1055.97
BandDavidson: Iter:  75  Eband: -0.103365377173466  dEband: -1.385675e-08  t[s]:   1058.80
BandDavidson: Iter:  76  Eband: -0.103365389026267  dEband: -1.185280e-08  t[s]:   1061.65
BandDavidson: Iter:  77  Eband: -0.103365399184220  dEband: -1.015795e-08  t[s]:   1064.42
BandDavidson: Iter:  78  Eband: -0.103365407848785  dEband: -8.664565e-09  t[s]:   1067.25
BandDavidson: Converged (dEband<1.000000e-08)

---- Minimization of quantum number:     3  [ +0.0000000 +0.0833333 +0.0000000 ]  0.004629630  spin +1 ----
BandDavidson: Iter:   0  Eband: -0.046625663302315
BandDavidson: Iter:   1  Eband: -0.080681976448483  dEband: -3.405631e-02  t[s]:   1076.72
BandDavidson: Iter:   2  Eband: -0.091564252997925  dEband: -1.088228e-02  t[s]:   1082.74
BandDavidson: Iter:   3  Eband: -0.095915307662984  dEband: -4.351055e-03  t[s]:   1088.89
BandDavidson: Iter:   4  Eband: -0.099046792291623  dEband: -3.131485e-03  t[s]:   1094.96
BandDavidson: Iter:   5  Eband: -0.100490923971987  dEband: -1.444132e-03  t[s]:   1101.08
BandDavidson: Iter:   6  Eband: -0.101404333308056  dEband: -9.134093e-04  t[s]:   1107.09
BandDavidson: Iter:   7  Eband: -0.101972941770657  dEband: -5.686085e-04  t[s]:   1113.14
BandDavidson: Iter:   8  Eband: -0.102274110695471  dEband: -3.011689e-04  t[s]:   1119.23
BandDavidson: Iter:   9  Eband: -0.102478831645279  dEband: -2.047209e-04  t[s]:   1125.31
BandDavidson: Iter:  10  Eband: -0.102616048560257  dEband: -1.372169e-04  t[s]:   1131.35
BandDavidson: Iter:  11  Eband: -0.102710181111106  dEband: -9.413255e-05  t[s]:   1137.48
BandDavidson: Iter:  12  Eband: -0.102778573139624  dEband: -6.839203e-05  t[s]:   1143.40
BandDavidson: Iter:  13  Eband: -0.102829712071286  dEband: -5.113893e-05  t[s]:   1149.41
BandDavidson: Iter:  14  Eband: -0.102870242394762  dEband: -4.053032e-05  t[s]:   1155.38
BandDavidson: Iter:  15  Eband: -0.102905726464713  dEband: -3.548407e-05  t[s]:   1161.39
BandDavidson: Iter:  16  Eband: -0.102936547454288  dEband: -3.082099e-05  t[s]:   1167.47
BandDavidson: Iter:  17  Eband: -0.102962668862529  dEband: -2.612141e-05  t[s]:   1173.50
BandDavidson: Iter:  18  Eband: -0.102985422435384  dEband: -2.275357e-05  t[s]:   1179.56
BandDavidson: Iter:  19  Eband: -0.103009655028227  dEband: -2.423259e-05  t[s]:   1185.63
BandDavidson: Iter:  20  Eband: -0.103043883442892  dEband: -3.422841e-05  t[s]:   1191.69
BandDavidson: Iter:  21  Eband: -0.103078265981185  dEband: -3.438254e-05  t[s]:   1197.79
BandDavidson: Iter:  22  Eband: -0.103111669258794  dEband: -3.340328e-05  t[s]:   1203.63
BandDavidson: Iter:  23  Eband: -0.103147227794991  dEband: -3.555854e-05  t[s]:   1209.54
BandDavidson: Iter:  24  Eband: -0.103180606376160  dEband: -3.337858e-05  t[s]:   1215.40
BandDavidson: Iter:  25  Eband: -0.103209337923435  dEband: -2.873155e-05  t[s]:   1221.11
BandDavidson: Iter:  26  Eband: -0.103233592760065  dEband: -2.425484e-05  t[s]:   1226.80
BandDavidson: Iter:  27  Eband: -0.103253743433806  dEband: -2.015067e-05  t[s]:   1232.48
BandDavidson: Iter:  28  Eband: -0.103270455582165  dEband: -1.671215e-05  t[s]:   1238.23
BandDavidson: Iter:  29  Eband: -0.103284640806768  dEband: -1.418522e-05  t[s]:   1243.59
BandDavidson: Iter:  30  Eband: -0.103296819702307  dEband: -1.217890e-05  t[s]:   1248.79
BandDavidson: Iter:  31  Eband: -0.103307495233346  dEband: -1.067553e-05  t[s]:   1253.64
BandDavidson: Iter:  32  Eband: -0.103317138539572  dEband: -9.643306e-06  t[s]:   1258.18
BandDavidson: Iter:  33  Eband: -0.103325919967621  dEband: -8.781428e-06  t[s]:   1262.48
BandDavidson: Iter:  34  Eband: -0.103334008977749  dEband: -8.089010e-06  t[s]:   1266.75
BandDavidson: Iter:  35  Eband: -0.103341195382519  dEband: -7.186405e-06  t[s]:   1271.00
BandDavidson: Iter:  36  Eband: -0.103347266901567  dEband: -6.071519e-06  t[s]:   1275.29
BandDavidson: Iter:  37  Eband: -0.103352430187995  dEband: -5.163286e-06  t[s]:   1279.58
BandDavidson: Iter:  38  Eband: -0.103356812306560  dEband: -4.382119e-06  t[s]:   1283.68
BandDavidson: Iter:  39  Eband: -0.103360473915386  dEband: -3.661609e-06  t[s]:   1287.65
BandDavidson: Iter:  40  Eband: -0.103363536643053  dEband: -3.062728e-06  t[s]:   1291.61
BandDavidson: Iter:  41  Eband: -0.103366130199520  dEband: -2.593556e-06  t[s]:   1295.51
BandDavidson: Iter:  42  Eband: -0.103368329318443  dEband: -2.199119e-06  t[s]:   1299.31
BandDavidson: Iter:  43  Eband: -0.103370208541174  dEband: -1.879223e-06  t[s]:   1303.25
BandDavidson: Iter:  44  Eband: -0.103371801759082  dEband: -1.593218e-06  t[s]:   1307.01
BandDavidson: Iter:  45  Eband: -0.103373169035808  dEband: -1.367277e-06  t[s]:   1310.78
BandDavidson: Iter:  46  Eband: -0.103374329952578  dEband: -1.160917e-06  t[s]:   1314.64
BandDavidson: Iter:  47  Eband: -0.103375319475333  dEband: -9.895228e-07  t[s]:   1318.46
BandDavidson: Iter:  48  Eband: -0.103376156301128  dEband: -8.368258e-07  t[s]:   1322.24
BandDavidson: Iter:  49  Eband: -0.103376866709662  dEband: -7.104085e-07  t[s]:   1326.05
BandDavidson: Iter:  50  Eband: -0.103377469041147  dEband: -6.023315e-07  t[s]:   1329.92
BandDavidson: Iter:  51  Eband: -0.103377981078091  dEband: -5.120369e-07  t[s]:   1333.65
BandDavidson: Iter:  52  Eband: -0.103378417742575  dEband: -4.366645e-07  t[s]:   1337.41
BandDavidson: Iter:  53  Eband: -0.103378791004145  dEband: -3.732616e-07  t[s]:   1341.14
BandDavidson: Iter:  54  Eband: -0.103379108078914  dEband: -3.170748e-07  t[s]:   1344.60
BandDavidson: Iter:  55  Eband: -0.103379376371070  dEband: -2.682922e-07  t[s]:   1348.11
BandDavidson: Iter:  56  Eband: -0.103379603547264  dEband: -2.271762e-07  t[s]:   1351.52
BandDavidson: Iter:  57  Eband: -0.103379796887937  dEband: -1.933407e-07  t[s]:   1354.86
BandDavidson: Iter:  58  Eband: -0.103379961820062  dEband: -1.649321e-07  t[s]:   1358.13
BandDavidson: Iter:  59  Eband: -0.103380103113351  dEband: -1.412933e-07  t[s]:   1361.35
BandDavidson: Iter:  60  Eband: -0.103380223919747  dEband: -1.208064e-07  t[s]:   1364.63
BandDavidson: Iter:  61  Eband: -0.103380327740932  dEband: -1.038212e-07  t[s]:   1367.90
BandDavidson: Iter:  62  Eband: -0.103380416707229  dEband: -8.896630e-08  t[s]:   1371.13
BandDavidson: Iter:  63  Eband: -0.103380493386045  dEband: -7.667882e-08  t[s]:   1374.33
BandDavidson: Iter:  64  Eband: -0.103380559294312  dEband: -6.590827e-08  t[s]:   1377.54
BandDavidson: Iter:  65  Eband: -0.103380616249270  dEband: -5.695496e-08  t[s]:   1380.69
BandDavidson: Iter:  66  Eband: -0.103380665036365  dEband: -4.878710e-08  t[s]:   1383.72
BandDavidson: Iter:  67  Eband: -0.103380706955532  dEband: -4.191917e-08  t[s]:   1386.72
BandDavidson: Iter:  68  Eband: -0.103380742805448  dEband: -3.584992e-08  t[s]:   1389.70
BandDavidson: Iter:  69  Eband: -0.103380773655727  dEband: -3.085028e-08  t[s]:   1392.63
BandDavidson: Iter:  70  Eband: -0.103380800047465  dEband: -2.639174e-08  t[s]:   1395.51
BandDavidson: Iter:  71  Eband: -0.103380822678333  dEband: -2.263087e-08  t[s]:   1398.32
BandDavidson: Iter:  72  Eband: -0.103380842143558  dEband: -1.946522e-08  t[s]:   1401.14
BandDavidson: Iter:  73  Eband: -0.103380858949417  dEband: -1.680586e-08  t[s]:   1403.99
BandDavidson: Iter:  74  Eband: -0.103380873472383  dEband: -1.452297e-08  t[s]:   1406.85
BandDavidson: Iter:  75  Eband: -0.103380886048051  dEband: -1.257567e-08  t[s]:   1409.67
BandDavidson: Iter:  76  Eband: -0.103380896937758  dEband: -1.088971e-08  t[s]:   1412.51
BandDavidson: Iter:  77  Eband: -0.103380906369204  dEband: -9.431446e-09  t[s]:   1415.31
BandDavidson: Converged (dEband<1.000000e-08)

---- Minimization of quantum number:     4  [ +0.0000000 +0.1111111 +0.0000000 ]  0.004629630  spin +1 ----
BandDavidson: Iter:   0  Eband: -0.046610651768888
BandDavidson: Iter:   1  Eband: -0.080811653080786  dEband: -3.420100e-02  t[s]:   1424.82
BandDavidson: Iter:   2  Eband: -0.091832888451951  dEband: -1.102124e-02  t[s]:   1430.81
BandDavidson: Iter:   3  Eband: -0.096073592120383  dEband: -4.240704e-03  t[s]:   1436.91
BandDavidson: Iter:   4  Eband: -0.098891627869520  dEband: -2.818036e-03  t[s]:   1442.98
BandDavidson: Iter:   5  Eband: -0.100421565650083  dEband: -1.529938e-03  t[s]:   1448.98
BandDavidson: Iter:   6  Eband: -0.101404551232385  dEband: -9.829856e-04  t[s]:   1455.10
BandDavidson: Iter:   7  Eband: -0.101868423151358  dEband: -4.638719e-04  t[s]:   1461.16
BandDavidson: Iter:   8  Eband: -0.102157413574614  dEband: -2.889904e-04  t[s]:   1467.24
BandDavidson: Iter:   9  Eband: -0.102363685056310  dEband: -2.062715e-04  t[s]:   1473.34
BandDavidson: Iter:  10  Eband: -0.102505081145462  dEband: -1.413961e-04  t[s]:   1479.41
BandDavidson: Iter:  11  Eband: -0.102605743688987  dEband: -1.006625e-04  t[s]:   1485.37
BandDavidson: Iter:  12  Eband: -0.102680457433588  dEband: -7.471374e-05  t[s]:   1491.41
BandDavidson: Iter:  13  Eband: -0.102739415324629  dEband: -5.895789e-05  t[s]:   1497.55
BandDavidson: Iter:  14  Eband: -0.102787231440965  dEband: -4.781612e-05  t[s]:   1503.59
BandDavidson: Iter:  15  Eband: -0.102828712436367  dEband: -4.148100e-05  t[s]:   1509.63
BandDavidson: Iter:  16  Eband: -0.102874704399133  dEband: -4.599196e-05  t[s]:   1515.67
BandDavidson: Iter:  17  Eband: -0.102933655894370  dEband: -5.895150e-05  t[s]:   1521.68
BandDavidson: Iter:  18  Eband: -0.102989043118569  dEband: -5.538722e-05  t[s]:   1527.67
BandDavidson: Iter:  19  Eband: -0.103037566633916  dEband: -4.852352e-05  t[s]:   1533.81
BandDavidson: Iter:  20  Eband: -0.103081238369613  dEband: -4.367174e-05  t[s]:   1539.87
BandDavidson: Iter:  21  Eband: -0.103127079106560  dEband: -4.584074e-05  t[s]:   1545.92
BandDavidson: Iter:  22  Eband: -0.103173019846527  dEband: -4.594074e-05  t[s]:   1551.72
BandDavidson: Iter:  23  Eband: -0.103209314041273  dEband: -3.629419e-05  t[s]:   1557.56
BandDavidson: Iter:  24  Eband: -0.103239865022056  dEband: -3.055098e-05  t[s]:   1563.41
BandDavidson: Iter:  25  Eband: -0.103265901430739  dEband: -2.603641e-05  t[s]:   1569.14
BandDavidson: Iter:  26  Eband: -0.103288246452967  dEband: -2.234502e-05  t[s]:   1574.81
BandDavidson: Iter:  27  Eband: -0.103307287995261  dEband: -1.904154e-05  t[s]:   1580.48
BandDavidson: Iter:  28  Eband: -0.103322990462056  dEband: -1.570247e-05  t[s]:   1586.18
BandDavidson: Iter:  29  Eband: -0.103335792279996  dEband: -1.280182e-05  t[s]:   1591.58
BandDavidson: Iter:  30  Eband: -0.103346504910888  dEband: -1.071263e-05  t[s]:   1596.71
BandDavidson: Iter:  31  Eband: -0.103356081105331  dEband: -9.576194e-06  t[s]:   1601.42
BandDavidson: Iter:  32  Eband: -0.103365363285134  dEband: -9.282180e-06  t[s]:   1605.79
BandDavidson: Iter:  33  Eband: -0.103374527773926  dEband: -9.164489e-06  t[s]:   1610.04
BandDavidson: Iter:  34  Eband: -0.103382702406425  dEband: -8.174632e-06  t[s]:   1614.29
BandDavidson: Iter:  35  Eband: -0.103389745582406  dEband: -7.043176e-06  t[s]:   1618.53
BandDavidson: Iter:  36  Eband: -0.103395823400299  dEband: -6.077818e-06  t[s]:   1622.81
BandDavidson: Iter:  37  Eband: -0.103401111764845  dEband: -5.288365e-06  t[s]:   1627.10
BandDavidson: Iter:  38  Eband: -0.103405622825223  dEband: -4.511060e-06  t[s]:   1631.23
BandDavidson: Iter:  39  Eband: -0.103409429413307  dEband: -3.806588e-06  t[s]:   1635.32
BandDavidson: Iter:  40  Eband: -0.103412634055134  dEband: -3.204642e-06  t[s]:   1639.36
BandDavidson: Iter:  41  Eband: -0.103415370389149  dEband: -2.736334e-06  t[s]:   1643.36
BandDavidson: Iter:  42  Eband: -0.103417698870730  dEband: -2.328482e-06  t[s]:   1647.17
BandDavidson: Iter:  43  Eband: -0.103419667284757  dEband: -1.968414e-06  t[s]:   1651.03
BandDavidson: Iter:  44  Eband: -0.103421332997588  dEband: -1.665713e-06  t[s]:   1654.77
BandDavidson: Iter:  45  Eband: -0.103422750247226  dEband: -1.417250e-06  t[s]:   1658.52
BandDavidson: Iter:  46  Eband: -0.103423965550776  dEband: -1.215304e-06  t[s]:   1662.35
BandDavidson: Iter:  47  Eband: -0.103425009347940  dEband: -1.043797e-06  t[s]:   1666.18
BandDavidson: Iter:  48  Eband: -0.103425905093914  dEband: -8.957460e-07  t[s]:   1670.00
BandDavidson: Iter:  49  Eband: -0.103426679434733  dEband: -7.743408e-07  t[s]:   1673.83
BandDavidson: Iter:  50  Eband: -0.103427343341853  dEband: -6.639071e-07  t[s]:   1677.48
BandDavidson: Iter:  51  Eband: -0.103427914072507  dEband: -5.707307e-07  t[s]:   1681.08
BandDavidson: Iter:  52  Eband: -0.103428404571958  dEband: -4.904995e-07  t[s]:   1684.65
BandDavidson: Iter:  53  Eband: -0.103428827212209  dEband: -4.226403e-07  t[s]:   1688.21
BandDavidson: Iter:  54  Eband: -0.103429192559253  dEband: -3.653470e-07  t[s]:   1691.70
BandDavidson: Iter:  55  Eband: -0.103429508828441  dEband: -3.162692e-07  t[s]:   1695.11
BandDavidson: Iter:  56  Eband: -0.103429783715290  dEband: -2.748868e-07  t[s]:   1698.58
BandDavidson: Iter:  57  Eband: -0.103430022859708  dEband: -2.391444e-07  t[s]:   1702.01
BandDavidson: Iter:  58  Eband: -0.103430230422398  dEband: -2.075627e-07  t[s]:   1705.32
BandDavidson: Iter:  59  Eband: -0.103430409033676  dEband: -1.786113e-07  t[s]:   1708.57
BandDavidson: Iter:  60  Eband: -0.103430563559474  dEband: -1.545258e-07  t[s]:   1711.75
BandDavidson: Iter:  61  Eband: -0.103430697830229  dEband: -1.342708e-07  t[s]:   1714.91
BandDavidson: Iter:  62  Eband: -0.103430814758811  dEband: -1.169286e-07  t[s]:   1718.09
BandDavidson: Iter:  63  Eband: -0.103430916389415  dEband: -1.016306e-07  t[s]:   1721.33
BandDavidson: Iter:  64  Eband: -0.103431004621160  dEband: -8.823174e-08  t[s]:   1724.57
BandDavidson: Iter:  65  Eband: -0.103431081286217  dEband: -7.666506e-08  t[s]:   1727.66
BandDavidson: Iter:  66  Eband: -0.103431147928622  dEband: -6.664240e-08  t[s]:   1730.75
BandDavidson: Iter:  67  Eband: -0.103431206044595  dEband: -5.811597e-08  t[s]:   1733.77
BandDavidson: Iter:  68  Eband: -0.103431256830336  dEband: -5.078574e-08  t[s]:   1736.74
BandDavidson: Iter:  69  Eband: -0.103431301200756  dEband: -4.437042e-08  t[s]:   1739.70
BandDavidson: Iter:  70  Eband: -0.103431339897139  dEband: -3.869638e-08  t[s]:   1742.62
BandDavidson: Iter:  71  Eband: -0.103431373685593  dEband: -3.378845e-08  t[s]:   1745.44
BandDavidson: Iter:  72  Eband: -0.103431403317084  dEband: -2.963149e-08  t[s]:   1748.24
BandDavidson: Iter:  73  Eband: -0.103431429302139  dEband: -2.598505e-08  t[s]:   1751.12
BandDavidson: Iter:  74  Eband: -0.103431452109082  dEband: -2.280694e-08  t[s]:   1754.00
BandDavidson: Iter:  75  Eband: -0.103431472121229  dEband: -2.001215e-08  t[s]:   1756.81
BandDavidson: Iter:  76  Eband: -0.103431489701649  dEband: -1.758042e-08  t[s]:   1759.62
BandDavidson: Iter:  77  Eband: -0.103431505138157  dEband: -1.543651e-08  t[s]:   1762.37
BandDavidson: Iter:  78  Eband: -0.103431518712762  dEband: -1.357460e-08  t[s]:   1765.21
BandDavidson: Iter:  79  Eband: -0.103431530639898  dEband: -1.192714e-08  t[s]:   1767.98
BandDavidson: Iter:  80  Eband: -0.103431541137171  dEband: -1.049727e-08  t[s]:   1770.76
BandDavidson: Iter:  81  Eband: -0.103431550344988  dEband: -9.207817e-09  t[s]:   1773.42
BandDavidson: Converged (dEband<1.000000e-08)

---- Minimization of quantum number:     5  [ +0.0000000 +0.1388889 +0.0000000 ]  0.004629630  spin +1 ----
BandDavidson: Iter:   0  Eband: -0.046527918382618
BandDavidson: Iter:   1  Eband: -0.080828507785527  dEband: -3.430059e-02  t[s]:   1783.08
BandDavidson: Iter:   2  Eband: -0.092077281650858  dEband: -1.124877e-02  t[s]:   1789.18
BandDavidson: Iter:   3  Eband: -0.096181427843323  dEband: -4.104146e-03  t[s]:   1795.15
BandDavidson: Iter:   4  Eband: -0.098825654266212  dEband: -2.644226e-03  t[s]:   1801.12
BandDavidson: Iter:   5  Eband: -0.100308251194485  dEband: -1.482597e-03  t[s]:   1807.12
BandDavidson: Iter:   6  Eband: -0.101213188809699  dEband: -9.049376e-04  t[s]:   1813.13
BandDavidson: Iter:   7  Eband: -0.101745927907597  dEband: -5.327391e-04  t[s]:   1819.19
BandDavidson: Iter:   8  Eband: -0.102070713415088  dEband: -3.247855e-04  t[s]:   1825.36
BandDavidson: Iter:   9  Eband: -0.102291658889642  dEband: -2.209455e-04  t[s]:   1831.33
BandDavidson: Iter:  10  Eband: -0.102467848346454  dEband: -1.761895e-04  t[s]:   1837.35
BandDavidson: Iter:  11  Eband: -0.102606946759441  dEband: -1.390984e-04  t[s]:   1843.36
BandDavidson: Iter:  12  Eband: -0.102711523236784  dEband: -1.045765e-04  t[s]:   1849.36
BandDavidson: Iter:  13  Eband: -0.102791014954980  dEband: -7.949172e-05  t[s]:   1855.41
BandDavidson: Iter:  14  Eband: -0.102853494142009  dEband: -6.247919e-05  t[s]:   1861.42
BandDavidson: Iter:  15  Eband: -0.102907288171684  dEband: -5.379403e-05  t[s]:   1867.49
BandDavidson: Iter:  16  Eband: -0.102957580398711  dEband: -5.029223e-05  t[s]:   1873.52
BandDavidson: Iter:  17  Eband: -0.103003611547915  dEband: -4.603115e-05  t[s]:   1879.62
BandDavidson: Iter:  18  Eband: -0.103046892274419  dEband: -4.328073e-05  t[s]:   1885.69
BandDavidson: Iter:  19  Eband: -0.103090101368465  dEband: -4.320909e-05  t[s]:   1891.80
BandDavidson: Iter:  20  Eband: -0.103133659615150  dEband: -4.355825e-05  t[s]:   1897.88
BandDavidson: Iter:  21  Eband: -0.103172960981121  dEband: -3.930137e-05  t[s]:   1903.95
BandDavidson: Iter:  22  Eband: -0.103208035578185  dEband: -3.507460e-05  t[s]:   1910.00
BandDavidson: Iter:  23  Eband: -0.103239230211853  dEband: -3.119463e-05  t[s]:   1915.85
BandDavidson: Iter:  24  Eband: -0.103266851742183  dEband: -2.762153e-05  t[s]:   1921.74
BandDavidson: Iter:  25  Eband: -0.103291127582389  dEband: -2.427584e-05  t[s]:   1927.54
BandDavidson: Iter:  26  Eband: -0.103312288404514  dEband: -2.116082e-05  t[s]:   1933.39
BandDavidson: Iter:  27  Eband: -0.103330944347313  dEband: -1.865594e-05  t[s]:   1939.20
BandDavidson: Iter:  28  Eband: -0.103347735397522  dEband: -1.679105e-05  t[s]:   1944.78
BandDavidson: Iter:  29  Eband: -0.103362373703334  dEband: -1.463831e-05  t[s]:   1950.27
BandDavidson: Iter:  30  Eband: -0.103375116720214  dEband: -1.274302e-05  t[s]:   1955.61
BandDavidson: Iter:  31  Eband: -0.103386549112336  dEband: -1.143239e-05  t[s]:   1960.57
BandDavidson: Iter:  32  Eband: -0.103396716227700  dEband: -1.016712e-05  t[s]:   1965.13
BandDavidson: Iter:  33  Eband: -0.103405779493489  dEband: -9.063266e-06  t[s]:   1969.30
BandDavidson: Iter:  34  Eband: -0.103413803187130  dEband: -8.023694e-06  t[s]:   1973.55
BandDavidson: Iter:  35  Eband: -0.103420879047151  dEband: -7.075860e-06  t[s]:   1977.86
BandDavidson: Iter:  36  Eband: -0.103427053965098  dEband: -6.174918e-06  t[s]:   1982.21
BandDavidson: Iter:  37  Eband: -0.103432457643327  dEband: -5.403678e-06  t[s]:   1986.32
BandDavidson: Iter:  38  Eband: -0.103437159067863  dEband: -4.701425e-06  t[s]:   1990.32
BandDavidson: Iter:  39  Eband: -0.103441195566327  dEband: -4.036498e-06  t[s]:   1994.27
BandDavidson: Iter:  40  Eband: -0.103444659393239  dEband: -3.463827e-06  t[s]:   1998.15
BandDavidson: Iter:  41  Eband: -0.103447669857954  dEband: -3.010465e-06  t[s]:   2001.99
BandDavidson: Iter:  42  Eband: -0.103450280689617  dEband: -2.610832e-06  t[s]:   2005.81
BandDavidson: Iter:  43  Eband: -0.103452548172224  dEband: -2.267483e-06  t[s]:   2009.63
BandDavidson: Iter:  44  Eband: -0.103454515219874  dEband: -1.967048e-06  t[s]:   2013.37
BandDavidson: Iter:  45  Eband: -0.103456220836719  dEband: -1.705617e-06  t[s]:   2017.13
BandDavidson: Iter:  46  Eband: -0.103457701777746  dEband: -1.480941e-06  t[s]:   2020.97
BandDavidson: Iter:  47  Eband: -0.103458994507046  dEband: -1.292729e-06  t[s]:   2024.82
BandDavidson: Iter:  48  Eband: -0.103460121104345  dEband: -1.126597e-06  t[s]:   2028.65
BandDavidson: Iter:  49  Eband: -0.103461104204691  dEband: -9.831003e-07  t[s]:   2032.48
BandDavidson: Iter:  50  Eband: -0.103461961663936  dEband: -8.574592e-07  t[s]:   2036.21
BandDavidson: Iter:  51  Eband: -0.103462704774047  dEband: -7.431101e-07  t[s]:   2039.83
BandDavidson: Iter:  52  Eband: -0.103463346864846  dEband: -6.420908e-07  t[s]:   2043.40
BandDavidson: Iter:  53  Eband: -0.103463903360540  dEband: -5.564957e-07  t[s]:   2046.94
BandDavidson: Iter:  54  Eband: -0.103464388587888  dEband: -4.852273e-07  t[s]:   2050.36
BandDavidson: Iter:  55  Eband: -0.103464813095546  dEband: -4.245077e-07  t[s]:   2053.78
BandDavidson: Iter:  56  Eband: -0.103465183136499  dEband: -3.700410e-07  t[s]:   2057.18
BandDavidson: Iter:  57  Eband: -0.103465505822355  dEband: -3.226859e-07  t[s]:   2060.50
BandDavidson: Iter:  58  Eband: -0.103465788893285  dEband: -2.830709e-07  t[s]:   2063.77
BandDavidson: Iter:  59  Eband: -0.103466038306054  dEband: -2.494128e-07  t[s]:   2067.11
BandDavidson: Iter:  60  Eband: -0.103466256740026  dEband: -2.184340e-07  t[s]:   2070.34
BandDavidson: Iter:  61  Eband: -0.103466449141934  dEband: -1.924019e-07  t[s]:   2073.49
BandDavidson: Iter:  62  Eband: -0.103466618889608  dEband: -1.697477e-07  t[s]:   2076.71
BandDavidson: Iter:  63  Eband: -0.103466768644078  dEband: -1.497545e-07  t[s]:   2079.89
BandDavidson: Iter:  64  Eband: -0.103466901036862  dEband: -1.323928e-07  t[s]:   2082.99
BandDavidson: Iter:  65  Eband: -0.103467018280642  dEband: -1.172438e-07  t[s]:   2086.07
BandDavidson: Iter:  66  Eband: -0.103467121599373  dEband: -1.033187e-07  t[s]:   2089.03
BandDavidson: Iter:  67  Eband: -0.103467212625732  dEband: -9.102636e-08  t[s]:   2091.99
BandDavidson: Iter:  68  Eband: -0.103467293041788  dEband: -8.041606e-08  t[s]:   2094.91
BandDavidson: Iter:  69  Eband: -0.103467364230572  dEband: -7.118878e-08  t[s]:   2097.82
BandDavidson: Iter:  70  Eband: -0.103467427285208  dEband: -6.305464e-08  t[s]:   2100.68
BandDavidson: Iter:  71  Eband: -0.103467483098648  dEband: -5.581344e-08  t[s]:   2103.56
BandDavidson: Iter:  72  Eband: -0.103467532478193  dEband: -4.937954e-08  t[s]:   2106.38
BandDavidson: Iter:  73  Eband: -0.103467576140714  dEband: -4.366252e-08  t[s]:   2109.22
BandDavidson: Iter:  74  Eband: -0.103467614653179  dEband: -3.851246e-08  t[s]:   2111.99
BandDavidson: Iter:  75  Eband: -0.103467648636315  dEband: -3.398314e-08  t[s]:   2114.75
BandDavidson: Iter:  76  Eband: -0.103467678699218  dEband: -3.006290e-08  t[s]:   2117.49
BandDavidson: Iter:  77  Eband: -0.103467705306793  dEband: -2.660757e-08  t[s]:   2120.26
BandDavidson: Iter:  78  Eband: -0.103467728823539  dEband: -2.351675e-08  t[s]:   2123.00
BandDavidson: Iter:  79  Eband: -0.103467749616152  dEband: -2.079261e-08  t[s]:   2125.77
BandDavidson: Iter:  80  Eband: -0.103467768018450  dEband: -1.840230e-08  t[s]:   2128.46
BandDavidson: Iter:  81  Eband: -0.103467784342991  dEband: -1.632454e-08  t[s]:   2131.29
BandDavidson: Iter:  82  Eband: -0.103467798760571  dEband: -1.441758e-08  t[s]:   2134.05
BandDavidson: Iter:  83  Eband: -0.103467811534553  dEband: -1.277398e-08  t[s]:   2136.82
BandDavidson: Iter:  84  Eband: -0.103467822800448  dEband: -1.126589e-08  t[s]:   2139.61
BandDavidson: Iter:  85  Eband: -0.103467832784317  dEband: -9.983869e-09  t[s]:   2142.37
BandDavidson: Converged (dEband<1.000000e-08)

---- Minimization of quantum number:     6  [ +0.0000000 +0.1666667 +0.0000000 ]  0.004629630  spin +1 ----
BandDavidson: Iter:   0  Eband: -0.046592752044170
BandDavidson: Iter:   1  Eband: -0.080869896569537  dEband: -3.427714e-02  t[s]:   2151.95
BandDavidson: Iter:   2  Eband: -0.092397262757523  dEband: -1.152737e-02  t[s]:   2158.14
BandDavidson: Iter:   3  Eband: -0.096283030781561  dEband: -3.885768e-03  t[s]:   2164.15
BandDavidson: Iter:   4  Eband: -0.098643277506821  dEband: -2.360247e-03  t[s]:   2170.13
BandDavidson: Iter:   5  Eband: -0.100029469028519  dEband: -1.386192e-03  t[s]:   2176.28
BandDavidson: Iter:   6  Eband: -0.101042633826548  dEband: -1.013165e-03  t[s]:   2182.47
BandDavidson: Iter:   7  Eband: -0.101616798663988  dEband: -5.741648e-04  t[s]:   2188.51
BandDavidson: Iter:   8  Eband: -0.101965869251695  dEband: -3.490706e-04  t[s]:   2194.56
BandDavidson: Iter:   9  Eband: -0.102197378795011  dEband: -2.315095e-04  t[s]:   2200.58
BandDavidson: Iter:  10  Eband: -0.102367418469955  dEband: -1.700397e-04  t[s]:   2206.62
BandDavidson: Iter:  11  Eband: -0.102501931643690  dEband: -1.345132e-04  t[s]:   2212.60
BandDavidson: Iter:  12  Eband: -0.102619819889454  dEband: -1.178882e-04  t[s]:   2218.65
BandDavidson: Iter:  13  Eband: -0.102718790127031  dEband: -9.897024e-05  t[s]:   2224.67
BandDavidson: Iter:  14  Eband: -0.102801655970266  dEband: -8.286584e-05  t[s]:   2230.74
BandDavidson: Iter:  15  Eband: -0.102868055281469  dEband: -6.639931e-05  t[s]:   2236.82
BandDavidson: Iter:  16  Eband: -0.102925044422828  dEband: -5.698914e-05  t[s]:   2242.92
BandDavidson: Iter:  17  Eband: -0.102982292455214  dEband: -5.724803e-05  t[s]:   2248.92
BandDavidson: Iter:  18  Eband: -0.103034105035024  dEband: -5.181258e-05  t[s]:   2254.99
BandDavidson: Iter:  19  Eband: -0.103080324808448  dEband: -4.621977e-05  t[s]:   2260.98
BandDavidson: Iter:  20  Eband: -0.103122070284659  dEband: -4.174548e-05  t[s]:   2267.02
BandDavidson: Iter:  21  Eband: -0.103163295024875  dEband: -4.122474e-05  t[s]:   2273.06
BandDavidson: Iter:  22  Eband: -0.103202206928052  dEband: -3.891190e-05  t[s]:   2279.08
BandDavidson: Iter:  23  Eband: -0.103236795795891  dEband: -3.458887e-05  t[s]:   2285.02
BandDavidson: Iter:  24  Eband: -0.103267157026645  dEband: -3.036123e-05  t[s]:   2290.83
BandDavidson: Iter:  25  Eband: -0.103293672217773  dEband: -2.651519e-05  t[s]:   2296.73
BandDavidson: Iter:  26  Eband: -0.103316626636201  dEband: -2.295442e-05  t[s]:   2302.49
BandDavidson: Iter:  27  Eband: -0.103336762522759  dEband: -2.013589e-05  t[s]:   2308.13
BandDavidson: Iter:  28  Eband: -0.103354813965151  dEband: -1.805144e-05  t[s]:   2313.74
BandDavidson: Iter:  29  Eband: -0.103371219192334  dEband: -1.640523e-05  t[s]:   2319.21
BandDavidson: Iter:  30  Eband: -0.103385785416305  dEband: -1.456622e-05  t[s]:   2324.60
BandDavidson: Iter:  31  Eband: -0.103398441025129  dEband: -1.265561e-05  t[s]:   2329.53
BandDavidson: Iter:  32  Eband: -0.103409445093515  dEband: -1.100407e-05  t[s]:   2334.25
BandDavidson: Iter:  33  Eband: -0.103419122971858  dEband: -9.677878e-06  t[s]:   2338.40
BandDavidson: Iter:  34  Eband: -0.103427778612930  dEband: -8.655641e-06  t[s]:   2342.75
BandDavidson: Iter:  35  Eband: -0.103435479593898  dEband: -7.700981e-06  t[s]:   2347.11
BandDavidson: Iter:  36  Eband: -0.103442323493729  dEband: -6.843900e-06  t[s]:   2351.30
BandDavidson: Iter:  37  Eband: -0.103448287531930  dEband: -5.964038e-06  t[s]:   2355.47
BandDavidson: Iter:  38  Eband: -0.103453447085221  dEband: -5.159553e-06  t[s]:   2359.52
BandDavidson: Iter:  39  Eband: -0.103457847016480  dEband: -4.399931e-06  t[s]:   2363.52
BandDavidson: Iter:  40  Eband: -0.103461663204829  dEband: -3.816188e-06  t[s]:   2367.54
BandDavidson: Iter:  41  Eband: -0.103465009721989  dEband: -3.346517e-06  t[s]:   2371.43
BandDavidson: Iter:  42  Eband: -0.103467976398820  dEband: -2.966677e-06  t[s]:   2375.26
BandDavidson: Iter:  43  Eband: -0.103470616859006  dEband: -2.640460e-06  t[s]:   2379.02
BandDavidson: Iter:  44  Eband: -0.103472959862963  dEband: -2.343004e-06  t[s]:   2382.77
BandDavidson: Iter:  45  Eband: -0.103475038402980  dEband: -2.078540e-06  t[s]:   2386.50
BandDavidson: Iter:  46  Eband: -0.103476888820789  dEband: -1.850418e-06  t[s]:   2390.27
BandDavidson: Iter:  47  Eband: -0.103478521755880  dEband: -1.632935e-06  t[s]:   2394.01
BandDavidson: Iter:  48  Eband: -0.103479957704834  dEband: -1.435949e-06  t[s]:   2397.81
BandDavidson: Iter:  49  Eband: -0.103481232419236  dEband: -1.274714e-06  t[s]:   2401.55
BandDavidson: Iter:  50  Eband: -0.103482364527256  dEband: -1.132108e-06  t[s]:   2405.25
BandDavidson: Iter:  51  Eband: -0.103483369095570  dEband: -1.004568e-06  t[s]:   2408.91
BandDavidson: Iter:  52  Eband: -0.103484260800540  dEband: -8.917050e-07  t[s]:   2412.54
BandDavidson: Iter:  53  Eband: -0.103485053805307  dEband: -7.930048e-07  t[s]:   2416.01
BandDavidson: Iter:  54  Eband: -0.103485758041772  dEband: -7.042365e-07  t[s]:   2419.42
BandDavidson: Iter:  55  Eband: -0.103486386677883  dEband: -6.286361e-07  t[s]:   2422.84
BandDavidson: Iter:  56  Eband: -0.103486945972684  dEband: -5.592948e-07  t[s]:   2426.21
BandDavidson: Iter:  57  Eband: -0.103487446430719  dEband: -5.004580e-07  t[s]:   2429.59
BandDavidson: Iter:  58  Eband: -0.103487893223575  dEband: -4.467929e-07  t[s]:   2432.91
BandDavidson: Iter:  59  Eband: -0.103488292951438  dEband: -3.997279e-07  t[s]:   2436.17
BandDavidson: Iter:  60  Eband: -0.103488649702304  dEband: -3.567509e-07  t[s]:   2439.42
BandDavidson: Iter:  61  Eband: -0.103488969318704  dEband: -3.196164e-07  t[s]:   2442.63
BandDavidson: Iter:  62  Eband: -0.103489254531868  dEband: -2.852132e-07  t[s]:   2445.90
BandDavidson: Iter:  63  Eband: -0.103489510633063  dEband: -2.561012e-07  t[s]:   2449.15
BandDavidson: Iter:  64  Eband: -0.103489739411887  dEband: -2.287788e-07  t[s]:   2452.28
BandDavidson: Iter:  65  Eband: -0.103489945090729  dEband: -2.056788e-07  t[s]:   2455.48
BandDavidson: Iter:  66  Eband: -0.103490128796641  dEband: -1.837059e-07  t[s]:   2458.43
BandDavidson: Iter:  67  Eband: -0.103490293757915  dEband: -1.649613e-07  t[s]:   2461.41
BandDavidson: Iter:  68  Eband: -0.103490441070822  dEband: -1.473129e-07  t[s]:   2464.37
BandDavidson: Iter:  69  Eband: -0.103490573689899  dEband: -1.326191e-07  t[s]:   2467.25
BandDavidson: Iter:  70  Eband: -0.103490692364620  dEband: -1.186747e-07  t[s]:   2470.22
BandDavidson: Iter:  71  Eband: -0.103490799217566  dEband: -1.068529e-07  t[s]:   2473.20
BandDavidson: Iter:  72  Eband: -0.103490894855208  dEband: -9.563764e-08  t[s]:   2476.11
BandDavidson: Iter:  73  Eband: -0.103490980788665  dEband: -8.593346e-08  t[s]:   2479.03
BandDavidson: Iter:  74  Eband: -0.103491057788068  dEband: -7.699940e-08  t[s]:   2481.93
BandDavidson: Iter:  75  Eband: -0.103491126752223  dEband: -6.896415e-08  t[s]:   2484.76
BandDavidson: Iter:  76  Eband: -0.103491188583080  dEband: -6.183086e-08  t[s]:   2487.58
BandDavidson: Iter:  77  Eband: -0.103491244152671  dEband: -5.556959e-08  t[s]:   2490.35
BandDavidson: Iter:  78  Eband: -0.103491294042484  dEband: -4.988981e-08  t[s]:   2493.18
BandDavidson: Iter:  79  Eband: -0.103491338872924  dEband: -4.483044e-08  t[s]:   2496.02
BandDavidson: Iter:  80  Eband: -0.103491379120255  dEband: -4.024733e-08  t[s]:   2498.81
BandDavidson: Iter:  81  Eband: -0.103491415387250  dEband: -3.626700e-08  t[s]:   2501.62
BandDavidson: Iter:  82  Eband: -0.103491447941164  dEband: -3.255391e-08  t[s]:   2504.37
BandDavidson: Iter:  83  Eband: -0.103491477217318  dEband: -2.927615e-08  t[s]:   2507.10
BandDavidson: Iter:  84  Eband: -0.103491503531792  dEband: -2.631447e-08  t[s]:   2509.89
BandDavidson: Iter:  85  Eband: -0.103491527208853  dEband: -2.367706e-08  t[s]:   2512.59
BandDavidson: Iter:  86  Eband: -0.103491548516334  dEband: -2.130748e-08  t[s]:   2515.29
BandDavidson: Iter:  87  Eband: -0.103491567714540  dEband: -1.919821e-08  t[s]:   2517.98
BandDavidson: Iter:  88  Eband: -0.103491585055540  dEband: -1.734100e-08  t[s]:   2520.66
BandDavidson: Iter:  89  Eband: -0.103491600730359  dEband: -1.567482e-08  t[s]:   2523.36
BandDavidson: Iter:  90  Eband: -0.103491614938107  dEband: -1.420775e-08  t[s]:   2526.06
BandDavidson: Iter:  91  Eband: -0.103491627812410  dEband: -1.287430e-08  t[s]:   2528.70
BandDavidson: Iter:  92  Eband: -0.103491639484355  dEband: -1.167195e-08  t[s]:   2531.36
BandDavidson: Iter:  93  Eband: -0.103491650081484  dEband: -1.059713e-08  t[s]:   2534.00
BandDavidson: Iter:  94  Eband: -0.103491659703236  dEband: -9.621753e-09  t[s]:   2536.64
BandDavidson: Converged (dEband<1.000000e-08)

---- Minimization of quantum number:     7  [ +0.0000000 +0.1944444 +0.0000000 ]  0.004629630  spin +1 ----
BandDavidson: Iter:   0  Eband: -0.046690305993226
BandDavidson: Iter:   1  Eband: -0.080815697823948  dEband: -3.412539e-02  t[s]:   2546.18
BandDavidson: Iter:   2  Eband: -0.092554342360595  dEband: -1.173864e-02  t[s]:   2552.23
BandDavidson: Iter:   3  Eband: -0.096382647262574  dEband: -3.828305e-03  t[s]:   2558.31
BandDavidson: Iter:   4  Eband: -0.098399911675821  dEband: -2.017264e-03  t[s]:   2564.35
BandDavidson: Iter:   5  Eband: -0.099721968698587  dEband: -1.322057e-03  t[s]:   2570.34
BandDavidson: Iter:   6  Eband: -0.100610101038868  dEband: -8.881323e-04  t[s]:   2576.36
BandDavidson: Iter:   7  Eband: -0.101273034423015  dEband: -6.629334e-04  t[s]:   2582.35
BandDavidson: Iter:   8  Eband: -0.101773404143886  dEband: -5.003697e-04  t[s]:   2588.43
BandDavidson: Iter:   9  Eband: -0.102100802736911  dEband: -3.273986e-04  t[s]:   2594.40
BandDavidson: Iter:  10  Eband: -0.102329484418109  dEband: -2.286817e-04  t[s]:   2600.40
BandDavidson: Iter:  11  Eband: -0.102492092131458  dEband: -1.626077e-04  t[s]:   2606.28
BandDavidson: Iter:  12  Eband: -0.102618151652087  dEband: -1.260595e-04  t[s]:   2612.33
BandDavidson: Iter:  13  Eband: -0.102726353399613  dEband: -1.082017e-04  t[s]:   2618.32
BandDavidson: Iter:  14  Eband: -0.102822445755359  dEband: -9.609236e-05  t[s]:   2624.28
BandDavidson: Iter:  15  Eband: -0.102903223707222  dEband: -8.077795e-05  t[s]:   2630.35
BandDavidson: Iter:  16  Eband: -0.102971969323403  dEband: -6.874562e-05  t[s]:   2636.41
BandDavidson: Iter:  17  Eband: -0.103030742718544  dEband: -5.877340e-05  t[s]:   2642.48
BandDavidson: Iter:  18  Eband: -0.103082116545538  dEband: -5.137383e-05  t[s]:   2648.53
BandDavidson: Iter:  19  Eband: -0.103131846506254  dEband: -4.972996e-05  t[s]:   2654.46
BandDavidson: Iter:  20  Eband: -0.103177178857402  dEband: -4.533235e-05  t[s]:   2660.53
BandDavidson: Iter:  21  Eband: -0.103216311095105  dEband: -3.913224e-05  t[s]:   2666.57
BandDavidson: Iter:  22  Eband: -0.103249236314701  dEband: -3.292522e-05  t[s]:   2672.58
BandDavidson: Iter:  23  Eband: -0.103277218535679  dEband: -2.798222e-05  t[s]:   2678.67
BandDavidson: Iter:  24  Eband: -0.103304032389283  dEband: -2.681385e-05  t[s]:   2684.63
BandDavidson: Iter:  25  Eband: -0.103326978677706  dEband: -2.294629e-05  t[s]:   2690.48
BandDavidson: Iter:  26  Eband: -0.103346454270086  dEband: -1.947559e-05  t[s]:   2696.22
BandDavidson: Iter:  27  Eband: -0.103363117020516  dEband: -1.666275e-05  t[s]:   2701.82
BandDavidson: Iter:  28  Eband: -0.103378015037472  dEband: -1.489802e-05  t[s]:   2707.35
BandDavidson: Iter:  29  Eband: -0.103392293382682  dEband: -1.427835e-05  t[s]:   2712.81
BandDavidson: Iter:  30  Eband: -0.103405268027282  dEband: -1.297464e-05  t[s]:   2718.15
BandDavidson: Iter:  31  Eband: -0.103416736108775  dEband: -1.146808e-05  t[s]:   2723.20
BandDavidson: Iter:  32  Eband: -0.103426845075924  dEband: -1.010897e-05  t[s]:   2727.87
BandDavidson: Iter:  33  Eband: -0.103435874470325  dEband: -9.029394e-06  t[s]:   2732.07
BandDavidson: Iter:  34  Eband: -0.103443936694655  dEband: -8.062224e-06  t[s]:   2736.30
BandDavidson: Iter:  35  Eband: -0.103451137353358  dEband: -7.200659e-06  t[s]:   2740.52
BandDavidson: Iter:  36  Eband: -0.103457569150524  dEband: -6.431797e-06  t[s]:   2744.75
BandDavidson: Iter:  37  Eband: -0.103463270660381  dEband: -5.701510e-06  t[s]:   2748.77
BandDavidson: Iter:  38  Eband: -0.103468310661914  dEband: -5.040002e-06  t[s]:   2752.82
BandDavidson: Iter:  39  Eband: -0.103472755847435  dEband: -4.445186e-06  t[s]:   2756.89
BandDavidson: Iter:  40  Eband: -0.103476729003686  dEband: -3.973156e-06  t[s]:   2760.87
BandDavidson: Iter:  41  Eband: -0.103480267350242  dEband: -3.538347e-06  t[s]:   2764.75
BandDavidson: Iter:  42  Eband: -0.103483397899251  dEband: -3.130549e-06  t[s]:   2768.66
BandDavidson: Iter:  43  Eband: -0.103486146078391  dEband: -2.748179e-06  t[s]:   2772.54
BandDavidson: Iter:  44  Eband: -0.103488602833855  dEband: -2.456755e-06  t[s]:   2776.25
BandDavidson: Iter:  45  Eband: -0.103490813407837  dEband: -2.210574e-06  t[s]:   2780.14
BandDavidson: Iter:  46  Eband: -0.103492819991436  dEband: -2.006584e-06  t[s]:   2783.97
BandDavidson: Iter:  47  Eband: -0.103494643433347  dEband: -1.823442e-06  t[s]:   2787.82
BandDavidson: Iter:  48  Eband: -0.103496304336653  dEband: -1.660903e-06  t[s]:   2791.61
BandDavidson: Iter:  49  Eband: -0.103497806887490  dEband: -1.502551e-06  t[s]:   2795.30
BandDavidson: Iter:  50  Eband: -0.103499172420403  dEband: -1.365533e-06  t[s]:   2799.01
BandDavidson: Iter:  51  Eband: -0.103500403937609  dEband: -1.231517e-06  t[s]:   2802.58
BandDavidson: Iter:  52  Eband: -0.103501511965416  dEband: -1.108028e-06  t[s]:   2806.07
BandDavidson: Iter:  53  Eband: -0.103502516477467  dEband: -1.004512e-06  t[s]:   2809.50
BandDavidson: Iter:  54  Eband: -0.103503427600567  dEband: -9.111231e-07  t[s]:   2812.88
BandDavidson: Iter:  55  Eband: -0.103504255556799  dEband: -8.279562e-07  t[s]:   2816.31
BandDavidson: Iter:  56  Eband: -0.103505006544453  dEband: -7.509877e-07  t[s]:   2819.69
BandDavidson: Iter:  57  Eband: -0.103505687424400  dEband: -6.808799e-07  t[s]:   2823.02
BandDavidson: Iter:  58  Eband: -0.103506304177732  dEband: -6.167533e-07  t[s]:   2826.31
BandDavidson: Iter:  59  Eband: -0.103506863598469  dEband: -5.594207e-07  t[s]:   2829.59
BandDavidson: Iter:  60  Eband: -0.103507371012630  dEband: -5.074142e-07  t[s]:   2832.89
BandDavidson: Iter:  61  Eband: -0.103507830244486  dEband: -4.592319e-07  t[s]:   2836.05
BandDavidson: Iter:  62  Eband: -0.103508247100727  dEband: -4.168562e-07  t[s]:   2839.25
BandDavidson: Iter:  63  Eband: -0.103508625337166  dEband: -3.782364e-07  t[s]:   2842.42
BandDavidson: Iter:  64  Eband: -0.103508968522123  dEband: -3.431850e-07  t[s]:   2845.51
BandDavidson: Iter:  65  Eband: -0.103509280162097  dEband: -3.116400e-07  t[s]:   2848.62
BandDavidson: Iter:  66  Eband: -0.103509563120615  dEband: -2.829585e-07  t[s]:   2851.64
BandDavidson: Iter:  67  Eband: -0.103509819552982  dEband: -2.564324e-07  t[s]:   2854.58
BandDavidson: Iter:  68  Eband: -0.103510053168877  dEband: -2.336159e-07  t[s]:   2857.57
BandDavidson: Iter:  69  Eband: -0.103510265025383  dEband: -2.118565e-07  t[s]:   2860.44
BandDavidson: Iter:  70  Eband: -0.103510457468807  dEband: -1.924434e-07  t[s]:   2863.38
BandDavidson: Iter:  71  Eband: -0.103510631715982  dEband: -1.742472e-07  t[s]:   2866.31
BandDavidson: Iter:  72  Eband: -0.103510790313565  dEband: -1.585976e-07  t[s]:   2869.23
BandDavidson: Iter:  73  Eband: -0.103510933716778  dEband: -1.434032e-07  t[s]:   2872.18
BandDavidson: Iter:  74  Eband: -0.103511064011125  dEband: -1.302943e-07  t[s]:   2875.10
BandDavidson: Iter:  75  Eband: -0.103511181635897  dEband: -1.176248e-07  t[s]:   2877.91
BandDavidson: Iter:  76  Eband: -0.103511288255570  dEband: -1.066197e-07  t[s]:   2880.81
BandDavidson: Iter:  77  Eband: -0.103511384779894  dEband: -9.652432e-08  t[s]:   2883.69
BandDavidson: Iter:  78  Eband: -0.103511472108550  dEband: -8.732866e-08  t[s]:   2886.55
BandDavidson: Iter:  79  Eband: -0.103511551046904  dEband: -7.893835e-08  t[s]:   2889.28
BandDavidson: Iter:  80  Eband: -0.103511622661421  dEband: -7.161452e-08  t[s]:   2892.09
BandDavidson: Iter:  81  Eband: -0.103511687516039  dEband: -6.485462e-08  t[s]:   2894.85
BandDavidson: Iter:  82  Eband: -0.103511746302497  dEband: -5.878646e-08  t[s]:   2897.57
BandDavidson: Iter:  83  Eband: -0.103511799541164  dEband: -5.323867e-08  t[s]:   2900.30
BandDavidson: Iter:  84  Eband: -0.103511847894981  dEband: -4.835382e-08  t[s]:   2902.99
BandDavidson: Iter:  85  Eband: -0.103511891696678  dEband: -4.380170e-08  t[s]:   2905.69
BandDavidson: Iter:  86  Eband: -0.103511931487505  dEband: -3.979083e-08  t[s]:   2908.42
BandDavidson: Iter:  87  Eband: -0.103511967561176  dEband: -3.607367e-08  t[s]:   2911.11
BandDavidson: Iter:  88  Eband: -0.103512000332915  dEband: -3.277174e-08  t[s]:   2913.85
BandDavidson: Iter:  89  Eband: -0.103512030085657  dEband: -2.975274e-08  t[s]:   2916.54
BandDavidson: Iter:  90  Eband: -0.103512057057597  dEband: -2.697194e-08  t[s]:   2919.19
BandDavidson: Iter:  91  Eband: -0.103512081502147  dEband: -2.444455e-08  t[s]:   2921.85
BandDavidson: Iter:  92  Eband: -0.103512103651766  dEband: -2.214962e-08  t[s]:   2924.42
BandDavidson: Iter:  93  Eband: -0.103512123758869  dEband: -2.010710e-08  t[s]:   2927.01
BandDavidson: Iter:  94  Eband: -0.103512141961864  dEband: -1.820299e-08  t[s]:   2929.54
BandDavidson: Iter:  95  Eband: -0.103512158449967  dEband: -1.648810e-08  t[s]:   2932.17
BandDavidson: Iter:  96  Eband: -0.103512173416882  dEband: -1.496692e-08  t[s]:   2934.74
BandDavidson: Iter:  97  Eband: -0.103512186980081  dEband: -1.356320e-08  t[s]:   2937.25
BandDavidson: Iter:  98  Eband: -0.103512199290194  dEband: -1.231011e-08  t[s]:   2939.85
BandDavidson: Iter:  99  Eband: -0.103512210411828  dEband: -1.112163e-08  t[s]:   2942.41
BandDavidson: Iter: 100  Eband: -0.103512220527364  dEband: -1.011554e-08  t[s]:   2944.89
BandDavidson: None of the convergence criteria satisfied after 100 iterations.

---- Minimization of quantum number:     8  [ +0.0000000 +0.2222222 +0.0000000 ]  0.004629630  spin +1 ----
BandDavidson: Iter:   0  Eband: -0.046871159975624
BandDavidson: Iter:   1  Eband: -0.080883708937367  dEband: -3.401255e-02  t[s]:   2954.27
BandDavidson: Iter:   2  Eband: -0.092563673983281  dEband: -1.167997e-02  t[s]:   2960.26
BandDavidson: Iter:   3  Eband: -0.096344190061337  dEband: -3.780516e-03  t[s]:   2966.24
BandDavidson: Iter:   4  Eband: -0.098261812862666  dEband: -1.917623e-03  t[s]:   2972.26
BandDavidson: Iter:   5  Eband: -0.099658184308280  dEband: -1.396371e-03  t[s]:   2978.29
BandDavidson: Iter:   6  Eband: -0.100579992984898  dEband: -9.218087e-04  t[s]:   2984.32
BandDavidson: Iter:   7  Eband: -0.101170938844089  dEband: -5.909459e-04  t[s]:   2990.34
BandDavidson: Iter:   8  Eband: -0.101695050420383  dEband: -5.241116e-04  t[s]:   2996.20
BandDavidson: Iter:   9  Eband: -0.102025517506950  dEband: -3.304671e-04  t[s]:   3002.13
BandDavidson: Iter:  10  Eband: -0.102271102919339  dEband: -2.455854e-04  t[s]:   3008.06
BandDavidson: Iter:  11  Eband: -0.102447857749076  dEband: -1.767548e-04  t[s]:   3014.01
BandDavidson: Iter:  12  Eband: -0.102608561726350  dEband: -1.607040e-04  t[s]:   3020.04
BandDavidson: Iter:  13  Eband: -0.102735148952954  dEband: -1.265872e-04  t[s]:   3026.08
BandDavidson: Iter:  14  Eband: -0.102835868656556  dEband: -1.007197e-04  t[s]:   3032.11
BandDavidson: Iter:  15  Eband: -0.102920200496206  dEband: -8.433184e-05  t[s]:   3038.19
BandDavidson: Iter:  16  Eband: -0.102991838658285  dEband: -7.163816e-05  t[s]:   3044.25
BandDavidson: Iter:  17  Eband: -0.103053987566248  dEband: -6.214891e-05  t[s]:   3050.24
BandDavidson: Iter:  18  Eband: -0.103108037981857  dEband: -5.405042e-05  t[s]:   3056.21
BandDavidson: Iter:  19  Eband: -0.103156711214748  dEband: -4.867323e-05  t[s]:   3062.26
BandDavidson: Iter:  20  Eband: -0.103201245540353  dEband: -4.453433e-05  t[s]:   3068.22
BandDavidson: Iter:  21  Eband: -0.103240185382428  dEband: -3.893984e-05  t[s]:   3074.25
BandDavidson: Iter:  22  Eband: -0.103273327584491  dEband: -3.314220e-05  t[s]:   3080.41
BandDavidson: Iter:  23  Eband: -0.103301322125049  dEband: -2.799454e-05  t[s]:   3086.39
BandDavidson: Iter:  24  Eband: -0.103325167454833  dEband: -2.384533e-05  t[s]:   3092.32
BandDavidson: Iter:  25  Eband: -0.103345762910078  dEband: -2.059546e-05  t[s]:   3098.21
BandDavidson: Iter:  26  Eband: -0.103363600165916  dEband: -1.783726e-05  t[s]:   3103.93
BandDavidson: Iter:  27  Eband: -0.103378965165284  dEband: -1.536500e-05  t[s]:   3109.75
BandDavidson: Iter:  28  Eband: -0.103392090731047  dEband: -1.312557e-05  t[s]:   3115.26
BandDavidson: Iter:  29  Eband: -0.103403202857062  dEband: -1.111213e-05  t[s]:   3120.87
BandDavidson: Iter:  30  Eband: -0.103412567621578  dEband: -9.364765e-06  t[s]:   3126.13
BandDavidson: Iter:  31  Eband: -0.103420427344998  dEband: -7.859723e-06  t[s]:   3131.17
BandDavidson: Iter:  32  Eband: -0.103427075873136  dEband: -6.648528e-06  t[s]:   3135.81
BandDavidson: Iter:  33  Eband: -0.103432817116068  dEband: -5.741243e-06  t[s]:   3140.03
BandDavidson: Iter:  34  Eband: -0.103438188867650  dEband: -5.371752e-06  t[s]:   3144.32
BandDavidson: Iter:  35  Eband: -0.103443881531129  dEband: -5.692663e-06  t[s]:   3148.55
BandDavidson: Iter:  36  Eband: -0.103449802013247  dEband: -5.920482e-06  t[s]:   3152.75
BandDavidson: Iter:  37  Eband: -0.103455693224487  dEband: -5.891211e-06  t[s]:   3156.78
BandDavidson: Iter:  38  Eband: -0.103461400079197  dEband: -5.706855e-06  t[s]:   3160.78
BandDavidson: Iter:  39  Eband: -0.103466778312539  dEband: -5.378233e-06  t[s]:   3164.84
BandDavidson: Iter:  40  Eband: -0.103471704972774  dEband: -4.926660e-06  t[s]:   3168.80
BandDavidson: Iter:  41  Eband: -0.103476072981257  dEband: -4.368008e-06  t[s]:   3172.66
BandDavidson: Iter:  42  Eband: -0.103479940523680  dEband: -3.867542e-06  t[s]:   3176.47
BandDavidson: Iter:  43  Eband: -0.103483410468012  dEband: -3.469944e-06  t[s]:   3180.23
BandDavidson: Iter:  44  Eband: -0.103486638025525  dEband: -3.227558e-06  t[s]:   3184.03
BandDavidson: Iter:  45  Eband: -0.103489595072794  dEband: -2.957047e-06  t[s]:   3187.80
BandDavidson: Iter:  46  Eband: -0.103492263649837  dEband: -2.668577e-06  t[s]:   3191.64
BandDavidson: Iter:  47  Eband: -0.103494648683349  dEband: -2.385034e-06  t[s]:   3195.42
BandDavidson: Iter:  48  Eband: -0.103496753943483  dEband: -2.105260e-06  t[s]:   3199.11
BandDavidson: Iter:  49  Eband: -0.103498635916703  dEband: -1.881973e-06  t[s]:   3202.77
BandDavidson: Iter:  50  Eband: -0.103500293706108  dEband: -1.657789e-06  t[s]:   3206.47
BandDavidson: Iter:  51  Eband: -0.103501773190192  dEband: -1.479484e-06  t[s]:   3209.93
BandDavidson: Iter:  52  Eband: -0.103503077502485  dEband: -1.304312e-06  t[s]:   3213.34
BandDavidson: Iter:  53  Eband: -0.103504246994443  dEband: -1.169492e-06  t[s]:   3216.70
BandDavidson: Iter:  54  Eband: -0.103505289599132  dEband: -1.042605e-06  t[s]:   3220.13
[...]
BandDavidson: Iter:  57  Eband: -0.103524252490090  dEband: -5.921706e-07  t[s]:   4028.47
BandDavidson: Iter:  58  Eband: -0.103524771762150  dEband: -5.192721e-07  t[s]:   4031.78
BandDavidson: Iter:  59  Eband: -0.103525225494946  dEband: -4.537328e-07  t[s]:   4035.05
BandDavidson: Iter:  60  Eband: -0.103525625157104  dEband: -3.996622e-07  t[s]:   4038.32
BandDavidson: Iter:  61  Eband: -0.103525978790662  dEband: -3.536336e-07  t[s]:   4041.53
BandDavidson: Iter:  62  Eband: -0.103526291872607  dEband: -3.130819e-07  t[s]:   4044.79
BandDavidson: Iter:  63  Eband: -0.103526569195208  dEband: -2.773226e-07  t[s]:   4047.95
BandDavidson: Iter:  64  Eband: -0.103526815372020  dEband: -2.461768e-07  t[s]:   4051.10
BandDavidson: Iter:  65  Eband: -0.103527033800463  dEband: -2.184284e-07  t[s]:   4054.18
BandDavidson: Iter:  66  Eband: -0.103527228225685  dEband: -1.944252e-07  t[s]:   4057.22
BandDavidson: Iter:  67  Eband: -0.103527400739498  dEband: -1.725138e-07  t[s]:   4060.10
BandDavidson: Iter:  68  Eband: -0.103527554568146  dEband: -1.538286e-07  t[s]:   4063.12
BandDavidson: Iter:  69  Eband: -0.103527691346157  dEband: -1.367780e-07  t[s]:   4065.95
BandDavidson: Iter:  70  Eband: -0.103527813478009  dEband: -1.221319e-07  t[s]:   4068.84
BandDavidson: Iter:  71  Eband: -0.103527922322448  dEband: -1.088444e-07  t[s]:   4071.69
BandDavidson: Iter:  72  Eband: -0.103528019525266  dEband: -9.720282e-08  t[s]:   4074.60
BandDavidson: Iter:  73  Eband: -0.103528106209351  dEband: -8.668408e-08  t[s]:   4077.44
BandDavidson: Iter:  74  Eband: -0.103528183525679  dEband: -7.731633e-08  t[s]:   4080.24
BandDavidson: Iter:  75  Eband: -0.103528252456301  dEband: -6.893062e-08  t[s]:   4083.12
BandDavidson: Iter:  76  Eband: -0.103528313907552  dEband: -6.145125e-08  t[s]:   4086.00
BandDavidson: Iter:  77  Eband: -0.103528368752756  dEband: -5.484520e-08  t[s]:   4088.92
BandDavidson: Iter:  78  Eband: -0.103528417657307  dEband: -4.890455e-08  t[s]:   4091.78
BandDavidson: Iter:  79  Eband: -0.103528461375600  dEband: -4.371829e-08  t[s]:   4094.71
BandDavidson: Iter:  80  Eband: -0.103528500382156  dEband: -3.900656e-08  t[s]:   4097.63
BandDavidson: Iter:  81  Eband: -0.103528535281357  dEband: -3.489920e-08  t[s]:   4100.41
BandDavidson: Iter:  82  Eband: -0.103528566374917  dEband: -3.109356e-08  t[s]:   4103.24
BandDavidson: Iter:  83  Eband: -0.103528594210521  dEband: -2.783560e-08  t[s]:   4106.05
BandDavidson: Iter:  84  Eband: -0.103528618983395  dEband: -2.477287e-08  t[s]:   4108.77
BandDavidson: Iter:  85  Eband: -0.103528641127220  dEband: -2.214383e-08  t[s]:   4111.58
BandDavidson: Iter:  86  Eband: -0.103528660809575  dEband: -1.968235e-08  t[s]:   4114.32
BandDavidson: Iter:  87  Eband: -0.103528678402514  dEband: -1.759294e-08  t[s]:   4117.01
BandDavidson: Iter:  88  Eband: -0.103528694072883  dEband: -1.567037e-08  t[s]:   4119.71
BandDavidson: Iter:  89  Eband: -0.103528708034958  dEband: -1.396208e-08  t[s]:   4122.37
BandDavidson: Iter:  90  Eband: -0.103528720473450  dEband: -1.243849e-08  t[s]:   4125.10
BandDavidson: Iter:  91  Eband: -0.103528731540228  dEband: -1.106678e-08  t[s]:   4127.68
BandDavidson: Iter:  92  Eband: -0.103528741382703  dEband: -9.842475e-09  t[s]:   4130.31
BandDavidson: Converged (dEband<1.000000e-08)

---- Minimization of quantum number:    11  [ +0.0000000 +0.3055556 +0.0000000 ]  0.004629630  spin +1 ----
BandDavidson: Iter:   0  Eband: -0.046491727218043
BandDavidson: Iter:   1  Eband: -0.080726345241145  dEband: -3.423462e-02  t[s]:   4139.86
BandDavidson: Iter:   2  Eband: -0.092396246260241  dEband: -1.166990e-02  t[s]:   4145.87
BandDavidson: Iter:   3  Eband: -0.096045053989347  dEband: -3.648808e-03  t[s]:   4151.89
BandDavidson: Iter:   4  Eband: -0.098283399777586  dEband: -2.238346e-03  t[s]:   4157.98
BandDavidson: Iter:   5  Eband: -0.099667605585811  dEband: -1.384206e-03  t[s]:   4164.01
BandDavidson: Iter:   6  Eband: -0.100764293490584  dEband: -1.096688e-03  t[s]:   4170.00
BandDavidson: Iter:   7  Eband: -0.101301764322433  dEband: -5.374708e-04  t[s]:   4176.10
BandDavidson: Iter:   8  Eband: -0.101765087632229  dEband: -4.633233e-04  t[s]:   4182.18
BandDavidson: Iter:   9  Eband: -0.102120122578946  dEband: -3.550349e-04  t[s]:   4188.22
BandDavidson: Iter:  10  Eband: -0.102361966205190  dEband: -2.418436e-04  t[s]:   4194.25
BandDavidson: Iter:  11  Eband: -0.102535915584513  dEband: -1.739494e-04  t[s]:   4200.27
BandDavidson: Iter:  12  Eband: -0.102668009687364  dEband: -1.320941e-04  t[s]:   4206.35
BandDavidson: Iter:  13  Eband: -0.102781524194383  dEband: -1.135145e-04  t[s]:   4212.36
BandDavidson: Iter:  14  Eband: -0.102872971687730  dEband: -9.144749e-05  t[s]:   4218.38
BandDavidson: Iter:  15  Eband: -0.102950267458851  dEband: -7.729577e-05  t[s]:   4224.41
BandDavidson: Iter:  16  Eband: -0.103017594989633  dEband: -6.732753e-05  t[s]:   4230.41
BandDavidson: Iter:  17  Eband: -0.103079356421516  dEband: -6.176143e-05  t[s]:   4236.48
BandDavidson: Iter:  18  Eband: -0.103138459377252  dEband: -5.910296e-05  t[s]:   4242.53
BandDavidson: Iter:  19  Eband: -0.103198325264616  dEband: -5.986589e-05  t[s]:   4248.59
BandDavidson: Iter:  20  Eband: -0.103247738773567  dEband: -4.941351e-05  t[s]:   4254.70
BandDavidson: Iter:  21  Eband: -0.103288016807752  dEband: -4.027803e-05  t[s]:   4260.72
BandDavidson: Iter:  22  Eband: -0.103321450146566  dEband: -3.343334e-05  t[s]:   4266.66
BandDavidson: Iter:  23  Eband: -0.103350001620578  dEband: -2.855147e-05  t[s]:   4272.69
BandDavidson: Iter:  24  Eband: -0.103374716219001  dEband: -2.471460e-05  t[s]:   4278.66
BandDavidson: Iter:  25  Eband: -0.103396003100929  dEband: -2.128688e-05  t[s]:   4284.50
BandDavidson: Iter:  26  Eband: -0.103414462417927  dEband: -1.845932e-05  t[s]:   4290.15
BandDavidson: Iter:  27  Eband: -0.103430412390868  dEband: -1.594997e-05  t[s]:   4295.89
BandDavidson: Iter:  28  Eband: -0.103444100014672  dEband: -1.368762e-05  t[s]:   4301.38
BandDavidson: Iter:  29  Eband: -0.103455735274668  dEband: -1.163526e-05  t[s]:   4306.76
BandDavidson: Iter:  30  Eband: -0.103465571541387  dEband: -9.836267e-06  t[s]:   4312.08
BandDavidson: Iter:  31  Eband: -0.103473954502034  dEband: -8.382961e-06  t[s]:   4317.14
BandDavidson: Iter:  32  Eband: -0.103481084567275  dEband: -7.130065e-06  t[s]:   4322.01
BandDavidson: Iter:  33  Eband: -0.103487213780312  dEband: -6.129213e-06  t[s]:   4326.44
BandDavidson: Iter:  34  Eband: -0.103492780602373  dEband: -5.566822e-06  t[s]:   4330.72
BandDavidson: Iter:  35  Eband: -0.103497986253799  dEband: -5.205651e-06  t[s]:   4334.91
BandDavidson: Iter:  36  Eband: -0.103503102558802  dEband: -5.116305e-06  t[s]:   4339.01
BandDavidson: Iter:  37  Eband: -0.103508559758660  dEband: -5.457200e-06  t[s]:   4343.09
BandDavidson: Iter:  38  Eband: -0.103513864114399  dEband: -5.304356e-06  t[s]:   4347.07
BandDavidson: Iter:  39  Eband: -0.103518697180477  dEband: -4.833066e-06  t[s]:   4351.01
BandDavidson: Iter:  40  Eband: -0.103523022803873  dEband: -4.325623e-06  t[s]:   4355.06
BandDavidson: Iter:  41  Eband: -0.103526802853997  dEband: -3.780050e-06  t[s]:   4359.01
BandDavidson: Iter:  42  Eband: -0.103530086206967  dEband: -3.283353e-06  t[s]:   4362.83
BandDavidson: Iter:  43  Eband: -0.103532904959470  dEband: -2.818753e-06  t[s]:   4366.74
BandDavidson: Iter:  44  Eband: -0.103535373361024  dEband: -2.468402e-06  t[s]:   4370.65
BandDavidson: Iter:  45  Eband: -0.103537534551524  dEband: -2.161191e-06  t[s]:   4374.41
BandDavidson: Iter:  46  Eband: -0.103539413663496  dEband: -1.879112e-06  t[s]:   4378.10
BandDavidson: Iter:  47  Eband: -0.103541092820494  dEband: -1.679157e-06  t[s]:   4381.89
BandDavidson: Iter:  48  Eband: -0.103542575293022  dEband: -1.482473e-06  t[s]:   4385.62
BandDavidson: Iter:  49  Eband: -0.103543879930790  dEband: -1.304638e-06  t[s]:   4389.25
BandDavidson: Iter:  50  Eband: -0.103545022796677  dEband: -1.142866e-06  t[s]:   4392.88
BandDavidson: Iter:  51  Eband: -0.103546022346694  dEband: -9.995500e-07  t[s]:   4396.36
BandDavidson: Iter:  52  Eband: -0.103546897711859  dEband: -8.753652e-07  t[s]:   4399.86
BandDavidson: Iter:  53  Eband: -0.103547665294144  dEband: -7.675823e-07  t[s]:   4403.26
BandDavidson: Iter:  54  Eband: -0.103548341228950  dEband: -6.759348e-07  t[s]:   4406.73
BandDavidson: Iter:  55  Eband: -0.103548936246718  dEband: -5.950178e-07  t[s]:   4410.17
BandDavidson: Iter:  56  Eband: -0.103549461634560  dEband: -5.253878e-07  t[s]:   4413.58
BandDavidson: Iter:  57  Eband: -0.103549924839574  dEband: -4.632050e-07  t[s]:   4416.96
BandDavidson: Iter:  58  Eband: -0.103550333540384  dEband: -4.087008e-07  t[s]:   4420.28
BandDavidson: Iter:  59  Eband: -0.103550693928668  dEband: -3.603883e-07  t[s]:   4423.56
BandDavidson: Iter:  60  Eband: -0.103551011989580  dEband: -3.180609e-07  t[s]:   4426.85
BandDavidson: Iter:  61  Eband: -0.103551292647402  dEband: -2.806578e-07  t[s]:   4430.12
BandDavidson: Iter:  62  Eband: -0.103551540120367  dEband: -2.474730e-07  t[s]:   4433.35
BandDavidson: Iter:  63  Eband: -0.103551758880374  dEband: -2.187600e-07  t[s]:   4436.57
BandDavidson: Iter:  64  Eband: -0.103551951868193  dEband: -1.929878e-07  t[s]:   4439.80
BandDavidson: Iter:  65  Eband: -0.103552122999417  dEband: -1.711312e-07  t[s]:   4442.98
BandDavidson: Iter:  66  Eband: -0.103552273822362  dEband: -1.508229e-07  t[s]:   4446.06
BandDavidson: Iter:  67  Eband: -0.103552407591975  dEband: -1.337696e-07  t[s]:   4449.11
BandDavidson: Iter:  68  Eband: -0.103552525421323  dEband: -1.178293e-07  t[s]:   4452.02
BandDavidson: Iter:  69  Eband: -0.103552629756297  dEband: -1.043350e-07  t[s]:   4454.86
BandDavidson: Iter:  70  Eband: -0.103552722110205  dEband: -9.235391e-08  t[s]:   4457.82
BandDavidson: Iter:  71  Eband: -0.103552804137290  dEband: -8.202709e-08  t[s]:   4460.70
BandDavidson: Iter:  72  Eband: -0.103552876887151  dEband: -7.274986e-08  t[s]:   4463.59
BandDavidson: Iter:  73  Eband: -0.103552941497535  dEband: -6.461038e-08  t[s]:   4466.50
BandDavidson: Iter:  74  Eband: -0.103552998810310  dEband: -5.731277e-08  t[s]:   4469.38
BandDavidson: Iter:  75  Eband: -0.103553049789751  dEband: -5.097944e-08  t[s]:   4472.27
BandDavidson: Iter:  76  Eband: -0.103553095095801  dEband: -4.530605e-08  t[s]:   4475.10
BandDavidson: Iter:  77  Eband: -0.103553135418731  dEband: -4.032293e-08  t[s]:   4477.93
BandDavidson: Iter:  78  Eband: -0.103553171298732  dEband: -3.588000e-08  t[s]:   4480.77
BandDavidson: Iter:  79  Eband: -0.103553203221375  dEband: -3.192264e-08  t[s]:   4483.62
BandDavidson: Iter:  80  Eband: -0.103553231646774  dEband: -2.842540e-08  t[s]:   4486.47
BandDavidson: Iter:  81  Eband: -0.103553256929065  dEband: -2.528229e-08  t[s]:   4489.32
BandDavidson: Iter:  82  Eband: -0.103553279449276  dEband: -2.252021e-08  t[s]:   4492.14
BandDavidson: Iter:  83  Eband: -0.103553299461873  dEband: -2.001260e-08  t[s]:   4494.95
BandDavidson: Iter:  84  Eband: -0.103553317277424  dEband: -1.781555e-08  t[s]:   4497.83
BandDavidson: Iter:  85  Eband: -0.103553333105647  dEband: -1.582822e-08  t[s]:   4500.72
BandDavidson: Iter:  86  Eband: -0.103553347140747  dEband: -1.403510e-08  t[s]:   4503.54
BandDavidson: Iter:  87  Eband: -0.103553359549087  dEband: -1.240834e-08  t[s]:   4506.27
BandDavidson: Iter:  88  Eband: -0.103553370574004  dEband: -1.102492e-08  t[s]:   4509.04
BandDavidson: Iter:  89  Eband: -0.103553380365043  dEband: -9.791039e-09  t[s]:   4511.80
BandDavidson: Converged (dEband<1.000000e-08)

---- Minimization of quantum number:    12  [ +0.0000000 +0.3333333 +0.0000000 ]  0.004629630  spin +1 ----
BandDavidson: Iter:   0  Eband: -0.046767207901433
BandDavidson: Iter:   1  Eband: -0.080833330773242  dEband: -3.406612e-02  t[s]:   4521.25
BandDavidson: Iter:   2  Eband: -0.092318415433132  dEband: -1.148508e-02  t[s]:   4527.32
BandDavidson: Iter:   3  Eband: -0.095999665013395  dEband: -3.681250e-03  t[s]:   4533.46
BandDavidson: Iter:   4  Eband: -0.097886781251036  dEband: -1.887116e-03  t[s]:   4539.61
BandDavidson: Iter:   5  Eband: -0.098989320333712  dEband: -1.102539e-03  t[s]:   4545.58
BandDavidson: Iter:   6  Eband: -0.100164555824429  dEband: -1.175235e-03  t[s]:   4551.66
BandDavidson: Iter:   7  Eband: -0.100838311375990  dEband: -6.737556e-04  t[s]:   4557.71
BandDavidson: Iter:   8  Eband: -0.101277728168378  dEband: -4.394168e-04  t[s]:   4563.60
BandDavidson: Iter:   9  Eband: -0.101667300078084  dEband: -3.895719e-04  t[s]:   4569.63
BandDavidson: Iter:  10  Eband: -0.101996714115506  dEband: -3.294140e-04  t[s]:   4575.83
BandDavidson: Iter:  11  Eband: -0.102305972866228  dEband: -3.092588e-04  t[s]:   4581.84
BandDavidson: Iter:  12  Eband: -0.102598165645456  dEband: -2.921928e-04  t[s]:   4587.95
BandDavidson: Iter:  13  Eband: -0.102778458396113  dEband: -1.802928e-04  t[s]:   4593.98
BandDavidson: Iter:  14  Eband: -0.102910772059772  dEband: -1.323137e-04  t[s]:   4600.02
BandDavidson: Iter:  15  Eband: -0.103030633950313  dEband: -1.198619e-04  t[s]:   4606.04
BandDavidson: Iter:  16  Eband: -0.103120515518878  dEband: -8.988157e-05  t[s]:   4612.16
BandDavidson: Iter:  17  Eband: -0.103191937741523  dEband: -7.142222e-05  t[s]:   4618.16
BandDavidson: Iter:  18  Eband: -0.103250432480810  dEband: -5.849474e-05  t[s]:   4624.32
BandDavidson: Iter:  19  Eband: -0.103298098396850  dEband: -4.766592e-05  t[s]:   4630.35
BandDavidson: Iter:  20  Eband: -0.103336679321904  dEband: -3.858093e-05  t[s]:   4636.45
BandDavidson: Iter:  21  Eband: -0.103369524312307  dEband: -3.284499e-05  t[s]:   4642.47
BandDavidson: Iter:  22  Eband: -0.103398072856461  dEband: -2.854854e-05  t[s]:   4648.64
BandDavidson: Iter:  23  Eband: -0.103424481269766  dEband: -2.640841e-05  t[s]:   4654.71
BandDavidson: Iter:  24  Eband: -0.103449089184994  dEband: -2.460792e-05  t[s]:   4660.63
BandDavidson: Iter:  25  Eband: -0.103469896756712  dEband: -2.080757e-05  t[s]:   4666.42
BandDavidson: Iter:  26  Eband: -0.103487031124017  dEband: -1.713437e-05  t[s]:   4672.08
BandDavidson: Iter:  27  Eband: -0.103501129079413  dEband: -1.409796e-05  t[s]:   4677.87
BandDavidson: Iter:  28  Eband: -0.103513196955414  dEband: -1.206788e-05  t[s]:   4683.43
BandDavidson: Iter:  29  Eband: -0.103523127314484  dEband: -9.930359e-06  t[s]:   4688.79
BandDavidson: Iter:  30  Eband: -0.103531447371226  dEband: -8.320057e-06  t[s]:   4694.12
BandDavidson: Iter:  31  Eband: -0.103539495914426  dEband: -8.048543e-06  t[s]:   4699.18
BandDavidson: Iter:  32  Eband: -0.103549034128249  dEband: -9.538214e-06  t[s]:   4703.95
BandDavidson: Iter:  33  Eband: -0.103558186424123  dEband: -9.152296e-06  t[s]:   4708.46
BandDavidson: Iter:  34  Eband: -0.103565808596279  dEband: -7.622172e-06  t[s]:   4712.69
BandDavidson: Iter:  35  Eband: -0.103572341970522  dEband: -6.533374e-06  t[s]:   4716.92
BandDavidson: Iter:  36  Eband: -0.103577923899104  dEband: -5.581929e-06  t[s]:   4721.07
BandDavidson: Iter:  37  Eband: -0.103582567593664  dEband: -4.643695e-06  t[s]:   4725.20
BandDavidson: Iter:  38  Eband: -0.103586438381186  dEband: -3.870788e-06  t[s]:   4729.22
BandDavidson: Iter:  39  Eband: -0.103589702903554  dEband: -3.264522e-06  t[s]:   4733.34
BandDavidson: Iter:  40  Eband: -0.103592502485511  dEband: -2.799582e-06  t[s]:   4737.42
BandDavidson: Iter:  41  Eband: -0.103594901037860  dEband: -2.398552e-06  t[s]:   4741.32
BandDavidson: Iter:  42  Eband: -0.103596961504116  dEband: -2.060466e-06  t[s]:   4745.22
BandDavidson: Iter:  43  Eband: -0.103598742775770  dEband: -1.781272e-06  t[s]:   4749.08
BandDavidson: Iter:  44  Eband: -0.103600283289349  dEband: -1.540514e-06  t[s]:   4752.80
BandDavidson: Iter:  45  Eband: -0.103601620226000  dEband: -1.336937e-06  t[s]:   4756.58
BandDavidson: Iter:  46  Eband: -0.103602784600896  dEband: -1.164375e-06  t[s]:   4760.39
BandDavidson: Iter:  47  Eband: -0.103603801054564  dEband: -1.016454e-06  t[s]:   4764.18
BandDavidson: Iter:  48  Eband: -0.103604687034282  dEband: -8.859797e-07  t[s]:   4767.91
BandDavidson: Iter:  49  Eband: -0.103605460446494  dEband: -7.734122e-07  t[s]:   4771.56
BandDavidson: Iter:  50  Eband: -0.103606137211741  dEband: -6.767652e-07  t[s]:   4775.06
BandDavidson: Iter:  51  Eband: -0.103606730110369  dEband: -5.928986e-07  t[s]:   4778.61
BandDavidson: Iter:  52  Eband: -0.103607251480597  dEband: -5.213702e-07  t[s]:   4782.14
BandDavidson: Iter:  53  Eband: -0.103607709049425  dEband: -4.575688e-07  t[s]:   4785.61
BandDavidson: Iter:  54  Eband: -0.103608112993849  dEband: -4.039444e-07  t[s]:   4789.07
BandDavidson: Iter:  55  Eband: -0.103608469374965  dEband: -3.563811e-07  t[s]:   4792.53
BandDavidson: Iter:  56  Eband: -0.103608783975146  dEband: -3.146002e-07  t[s]:   4795.95
BandDavidson: Iter:  57  Eband: -0.103609060714986  dEband: -2.767398e-07  t[s]:   4799.34
BandDavidson: Iter:  58  Eband: -0.103609305624460  dEband: -2.449095e-07  t[s]:   4802.70
BandDavidson: Iter:  59  Eband: -0.103609521705002  dEband: -2.160805e-07  t[s]:   4806.04
BandDavidson: Iter:  60  Eband: -0.103609713383699  dEband: -1.916787e-07  t[s]:   4809.47
BandDavidson: Iter:  61  Eband: -0.103609882996106  dEband: -1.696124e-07  t[s]:   4812.70
BandDavidson: Iter:  62  Eband: -0.103610032625333  dEband: -1.496292e-07  t[s]:   4815.95
BandDavidson: Iter:  63  Eband: -0.103610164816708  dEband: -1.321914e-07  t[s]:   4819.16
BandDavidson: Iter:  64  Eband: -0.103610282283034  dEband: -1.174663e-07  t[s]:   4822.41
BandDavidson: Iter:  65  Eband: -0.103610386592119  dEband: -1.043091e-07  t[s]:   4825.59
BandDavidson: Iter:  66  Eband: -0.103610479274005  dEband: -9.268189e-08  t[s]:   4828.71
BandDavidson: Iter:  67  Eband: -0.103610561370791  dEband: -8.209679e-08  t[s]:   4831.71
BandDavidson: Iter:  68  Eband: -0.103610634125420  dEband: -7.275463e-08  t[s]:   4834.70
BandDavidson: Iter:  69  Eband: -0.103610698660359  dEband: -6.453494e-08  t[s]:   4837.71
BandDavidson: Iter:  70  Eband: -0.103610755998779  dEband: -5.733842e-08  t[s]:   4840.66
BandDavidson: Iter:  71  Eband: -0.103610806986668  dEband: -5.098789e-08  t[s]:   4843.54
BandDavidson: Iter:  72  Eband: -0.103610852415729  dEband: -4.542906e-08  t[s]:   4846.37
BandDavidson: Iter:  73  Eband: -0.103610892903120  dEband: -4.048739e-08  t[s]:   4849.34
BandDavidson: Iter:  74  Eband: -0.103610928940971  dEband: -3.603785e-08  t[s]:   4852.26
BandDavidson: Iter:  75  Eband: -0.103610961036503  dEband: -3.209553e-08  t[s]:   4855.12
BandDavidson: Iter:  76  Eband: -0.103610989704498  dEband: -2.866800e-08  t[s]:   4858.03
BandDavidson: Iter:  77  Eband: -0.103611015254221  dEband: -2.554972e-08  t[s]:   4861.01
BandDavidson: Iter:  78  Eband: -0.103611038072860  dEband: -2.281864e-08  t[s]:   4863.90
BandDavidson: Iter:  79  Eband: -0.103611058422572  dEband: -2.034971e-08  t[s]:   4866.86
BandDavidson: Iter:  80  Eband: -0.103611076612169  dEband: -1.818960e-08  t[s]:   4869.74
BandDavidson: Iter:  81  Eband: -0.103611092840216  dEband: -1.622805e-08  t[s]:   4872.65
BandDavidson: Iter:  82  Eband: -0.103611107340055  dEband: -1.449984e-08  t[s]:   4875.57
BandDavidson: Iter:  83  Eband: -0.103611120283863  dEband: -1.294381e-08  t[s]:   4878.48
BandDavidson: Iter:  84  Eband: -0.103611131849697  dEband: -1.156583e-08  t[s]:   4881.36
BandDavidson: Iter:  85  Eband: -0.103611142177202  dEband: -1.032750e-08  t[s]:   4884.25
BandDavidson: Iter:  86  Eband: -0.103611151404882  dEband: -9.227679e-09  t[s]:   4887.08
BandDavidson: Converged (dEband<1.000000e-08)
Setting wave functions to eigenvectors of Hamiltonian
	FillingsUpdate:  mu: -0.058264191  nElectrons: 121.000000  magneticMoment: [ Abs: 0.15345  Tot: +0.15278 ]

Dumping 'Rb-0.313.dosUp' ... done.
Dumping 'Rb-0.313.dosDn' ... done.
End date and time: Sat Apr  2 15:58:26 2022  (Duration: 0-1:38:06.68)
Done!
