Second Layer Distance is 0.322

--------------------------------------------------------------------------
The library attempted to open the following supporting CUDA libraries,
but each of them failed.  CUDA-aware support is disabled.
libcuda.so.1: cannot open shared object file: No such file or directory
libcuda.dylib: cannot open shared object file: No such file or directory
/usr/lib64/libcuda.so.1: cannot open shared object file: No such file or directory
/usr/lib64/libcuda.dylib: cannot open shared object file: No such file or directory
If you are not interested in CUDA-aware support, then run with
--mca opal_warn_on_missing_libcuda 0 to suppress this message.  If you are interested
in CUDA-aware support, then try setting LD_LIBRARY_PATH to the location
of libcuda.so.1 to get passed this issue.
--------------------------------------------------------------------------
--------------------------------------------------------------------------
No OpenFabrics connection schemes reported that they were able to be
used on a specific port.  As such, the openib BTL (OpenFabrics
support) will be disabled for this port.

  Local host:           d-17-3-3
  Local device:         mlx5_1
  Local port:           1
  CPCs attempted:       rdmacm, udcm
--------------------------------------------------------------------------

*************** JDFTx 1.6.0 (git hash 42ebbcc2) ***************

Start date and time: Sat Apr  2 14:20:21 2022
Executable jdftx with command-line: -i Moire.dos.in
Running on hosts (process indices):  d-17-3-3 (0-18)
Divided in process groups (process indices):  0 (0)  1 (1)  2 (2)  3 (3)  4 (4)  5 (5)  6 (6)  7 (7)  8 (8)  9 (9)  10 (10)  11 (11)  12 (12)  13 (13)  14 (14)  15 (15)  16 (16)  17 (17)  18 (18)
Resource initialization completed at t[s]:      0.00
Run totals: 19 processes, 48 threads, 0 GPUs


Input parsed successfully to the following command list (including defaults):

basis kpoint-dependent
coords-type Lattice
core-overlap-check vector
coulomb-interaction Slab 001
davidson-band-ratio 1.1
dump End DOS
dump-name Rb-0.322.$VAR
elec-cutoff 20
elec-eigen-algo Davidson
elec-ex-corr gga-PBE
elec-initial-magnetization 1.000000 no
elec-smearing Fermi 1e-05
electronic-minimize  \
	dirUpdateScheme      FletcherReeves \
	linminMethod         DirUpdateRecommended \
	nIterations          100 \
	history              15 \
	knormThreshold       0 \
	energyDiffThreshold  1e-08 \
	nEnergyDiff          2 \
	alphaTstart          1 \
	alphaTmin            1e-10 \
	updateTestStepSize   yes \
	alphaTreduceFactor   0.1 \
	alphaTincreaseFactor 3 \
	nAlphaAdjustMax      3 \
	wolfeEnergy          0.0001 \
	wolfeGradient        0.9 \
	fdTest               no
exchange-regularization WignerSeitzTruncated
fix-electron-density ../Rb-0.322.$VAR
fluid None
fluid-ex-corr (null) lda-PZ
fluid-gummel-loop 10 1.000000e-05
fluid-minimize  \
	dirUpdateScheme      PolakRibiere \
	linminMethod         DirUpdateRecommended \
	nIterations          100 \
	history              15 \
	knormThreshold       0 \
	energyDiffThreshold  0 \
	nEnergyDiff          2 \
	alphaTstart          1 \
	alphaTmin            1e-10 \
	updateTestStepSize   yes \
	alphaTreduceFactor   0.1 \
	alphaTincreaseFactor 3 \
	nAlphaAdjustMax      3 \
	wolfeEnergy          0.0001 \
	wolfeGradient        0.9 \
	fdTest               no
fluid-solvent H2O 55.338 ScalarEOS \
	epsBulk 78.4 \
	pMol 0.92466 \
	epsInf 1.77 \
	Pvap 1.06736e-10 \
	sigmaBulk 4.62e-05 \
	Rvdw 2.61727 \
	Res 1.42 \
	tauNuc 343133 \
	poleEl 15 7 1
forces-output-coords Positions
ion N   0.952380952380952   0.761904761904762   0.000000000000000 0
ion N   1.428571428571428   1.285714285714286   0.322000000000000 0
ion N   0.380952380952381   0.904761904761905   0.000000000000000 0
ion N   0.714285714285714   1.142857142857143   0.322000000000000 0
ion N   0.523809523809524   0.619047619047619   0.000000000000000 0
ion N   1.000000000000000   1.000000000000000   0.322000000000000 0
ion N   0.666666666666667   0.333333333333333   0.000000000000000 0
ion N   1.285714285714286   0.857142857142857   0.322000000000000 0
ion N   0.809523809523810   0.047619047619048   0.000000000000000 0
ion N   1.571428571428571   0.714285714285714   0.322000000000000 0
ion N   0.095238095238095   0.476190476190476   0.000000000000000 0
ion N   0.238095238095238   0.190476190476190   0.000000000000000 0
ion N   0.857142857142857   0.571428571428571   0.322000000000000 0
ion N   1.142857142857143   0.428571428571429   0.322000000000000 0
ion B   0.571428571428572   0.857142857142857   0.000000000000000 0
ion B   0.952380952380952   1.190476190476190   0.322000000000000 0
ion B   0.714285714285714   0.571428571428571   0.000000000000000 0
ion B   1.238095238095238   1.047619047619047   0.322000000000000 0
ion B   0.857142857142857   0.285714285714286   0.000000000000000 0
ion B   1.523809523809524   0.904761904761905   0.322000000000000 0
ion B   0.142857142857143   0.714285714285714   0.000000000000000 0
ion B   0.285714285714286   0.428571428571429   0.000000000000000 0
ion B   0.809523809523810   0.761904761904762   0.322000000000000 0
ion B   0.428571428571429   0.142857142857143   0.000000000000000 0
ion B   1.095238095238095   0.619047619047619   0.322000000000000 0
ion B   1.380952380952381   0.476190476190476   0.322000000000000 0
ion B   0.000000000000000   0.000000000000000   0.000000000000000 0
ion B   0.666666666666667   0.333333333333333   0.322000000000000 0
ion Rb   0.333333333300000   0.666666666600000   0.161000000000000 0
ion-species SG15/$ID_ONCV_PBE.upf
ion-width 0
ionic-minimize  \
	dirUpdateScheme      L-BFGS \
	linminMethod         DirUpdateRecommended \
	nIterations          0 \
	history              15 \
	knormThreshold       0.0001 \
	energyDiffThreshold  1e-06 \
	nEnergyDiff          2 \
	alphaTstart          1 \
	alphaTmin            1e-10 \
	updateTestStepSize   yes \
	alphaTreduceFactor   0.1 \
	alphaTincreaseFactor 3 \
	nAlphaAdjustMax      3 \
	wolfeEnergy          0.0001 \
	wolfeGradient        0.9 \
	fdTest               no
kpoint   0.000000000000   0.000000000000   0.000000000000  1.00000000000000
kpoint-folding 36 36 1 
latt-move-scale 1 1 1
latt-scale 1 1 1 
lattice  \
	 -11.818700000000000    2.363740000000000    0.000000000000000  \
	   4.094120000000000  -12.282400000000001    0.000000000000000  \
	   0.000000000000000    0.000000000000000   40.000000000000000 
lattice-minimize  \
	dirUpdateScheme      L-BFGS \
	linminMethod         DirUpdateRecommended \
	nIterations          0 \
	history              15 \
	knormThreshold       0 \
	energyDiffThreshold  1e-06 \
	nEnergyDiff          2 \
	alphaTstart          1 \
	alphaTmin            1e-10 \
	updateTestStepSize   yes \
	alphaTreduceFactor   0.1 \
	alphaTincreaseFactor 3 \
	nAlphaAdjustMax      3 \
	wolfeEnergy          0.0001 \
	wolfeGradient        0.9 \
	fdTest               no
lcao-params -1 1e-06 1e-05
pcm-variant GLSSA13
spintype z-spin
subspace-rotation-factor 1 yes
symmetries automatic
symmetry-threshold 0.0001
van-der-waals D3



---------- Setting up symmetries ----------

Found 24 point-group symmetries of the bravais lattice
Found 6 space-group symmetries with basis
Applied RMS atom displacement 1.31765e-10 bohrs to make symmetries exact.

---------- Initializing the Grid ----------
R = 
[     -11.8187      2.36374            0  ]
[      4.09412     -12.2824            0  ]
[            0            0           40  ]
unit cell volume = 5419.38
G =
[  -0.569604   -0.10962          0  ]
[  -0.189867    -0.5481          0  ]
[          0          0    0.15708  ]
Minimum fftbox size, Smin = [  52  52  164  ]
Chosen fftbox size, S = [  54  54  168  ]

---------- Exchange Correlation functional ----------
Initalized PBE GGA exchange.
Initalized PBE GGA correlation.

---------- Setting up pseudopotentials ----------
Width of ionic core gaussian charges (only for fluid interactions / plotting) set to 0

Reading pseudopotential file '/home/gridsan/aligho/DFT/build-Nov24/pseudopotentials/SG15/N_ONCV_PBE.upf':
  'N' pseudopotential, 'PBE' functional
  Generated using ONCVPSP code by D. R. Hamann
  Author: Martin Schlipf and Francois Gygi  Date: 150915.
  5 valence electrons, 2 orbitals, 4 projectors, 1058 radial grid points, with lMax = 1
  Transforming local potential to a uniform radial grid of dG=0.02 with 1514 points.
  Transforming nonlocal projectors to a uniform radial grid of dG=0.02 with 432 points.
    2S    l: 0   occupation:  2.0   eigenvalue: -0.682907
    2P    l: 1   occupation:  3.0   eigenvalue: -0.260548
  Transforming atomic orbitals to a uniform radial grid of dG=0.02 with 432 points.
  Core radius for overlap checks: 1.35 bohrs.
  Reading pulay file /home/gridsan/aligho/DFT/build-Nov24/pseudopotentials/SG15/N_ONCV_PBE.pulay ... using dE_dnG = -2.956256e-02 computed for Ecut = 20.

Reading pseudopotential file '/home/gridsan/aligho/DFT/build-Nov24/pseudopotentials/SG15/B_ONCV_PBE.upf':
  'B' pseudopotential, 'PBE' functional
  Generated using ONCVPSP code by D. R. Hamann
  Author: Martin Schlipf and Francois Gygi  Date: 150915.
  3 valence electrons, 2 orbitals, 4 projectors, 1534 radial grid points, with lMax = 1
  Transforming local potential to a uniform radial grid of dG=0.02 with 1514 points.
  Transforming nonlocal projectors to a uniform radial grid of dG=0.02 with 432 points.
    2S    l: 0   occupation:  2.0   eigenvalue: -0.347027
    2P    l: 1   occupation:  1.0   eigenvalue: -0.132548
  Transforming atomic orbitals to a uniform radial grid of dG=0.02 with 432 points.
  Core radius for overlap checks: 1.60 bohrs.
  Reading pulay file /home/gridsan/aligho/DFT/build-Nov24/pseudopotentials/SG15/B_ONCV_PBE.pulay ... using dE_dnG = -3.748568e-04 computed for Ecut = 20.

Reading pseudopotential file '/home/gridsan/aligho/DFT/build-Nov24/pseudopotentials/SG15/Rb_ONCV_PBE.upf':
  'Rb' pseudopotential, 'PBE' functional
  Generated using ONCVPSP code by D. R. Hamann
  Author: Martin Schlipf and Francois Gygi  Date: 150915.
  9 valence electrons, 3 orbitals, 6 projectors, 2308 radial grid points, with lMax = 2
  Transforming local potential to a uniform radial grid of dG=0.02 with 1514 points.
  Transforming nonlocal projectors to a uniform radial grid of dG=0.02 with 432 points.
    4S    l: 0   occupation:  2.0   eigenvalue: -1.172069
    4P    l: 1   occupation:  6.0   eigenvalue: -0.586674
    5S    l: 0   occupation:  1.0   eigenvalue: -0.082006
  Transforming atomic orbitals to a uniform radial grid of dG=0.02 with 432 points.
  Core radius for overlap checks: 2.60 bohrs.
  Reading pulay file /home/gridsan/aligho/DFT/build-Nov24/pseudopotentials/SG15/Rb_ONCV_PBE.pulay ... using dE_dnG = -1.360715e-05 computed for Ecut = 20.

Initialized 3 species with 29 total atoms.

Folded 1 k-points by 36x36x1 to 1296 k-points.

---------- Setting up k-points, bands, fillings ----------
Adding inversion symmetry to k-mesh for non-inversion-symmetric unit cell.
Reduced to 127 k-points under symmetry. 
Computing the number of bands and number of electrons
Calculating initial fillings.
nElectrons: 121.000000   nBands: 117   nStates: 254

----- Setting up reduced wavefunction bases (one per k-point) -----
average nbasis = 23152.266 , ideal nbasis = 23152.016

----- Initializing Supercell corresponding to k-point mesh -----
Lattice vector linear combinations in supercell:
[  36   0   0  ]
[   0  36   0  ]
[   0   0   1  ]
Supercell lattice vectors:
[  -425.473  85.0946  0  ]
[  147.388  -442.166  0  ]
[  0  0  40  ]

---------- Setting up coulomb interaction ----------
Initialized slab truncation along lattice direction 001

Initializing DFT-D3 calculator:
	Parameters set for gga-PBE functional
	s6:  1.000  s_r6:  1.217
	s8:  0.722  s_r8:  1.000
	Per-atom parameters loaded for:
	 N:  sqrtQ[a0]:  2.712  Rcov[a0]:  1.342  CN: [ 0.00 0.99 2.01 2.99 ]
	 B:  sqrtQ[a0]:  3.644  Rcov[a0]:  1.455  CN: [ 0.00 0.97 1.94 2.91 4.59 ]
	Rb:  sqrtQ[a0]:  9.555  Rcov[a0]:  3.572  CN: [ 0.00 0.97 ]

---------- Setting up 2D ewald sum ----------
Optimum gaussian width for ewald sums = 6.943804 bohr.
Real space sums over 289 unit cells with max indices [  8  8  0  ]
Reciprocal space sums over 81 terms with max indices [  4  4  0  ]

Computing DFT-D3 correction:
# coordination-number N 3.170 3.170 3.404 3.170 3.404 3.154 3.154 3.404 3.170 3.404 3.404 3.170 3.170 3.404
# coordination-number B 3.681 3.384 3.384 3.384 3.384 3.681 3.681 3.681 3.384 3.384 3.681 3.681 3.362 3.362
# coordination-number Rb 4.338
# diagonal-C6 N 15.60 15.60 15.59 15.60 15.59 15.61 15.61 15.59 15.60 15.59 15.59 15.60 15.60 15.59
# diagonal-C6 B 30.44 31.43 31.43 31.43 31.43 30.44 30.44 30.44 31.43 31.43 30.44 30.45 31.44 31.44
# diagonal-C6 Rb 476.26
EvdW_6 =   -0.031548
EvdW_8 =   -0.034230

---------- Allocating electronic variables ----------
Reading n_up from file '../Rb-0.322.n_up' ... done
Reading n_dn from file '../Rb-0.322.n_dn' ... done
Initializing wave functions:  linear combination of atomic orbitals
[d-17-3-3:44598] 18 more processes have sent help message help-mpi-common-cuda.txt / dlopen failed
[d-17-3-3:44598] Set MCA parameter "orte_base_help_aggregate" to 0 to see all help / error messages
[d-17-3-3:44598] 18 more processes have sent help message help-mpi-btl-openib-cpc-base.txt / no cpcs for port


---- Citations for features of the code used in this run ----

   Software package:
      R. Sundararaman, K. Letchworth-Weaver, K.A. Schwarz, D. Gunceler, Y. Ozhabes and T.A. Arias, 'JDFTx: software for joint density-functional theory', SoftwareX 6, 278 (2017)

   gga-PBE exchange-correlation functional:
      J.P. Perdew, K. Burke and M. Ernzerhof, Phys. Rev. Lett. 77, 3865 (1996)

   Pseudopotentials:
      M Schlipf and F Gygi, Comput. Phys. Commun. 196, 36 (2015)

   Truncated Coulomb potentials:
      R. Sundararaman and T.A. Arias, Phys. Rev. B 87, 165122 (2013)

   DFT-D3 dispersion correction:
      S. Grimme, J. Antony, S. Ehrlich and H. Krieg, J. Chem. Phys. 132, 154104 (2010)

   Total energy minimization with Auxiliary Hamiltonian:
      C. Freysoldt, S. Boeck, and J. Neugebauer, Phys. Rev. B 79, 241103(R) (2009)

   Linear-tetrahedron sampling for density of states:
      G. Lehmann and M. Taut, Phys. status solidi (b) 54, 469 (1972)

This list may not be complete. Please suggest additional citations or
report any other bugs at https://github.com/shankar1729/jdftx/issues

Initialization completed successfully at t[s]:     92.13


----------- Band structure minimization -------------
Minimization will be done independently for each quantum number.

---- Minimization of quantum number:     0  [ +0.0000000 +0.0000000 +0.0000000 ]  0.000771605  spin +1 ----
BandDavidson: Iter:   0  Eband: -0.007623743992798
BandDavidson: Iter:   1  Eband: -0.013258177287551  dEband: -5.634433e-03  t[s]:    102.12
BandDavidson: Iter:   2  Eband: -0.015053855549308  dEband: -1.795678e-03  t[s]:    108.17
BandDavidson: Iter:   3  Eband: -0.015894654765142  dEband: -8.407992e-04  t[s]:    114.17
BandDavidson: Iter:   4  Eband: -0.016462906398862  dEband: -5.682516e-04  t[s]:    120.07
BandDavidson: Iter:   5  Eband: -0.016687318027845  dEband: -2.244116e-04  t[s]:    126.14
BandDavidson: Iter:   6  Eband: -0.016823898715412  dEband: -1.365807e-04  t[s]:    132.15
BandDavidson: Iter:   7  Eband: -0.016888165832130  dEband: -6.426712e-05  t[s]:    138.08
BandDavidson: Iter:   8  Eband: -0.016929371669875  dEband: -4.120584e-05  t[s]:    144.06
BandDavidson: Iter:   9  Eband: -0.016956073238932  dEband: -2.670157e-05  t[s]:    150.16
BandDavidson: Iter:  10  Eband: -0.016974254856919  dEband: -1.818162e-05  t[s]:    156.23
BandDavidson: Iter:  11  Eband: -0.016987187948348  dEband: -1.293309e-05  t[s]:    162.17
BandDavidson: Iter:  12  Eband: -0.016996649610824  dEband: -9.461662e-06  t[s]:    168.14
BandDavidson: Iter:  13  Eband: -0.017003703985112  dEband: -7.054374e-06  t[s]:    174.18
BandDavidson: Iter:  14  Eband: -0.017009079184608  dEband: -5.375199e-06  t[s]:    180.23
BandDavidson: Iter:  15  Eband: -0.017013255038155  dEband: -4.175854e-06  t[s]:    186.26
BandDavidson: Iter:  16  Eband: -0.017016590761575  dEband: -3.335723e-06  t[s]:    192.31
BandDavidson: Iter:  17  Eband: -0.017019331203603  dEband: -2.740442e-06  t[s]:    198.31
BandDavidson: Iter:  18  Eband: -0.017021677236888  dEband: -2.346033e-06  t[s]:    204.28
BandDavidson: Iter:  19  Eband: -0.017023781718706  dEband: -2.104482e-06  t[s]:    210.26
BandDavidson: Iter:  20  Eband: -0.017025794255094  dEband: -2.012536e-06  t[s]:    216.25
BandDavidson: Iter:  21  Eband: -0.017029034683092  dEband: -3.240428e-06  t[s]:    222.26
BandDavidson: Iter:  22  Eband: -0.017033056723540  dEband: -4.022040e-06  t[s]:    228.10
BandDavidson: Iter:  23  Eband: -0.017036599606696  dEband: -3.542883e-06  t[s]:    233.78
BandDavidson: Iter:  24  Eband: -0.017039737645338  dEband: -3.138039e-06  t[s]:    239.38
BandDavidson: Iter:  25  Eband: -0.017042570485217  dEband: -2.832840e-06  t[s]:    245.09
BandDavidson: Iter:  26  Eband: -0.017045112586362  dEband: -2.542101e-06  t[s]:    250.73
BandDavidson: Iter:  27  Eband: -0.017047344708802  dEband: -2.232122e-06  t[s]:    256.21
BandDavidson: Iter:  28  Eband: -0.017049256243049  dEband: -1.911534e-06  t[s]:    261.76
BandDavidson: Iter:  29  Eband: -0.017050872160258  dEband: -1.615917e-06  t[s]:    267.04
BandDavidson: Iter:  30  Eband: -0.017052217766385  dEband: -1.345606e-06  t[s]:    272.03
BandDavidson: Iter:  31  Eband: -0.017053369348324  dEband: -1.151582e-06  t[s]:    276.75
BandDavidson: Iter:  32  Eband: -0.017054343309877  dEband: -9.739616e-07  t[s]:    281.05
BandDavidson: Iter:  33  Eband: -0.017055133342064  dEband: -7.900322e-07  t[s]:    285.12
BandDavidson: Iter:  34  Eband: -0.017055782426628  dEband: -6.490846e-07  t[s]:    289.23
BandDavidson: Iter:  35  Eband: -0.017056322364983  dEband: -5.399384e-07  t[s]:    293.41
BandDavidson: Iter:  36  Eband: -0.017056770399819  dEband: -4.480348e-07  t[s]:    297.34
BandDavidson: Iter:  37  Eband: -0.017057141128777  dEband: -3.707290e-07  t[s]:    301.41
BandDavidson: Iter:  38  Eband: -0.017057446683291  dEband: -3.055545e-07  t[s]:    305.49
BandDavidson: Iter:  39  Eband: -0.017057696588450  dEband: -2.499052e-07  t[s]:    309.41
BandDavidson: Iter:  40  Eband: -0.017057898598225  dEband: -2.020098e-07  t[s]:    313.24
BandDavidson: Iter:  41  Eband: -0.017058062521331  dEband: -1.639231e-07  t[s]:    316.96
BandDavidson: Iter:  42  Eband: -0.017058197537170  dEband: -1.350158e-07  t[s]:    320.79
BandDavidson: Iter:  43  Eband: -0.017058309162317  dEband: -1.116251e-07  t[s]:    324.50
BandDavidson: Iter:  44  Eband: -0.017058401816071  dEband: -9.265375e-08  t[s]:    328.19
BandDavidson: Iter:  45  Eband: -0.017058478530957  dEband: -7.671489e-08  t[s]:    331.88
BandDavidson: Iter:  46  Eband: -0.017058542390305  dEband: -6.385935e-08  t[s]:    335.52
BandDavidson: Iter:  47  Eband: -0.017058595618500  dEband: -5.322819e-08  t[s]:    339.27
BandDavidson: Iter:  48  Eband: -0.017058640183241  dEband: -4.456474e-08  t[s]:    342.85
BandDavidson: Iter:  49  Eband: -0.017058677370208  dEband: -3.718697e-08  t[s]:    346.49
BandDavidson: Iter:  50  Eband: -0.017058708325358  dEband: -3.095515e-08  t[s]:    349.99
BandDavidson: Iter:  51  Eband: -0.017058733963388  dEband: -2.563803e-08  t[s]:    353.37
BandDavidson: Iter:  52  Eband: -0.017058755367858  dEband: -2.140447e-08  t[s]:    356.83
BandDavidson: Iter:  53  Eband: -0.017058773259106  dEband: -1.789125e-08  t[s]:    360.12
BandDavidson: Iter:  54  Eband: -0.017058788272837  dEband: -1.501373e-08  t[s]:    363.45
BandDavidson: Iter:  55  Eband: -0.017058800865326  dEband: -1.259249e-08  t[s]:    366.79
BandDavidson: Iter:  56  Eband: -0.017058811447823  dEband: -1.058250e-08  t[s]:    370.18
BandDavidson: Iter:  57  Eband: -0.017058820340223  dEband: -8.892400e-09  t[s]:    373.44
BandDavidson: Converged (dEband<1.000000e-08)

---- Minimization of quantum number:     1  [ +0.0000000 +0.0277778 +0.0000000 ]  0.004629630  spin +1 ----
BandDavidson: Iter:   0  Eband: -0.045760606819599
BandDavidson: Iter:   1  Eband: -0.079618664333249  dEband: -3.385806e-02  t[s]:    382.88
BandDavidson: Iter:   2  Eband: -0.090463244437972  dEband: -1.084458e-02  t[s]:    388.85
BandDavidson: Iter:   3  Eband: -0.095285206277810  dEband: -4.821962e-03  t[s]:    394.85
BandDavidson: Iter:   4  Eband: -0.098736155581959  dEband: -3.450949e-03  t[s]:    400.82
BandDavidson: Iter:   5  Eband: -0.100208870707790  dEband: -1.472715e-03  t[s]:    406.75
BandDavidson: Iter:   6  Eband: -0.100897494507495  dEband: -6.886238e-04  t[s]:    412.70
BandDavidson: Iter:   7  Eband: -0.101285748678625  dEband: -3.882542e-04  t[s]:    418.50
BandDavidson: Iter:   8  Eband: -0.101529090889915  dEband: -2.433422e-04  t[s]:    424.44
BandDavidson: Iter:   9  Eband: -0.101693232511537  dEband: -1.641416e-04  t[s]:    430.32
BandDavidson: Iter:  10  Eband: -0.101807322453132  dEband: -1.140899e-04  t[s]:    436.27
BandDavidson: Iter:  11  Eband: -0.101889454201664  dEband: -8.213175e-05  t[s]:    442.34
BandDavidson: Iter:  12  Eband: -0.101949722952436  dEband: -6.026875e-05  t[s]:    448.41
BandDavidson: Iter:  13  Eband: -0.101994693003223  dEband: -4.497005e-05  t[s]:    454.35
BandDavidson: Iter:  14  Eband: -0.102029120668248  dEband: -3.442767e-05  t[s]:    460.25
BandDavidson: Iter:  15  Eband: -0.102056071427102  dEband: -2.695076e-05  t[s]:    466.27
BandDavidson: Iter:  16  Eband: -0.102077679452011  dEband: -2.160802e-05  t[s]:    472.24
BandDavidson: Iter:  17  Eband: -0.102095594556670  dEband: -1.791510e-05  t[s]:    478.36
BandDavidson: Iter:  18  Eband: -0.102111136732593  dEband: -1.554218e-05  t[s]:    484.44
BandDavidson: Iter:  19  Eband: -0.102125443760720  dEband: -1.430703e-05  t[s]:    490.38
BandDavidson: Iter:  20  Eband: -0.102139829475733  dEband: -1.438572e-05  t[s]:    496.41
BandDavidson: Iter:  21  Eband: -0.102159498894145  dEband: -1.966942e-05  t[s]:    502.36
BandDavidson: Iter:  22  Eband: -0.102182343978043  dEband: -2.284508e-05  t[s]:    508.24
BandDavidson: Iter:  23  Eband: -0.102204166503405  dEband: -2.182253e-05  t[s]:    513.98
BandDavidson: Iter:  24  Eband: -0.102225635933451  dEband: -2.146943e-05  t[s]:    519.67
BandDavidson: Iter:  25  Eband: -0.102246196095149  dEband: -2.056016e-05  t[s]:    525.29
BandDavidson: Iter:  26  Eband: -0.102264649344970  dEband: -1.845325e-05  t[s]:    530.97
BandDavidson: Iter:  27  Eband: -0.102280698289578  dEband: -1.604894e-05  t[s]:    536.62
BandDavidson: Iter:  28  Eband: -0.102294643117094  dEband: -1.394483e-05  t[s]:    542.33
BandDavidson: Iter:  29  Eband: -0.102306595758661  dEband: -1.195264e-05  t[s]:    547.63
BandDavidson: Iter:  30  Eband: -0.102316807997117  dEband: -1.021224e-05  t[s]:    552.69
BandDavidson: Iter:  31  Eband: -0.102325521244522  dEband: -8.713247e-06  t[s]:    557.50
BandDavidson: Iter:  32  Eband: -0.102332809026403  dEband: -7.287782e-06  t[s]:    561.83
BandDavidson: Iter:  33  Eband: -0.102338895118012  dEband: -6.086092e-06  t[s]:    566.01
BandDavidson: Iter:  34  Eband: -0.102344045699462  dEband: -5.150581e-06  t[s]:    570.16
BandDavidson: Iter:  35  Eband: -0.102348450458707  dEband: -4.404759e-06  t[s]:    574.42
BandDavidson: Iter:  36  Eband: -0.102352199664726  dEband: -3.749206e-06  t[s]:    578.56
BandDavidson: Iter:  37  Eband: -0.102355404179337  dEband: -3.204515e-06  t[s]:    582.78
BandDavidson: Iter:  38  Eband: -0.102358130224921  dEband: -2.726046e-06  t[s]:    586.95
BandDavidson: Iter:  39  Eband: -0.102360437972704  dEband: -2.307748e-06  t[s]:    591.05
BandDavidson: Iter:  40  Eband: -0.102362384654170  dEband: -1.946681e-06  t[s]:    594.82
BandDavidson: Iter:  41  Eband: -0.102364029919973  dEband: -1.645266e-06  t[s]:    598.56
BandDavidson: Iter:  42  Eband: -0.102365436549568  dEband: -1.406630e-06  t[s]:    602.20
BandDavidson: Iter:  43  Eband: -0.102366648235295  dEband: -1.211686e-06  t[s]:    605.97
BandDavidson: Iter:  44  Eband: -0.102367691923958  dEband: -1.043689e-06  t[s]:    609.75
BandDavidson: Iter:  45  Eband: -0.102368590513134  dEband: -8.985892e-07  t[s]:    613.45
BandDavidson: Iter:  46  Eband: -0.102369359063828  dEband: -7.685507e-07  t[s]:    617.22
BandDavidson: Iter:  47  Eband: -0.102370015298026  dEband: -6.562342e-07  t[s]:    620.87
BandDavidson: Iter:  48  Eband: -0.102370572385202  dEband: -5.570872e-07  t[s]:    624.60
BandDavidson: Iter:  49  Eband: -0.102371045046945  dEband: -4.726617e-07  t[s]:    628.42
BandDavidson: Iter:  50  Eband: -0.102371445058680  dEband: -4.000117e-07  t[s]:    632.08
BandDavidson: Iter:  51  Eband: -0.102371782389435  dEband: -3.373308e-07  t[s]:    635.75
BandDavidson: Iter:  52  Eband: -0.102372066214955  dEband: -2.838255e-07  t[s]:    639.26
BandDavidson: Iter:  53  Eband: -0.102372304980340  dEband: -2.387654e-07  t[s]:    642.78
BandDavidson: Iter:  54  Eband: -0.102372506042252  dEband: -2.010619e-07  t[s]:    646.33
BandDavidson: Iter:  55  Eband: -0.102372676026083  dEband: -1.699838e-07  t[s]:    649.83
BandDavidson: Iter:  56  Eband: -0.102372819247952  dEband: -1.432219e-07  t[s]:    653.20
BandDavidson: Iter:  57  Eband: -0.102372939937379  dEband: -1.206894e-07  t[s]:    656.56
BandDavidson: Iter:  58  Eband: -0.102373041583244  dEband: -1.016459e-07  t[s]:    659.75
BandDavidson: Iter:  59  Eband: -0.102373127226580  dEband: -8.564334e-08  t[s]:    662.92
BandDavidson: Iter:  60  Eband: -0.102373199736866  dEband: -7.251029e-08  t[s]:    666.08
BandDavidson: Iter:  61  Eband: -0.102373261297008  dEband: -6.156014e-08  t[s]:    669.14
BandDavidson: Iter:  62  Eband: -0.102373313622672  dEband: -5.232566e-08  t[s]:    672.23
BandDavidson: Iter:  63  Eband: -0.102373357830938  dEband: -4.420827e-08  t[s]:    675.30
BandDavidson: Iter:  64  Eband: -0.102373395462547  dEband: -3.763161e-08  t[s]:    678.29
BandDavidson: Iter:  65  Eband: -0.102373427522581  dEband: -3.206003e-08  t[s]:    681.35
BandDavidson: Iter:  66  Eband: -0.102373454768213  dEband: -2.724563e-08  t[s]:    684.33
BandDavidson: Iter:  67  Eband: -0.102373477850862  dEband: -2.308265e-08  t[s]:    687.33
BandDavidson: Iter:  68  Eband: -0.102373497486554  dEband: -1.963569e-08  t[s]:    690.20
BandDavidson: Iter:  69  Eband: -0.102373514226038  dEband: -1.673948e-08  t[s]:    693.07
BandDavidson: Iter:  70  Eband: -0.102373528479122  dEband: -1.425308e-08  t[s]:    695.95
BandDavidson: Iter:  71  Eband: -0.102373540636214  dEband: -1.215709e-08  t[s]:    698.73
BandDavidson: Iter:  72  Eband: -0.102373550997581  dEband: -1.036137e-08  t[s]:    701.51
BandDavidson: Iter:  73  Eband: -0.102373559842807  dEband: -8.845226e-09  t[s]:    704.31
BandDavidson: Converged (dEband<1.000000e-08)

---- Minimization of quantum number:     2  [ +0.0000000 +0.0555556 +0.0000000 ]  0.004629630  spin +1 ----
BandDavidson: Iter:   0  Eband: -0.045710948376094
BandDavidson: Iter:   1  Eband: -0.079627080504540  dEband: -3.391613e-02  t[s]:    713.74
BandDavidson: Iter:   2  Eband: -0.090461805403412  dEband: -1.083472e-02  t[s]:    719.67
BandDavidson: Iter:   3  Eband: -0.095228437716370  dEband: -4.766632e-03  t[s]:    725.70
BandDavidson: Iter:   4  Eband: -0.098722004061546  dEband: -3.493566e-03  t[s]:    731.74
BandDavidson: Iter:   5  Eband: -0.100064949208747  dEband: -1.342945e-03  t[s]:    737.81
BandDavidson: Iter:   6  Eband: -0.100676604368908  dEband: -6.116552e-04  t[s]:    743.73
BandDavidson: Iter:   7  Eband: -0.101175694626284  dEband: -4.990903e-04  t[s]:    749.69
BandDavidson: Iter:   8  Eband: -0.101526775778234  dEband: -3.510812e-04  t[s]:    755.71
BandDavidson: Iter:   9  Eband: -0.101713124327394  dEband: -1.863485e-04  t[s]:    761.72
BandDavidson: Iter:  10  Eband: -0.101816737203385  dEband: -1.036129e-04  t[s]:    767.62
BandDavidson: Iter:  11  Eband: -0.101887222272807  dEband: -7.048507e-05  t[s]:    773.41
BandDavidson: Iter:  12  Eband: -0.101938312810732  dEband: -5.109054e-05  t[s]:    779.36
BandDavidson: Iter:  13  Eband: -0.101976888245487  dEband: -3.857543e-05  t[s]:    785.30
BandDavidson: Iter:  14  Eband: -0.102006604823539  dEband: -2.971658e-05  t[s]:    791.22
BandDavidson: Iter:  15  Eband: -0.102030315140752  dEband: -2.371032e-05  t[s]:    797.36
BandDavidson: Iter:  16  Eband: -0.102050191042739  dEband: -1.987590e-05  t[s]:    803.37
BandDavidson: Iter:  17  Eband: -0.102067880718867  dEband: -1.768968e-05  t[s]:    809.33
BandDavidson: Iter:  18  Eband: -0.102085120380252  dEband: -1.723966e-05  t[s]:    815.28
BandDavidson: Iter:  19  Eband: -0.102103901008470  dEband: -1.878063e-05  t[s]:    821.26
BandDavidson: Iter:  20  Eband: -0.102126276850513  dEband: -2.237584e-05  t[s]:    827.11
BandDavidson: Iter:  21  Eband: -0.102153002662239  dEband: -2.672581e-05  t[s]:    833.07
BandDavidson: Iter:  22  Eband: -0.102182231561736  dEband: -2.922890e-05  t[s]:    838.72
BandDavidson: Iter:  23  Eband: -0.102210864369706  dEband: -2.863281e-05  t[s]:    844.51
BandDavidson: Iter:  24  Eband: -0.102238184049837  dEband: -2.731968e-05  t[s]:    850.25
BandDavidson: Iter:  25  Eband: -0.102263789277693  dEband: -2.560523e-05  t[s]:    855.95
BandDavidson: Iter:  26  Eband: -0.102286910823180  dEband: -2.312155e-05  t[s]:    861.69
BandDavidson: Iter:  27  Eband: -0.102307280940432  dEband: -2.037012e-05  t[s]:    867.23
BandDavidson: Iter:  28  Eband: -0.102324793288067  dEband: -1.751235e-05  t[s]:    872.78
BandDavidson: Iter:  29  Eband: -0.102339599930979  dEband: -1.480664e-05  t[s]:    878.05
BandDavidson: Iter:  30  Eband: -0.102352012939393  dEband: -1.241301e-05  t[s]:    883.12
BandDavidson: Iter:  31  Eband: -0.102362788325789  dEband: -1.077539e-05  t[s]:    887.98
BandDavidson: Iter:  32  Eband: -0.102372245906409  dEband: -9.457581e-06  t[s]:    892.34
BandDavidson: Iter:  33  Eband: -0.102380311556430  dEband: -8.065650e-06  t[s]:    896.42
BandDavidson: Iter:  34  Eband: -0.102387082937992  dEband: -6.771382e-06  t[s]:    900.60
BandDavidson: Iter:  35  Eband: -0.102392806954593  dEband: -5.724017e-06  t[s]:    904.75
BandDavidson: Iter:  36  Eband: -0.102397664384809  dEband: -4.857430e-06  t[s]:    908.84
BandDavidson: Iter:  37  Eband: -0.102401784576777  dEband: -4.120192e-06  t[s]:    912.91
BandDavidson: Iter:  38  Eband: -0.102405259413127  dEband: -3.474836e-06  t[s]:    916.94
BandDavidson: Iter:  39  Eband: -0.102408179491109  dEband: -2.920078e-06  t[s]:    920.89
BandDavidson: Iter:  40  Eband: -0.102410611638157  dEband: -2.432147e-06  t[s]:    924.80
BandDavidson: Iter:  41  Eband: -0.102412637977824  dEband: -2.026340e-06  t[s]:    928.55
BandDavidson: Iter:  42  Eband: -0.102414334309321  dEband: -1.696331e-06  t[s]:    932.29
BandDavidson: Iter:  43  Eband: -0.102415756397598  dEband: -1.422088e-06  t[s]:    936.12
BandDavidson: Iter:  44  Eband: -0.102416955630863  dEband: -1.199233e-06  t[s]:    939.87
BandDavidson: Iter:  45  Eband: -0.102417970595198  dEband: -1.014964e-06  t[s]:    943.52
BandDavidson: Iter:  46  Eband: -0.102418835641421  dEband: -8.650462e-07  t[s]:    947.33
BandDavidson: Iter:  47  Eband: -0.102419567036524  dEband: -7.313951e-07  t[s]:    951.00
BandDavidson: Iter:  48  Eband: -0.102420186394301  dEband: -6.193578e-07  t[s]:    954.66
BandDavidson: Iter:  49  Eband: -0.102420710526285  dEband: -5.241320e-07  t[s]:    958.28
BandDavidson: Iter:  50  Eband: -0.102421154594546  dEband: -4.440683e-07  t[s]:    961.93
BandDavidson: Iter:  51  Eband: -0.102421531975839  dEband: -3.773813e-07  t[s]:    965.56
BandDavidson: Iter:  52  Eband: -0.102421854526736  dEband: -3.225509e-07  t[s]:    969.20
BandDavidson: Iter:  53  Eband: -0.102422128967018  dEband: -2.744403e-07  t[s]:    972.81
BandDavidson: Iter:  54  Eband: -0.102422364533006  dEband: -2.355660e-07  t[s]:    976.35
BandDavidson: Iter:  55  Eband: -0.102422564750360  dEband: -2.002174e-07  t[s]:    979.79
BandDavidson: Iter:  56  Eband: -0.102422736203254  dEband: -1.714529e-07  t[s]:    983.13
BandDavidson: Iter:  57  Eband: -0.102422882113592  dEband: -1.459103e-07  t[s]:    986.41
BandDavidson: Iter:  58  Eband: -0.102423007787242  dEband: -1.256737e-07  t[s]:    989.67
BandDavidson: Iter:  59  Eband: -0.102423115161170  dEband: -1.073739e-07  t[s]:    992.82
BandDavidson: Iter:  60  Eband: -0.102423207263387  dEband: -9.210222e-08  t[s]:    995.92
BandDavidson: Iter:  61  Eband: -0.102423285990285  dEband: -7.872690e-08  t[s]:    999.07
BandDavidson: Iter:  62  Eband: -0.102423353728033  dEband: -6.773775e-08  t[s]:   1002.20
BandDavidson: Iter:  63  Eband: -0.102423411641966  dEband: -5.791393e-08  t[s]:   1005.28
BandDavidson: Iter:  64  Eband: -0.102423461225303  dEband: -4.958334e-08  t[s]:   1008.33
BandDavidson: Iter:  65  Eband: -0.102423503524029  dEband: -4.229873e-08  t[s]:   1011.37
BandDavidson: Iter:  66  Eband: -0.102423539655280  dEband: -3.613125e-08  t[s]:   1014.43
BandDavidson: Iter:  67  Eband: -0.102423570570344  dEband: -3.091506e-08  t[s]:   1017.31
BandDavidson: Iter:  68  Eband: -0.102423597031352  dEband: -2.646101e-08  t[s]:   1020.23
BandDavidson: Iter:  69  Eband: -0.102423619576699  dEband: -2.254535e-08  t[s]:   1023.04
BandDavidson: Iter:  70  Eband: -0.102423638758341  dEband: -1.918164e-08  t[s]:   1025.81
BandDavidson: Iter:  71  Eband: -0.102423655243021  dEband: -1.648468e-08  t[s]:   1028.52
BandDavidson: Iter:  72  Eband: -0.102423669381654  dEband: -1.413863e-08  t[s]:   1031.23
BandDavidson: Iter:  73  Eband: -0.102423681574243  dEband: -1.219259e-08  t[s]:   1033.96
BandDavidson: Iter:  74  Eband: -0.102423692070636  dEband: -1.049639e-08  t[s]:   1036.78
BandDavidson: Iter:  75  Eband: -0.102423701100946  dEband: -9.030310e-09  t[s]:   1039.36
BandDavidson: Converged (dEband<1.000000e-08)

---- Minimization of quantum number:     3  [ +0.0000000 +0.0833333 +0.0000000 ]  0.004629630  spin +1 ----
BandDavidson: Iter:   0  Eband: -0.045675877664704
BandDavidson: Iter:   1  Eband: -0.079672777012114  dEband: -3.399690e-02  t[s]:   1048.75
BandDavidson: Iter:   2  Eband: -0.090583124044104  dEband: -1.091035e-02  t[s]:   1054.65
BandDavidson: Iter:   3  Eband: -0.095278615412299  dEband: -4.695491e-03  t[s]:   1060.52
BandDavidson: Iter:   4  Eband: -0.098679641473131  dEband: -3.401026e-03  t[s]:   1066.49
BandDavidson: Iter:   5  Eband: -0.100178614599172  dEband: -1.498973e-03  t[s]:   1072.39
BandDavidson: Iter:   6  Eband: -0.100850018920245  dEband: -6.714043e-04  t[s]:   1078.39
BandDavidson: Iter:   7  Eband: -0.101230541764822  dEband: -3.805228e-04  t[s]:   1084.35
BandDavidson: Iter:   8  Eband: -0.101460592020675  dEband: -2.300503e-04  t[s]:   1090.30
BandDavidson: Iter:   9  Eband: -0.101611367230281  dEband: -1.507752e-04  t[s]:   1096.30
BandDavidson: Iter:  10  Eband: -0.101715936637005  dEband: -1.045694e-04  t[s]:   1102.23
BandDavidson: Iter:  11  Eband: -0.101792209552950  dEband: -7.627292e-05  t[s]:   1108.20
BandDavidson: Iter:  12  Eband: -0.101849610143046  dEband: -5.740059e-05  t[s]:   1114.03
BandDavidson: Iter:  13  Eband: -0.101894639672692  dEband: -4.502953e-05  t[s]:   1119.93
BandDavidson: Iter:  14  Eband: -0.101932589303423  dEband: -3.794963e-05  t[s]:   1125.97
BandDavidson: Iter:  15  Eband: -0.101971234191801  dEband: -3.864489e-05  t[s]:   1132.00
BandDavidson: Iter:  16  Eband: -0.102008455867013  dEband: -3.722168e-05  t[s]:   1137.97
BandDavidson: Iter:  17  Eband: -0.102043215972332  dEband: -3.476011e-05  t[s]:   1143.77
BandDavidson: Iter:  18  Eband: -0.102077033522269  dEband: -3.381755e-05  t[s]:   1149.63
BandDavidson: Iter:  19  Eband: -0.102114534716373  dEband: -3.750119e-05  t[s]:   1155.53
BandDavidson: Iter:  20  Eband: -0.102151898033670  dEband: -3.736332e-05  t[s]:   1161.50
BandDavidson: Iter:  21  Eband: -0.102187995402356  dEband: -3.609737e-05  t[s]:   1167.51
BandDavidson: Iter:  22  Eband: -0.102223246318678  dEband: -3.525092e-05  t[s]:   1173.33
BandDavidson: Iter:  23  Eband: -0.102257166015844  dEband: -3.391970e-05  t[s]:   1179.08
BandDavidson: Iter:  24  Eband: -0.102288103662918  dEband: -3.093765e-05  t[s]:   1184.73
BandDavidson: Iter:  25  Eband: -0.102315537492507  dEband: -2.743383e-05  t[s]:   1190.46
BandDavidson: Iter:  26  Eband: -0.102339539250194  dEband: -2.400176e-05  t[s]:   1196.10
BandDavidson: Iter:  27  Eband: -0.102360219362610  dEband: -2.068011e-05  t[s]:   1201.78
BandDavidson: Iter:  28  Eband: -0.102378986779344  dEband: -1.876742e-05  t[s]:   1207.39
BandDavidson: Iter:  29  Eband: -0.102396118814833  dEband: -1.713204e-05  t[s]:   1212.76
BandDavidson: Iter:  30  Eband: -0.102410814323251  dEband: -1.469551e-05  t[s]:   1217.98
BandDavidson: Iter:  31  Eband: -0.102423029635851  dEband: -1.221531e-05  t[s]:   1222.65
BandDavidson: Iter:  32  Eband: -0.102433064299025  dEband: -1.003466e-05  t[s]:   1227.03
BandDavidson: Iter:  33  Eband: -0.102441326402417  dEband: -8.262103e-06  t[s]:   1231.18
BandDavidson: Iter:  34  Eband: -0.102448198432731  dEband: -6.872030e-06  t[s]:   1235.32
BandDavidson: Iter:  35  Eband: -0.102453983189232  dEband: -5.784757e-06  t[s]:   1239.45
BandDavidson: Iter:  36  Eband: -0.102458875496280  dEband: -4.892307e-06  t[s]:   1243.66
BandDavidson: Iter:  37  Eband: -0.102462991634241  dEband: -4.116138e-06  t[s]:   1247.78
BandDavidson: Iter:  38  Eband: -0.102466450673486  dEband: -3.459039e-06  t[s]:   1251.81
BandDavidson: Iter:  39  Eband: -0.102469364280511  dEband: -2.913607e-06  t[s]:   1255.77
BandDavidson: Iter:  40  Eband: -0.102471830454937  dEband: -2.466174e-06  t[s]:   1259.63
BandDavidson: Iter:  41  Eband: -0.102473917736833  dEband: -2.087282e-06  t[s]:   1263.41
BandDavidson: Iter:  42  Eband: -0.102475689122495  dEband: -1.771386e-06  t[s]:   1267.16
BandDavidson: Iter:  43  Eband: -0.102477193230747  dEband: -1.504108e-06  t[s]:   1270.87
BandDavidson: Iter:  44  Eband: -0.102478476090142  dEband: -1.282859e-06  t[s]:   1274.68
BandDavidson: Iter:  45  Eband: -0.102479574765074  dEband: -1.098675e-06  t[s]:   1278.50
BandDavidson: Iter:  46  Eband: -0.102480517548491  dEband: -9.427834e-07  t[s]:   1282.27
BandDavidson: Iter:  47  Eband: -0.102481325061192  dEband: -8.075127e-07  t[s]:   1286.05
BandDavidson: Iter:  48  Eband: -0.102482020083233  dEband: -6.950220e-07  t[s]:   1289.78
BandDavidson: Iter:  49  Eband: -0.102482616786523  dEband: -5.967033e-07  t[s]:   1293.45
BandDavidson: Iter:  50  Eband: -0.102483128850663  dEband: -5.120641e-07  t[s]:   1297.11
BandDavidson: Iter:  51  Eband: -0.102483568833212  dEband: -4.399825e-07  t[s]:   1300.79
BandDavidson: Iter:  52  Eband: -0.102483946549257  dEband: -3.777160e-07  t[s]:   1304.40
BandDavidson: Iter:  53  Eband: -0.102484272183323  dEband: -3.256341e-07  t[s]:   1307.98
BandDavidson: Iter:  54  Eband: -0.102484552363721  dEband: -2.801804e-07  t[s]:   1311.41
BandDavidson: Iter:  55  Eband: -0.102484793983512  dEband: -2.416198e-07  t[s]:   1314.82
BandDavidson: Iter:  56  Eband: -0.102485002777967  dEband: -2.087945e-07  t[s]:   1318.20
BandDavidson: Iter:  57  Eband: -0.102485183705977  dEband: -1.809280e-07  t[s]:   1321.48
BandDavidson: Iter:  58  Eband: -0.102485340641136  dEband: -1.569352e-07  t[s]:   1324.84
BandDavidson: Iter:  59  Eband: -0.102485476751857  dEband: -1.361107e-07  t[s]:   1328.03
BandDavidson: Iter:  60  Eband: -0.102485594897134  dEband: -1.181453e-07  t[s]:   1331.22
BandDavidson: Iter:  61  Eband: -0.102485697609343  dEband: -1.027122e-07  t[s]:   1334.32
BandDavidson: Iter:  62  Eband: -0.102485787043935  dEband: -8.943459e-08  t[s]:   1337.44
BandDavidson: Iter:  63  Eband: -0.102485865091372  dEband: -7.804744e-08  t[s]:   1340.55
BandDavidson: Iter:  64  Eband: -0.102485933034430  dEband: -6.794306e-08  t[s]:   1343.48
BandDavidson: Iter:  65  Eband: -0.102485992312830  dEband: -5.927840e-08  t[s]:   1346.47
BandDavidson: Iter:  66  Eband: -0.102486043823443  dEband: -5.151061e-08  t[s]:   1349.42
BandDavidson: Iter:  67  Eband: -0.102486088651331  dEband: -4.482789e-08  t[s]:   1352.26
BandDavidson: Iter:  68  Eband: -0.102486127706936  dEband: -3.905560e-08  t[s]:   1355.11
BandDavidson: Iter:  69  Eband: -0.102486161757318  dEband: -3.405038e-08  t[s]:   1358.00
BandDavidson: Iter:  70  Eband: -0.102486191343736  dEband: -2.958642e-08  t[s]:   1360.81
BandDavidson: Iter:  71  Eband: -0.102486217120579  dEband: -2.577684e-08  t[s]:   1363.59
BandDavidson: Iter:  72  Eband: -0.102486239593908  dEband: -2.247333e-08  t[s]:   1366.35
BandDavidson: Iter:  73  Eband: -0.102486259224475  dEband: -1.963057e-08  t[s]:   1369.09
BandDavidson: Iter:  74  Eband: -0.102486276341450  dEband: -1.711698e-08  t[s]:   1371.84
BandDavidson: Iter:  75  Eband: -0.102486291280494  dEband: -1.493904e-08  t[s]:   1374.61
BandDavidson: Iter:  76  Eband: -0.102486304275567  dEband: -1.299507e-08  t[s]:   1377.30
BandDavidson: Iter:  77  Eband: -0.102486315576366  dEband: -1.130080e-08  t[s]:   1379.92
BandDavidson: Iter:  78  Eband: -0.102486325413341  dEband: -9.836976e-09  t[s]:   1382.62
BandDavidson: Converged (dEband<1.000000e-08)

---- Minimization of quantum number:     4  [ +0.0000000 +0.1111111 +0.0000000 ]  0.004629630  spin +1 ----
BandDavidson: Iter:   0  Eband: -0.045668619950068
BandDavidson: Iter:   1  Eband: -0.079792152674837  dEband: -3.412353e-02  t[s]:   1391.88
BandDavidson: Iter:   2  Eband: -0.090746928420670  dEband: -1.095478e-02  t[s]:   1397.74
BandDavidson: Iter:   3  Eband: -0.095244797395764  dEband: -4.497869e-03  t[s]:   1403.65
BandDavidson: Iter:   4  Eband: -0.098462423125575  dEband: -3.217626e-03  t[s]:   1409.56
BandDavidson: Iter:   5  Eband: -0.100129897616411  dEband: -1.667474e-03  t[s]:   1415.47
BandDavidson: Iter:   6  Eband: -0.100746772134648  dEband: -6.168745e-04  t[s]:   1421.41
BandDavidson: Iter:   7  Eband: -0.101076063499653  dEband: -3.292914e-04  t[s]:   1427.31
BandDavidson: Iter:   8  Eband: -0.101305322299679  dEband: -2.292588e-04  t[s]:   1433.22
BandDavidson: Iter:   9  Eband: -0.101468727610481  dEband: -1.634053e-04  t[s]:   1439.20
BandDavidson: Iter:  10  Eband: -0.101586093907468  dEband: -1.173663e-04  t[s]:   1445.06
BandDavidson: Iter:  11  Eband: -0.101675210050168  dEband: -8.911614e-05  t[s]:   1451.05
BandDavidson: Iter:  12  Eband: -0.101753828414275  dEband: -7.861836e-05  t[s]:   1456.93
BandDavidson: Iter:  13  Eband: -0.101835832100651  dEband: -8.200369e-05  t[s]:   1462.83
BandDavidson: Iter:  14  Eband: -0.101905181844659  dEband: -6.934974e-05  t[s]:   1468.69
BandDavidson: Iter:  15  Eband: -0.101967748160507  dEband: -6.256632e-05  t[s]:   1474.53
BandDavidson: Iter:  16  Eband: -0.102024547602825  dEband: -5.679944e-05  t[s]:   1480.43
BandDavidson: Iter:  17  Eband: -0.102076766456786  dEband: -5.221885e-05  t[s]:   1486.34
BandDavidson: Iter:  18  Eband: -0.102124809038204  dEband: -4.804258e-05  t[s]:   1492.38
BandDavidson: Iter:  19  Eband: -0.102168116269158  dEband: -4.330723e-05  t[s]:   1498.32
BandDavidson: Iter:  20  Eband: -0.102207327337152  dEband: -3.921107e-05  t[s]:   1504.21
BandDavidson: Iter:  21  Eband: -0.102243098618942  dEband: -3.577128e-05  t[s]:   1510.04
BandDavidson: Iter:  22  Eband: -0.102276567597474  dEband: -3.346898e-05  t[s]:   1515.88
BandDavidson: Iter:  23  Eband: -0.102308081127001  dEband: -3.151353e-05  t[s]:   1521.55
BandDavidson: Iter:  24  Eband: -0.102337418556033  dEband: -2.933743e-05  t[s]:   1527.24
BandDavidson: Iter:  25  Eband: -0.102364027347645  dEband: -2.660879e-05  t[s]:   1532.89
BandDavidson: Iter:  26  Eband: -0.102387722119528  dEband: -2.369477e-05  t[s]:   1538.41
BandDavidson: Iter:  27  Eband: -0.102408912043260  dEband: -2.118992e-05  t[s]:   1544.04
BandDavidson: Iter:  28  Eband: -0.102429409818506  dEband: -2.049778e-05  t[s]:   1549.68
BandDavidson: Iter:  29  Eband: -0.102449146555495  dEband: -1.973674e-05  t[s]:   1555.05
BandDavidson: Iter:  30  Eband: -0.102465952668095  dEband: -1.680611e-05  t[s]:   1560.18
BandDavidson: Iter:  31  Eband: -0.102479791427692  dEband: -1.383876e-05  t[s]:   1564.89
BandDavidson: Iter:  32  Eband: -0.102491292201883  dEband: -1.150077e-05  t[s]:   1569.21
BandDavidson: Iter:  33  Eband: -0.102500883542089  dEband: -9.591340e-06  t[s]:   1573.40
BandDavidson: Iter:  34  Eband: -0.102508926099819  dEband: -8.042558e-06  t[s]:   1577.46
BandDavidson: Iter:  35  Eband: -0.102515788265815  dEband: -6.862166e-06  t[s]:   1581.68
BandDavidson: Iter:  36  Eband: -0.102521717351277  dEband: -5.929085e-06  t[s]:   1585.81
BandDavidson: Iter:  37  Eband: -0.102526973465789  dEband: -5.256115e-06  t[s]:   1589.79
BandDavidson: Iter:  38  Eband: -0.102531624074645  dEband: -4.650609e-06  t[s]:   1593.76
BandDavidson: Iter:  39  Eband: -0.102535733722376  dEband: -4.109648e-06  t[s]:   1597.68
BandDavidson: Iter:  40  Eband: -0.102539278339081  dEband: -3.544617e-06  t[s]:   1601.54
BandDavidson: Iter:  41  Eband: -0.102542297452445  dEband: -3.019113e-06  t[s]:   1605.36
BandDavidson: Iter:  42  Eband: -0.102544860940508  dEband: -2.563488e-06  t[s]:   1609.18
BandDavidson: Iter:  43  Eband: -0.102547065144088  dEband: -2.204204e-06  t[s]:   1612.90
BandDavidson: Iter:  44  Eband: -0.102548984649387  dEband: -1.919505e-06  t[s]:   1616.55
BandDavidson: Iter:  45  Eband: -0.102550631631524  dEband: -1.646982e-06  t[s]:   1620.29
BandDavidson: Iter:  46  Eband: -0.102552051500525  dEband: -1.419869e-06  t[s]:   1623.98
BandDavidson: Iter:  47  Eband: -0.102553270327922  dEband: -1.218827e-06  t[s]:   1627.77
BandDavidson: Iter:  48  Eband: -0.102554322759270  dEband: -1.052431e-06  t[s]:   1631.35
BandDavidson: Iter:  49  Eband: -0.102555229828458  dEband: -9.070692e-07  t[s]:   1635.02
BandDavidson: Iter:  50  Eband: -0.102556010897634  dEband: -7.810692e-07  t[s]:   1638.57
BandDavidson: Iter:  51  Eband: -0.102556683963077  dEband: -6.730654e-07  t[s]:   1642.12
BandDavidson: Iter:  52  Eband: -0.102557267587179  dEband: -5.836241e-07  t[s]:   1645.62
BandDavidson: Iter:  53  Eband: -0.102557774068918  dEband: -5.064817e-07  t[s]:   1649.01
BandDavidson: Iter:  54  Eband: -0.102558215328966  dEband: -4.412600e-07  t[s]:   1652.44
BandDavidson: Iter:  55  Eband: -0.102558600927838  dEband: -3.855989e-07  t[s]:   1655.83
BandDavidson: Iter:  56  Eband: -0.102558936934045  dEband: -3.360062e-07  t[s]:   1659.17
BandDavidson: Iter:  57  Eband: -0.102559230960962  dEband: -2.940269e-07  t[s]:   1662.52
BandDavidson: Iter:  58  Eband: -0.102559487935044  dEband: -2.569741e-07  t[s]:   1665.86
BandDavidson: Iter:  59  Eband: -0.102559712457023  dEband: -2.245220e-07  t[s]:   1668.95
BandDavidson: Iter:  60  Eband: -0.102559907926293  dEband: -1.954693e-07  t[s]:   1672.11
BandDavidson: Iter:  61  Eband: -0.102560079397074  dEband: -1.714708e-07  t[s]:   1675.20
BandDavidson: Iter:  62  Eband: -0.102560229466143  dEband: -1.500691e-07  t[s]:   1678.33
BandDavidson: Iter:  63  Eband: -0.102560361144773  dEband: -1.316786e-07  t[s]:   1681.37
BandDavidson: Iter:  64  Eband: -0.102560476261741  dEband: -1.151170e-07  t[s]:   1684.42
BandDavidson: Iter:  65  Eband: -0.102560576918173  dEband: -1.006564e-07  t[s]:   1687.38
BandDavidson: Iter:  66  Eband: -0.102560664813755  dEband: -8.789558e-08  t[s]:   1690.38
BandDavidson: Iter:  67  Eband: -0.102560741754341  dEband: -7.694059e-08  t[s]:   1693.25
BandDavidson: Iter:  68  Eband: -0.102560809041819  dEband: -6.728748e-08  t[s]:   1696.22
BandDavidson: Iter:  69  Eband: -0.102560868078232  dEband: -5.903641e-08  t[s]:   1699.12
BandDavidson: Iter:  70  Eband: -0.102560919788374  dEband: -5.171014e-08  t[s]:   1701.99
BandDavidson: Iter:  71  Eband: -0.102560965270267  dEband: -4.548189e-08  t[s]:   1704.77
BandDavidson: Iter:  72  Eband: -0.102561005212403  dEband: -3.994214e-08  t[s]:   1707.56
BandDavidson: Iter:  73  Eband: -0.102561040392731  dEband: -3.518033e-08  t[s]:   1710.35
BandDavidson: Iter:  74  Eband: -0.102561071396612  dEband: -3.100388e-08  t[s]:   1713.06
BandDavidson: Iter:  75  Eband: -0.102561098785467  dEband: -2.738885e-08  t[s]:   1715.85
BandDavidson: Iter:  76  Eband: -0.102561122888583  dEband: -2.410312e-08  t[s]:   1718.56
BandDavidson: Iter:  77  Eband: -0.102561144116830  dEband: -2.122825e-08  t[s]:   1721.31
BandDavidson: Iter:  78  Eband: -0.102561162900437  dEband: -1.878361e-08  t[s]:   1724.05
BandDavidson: Iter:  79  Eband: -0.102561179554275  dEband: -1.665384e-08  t[s]:   1726.70
BandDavidson: Iter:  80  Eband: -0.102561194307801  dEband: -1.475353e-08  t[s]:   1729.37
BandDavidson: Iter:  81  Eband: -0.102561207399977  dEband: -1.309218e-08  t[s]:   1732.01
BandDavidson: Iter:  82  Eband: -0.102561219073987  dEband: -1.167401e-08  t[s]:   1734.58
BandDavidson: Iter:  83  Eband: -0.102561229486516  dEband: -1.041253e-08  t[s]:   1737.19
BandDavidson: Iter:  84  Eband: -0.102561238804448  dEband: -9.317932e-09  t[s]:   1739.84
BandDavidson: Converged (dEband<1.000000e-08)

---- Minimization of quantum number:     5  [ +0.0000000 +0.1388889 +0.0000000 ]  0.004629630  spin +1 ----
BandDavidson: Iter:   0  Eband: -0.045597146630692
BandDavidson: Iter:   1  Eband: -0.079804786497666  dEband: -3.420764e-02  t[s]:   1749.28
BandDavidson: Iter:   2  Eband: -0.091008272155972  dEband: -1.120349e-02  t[s]:   1755.21
BandDavidson: Iter:   3  Eband: -0.095450897823413  dEband: -4.442626e-03  t[s]:   1761.19
BandDavidson: Iter:   4  Eband: -0.098493025917464  dEband: -3.042128e-03  t[s]:   1767.20
BandDavidson: Iter:   5  Eband: -0.099925901424699  dEband: -1.432876e-03  t[s]:   1773.17
BandDavidson: Iter:   6  Eband: -0.100707119158243  dEband: -7.812177e-04  t[s]:   1779.11
BandDavidson: Iter:   7  Eband: -0.101096715418581  dEband: -3.895963e-04  t[s]:   1785.09
BandDavidson: Iter:   8  Eband: -0.101332393381350  dEband: -2.356780e-04  t[s]:   1791.14
BandDavidson: Iter:   9  Eband: -0.101508316036827  dEband: -1.759227e-04  t[s]:   1797.03
BandDavidson: Iter:  10  Eband: -0.101654887034463  dEband: -1.465710e-04  t[s]:   1803.02
BandDavidson: Iter:  11  Eband: -0.101770641059097  dEband: -1.157540e-04  t[s]:   1809.03
BandDavidson: Iter:  12  Eband: -0.101869750031858  dEband: -9.910897e-05  t[s]:   1815.01
BandDavidson: Iter:  13  Eband: -0.101949218987726  dEband: -7.946896e-05  t[s]:   1820.98
BandDavidson: Iter:  14  Eband: -0.102014016128651  dEband: -6.479714e-05  t[s]:   1826.89
BandDavidson: Iter:  15  Eband: -0.102071577292407  dEband: -5.756116e-05  t[s]:   1832.85
BandDavidson: Iter:  16  Eband: -0.102125671808532  dEband: -5.409452e-05  t[s]:   1838.73
BandDavidson: Iter:  17  Eband: -0.102172451769445  dEband: -4.677996e-05  t[s]:   1844.72
BandDavidson: Iter:  18  Eband: -0.102214804240662  dEband: -4.235247e-05  t[s]:   1850.56
BandDavidson: Iter:  19  Eband: -0.102252613802798  dEband: -3.780956e-05  t[s]:   1856.51
BandDavidson: Iter:  20  Eband: -0.102291338713946  dEband: -3.872491e-05  t[s]:   1862.49
BandDavidson: Iter:  21  Eband: -0.102330529178894  dEband: -3.919046e-05  t[s]:   1868.46
BandDavidson: Iter:  22  Eband: -0.102367549143612  dEband: -3.701996e-05  t[s]:   1874.37
BandDavidson: Iter:  23  Eband: -0.102401673898755  dEband: -3.412476e-05  t[s]:   1880.08
BandDavidson: Iter:  24  Eband: -0.102432510685276  dEband: -3.083679e-05  t[s]:   1885.77
BandDavidson: Iter:  25  Eband: -0.102459983468903  dEband: -2.747278e-05  t[s]:   1891.46
BandDavidson: Iter:  26  Eband: -0.102483634986781  dEband: -2.365152e-05  t[s]:   1897.06
BandDavidson: Iter:  27  Eband: -0.102504545741286  dEband: -2.091075e-05  t[s]:   1902.68
BandDavidson: Iter:  28  Eband: -0.102523075287062  dEband: -1.852955e-05  t[s]:   1908.22
BandDavidson: Iter:  29  Eband: -0.102539259865072  dEband: -1.618458e-05  t[s]:   1913.55
BandDavidson: Iter:  30  Eband: -0.102553243131318  dEband: -1.398327e-05  t[s]:   1918.55
BandDavidson: Iter:  31  Eband: -0.102565114294873  dEband: -1.187116e-05  t[s]:   1923.37
BandDavidson: Iter:  32  Eband: -0.102575263507896  dEband: -1.014921e-05  t[s]:   1927.71
BandDavidson: Iter:  33  Eband: -0.102583968790402  dEband: -8.705283e-06  t[s]:   1931.85
BandDavidson: Iter:  34  Eband: -0.102591481866441  dEband: -7.513076e-06  t[s]:   1936.00
BandDavidson: Iter:  35  Eband: -0.102598004561987  dEband: -6.522696e-06  t[s]:   1940.20
BandDavidson: Iter:  36  Eband: -0.102603632899462  dEband: -5.628337e-06  t[s]:   1944.33
BandDavidson: Iter:  37  Eband: -0.102608463743526  dEband: -4.830844e-06  t[s]:   1948.44
BandDavidson: Iter:  38  Eband: -0.102612574513887  dEband: -4.110770e-06  t[s]:   1952.35
BandDavidson: Iter:  39  Eband: -0.102616076238911  dEband: -3.501725e-06  t[s]:   1956.35
BandDavidson: Iter:  40  Eband: -0.102619081070342  dEband: -3.004831e-06  t[s]:   1960.36
BandDavidson: Iter:  41  Eband: -0.102621669069973  dEband: -2.588000e-06  t[s]:   1964.16
BandDavidson: Iter:  42  Eband: -0.102623893988721  dEband: -2.224919e-06  t[s]:   1967.92
BandDavidson: Iter:  43  Eband: -0.102625809828782  dEband: -1.915840e-06  t[s]:   1971.64
BandDavidson: Iter:  44  Eband: -0.102627474661679  dEband: -1.664833e-06  t[s]:   1975.25
BandDavidson: Iter:  45  Eband: -0.102628921608371  dEband: -1.446947e-06  t[s]:   1978.96
BandDavidson: Iter:  46  Eband: -0.102630185254109  dEband: -1.263646e-06  t[s]:   1982.61
BandDavidson: Iter:  47  Eband: -0.102631295229843  dEband: -1.109976e-06  t[s]:   1986.30
BandDavidson: Iter:  48  Eband: -0.102632270551110  dEband: -9.753213e-07  t[s]:   1990.00
BandDavidson: Iter:  49  Eband: -0.102633132012688  dEband: -8.614616e-07  t[s]:   1993.61
BandDavidson: Iter:  50  Eband: -0.102633887245252  dEband: -7.552326e-07  t[s]:   1997.24
BandDavidson: Iter:  51  Eband: -0.102634554824345  dEband: -6.675791e-07  t[s]:   2000.80
BandDavidson: Iter:  52  Eband: -0.102635145534091  dEband: -5.907097e-07  t[s]:   2004.26
BandDavidson: Iter:  53  Eband: -0.102635670204492  dEband: -5.246704e-07  t[s]:   2007.67
BandDavidson: Iter:  54  Eband: -0.102636139883494  dEband: -4.696790e-07  t[s]:   2010.99
BandDavidson: Iter:  55  Eband: -0.102636557688028  dEband: -4.178045e-07  t[s]:   2014.31
BandDavidson: Iter:  56  Eband: -0.102636932019147  dEband: -3.743311e-07  t[s]:   2017.68
BandDavidson: Iter:  57  Eband: -0.102637264247147  dEband: -3.322280e-07  t[s]:   2020.97
BandDavidson: Iter:  58  Eband: -0.102637560275485  dEband: -2.960283e-07  t[s]:   2024.29
BandDavidson: Iter:  59  Eband: -0.102637821975789  dEband: -2.617003e-07  t[s]:   2027.39
BandDavidson: Iter:  60  Eband: -0.102638053327002  dEband: -2.313512e-07  t[s]:   2030.48
BandDavidson: Iter:  61  Eband: -0.102638257884971  dEband: -2.045580e-07  t[s]:   2033.58
BandDavidson: Iter:  62  Eband: -0.102638438821212  dEband: -1.809362e-07  t[s]:   2036.71
BandDavidson: Iter:  63  Eband: -0.102638598813262  dEband: -1.599920e-07  t[s]:   2039.80
BandDavidson: Iter:  64  Eband: -0.102638739737845  dEband: -1.409246e-07  t[s]:   2042.80
BandDavidson: Iter:  65  Eband: -0.102638863422328  dEband: -1.236845e-07  t[s]:   2045.71
BandDavidson: Iter:  66  Eband: -0.102638972068398  dEband: -1.086461e-07  t[s]:   2048.58
BandDavidson: Iter:  67  Eband: -0.102639067736125  dEband: -9.566773e-08  t[s]:   2051.42
BandDavidson: Iter:  68  Eband: -0.102639151809411  dEband: -8.407329e-08  t[s]:   2054.22
BandDavidson: Iter:  69  Eband: -0.102639226233928  dEband: -7.442452e-08  t[s]:   2057.08
BandDavidson: Iter:  70  Eband: -0.102639291852352  dEband: -6.561842e-08  t[s]:   2059.92
BandDavidson: Iter:  71  Eband: -0.102639349837203  dEband: -5.798485e-08  t[s]:   2062.77
BandDavidson: Iter:  72  Eband: -0.102639400941952  dEband: -5.110475e-08  t[s]:   2065.56
BandDavidson: Iter:  73  Eband: -0.102639445971685  dEband: -4.502973e-08  t[s]:   2068.33
BandDavidson: Iter:  74  Eband: -0.102639485613491  dEband: -3.964181e-08  t[s]:   2071.02
BandDavidson: Iter:  75  Eband: -0.102639520620994  dEband: -3.500750e-08  t[s]:   2073.80
BandDavidson: Iter:  76  Eband: -0.102639551487780  dEband: -3.086679e-08  t[s]:   2076.47
BandDavidson: Iter:  77  Eband: -0.102639578719043  dEband: -2.723126e-08  t[s]:   2079.15
BandDavidson: Iter:  78  Eband: -0.102639602745107  dEband: -2.402606e-08  t[s]:   2081.90
BandDavidson: Iter:  79  Eband: -0.102639623915845  dEband: -2.117074e-08  t[s]:   2084.64
BandDavidson: Iter:  80  Eband: -0.102639642593204  dEband: -1.867736e-08  t[s]:   2087.33
BandDavidson: Iter:  81  Eband: -0.102639659073495  dEband: -1.648029e-08  t[s]:   2090.03
BandDavidson: Iter:  82  Eband: -0.102639673607995  dEband: -1.453450e-08  t[s]:   2092.68
BandDavidson: Iter:  83  Eband: -0.102639686430747  dEband: -1.282275e-08  t[s]:   2095.29
BandDavidson: Iter:  84  Eband: -0.102639697745398  dEband: -1.131465e-08  t[s]:   2097.90
BandDavidson: Iter:  85  Eband: -0.102639707740050  dEband: -9.994652e-09  t[s]:   2100.45
BandDavidson: Converged (dEband<1.000000e-08)

---- Minimization of quantum number:     6  [ +0.0000000 +0.1666667 +0.0000000 ]  0.004629630  spin +1 ----
BandDavidson: Iter:   0  Eband: -0.045678254180909
BandDavidson: Iter:   1  Eband: -0.079853831949521  dEband: -3.417558e-02  t[s]:   2109.89
BandDavidson: Iter:   2  Eband: -0.091275888898109  dEband: -1.142206e-02  t[s]:   2115.79
BandDavidson: Iter:   3  Eband: -0.095409379495709  dEband: -4.133491e-03  t[s]:   2121.70
BandDavidson: Iter:   4  Eband: -0.098114741861195  dEband: -2.705362e-03  t[s]:   2127.70
BandDavidson: Iter:   5  Eband: -0.099733517746667  dEband: -1.618776e-03  t[s]:   2133.64
BandDavidson: Iter:   6  Eband: -0.100524392228340  dEband: -7.908745e-04  t[s]:   2139.58
BandDavidson: Iter:   7  Eband: -0.100928009612940  dEband: -4.036174e-04  t[s]:   2145.45
BandDavidson: Iter:   8  Eband: -0.101238819684201  dEband: -3.108101e-04  t[s]:   2151.36
BandDavidson: Iter:   9  Eband: -0.101437479071622  dEband: -1.986594e-04  t[s]:   2157.25
BandDavidson: Iter:  10  Eband: -0.101596684705691  dEband: -1.592056e-04  t[s]:   2163.16
BandDavidson: Iter:  11  Eband: -0.101736551446898  dEband: -1.398667e-04  t[s]:   2169.04
BandDavidson: Iter:  12  Eband: -0.101860923353337  dEband: -1.243719e-04  t[s]:   2174.93
BandDavidson: Iter:  13  Eband: -0.101969579191030  dEband: -1.086558e-04  t[s]:   2180.95
BandDavidson: Iter:  14  Eband: -0.102066322228903  dEband: -9.674304e-05  t[s]:   2186.93
BandDavidson: Iter:  15  Eband: -0.102143462041878  dEband: -7.713981e-05  t[s]:   2192.81
BandDavidson: Iter:  16  Eband: -0.102207184920928  dEband: -6.372288e-05  t[s]:   2198.73
BandDavidson: Iter:  17  Eband: -0.102261979818695  dEband: -5.479490e-05  t[s]:   2204.73
BandDavidson: Iter:  18  Eband: -0.102311401727115  dEband: -4.942191e-05  t[s]:   2210.54
BandDavidson: Iter:  19  Eband: -0.102363970001277  dEband: -5.256827e-05  t[s]:   2216.49
BandDavidson: Iter:  20  Eband: -0.102411868831551  dEband: -4.789883e-05  t[s]:   2222.44
BandDavidson: Iter:  21  Eband: -0.102453989830943  dEband: -4.212100e-05  t[s]:   2228.45
BandDavidson: Iter:  22  Eband: -0.102490108358059  dEband: -3.611853e-05  t[s]:   2234.29
BandDavidson: Iter:  23  Eband: -0.102520845453974  dEband: -3.073710e-05  t[s]:   2240.13
BandDavidson: Iter:  24  Eband: -0.102546872976937  dEband: -2.602752e-05  t[s]:   2246.00
BandDavidson: Iter:  25  Eband: -0.102568609799959  dEband: -2.173682e-05  t[s]:   2251.70
BandDavidson: Iter:  26  Eband: -0.102586906756020  dEband: -1.829696e-05  t[s]:   2257.36
BandDavidson: Iter:  27  Eband: -0.102602317812683  dEband: -1.541106e-05  t[s]:   2263.05
BandDavidson: Iter:  28  Eband: -0.102615525226347  dEband: -1.320741e-05  t[s]:   2268.62
BandDavidson: Iter:  29  Eband: -0.102626774214752  dEband: -1.124899e-05  t[s]:   2273.97
BandDavidson: Iter:  30  Eband: -0.102636468837520  dEband: -9.694623e-06  t[s]:   2279.16
BandDavidson: Iter:  31  Eband: -0.102644782307709  dEband: -8.313470e-06  t[s]:   2283.91
BandDavidson: Iter:  32  Eband: -0.102651958226881  dEband: -7.175919e-06  t[s]:   2288.48
BandDavidson: Iter:  33  Eband: -0.102658122610347  dEband: -6.164383e-06  t[s]:   2292.70
BandDavidson: Iter:  34  Eband: -0.102663505159406  dEband: -5.382549e-06  t[s]:   2296.97
BandDavidson: Iter:  35  Eband: -0.102668224935704  dEband: -4.719776e-06  t[s]:   2301.15
BandDavidson: Iter:  36  Eband: -0.102672405207895  dEband: -4.180272e-06  t[s]:   2305.34
BandDavidson: Iter:  37  Eband: -0.102676070984509  dEband: -3.665777e-06  t[s]:   2309.47
BandDavidson: Iter:  38  Eband: -0.102679260493806  dEband: -3.189509e-06  t[s]:   2313.37
BandDavidson: Iter:  39  Eband: -0.102682012126663  dEband: -2.751633e-06  t[s]:   2317.20
BandDavidson: Iter:  40  Eband: -0.102684412426362  dEband: -2.400300e-06  t[s]:   2321.07
BandDavidson: Iter:  41  Eband: -0.102686512577098  dEband: -2.100151e-06  t[s]:   2324.84
BandDavidson: Iter:  42  Eband: -0.102688351756701  dEband: -1.839180e-06  t[s]:   2328.64
BandDavidson: Iter:  43  Eband: -0.102689971455016  dEband: -1.619698e-06  t[s]:   2332.41
BandDavidson: Iter:  44  Eband: -0.102691401463981  dEband: -1.430009e-06  t[s]:   2336.10
BandDavidson: Iter:  45  Eband: -0.102692667789862  dEband: -1.266326e-06  t[s]:   2339.74
BandDavidson: Iter:  46  Eband: -0.102693789847269  dEband: -1.122057e-06  t[s]:   2343.51
BandDavidson: Iter:  47  Eband: -0.102694781708399  dEband: -9.918611e-07  t[s]:   2347.25
BandDavidson: Iter:  48  Eband: -0.102695659742023  dEband: -8.780336e-07  t[s]:   2350.92
BandDavidson: Iter:  49  Eband: -0.102696437138651  dEband: -7.773966e-07  t[s]:   2354.57
BandDavidson: Iter:  50  Eband: -0.102697124053256  dEband: -6.869146e-07  t[s]:   2358.15
BandDavidson: Iter:  51  Eband: -0.102697729322687  dEband: -6.052694e-07  t[s]:   2361.66
BandDavidson: Iter:  52  Eband: -0.102698262829203  dEband: -5.335065e-07  t[s]:   2365.10
BandDavidson: Iter:  53  Eband: -0.102698734949753  dEband: -4.721205e-07  t[s]:   2368.39
BandDavidson: Iter:  54  Eband: -0.102699152935252  dEband: -4.179855e-07  t[s]:   2371.82
BandDavidson: Iter:  55  Eband: -0.102699524185591  dEband: -3.712503e-07  t[s]:   2375.25
BandDavidson: Iter:  56  Eband: -0.102699853113180  dEband: -3.289276e-07  t[s]:   2378.62
BandDavidson: Iter:  57  Eband: -0.102700143747870  dEband: -2.906347e-07  t[s]:   2381.88
BandDavidson: Iter:  58  Eband: -0.102700400049347  dEband: -2.563015e-07  t[s]:   2385.14
BandDavidson: Iter:  59  Eband: -0.102700626155930  dEband: -2.261066e-07  t[s]:   2388.32
BandDavidson: Iter:  60  Eband: -0.102700827052608  dEband: -2.008967e-07  t[s]:   2391.42
BandDavidson: Iter:  61  Eband: -0.102701004544702  dEband: -1.774921e-07  t[s]:   2394.58
BandDavidson: Iter:  62  Eband: -0.102701162382688  dEband: -1.578380e-07  t[s]:   2397.77
BandDavidson: Iter:  63  Eband: -0.102701301907648  dEband: -1.395250e-07  t[s]:   2400.97
BandDavidson: Iter:  64  Eband: -0.102701425465483  dEband: -1.235578e-07  t[s]:   2404.12
BandDavidson: Iter:  65  Eband: -0.102701534905402  dEband: -1.094399e-07  t[s]:   2407.16
BandDavidson: Iter:  66  Eband: -0.102701631101731  dEband: -9.619633e-08  t[s]:   2410.02
BandDavidson: Iter:  67  Eband: -0.102701716187536  dEband: -8.508580e-08  t[s]:   2412.92
BandDavidson: Iter:  68  Eband: -0.102701791649259  dEband: -7.546172e-08  t[s]:   2415.75
BandDavidson: Iter:  69  Eband: -0.102701858707185  dEband: -6.705793e-08  t[s]:   2418.70
BandDavidson: Iter:  70  Eband: -0.102701918357287  dEband: -5.965010e-08  t[s]:   2421.59
BandDavidson: Iter:  71  Eband: -0.102701971348918  dEband: -5.299163e-08  t[s]:   2424.38
BandDavidson: Iter:  72  Eband: -0.102702018406477  dEband: -4.705756e-08  t[s]:   2427.13
BandDavidson: Iter:  73  Eband: -0.102702060371017  dEband: -4.196454e-08  t[s]:   2429.97
BandDavidson: Iter:  74  Eband: -0.102702097950193  dEband: -3.757918e-08  t[s]:   2432.78
BandDavidson: Iter:  75  Eband: -0.102702131608108  dEband: -3.365791e-08  t[s]:   2435.47
BandDavidson: Iter:  76  Eband: -0.102702161705624  dEband: -3.009752e-08  t[s]:   2438.23
BandDavidson: Iter:  77  Eband: -0.102702188541316  dEband: -2.683569e-08  t[s]:   2440.94
BandDavidson: Iter:  78  Eband: -0.102702212514979  dEband: -2.397366e-08  t[s]:   2443.64
BandDavidson: Iter:  79  Eband: -0.102702233906105  dEband: -2.139113e-08  t[s]:   2446.39
BandDavidson: Iter:  80  Eband: -0.102702253018914  dEband: -1.911281e-08  t[s]:   2449.15
BandDavidson: Iter:  81  Eband: -0.102702270042072  dEband: -1.702316e-08  t[s]:   2451.88
BandDavidson: Iter:  82  Eband: -0.102702285340254  dEband: -1.529818e-08  t[s]:   2454.54
BandDavidson: Iter:  83  Eband: -0.102702299038301  dEband: -1.369805e-08  t[s]:   2457.23
BandDavidson: Iter:  84  Eband: -0.102702311355558  dEband: -1.231726e-08  t[s]:   2459.95
BandDavidson: Iter:  85  Eband: -0.102702322388868  dEband: -1.103331e-08  t[s]:   2462.57
BandDavidson: Iter:  86  Eband: -0.102702332301192  dEband: -9.912324e-09  t[s]:   2465.19
BandDavidson: Converged (dEband<1.000000e-08)

---- Minimization of quantum number:     7  [ +0.0000000 +0.1944444 +0.0000000 ]  0.004629630  spin +1 ----
BandDavidson: Iter:   0  Eband: -0.045751689967191
BandDavidson: Iter:   1  Eband: -0.079861348769989  dEband: -3.410966e-02  t[s]:   2474.55
BandDavidson: Iter:   2  Eband: -0.091451509853032  dEband: -1.159016e-02  t[s]:   2480.47
BandDavidson: Iter:   3  Eband: -0.095422558775251  dEband: -3.971049e-03  t[s]:   2486.45
BandDavidson: Iter:   4  Eband: -0.097811027547144  dEband: -2.388469e-03  t[s]:   2492.37
BandDavidson: Iter:   5  Eband: -0.099233644588785  dEband: -1.422617e-03  t[s]:   2498.24
BandDavidson: Iter:   6  Eband: -0.100165663987350  dEband: -9.320194e-04  t[s]:   2504.22
BandDavidson: Iter:   7  Eband: -0.100758910647612  dEband: -5.932467e-04  t[s]:   2510.20
BandDavidson: Iter:   8  Eband: -0.101139139995324  dEband: -3.802293e-04  t[s]:   2516.13
BandDavidson: Iter:   9  Eband: -0.101391481066567  dEband: -2.523411e-04  t[s]:   2522.11
BandDavidson: Iter:  10  Eband: -0.101560888454649  dEband: -1.694074e-04  t[s]:   2528.10
BandDavidson: Iter:  11  Eband: -0.101680505435877  dEband: -1.196170e-04  t[s]:   2533.94
BandDavidson: Iter:  12  Eband: -0.101809619525726  dEband: -1.291141e-04  t[s]:   2539.90
BandDavidson: Iter:  13  Eband: -0.101931658125095  dEband: -1.220386e-04  t[s]:   2545.73
BandDavidson: Iter:  14  Eband: -0.102032154900078  dEband: -1.004968e-04  t[s]:   2551.72
BandDavidson: Iter:  15  Eband: -0.102114771956597  dEband: -8.261706e-05  t[s]:   2557.57
BandDavidson: Iter:  16  Eband: -0.102181839618757  dEband: -6.706766e-05  t[s]:   2563.45
BandDavidson: Iter:  17  Eband: -0.102237815828834  dEband: -5.597621e-05  t[s]:   2569.40
BandDavidson: Iter:  18  Eband: -0.102284957651748  dEband: -4.714182e-05  t[s]:   2575.29
BandDavidson: Iter:  19  Eband: -0.102324222682814  dEband: -3.926503e-05  t[s]:   2581.35
BandDavidson: Iter:  20  Eband: -0.102357658070220  dEband: -3.343539e-05  t[s]:   2587.26
BandDavidson: Iter:  21  Eband: -0.102388503851524  dEband: -3.084578e-05  t[s]:   2593.01
BandDavidson: Iter:  22  Eband: -0.102419531813499  dEband: -3.102796e-05  t[s]:   2598.96
BandDavidson: Iter:  23  Eband: -0.102449493036331  dEband: -2.996122e-05  t[s]:   2604.79
BandDavidson: Iter:  24  Eband: -0.102476984978283  dEband: -2.749194e-05  t[s]:   2610.53
BandDavidson: Iter:  25  Eband: -0.102503786872235  dEband: -2.680189e-05  t[s]:   2616.24
BandDavidson: Iter:  26  Eband: -0.102532128575988  dEband: -2.834170e-05  t[s]:   2621.99
BandDavidson: Iter:  27  Eband: -0.102558678598661  dEband: -2.655002e-05  t[s]:   2627.55
BandDavidson: Iter:  28  Eband: -0.102582794752085  dEband: -2.411615e-05  t[s]:   2633.07
BandDavidson: Iter:  29  Eband: -0.102604590116856  dEband: -2.179536e-05  t[s]:   2638.37
BandDavidson: Iter:  30  Eband: -0.102624316586821  dEband: -1.972647e-05  t[s]:   2643.58
BandDavidson: Iter:  31  Eband: -0.102641648812182  dEband: -1.733223e-05  t[s]:   2648.39
BandDavidson: Iter:  32  Eband: -0.102656612840616  dEband: -1.496403e-05  t[s]:   2652.91
BandDavidson: Iter:  33  Eband: -0.102669287313617  dEband: -1.267447e-05  t[s]:   2657.08
BandDavidson: Iter:  34  Eband: -0.102680044038594  dEband: -1.075672e-05  t[s]:   2661.23
BandDavidson: Iter:  35  Eband: -0.102689130260024  dEband: -9.086221e-06  t[s]:   2665.35
BandDavidson: Iter:  36  Eband: -0.102696861486025  dEband: -7.731226e-06  t[s]:   2669.35
BandDavidson: Iter:  37  Eband: -0.102703368495003  dEband: -6.507009e-06  t[s]:   2673.33
BandDavidson: Iter:  38  Eband: -0.102708907238013  dEband: -5.538743e-06  t[s]:   2677.26
BandDavidson: Iter:  39  Eband: -0.102713649616363  dEband: -4.742378e-06  t[s]:   2681.25
BandDavidson: Iter:  40  Eband: -0.102717741590252  dEband: -4.091974e-06  t[s]:   2685.17
BandDavidson: Iter:  41  Eband: -0.102721248921829  dEband: -3.507332e-06  t[s]:   2688.94
BandDavidson: Iter:  42  Eband: -0.102724268533513  dEband: -3.019612e-06  t[s]:   2692.70
BandDavidson: Iter:  43  Eband: -0.102726890748534  dEband: -2.622215e-06  t[s]:   2696.37
BandDavidson: Iter:  44  Eband: -0.102729193603362  dEband: -2.302855e-06  t[s]:   2700.08
BandDavidson: Iter:  45  Eband: -0.102731222260421  dEband: -2.028657e-06  t[s]:   2703.86
BandDavidson: Iter:  46  Eband: -0.102733011781186  dEband: -1.789521e-06  t[s]:   2707.61
BandDavidson: Iter:  47  Eband: -0.102734601288979  dEband: -1.589508e-06  t[s]:   2711.37
BandDavidson: Iter:  48  Eband: -0.102736011638401  dEband: -1.410349e-06  t[s]:   2715.15
BandDavidson: Iter:  49  Eband: -0.102737260649365  dEband: -1.249011e-06  t[s]:   2718.76
BandDavidson: Iter:  50  Eband: -0.102738366203857  dEband: -1.105554e-06  t[s]:   2722.35
BandDavidson: Iter:  51  Eband: -0.102739346795791  dEband: -9.805919e-07  t[s]:   2725.81
BandDavidson: Iter:  52  Eband: -0.102740215471905  dEband: -8.686761e-07  t[s]:   2729.15
BandDavidson: Iter:  53  Eband: -0.102740986880307  dEband: -7.714084e-07  t[s]:   2732.48
BandDavidson: Iter:  54  Eband: -0.102741674862437  dEband: -6.879821e-07  t[s]:   2735.82
BandDavidson: Iter:  55  Eband: -0.102742289935071  dEband: -6.150726e-07  t[s]:   2739.14
BandDavidson: Iter:  56  Eband: -0.102742840073036  dEband: -5.501380e-07  t[s]:   2742.43
BandDavidson: Iter:  57  Eband: -0.102743331785388  dEband: -4.917124e-07  t[s]:   2745.69
BandDavidson: Iter:  58  Eband: -0.102743771160168  dEband: -4.393748e-07  t[s]:   2748.93
BandDavidson: Iter:  59  Eband: -0.102744162251758  dEband: -3.910916e-07  t[s]:   2752.12
BandDavidson: Iter:  60  Eband: -0.102744510543931  dEband: -3.482922e-07  t[s]:   2755.31
BandDavidson: Iter:  61  Eband: -0.102744821775908  dEband: -3.112320e-07  t[s]:   2758.42
BandDavidson: Iter:  62  Eband: -0.102745099075716  dEband: -2.772998e-07  t[s]:   2761.47
BandDavidson: Iter:  63  Eband: -0.102745346911216  dEband: -2.478355e-07  t[s]:   2764.52
BandDavidson: Iter:  64  Eband: -0.102745568752192  dEband: -2.218410e-07  t[s]:   2767.59
BandDavidson: Iter:  65  Eband: -0.102745767057373  dEband: -1.983052e-07  t[s]:   2770.39
BandDavidson: Iter:  66  Eband: -0.102745943892692  dEband: -1.768353e-07  t[s]:   2773.31
BandDavidson: Iter:  67  Eband: -0.102746101895993  dEband: -1.580033e-07  t[s]:   2776.16
BandDavidson: Iter:  68  Eband: -0.102746243472689  dEband: -1.415767e-07  t[s]:   2779.00
BandDavidson: Iter:  69  Eband: -0.102746370233544  dEband: -1.267609e-07  t[s]:   2781.87
BandDavidson: Iter:  70  Eband: -0.102746483737354  dEband: -1.135038e-07  t[s]:   2784.65
BandDavidson: Iter:  71  Eband: -0.102746585299481  dEband: -1.015621e-07  t[s]:   2787.40
BandDavidson: Iter:  72  Eband: -0.102746676219584  dEband: -9.092010e-08  t[s]:   2790.21
BandDavidson: Iter:  73  Eband: -0.102746757674809  dEband: -8.145523e-08  t[s]:   2792.97
BandDavidson: Iter:  74  Eband: -0.102746830625765  dEband: -7.295096e-08  t[s]:   2795.77
BandDavidson: Iter:  75  Eband: -0.102746896121449  dEband: -6.549568e-08  t[s]:   2798.55
BandDavidson: Iter:  76  Eband: -0.102746954750704  dEband: -5.862926e-08  t[s]:   2801.32
BandDavidson: Iter:  77  Eband: -0.102747007281041  dEband: -5.253034e-08  t[s]:   2804.09
BandDavidson: Iter:  78  Eband: -0.102747054162383  dEband: -4.688134e-08  t[s]:   2806.88
BandDavidson: Iter:  79  Eband: -0.102747095916192  dEband: -4.175381e-08  t[s]:   2809.63
BandDavidson: Iter:  80  Eband: -0.102747133147309  dEband: -3.723112e-08  t[s]:   2812.36
BandDavidson: Iter:  81  Eband: -0.102747166230820  dEband: -3.308351e-08  t[s]:   2815.02
BandDavidson: Iter:  82  Eband: -0.102747195738488  dEband: -2.950767e-08  t[s]:   2817.60
BandDavidson: Iter:  83  Eband: -0.102747222013855  dEband: -2.627537e-08  t[s]:   2820.24
BandDavidson: Iter:  84  Eband: -0.102747245479031  dEband: -2.346518e-08  t[s]:   2822.83
BandDavidson: Iter:  85  Eband: -0.102747266392921  dEband: -2.091389e-08  t[s]:   2825.44
BandDavidson: Iter:  86  Eband: -0.102747285058415  dEband: -1.866549e-08  t[s]:   2828.10
BandDavidson: Iter:  87  Eband: -0.102747301760039  dEband: -1.670162e-08  t[s]:   2830.66
BandDavidson: Iter:  88  Eband: -0.102747316710248  dEband: -1.495021e-08  t[s]:   2833.14
BandDavidson: Iter:  89  Eband: -0.102747330081063  dEband: -1.337081e-08  t[s]:   2835.68
BandDavidson: Iter:  90  Eband: -0.102747342038583  dEband: -1.195752e-08  t[s]:   2838.34
BandDavidson: Iter:  91  Eband: -0.102747352714048  dEband: -1.067546e-08  t[s]:   2840.96
BandDavidson: Iter:  92  Eband: -0.102747362221417  dEband: -9.507369e-09  t[s]:   2843.52
BandDavidson: Converged (dEband<1.000000e-08)

---- Minimization of quantum number:     8  [ +0.0000000 +0.2222222 +0.0000000 ]  0.004629630  spin +1 ----
BandDavidson: Iter:   0  Eband: -0.045906652320530
BandDavidson: Iter:   1  Eband: -0.079786574200817  dEband: -3.387992e-02  t[s]:   2852.92
BandDavidson: Iter:   2  Eband: -0.091389306853818  dEband: -1.160273e-02  t[s]:   2858.82
BandDavidson: Iter:   3  Eband: -0.095271852462410  dEband: -3.882546e-03  t[s]:   2864.78
BandDavidson: Iter:   4  Eband: -0.097539163944545  dEband: -2.267311e-03  t[s]:   2870.64
BandDavidson: Iter:   5  Eband: -0.098881626185207  dEband: -1.342462e-03  t[s]:   2876.52
BandDavidson: Iter:   6  Eband: -0.099607493993447  dEband: -7.258678e-04  t[s]:   2882.33
BandDavidson: Iter:   7  Eband: -0.100021303330589  dEband: -4.138093e-04  t[s]:   2888.14
BandDavidson: Iter:   8  Eband: -0.100475785714517  dEband: -4.544824e-04  t[s]:   2894.04
BandDavidson: Iter:   9  Eband: -0.100878550001084  dEband: -4.027643e-04  t[s]:   2899.92
BandDavidson: Iter:  10  Eband: -0.101200758373109  dEband: -3.222084e-04  t[s]:   2905.88
BandDavidson: Iter:  11  Eband: -0.101474893687928  dEband: -2.741353e-04  t[s]:   2911.89
BandDavidson: Iter:  12  Eband: -0.101710456103319  dEband: -2.355624e-04  t[s]:   2917.81
BandDavidson: Iter:  13  Eband: -0.101874398230799  dEband: -1.639421e-04  t[s]:   2923.74
BandDavidson: Iter:  14  Eband: -0.101996746549507  dEband: -1.223483e-04  t[s]:   2929.76
BandDavidson: Iter:  15  Eband: -0.102092738704736  dEband: -9.599216e-05  t[s]:   2935.71
BandDavidson: Iter:  16  Eband: -0.102171291070469  dEband: -7.855237e-05  t[s]:   2941.65
BandDavidson: Iter:  17  Eband: -0.102238647168180  dEband: -6.735610e-05  t[s]:   2947.58
BandDavidson: Iter:  18  Eband: -0.102296974710987  dEband: -5.832754e-05  t[s]:   2953.48
BandDavidson: Iter:  19  Eband: -0.102349807323135  dEband: -5.283261e-05  t[s]:   2959.46
BandDavidson: Iter:  20  Eband: -0.102397221142121  dEband: -4.741382e-05  t[s]:   2965.39
BandDavidson: Iter:  21  Eband: -0.102439378319192  dEband: -4.215718e-05  t[s]:   2971.24
BandDavidson: Iter:  22  Eband: -0.102477699097795  dEband: -3.832078e-05  t[s]:   2977.12
BandDavidson: Iter:  23  Eband: -0.102513171408017  dEband: -3.547231e-05  t[s]:   2982.95
BandDavidson: Iter:  24  Eband: -0.102545961656494  dEband: -3.279025e-05  t[s]:   2988.59
BandDavidson: Iter:  25  Eband: -0.102575697087980  dEband: -2.973543e-05  t[s]:   2994.32
BandDavidson: Iter:  26  Eband: -0.102602096085867  dEband: -2.639900e-05  t[s]:   2999.93
BandDavidson: Iter:  27  Eband: -0.102624728331895  dEband: -2.263225e-05  t[s]:   3005.47
BandDavidson: Iter:  28  Eband: -0.102643851847159  dEband: -1.912352e-05  t[s]:   3011.03
BandDavidson: Iter:  29  Eband: -0.102659885375410  dEband: -1.603353e-05  t[s]:   3016.39
BandDavidson: Iter:  30  Eband: -0.102673368300881  dEband: -1.348293e-05  t[s]:   3021.66
BandDavidson: Iter:  31  Eband: -0.102684760460313  dEband: -1.139216e-05  t[s]:   3026.69
BandDavidson: Iter:  32  Eband: -0.102694307519115  dEband: -9.547059e-06  t[s]:   3031.35
BandDavidson: Iter:  33  Eband: -0.102702351654562  dEband: -8.044135e-06  t[s]:   3035.62
BandDavidson: Iter:  34  Eband: -0.102709187337001  dEband: -6.835682e-06  t[s]:   3039.80
BandDavidson: Iter:  35  Eband: -0.102715036855802  dEband: -5.849519e-06  t[s]:   3043.94
BandDavidson: Iter:  36  Eband: -0.102720065584299  dEband: -5.028728e-06  t[s]:   3048.15
BandDavidson: Iter:  37  Eband: -0.102724396829855  dEband: -4.331246e-06  t[s]:   3052.09
BandDavidson: Iter:  38  Eband: -0.102728119519089  dEband: -3.722689e-06  t[s]:   3056.02
BandDavidson: Iter:  39  Eband: -0.102731355703771  dEband: -3.236185e-06  t[s]:   3059.92
BandDavidson: Iter:  40  Eband: -0.102734154806445  dEband: -2.799103e-06  t[s]:   3063.75
BandDavidson: Iter:  41  Eband: -0.102736580478101  dEband: -2.425672e-06  t[s]:   3067.60
BandDavidson: Iter:  42  Eband: -0.102738675000872  dEband: -2.094523e-06  t[s]:   3071.35
BandDavidson: Iter:  43  Eband: -0.102740504376610  dEband: -1.829376e-06  t[s]:   3075.15
BandDavidson: Iter:  44  Eband: -0.102742105470307  dEband: -1.601094e-06  t[s]:   3078.89
BandDavidson: Iter:  45  Eband: -0.102743505303842  dEband: -1.399834e-06  t[s]:   3082.56
BandDavidson: Iter:  46  Eband: -0.102744730384397  dEband: -1.225081e-06  t[s]:   3086.19
BandDavidson: Iter:  47  Eband: -0.102745805845452  dEband: -1.075461e-06  t[s]:   3089.82
BandDavidson: Iter:  48  Eband: -0.102746749493496  dEband: -9.436480e-07  t[s]:   3093.38
BandDavidson: Iter:  49  Eband: -0.102747577547636  dEband: -8.280541e-07  t[s]:   3096.92
BandDavidson: Iter:  50  Eband: -0.102748303007418  dEband: -7.254598e-07  t[s]:   3100.34
BandDavidson: Iter:  51  Eband: -0.102748941767943  dEband: -6.387605e-07  t[s]:   3103.86
BandDavidson: Iter:  52  Eband: -0.102749505467484  dEband: -5.636995e-07  t[s]:   3107.33
BandDavidson: Iter:  53  Eband: -0.102750003792001  dEband: -4.983245e-07  t[s]:   3110.71
BandDavidson: Iter:  54  Eband: -0.102750444238285  dEband: -4.404463e-07  t[s]:   3114.07
BandDavidson: Iter:  55  Eband: -0.102750833189789  dEband: -3.889515e-07  t[s]:   3117.48
BandDavidson: Iter:  56  Eband: -0.102751177309089  dEband: -3.441193e-07  t[s]:   3120.80
BandDavidson: Iter:  57  Eband: -0.102751481997907  dEband: -3.046888e-07  t[s]:   3124.05
BandDavidson: Iter:  58  Eband: -0.102751752242687  dEband: -2.702448e-07  t[s]:   3127.25
BandDavidson: Iter:  59  Eband: -0.102751992003062  dEband: -2.397604e-07  t[s]:   3130.46
BandDavidson: Iter:  60  Eband: -0.102752203474647  dEband: -2.114716e-07  t[s]:   3133.58
BandDavidson: Iter:  61  Eband: -0.102752391136231  dEband: -1.876616e-07  t[s]:   3136.66
BandDavidson: Iter:  62  Eband: -0.102752557307980  dEband: -1.661717e-07  t[s]:   3139.76
BandDavidson: Iter:  63  Eband: -0.102752704893588  dEband: -1.475856e-07  t[s]:   3142.74
BandDavidson: Iter:  64  Eband: -0.102752835628571  dEband: -1.307350e-07  t[s]:   3145.72
BandDavidson: Iter:  65  Eband: -0.102752951994302  dEband: -1.163657e-07  t[s]:   3148.63
BandDavidson: Iter:  66  Eband: -0.102753055249352  dEband: -1.032551e-07  t[s]:   3151.57
BandDavidson: Iter:  67  Eband: -0.102753147287288  dEband: -9.203794e-08  t[s]:   3154.44
BandDavidson: Iter:  68  Eband: -0.102753229205017  dEband: -8.191773e-08  t[s]:   3157.30
[...]
BandDavidson: Iter:  43  Eband: -0.102787064216923  dEband: -2.171576e-06  t[s]:   3821.01
BandDavidson: Iter:  44  Eband: -0.102789002974403  dEband: -1.938757e-06  t[s]:   3824.77
BandDavidson: Iter:  45  Eband: -0.102790720033458  dEband: -1.717059e-06  t[s]:   3828.47
BandDavidson: Iter:  46  Eband: -0.102792243855563  dEband: -1.523822e-06  t[s]:   3832.19
BandDavidson: Iter:  47  Eband: -0.102793591023310  dEband: -1.347168e-06  t[s]:   3835.81
BandDavidson: Iter:  48  Eband: -0.102794780475756  dEband: -1.189452e-06  t[s]:   3839.35
BandDavidson: Iter:  49  Eband: -0.102795828299926  dEband: -1.047824e-06  t[s]:   3842.93
BandDavidson: Iter:  50  Eband: -0.102796755271445  dEband: -9.269715e-07  t[s]:   3846.40
BandDavidson: Iter:  51  Eband: -0.102797576608638  dEband: -8.213372e-07  t[s]:   3849.86
BandDavidson: Iter:  52  Eband: -0.102798306940955  dEband: -7.303323e-07  t[s]:   3853.19
BandDavidson: Iter:  53  Eband: -0.102798954972239  dEband: -6.480313e-07  t[s]:   3856.49
BandDavidson: Iter:  54  Eband: -0.102799531922865  dEband: -5.769506e-07  t[s]:   3859.77
BandDavidson: Iter:  55  Eband: -0.102800044445309  dEband: -5.125224e-07  t[s]:   3863.05
BandDavidson: Iter:  56  Eband: -0.102800501050390  dEband: -4.566051e-07  t[s]:   3866.29
BandDavidson: Iter:  57  Eband: -0.102800906667451  dEband: -4.056171e-07  t[s]:   3869.57
BandDavidson: Iter:  58  Eband: -0.102801267506242  dEband: -3.608388e-07  t[s]:   3872.79
BandDavidson: Iter:  59  Eband: -0.102801587448829  dEband: -3.199426e-07  t[s]:   3876.05
BandDavidson: Iter:  60  Eband: -0.102801871723059  dEband: -2.842742e-07  t[s]:   3879.25
BandDavidson: Iter:  61  Eband: -0.102802123547735  dEband: -2.518247e-07  t[s]:   3882.39
BandDavidson: Iter:  62  Eband: -0.102802346548013  dEband: -2.230003e-07  t[s]:   3885.58
BandDavidson: Iter:  63  Eband: -0.102802544109437  dEband: -1.975614e-07  t[s]:   3888.57
BandDavidson: Iter:  64  Eband: -0.102802719462452  dEband: -1.753530e-07  t[s]:   3891.51
BandDavidson: Iter:  65  Eband: -0.102802875110477  dEband: -1.556480e-07  t[s]:   3894.52
BandDavidson: Iter:  66  Eband: -0.102803013490690  dEband: -1.383802e-07  t[s]:   3897.46
BandDavidson: Iter:  67  Eband: -0.102803136257962  dEband: -1.227673e-07  t[s]:   3900.26
BandDavidson: Iter:  68  Eband: -0.102803245327332  dEband: -1.090694e-07  t[s]:   3903.02
BandDavidson: Iter:  69  Eband: -0.102803342360765  dEband: -9.703343e-08  t[s]:   3905.80
BandDavidson: Iter:  70  Eband: -0.102803428665908  dEband: -8.630514e-08  t[s]:   3908.64
BandDavidson: Iter:  71  Eband: -0.102803505502891  dEband: -7.683698e-08  t[s]:   3911.42
BandDavidson: Iter:  72  Eband: -0.102803573875140  dEband: -6.837225e-08  t[s]:   3914.20
BandDavidson: Iter:  73  Eband: -0.102803634726213  dEband: -6.085107e-08  t[s]:   3917.02
BandDavidson: Iter:  74  Eband: -0.102803688898051  dEband: -5.417184e-08  t[s]:   3919.83
BandDavidson: Iter:  75  Eband: -0.102803737166542  dEband: -4.826849e-08  t[s]:   3922.61
BandDavidson: Iter:  76  Eband: -0.102803780143146  dEband: -4.297660e-08  t[s]:   3925.41
BandDavidson: Iter:  77  Eband: -0.102803818461013  dEband: -3.831787e-08  t[s]:   3928.21
BandDavidson: Iter:  78  Eband: -0.102803852604871  dEband: -3.414386e-08  t[s]:   3931.08
BandDavidson: Iter:  79  Eband: -0.102803883070133  dEband: -3.046526e-08  t[s]:   3933.88
BandDavidson: Iter:  80  Eband: -0.102803910198433  dEband: -2.712830e-08  t[s]:   3936.69
BandDavidson: Iter:  81  Eband: -0.102803934388889  dEband: -2.419046e-08  t[s]:   3939.43
BandDavidson: Iter:  82  Eband: -0.102803955915908  dEband: -2.152702e-08  t[s]:   3942.17
BandDavidson: Iter:  83  Eband: -0.102803975094485  dEband: -1.917858e-08  t[s]:   3944.88
BandDavidson: Iter:  84  Eband: -0.102803992142942  dEband: -1.704846e-08  t[s]:   3947.60
BandDavidson: Iter:  85  Eband: -0.102804007314523  dEband: -1.517158e-08  t[s]:   3950.22
BandDavidson: Iter:  86  Eband: -0.102804020805396  dEband: -1.349087e-08  t[s]:   3952.88
BandDavidson: Iter:  87  Eband: -0.102804032832790  dEband: -1.202739e-08  t[s]:   3955.46
BandDavidson: Iter:  88  Eband: -0.102804043556345  dEband: -1.072355e-08  t[s]:   3958.10
BandDavidson: Iter:  89  Eband: -0.102804053116805  dEband: -9.560460e-09  t[s]:   3960.75
BandDavidson: Converged (dEband<1.000000e-08)

---- Minimization of quantum number:    11  [ +0.0000000 +0.3055556 +0.0000000 ]  0.004629630  spin +1 ----
BandDavidson: Iter:   0  Eband: -0.045572398770238
BandDavidson: Iter:   1  Eband: -0.079733495916358  dEband: -3.416110e-02  t[s]:   3970.05
BandDavidson: Iter:   2  Eband: -0.091268257135821  dEband: -1.153476e-02  t[s]:   3975.92
BandDavidson: Iter:   3  Eband: -0.095035326959395  dEband: -3.767070e-03  t[s]:   3981.78
BandDavidson: Iter:   4  Eband: -0.097264940680665  dEband: -2.229614e-03  t[s]:   3987.66
BandDavidson: Iter:   5  Eband: -0.098701817289861  dEband: -1.436877e-03  t[s]:   3993.56
BandDavidson: Iter:   6  Eband: -0.099695850332904  dEband: -9.940330e-04  t[s]:   3999.51
BandDavidson: Iter:   7  Eband: -0.100464716209287  dEband: -7.688659e-04  t[s]:   4005.43
BandDavidson: Iter:   8  Eband: -0.100994246518867  dEband: -5.295303e-04  t[s]:   4011.30
BandDavidson: Iter:   9  Eband: -0.101305497351234  dEband: -3.112508e-04  t[s]:   4017.22
BandDavidson: Iter:  10  Eband: -0.101524496166889  dEband: -2.189988e-04  t[s]:   4023.25
BandDavidson: Iter:  11  Eband: -0.101771609494502  dEband: -2.471133e-04  t[s]:   4029.16
BandDavidson: Iter:  12  Eband: -0.101953823445813  dEband: -1.822140e-04  t[s]:   4035.10
BandDavidson: Iter:  13  Eband: -0.102113510576250  dEband: -1.596871e-04  t[s]:   4041.03
BandDavidson: Iter:  14  Eband: -0.102250724519234  dEband: -1.372139e-04  t[s]:   4047.08
BandDavidson: Iter:  15  Eband: -0.102344287720194  dEband: -9.356320e-05  t[s]:   4053.05
BandDavidson: Iter:  16  Eband: -0.102414984048258  dEband: -7.069633e-05  t[s]:   4059.00
BandDavidson: Iter:  17  Eband: -0.102468030565426  dEband: -5.304652e-05  t[s]:   4064.91
BandDavidson: Iter:  18  Eband: -0.102511762584819  dEband: -4.373202e-05  t[s]:   4070.82
BandDavidson: Iter:  19  Eband: -0.102547005464190  dEband: -3.524288e-05  t[s]:   4076.76
BandDavidson: Iter:  20  Eband: -0.102577525236702  dEband: -3.051977e-05  t[s]:   4082.65
BandDavidson: Iter:  21  Eband: -0.102607147341987  dEband: -2.962211e-05  t[s]:   4088.59
BandDavidson: Iter:  22  Eband: -0.102634333857497  dEband: -2.718652e-05  t[s]:   4094.44
BandDavidson: Iter:  23  Eband: -0.102657720411437  dEband: -2.338655e-05  t[s]:   4100.30
BandDavidson: Iter:  24  Eband: -0.102677610639774  dEband: -1.989023e-05  t[s]:   4106.06
BandDavidson: Iter:  25  Eband: -0.102694538662590  dEband: -1.692802e-05  t[s]:   4111.70
BandDavidson: Iter:  26  Eband: -0.102709214567433  dEband: -1.467590e-05  t[s]:   4117.35
BandDavidson: Iter:  27  Eband: -0.102722043196511  dEband: -1.282863e-05  t[s]:   4123.00
BandDavidson: Iter:  28  Eband: -0.102733846584666  dEband: -1.180339e-05  t[s]:   4128.43
BandDavidson: Iter:  29  Eband: -0.102747097613391  dEband: -1.325103e-05  t[s]:   4133.76
BandDavidson: Iter:  30  Eband: -0.102763279870054  dEband: -1.618226e-05  t[s]:   4138.94
BandDavidson: Iter:  31  Eband: -0.102777977450163  dEband: -1.469758e-05  t[s]:   4143.90
BandDavidson: Iter:  32  Eband: -0.102790366726454  dEband: -1.238928e-05  t[s]:   4148.65
BandDavidson: Iter:  33  Eband: -0.102800588186267  dEband: -1.022146e-05  t[s]:   4153.01
BandDavidson: Iter:  34  Eband: -0.102809163612038  dEband: -8.575426e-06  t[s]:   4157.20
BandDavidson: Iter:  35  Eband: -0.102816353862246  dEband: -7.190250e-06  t[s]:   4161.30
BandDavidson: Iter:  36  Eband: -0.102822279603345  dEband: -5.925741e-06  t[s]:   4165.30
BandDavidson: Iter:  37  Eband: -0.102827147074376  dEband: -4.867471e-06  t[s]:   4169.32
BandDavidson: Iter:  38  Eband: -0.102831213996950  dEband: -4.066923e-06  t[s]:   4173.28
BandDavidson: Iter:  39  Eband: -0.102834651183083  dEband: -3.437186e-06  t[s]:   4177.15
BandDavidson: Iter:  40  Eband: -0.102837568840232  dEband: -2.917657e-06  t[s]:   4181.08
BandDavidson: Iter:  41  Eband: -0.102840051763278  dEband: -2.482923e-06  t[s]:   4184.90
BandDavidson: Iter:  42  Eband: -0.102842169676105  dEband: -2.117913e-06  t[s]:   4188.63
BandDavidson: Iter:  43  Eband: -0.102843985863205  dEband: -1.816187e-06  t[s]:   4192.40
BandDavidson: Iter:  44  Eband: -0.102845557637822  dEband: -1.571775e-06  t[s]:   4196.20
BandDavidson: Iter:  45  Eband: -0.102846916243102  dEband: -1.358605e-06  t[s]:   4199.93
BandDavidson: Iter:  46  Eband: -0.102848094069584  dEband: -1.177826e-06  t[s]:   4203.65
BandDavidson: Iter:  47  Eband: -0.102849111365835  dEband: -1.017296e-06  t[s]:   4207.26
BandDavidson: Iter:  48  Eband: -0.102849991050397  dEband: -8.796846e-07  t[s]:   4210.78
BandDavidson: Iter:  49  Eband: -0.102850748291876  dEband: -7.572415e-07  t[s]:   4214.30
BandDavidson: Iter:  50  Eband: -0.102851400258899  dEband: -6.519670e-07  t[s]:   4217.74
BandDavidson: Iter:  51  Eband: -0.102851966109012  dEband: -5.658501e-07  t[s]:   4221.15
BandDavidson: Iter:  52  Eband: -0.102852455861474  dEband: -4.897525e-07  t[s]:   4224.52
BandDavidson: Iter:  53  Eband: -0.102852882905627  dEband: -4.270442e-07  t[s]:   4227.76
BandDavidson: Iter:  54  Eband: -0.102853254943478  dEband: -3.720379e-07  t[s]:   4231.15
BandDavidson: Iter:  55  Eband: -0.102853581692782  dEband: -3.267493e-07  t[s]:   4234.51
BandDavidson: Iter:  56  Eband: -0.102853867406439  dEband: -2.857137e-07  t[s]:   4237.83
BandDavidson: Iter:  57  Eband: -0.102854118665574  dEband: -2.512591e-07  t[s]:   4241.12
BandDavidson: Iter:  58  Eband: -0.102854337605322  dEband: -2.189397e-07  t[s]:   4244.37
BandDavidson: Iter:  59  Eband: -0.102854529261595  dEband: -1.916563e-07  t[s]:   4247.60
BandDavidson: Iter:  60  Eband: -0.102854696724057  dEband: -1.674625e-07  t[s]:   4250.86
BandDavidson: Iter:  61  Eband: -0.102854843570457  dEband: -1.468464e-07  t[s]:   4254.03
BandDavidson: Iter:  62  Eband: -0.102854971389961  dEband: -1.278195e-07  t[s]:   4257.24
BandDavidson: Iter:  63  Eband: -0.102855082965208  dEband: -1.115752e-07  t[s]:   4260.34
BandDavidson: Iter:  64  Eband: -0.102855179884292  dEband: -9.691908e-08  t[s]:   4263.48
BandDavidson: Iter:  65  Eband: -0.102855264538784  dEband: -8.465449e-08  t[s]:   4266.50
BandDavidson: Iter:  66  Eband: -0.102855338287233  dEband: -7.374845e-08  t[s]:   4269.39
BandDavidson: Iter:  67  Eband: -0.102855402687303  dEband: -6.440007e-08  t[s]:   4272.20
BandDavidson: Iter:  68  Eband: -0.102855459054604  dEband: -5.636730e-08  t[s]:   4275.11
BandDavidson: Iter:  69  Eband: -0.102855508254694  dEband: -4.920009e-08  t[s]:   4278.02
BandDavidson: Iter:  70  Eband: -0.102855551302298  dEband: -4.304760e-08  t[s]:   4280.84
BandDavidson: Iter:  71  Eband: -0.102855588846848  dEband: -3.754455e-08  t[s]:   4283.64
BandDavidson: Iter:  72  Eband: -0.102855621745540  dEband: -3.289869e-08  t[s]:   4286.44
BandDavidson: Iter:  73  Eband: -0.102855650584117  dEband: -2.883858e-08  t[s]:   4289.22
BandDavidson: Iter:  74  Eband: -0.102855675908403  dEband: -2.532429e-08  t[s]:   4292.03
BandDavidson: Iter:  75  Eband: -0.102855698146914  dEband: -2.223851e-08  t[s]:   4294.79
BandDavidson: Iter:  76  Eband: -0.102855717677555  dEband: -1.953064e-08  t[s]:   4297.55
BandDavidson: Iter:  77  Eband: -0.102855734818951  dEband: -1.714140e-08  t[s]:   4300.34
BandDavidson: Iter:  78  Eband: -0.102855749881887  dEband: -1.506294e-08  t[s]:   4303.12
BandDavidson: Iter:  79  Eband: -0.102855763108224  dEband: -1.322634e-08  t[s]:   4305.87
BandDavidson: Iter:  80  Eband: -0.102855774732358  dEband: -1.162413e-08  t[s]:   4308.68
BandDavidson: Iter:  81  Eband: -0.102855784957402  dEband: -1.022504e-08  t[s]:   4311.57
BandDavidson: Iter:  82  Eband: -0.102855793953423  dEband: -8.996021e-09  t[s]:   4314.38
BandDavidson: Converged (dEband<1.000000e-08)

---- Minimization of quantum number:    12  [ +0.0000000 +0.3333333 +0.0000000 ]  0.004629630  spin +1 ----
BandDavidson: Iter:   0  Eband: -0.045840482367428
BandDavidson: Iter:   1  Eband: -0.079857115020061  dEband: -3.401663e-02  t[s]:   4323.87
BandDavidson: Iter:   2  Eband: -0.091218807765530  dEband: -1.136169e-02  t[s]:   4329.89
BandDavidson: Iter:   3  Eband: -0.095071191434600  dEband: -3.852384e-03  t[s]:   4335.68
BandDavidson: Iter:   4  Eband: -0.096923366360354  dEband: -1.852175e-03  t[s]:   4341.64
BandDavidson: Iter:   5  Eband: -0.098072072237297  dEband: -1.148706e-03  t[s]:   4347.51
BandDavidson: Iter:   6  Eband: -0.099267796697193  dEband: -1.195724e-03  t[s]:   4353.43
BandDavidson: Iter:   7  Eband: -0.099951601371317  dEband: -6.838047e-04  t[s]:   4359.39
BandDavidson: Iter:   8  Eband: -0.100429042372976  dEband: -4.774410e-04  t[s]:   4365.33
BandDavidson: Iter:   9  Eband: -0.100798391087614  dEband: -3.693487e-04  t[s]:   4371.17
BandDavidson: Iter:  10  Eband: -0.101158810109150  dEband: -3.604190e-04  t[s]:   4377.09
BandDavidson: Iter:  11  Eband: -0.101480054573024  dEband: -3.212445e-04  t[s]:   4383.04
BandDavidson: Iter:  12  Eband: -0.101751578057261  dEband: -2.715235e-04  t[s]:   4389.04
BandDavidson: Iter:  13  Eband: -0.102009017740632  dEband: -2.574397e-04  t[s]:   4394.94
BandDavidson: Iter:  14  Eband: -0.102197074233553  dEband: -1.880565e-04  t[s]:   4400.82
BandDavidson: Iter:  15  Eband: -0.102323684723342  dEband: -1.266105e-04  t[s]:   4406.79
BandDavidson: Iter:  16  Eband: -0.102410386241386  dEband: -8.670152e-05  t[s]:   4412.73
BandDavidson: Iter:  17  Eband: -0.102489216649546  dEband: -7.883041e-05  t[s]:   4418.70
BandDavidson: Iter:  18  Eband: -0.102554008332371  dEband: -6.479168e-05  t[s]:   4424.59
BandDavidson: Iter:  19  Eband: -0.102606625439291  dEband: -5.261711e-05  t[s]:   4430.54
BandDavidson: Iter:  20  Eband: -0.102649211069556  dEband: -4.258563e-05  t[s]:   4436.46
BandDavidson: Iter:  21  Eband: -0.102683496780286  dEband: -3.428571e-05  t[s]:   4442.26
BandDavidson: Iter:  22  Eband: -0.102710895070153  dEband: -2.739829e-05  t[s]:   4448.17
BandDavidson: Iter:  23  Eband: -0.102733480781279  dEband: -2.258571e-05  t[s]:   4454.03
BandDavidson: Iter:  24  Eband: -0.102757509905150  dEband: -2.402912e-05  t[s]:   4459.94
BandDavidson: Iter:  25  Eband: -0.102786304361473  dEband: -2.879446e-05  t[s]:   4465.58
BandDavidson: Iter:  26  Eband: -0.102809328132601  dEband: -2.302377e-05  t[s]:   4471.09
BandDavidson: Iter:  27  Eband: -0.102828288606250  dEband: -1.896047e-05  t[s]:   4476.55
BandDavidson: Iter:  28  Eband: -0.102843476971235  dEband: -1.518836e-05  t[s]:   4481.96
BandDavidson: Iter:  29  Eband: -0.102855676463789  dEband: -1.219949e-05  t[s]:   4487.29
BandDavidson: Iter:  30  Eband: -0.102865551544415  dEband: -9.875081e-06  t[s]:   4492.40
BandDavidson: Iter:  31  Eband: -0.102873543403581  dEband: -7.991859e-06  t[s]:   4497.31
BandDavidson: Iter:  32  Eband: -0.102880320467813  dEband: -6.777064e-06  t[s]:   4501.98
BandDavidson: Iter:  33  Eband: -0.102885971408065  dEband: -5.650940e-06  t[s]:   4506.34
BandDavidson: Iter:  34  Eband: -0.102890639026391  dEband: -4.667618e-06  t[s]:   4510.45
BandDavidson: Iter:  35  Eband: -0.102894500874204  dEband: -3.861848e-06  t[s]:   4514.62
BandDavidson: Iter:  36  Eband: -0.102897726396028  dEband: -3.225522e-06  t[s]:   4518.57
BandDavidson: Iter:  37  Eband: -0.102900434116275  dEband: -2.707720e-06  t[s]:   4522.59
BandDavidson: Iter:  38  Eband: -0.102902732005312  dEband: -2.297889e-06  t[s]:   4526.55
BandDavidson: Iter:  39  Eband: -0.102904711976446  dEband: -1.979971e-06  t[s]:   4530.48
BandDavidson: Iter:  40  Eband: -0.102906416846350  dEband: -1.704870e-06  t[s]:   4534.37
BandDavidson: Iter:  41  Eband: -0.102907890315020  dEband: -1.473469e-06  t[s]:   4538.30
BandDavidson: Iter:  42  Eband: -0.102909148502561  dEband: -1.258188e-06  t[s]:   4542.13
BandDavidson: Iter:  43  Eband: -0.102910218036429  dEband: -1.069534e-06  t[s]:   4545.94
BandDavidson: Iter:  44  Eband: -0.102911128904463  dEband: -9.108680e-07  t[s]:   4549.67
BandDavidson: Iter:  45  Eband: -0.102911912612399  dEband: -7.837079e-07  t[s]:   4553.45
BandDavidson: Iter:  46  Eband: -0.102912588259553  dEband: -6.756472e-07  t[s]:   4557.07
BandDavidson: Iter:  47  Eband: -0.102913174261393  dEband: -5.860018e-07  t[s]:   4560.69
BandDavidson: Iter:  48  Eband: -0.102913681386761  dEband: -5.071254e-07  t[s]:   4564.35
BandDavidson: Iter:  49  Eband: -0.102914123995250  dEband: -4.426085e-07  t[s]:   4567.91
BandDavidson: Iter:  50  Eband: -0.102914507772217  dEband: -3.837770e-07  t[s]:   4571.43
BandDavidson: Iter:  51  Eband: -0.102914842569954  dEband: -3.347977e-07  t[s]:   4574.82
BandDavidson: Iter:  52  Eband: -0.102915134161200  dEband: -2.915912e-07  t[s]:   4578.20
BandDavidson: Iter:  53  Eband: -0.102915389536118  dEband: -2.553749e-07  t[s]:   4581.54
BandDavidson: Iter:  54  Eband: -0.102915614322864  dEband: -2.247867e-07  t[s]:   4584.87
BandDavidson: Iter:  55  Eband: -0.102915813455151  dEband: -1.991323e-07  t[s]:   4588.14
BandDavidson: Iter:  56  Eband: -0.102915990628744  dEband: -1.771736e-07  t[s]:   4591.44
BandDavidson: Iter:  57  Eband: -0.102916148208691  dEband: -1.575799e-07  t[s]:   4594.72
BandDavidson: Iter:  58  Eband: -0.102916288932743  dEband: -1.407241e-07  t[s]:   4597.94
BandDavidson: Iter:  59  Eband: -0.102916414122310  dEband: -1.251896e-07  t[s]:   4601.15
BandDavidson: Iter:  60  Eband: -0.102916525750613  dEband: -1.116283e-07  t[s]:   4604.43
BandDavidson: Iter:  61  Eband: -0.102916625381045  dEband: -9.963043e-08  t[s]:   4607.67
BandDavidson: Iter:  62  Eband: -0.102916713905334  dEband: -8.852429e-08  t[s]:   4610.77
BandDavidson: Iter:  63  Eband: -0.102916792145295  dEband: -7.823996e-08  t[s]:   4613.89
BandDavidson: Iter:  64  Eband: -0.102916862207127  dEband: -7.006183e-08  t[s]:   4616.94
BandDavidson: Iter:  65  Eband: -0.102916924760846  dEband: -6.255372e-08  t[s]:   4620.08
BandDavidson: Iter:  66  Eband: -0.102916980815394  dEband: -5.605455e-08  t[s]:   4623.05
BandDavidson: Iter:  67  Eband: -0.102917030837084  dEband: -5.002169e-08  t[s]:   4625.94
BandDavidson: Iter:  68  Eband: -0.102917075405344  dEband: -4.456826e-08  t[s]:   4628.89
BandDavidson: Iter:  69  Eband: -0.102917115282650  dEband: -3.987731e-08  t[s]:   4631.77
BandDavidson: Iter:  70  Eband: -0.102917151145922  dEband: -3.586327e-08  t[s]:   4634.66
BandDavidson: Iter:  71  Eband: -0.102917183383871  dEband: -3.223795e-08  t[s]:   4637.52
BandDavidson: Iter:  72  Eband: -0.102917212330145  dEband: -2.894627e-08  t[s]:   4640.37
BandDavidson: Iter:  73  Eband: -0.102917238294999  dEband: -2.596485e-08  t[s]:   4643.23
BandDavidson: Iter:  74  Eband: -0.102917261627715  dEband: -2.333272e-08  t[s]:   4646.13
BandDavidson: Iter:  75  Eband: -0.102917282638442  dEband: -2.101073e-08  t[s]:   4648.98
BandDavidson: Iter:  76  Eband: -0.102917301487670  dEband: -1.884923e-08  t[s]:   4651.82
BandDavidson: Iter:  77  Eband: -0.102917318334815  dEband: -1.684714e-08  t[s]:   4654.56
BandDavidson: Iter:  78  Eband: -0.102917333480150  dEband: -1.514534e-08  t[s]:   4657.41
BandDavidson: Iter:  79  Eband: -0.102917347072695  dEband: -1.359254e-08  t[s]:   4660.20
BandDavidson: Iter:  80  Eband: -0.102917359281690  dEband: -1.220900e-08  t[s]:   4663.02
BandDavidson: Iter:  81  Eband: -0.102917370215118  dEband: -1.093343e-08  t[s]:   4665.81
BandDavidson: Iter:  82  Eband: -0.102917380031405  dEband: -9.816287e-09  t[s]:   4668.64
BandDavidson: Converged (dEband<1.000000e-08)
Setting wave functions to eigenvectors of Hamiltonian
	FillingsUpdate:  mu: -0.058703024  nElectrons: 121.000000  magneticMoment: [ Abs: 0.15332  Tot: +0.15278 ]

Dumping 'Rb-0.322.dosUp' ... done.
Dumping 'Rb-0.322.dosDn' ... done.
End date and time: Sat Apr  2 15:57:04 2022  (Duration: 0-1:36:43.23)
Done!
