CRYSTAL
PRIMVEC
 10.006688   0.000000   0.000000
 -5.003355   8.666070   0.000000
  0.000000   0.000000  21.167088
PRIMCOORD
32 1
 6   0.000000   0.000000   0.000000
 7  -0.000002   1.444345   0.000000
 7  -1.250840   3.610863   0.000000
 7  -2.501679   5.777380   0.000000
 7  -3.752518   7.943898   0.000000
 7   2.501670   1.444345   0.000000
 7   1.250832   3.610863   0.000000
 7  -0.000007   5.777380   0.000000
 7  -1.250846   7.943898   0.000000
 7   5.003342   1.444345   0.000000
 7   3.752504   3.610863   0.000000
 7   2.501665   5.777380   0.000000
 7   1.250826   7.943898   0.000000
 7   7.505014   1.444345   0.000000
 7   6.254176   3.610863   0.000000
 7   5.003337   5.777380   0.000000
 7   3.752498   7.943898   0.000000
 5  -1.250839   2.166518   0.000000
 5  -2.501677   4.333035   0.000000
 5  -3.752516   6.499553   0.000000
 5   2.501672   0.000000   0.000000
 5   1.250833   2.166518   0.000000
 5  -0.000005   4.333035   0.000000
 5  -1.250844   6.499553   0.000000
 5   5.003344   0.000000   0.000000
 5   3.752505   2.166518   0.000000
 5   2.501667   4.333035   0.000000
 5   1.250828   6.499553   0.000000
 5   7.505016   0.000000   0.000000
 5   6.254177   2.166518   0.000000
 5   5.003339   4.333035   0.000000
 5   3.752500   6.499553   0.000000
