--------------------------------------------------------------------------
The library attempted to open the following supporting CUDA libraries,
but each of them failed.  CUDA-aware support is disabled.
libcuda.so.1: cannot open shared object file: No such file or directory
libcuda.dylib: cannot open shared object file: No such file or directory
/usr/lib64/libcuda.so.1: cannot open shared object file: No such file or directory
/usr/lib64/libcuda.dylib: cannot open shared object file: No such file or directory
If you are not interested in CUDA-aware support, then run with
--mca opal_warn_on_missing_libcuda 0 to suppress this message.  If you are interested
in CUDA-aware support, then try setting LD_LIBRARY_PATH to the location
of libcuda.so.1 to get passed this issue.
--------------------------------------------------------------------------
--------------------------------------------------------------------------
No OpenFabrics connection schemes reported that they were able to be
used on a specific port.  As such, the openib BTL (OpenFabrics
support) will be disabled for this port.

  Local host:           d-3-7-1
  Local device:         mlx5_1
  Local port:           1
  CPCs attempted:       rdmacm, udcm
--------------------------------------------------------------------------

*************** JDFTx 1.6.0 (git hash 42ebbcc2) ***************

Start date and time: Fri Feb  4 13:14:14 2022
Executable jdftx with command-line: -i BN44BC.in
Running on hosts (process indices):  d-3-7-1 (0-37)
Divided in process groups (process indices):  0 (0)  1 (1)  2 (2)  3 (3)  4 (4)  5 (5)  6 (6)  7 (7)  8 (8)  9 (9)  10 (10)  11 (11)  12 (12)  13 (13)  14 (14)  15 (15)  16 (16)  17 (17)  18 (18)  19 (19)  20 (20)  21 (21)  22 (22)  23 (23)  24 (24)  25 (25)  26 (26)  27 (27)  28 (28)  29 (29)  30 (30)  31 (31)  32 (32)  33 (33)  34 (34)  35 (35)  36 (36)  37 (37)
Resource initialization completed at t[s]:      0.03
Run totals: 38 processes, 48 threads, 0 GPUs


Input parsed successfully to the following command list (including defaults):

basis kpoint-dependent
coords-type Lattice
core-overlap-check vector
coulomb-interaction Slab 001
davidson-band-ratio 1.1
dump End State ElecDensity BandEigs
dump-name $INPUT.$VAR
elec-cutoff 20
elec-eigen-algo Davidson
elec-ex-corr gga-PBE
elec-initial-magnetization 1.000000 no
elec-smearing Fermi 1e-05
electronic-minimize  \
	dirUpdateScheme      FletcherReeves \
	linminMethod         DirUpdateRecommended \
	nIterations          100 \
	history              15 \
	knormThreshold       0 \
	energyDiffThreshold  1e-08 \
	nEnergyDiff          2 \
	alphaTstart          1 \
	alphaTmin            1e-10 \
	updateTestStepSize   yes \
	alphaTreduceFactor   0.1 \
	alphaTincreaseFactor 3 \
	nAlphaAdjustMax      3 \
	wolfeEnergy          0.0001 \
	wolfeGradient        0.9 \
	fdTest               no
electronic-scf  \
	nIterations	1000 \
	energyDiffThreshold	1e-08 \
	residualThreshold	1e-07 \
	mixFraction	0.5 \
	qMetric	0.8 \
	history	10 \
	nEigSteps	2 \
	eigDiffThreshold	1e-08 \
	mixedVariable	Density \
	qKerker	0.8 \
	qKappa	-1 \
	verbose	no \
	mixFractionMag	1.5
exchange-regularization WignerSeitzTruncated
fluid None
fluid-ex-corr (null) lda-PZ
fluid-gummel-loop 10 1.000000e-05
fluid-minimize  \
	dirUpdateScheme      PolakRibiere \
	linminMethod         DirUpdateRecommended \
	nIterations          100 \
	history              15 \
	knormThreshold       0 \
	energyDiffThreshold  0 \
	nEnergyDiff          2 \
	alphaTstart          1 \
	alphaTmin            1e-10 \
	updateTestStepSize   yes \
	alphaTreduceFactor   0.1 \
	alphaTincreaseFactor 3 \
	nAlphaAdjustMax      3 \
	wolfeEnergy          0.0001 \
	wolfeGradient        0.9 \
	fdTest               no
fluid-solvent H2O 55.338 ScalarEOS \
	epsBulk 78.4 \
	pMol 0.92466 \
	epsInf 1.77 \
	Pvap 1.06736e-10 \
	sigmaBulk 4.62e-05 \
	Rvdw 2.61727 \
	Res 1.42 \
	tauNuc 343133 \
	poleEl 15 7 1
forces-output-coords Positions
ion C   0.000000000000000  -0.000000000000000   0.000000000000000 1
ion N   0.081488770953256   0.162977541906513   0.000000000000000 1
ion N   0.083437716010442   0.415925900603108  -0.000000000000000 1
ion N   0.083437716010442   0.667511815407333  -0.000000000000000 1
ion N   0.081488770953256   0.918511229046744   0.000000000000000 1
ion N   0.333451623907151   0.166725811953576   0.000000000000000 1
ion N   0.332488184592666   0.415925900603108  -0.000000000000000 1
ion N   0.333333333333333   0.666666666666667   0.000000000000000 1
ion N   0.332488184592666   0.916562283989558   0.000000000000000 1
ion N   0.583264732268413   0.166529464536826   0.000000000000000 1
ion N   0.583264732268413   0.416735267731587   0.000000000000000 1
ion N   0.584074099396892   0.667511815407333  -0.000000000000000 1
ion N   0.584074099396892   0.916562283989558  -0.000000000000000 1
ion N   0.833274188046424   0.166725811953576   0.000000000000000 1
ion N   0.833470535463174   0.416735267731587   0.000000000000000 1
ion N   0.833274188046424   0.666548376092848   0.000000000000000 1
ion N   0.837022458093487   0.918511229046744   0.000000000000000 1
ion B  -0.000324097494066   0.248840286757891   0.000000000000000 1
ion B   0.000076971815959   0.500038485907980  -0.000000000000000 1
ion B  -0.000324097494066   0.750835615748042   0.000000000000000 1
ion B   0.249164384251958   0.000324097494066   0.000000000000000 1
ion B   0.249164384251958   0.248840286757891  -0.000000000000000 1
ion B   0.249990027813965   0.499980055627929   0.000000000000000 1
ion B   0.249990027813965   0.750009972186035   0.000000000000000 1
ion B   0.499961514092021  -0.000076971815959  -0.000000000000000 1
ion B   0.499932301328405   0.249966150664202   0.000000000000000 1
ion B   0.499961514092021   0.500038485907980  -0.000000000000000 1
ion B   0.500019944372071   0.750009972186035   0.000000000000000 1
ion B   0.751159713242109   0.000324097494066  -0.000000000000000 1
ion B   0.750033849335798   0.249966150664202   0.000000000000000 1
ion B   0.750033849335798   0.500067698671595   0.000000000000000 1
ion B   0.751159713242109   0.750835615748042  -0.000000000000000 1
ion-species SG15/$ID_ONCV_PBE.upf
ion-width 0
ionic-minimize  \
	dirUpdateScheme      L-BFGS \
	linminMethod         DirUpdateRecommended \
	nIterations          0 \
	history              15 \
	knormThreshold       0.0001 \
	energyDiffThreshold  1e-06 \
	nEnergyDiff          2 \
	alphaTstart          1 \
	alphaTmin            1e-10 \
	updateTestStepSize   yes \
	alphaTreduceFactor   0.1 \
	alphaTincreaseFactor 3 \
	nAlphaAdjustMax      3 \
	wolfeEnergy          0.0001 \
	wolfeGradient        0.9 \
	fdTest               no
kpoint   0.000000000000   0.000000000000   0.000000000000  1.00000000000000
kpoint-folding 12 12 1 
latt-move-scale 1 1 1
latt-scale 1 1 1 
lattice  \
	  18.868747447777626   -9.434373723888806    0.000000000000000  \
	  -0.000000000000000   16.340814627368207    0.000000000000000  \
	   0.000000000000000    0.000000000000000   40.000000000000000 
lattice-minimize  \
	dirUpdateScheme      L-BFGS \
	linminMethod         DirUpdateRecommended \
	nIterations          0 \
	history              15 \
	knormThreshold       0 \
	energyDiffThreshold  1e-06 \
	nEnergyDiff          2 \
	alphaTstart          1 \
	alphaTmin            1e-10 \
	updateTestStepSize   yes \
	alphaTreduceFactor   0.1 \
	alphaTincreaseFactor 3 \
	nAlphaAdjustMax      3 \
	wolfeEnergy          0.0001 \
	wolfeGradient        0.9 \
	fdTest               no
lcao-params -1 1e-06 1e-05
pcm-variant GLSSA13
spintype z-spin
subspace-rotation-factor 1 yes
symmetries automatic
symmetry-threshold 0.0001



---------- Setting up symmetries ----------

Found 24 point-group symmetries of the bravais lattice
Found 12 space-group symmetries with basis
Applied RMS atom displacement 8.94406e-15 bohrs to make symmetries exact.

---------- Initializing the Grid ----------
R = 
[      18.8687     -9.43437            0  ]
[            0      16.3408            0  ]
[            0            0           40  ]
unit cell volume = 12333.2
G =
[   0.332994   0.192254         -0  ]
[          0   0.384509         -0  ]
[         -0         -0    0.15708  ]
Minimum fftbox size, Smin = [  76  76  164  ]
Chosen fftbox size, S = [  80  80  168  ]

---------- Exchange Correlation functional ----------
Initalized PBE GGA exchange.
Initalized PBE GGA correlation.

---------- Setting up pseudopotentials ----------
Width of ionic core gaussian charges (only for fluid interactions / plotting) set to 0

Reading pseudopotential file '/home/gridsan/aligho/DFT/build-Nov24/pseudopotentials/SG15/C_ONCV_PBE.upf':
  'C' pseudopotential, 'PBE' functional
  Generated using ONCVPSP code by D. R. Hamann
  Author: Martin Schlipf and Francois Gygi  Date: 150915.
  4 valence electrons, 2 orbitals, 4 projectors, 1248 radial grid points, with lMax = 1
  Transforming local potential to a uniform radial grid of dG=0.02 with 1492 points.
  Transforming nonlocal projectors to a uniform radial grid of dG=0.02 with 432 points.
    2S    l: 0   occupation:  2.0   eigenvalue: -0.505335
    2P    l: 1   occupation:  2.0   eigenvalue: -0.194238
  Transforming atomic orbitals to a uniform radial grid of dG=0.02 with 432 points.
  Core radius for overlap checks: 1.23 bohrs.
  Reading pulay file /home/gridsan/aligho/DFT/build-Nov24/pseudopotentials/SG15/C_ONCV_PBE.pulay ... using dE_dnG = -9.239532e-03 computed for Ecut = 20.

Reading pseudopotential file '/home/gridsan/aligho/DFT/build-Nov24/pseudopotentials/SG15/N_ONCV_PBE.upf':
  'N' pseudopotential, 'PBE' functional
  Generated using ONCVPSP code by D. R. Hamann
  Author: Martin Schlipf and Francois Gygi  Date: 150915.
  5 valence electrons, 2 orbitals, 4 projectors, 1058 radial grid points, with lMax = 1
  Transforming local potential to a uniform radial grid of dG=0.02 with 1492 points.
  Transforming nonlocal projectors to a uniform radial grid of dG=0.02 with 432 points.
    2S    l: 0   occupation:  2.0   eigenvalue: -0.682907
    2P    l: 1   occupation:  3.0   eigenvalue: -0.260548
  Transforming atomic orbitals to a uniform radial grid of dG=0.02 with 432 points.
  Core radius for overlap checks: 1.35 bohrs.
  Reading pulay file /home/gridsan/aligho/DFT/build-Nov24/pseudopotentials/SG15/N_ONCV_PBE.pulay ... using dE_dnG = -2.956256e-02 computed for Ecut = 20.

Reading pseudopotential file '/home/gridsan/aligho/DFT/build-Nov24/pseudopotentials/SG15/B_ONCV_PBE.upf':
  'B' pseudopotential, 'PBE' functional
  Generated using ONCVPSP code by D. R. Hamann
  Author: Martin Schlipf and Francois Gygi  Date: 150915.
  3 valence electrons, 2 orbitals, 4 projectors, 1534 radial grid points, with lMax = 1
  Transforming local potential to a uniform radial grid of dG=0.02 with 1492 points.
  Transforming nonlocal projectors to a uniform radial grid of dG=0.02 with 432 points.
    2S    l: 0   occupation:  2.0   eigenvalue: -0.347027
    2P    l: 1   occupation:  1.0   eigenvalue: -0.132548
  Transforming atomic orbitals to a uniform radial grid of dG=0.02 with 432 points.
  Core radius for overlap checks: 1.60 bohrs.
  Reading pulay file /home/gridsan/aligho/DFT/build-Nov24/pseudopotentials/SG15/B_ONCV_PBE.pulay ... using dE_dnG = -3.748568e-04 computed for Ecut = 20.

Initialized 3 species with 32 total atoms.

Folded 1 k-points by 12x12x1 to 144 k-points.

---------- Setting up k-points, bands, fillings ----------
Adding inversion symmetry to k-mesh for non-inversion-symmetric unit cell.
Reduced to 19 k-points under symmetry. 
Computing the number of bands and number of electrons
Calculating initial fillings.
nElectrons: 129.000000   nBands: 128   nStates: 38

----- Setting up reduced wavefunction bases (one per k-point) -----
average nbasis = 52691.063 , ideal nbasis = 52688.491

---------- Setting up coulomb interaction ----------
Initialized slab truncation along lattice direction 001

---------- Setting up 2D ewald sum ----------
Optimum gaussian width for ewald sums = 10.475167 bohr.
Real space sums over 289 unit cells with max indices [  8  8  0  ]
Reciprocal space sums over 81 terms with max indices [  4  4  0  ]

---------- Allocating electronic variables ----------
Initializing wave functions:  linear combination of atomic orbitals
[d-3-7-1:13036] 37 more processes have sent help message help-mpi-common-cuda.txt / dlopen failed
[d-3-7-1:13036] Set MCA parameter "orte_base_help_aggregate" to 0 to see all help / error messages
[d-3-7-1:13036] 37 more processes have sent help message help-mpi-btl-openib-cpc-base.txt / no cpcs for port
C pseudo-atom occupations:   s ( 2 )  p ( 2 )
N pseudo-atom occupations:   s ( 2 )  p ( 3 )
B pseudo-atom occupations:   s ( 2 )  p ( 1 )
	FillingsUpdate:  mu: -0.195021077  nElectrons: 129.000000  magneticMoment: [ Abs: 1.08758  Tot: +1.00000 ]
LCAOMinimize: Iter:   0  F: -205.0343056428072259  |grad|_K:  3.483e-03  alpha:  1.000e+00
	FillingsUpdate:  mu: -0.237585541  nElectrons: 129.000000  magneticMoment: [ Abs: 1.08235  Tot: +1.00000 ]
LCAOMinimize: Iter:   1  F: -206.2689204255571553  |grad|_K:  8.921e-04  alpha:  4.176e-01  linmin:  1.165e-01  cgtest: -6.584e-01  t[s]:     77.87
	FillingsUpdate:  mu: -0.179658589  nElectrons: 129.000000  magneticMoment: [ Abs: 1.08391  Tot: +1.00000 ]
LCAOMinimize: Iter:   2  F: -206.2935525555753884  |grad|_K:  5.851e-04  alpha:  2.139e-01  linmin:  1.387e-02  cgtest:  8.288e-01  t[s]:    102.13
LCAOMinimize: Encountered beta<0, resetting CG.
	FillingsUpdate:  mu: -0.157105721  nElectrons: 129.000000  magneticMoment: [ Abs: 1.08962  Tot: +1.00000 ]
LCAOMinimize: Iter:   3  F: -206.3314877097791111  |grad|_K:  1.100e-04  alpha:  3.495e-01  linmin: -5.154e-03  cgtest: -2.603e-02  t[s]:    126.30
	FillingsUpdate:  mu: -0.161001539  nElectrons: 129.000000  magneticMoment: [ Abs: 1.09228  Tot: +1.00000 ]
LCAOMinimize: Iter:   4  F: -206.3328185090101670  |grad|_K:  9.273e-06  alpha:  3.460e-01  linmin:  3.624e-02  cgtest: -1.160e-02  t[s]:    150.50
	FillingsUpdate:  mu: -0.161080740  nElectrons: 129.000000  magneticMoment: [ Abs: 1.09526  Tot: +1.00000 ]
LCAOMinimize: Iter:   5  F: -206.3328380565597513  |grad|_K:  6.429e-06  alpha:  7.261e-01  linmin: -4.152e-04  cgtest:  2.237e-02  t[s]:    174.75
	FillingsUpdate:  mu: -0.160701478  nElectrons: 129.000000  magneticMoment: [ Abs: 1.09728  Tot: +1.00000 ]
LCAOMinimize: Iter:   6  F: -206.3328450341938947  |grad|_K:  2.489e-06  alpha:  5.343e-01  linmin: -5.972e-04  cgtest: -2.346e-02  t[s]:    198.98
	FillingsUpdate:  mu: -0.160756218  nElectrons: 129.000000  magneticMoment: [ Abs: 1.09762  Tot: +1.00000 ]
LCAOMinimize: Iter:   7  F: -206.3328459249908349  |grad|_K:  6.875e-07  alpha:  4.544e-01  linmin: -9.236e-05  cgtest: -2.615e-03  t[s]:    223.13
	FillingsUpdate:  mu: -0.160753647  nElectrons: 129.000000  magneticMoment: [ Abs: 1.09753  Tot: +1.00000 ]
LCAOMinimize: Iter:   8  F: -206.3328460102044062  |grad|_K:  3.562e-07  alpha:  5.703e-01  linmin: -5.131e-04  cgtest:  1.243e-03  t[s]:    247.72
LCAOMinimize: Converged (|Delta F|<1.000000e-06 for 2 iters).


---- Citations for features of the code used in this run ----

   Software package:
      R. Sundararaman, K. Letchworth-Weaver, K.A. Schwarz, D. Gunceler, Y. Ozhabes and T.A. Arias, 'JDFTx: software for joint density-functional theory', SoftwareX 6, 278 (2017)

   gga-PBE exchange-correlation functional:
      J.P. Perdew, K. Burke and M. Ernzerhof, Phys. Rev. Lett. 77, 3865 (1996)

   Pseudopotentials:
      M Schlipf and F Gygi, Comput. Phys. Commun. 196, 36 (2015)

   Truncated Coulomb potentials:
      R. Sundararaman and T.A. Arias, Phys. Rev. B 87, 165122 (2013)

This list may not be complete. Please suggest additional citations or
report any other bugs at https://github.com/shankar1729/jdftx/issues

Initialization completed successfully at t[s]:    250.53


-------- Electronic minimization -----------
Will mix electronic density at each iteration.
	FillingsUpdate:  mu: -0.160753647  nElectrons: 129.000000  magneticMoment: [ Abs: 1.09753  Tot: +1.00000 ]
	FillingsUpdate:  mu: -0.174180141  nElectrons: 129.000000  magneticMoment: [ Abs: 1.09753  Tot: +1.00000 ]
SCF: Cycle:  0   F: -207.954808280169289   dF: -1.622e+00   |Residual|: 4.433e-01   |deigs|: 1.154e-01  t[s]:    322.15
	FillingsUpdate:  mu: -0.152015628  nElectrons: 129.000000  magneticMoment: [ Abs: 1.14905  Tot: +1.00000 ]
SCF: Cycle:  1   F: -208.020172146465541   dF: -6.536e-02   |Residual|: 2.475e-01   |deigs|: 2.495e-02  t[s]:    375.63
	FillingsUpdate:  mu: -0.122365800  nElectrons: 129.000000  magneticMoment: [ Abs: 1.16619  Tot: +1.00000 ]
SCF: Cycle:  2   F: -208.064129597867009   dF: -4.396e-02   |Residual|: 5.429e-02   |deigs|: 2.897e-02  t[s]:    429.28
	FillingsUpdate:  mu: -0.119200981  nElectrons: 129.000000  magneticMoment: [ Abs: 1.16490  Tot: +1.00000 ]
SCF: Cycle:  3   F: -208.065513314598945   dF: -1.384e-03   |Residual|: 3.034e-02   |deigs|: 7.327e-03  t[s]:    483.07
	FillingsUpdate:  mu: -0.108306639  nElectrons: 129.000000  magneticMoment: [ Abs: 1.14141  Tot: +1.00000 ]
SCF: Cycle:  4   F: -208.067932790491341   dF: -2.419e-03   |Residual|: 1.667e-02   |deigs|: 9.753e-03  t[s]:    537.13
	FillingsUpdate:  mu: -0.103266690  nElectrons: 129.000000  magneticMoment: [ Abs: 1.15134  Tot: +1.00000 ]
SCF: Cycle:  5   F: -208.068548026481551   dF: -6.152e-04   |Residual|: 1.253e-02   |deigs|: 4.289e-03  t[s]:    590.98
	FillingsUpdate:  mu: -0.097395106  nElectrons: 129.000000  magneticMoment: [ Abs: 1.14603  Tot: +1.00000 ]
SCF: Cycle:  6   F: -208.068745573451480   dF: -1.975e-04   |Residual|: 7.894e-03   |deigs|: 5.299e-03  t[s]:    644.95
	FillingsUpdate:  mu: -0.092873897  nElectrons: 129.000000  magneticMoment: [ Abs: 1.14400  Tot: +1.00000 ]
SCF: Cycle:  7   F: -208.068697960204361   dF: +4.761e-05   |Residual|: 6.431e-03   |deigs|: 5.820e-03  t[s]:    699.17
	FillingsUpdate:  mu: -0.088749605  nElectrons: 129.000000  magneticMoment: [ Abs: 1.14668  Tot: +1.00000 ]
SCF: Cycle:  8   F: -208.068807250931059   dF: -1.093e-04   |Residual|: 5.131e-03   |deigs|: 4.043e-03  t[s]:    753.40
	FillingsUpdate:  mu: -0.085686322  nElectrons: 129.000000  magneticMoment: [ Abs: 1.14296  Tot: +1.00000 ]
SCF: Cycle:  9   F: -208.068892967390724   dF: -8.572e-05   |Residual|: 4.014e-03   |deigs|: 3.255e-03  t[s]:    808.04
	FillingsUpdate:  mu: -0.083510160  nElectrons: 129.000000  magneticMoment: [ Abs: 1.14354  Tot: +1.00000 ]
SCF: Cycle: 10   F: -208.068935455512218   dF: -4.249e-05   |Residual|: 3.441e-03   |deigs|: 2.272e-03  t[s]:    862.63
	FillingsUpdate:  mu: -0.080633646  nElectrons: 129.000000  magneticMoment: [ Abs: 1.14382  Tot: +1.00000 ]
SCF: Cycle: 11   F: -208.068964585605329   dF: -2.913e-05   |Residual|: 2.816e-03   |deigs|: 2.780e-03  t[s]:    917.18
	FillingsUpdate:  mu: -0.078103784  nElectrons: 129.000000  magneticMoment: [ Abs: 1.14234  Tot: +1.00000 ]
SCF: Cycle: 12   F: -208.068977509886338   dF: -1.292e-05   |Residual|: 2.609e-03   |deigs|: 2.309e-03  t[s]:    971.95
	FillingsUpdate:  mu: -0.074756575  nElectrons: 129.000000  magneticMoment: [ Abs: 1.14415  Tot: +1.00000 ]
SCF: Cycle: 13   F: -208.068982940763590   dF: -5.431e-06   |Residual|: 2.240e-03   |deigs|: 3.119e-03  t[s]:   1026.39
	FillingsUpdate:  mu: -0.070939924  nElectrons: 129.000000  magneticMoment: [ Abs: 1.14265  Tot: +1.00000 ]
SCF: Cycle: 14   F: -208.068981134155820   dF: +1.807e-06   |Residual|: 2.194e-03   |deigs|: 3.352e-03  t[s]:   1080.92
	FillingsUpdate:  mu: -0.067456868  nElectrons: 129.000000  magneticMoment: [ Abs: 1.14350  Tot: +1.00000 ]
SCF: Cycle: 15   F: -208.068983527348678   dF: -2.393e-06   |Residual|: 1.994e-03   |deigs|: 3.117e-03  t[s]:   1135.46
	FillingsUpdate:  mu: -0.063245670  nElectrons: 129.000000  magneticMoment: [ Abs: 1.14429  Tot: +1.00000 ]
SCF: Cycle: 16   F: -208.068987971746935   dF: -4.444e-06   |Residual|: 1.576e-03   |deigs|: 3.993e-03  t[s]:   1189.94
	FillingsUpdate:  mu: -0.061322669  nElectrons: 129.000000  magneticMoment: [ Abs: 1.14155  Tot: +1.00000 ]
SCF: Cycle: 17   F: -208.068996236129351   dF: -8.264e-06   |Residual|: 1.228e-03   |deigs|: 1.658e-03  t[s]:   1244.39
	FillingsUpdate:  mu: -0.060095049  nElectrons: 129.000000  magneticMoment: [ Abs: 1.14133  Tot: +1.00000 ]
SCF: Cycle: 18   F: -208.069001528599813   dF: -5.292e-06   |Residual|: 7.348e-04   |deigs|: 1.160e-03  t[s]:   1299.14
	FillingsUpdate:  mu: -0.059634251  nElectrons: 129.000000  magneticMoment: [ Abs: 1.14034  Tot: +1.00000 ]
SCF: Cycle: 19   F: -208.069002801469537   dF: -1.273e-06   |Residual|: 4.847e-04   |deigs|: 5.527e-04  t[s]:   1354.23
	FillingsUpdate:  mu: -0.059304183  nElectrons: 129.000000  magneticMoment: [ Abs: 1.14029  Tot: +1.00000 ]
SCF: Cycle: 20   F: -208.069003444954717   dF: -6.435e-07   |Residual|: 2.871e-04   |deigs|: 6.640e-04  t[s]:   1409.11
	FillingsUpdate:  mu: -0.059117117  nElectrons: 129.000000  magneticMoment: [ Abs: 1.14003  Tot: +1.00000 ]
SCF: Cycle: 21   F: -208.069003725712946   dF: -2.808e-07   |Residual|: 1.721e-04   |deigs|: 5.467e-04  t[s]:   1463.49
	FillingsUpdate:  mu: -0.058997707  nElectrons: 129.000000  magneticMoment: [ Abs: 1.13981  Tot: +1.00000 ]
SCF: Cycle: 22   F: -208.069003845633063   dF: -1.199e-07   |Residual|: 9.902e-05   |deigs|: 6.555e-04  t[s]:   1517.87
	FillingsUpdate:  mu: -0.058934390  nElectrons: 129.000000  magneticMoment: [ Abs: 1.13985  Tot: +1.00000 ]
SCF: Cycle: 23   F: -208.069003892622788   dF: -4.699e-08   |Residual|: 6.766e-05   |deigs|: 2.622e-04  t[s]:   1572.29
	FillingsUpdate:  mu: -0.058895742  nElectrons: 129.000000  magneticMoment: [ Abs: 1.13967  Tot: +1.00000 ]
SCF: Cycle: 24   F: -208.069003916620886   dF: -2.400e-08   |Residual|: 4.234e-05   |deigs|: 2.241e-04  t[s]:   1626.74
	FillingsUpdate:  mu: -0.058878000  nElectrons: 129.000000  magneticMoment: [ Abs: 1.13963  Tot: +1.00000 ]
SCF: Cycle: 25   F: -208.069003925515517   dF: -8.895e-09   |Residual|: 2.606e-05   |deigs|: 4.081e-04  t[s]:   1681.54
	FillingsUpdate:  mu: -0.058870100  nElectrons: 129.000000  magneticMoment: [ Abs: 1.13962  Tot: +1.00000 ]
SCF: Cycle: 26   F: -208.069003928243887   dF: -2.728e-09   |Residual|: 1.795e-05   |deigs|: 1.543e-04  t[s]:   1736.29
SCF: Converged (|Delta E|<1.000000e-08 for 2 iters).


# Ionic positions in lattice coordinates:
ion C   0.000000000000000  -0.000000000000000   0.000000000000000 1
ion N   0.081488770953256   0.162977541906513   0.000000000000000 1
ion N   0.083437716010442   0.415925900603108   0.000000000000000 1
ion N   0.083437716010442   0.667511815407334   0.000000000000000 1
ion N   0.081488770953256   0.918511229046744   0.000000000000000 1
ion N   0.333451623907152   0.166725811953576   0.000000000000000 1
ion N   0.332488184592666   0.415925900603108   0.000000000000000 1
ion N   0.333333333333333   0.666666666666667   0.000000000000000 1
ion N   0.332488184592666   0.916562283989558   0.000000000000000 1
ion N   0.583264732268413   0.166529464536826   0.000000000000000 1
ion N   0.583264732268413   0.416735267731587   0.000000000000000 1
ion N   0.584074099396892   0.667511815407334   0.000000000000000 1
ion N   0.584074099396892   0.916562283989558   0.000000000000000 1
ion N   0.833274188046424   0.166725811953576   0.000000000000000 1
ion N   0.833470535463174   0.416735267731587   0.000000000000000 1
ion N   0.833274188046424   0.666548376092848   0.000000000000000 1
ion N   0.837022458093487   0.918511229046744   0.000000000000000 1
ion B  -0.000324097494066   0.248840286757891   0.000000000000000 1
ion B   0.000076971815959   0.500038485907979   0.000000000000000 1
ion B  -0.000324097494066   0.750835615748042   0.000000000000000 1
ion B   0.249164384251958   0.000324097494066   0.000000000000000 1
ion B   0.249164384251958   0.248840286757891   0.000000000000000 1
ion B   0.249990027813965   0.499980055627929   0.000000000000000 1
ion B   0.249990027813965   0.750009972186035   0.000000000000000 1
ion B   0.499961514092021  -0.000076971815959   0.000000000000000 1
ion B   0.499932301328405   0.249966150664202   0.000000000000000 1
ion B   0.499961514092021   0.500038485907979   0.000000000000000 1
ion B   0.500019944372071   0.750009972186035   0.000000000000000 1
ion B   0.751159713242109   0.000324097494066   0.000000000000000 1
ion B   0.750033849335798   0.249966150664202   0.000000000000000 1
ion B   0.750033849335798   0.500067698671595   0.000000000000000 1
ion B   0.751159713242109   0.750835615748042   0.000000000000000 1

# Forces in Lattice coordinates:
force C  -0.000000000000000  -0.000000000000000   0.000000000000000 1
force N   0.000000000000000   0.000148177131288   0.000000000000000 1
force N   0.000080832912721   0.000302789839510   0.000000000000000 1
force N   0.000383622752232  -0.000302789839511   0.000000000000000 1
force N   0.000148177131288  -0.000148177131290   0.000000000000000 1
force N   0.000058925660886   0.000000000000000  -0.000000000000000 1
force N  -0.000080832912721   0.000383622752231   0.000000000000000 1
force N  -0.000000000000000   0.000000000000000   0.000000000000000 1
force N   0.000302789839510  -0.000383622752232  -0.000000000000000 1
force N   0.000000000000000  -0.000083852312195   0.000000000000000 1
force N  -0.000083852312195   0.000083852312195   0.000000000000000 1
force N  -0.000383622752231   0.000080832912721   0.000000000000000 1
force N  -0.000302789839511  -0.000080832912721   0.000000000000000 1
force N  -0.000058925660887   0.000058925660887   0.000000000000000 1
force N   0.000083852312195   0.000000000000000   0.000000000000000 1
force N   0.000000000000000  -0.000058925660888   0.000000000000000 1
force N  -0.000148177131288   0.000000000000000  -0.000000000000000 1
force B  -0.000252962269395   0.000039814625050   0.000000000000000 1
force B  -0.000200651181334   0.000000000000000   0.000000000000000 1
force B  -0.000213147644345  -0.000039814625050  -0.000000000000000 1
force B   0.000039814625049   0.000213147644346   0.000000000000000 1
force B   0.000252962269395  -0.000213147644346   0.000000000000000 1
force B   0.000000000000000  -0.000261361109135   0.000000000000000 1
force B  -0.000261361109135   0.000261361109135   0.000000000000000 1
force B   0.000000000000000   0.000200651181334   0.000000000000000 1
force B  -0.000018589440105   0.000000000000000  -0.000000000000000 1
force B   0.000200651181335  -0.000200651181335   0.000000000000000 1
force B   0.000261361109135  -0.000000000000000   0.000000000000000 1
force B  -0.000039814625049   0.000252962269395   0.000000000000000 1
force B   0.000018589440104  -0.000018589440105   0.000000000000000 1
force B   0.000000000000000   0.000018589440105  -0.000000000000000 1
force B   0.000213147644345  -0.000252962269395   0.000000000000000 1

# Energy components:
   Eewald =     -325.6778392496538572
       EH =     -162.3174948463213525
     Eloc =      201.3319645419077233
      Enl =       -9.4816275914816917
   Epulay =        0.0001017350367205
      Exc =      -59.5218125491375858
       KE =      147.5977040314061242
-------------------------------------
     Etot =     -208.0690039282438875
       TS =        0.0000000000000000
-------------------------------------
        F =     -208.0690039282438875

IonicMinimize: Iter:   0  F: -208.069003928243887  |grad|_K:  7.632e-06  t[s]:   1741.23
IonicMinimize: Converged (|grad|_K<1.000000e-04).

#--- Lowdin population analysis ---
# oxidation-state C +0.274
# magnetic-moments C +0.571
# oxidation-state N -0.271 -0.375 -0.375 -0.271 -0.380 -0.375 -0.376 -0.375 -0.377 -0.377 -0.375 -0.375 -0.380 -0.377 -0.380 -0.271
# magnetic-moments N +0.003 -0.004 -0.004 +0.003 +0.017 -0.004 -0.002 -0.004 +0.005 +0.005 -0.004 -0.004 +0.017 +0.005 +0.017 +0.003
# oxidation-state B +0.433 +0.448 +0.433 +0.433 +0.433 +0.443 +0.443 +0.448 +0.442 +0.448 +0.443 +0.433 +0.442 +0.442 +0.433
# magnetic-moments B +0.041 +0.005 +0.041 +0.041 +0.041 +0.014 +0.014 +0.005 +0.016 +0.005 +0.014 +0.041 +0.016 +0.016 +0.041


Dumping 'BN44BC.fillings' ... done
Dumping 'BN44BC.wfns' ... done
Dumping 'BN44BC.n_up' ... done
Dumping 'BN44BC.n_dn' ... done
Dumping 'BN44BC.eigenvals' ... done
End date and time: Fri Feb  4 13:43:20 2022  (Duration: 0-0:29:06.83)
Done!
