2.75
--------------------------------------------------------------------------
The library attempted to open the following supporting CUDA libraries,
but each of them failed.  CUDA-aware support is disabled.
libcuda.so.1: cannot open shared object file: No such file or directory
libcuda.dylib: cannot open shared object file: No such file or directory
/usr/lib64/libcuda.so.1: cannot open shared object file: No such file or directory
/usr/lib64/libcuda.dylib: cannot open shared object file: No such file or directory
If you are not interested in CUDA-aware support, then run with
--mca opal_warn_on_missing_libcuda 0 to suppress this message.  If you are interested
in CUDA-aware support, then try setting LD_LIBRARY_PATH to the location
of libcuda.so.1 to get passed this issue.
--------------------------------------------------------------------------
--------------------------------------------------------------------------
No OpenFabrics connection schemes reported that they were able to be
used on a specific port.  As such, the openib BTL (OpenFabrics
support) will be disabled for this port.

  Local host:           d-18-10-2
  Local device:         mlx5_1
  Local port:           1
  CPCs attempted:       rdmacm, udcm
--------------------------------------------------------------------------

*************** JDFTx 1.6.0 (git hash 42ebbcc2) ***************

Start date and time: Sun Jan 16 16:41:16 2022
Executable jdftx with command-line: -i Cesium.in
Running on hosts (process indices):  d-18-10-2 (0-18)
Divided in process groups (process indices):  0 (0)  1 (1)  2 (2)  3 (3)  4 (4)  5 (5)  6 (6)  7 (7)  8 (8)  9 (9)  10 (10)  11 (11)  12 (12)  13 (13)  14 (14)  15 (15)  16 (16)  17 (17)  18 (18)
Resource initialization completed at t[s]:      0.00
Run totals: 19 processes, 48 threads, 0 GPUs


Input parsed successfully to the following command list (including defaults):

basis kpoint-dependent
coords-type Lattice
core-overlap-check vector
coulomb-interaction Slab 001
davidson-band-ratio 1.1
dump End None
dump-name $INPUT.$VAR
elec-cutoff 20
elec-eigen-algo Davidson
elec-ex-corr gga-PBE
elec-smearing Fermi 1e-05
electronic-minimize  \
	dirUpdateScheme      FletcherReeves \
	linminMethod         DirUpdateRecommended \
	nIterations          10000 \
	history              15 \
	knormThreshold       0 \
	energyDiffThreshold  1e-08 \
	nEnergyDiff          4 \
	alphaTstart          1 \
	alphaTmin            1e-10 \
	updateTestStepSize   yes \
	alphaTreduceFactor   0.1 \
	alphaTincreaseFactor 3 \
	nAlphaAdjustMax      3 \
	wolfeEnergy          0.0001 \
	wolfeGradient        0.9 \
	fdTest               no
exchange-regularization WignerSeitzTruncated
fluid None
fluid-ex-corr (null) lda-PZ
fluid-gummel-loop 10 1.000000e-05
fluid-minimize  \
	dirUpdateScheme      PolakRibiere \
	linminMethod         DirUpdateRecommended \
	nIterations          100 \
	history              15 \
	knormThreshold       0 \
	energyDiffThreshold  0 \
	nEnergyDiff          2 \
	alphaTstart          1 \
	alphaTmin            1e-10 \
	updateTestStepSize   yes \
	alphaTreduceFactor   0.1 \
	alphaTincreaseFactor 3 \
	nAlphaAdjustMax      3 \
	wolfeEnergy          0.0001 \
	wolfeGradient        0.9 \
	fdTest               no
fluid-solvent H2O 55.338 ScalarEOS \
	epsBulk 78.4 \
	pMol 0.92466 \
	epsInf 1.77 \
	Pvap 1.06736e-10 \
	sigmaBulk 4.62e-05 \
	Rvdw 2.61727 \
	Res 1.42 \
	tauNuc 343133 \
	poleEl 15 7 1
forces-output-coords Positions
ion Cs   0.000000000000000   0.000000000000000   0.000000000000000 0
ion-species SG15/$ID_ONCV_PBE.upf
ion-width 0
ionic-minimize  \
	dirUpdateScheme      L-BFGS \
	linminMethod         DirUpdateRecommended \
	nIterations          0 \
	history              15 \
	knormThreshold       0.0001 \
	energyDiffThreshold  1e-06 \
	nEnergyDiff          2 \
	alphaTstart          1 \
	alphaTmin            1e-10 \
	updateTestStepSize   yes \
	alphaTreduceFactor   0.1 \
	alphaTincreaseFactor 3 \
	nAlphaAdjustMax      3 \
	wolfeEnergy          0.0001 \
	wolfeGradient        0.9 \
	fdTest               no
kpoint   0.000000000000   0.000000000000   0.000000000000  1.00000000000000
kpoint-folding 48 48 1 
latt-move-scale 1 1 1
latt-scale 2.75 2.75 1 
lattice  \
	   4.727486978767153   -2.363743489383575    0.000000000000000  \
	  -0.000000000000000    4.094123819672498    0.000000000000000  \
	   0.000000000000000    0.000000000000000   40.000000000000000 
lattice-minimize  \
	dirUpdateScheme      L-BFGS \
	linminMethod         DirUpdateRecommended \
	nIterations          0 \
	history              15 \
	knormThreshold       0 \
	energyDiffThreshold  1e-06 \
	nEnergyDiff          2 \
	alphaTstart          1 \
	alphaTmin            1e-10 \
	updateTestStepSize   yes \
	alphaTreduceFactor   0.1 \
	alphaTincreaseFactor 3 \
	nAlphaAdjustMax      3 \
	wolfeEnergy          0.0001 \
	wolfeGradient        0.9 \
	fdTest               no
lcao-params -1 1e-06 1e-05
pcm-variant GLSSA13
spintype no-spin
subspace-rotation-factor 1 yes
symmetries automatic
symmetry-threshold 0.0001



---------- Setting up symmetries ----------

Found 24 point-group symmetries of the bravais lattice
Found 24 space-group symmetries with basis
Applied RMS atom displacement 0 bohrs to make symmetries exact.

---------- Initializing the Grid ----------
R = 
[      13.0006     -6.50029            0  ]
[            0      11.2588            0  ]
[            0            0           40  ]
unit cell volume = 5854.86
G =
[     0.4833   0.279033         -0  ]
[          0   0.558067         -0  ]
[         -0         -0    0.15708  ]
Minimum fftbox size, Smin = [  56  56  164  ]
Chosen fftbox size, S = [  56  56  168  ]

---------- Exchange Correlation functional ----------
Initalized PBE GGA exchange.
Initalized PBE GGA correlation.

---------- Setting up pseudopotentials ----------
Width of ionic core gaussian charges (only for fluid interactions / plotting) set to 0

Reading pseudopotential file '/home/gridsan/aligho/DFT/build-Nov24/pseudopotentials/SG15/Cs_ONCV_PBE.upf':
  'Cs' pseudopotential, 'PBE' functional
  Generated using ONCVPSP code by D. R. Hamann
  Author: Martin Schlipf and Francois Gygi  Date: 150915.
  9 valence electrons, 3 orbitals, 6 projectors, 2414 radial grid points, with lMax = 2
  Transforming local potential to a uniform radial grid of dG=0.02 with 1511 points.
  Transforming nonlocal projectors to a uniform radial grid of dG=0.02 with 432 points.
    5S    l: 0   occupation:  2.0   eigenvalue: -0.982388
    5P    l: 1   occupation:  6.0   eigenvalue: -0.496786
    6S    l: 0   occupation:  1.0   eigenvalue: -0.076670
  Transforming atomic orbitals to a uniform radial grid of dG=0.02 with 432 points.
  Core radius for overlap checks: 2.06 bohrs.
  Reading pulay file /home/gridsan/aligho/DFT/build-Nov24/pseudopotentials/SG15/Cs_ONCV_PBE.pulay ... using dE_dnG = -1.008762e-04 computed for Ecut = 20.

Initialized 1 species with 1 total atoms.

Folded 1 k-points by 48x48x1 to 2304 k-points.

---------- Setting up k-points, bands, fillings ----------
Reduced to 217 k-points under symmetry. 
Computing the number of bands and number of electrons
Calculating initial fillings.
nElectrons:   9.000000   nBands: 6   nStates: 217

----- Setting up reduced wavefunction bases (one per k-point) -----
average nbasis = 25013.210 , ideal nbasis = 25012.418

---------- Setting up coulomb interaction ----------
Initialized slab truncation along lattice direction 001

---------- Setting up 2D ewald sum ----------
Optimum gaussian width for ewald sums = 7.217402 bohr.
Real space sums over 289 unit cells with max indices [  8  8  0  ]
Reciprocal space sums over 81 terms with max indices [  4  4  0  ]

---------- Allocating electronic variables ----------
Initializing wave functions:  linear combination of atomic orbitals
Note: number of bands (6) exceeds available atomic orbitals (5)
Cs pseudo-atom occupations:   s ( 2 1 )  p ( 6 )
[d-18-10-2:60219] 18 more processes have sent help message help-mpi-common-cuda.txt / dlopen failed
[d-18-10-2:60219] Set MCA parameter "orte_base_help_aggregate" to 0 to see all help / error messages
[d-18-10-2:60219] 18 more processes have sent help message help-mpi-btl-openib-cpc-base.txt / no cpcs for port
	FillingsUpdate:  mu: -0.080292509  nElectrons: 9.000000
LCAOMinimize: Iter:   0  F: -20.1788719559528573  |grad|_K:  7.052e-06  alpha:  1.000e+00
	FillingsUpdate:  mu: -0.080288063  nElectrons: 9.000000
LCAOMinimize: Iter:   1  F: -20.1788721473799662  |grad|_K:  4.524e-08  alpha:  9.857e-01  linmin: -2.655e-02  cgtest:  4.363e-01  t[s]:     17.06
LCAOMinimize: Encountered beta<0, resetting CG.
	FillingsUpdate:  mu: -0.080288059  nElectrons: 9.000000
LCAOMinimize: Iter:   2  F: -20.1788721473880237  |grad|_K:  6.295e-10  alpha:  9.867e-01  linmin: -8.347e-02  cgtest:  9.999e-01  t[s]:     23.34
LCAOMinimize: Encountered beta<0, resetting CG.
LCAOMinimize: Converged (|Delta F|<1.000000e-06 for 2 iters).


---- Citations for features of the code used in this run ----

   Software package:
      R. Sundararaman, K. Letchworth-Weaver, K.A. Schwarz, D. Gunceler, Y. Ozhabes and T.A. Arias, 'JDFTx: software for joint density-functional theory', SoftwareX 6, 278 (2017)

   gga-PBE exchange-correlation functional:
      J.P. Perdew, K. Burke and M. Ernzerhof, Phys. Rev. Lett. 77, 3865 (1996)

   Pseudopotentials:
      M Schlipf and F Gygi, Comput. Phys. Commun. 196, 36 (2015)

   Truncated Coulomb potentials:
      R. Sundararaman and T.A. Arias, Phys. Rev. B 87, 165122 (2013)

   Total energy minimization with Auxiliary Hamiltonian:
      C. Freysoldt, S. Boeck, and J. Neugebauer, Phys. Rev. B 79, 241103(R) (2009)

This list may not be complete. Please suggest additional citations or
report any other bugs at https://github.com/shankar1729/jdftx/issues

Initialization completed successfully at t[s]:     24.02


-------- Electronic minimization -----------
	FillingsUpdate:  mu: -0.080288059  nElectrons: 9.000000
ElecMinimize: Iter:   0  F: -20.178872147388009  |grad|_K:  2.984e-06  alpha:  1.000e+00
ElecMinimize: 	Predicted alpha/alphaT>3.000000, increasing alphaT to 3.000000e+00.
	FillingsUpdate:  mu: -0.080341431  nElectrons: 9.000000
	SubspaceRotationAdjust: set factor to 1
ElecMinimize: Iter:   1  F: -20.180083110185130  |grad|_K:  4.715e-06  alpha:  4.178e+00  linmin:  1.264e-04  t[s]:     40.34
	FillingsUpdate:  mu: -0.080354972  nElectrons: 9.000000
	SubspaceRotationAdjust: set factor to 1.02
ElecMinimize: Iter:   2  F: -20.180120005485179  |grad|_K:  4.636e-06  alpha:  2.586e-02  linmin: -1.059e-03  t[s]:     48.85
ElecMinimize: 	Predicted alpha/alphaT>3.000000, increasing alphaT to 7.757253e-02.
ElecMinimize: 	Predicted alpha/alphaT>3.000000, increasing alphaT to 2.327176e-01.
ElecMinimize: 	Predicted alpha/alphaT>3.000000, increasing alphaT to 6.981528e-01.
	FillingsUpdate:  mu: -0.080692094  nElectrons: 9.000000
	SubspaceRotationAdjust: set factor to 0.789
ElecMinimize: Iter:   3  F: -20.181189379884692  |grad|_K:  2.967e-06  alpha:  7.977e-01  linmin:  2.525e-04  t[s]:     62.56
	FillingsUpdate:  mu: -0.080666458  nElectrons: 9.000000
	SubspaceRotationAdjust: set factor to 0.907
ElecMinimize: Iter:   4  F: -20.181258976469994  |grad|_K:  2.970e-06  alpha:  2.039e-01  linmin: -4.967e-04  t[s]:     71.10
ElecMinimize: 	Predicted alpha/alphaT>3.000000, increasing alphaT to 6.117296e-01.
	FillingsUpdate:  mu: -0.080378257  nElectrons: 9.000000
	SubspaceRotationAdjust: set factor to 0.632
ElecMinimize: Iter:   5  F: -20.181520145707701  |grad|_K:  3.629e-06  alpha:  6.587e-01  linmin:  1.487e-03  t[s]:     82.16
	FillingsUpdate:  mu: -0.080377685  nElectrons: 9.000000
	SubspaceRotationAdjust: set factor to 0.488
ElecMinimize: Iter:   6  F: -20.181520187398331  |grad|_K:  3.191e-06  alpha:  5.226e-04  linmin: -2.133e-04  t[s]:     90.68
ElecMinimize: 	Predicted alpha/alphaT>3.000000, increasing alphaT to 1.567841e-03.
ElecMinimize: 	Predicted alpha/alphaT>3.000000, increasing alphaT to 4.703522e-03.
ElecMinimize: 	Predicted alpha/alphaT>3.000000, increasing alphaT to 1.411056e-02.
	FillingsUpdate:  mu: -0.080056395  nElectrons: 9.000000
	SubspaceRotationAdjust: set factor to 0.444
ElecMinimize: Iter:   7  F: -20.181631568507704  |grad|_K:  3.027e-06  alpha:  3.247e-01  linmin:  5.350e-04  t[s]:    104.27
	FillingsUpdate:  mu: -0.079814344  nElectrons: 9.000000
	SubspaceRotationAdjust: set factor to 0.529
ElecMinimize: Iter:   8  F: -20.181694855793207  |grad|_K:  2.972e-06  alpha:  2.514e-01  linmin: -1.405e-05  t[s]:    112.78
	FillingsUpdate:  mu: -0.079522214  nElectrons: 9.000000
	SubspaceRotationAdjust: set factor to 0.608
ElecMinimize: Iter:   9  F: -20.181792281412829  |grad|_K:  3.034e-06  alpha:  3.122e-01  linmin: -1.113e-03  t[s]:    121.22
	FillingsUpdate:  mu: -0.079286739  nElectrons: 9.000000
	SubspaceRotationAdjust: set factor to 0.77
ElecMinimize: Iter:  10  F: -20.181874236064214  |grad|_K:  2.286e-06  alpha:  2.496e-01  linmin: -9.880e-04  t[s]:    129.71
	FillingsUpdate:  mu: -0.079133331  nElectrons: 9.000000
	SubspaceRotationAdjust: set factor to 0.926
ElecMinimize: Iter:  11  F: -20.181957994616599  |grad|_K:  1.444e-06  alpha:  3.860e-01  linmin: -7.386e-04  t[s]:    138.24
	FillingsUpdate:  mu: -0.079072703  nElectrons: 9.000000
	SubspaceRotationAdjust: set factor to 1.06
ElecMinimize: Iter:  12  F: -20.182000017831783  |grad|_K:  1.052e-06  alpha:  5.169e-01  linmin: -3.970e-04  t[s]:    146.66
	FillingsUpdate:  mu: -0.078962749  nElectrons: 9.000000
	SubspaceRotationAdjust: set factor to 1.11
ElecMinimize: Iter:  13  F: -20.182031665336897  |grad|_K:  9.734e-07  alpha:  8.078e-01  linmin:  2.704e-05  t[s]:    155.16
	FillingsUpdate:  mu: -0.078838080  nElectrons: 9.000000
	SubspaceRotationAdjust: set factor to 1.26
ElecMinimize: Iter:  14  F: -20.182049351671782  |grad|_K:  8.366e-07  alpha:  5.317e-01  linmin: -3.386e-05  t[s]:    163.58
	FillingsUpdate:  mu: -0.078720437  nElectrons: 9.000000
	SubspaceRotationAdjust: set factor to 1.46
ElecMinimize: Iter:  15  F: -20.182060674863806  |grad|_K:  8.368e-07  alpha:  4.778e-01  linmin:  8.639e-05  t[s]:    172.12
	FillingsUpdate:  mu: -0.078657222  nElectrons: 9.000000
	SubspaceRotationAdjust: set factor to 1.79
ElecMinimize: Iter:  16  F: -20.182067966757668  |grad|_K:  8.728e-07  alpha:  3.089e-01  linmin: -2.608e-05  t[s]:    180.61
	FillingsUpdate:  mu: -0.078648777  nElectrons: 9.000000
	SubspaceRotationAdjust: set factor to 1.79
ElecMinimize: Iter:  17  F: -20.182074082167258  |grad|_K:  9.165e-07  alpha:  2.315e-01  linmin:  1.498e-05  t[s]:    189.15
	FillingsUpdate:  mu: -0.078688987  nElectrons: 9.000000
	SubspaceRotationAdjust: set factor to 1.43
ElecMinimize: Iter:  18  F: -20.182079248844527  |grad|_K:  9.180e-07  alpha:  1.915e-01  linmin: -9.964e-06  t[s]:    197.68
	FillingsUpdate:  mu: -0.078760060  nElectrons: 9.000000
	SubspaceRotationAdjust: set factor to 1.17
ElecMinimize: Iter:  19  F: -20.182084887552854  |grad|_K:  7.664e-07  alpha:  2.035e-01  linmin: -1.790e-04  t[s]:    206.24
	FillingsUpdate:  mu: -0.078826063  nElectrons: 9.000000
	SubspaceRotationAdjust: set factor to 1.42
ElecMinimize: Iter:  20  F: -20.182090010080849  |grad|_K:  6.026e-07  alpha:  2.492e-01  linmin: -1.988e-04  t[s]:    214.71
	FillingsUpdate:  mu: -0.078879410  nElectrons: 9.000000
	SubspaceRotationAdjust: set factor to 1.84
ElecMinimize: Iter:  21  F: -20.182094996921549  |grad|_K:  5.124e-07  alpha:  3.718e-01  linmin: -1.896e-04  t[s]:    223.26
	FillingsUpdate:  mu: -0.078889140  nElectrons: 9.000000
	SubspaceRotationAdjust: set factor to 2.01
ElecMinimize: Iter:  22  F: -20.182099337015170  |grad|_K:  4.426e-07  alpha:  4.567e-01  linmin:  9.813e-06  t[s]:    231.79
	FillingsUpdate:  mu: -0.078853205  nElectrons: 9.000000
	SubspaceRotationAdjust: set factor to 2
ElecMinimize: Iter:  23  F: -20.182101975735190  |grad|_K:  4.366e-07  alpha:  4.104e-01  linmin:  6.982e-05  t[s]:    240.24
	FillingsUpdate:  mu: -0.078815729  nElectrons: 9.000000
	SubspaceRotationAdjust: set factor to 1.86
ElecMinimize: Iter:  24  F: -20.182103930350724  |grad|_K:  4.222e-07  alpha:  3.147e-01  linmin:  2.085e-05  t[s]:    248.77
	FillingsUpdate:  mu: -0.078806068  nElectrons: 9.000000
	SubspaceRotationAdjust: set factor to 1.9
ElecMinimize: Iter:  25  F: -20.182105304070230  |grad|_K:  3.873e-07  alpha:  2.340e-01  linmin:  1.183e-05  t[s]:    257.28
	FillingsUpdate:  mu: -0.078824894  nElectrons: 9.000000
	SubspaceRotationAdjust: set factor to 1.81
ElecMinimize: Iter:  26  F: -20.182106372383121  |grad|_K:  3.712e-07  alpha:  2.211e-01  linmin:  5.085e-06  t[s]:    265.73
	FillingsUpdate:  mu: -0.078867383  nElectrons: 9.000000
	SubspaceRotationAdjust: set factor to 1.65
ElecMinimize: Iter:  27  F: -20.182107414754885  |grad|_K:  3.437e-07  alpha:  2.322e-01  linmin: -9.151e-05  t[s]:    274.20
	FillingsUpdate:  mu: -0.078918551  nElectrons: 9.000000
	SubspaceRotationAdjust: set factor to 1.69
ElecMinimize: Iter:  28  F: -20.182108468559644  |grad|_K:  2.978e-07  alpha:  2.634e-01  linmin: -8.713e-05  t[s]:    282.64
	FillingsUpdate:  mu: -0.078958155  nElectrons: 9.000000
	SubspaceRotationAdjust: set factor to 2.02
ElecMinimize: Iter:  29  F: -20.182109450984839  |grad|_K:  2.594e-07  alpha:  3.208e-01  linmin: -7.180e-05  t[s]:    291.10
	FillingsUpdate:  mu: -0.078972244  nElectrons: 9.000000
	SubspaceRotationAdjust: set factor to 2.54
ElecMinimize: Iter:  30  F: -20.182110289272376  |grad|_K:  2.355e-07  alpha:  3.650e-01  linmin:  1.642e-06  t[s]:    299.59
	FillingsUpdate:  mu: -0.078963034  nElectrons: 9.000000
	SubspaceRotationAdjust: set factor to 2.62
ElecMinimize: Iter:  31  F: -20.182110890508547  |grad|_K:  2.362e-07  alpha:  3.309e-01  linmin:  3.555e-05  t[s]:    308.11
	FillingsUpdate:  mu: -0.078950949  nElectrons: 9.000000
	SubspaceRotationAdjust: set factor to 2.35
ElecMinimize: Iter:  32  F: -20.182111366702689  |grad|_K:  2.361e-07  alpha:  2.634e-01  linmin:  1.696e-05  t[s]:    316.65
	FillingsUpdate:  mu: -0.078953298  nElectrons: 9.000000
	SubspaceRotationAdjust: set factor to 2.05
ElecMinimize: Iter:  33  F: -20.182111760727498  |grad|_K:  2.214e-07  alpha:  2.187e-01  linmin:  1.685e-05  t[s]:    325.05
	FillingsUpdate:  mu: -0.078973597  nElectrons: 9.000000
	SubspaceRotationAdjust: set factor to 1.83
ElecMinimize: Iter:  34  F: -20.182112092345662  |grad|_K:  2.005e-07  alpha:  2.111e-01  linmin: -7.400e-08  t[s]:    333.56
	FillingsUpdate:  mu: -0.079005812  nElectrons: 9.000000
	SubspaceRotationAdjust: set factor to 1.79
ElecMinimize: Iter:  35  F: -20.182112394132066  |grad|_K:  1.773e-07  alpha:  2.299e-01  linmin: -4.966e-05  t[s]:    342.12
	FillingsUpdate:  mu: -0.079039570  nElectrons: 9.000000
	SubspaceRotationAdjust: set factor to 1.96
ElecMinimize: Iter:  36  F: -20.182112675299511  |grad|_K:  1.608e-07  alpha:  2.670e-01  linmin: -4.581e-05  t[s]:    350.56
	FillingsUpdate:  mu: -0.079066018  nElectrons: 9.000000
	SubspaceRotationAdjust: set factor to 2.08
ElecMinimize: Iter:  37  F: -20.182112949374574  |grad|_K:  1.514e-07  alpha:  3.129e-01  linmin: -3.676e-05  t[s]:    359.06
	FillingsUpdate:  mu: -0.079076828  nElectrons: 9.000000
	SubspaceRotationAdjust: set factor to 2.03
ElecMinimize: Iter:  38  F: -20.182113194236667  |grad|_K:  1.381e-07  alpha:  3.187e-01  linmin:  4.704e-06  t[s]:    367.48
	FillingsUpdate:  mu: -0.079075055  nElectrons: 9.000000
	SubspaceRotationAdjust: set factor to 1.92
ElecMinimize: Iter:  39  F: -20.182113371129681  |grad|_K:  1.203e-07  alpha:  2.844e-01  linmin:  2.094e-05  t[s]:    376.00
	FillingsUpdate:  mu: -0.079072021  nElectrons: 9.000000
	SubspaceRotationAdjust: set factor to 1.97
ElecMinimize: Iter:  40  F: -20.182113495285268  |grad|_K:  1.052e-07  alpha:  2.662e-01  linmin:  2.104e-05  t[s]:    384.44
	FillingsUpdate:  mu: -0.079074323  nElectrons: 9.000000
	SubspaceRotationAdjust: set factor to 2.07
ElecMinimize: Iter:  41  F: -20.182113587526032  |grad|_K:  9.877e-08  alpha:  2.604e-01  linmin:  1.525e-05  t[s]:    392.95
	FillingsUpdate:  mu: -0.079083659  nElectrons: 9.000000
	SubspaceRotationAdjust: set factor to 1.94
ElecMinimize: Iter:  42  F: -20.182113668188663  |grad|_K:  9.711e-08  alpha:  2.575e-01  linmin:  2.039e-06  t[s]:    401.52
	FillingsUpdate:  mu: -0.079098665  nElectrons: 9.000000
	SubspaceRotationAdjust: set factor to 1.68
ElecMinimize: Iter:  43  F: -20.182113746770629  |grad|_K:  9.029e-08  alpha:  2.562e-01  linmin: -2.150e-05  t[s]:    410.01
	FillingsUpdate:  mu: -0.079113242  nElectrons: 9.000000
	SubspaceRotationAdjust: set factor to 1.55
ElecMinimize: Iter:  44  F: -20.182113817165057  |grad|_K:  7.732e-08  alpha:  2.628e-01  linmin: -2.370e-05  t[s]:    418.52
	FillingsUpdate:  mu: -0.079122363  nElectrons: 9.000000
	SubspaceRotationAdjust: set factor to 1.72
ElecMinimize: Iter:  45  F: -20.182113874876158  |grad|_K:  6.690e-08  alpha:  2.925e-01  linmin: -1.839e-05  t[s]:    427.02
	FillingsUpdate:  mu: -0.079125365  nElectrons: 9.000000
	SubspaceRotationAdjust: set factor to 2.03
ElecMinimize: Iter:  46  F: -20.182113922886895  |grad|_K:  6.279e-08  alpha:  3.258e-01  linmin:  4.991e-08  t[s]:    435.49
	FillingsUpdate:  mu: -0.079123776  nElectrons: 9.000000
	SubspaceRotationAdjust: set factor to 1.95
ElecMinimize: Iter:  47  F: -20.182113963370746  |grad|_K:  6.201e-08  alpha:  3.151e-01  linmin:  1.199e-05  t[s]:    444.00
	FillingsUpdate:  mu: -0.079120974  nElectrons: 9.000000
	SubspaceRotationAdjust: set factor to 1.69
ElecMinimize: Iter:  48  F: -20.182113998300949  |grad|_K:  5.778e-08  alpha:  2.803e-01  linmin:  9.200e-06  t[s]:    452.43
	FillingsUpdate:  mu: -0.079120212  nElectrons: 9.000000
	SubspaceRotationAdjust: set factor to 1.6
ElecMinimize: Iter:  49  F: -20.182114027278022  |grad|_K:  5.094e-08  alpha:  2.682e-01  linmin:  8.315e-06  t[s]:    460.95
	FillingsUpdate:  mu: -0.079122162  nElectrons: 9.000000
	SubspaceRotationAdjust: set factor to 1.67
ElecMinimize: Iter:  50  F: -20.182114050855290  |grad|_K:  4.603e-08  alpha:  2.810e-01  linmin:  2.893e-06  t[s]:    469.43
	FillingsUpdate:  mu: -0.079125725  nElectrons: 9.000000
	SubspaceRotationAdjust: set factor to 1.68
ElecMinimize: Iter:  51  F: -20.182114071017693  |grad|_K:  4.290e-08  alpha:  2.926e-01  linmin: -1.002e-05  t[s]:    477.89
	FillingsUpdate:  mu: -0.079129052  nElectrons: 9.000000
	SubspaceRotationAdjust: set factor to 1.61
ElecMinimize: Iter:  52  F: -20.182114088734121  |grad|_K:  3.964e-08  alpha:  2.944e-01  linmin: -1.094e-05  t[s]:    486.34
	FillingsUpdate:  mu: -0.079130203  nElectrons: 9.000000
	SubspaceRotationAdjust: set factor to 1.61
ElecMinimize: Iter:  53  F: -20.182114104329859  |grad|_K:  3.626e-08  alpha:  3.029e-01  linmin: -8.628e-06  t[s]:    494.80
	FillingsUpdate:  mu: -0.079128313  nElectrons: 9.000000
	SubspaceRotationAdjust: set factor to 1.69
ElecMinimize: Iter:  54  F: -20.182114117985133  |grad|_K:  3.345e-08  alpha:  3.170e-01  linmin: -3.220e-06  t[s]:    503.36
	FillingsUpdate:  mu: -0.079124062  nElectrons: 9.000000
	SubspaceRotationAdjust: set factor to 1.68
ElecMinimize: Iter:  55  F: -20.182114129383457  |grad|_K:  3.086e-08  alpha:  3.121e-01  linmin:  4.857e-06  t[s]:    511.86
	FillingsUpdate:  mu: -0.079119081  nElectrons: 9.000000
	SubspaceRotationAdjust: set factor to 1.64
ElecMinimize: Iter:  56  F: -20.182114138611905  |grad|_K:  2.814e-08  alpha:  2.982e-01  linmin:  4.912e-06  t[s]:    520.35
	FillingsUpdate:  mu: -0.079114775  nElectrons: 9.000000
	SubspaceRotationAdjust: set factor to 1.67
ElecMinimize: Iter:  57  F: -20.182114146214730  |grad|_K:  2.583e-08  alpha:  2.959e-01  linmin:  4.362e-06  t[s]:    528.90
	FillingsUpdate:  mu: -0.079111790  nElectrons: 9.000000
	SubspaceRotationAdjust: set factor to 1.67
ElecMinimize: Iter:  58  F: -20.182114152633115  |grad|_K:  2.413e-08  alpha:  2.968e-01  linmin:  3.051e-06  t[s]:    537.38
	FillingsUpdate:  mu: -0.079110016  nElectrons: 9.000000
	SubspaceRotationAdjust: set factor to 1.58
ElecMinimize: Iter:  59  F: -20.182114158137605  |grad|_K:  2.230e-08  alpha:  2.909e-01  linmin: -8.412e-07  t[s]:    545.81
ElecMinimize: Converged (|Delta F|<1.000000e-08 for 4 iters).
Setting wave functions to eigenvectors of Hamiltonian

# Ionic positions in lattice coordinates:
ion Cs   0.000000000000000   0.000000000000000   0.000000000000000 0

# Forces in Lattice coordinates:
force Cs   0.000000000000000  -0.000000000000000   0.000000000000000 0

# Energy components:
   Eewald =      -13.1258371638783018
       EH =        2.9533560122595302
     Eloc =      -15.4307794899932667
      Enl =        3.4317397839810369
   Epulay =        0.0000000136328585
      Exc =       -3.1129703583564678
       KE =        5.1023771149663002
-------------------------------------
     Etot =      -20.1821140873883067
       TS =        0.0000000707492985
-------------------------------------
        F =      -20.1821141581376047

IonicMinimize: Iter:   0  F: -20.182114158137605  |grad|_K:  0.000e+00  t[s]:    546.82
IonicMinimize: Converged (|grad|_K<1.000000e-04).

#--- Lowdin population analysis ---
# oxidation-state Cs +0.043

End date and time: Sun Jan 16 16:50:23 2022  (Duration: 0-0:09:07.02)
Done!
