1.43
--------------------------------------------------------------------------
The library attempted to open the following supporting CUDA libraries,
but each of them failed.  CUDA-aware support is disabled.
libcuda.so.1: cannot open shared object file: No such file or directory
libcuda.dylib: cannot open shared object file: No such file or directory
/usr/lib64/libcuda.so.1: cannot open shared object file: No such file or directory
/usr/lib64/libcuda.dylib: cannot open shared object file: No such file or directory
If you are not interested in CUDA-aware support, then run with
--mca opal_warn_on_missing_libcuda 0 to suppress this message.  If you are interested
in CUDA-aware support, then try setting LD_LIBRARY_PATH to the location
of libcuda.so.1 to get passed this issue.
--------------------------------------------------------------------------
--------------------------------------------------------------------------
No OpenFabrics connection schemes reported that they were able to be
used on a specific port.  As such, the openib BTL (OpenFabrics
support) will be disabled for this port.

  Local host:           d-3-11-2
  Local device:         mlx5_1
  Local port:           1
  CPCs attempted:       rdmacm, udcm
--------------------------------------------------------------------------

*************** JDFTx 1.6.0 (git hash 42ebbcc2) ***************

Start date and time: Sun Jan 16 16:33:41 2022
Executable jdftx with command-line: -i Cesium.in
Running on hosts (process indices):  d-3-11-2 (0-18)
Divided in process groups (process indices):  0 (0)  1 (1)  2 (2)  3 (3)  4 (4)  5 (5)  6 (6)  7 (7)  8 (8)  9 (9)  10 (10)  11 (11)  12 (12)  13 (13)  14 (14)  15 (15)  16 (16)  17 (17)  18 (18)
Resource initialization completed at t[s]:      0.00
Run totals: 19 processes, 48 threads, 0 GPUs


Input parsed successfully to the following command list (including defaults):

basis kpoint-dependent
coords-type Lattice
core-overlap-check vector
coulomb-interaction Slab 001
davidson-band-ratio 1.1
dump End None
dump-name $INPUT.$VAR
elec-cutoff 20
elec-eigen-algo Davidson
elec-ex-corr gga-PBE
elec-smearing Fermi 1e-05
electronic-minimize  \
	dirUpdateScheme      FletcherReeves \
	linminMethod         DirUpdateRecommended \
	nIterations          10000 \
	history              15 \
	knormThreshold       0 \
	energyDiffThreshold  1e-08 \
	nEnergyDiff          4 \
	alphaTstart          1 \
	alphaTmin            1e-10 \
	updateTestStepSize   yes \
	alphaTreduceFactor   0.1 \
	alphaTincreaseFactor 3 \
	nAlphaAdjustMax      3 \
	wolfeEnergy          0.0001 \
	wolfeGradient        0.9 \
	fdTest               no
exchange-regularization WignerSeitzTruncated
fluid None
fluid-ex-corr (null) lda-PZ
fluid-gummel-loop 10 1.000000e-05
fluid-minimize  \
	dirUpdateScheme      PolakRibiere \
	linminMethod         DirUpdateRecommended \
	nIterations          100 \
	history              15 \
	knormThreshold       0 \
	energyDiffThreshold  0 \
	nEnergyDiff          2 \
	alphaTstart          1 \
	alphaTmin            1e-10 \
	updateTestStepSize   yes \
	alphaTreduceFactor   0.1 \
	alphaTincreaseFactor 3 \
	nAlphaAdjustMax      3 \
	wolfeEnergy          0.0001 \
	wolfeGradient        0.9 \
	fdTest               no
fluid-solvent H2O 55.338 ScalarEOS \
	epsBulk 78.4 \
	pMol 0.92466 \
	epsInf 1.77 \
	Pvap 1.06736e-10 \
	sigmaBulk 4.62e-05 \
	Rvdw 2.61727 \
	Res 1.42 \
	tauNuc 343133 \
	poleEl 15 7 1
forces-output-coords Positions
ion Cs   0.000000000000000   0.000000000000000   0.000000000000000 0
ion-species SG15/$ID_ONCV_PBE.upf
ion-width 0
ionic-minimize  \
	dirUpdateScheme      L-BFGS \
	linminMethod         DirUpdateRecommended \
	nIterations          0 \
	history              15 \
	knormThreshold       0.0001 \
	energyDiffThreshold  1e-06 \
	nEnergyDiff          2 \
	alphaTstart          1 \
	alphaTmin            1e-10 \
	updateTestStepSize   yes \
	alphaTreduceFactor   0.1 \
	alphaTincreaseFactor 3 \
	nAlphaAdjustMax      3 \
	wolfeEnergy          0.0001 \
	wolfeGradient        0.9 \
	fdTest               no
kpoint   0.000000000000   0.000000000000   0.000000000000  1.00000000000000
kpoint-folding 48 48 1 
latt-move-scale 1 1 1
latt-scale 1.43 1.43 1 
lattice  \
	   4.727486978767154   -2.363743489383575    0.000000000000000  \
	  -0.000000000000000    4.094123819672498    0.000000000000000  \
	   0.000000000000000    0.000000000000000   40.000000000000000 
lattice-minimize  \
	dirUpdateScheme      L-BFGS \
	linminMethod         DirUpdateRecommended \
	nIterations          0 \
	history              15 \
	knormThreshold       0 \
	energyDiffThreshold  1e-06 \
	nEnergyDiff          2 \
	alphaTstart          1 \
	alphaTmin            1e-10 \
	updateTestStepSize   yes \
	alphaTreduceFactor   0.1 \
	alphaTincreaseFactor 3 \
	nAlphaAdjustMax      3 \
	wolfeEnergy          0.0001 \
	wolfeGradient        0.9 \
	fdTest               no
lcao-params -1 1e-06 1e-05
pcm-variant GLSSA13
spintype no-spin
subspace-rotation-factor 1 yes
symmetries automatic
symmetry-threshold 0.0001



---------- Setting up symmetries ----------

Found 24 point-group symmetries of the bravais lattice
Found 24 space-group symmetries with basis
Applied RMS atom displacement 0 bohrs to make symmetries exact.

---------- Initializing the Grid ----------
R = 
[      6.76031     -3.38015            0  ]
[            0       5.8546            0  ]
[            0            0           40  ]
unit cell volume = 1583.15
G =
[   0.929423   0.536603         -0  ]
[          0    1.07321         -0  ]
[         -0         -0    0.15708  ]
Minimum fftbox size, Smin = [  28  28  164  ]
Chosen fftbox size, S = [  28  28  168  ]

---------- Exchange Correlation functional ----------
Initalized PBE GGA exchange.
Initalized PBE GGA correlation.

---------- Setting up pseudopotentials ----------
Width of ionic core gaussian charges (only for fluid interactions / plotting) set to 0

Reading pseudopotential file '/home/gridsan/aligho/DFT/build-Nov24/pseudopotentials/SG15/Cs_ONCV_PBE.upf':
  'Cs' pseudopotential, 'PBE' functional
  Generated using ONCVPSP code by D. R. Hamann
  Author: Martin Schlipf and Francois Gygi  Date: 150915.
  9 valence electrons, 3 orbitals, 6 projectors, 2414 radial grid points, with lMax = 2
  Transforming local potential to a uniform radial grid of dG=0.02 with 1464 points.
  Transforming nonlocal projectors to a uniform radial grid of dG=0.02 with 432 points.
    5S    l: 0   occupation:  2.0   eigenvalue: -0.982388
    5P    l: 1   occupation:  6.0   eigenvalue: -0.496786
    6S    l: 0   occupation:  1.0   eigenvalue: -0.076670
  Transforming atomic orbitals to a uniform radial grid of dG=0.02 with 432 points.
  Core radius for overlap checks: 2.06 bohrs.
  Reading pulay file /home/gridsan/aligho/DFT/build-Nov24/pseudopotentials/SG15/Cs_ONCV_PBE.pulay ... using dE_dnG = -1.008762e-04 computed for Ecut = 20.

Initialized 1 species with 1 total atoms.

Folded 1 k-points by 48x48x1 to 2304 k-points.

---------- Setting up k-points, bands, fillings ----------
Reduced to 217 k-points under symmetry. 
Computing the number of bands and number of electrons
Calculating initial fillings.
nElectrons:   9.000000   nBands: 6   nStates: 217

----- Setting up reduced wavefunction bases (one per k-point) -----
average nbasis = 6763.527 , ideal nbasis = 6763.358

---------- Setting up coulomb interaction ----------
Initialized slab truncation along lattice direction 001

---------- Setting up 2D ewald sum ----------
Optimum gaussian width for ewald sums = 3.753049 bohr.
Real space sums over 289 unit cells with max indices [  8  8  0  ]
Reciprocal space sums over 81 terms with max indices [  4  4  0  ]

---------- Allocating electronic variables ----------
Initializing wave functions:  linear combination of atomic orbitals
Note: number of bands (6) exceeds available atomic orbitals (5)
Cs pseudo-atom occupations:   s ( 2 1 )  p ( 6 )
	FillingsUpdate:  mu: -0.107410490  nElectrons: 9.000000
LCAOMinimize: Iter:   0  F: -20.1033281697326629  |grad|_K:  6.237e-05  alpha:  1.000e+00
[d-3-11-2:67494] 18 more processes have sent help message help-mpi-common-cuda.txt / dlopen failed
[d-3-11-2:67494] Set MCA parameter "orte_base_help_aggregate" to 0 to see all help / error messages
[d-3-11-2:67494] 18 more processes have sent help message help-mpi-btl-openib-cpc-base.txt / no cpcs for port
	FillingsUpdate:  mu: -0.107097555  nElectrons: 9.000000
LCAOMinimize: Iter:   1  F: -20.1033423084519427  |grad|_K:  2.740e-06  alpha:  9.361e-01  linmin: -5.110e-02  cgtest:  1.035e+00  t[s]:      4.93
LCAOMinimize: Encountered beta<0, resetting CG.
	FillingsUpdate:  mu: -0.107084394  nElectrons: 9.000000
LCAOMinimize: Iter:   2  F: -20.1033423374054863  |grad|_K:  3.624e-08  alpha:  9.870e-01  linmin: -1.452e-02  cgtest:  2.607e-01  t[s]:      6.70
LCAOMinimize: Encountered beta<0, resetting CG.
	FillingsUpdate:  mu: -0.107084420  nElectrons: 9.000000
LCAOMinimize: Iter:   3  F: -20.1033423374124780  |grad|_K:  1.289e-08  alpha:  1.328e+00  linmin:  1.615e-01  cgtest: -9.982e-01  t[s]:      8.50
LCAOMinimize: Converged (|Delta F|<1.000000e-06 for 2 iters).


---- Citations for features of the code used in this run ----

   Software package:
      R. Sundararaman, K. Letchworth-Weaver, K.A. Schwarz, D. Gunceler, Y. Ozhabes and T.A. Arias, 'JDFTx: software for joint density-functional theory', SoftwareX 6, 278 (2017)

   gga-PBE exchange-correlation functional:
      J.P. Perdew, K. Burke and M. Ernzerhof, Phys. Rev. Lett. 77, 3865 (1996)

   Pseudopotentials:
      M Schlipf and F Gygi, Comput. Phys. Commun. 196, 36 (2015)

   Truncated Coulomb potentials:
      R. Sundararaman and T.A. Arias, Phys. Rev. B 87, 165122 (2013)

   Total energy minimization with Auxiliary Hamiltonian:
      C. Freysoldt, S. Boeck, and J. Neugebauer, Phys. Rev. B 79, 241103(R) (2009)

This list may not be complete. Please suggest additional citations or
report any other bugs at https://github.com/shankar1729/jdftx/issues

Initialization completed successfully at t[s]:      8.72


-------- Electronic minimization -----------
	FillingsUpdate:  mu: -0.107084420  nElectrons: 9.000000
ElecMinimize: Iter:   0  F: -20.103342337412499  |grad|_K:  3.639e-05  alpha:  1.000e+00
	FillingsUpdate:  mu: -0.104722348  nElectrons: 9.000000
	SubspaceRotationAdjust: set factor to 1
ElecMinimize: Iter:   1  F: -20.116206970669836  |grad|_K:  1.988e-05  alpha:  1.103e+00  linmin:  6.715e-05  t[s]:     12.57
	FillingsUpdate:  mu: -0.100501728  nElectrons: 9.000000
	SubspaceRotationAdjust: set factor to 0.452
ElecMinimize: Iter:   2  F: -20.116573461671706  |grad|_K:  8.066e-05  alpha:  1.963e+00  linmin:  2.971e-02  t[s]:     14.95
ElecMinimize: 	Bad step direction: g.d > 0.
ElecMinimize: 	Undoing step.
ElecMinimize: 	Step failed: resetting search direction.
	FillingsUpdate:  mu: -0.100501728  nElectrons: 9.000000
	SubspaceRotationAdjust: set factor to 0.329
ElecMinimize: Iter:   3  F: -20.116573461671727  |grad|_K:  5.895e-05  alpha:  0.000e+00
	FillingsUpdate:  mu: -0.108480759  nElectrons: 9.000000
	SubspaceRotationAdjust: set factor to 0.332
ElecMinimize: Iter:   4  F: -20.128196264194589  |grad|_K:  2.260e-05  alpha:  9.819e-01  linmin:  7.584e-03  t[s]:     18.97
	FillingsUpdate:  mu: -0.109707618  nElectrons: 9.000000
	SubspaceRotationAdjust: set factor to 0.351
ElecMinimize: Iter:   5  F: -20.131311113449158  |grad|_K:  1.392e-05  alpha:  7.521e-01  linmin: -1.233e-04  t[s]:     21.33
ElecMinimize: 	Wrong curvature in test step, increasing alphaT to 2.256214e+00.
	FillingsUpdate:  mu: -0.106475127  nElectrons: 9.000000
	SubspaceRotationAdjust: set factor to 0.413
ElecMinimize: Iter:   6  F: -20.134110840450266  |grad|_K:  1.171e-05  alpha: -4.212e+00  linmin: -1.807e-02  t[s]:     23.50
ElecMinimize: 	Predicted alpha/alphaT>3.000000, increasing alphaT to 3.000000e+00.
	FillingsUpdate:  mu: -0.104612578  nElectrons: 9.000000
	SubspaceRotationAdjust: set factor to 0.329
ElecMinimize: Iter:   7  F: -20.136239105155877  |grad|_K:  1.493e-05  alpha:  5.097e-01  linmin: -7.407e-03  t[s]:     26.59
	FillingsUpdate:  mu: -0.093212135  nElectrons: 9.000000
	SubspaceRotationAdjust: set factor to 0.379
ElecMinimize: Iter:   8  F: -20.139917992440221  |grad|_K:  1.455e-05  alpha:  5.064e-01  linmin: -4.214e-03  t[s]:     28.99
	FillingsUpdate:  mu: -0.088514554  nElectrons: 9.000000
	SubspaceRotationAdjust: set factor to 0.395
ElecMinimize: Iter:   9  F: -20.140633866553692  |grad|_K:  1.467e-05  alpha:  1.051e-01  linmin: -5.799e-03  t[s]:     31.35
	FillingsUpdate:  mu: -0.083933350  nElectrons: 9.000000
	SubspaceRotationAdjust: set factor to 0.404
ElecMinimize: Iter:  10  F: -20.141007661698605  |grad|_K:  1.287e-05  alpha:  1.962e-01  linmin: -1.206e-03  t[s]:     33.72
	FillingsUpdate:  mu: -0.082261017  nElectrons: 9.000000
	SubspaceRotationAdjust: set factor to 0.462
ElecMinimize: Iter:  11  F: -20.141047154071753  |grad|_K:  1.268e-05  alpha:  2.432e-02  linmin: -5.091e-03  t[s]:     36.09
	FillingsUpdate:  mu: -0.082312345  nElectrons: 9.000000
	SubspaceRotationAdjust: set factor to 0.541
ElecMinimize: Iter:  12  F: -20.141121415437645  |grad|_K:  1.243e-05  alpha:  1.483e-02  linmin: -8.846e-03  t[s]:     38.47
	FillingsUpdate:  mu: -0.082356696  nElectrons: 9.000000
	SubspaceRotationAdjust: set factor to 0.651
ElecMinimize: Iter:  13  F: -20.141160432885897  |grad|_K:  1.244e-05  alpha:  5.552e-03  linmin: -1.221e-02  t[s]:     40.84
	FillingsUpdate:  mu: -0.082383829  nElectrons: 9.000000
	SubspaceRotationAdjust: set factor to 0.807
ElecMinimize: Iter:  14  F: -20.141180903047630  |grad|_K:  1.269e-05  alpha:  2.151e-03  linmin: -1.448e-02  t[s]:     43.20
ElecMinimize: 	Step increased F by 5.165238e-06, reducing alpha to 6.116352e-04.
	FillingsUpdate:  mu: -0.082394155  nElectrons: 9.000000
	SubspaceRotationAdjust: set factor to 1.05
ElecMinimize: Iter:  15  F: -20.141188512949729  |grad|_K:  1.331e-05  alpha:  6.116e-04  linmin: -1.561e-02  t[s]:     47.15
ElecMinimize: 	Predicted alpha/alphaT>3.000000, increasing alphaT to 1.834906e-03.
ElecMinimize: 	Predicted alpha/alphaT>3.000000, increasing alphaT to 5.504717e-03.
	FillingsUpdate:  mu: -0.082143292  nElectrons: 9.000000
	SubspaceRotationAdjust: set factor to 0.57
ElecMinimize: Iter:  16  F: -20.141231523259890  |grad|_K:  3.712e-05  alpha:  4.961e-03  linmin:  5.177e-04  t[s]:     50.97
ElecMinimize: 	Bad step direction: g.d > 0.
ElecMinimize: 	Undoing step.
ElecMinimize: 	Step failed: resetting search direction.
	FillingsUpdate:  mu: -0.082143292  nElectrons: 9.000000
	SubspaceRotationAdjust: set factor to 0.331
ElecMinimize: Iter:  17  F: -20.141231523259897  |grad|_K:  2.827e-05  alpha:  0.000e+00
	FillingsUpdate:  mu: -0.082562496  nElectrons: 9.000000
	SubspaceRotationAdjust: set factor to 0.458
ElecMinimize: Iter:  18  F: -20.141290450008924  |grad|_K:  1.159e-05  alpha:  8.066e-03  linmin: -2.528e-02  t[s]:     54.97
ElecMinimize: 	Predicted alpha/alphaT>3.000000, increasing alphaT to 2.419727e-02.
ElecMinimize: 	Predicted alpha/alphaT>3.000000, increasing alphaT to 7.259182e-02.
ElecMinimize: 	Wrong curvature in test step, increasing alphaT to 2.177755e-01.
	FillingsUpdate:  mu: -0.082931483  nElectrons: 9.000000
	SubspaceRotationAdjust: set factor to 0.54
ElecMinimize: Iter:  19  F: -20.141505521055660  |grad|_K:  1.088e-05  alpha: -7.473e-01  linmin: -3.505e-02  t[s]:     58.58
	FillingsUpdate:  mu: -0.093121544  nElectrons: 9.000000
	SubspaceRotationAdjust: set factor to 0.556
ElecMinimize: Iter:  20  F: -20.143321276254117  |grad|_K:  1.198e-05  alpha:  7.935e-01  linmin:  3.783e-03  t[s]:     60.94
	FillingsUpdate:  mu: -0.096909284  nElectrons: 9.000000
	SubspaceRotationAdjust: set factor to 0.567
ElecMinimize: Iter:  21  F: -20.143725686070464  |grad|_K:  1.195e-05  alpha:  3.630e-01  linmin: -1.414e-03  t[s]:     63.29
	FillingsUpdate:  mu: -0.100490120  nElectrons: 9.000000
	SubspaceRotationAdjust: set factor to 0.623
ElecMinimize: Iter:  22  F: -20.144241784935197  |grad|_K:  8.725e-06  alpha:  2.738e-01  linmin: -9.887e-03  t[s]:     65.64
	FillingsUpdate:  mu: -0.100037649  nElectrons: 9.000000
	SubspaceRotationAdjust: set factor to 0.398
ElecMinimize: Iter:  23  F: -20.144497732555397  |grad|_K:  1.193e-05  alpha:  2.783e-01  linmin:  2.889e-03  t[s]:     68.02
	FillingsUpdate:  mu: -0.097164728  nElectrons: 9.000000
	SubspaceRotationAdjust: set factor to 0.531
ElecMinimize: Iter:  24  F: -20.144604650787564  |grad|_K:  6.952e-06  alpha:  7.523e-02  linmin: -4.890e-03  t[s]:     70.38
	FillingsUpdate:  mu: -0.095773211  nElectrons: 9.000000
	SubspaceRotationAdjust: set factor to 0.334
ElecMinimize: Iter:  25  F: -20.144643004718894  |grad|_K:  1.461e-05  alpha:  6.307e-02  linmin:  6.684e-03  t[s]:     72.73
ElecMinimize: 	Bad step direction: g.d > 0.
ElecMinimize: 	Undoing step.
ElecMinimize: 	Step failed: resetting search direction.
	FillingsUpdate:  mu: -0.095773211  nElectrons: 9.000000
	SubspaceRotationAdjust: set factor to 0.235
ElecMinimize: Iter:  26  F: -20.144643004718894  |grad|_K:  1.226e-05  alpha:  0.000e+00
ElecMinimize: 	Wrong curvature in test step, increasing alphaT to 1.892183e-01.
	FillingsUpdate:  mu: -0.094676540  nElectrons: 9.000000
	SubspaceRotationAdjust: set factor to 0.281
ElecMinimize: Iter:  27  F: -20.144843795046860  |grad|_K:  6.400e-06  alpha: -1.558e-01  linmin: -3.951e-02  t[s]:     76.57
	FillingsUpdate:  mu: -0.093407497  nElectrons: 9.000000
	SubspaceRotationAdjust: set factor to 0.304
ElecMinimize: Iter:  28  F: -20.145241603775677  |grad|_K:  5.915e-06  alpha:  8.490e-01  linmin: -7.789e-04  t[s]:     78.95
	FillingsUpdate:  mu: -0.087267284  nElectrons: 9.000000
	SubspaceRotationAdjust: set factor to 0.292
ElecMinimize: Iter:  29  F: -20.145518981579766  |grad|_K:  7.395e-06  alpha:  2.033e+00  linmin:  1.953e-02  t[s]:     81.33
	FillingsUpdate:  mu: -0.087485843  nElectrons: 9.000000
	SubspaceRotationAdjust: set factor to 0.311
ElecMinimize: Iter:  30  F: -20.145532427558717  |grad|_K:  7.002e-06  alpha:  8.636e-02  linmin: -6.364e-03  t[s]:     83.75
ElecMinimize: 	Predicted alpha/alphaT>3.000000, increasing alphaT to 2.590880e-01.
	FillingsUpdate:  mu: -0.088898963  nElectrons: 9.000000
	SubspaceRotationAdjust: set factor to 0.349
ElecMinimize: Iter:  31  F: -20.145698989187714  |grad|_K:  5.561e-06  alpha:  3.418e-01  linmin:  2.217e-03  t[s]:     86.85
	FillingsUpdate:  mu: -0.093397688  nElectrons: 9.000000
	SubspaceRotationAdjust: set factor to 0.393
ElecMinimize: Iter:  32  F: -20.145924949427940  |grad|_K:  8.439e-06  alpha:  7.871e-01  linmin: -9.116e-03  t[s]:     89.18
	FillingsUpdate:  mu: -0.096768705  nElectrons: 9.000000
	SubspaceRotationAdjust: set factor to 0.405
ElecMinimize: Iter:  33  F: -20.146022065486530  |grad|_K:  8.586e-06  alpha:  1.493e-01  linmin: -7.152e-04  t[s]:     91.56
	FillingsUpdate:  mu: -0.097501223  nElectrons: 9.000000
	SubspaceRotationAdjust: set factor to 0.431
ElecMinimize: Iter:  34  F: -20.146067368024550  |grad|_K:  7.988e-06  alpha:  4.807e-02  linmin: -1.194e-02  t[s]:     93.91
	FillingsUpdate:  mu: -0.098619511  nElectrons: 9.000000
	SubspaceRotationAdjust: set factor to 0.464
ElecMinimize: Iter:  35  F: -20.146136441895681  |grad|_K:  6.623e-06  alpha:  6.351e-02  linmin: -2.103e-02  t[s]:     96.28
	FillingsUpdate:  mu: -0.099116991  nElectrons: 9.000000
	SubspaceRotationAdjust: set factor to 0.534
ElecMinimize: Iter:  36  F: -20.146168132474379  |grad|_K:  5.597e-06  alpha:  5.533e-02  linmin: -3.688e-02  t[s]:     98.64
	FillingsUpdate:  mu: -0.099197183  nElectrons: 9.000000
	SubspaceRotationAdjust: set factor to 0.314
ElecMinimize: Iter:  37  F: -20.146178316509033  |grad|_K:  1.047e-05  alpha:  6.332e-02  linmin:  5.015e-03  t[s]:    101.01
	FillingsUpdate:  mu: -0.098741782  nElectrons: 9.000000
	SubspaceRotationAdjust: set factor to 0.415
ElecMinimize: Iter:  38  F: -20.146200513040760  |grad|_K:  4.222e-06  alpha:  2.978e-02  linmin: -1.574e-03  t[s]:    103.35
ElecMinimize: 	Wrong curvature in test step, increasing alphaT to 8.933422e-02.
	FillingsUpdate:  mu: -0.098381103  nElectrons: 9.000000
	SubspaceRotationAdjust: set factor to 0.531
ElecMinimize: Iter:  39  F: -20.146213757385166  |grad|_K:  4.734e-06  alpha: -4.526e-02  linmin: -1.088e-02  t[s]:    105.51
	FillingsUpdate:  mu: -0.095175237  nElectrons: 9.000000
	SubspaceRotationAdjust: set factor to 0.829
ElecMinimize: Iter:  40  F: -20.146403504809989  |grad|_K:  4.564e-06  alpha:  1.432e-01  linmin: -2.523e-02  t[s]:    107.87
	FillingsUpdate:  mu: -0.089716332  nElectrons: 9.000000
	SubspaceRotationAdjust: set factor to 0.872
ElecMinimize: Iter:  41  F: -20.146414637270233  |grad|_K:  5.089e-06  alpha:  6.534e-02  linmin:  4.595e-03  t[s]:    110.26
ElecMinimize: 	Wrong curvature in test step, increasing alphaT to 1.960114e-01.
	FillingsUpdate:  mu: -0.087954463  nElectrons: 9.000000
	SubspaceRotationAdjust: set factor to 0.945
ElecMinimize: Iter:  42  F: -20.146439408984854  |grad|_K:  4.535e-06  alpha: -7.081e-02  linmin:  3.321e-03  t[s]:    112.44
ElecMinimize: 	Step increased F by 4.077164e-05, reducing alpha to 4.185462e-03.
	FillingsUpdate:  mu: -0.087937347  nElectrons: 9.000000
	SubspaceRotationAdjust: set factor to 1.07
ElecMinimize: Iter:  43  F: -20.146440566013585  |grad|_K:  4.608e-06  alpha:  4.185e-03  linmin: -9.578e-03  t[s]:    116.38
ElecMinimize: 	Predicted alpha/alphaT>3.000000, increasing alphaT to 1.255639e-02.
	FillingsUpdate:  mu: -0.087923136  nElectrons: 9.000000
	SubspaceRotationAdjust: set factor to 0.996
ElecMinimize: Iter:  44  F: -20.146443704792471  |grad|_K:  6.196e-06  alpha:  5.987e-03  linmin: -4.630e-03  t[s]:    119.46
	FillingsUpdate:  mu: -0.087827098  nElectrons: 9.000000
	SubspaceRotationAdjust: set factor to 0.568
ElecMinimize: Iter:  45  F: -20.146447989276865  |grad|_K:  1.148e-05  alpha:  7.831e-03  linmin:  5.227e-04  t[s]:    121.81
ElecMinimize: 	Wrong curvature in test step, increasing alphaT to 2.349267e-02.
	FillingsUpdate:  mu: -0.088608689  nElectrons: 9.000000
	SubspaceRotationAdjust: set factor to 0.66
ElecMinimize: Iter:  46  F: -20.146466200049186  |grad|_K:  3.542e-06  alpha: -3.533e-03  linmin: -7.137e-03  t[s]:    124.07
	FillingsUpdate:  mu: -0.092187241  nElectrons: 9.000000
	SubspaceRotationAdjust: set factor to 0.562
ElecMinimize: Iter:  47  F: -20.146585122224781  |grad|_K:  4.279e-06  alpha:  8.805e-02  linmin: -2.142e-02  t[s]:    126.43
	FillingsUpdate:  mu: -0.094754933  nElectrons: 9.000000
	SubspaceRotationAdjust: set factor to 0.31
ElecMinimize: Iter:  48  F: -20.146642149264778  |grad|_K:  8.733e-06  alpha:  4.940e-02  linmin: -3.345e-03  t[s]:    128.80
ElecMinimize: 	Step increased F by 1.821654e-05, reducing alpha to 1.341419e-03.
	FillingsUpdate:  mu: -0.094797167  nElectrons: 9.000000
	SubspaceRotationAdjust: set factor to 0.209
ElecMinimize: Iter:  49  F: -20.146651064633069  |grad|_K:  5.339e-06  alpha:  1.341e-03  linmin: -3.679e-03  t[s]:    132.75
	FillingsUpdate:  mu: -0.094835625  nElectrons: 9.000000
	SubspaceRotationAdjust: set factor to 0.264
ElecMinimize: Iter:  50  F: -20.146655080695670  |grad|_K:  3.522e-06  alpha:  3.268e-03  linmin: -4.163e-03  t[s]:    135.13
	FillingsUpdate:  mu: -0.094886184  nElectrons: 9.000000
	SubspaceRotationAdjust: set factor to 0.326
ElecMinimize: Iter:  51  F: -20.146657985695132  |grad|_K:  3.200e-06  alpha:  9.800e-03  linmin: -3.340e-03  t[s]:    137.50
	FillingsUpdate:  mu: -0.094901201  nElectrons: 9.000000
	SubspaceRotationAdjust: set factor to 0.413
ElecMinimize: Iter:  52  F: -20.146658719784199  |grad|_K:  3.249e-06  alpha:  2.762e-03  linmin: -2.430e-03  t[s]:    139.88
	FillingsUpdate:  mu: -0.094909047  nElectrons: 9.000000
	SubspaceRotationAdjust: set factor to 0.539
ElecMinimize: Iter:  53  F: -20.146658784324327  |grad|_K:  3.363e-06  alpha:  3.476e-04  linmin: -2.196e-03  t[s]:    142.25
	FillingsUpdate:  mu: -0.094920586  nElectrons: 9.000000
	SubspaceRotationAdjust: set factor to 0.656
ElecMinimize: Iter:  54  F: -20.146658828492001  |grad|_K:  3.528e-06  alpha:  3.079e-04  linmin:  2.506e-04  t[s]:    144.62
	FillingsUpdate:  mu: -0.094929013  nElectrons: 9.000000
	SubspaceRotationAdjust: set factor to 0.712
ElecMinimize: Iter:  55  F: -20.146658845018756  |grad|_K:  3.686e-06  alpha:  1.563e-04  linmin: -2.286e-05  t[s]:    146.99
	FillingsUpdate:  mu: -0.094939395  nElectrons: 9.000000
	SubspaceRotationAdjust: set factor to 0.731
ElecMinimize: Iter:  56  F: -20.146658863151430  |grad|_K:  3.774e-06  alpha:  1.509e-04  linmin: -3.437e-05  t[s]:    149.36
	FillingsUpdate:  mu: -0.094952665  nElectrons: 9.000000
	SubspaceRotationAdjust: set factor to 0.724
ElecMinimize: Iter:  57  F: -20.146658883372325  |grad|_K:  3.839e-06  alpha:  1.597e-04  linmin: -1.929e-04  t[s]:    151.79
	FillingsUpdate:  mu: -0.094973888  nElectrons: 9.000000
	SubspaceRotationAdjust: set factor to 0.686
ElecMinimize: Iter:  58  F: -20.146658912916735  |grad|_K:  3.923e-06  alpha:  2.126e-04  linmin: -7.521e-04  t[s]:    154.17
	FillingsUpdate:  mu: -0.095055853  nElectrons: 9.000000
	SubspaceRotationAdjust: set factor to 0.58
ElecMinimize: Iter:  59  F: -20.146659051167159  |grad|_K:  4.203e-06  alpha:  6.009e-04  linmin: -3.618e-03  t[s]:    156.53
	FillingsUpdate:  mu: -0.095159528  nElectrons: 9.000000
	SubspaceRotationAdjust: set factor to 0.529
ElecMinimize: Iter:  60  F: -20.146659215000778  |grad|_K:  3.983e-06  alpha:  5.699e-04  linmin:  1.980e-03  t[s]:    158.89
	FillingsUpdate:  mu: -0.095198766  nElectrons: 9.000000
	SubspaceRotationAdjust: set factor to 0.543
ElecMinimize: Iter:  61  F: -20.146659217885958  |grad|_K:  3.728e-06  alpha:  2.727e-04  linmin:  1.209e-03  t[s]:    161.24
ElecMinimize: 	Wrong curvature in test step, increasing alphaT to 8.180895e-04.
	FillingsUpdate:  mu: -0.095227481  nElectrons: 9.000000
	SubspaceRotationAdjust: set factor to 0.612
ElecMinimize: Iter:  62  F: -20.146659267609010  |grad|_K:  3.566e-06  alpha: -6.108e-03  linmin: -4.366e-03  t[s]:    163.43
	FillingsUpdate:  mu: -0.095606079  nElectrons: 9.000000
	SubspaceRotationAdjust: set factor to 0.688
ElecMinimize: Iter:  63  F: -20.146675990321071  |grad|_K:  2.190e-06  alpha:  1.501e-02  linmin: -9.935e-02  t[s]:    165.81
ElecMinimize: 	Predicted alpha/alphaT>3.000000, increasing alphaT to 4.501536e-02.
	FillingsUpdate:  mu: -0.096066937  nElectrons: 9.000000
	SubspaceRotationAdjust: set factor to 0.825
ElecMinimize: Iter:  64  F: -20.146700147932226  |grad|_K:  2.484e-06  alpha:  1.169e-01  linmin: -8.260e-03  t[s]:    168.93
	FillingsUpdate:  mu: -0.096218060  nElectrons: 9.000000
	SubspaceRotationAdjust: set factor to 0.888
ElecMinimize: Iter:  65  F: -20.146703915571248  |grad|_K:  2.801e-06  alpha:  1.869e-02  linmin:  2.244e-03  t[s]:    171.28
ElecMinimize: 	Wrong curvature in test step, increasing alphaT to 5.606628e-02.
	FillingsUpdate:  mu: -0.096235829  nElectrons: 9.000000
	SubspaceRotationAdjust: set factor to 0.597
ElecMinimize: Iter:  66  F: -20.146707051420460  |grad|_K:  6.111e-06  alpha: -1.045e-02  linmin: -5.995e-03  t[s]:    173.45
ElecMinimize: 	Step increased F by 6.866770e-05, reducing alpha to 2.380193e-03.
	FillingsUpdate:  mu: -0.096206372  nElectrons: 9.000000
	SubspaceRotationAdjust: set factor to 0.843
ElecMinimize: Iter:  67  F: -20.146718777511364  |grad|_K:  3.839e-06  alpha:  2.380e-03  linmin: -1.093e-03  t[s]:    177.40
	FillingsUpdate:  mu: -0.096206951  nElectrons: 9.000000
	SubspaceRotationAdjust: set factor to 0.915
ElecMinimize: Iter:  68  F: -20.146718944162696  |grad|_K:  3.605e-06  alpha:  1.320e-03  linmin:  3.160e-04  t[s]:    179.75
	FillingsUpdate:  mu: -0.096205973  nElectrons: 9.000000
	SubspaceRotationAdjust: set factor to 0.96
ElecMinimize: Iter:  69  F: -20.146719209762765  |grad|_K:  3.533e-06  alpha:  2.161e-03  linmin: -1.063e-03  t[s]:    182.11
ElecMinimize: 	Predicted alpha/alphaT>3.000000, increasing alphaT to 6.482209e-03.
ElecMinimize: 	Step increased F by 2.022596e-08, reducing alpha to 1.808966e-03.
	FillingsUpdate:  mu: -0.096202718  nElectrons: 9.000000
	SubspaceRotationAdjust: set factor to 1.01
ElecMinimize: Iter:  70  F: -20.146719709011016  |grad|_K:  3.553e-06  alpha:  1.809e-03  linmin: -3.419e-03  t[s]:    186.79
ElecMinimize: 	Predicted alpha/alphaT>3.000000, increasing alphaT to 5.426897e-03.
ElecMinimize: 	Predicted alpha/alphaT>3.000000, increasing alphaT to 1.628069e-02.
ElecMinimize: 	Wrong curvature in test step, increasing alphaT to 4.884207e-02.
	FillingsUpdate:  mu: -0.096154778  nElectrons: 9.000000
	SubspaceRotationAdjust: set factor to 0.783
ElecMinimize: Iter:  71  F: -20.146731472184968  |grad|_K:  5.990e-06  alpha: -1.679e-02  linmin: -9.130e-03  t[s]:    190.46
ElecMinimize: 	Step increased F by 2.709554e-04, reducing alpha to 7.060759e-03.
ElecMinimize: 	Step increased F by 3.352930e-06, reducing alpha to 7.060759e-04.
	FillingsUpdate:  mu: -0.096155955  nElectrons: 9.000000
	SubspaceRotationAdjust: set factor to 1.14
ElecMinimize: Iter:  72  F: -20.146735302216822  |grad|_K:  4.330e-06  alpha:  7.061e-04  linmin: -2.858e-03  t[s]:    196.00
	FillingsUpdate:  mu: -0.096157869  nElectrons: 9.000000
	SubspaceRotationAdjust: set factor to 1.4
ElecMinimize: Iter:  73  F: -20.146735399342266  |grad|_K:  4.662e-06  alpha:  2.388e-04  linmin: -1.147e-04  t[s]:    198.37
	FillingsUpdate:  mu: -0.096158861  nElectrons: 9.000000
	SubspaceRotationAdjust: set factor to 1.48
ElecMinimize: Iter:  74  F: -20.146735419163377  |grad|_K:  4.945e-06  alpha:  9.714e-05  linmin: -2.685e-06  t[s]:    200.75
	FillingsUpdate:  mu: -0.096159832  nElectrons: 9.000000
	SubspaceRotationAdjust: set factor to 1.46
ElecMinimize: Iter:  75  F: -20.146735438056414  |grad|_K:  5.101e-06  alpha:  8.765e-05  linmin: -4.871e-06  t[s]:    203.12
	FillingsUpdate:  mu: -0.096160854  nElectrons: 9.000000
	SubspaceRotationAdjust: set factor to 1.39
ElecMinimize: Iter:  76  F: -20.146735459374462  |grad|_K:  5.200e-06  alpha:  9.257e-05  linmin: -1.133e-05  t[s]:    205.50
	FillingsUpdate:  mu: -0.096161951  nElectrons: 9.000000
	SubspaceRotationAdjust: set factor to 1.29
ElecMinimize: Iter:  77  F: -20.146735484786745  |grad|_K:  5.275e-06  alpha:  1.053e-04  linmin: -1.597e-05  t[s]:    207.86
	FillingsUpdate:  mu: -0.096163109  nElectrons: 9.000000
	SubspaceRotationAdjust: set factor to 1.17
ElecMinimize: Iter:  78  F: -20.146735516594944  |grad|_K:  5.339e-06  alpha:  1.269e-04  linmin: -1.897e-05  t[s]:    210.24
	FillingsUpdate:  mu: -0.096164193  nElectrons: 9.000000
	SubspaceRotationAdjust: set factor to 1.04
ElecMinimize: Iter:  79  F: -20.146735558298548  |grad|_K:  5.398e-06  alpha:  1.608e-04  linmin: -2.004e-05  t[s]:    212.60
	FillingsUpdate:  mu: -0.096164703  nElectrons: 9.000000
	SubspaceRotationAdjust: set factor to 0.906
ElecMinimize: Iter:  80  F: -20.146735615060653  |grad|_K:  5.444e-06  alpha:  2.122e-04  linmin: -2.052e-05  t[s]:    215.01
	FillingsUpdate:  mu: -0.096163019  nElectrons: 9.000000
	SubspaceRotationAdjust: set factor to 0.778
ElecMinimize: Iter:  81  F: -20.146735695944205  |grad|_K:  5.457e-06  alpha:  2.932e-04  linmin: -2.705e-05  t[s]:    217.38
	FillingsUpdate:  mu: -0.096154230  nElectrons: 9.000000
	SubspaceRotationAdjust: set factor to 0.667
ElecMinimize: Iter:  82  F: -20.146735831942124  |grad|_K:  5.405e-06  alpha:  4.626e-04  linmin: -6.371e-05  t[s]:    219.76
ElecMinimize: 	Predicted alpha/alphaT>3.000000, increasing alphaT to 1.387744e-03.
ElecMinimize: 	Predicted alpha/alphaT>3.000000, increasing alphaT to 4.163231e-03.
ElecMinimize: 	Wrong curvature in test step, increasing alphaT to 1.248969e-02.
	FillingsUpdate:  mu: -0.096042653  nElectrons: 9.000000
	SubspaceRotationAdjust: set factor to 0.744
ElecMinimize: Iter:  83  F: -20.146742170467260  |grad|_K:  3.279e-06  alpha: -1.332e-03  linmin: -9.967e-03  t[s]:    223.39
	FillingsUpdate:  mu: -0.095274218  nElectrons: 9.000000
	SubspaceRotationAdjust: set factor to 0.745
ElecMinimize: Iter:  84  F: -20.146766174167244  |grad|_K:  1.966e-06  alpha:  4.548e-02  linmin: -3.129e-03  t[s]:    225.76
	FillingsUpdate:  mu: -0.095243293  nElectrons: 9.000000
	SubspaceRotationAdjust: set factor to 0.765
ElecMinimize: Iter:  85  F: -20.146767753393565  |grad|_K:  1.929e-06  alpha:  1.201e-02  linmin: -4.691e-03  t[s]:    228.17
ElecMinimize: 	Predicted alpha/alphaT>3.000000, increasing alphaT to 3.603283e-02.
	FillingsUpdate:  mu: -0.095218895  nElectrons: 9.000000
	SubspaceRotationAdjust: set factor to 0.789
ElecMinimize: Iter:  86  F: -20.146769318041930  |grad|_K:  1.901e-06  alpha:  9.760e-03  linmin: -6.872e-03  t[s]:    231.29
ElecMinimize: 	Predicted alpha/alphaT>3.000000, increasing alphaT to 2.928059e-02.
	FillingsUpdate:  mu: -0.095193147  nElectrons: 9.000000
	SubspaceRotationAdjust: set factor to 0.844
ElecMinimize: Iter:  87  F: -20.146771144694188  |grad|_K:  1.907e-06  alpha:  9.692e-03  linmin: -8.645e-03  t[s]:    234.35
	FillingsUpdate:  mu: -0.095184514  nElectrons: 9.000000
	SubspaceRotationAdjust: set factor to 0.988
ElecMinimize: Iter:  88  F: -20.146771512051981  |grad|_K:  2.010e-06  alpha:  1.816e-03  linmin: -1.023e-02  t[s]:    236.73
	FillingsUpdate:  mu: -0.095116022  nElectrons: 9.000000
	SubspaceRotationAdjust: set factor to 0.726
ElecMinimize: Iter:  89  F: -20.146771744960354  |grad|_K:  3.185e-06  alpha:  3.813e-03  linmin:  6.383e-03  t[s]:    239.10
ElecMinimize: 	Bad step direction: g.d > 0.
ElecMinimize: 	Undoing step.
ElecMinimize: 	Step failed: resetting search direction.
	FillingsUpdate:  mu: -0.095116022  nElectrons: 9.000000
	SubspaceRotationAdjust: set factor to 0.595
ElecMinimize: Iter:  90  F: -20.146771744960361  |grad|_K:  2.883e-06  alpha:  0.000e+00
ElecMinimize: 	Predicted alpha/alphaT>3.000000, increasing alphaT to 1.143903e-02.
	FillingsUpdate:  mu: -0.095185555  nElectrons: 9.000000
	SubspaceRotationAdjust: set factor to 0.862
ElecMinimize: Iter:  91  F: -20.146774687139782  |grad|_K:  2.164e-06  alpha:  3.038e-02  linmin: -3.359e-02  t[s]:    243.89
ElecMinimize: 	Wrong curvature in test step, increasing alphaT to 9.113131e-02.
	FillingsUpdate:  mu: -0.095536491  nElectrons: 9.000000
	SubspaceRotationAdjust: set factor to 0.522
ElecMinimize: Iter:  92  F: -20.146786379547919  |grad|_K:  4.103e-06  alpha: -8.114e-03  linmin: -3.082e-02  t[s]:    246.11
	FillingsUpdate:  mu: -0.093179291  nElectrons: 9.000000
	SubspaceRotationAdjust: set factor to 0.511
ElecMinimize: Iter:  93  F: -20.146801755121018  |grad|_K:  2.325e-06  alpha:  2.841e-01  linmin:  1.694e-02  t[s]:    248.52
ElecMinimize: 	Bad step direction: g.d > 0.
ElecMinimize: 	Undoing step.
ElecMinimize: 	Step failed: resetting search direction.
	FillingsUpdate:  mu: -0.093179291  nElectrons: 9.000000
	SubspaceRotationAdjust: set factor to 0.535
ElecMinimize: Iter:  94  F: -20.146801755121011  |grad|_K:  2.324e-06  alpha:  0.000e+00
ElecMinimize: 	Predicted alpha/alphaT>3.000000, increasing alphaT to 8.524326e-01.
	FillingsUpdate:  mu: -0.095741082  nElectrons: 9.000000
	SubspaceRotationAdjust: set factor to 0.524
ElecMinimize: Iter:  95  F: -20.146837440861955  |grad|_K:  1.089e-06  alpha:  7.277e-01  linmin:  1.074e-02  t[s]:    253.28
	FillingsUpdate:  mu: -0.095631099  nElectrons: 9.000000
	SubspaceRotationAdjust: set factor to 0.549
ElecMinimize: Iter:  96  F: -20.146843683807674  |grad|_K:  6.724e-07  alpha:  6.562e-01  linmin: -2.833e-05  t[s]:    255.64
ElecMinimize: 	Predicted alpha/alphaT>3.000000, increasing alphaT to 1.968734e+00.
	FillingsUpdate:  mu: -0.094340966  nElectrons: 9.000000
	SubspaceRotationAdjust: set factor to 0.535
ElecMinimize: Iter:  97  F: -20.146850402496863  |grad|_K:  8.628e-07  alpha:  1.694e+00  linmin: -1.005e-04  t[s]:    258.73
	FillingsUpdate:  mu: -0.094021412  nElectrons: 9.000000
	SubspaceRotationAdjust: set factor to 0.585
ElecMinimize: Iter:  98  F: -20.146862767654842  |grad|_K:  9.732e-07  alpha:  1.884e+00  linmin:  2.727e-03  t[s]:    261.07
	FillingsUpdate:  mu: -0.094253855  nElectrons: 9.000000
	SubspaceRotationAdjust: set factor to 0.703
ElecMinimize: Iter:  99  F: -20.146867464519463  |grad|_K:  5.939e-07  alpha:  8.693e-01  linmin:  4.565e-04  t[s]:    263.42
	FillingsUpdate:  mu: -0.095284990  nElectrons: 9.000000
	SubspaceRotationAdjust: set factor to 0.645
ElecMinimize: Iter: 100  F: -20.146869617349882  |grad|_K:  3.298e-07  alpha:  6.765e-01  linmin:  1.580e-03  t[s]:    265.79
	FillingsUpdate:  mu: -0.095234356  nElectrons: 9.000000
	SubspaceRotationAdjust: set factor to 0.69
ElecMinimize: Iter: 101  F: -20.146870670471458  |grad|_K:  3.126e-07  alpha:  1.227e+00  linmin:  4.276e-05  t[s]:    268.19
	FillingsUpdate:  mu: -0.095078894  nElectrons: 9.000000
	SubspaceRotationAdjust: set factor to 0.693
ElecMinimize: Iter: 102  F: -20.146871309191166  |grad|_K:  2.550e-07  alpha:  4.504e-01  linmin: -1.585e-02  t[s]:    270.57
	FillingsUpdate:  mu: -0.094799586  nElectrons: 9.000000
	SubspaceRotationAdjust: set factor to 0.711
ElecMinimize: Iter: 103  F: -20.146872292556516  |grad|_K:  3.536e-07  alpha:  1.060e+00  linmin:  1.286e-04  t[s]:    272.94
	FillingsUpdate:  mu: -0.094920248  nElectrons: 9.000000
	SubspaceRotationAdjust: set factor to 0.745
ElecMinimize: Iter: 104  F: -20.146873002840710  |grad|_K:  4.061e-07  alpha:  6.558e-01  linmin: -7.729e-06  t[s]:    275.31
	FillingsUpdate:  mu: -0.095115718  nElectrons: 9.000000
	SubspaceRotationAdjust: set factor to 0.74
ElecMinimize: Iter: 105  F: -20.146873678242315  |grad|_K:  3.712e-07  alpha:  4.651e-01  linmin: -6.529e-06  t[s]:    277.69
	FillingsUpdate:  mu: -0.095105722  nElectrons: 9.000000
	SubspaceRotationAdjust: set factor to 0.754
ElecMinimize: Iter: 106  F: -20.146874220614539  |grad|_K:  3.036e-07  alpha:  4.465e-01  linmin:  2.449e-05  t[s]:    280.08
	FillingsUpdate:  mu: -0.095040357  nElectrons: 9.000000
	SubspaceRotationAdjust: set factor to 0.751
ElecMinimize: Iter: 107  F: -20.146874508839151  |grad|_K:  2.048e-07  alpha:  3.554e-01  linmin:  7.072e-06  t[s]:    282.42
	FillingsUpdate:  mu: -0.095089141  nElectrons: 9.000000
	SubspaceRotationAdjust: set factor to 0.818
ElecMinimize: Iter: 108  F: -20.146874645212733  |grad|_K:  1.593e-07  alpha:  3.694e-01  linmin: -6.201e-06  t[s]:    284.84
	FillingsUpdate:  mu: -0.095193062  nElectrons: 9.000000
	SubspaceRotationAdjust: set factor to 0.821
ElecMinimize: Iter: 109  F: -20.146874753183823  |grad|_K:  1.600e-07  alpha:  4.801e-01  linmin: -1.800e-04  t[s]:    287.21
	FillingsUpdate:  mu: -0.095249597  nElectrons: 9.000000
	SubspaceRotationAdjust: set factor to 0.829
ElecMinimize: Iter: 110  F: -20.146874889889311  |grad|_K:  1.786e-07  alpha:  5.952e-01  linmin: -7.436e-05  t[s]:    289.57
	FillingsUpdate:  mu: -0.095218363  nElectrons: 9.000000
	SubspaceRotationAdjust: set factor to 0.864
ElecMinimize: Iter: 111  F: -20.146875055893382  |grad|_K:  1.868e-07  alpha:  5.860e-01  linmin: -1.443e-06  t[s]:    291.94
	FillingsUpdate:  mu: -0.095116186  nElectrons: 9.000000
	SubspaceRotationAdjust: set factor to 0.895
ElecMinimize: Iter: 112  F: -20.146875204381598  |grad|_K:  1.664e-07  alpha:  4.811e-01  linmin:  3.199e-05  t[s]:    294.33
	FillingsUpdate:  mu: -0.095038667  nElectrons: 9.000000
	SubspaceRotationAdjust: set factor to 0.953
ElecMinimize: Iter: 113  F: -20.146875314488916  |grad|_K:  1.473e-07  alpha:  4.532e-01  linmin:  2.592e-05  t[s]:    296.69
	FillingsUpdate:  mu: -0.095070177  nElectrons: 9.000000
	SubspaceRotationAdjust: set factor to 1.02
ElecMinimize: Iter: 114  F: -20.146875391285260  |grad|_K:  1.116e-07  alpha:  4.033e-01  linmin: -2.217e-06  t[s]:    299.08
	FillingsUpdate:  mu: -0.095112871  nElectrons: 9.000000
	SubspaceRotationAdjust: set factor to 1
ElecMinimize: Iter: 115  F: -20.146875432808326  |grad|_K:  8.699e-08  alpha:  3.783e-01  linmin: -2.169e-05  t[s]:    301.48
	FillingsUpdate:  mu: -0.095112834  nElectrons: 9.000000
	SubspaceRotationAdjust: set factor to 1.03
ElecMinimize: Iter: 116  F: -20.146875464169423  |grad|_K:  8.329e-08  alpha:  4.693e-01  linmin:  2.100e-06  t[s]:    303.85
	FillingsUpdate:  mu: -0.095085782  nElectrons: 9.000000
	SubspaceRotationAdjust: set factor to 1.05
ElecMinimize: Iter: 117  F: -20.146875494233882  |grad|_K:  7.868e-08  alpha:  4.921e-01  linmin:  6.839e-06  t[s]:    306.22
	FillingsUpdate:  mu: -0.095084296  nElectrons: 9.000000
	SubspaceRotationAdjust: set factor to 1.12
ElecMinimize: Iter: 118  F: -20.146875518406617  |grad|_K:  6.868e-08  alpha:  4.436e-01  linmin:  4.197e-07  t[s]:    308.60
	FillingsUpdate:  mu: -0.095112053  nElectrons: 9.000000
	SubspaceRotationAdjust: set factor to 1.13
ElecMinimize: Iter: 119  F: -20.146875537100890  |grad|_K:  6.222e-08  alpha:  4.499e-01  linmin: -1.286e-05  t[s]:    310.97
	FillingsUpdate:  mu: -0.095126821  nElectrons: 9.000000
	SubspaceRotationAdjust: set factor to 1.14
ElecMinimize: Iter: 120  F: -20.146875553142952  |grad|_K:  5.720e-08  alpha:  4.697e-01  linmin: -1.996e-06  t[s]:    313.34
	FillingsUpdate:  mu: -0.095110977  nElectrons: 9.000000
	SubspaceRotationAdjust: set factor to 1.18
ElecMinimize: Iter: 121  F: -20.146875566627784  |grad|_K:  5.436e-08  alpha:  4.675e-01  linmin:  5.003e-06  t[s]:    315.68
	FillingsUpdate:  mu: -0.095084131  nElectrons: 9.000000
	SubspaceRotationAdjust: set factor to 1.21
ElecMinimize: Iter: 122  F: -20.146875580720376  |grad|_K:  6.067e-08  alpha:  5.423e-01  linmin:  1.442e-05  t[s]:    318.04
	FillingsUpdate:  mu: -0.095086591  nElectrons: 9.000000
	SubspaceRotationAdjust: set factor to 1.23
ElecMinimize: Iter: 123  F: -20.146875598721856  |grad|_K:  6.409e-08  alpha:  5.569e-01  linmin:  1.366e-06  t[s]:    320.47
	FillingsUpdate:  mu: -0.095105173  nElectrons: 9.000000
	SubspaceRotationAdjust: set factor to 1.23
ElecMinimize: Iter: 124  F: -20.146875614654643  |grad|_K:  5.400e-08  alpha:  4.405e-01  linmin: -7.573e-07  t[s]:    322.86
	FillingsUpdate:  mu: -0.095096290  nElectrons: 9.000000
	SubspaceRotationAdjust: set factor to 1.33
ElecMinimize: Iter: 125  F: -20.146875624654591  |grad|_K:  4.148e-08  alpha:  3.892e-01  linmin:  1.382e-06  t[s]:    325.19
	FillingsUpdate:  mu: -0.095079531  nElectrons: 9.000000
	SubspaceRotationAdjust: set factor to 1.36
ElecMinimize: Iter: 126  F: -20.146875630753946  |grad|_K:  3.411e-08  alpha:  4.025e-01  linmin:  3.769e-06  t[s]:    327.57
	FillingsUpdate:  mu: -0.095085057  nElectrons: 9.000000
	SubspaceRotationAdjust: set factor to 1.42
ElecMinimize: Iter: 127  F: -20.146875634976137  |grad|_K:  2.793e-08  alpha:  4.120e-01  linmin: -4.444e-06  t[s]:    329.98
	FillingsUpdate:  mu: -0.095099472  nElectrons: 9.000000
	SubspaceRotationAdjust: set factor to 1.4
ElecMinimize: Iter: 128  F: -20.146875637903957  |grad|_K:  2.517e-08  alpha:  4.254e-01  linmin: -5.860e-06  t[s]:    332.34
ElecMinimize: Converged (|Delta F|<1.000000e-08 for 4 iters).
Setting wave functions to eigenvectors of Hamiltonian

# Ionic positions in lattice coordinates:
ion Cs   0.000000000000000   0.000000000000000   0.000000000000000 0

# Forces in Lattice coordinates:
force Cs   0.000000000000000  -0.000000000000000   0.000000000000000 0

# Energy components:
   Eewald =      -25.2419945459198161
       EH =       -9.2857987062840888
     Eloc =        8.8647672130536659
      Enl =        3.4437772048886481
   Epulay =        0.0000000107947303
      Exc =       -3.2174328239752112
       KE =        5.2898061289260347
-------------------------------------
     Etot =      -20.1468755185160404
       TS =        0.0000001193879153
-------------------------------------
        F =      -20.1468756379039569

IonicMinimize: Iter:   0  F: -20.146875637903957  |grad|_K:  0.000e+00  t[s]:    332.60
IonicMinimize: Converged (|grad|_K<1.000000e-04).

#--- Lowdin population analysis ---
# oxidation-state Cs +0.428

End date and time: Sun Jan 16 16:39:14 2022  (Duration: 0-0:05:32.66)
Done!
