2.24
--------------------------------------------------------------------------
The library attempted to open the following supporting CUDA libraries,
but each of them failed.  CUDA-aware support is disabled.
libcuda.so.1: cannot open shared object file: No such file or directory
libcuda.dylib: cannot open shared object file: No such file or directory
/usr/lib64/libcuda.so.1: cannot open shared object file: No such file or directory
/usr/lib64/libcuda.dylib: cannot open shared object file: No such file or directory
If you are not interested in CUDA-aware support, then run with
--mca opal_warn_on_missing_libcuda 0 to suppress this message.  If you are interested
in CUDA-aware support, then try setting LD_LIBRARY_PATH to the location
of libcuda.so.1 to get passed this issue.
--------------------------------------------------------------------------
--------------------------------------------------------------------------
No OpenFabrics connection schemes reported that they were able to be
used on a specific port.  As such, the openib BTL (OpenFabrics
support) will be disabled for this port.

  Local host:           d-3-3-1
  Local device:         mlx5_1
  Local port:           1
  CPCs attempted:       rdmacm, udcm
--------------------------------------------------------------------------

*************** JDFTx 1.6.0 (git hash 42ebbcc2) ***************

Start date and time: Sun Jan 16 16:38:15 2022
Executable jdftx with command-line: -i Cesium.in
Running on hosts (process indices):  d-3-3-1 (0-18)
Divided in process groups (process indices):  0 (0)  1 (1)  2 (2)  3 (3)  4 (4)  5 (5)  6 (6)  7 (7)  8 (8)  9 (9)  10 (10)  11 (11)  12 (12)  13 (13)  14 (14)  15 (15)  16 (16)  17 (17)  18 (18)
Resource initialization completed at t[s]:      0.00
Run totals: 19 processes, 48 threads, 0 GPUs


Input parsed successfully to the following command list (including defaults):

basis kpoint-dependent
coords-type Lattice
core-overlap-check vector
coulomb-interaction Slab 001
davidson-band-ratio 1.1
dump End None
dump-name $INPUT.$VAR
elec-cutoff 20
elec-eigen-algo Davidson
elec-ex-corr gga-PBE
elec-smearing Fermi 1e-05
electronic-minimize  \
	dirUpdateScheme      FletcherReeves \
	linminMethod         DirUpdateRecommended \
	nIterations          10000 \
	history              15 \
	knormThreshold       0 \
	energyDiffThreshold  1e-08 \
	nEnergyDiff          4 \
	alphaTstart          1 \
	alphaTmin            1e-10 \
	updateTestStepSize   yes \
	alphaTreduceFactor   0.1 \
	alphaTincreaseFactor 3 \
	nAlphaAdjustMax      3 \
	wolfeEnergy          0.0001 \
	wolfeGradient        0.9 \
	fdTest               no
exchange-regularization WignerSeitzTruncated
fluid None
fluid-ex-corr (null) lda-PZ
fluid-gummel-loop 10 1.000000e-05
fluid-minimize  \
	dirUpdateScheme      PolakRibiere \
	linminMethod         DirUpdateRecommended \
	nIterations          100 \
	history              15 \
	knormThreshold       0 \
	energyDiffThreshold  0 \
	nEnergyDiff          2 \
	alphaTstart          1 \
	alphaTmin            1e-10 \
	updateTestStepSize   yes \
	alphaTreduceFactor   0.1 \
	alphaTincreaseFactor 3 \
	nAlphaAdjustMax      3 \
	wolfeEnergy          0.0001 \
	wolfeGradient        0.9 \
	fdTest               no
fluid-solvent H2O 55.338 ScalarEOS \
	epsBulk 78.4 \
	pMol 0.92466 \
	epsInf 1.77 \
	Pvap 1.06736e-10 \
	sigmaBulk 4.62e-05 \
	Rvdw 2.61727 \
	Res 1.42 \
	tauNuc 343133 \
	poleEl 15 7 1
forces-output-coords Positions
ion Cs   0.000000000000000   0.000000000000000   0.000000000000000 0
ion-species SG15/$ID_ONCV_PBE.upf
ion-width 0
ionic-minimize  \
	dirUpdateScheme      L-BFGS \
	linminMethod         DirUpdateRecommended \
	nIterations          0 \
	history              15 \
	knormThreshold       0.0001 \
	energyDiffThreshold  1e-06 \
	nEnergyDiff          2 \
	alphaTstart          1 \
	alphaTmin            1e-10 \
	updateTestStepSize   yes \
	alphaTreduceFactor   0.1 \
	alphaTincreaseFactor 3 \
	nAlphaAdjustMax      3 \
	wolfeEnergy          0.0001 \
	wolfeGradient        0.9 \
	fdTest               no
kpoint   0.000000000000   0.000000000000   0.000000000000  1.00000000000000
kpoint-folding 48 48 1 
latt-move-scale 1 1 1
latt-scale 2.24 2.24 1 
lattice  \
	   4.727486978767153   -2.363743489383575    0.000000000000000  \
	  -0.000000000000000    4.094123819672498    0.000000000000000  \
	   0.000000000000000    0.000000000000000   40.000000000000000 
lattice-minimize  \
	dirUpdateScheme      L-BFGS \
	linminMethod         DirUpdateRecommended \
	nIterations          0 \
	history              15 \
	knormThreshold       0 \
	energyDiffThreshold  1e-06 \
	nEnergyDiff          2 \
	alphaTstart          1 \
	alphaTmin            1e-10 \
	updateTestStepSize   yes \
	alphaTreduceFactor   0.1 \
	alphaTincreaseFactor 3 \
	nAlphaAdjustMax      3 \
	wolfeEnergy          0.0001 \
	wolfeGradient        0.9 \
	fdTest               no
lcao-params -1 1e-06 1e-05
pcm-variant GLSSA13
spintype no-spin
subspace-rotation-factor 1 yes
symmetries automatic
symmetry-threshold 0.0001



---------- Setting up symmetries ----------

Found 24 point-group symmetries of the bravais lattice
Found 24 space-group symmetries with basis
Applied RMS atom displacement 0 bohrs to make symmetries exact.

---------- Initializing the Grid ----------
R = 
[      10.5896     -5.29479            0  ]
[            0      9.17084            0  ]
[            0            0           40  ]
unit cell volume = 3884.61
G =
[   0.593337   0.342563         -0  ]
[          0   0.685127         -0  ]
[         -0         -0    0.15708  ]
Minimum fftbox size, Smin = [  44  44  164  ]
Chosen fftbox size, S = [  48  48  168  ]

---------- Exchange Correlation functional ----------
Initalized PBE GGA exchange.
Initalized PBE GGA correlation.

---------- Setting up pseudopotentials ----------
Width of ionic core gaussian charges (only for fluid interactions / plotting) set to 0

Reading pseudopotential file '/home/gridsan/aligho/DFT/build-Nov24/pseudopotentials/SG15/Cs_ONCV_PBE.upf':
  'Cs' pseudopotential, 'PBE' functional
  Generated using ONCVPSP code by D. R. Hamann
  Author: Martin Schlipf and Francois Gygi  Date: 150915.
  9 valence electrons, 3 orbitals, 6 projectors, 2414 radial grid points, with lMax = 2
  Transforming local potential to a uniform radial grid of dG=0.02 with 1575 points.
  Transforming nonlocal projectors to a uniform radial grid of dG=0.02 with 432 points.
    5S    l: 0   occupation:  2.0   eigenvalue: -0.982388
    5P    l: 1   occupation:  6.0   eigenvalue: -0.496786
    6S    l: 0   occupation:  1.0   eigenvalue: -0.076670
  Transforming atomic orbitals to a uniform radial grid of dG=0.02 with 432 points.
  Core radius for overlap checks: 2.06 bohrs.
  Reading pulay file /home/gridsan/aligho/DFT/build-Nov24/pseudopotentials/SG15/Cs_ONCV_PBE.pulay ... using dE_dnG = -1.008762e-04 computed for Ecut = 20.

Initialized 1 species with 1 total atoms.

Folded 1 k-points by 48x48x1 to 2304 k-points.

---------- Setting up k-points, bands, fillings ----------
Reduced to 217 k-points under symmetry. 
Computing the number of bands and number of electrons
Calculating initial fillings.
nElectrons:   9.000000   nBands: 6   nStates: 217

----- Setting up reduced wavefunction bases (one per k-point) -----
average nbasis = 16595.837 , ideal nbasis = 16595.347

---------- Setting up coulomb interaction ----------
Initialized slab truncation along lattice direction 001

---------- Setting up 2D ewald sum ----------
Optimum gaussian width for ewald sums = 5.878902 bohr.
Real space sums over 289 unit cells with max indices [  8  8  0  ]
Reciprocal space sums over 81 terms with max indices [  4  4  0  ]

---------- Allocating electronic variables ----------
Initializing wave functions:  linear combination of atomic orbitals
Note: number of bands (6) exceeds available atomic orbitals (5)
Cs pseudo-atom occupations:   s ( 2 1 )  p ( 6 )
[d-3-3-1:57731] 18 more processes have sent help message help-mpi-common-cuda.txt / dlopen failed
[d-3-3-1:57731] Set MCA parameter "orte_base_help_aggregate" to 0 to see all help / error messages
[d-3-3-1:57731] 18 more processes have sent help message help-mpi-btl-openib-cpc-base.txt / no cpcs for port
	FillingsUpdate:  mu: -0.087255882  nElectrons: 9.000000
LCAOMinimize: Iter:   0  F: -20.1847476118892786  |grad|_K:  4.668e-06  alpha:  1.000e+00
	FillingsUpdate:  mu: -0.087250797  nElectrons: 9.000000
LCAOMinimize: Iter:   1  F: -20.1847476955746004  |grad|_K:  3.791e-08  alpha:  9.833e-01  linmin: -1.853e-02  cgtest:  2.348e-01  t[s]:     12.11
LCAOMinimize: Encountered beta<0, resetting CG.
	FillingsUpdate:  mu: -0.087250789  nElectrons: 9.000000
LCAOMinimize: Iter:   2  F: -20.1847476955802918  |grad|_K:  6.767e-10  alpha:  9.822e-01  linmin: -1.174e-01  cgtest:  9.677e-01  t[s]:     16.60
LCAOMinimize: Encountered beta<0, resetting CG.
LCAOMinimize: Converged (|Delta F|<1.000000e-06 for 2 iters).


---- Citations for features of the code used in this run ----

   Software package:
      R. Sundararaman, K. Letchworth-Weaver, K.A. Schwarz, D. Gunceler, Y. Ozhabes and T.A. Arias, 'JDFTx: software for joint density-functional theory', SoftwareX 6, 278 (2017)

   gga-PBE exchange-correlation functional:
      J.P. Perdew, K. Burke and M. Ernzerhof, Phys. Rev. Lett. 77, 3865 (1996)

   Pseudopotentials:
      M Schlipf and F Gygi, Comput. Phys. Commun. 196, 36 (2015)

   Truncated Coulomb potentials:
      R. Sundararaman and T.A. Arias, Phys. Rev. B 87, 165122 (2013)

   Total energy minimization with Auxiliary Hamiltonian:
      C. Freysoldt, S. Boeck, and J. Neugebauer, Phys. Rev. B 79, 241103(R) (2009)

This list may not be complete. Please suggest additional citations or
report any other bugs at https://github.com/shankar1729/jdftx/issues

Initialization completed successfully at t[s]:     17.06


-------- Electronic minimization -----------
	FillingsUpdate:  mu: -0.087250789  nElectrons: 9.000000
ElecMinimize: Iter:   0  F: -20.184747695580278  |grad|_K:  5.611e-06  alpha:  1.000e+00
	FillingsUpdate:  mu: -0.087075855  nElectrons: 9.000000
	SubspaceRotationAdjust: set factor to 1
ElecMinimize: Iter:   1  F: -20.186263128647031  |grad|_K:  6.376e-06  alpha:  2.236e+00  linmin:  1.680e-04  t[s]:     26.71
	FillingsUpdate:  mu: -0.086895320  nElectrons: 9.000000
	SubspaceRotationAdjust: set factor to 1.04
ElecMinimize: Iter:   2  F: -20.187084457424412  |grad|_K:  5.109e-06  alpha:  5.278e-01  linmin: -1.505e-03  t[s]:     32.70
	FillingsUpdate:  mu: -0.084936273  nElectrons: 9.000000
	SubspaceRotationAdjust: set factor to 0.644
ElecMinimize: Iter:   3  F: -20.187991689280107  |grad|_K:  5.257e-06  alpha:  1.053e+00  linmin:  1.142e-03  t[s]:     38.67
ElecMinimize: 	Bad step direction: g.d > 0.
ElecMinimize: 	Undoing step.
ElecMinimize: 	Step failed: resetting search direction.
	FillingsUpdate:  mu: -0.084936273  nElectrons: 9.000000
	SubspaceRotationAdjust: set factor to 0.919
ElecMinimize: Iter:   4  F: -20.187991689280103  |grad|_K:  4.863e-06  alpha:  0.000e+00
	FillingsUpdate:  mu: -0.084905029  nElectrons: 9.000000
	SubspaceRotationAdjust: set factor to 0.986
ElecMinimize: Iter:   5  F: -20.188440714937183  |grad|_K:  2.064e-06  alpha:  9.035e-01  linmin: -7.794e-04  t[s]:     48.80
ElecMinimize: 	Predicted alpha/alphaT>3.000000, increasing alphaT to 2.710630e+00.
	FillingsUpdate:  mu: -0.083240956  nElectrons: 9.000000
	SubspaceRotationAdjust: set factor to 0.951
ElecMinimize: Iter:   6  F: -20.188732950435814  |grad|_K:  2.618e-06  alpha:  2.961e+00  linmin: -2.773e-04  t[s]:     56.56
	FillingsUpdate:  mu: -0.083217313  nElectrons: 9.000000
	SubspaceRotationAdjust: set factor to 1.1
ElecMinimize: Iter:   7  F: -20.188749261057016  |grad|_K:  2.499e-06  alpha:  5.302e-02  linmin: -1.884e-03  t[s]:     62.53
ElecMinimize: 	Predicted alpha/alphaT>3.000000, increasing alphaT to 1.590593e-01.
ElecMinimize: 	Predicted alpha/alphaT>3.000000, increasing alphaT to 4.771780e-01.
	FillingsUpdate:  mu: -0.081758732  nElectrons: 9.000000
	SubspaceRotationAdjust: set factor to 1.27
ElecMinimize: Iter:   8  F: -20.188918668573752  |grad|_K:  2.147e-06  alpha:  6.281e-01  linmin:  7.292e-05  t[s]:     72.19
	FillingsUpdate:  mu: -0.080699046  nElectrons: 9.000000
	SubspaceRotationAdjust: set factor to 1.22
ElecMinimize: Iter:   9  F: -20.188962603760032  |grad|_K:  2.293e-06  alpha:  3.452e-01  linmin: -1.565e-04  t[s]:     78.21
	FillingsUpdate:  mu: -0.080234521  nElectrons: 9.000000
	SubspaceRotationAdjust: set factor to 1.42
ElecMinimize: Iter:  10  F: -20.188993059199337  |grad|_K:  2.127e-06  alpha:  1.735e-01  linmin: -2.118e-04  t[s]:     84.14
	FillingsUpdate:  mu: -0.079869196  nElectrons: 9.000000
	SubspaceRotationAdjust: set factor to 0.913
ElecMinimize: Iter:  11  F: -20.189011943233275  |grad|_K:  2.206e-06  alpha:  1.582e-01  linmin:  1.134e-04  t[s]:     90.09
	FillingsUpdate:  mu: -0.079554789  nElectrons: 9.000000
	SubspaceRotationAdjust: set factor to 0.58
ElecMinimize: Iter:  12  F: -20.189024037810725  |grad|_K:  1.880e-06  alpha:  1.198e-01  linmin:  1.139e-05  t[s]:     96.06
	FillingsUpdate:  mu: -0.079264528  nElectrons: 9.000000
	SubspaceRotationAdjust: set factor to 0.709
ElecMinimize: Iter:  13  F: -20.189037482273250  |grad|_K:  1.738e-06  alpha:  1.751e-01  linmin: -5.762e-05  t[s]:    101.97
	FillingsUpdate:  mu: -0.079125708  nElectrons: 9.000000
	SubspaceRotationAdjust: set factor to 0.846
ElecMinimize: Iter:  14  F: -20.189055315604207  |grad|_K:  1.881e-06  alpha:  2.603e-01  linmin: -1.547e-04  t[s]:    107.96
	FillingsUpdate:  mu: -0.079252169  nElectrons: 9.000000
	SubspaceRotationAdjust: set factor to 0.873
ElecMinimize: Iter:  15  F: -20.189079657771440  |grad|_K:  1.575e-06  alpha:  2.907e-01  linmin: -1.754e-04  t[s]:    113.93
	FillingsUpdate:  mu: -0.079276645  nElectrons: 9.000000
	SubspaceRotationAdjust: set factor to 0.678
ElecMinimize: Iter:  16  F: -20.189090393490687  |grad|_K:  1.759e-06  alpha:  2.032e-01  linmin:  1.491e-03  t[s]:    119.93
	FillingsUpdate:  mu: -0.079228464  nElectrons: 9.000000
	SubspaceRotationAdjust: set factor to 0.886
ElecMinimize: Iter:  17  F: -20.189092629631208  |grad|_K:  9.362e-07  alpha:  8.111e-02  linmin: -6.395e-04  t[s]:    125.88
ElecMinimize: 	Wrong curvature in test step, increasing alphaT to 2.433423e-01.
	FillingsUpdate:  mu: -0.079194720  nElectrons: 9.000000
	SubspaceRotationAdjust: set factor to 0.537
ElecMinimize: Iter:  18  F: -20.189097435844705  |grad|_K:  1.637e-06  alpha: -1.018e-01  linmin: -4.496e-03  t[s]:    131.44
	FillingsUpdate:  mu: -0.078918566  nElectrons: 9.000000
	SubspaceRotationAdjust: set factor to 0.772
ElecMinimize: Iter:  19  F: -20.189101897687085  |grad|_K:  9.506e-07  alpha:  1.401e-01  linmin:  1.880e-03  t[s]:    137.42
	FillingsUpdate:  mu: -0.078889590  nElectrons: 9.000000
	SubspaceRotationAdjust: set factor to 0.851
ElecMinimize: Iter:  20  F: -20.189101972916351  |grad|_K:  9.611e-07  alpha:  3.978e-02  linmin:  1.608e-04  t[s]:    143.35
ElecMinimize: 	Predicted alpha/alphaT>3.000000, increasing alphaT to 1.193450e-01.
	FillingsUpdate:  mu: -0.078667691  nElectrons: 9.000000
	SubspaceRotationAdjust: set factor to 0.947
ElecMinimize: Iter:  21  F: -20.189107519299284  |grad|_K:  8.040e-07  alpha:  2.545e-01  linmin: -3.640e-04  t[s]:    151.22
	FillingsUpdate:  mu: -0.078382548  nElectrons: 9.000000
	SubspaceRotationAdjust: set factor to 1.04
ElecMinimize: Iter:  22  F: -20.189113457754797  |grad|_K:  4.867e-07  alpha:  3.373e-01  linmin: -1.627e-05  t[s]:    157.27
	FillingsUpdate:  mu: -0.078275089  nElectrons: 9.000000
	SubspaceRotationAdjust: set factor to 1.17
ElecMinimize: Iter:  23  F: -20.189115408064321  |grad|_K:  4.106e-07  alpha:  3.792e-01  linmin:  2.257e-05  t[s]:    163.18
	FillingsUpdate:  mu: -0.078246728  nElectrons: 9.000000
	SubspaceRotationAdjust: set factor to 1.26
ElecMinimize: Iter:  24  F: -20.189117047756291  |grad|_K:  4.201e-07  alpha:  4.598e-01  linmin:  4.507e-05  t[s]:    169.17
	FillingsUpdate:  mu: -0.078282358  nElectrons: 9.000000
	SubspaceRotationAdjust: set factor to 1.41
ElecMinimize: Iter:  25  F: -20.189118611908185  |grad|_K:  4.046e-07  alpha:  4.272e-01  linmin: -5.588e-06  t[s]:    175.09
	FillingsUpdate:  mu: -0.078367101  nElectrons: 9.000000
	SubspaceRotationAdjust: set factor to 1.73
ElecMinimize: Iter:  26  F: -20.189120013853259  |grad|_K:  3.614e-07  alpha:  3.945e-01  linmin: -3.040e-06  t[s]:    181.10
	FillingsUpdate:  mu: -0.078456621  nElectrons: 9.000000
	SubspaceRotationAdjust: set factor to 2
ElecMinimize: Iter:  27  F: -20.189121129386418  |grad|_K:  3.343e-07  alpha:  3.947e-01  linmin: -1.853e-05  t[s]:    187.11
	FillingsUpdate:  mu: -0.078496662  nElectrons: 9.000000
	SubspaceRotationAdjust: set factor to 2.07
ElecMinimize: Iter:  28  F: -20.189122064872187  |grad|_K:  2.961e-07  alpha:  3.853e-01  linmin: -1.296e-05  t[s]:    193.14
	FillingsUpdate:  mu: -0.078486500  nElectrons: 9.000000
	SubspaceRotationAdjust: set factor to 2.36
ElecMinimize: Iter:  29  F: -20.189122757010676  |grad|_K:  2.526e-07  alpha:  3.609e-01  linmin:  3.434e-05  t[s]:    199.11
	FillingsUpdate:  mu: -0.078470810  nElectrons: 9.000000
	SubspaceRotationAdjust: set factor to 3
ElecMinimize: Iter:  30  F: -20.189123242285810  |grad|_K:  2.303e-07  alpha:  3.575e-01  linmin:  1.130e-05  t[s]:    205.06
	FillingsUpdate:  mu: -0.078473860  nElectrons: 9.000000
	SubspaceRotationAdjust: set factor to 3.08
ElecMinimize: Iter:  31  F: -20.189123633610187  |grad|_K:  2.139e-07  alpha:  3.428e-01  linmin:  1.010e-06  t[s]:    211.05
	FillingsUpdate:  mu: -0.078518190  nElectrons: 9.000000
	SubspaceRotationAdjust: set factor to 3.4
ElecMinimize: Iter:  32  F: -20.189123974914438  |grad|_K:  1.989e-07  alpha:  3.455e-01  linmin: -3.581e-06  t[s]:    216.98
	FillingsUpdate:  mu: -0.078578026  nElectrons: 9.000000
	SubspaceRotationAdjust: set factor to 4.62
ElecMinimize: Iter:  33  F: -20.189124239025013  |grad|_K:  1.616e-07  alpha:  3.081e-01  linmin: -5.862e-06  t[s]:    223.03
	FillingsUpdate:  mu: -0.078610885  nElectrons: 9.000000
	SubspaceRotationAdjust: set factor to 4.69
ElecMinimize: Iter:  34  F: -20.189124399038530  |grad|_K:  1.412e-07  alpha:  2.836e-01  linmin: -7.570e-06  t[s]:    229.01
	FillingsUpdate:  mu: -0.078621616  nElectrons: 9.000000
	SubspaceRotationAdjust: set factor to 4.67
ElecMinimize: Iter:  35  F: -20.189124548820796  |grad|_K:  1.686e-07  alpha:  3.527e-01  linmin:  6.850e-05  t[s]:    234.98
	FillingsUpdate:  mu: -0.078642037  nElectrons: 9.000000
	SubspaceRotationAdjust: set factor to 4.58
ElecMinimize: Iter:  36  F: -20.189124714976078  |grad|_K:  1.644e-07  alpha:  2.938e-01  linmin:  4.643e-06  t[s]:    240.97
	FillingsUpdate:  mu: -0.078677174  nElectrons: 9.000000
	SubspaceRotationAdjust: set factor to 5.28
ElecMinimize: Iter:  37  F: -20.189124828838587  |grad|_K:  1.211e-07  alpha:  2.018e-01  linmin: -1.073e-05  t[s]:    246.98
	FillingsUpdate:  mu: -0.078720029  nElectrons: 9.000000
	SubspaceRotationAdjust: set factor to 5.22
ElecMinimize: Iter:  38  F: -20.189124914067094  |grad|_K:  1.130e-07  alpha:  2.659e-01  linmin: -7.111e-06  t[s]:    252.91
	FillingsUpdate:  mu: -0.078743678  nElectrons: 9.000000
	SubspaceRotationAdjust: set factor to 6.81
ElecMinimize: Iter:  39  F: -20.189124989328032  |grad|_K:  9.551e-08  alpha:  2.713e-01  linmin: -3.582e-06  t[s]:    258.91
	FillingsUpdate:  mu: -0.078740889  nElectrons: 9.000000
	SubspaceRotationAdjust: set factor to 6.43
ElecMinimize: Iter:  40  F: -20.189125037174545  |grad|_K:  8.534e-08  alpha:  2.416e-01  linmin:  5.594e-06  t[s]:    264.89
	FillingsUpdate:  mu: -0.078740981  nElectrons: 9.000000
	SubspaceRotationAdjust: set factor to 6.22
ElecMinimize: Iter:  41  F: -20.189125081822784  |grad|_K:  8.750e-08  alpha:  2.859e-01  linmin:  1.116e-05  t[s]:    270.88
	FillingsUpdate:  mu: -0.078759200  nElectrons: 9.000000
	SubspaceRotationAdjust: set factor to 8.13
	SubspaceRotationAdjust: resetting CG because factor has changed by 8.12993
ElecMinimize: 	State modified externally: resetting search direction.
ElecMinimize: Iter:  42  F: -20.189125118193459  |grad|_K:  6.710e-08  alpha:  2.215e-01
	FillingsUpdate:  mu: -0.078767654  nElectrons: 9.000000
	SubspaceRotationAdjust: set factor to 5.87
ElecMinimize: Iter:  43  F: -20.189125142325899  |grad|_K:  5.777e-08  alpha:  2.475e-01  linmin: -1.692e-05  t[s]:    286.42
	FillingsUpdate:  mu: -0.078765911  nElectrons: 9.000000
	SubspaceRotationAdjust: set factor to 4.48
ElecMinimize: Iter:  44  F: -20.189125178406453  |grad|_K:  3.148e-08  alpha:  4.955e-01  linmin:  1.108e-05  t[s]:    292.45
	FillingsUpdate:  mu: -0.078767798  nElectrons: 9.000000
	SubspaceRotationAdjust: set factor to 4.07
ElecMinimize: Iter:  45  F: -20.189125208162359  |grad|_K:  3.492e-08  alpha:  1.393e+00  linmin: -2.962e-07  t[s]:    298.44
	FillingsUpdate:  mu: -0.078771099  nElectrons: 9.000000
	SubspaceRotationAdjust: set factor to 2.58
ElecMinimize: Iter:  46  F: -20.189125222760396  |grad|_K:  3.241e-08  alpha:  5.532e-01  linmin: -8.680e-07  t[s]:    304.33
	FillingsUpdate:  mu: -0.078767848  nElectrons: 9.000000
	SubspaceRotationAdjust: set factor to 2.81
ElecMinimize: Iter:  47  F: -20.189125240865145  |grad|_K:  1.927e-08  alpha:  7.971e-01  linmin:  2.481e-07  t[s]:    310.30
	FillingsUpdate:  mu: -0.078768110  nElectrons: 9.000000
	SubspaceRotationAdjust: set factor to 2.64
ElecMinimize: Iter:  48  F: -20.189125248478639  |grad|_K:  1.448e-08  alpha:  9.482e-01  linmin: -2.557e-07  t[s]:    316.23
	FillingsUpdate:  mu: -0.078768972  nElectrons: 9.000000
	SubspaceRotationAdjust: set factor to 1.69
ElecMinimize: Iter:  49  F: -20.189125251811827  |grad|_K:  1.023e-08  alpha:  7.356e-01  linmin:  2.005e-07  t[s]:    322.14
	FillingsUpdate:  mu: -0.078768442  nElectrons: 9.000000
	SubspaceRotationAdjust: set factor to 1.71
ElecMinimize: Iter:  50  F: -20.189125253833726  |grad|_K:  7.529e-09  alpha:  8.946e-01  linmin:  3.644e-07  t[s]:    328.05
	FillingsUpdate:  mu: -0.078768338  nElectrons: 9.000000
	SubspaceRotationAdjust: set factor to 1.69
ElecMinimize: Iter:  51  F: -20.189125255193165  |grad|_K:  5.939e-09  alpha:  1.110e+00  linmin: -8.051e-07  t[s]:    334.04
ElecMinimize: Converged (|Delta F|<1.000000e-08 for 4 iters).
Setting wave functions to eigenvectors of Hamiltonian

# Ionic positions in lattice coordinates:
ion Cs   0.000000000000000   0.000000000000000   0.000000000000000 0

# Forces in Lattice coordinates:
force Cs  -0.000000000000000   0.000000000000000   0.000000000000000 0

# Energy components:
   Eewald =      -16.1143090181541666
       EH =        0.0652212045553968
     Eloc =       -9.5695237906948698
      Enl =        3.4368186757810379
   Epulay =        0.0000000127347720
      Exc =       -3.1303766117401501
       KE =        5.1230443000004788
-------------------------------------
     Etot =      -20.1891252275175006
       TS =        0.0000000276756633
-------------------------------------
        F =      -20.1891252551931650

IonicMinimize: Iter:   0  F: -20.189125255193165  |grad|_K:  0.000e+00  t[s]:    334.71
IonicMinimize: Converged (|grad|_K<1.000000e-04).

#--- Lowdin population analysis ---
# oxidation-state Cs +0.039

End date and time: Sun Jan 16 16:43:50 2022  (Duration: 0-0:05:34.85)
Done!
