1.58
--------------------------------------------------------------------------
The library attempted to open the following supporting CUDA libraries,
but each of them failed.  CUDA-aware support is disabled.
libcuda.so.1: cannot open shared object file: No such file or directory
libcuda.dylib: cannot open shared object file: No such file or directory
/usr/lib64/libcuda.so.1: cannot open shared object file: No such file or directory
/usr/lib64/libcuda.dylib: cannot open shared object file: No such file or directory
If you are not interested in CUDA-aware support, then run with
--mca opal_warn_on_missing_libcuda 0 to suppress this message.  If you are interested
in CUDA-aware support, then try setting LD_LIBRARY_PATH to the location
of libcuda.so.1 to get passed this issue.
--------------------------------------------------------------------------
--------------------------------------------------------------------------
No OpenFabrics connection schemes reported that they were able to be
used on a specific port.  As such, the openib BTL (OpenFabrics
support) will be disabled for this port.

  Local host:           d-16-11-3
  Local device:         mlx5_1
  Local port:           1
  CPCs attempted:       rdmacm, udcm
--------------------------------------------------------------------------

*************** JDFTx 1.6.0 (git hash 42ebbcc2) ***************

Start date and time: Sun Jan 16 16:33:41 2022
Executable jdftx with command-line: -i Cesium.in
Running on hosts (process indices):  d-16-11-3 (0-18)
Divided in process groups (process indices):  0 (0)  1 (1)  2 (2)  3 (3)  4 (4)  5 (5)  6 (6)  7 (7)  8 (8)  9 (9)  10 (10)  11 (11)  12 (12)  13 (13)  14 (14)  15 (15)  16 (16)  17 (17)  18 (18)
Resource initialization completed at t[s]:      0.00
Run totals: 19 processes, 48 threads, 0 GPUs


Input parsed successfully to the following command list (including defaults):

basis kpoint-dependent
coords-type Lattice
core-overlap-check vector
coulomb-interaction Slab 001
davidson-band-ratio 1.1
dump End None
dump-name $INPUT.$VAR
elec-cutoff 20
elec-eigen-algo Davidson
elec-ex-corr gga-PBE
elec-smearing Fermi 1e-05
electronic-minimize  \
	dirUpdateScheme      FletcherReeves \
	linminMethod         DirUpdateRecommended \
	nIterations          10000 \
	history              15 \
	knormThreshold       0 \
	energyDiffThreshold  1e-08 \
	nEnergyDiff          4 \
	alphaTstart          1 \
	alphaTmin            1e-10 \
	updateTestStepSize   yes \
	alphaTreduceFactor   0.1 \
	alphaTincreaseFactor 3 \
	nAlphaAdjustMax      3 \
	wolfeEnergy          0.0001 \
	wolfeGradient        0.9 \
	fdTest               no
exchange-regularization WignerSeitzTruncated
fluid None
fluid-ex-corr (null) lda-PZ
fluid-gummel-loop 10 1.000000e-05
fluid-minimize  \
	dirUpdateScheme      PolakRibiere \
	linminMethod         DirUpdateRecommended \
	nIterations          100 \
	history              15 \
	knormThreshold       0 \
	energyDiffThreshold  0 \
	nEnergyDiff          2 \
	alphaTstart          1 \
	alphaTmin            1e-10 \
	updateTestStepSize   yes \
	alphaTreduceFactor   0.1 \
	alphaTincreaseFactor 3 \
	nAlphaAdjustMax      3 \
	wolfeEnergy          0.0001 \
	wolfeGradient        0.9 \
	fdTest               no
fluid-solvent H2O 55.338 ScalarEOS \
	epsBulk 78.4 \
	pMol 0.92466 \
	epsInf 1.77 \
	Pvap 1.06736e-10 \
	sigmaBulk 4.62e-05 \
	Rvdw 2.61727 \
	Res 1.42 \
	tauNuc 343133 \
	poleEl 15 7 1
forces-output-coords Positions
ion Cs   0.000000000000000   0.000000000000000   0.000000000000000 0
ion-species SG15/$ID_ONCV_PBE.upf
ion-width 0
ionic-minimize  \
	dirUpdateScheme      L-BFGS \
	linminMethod         DirUpdateRecommended \
	nIterations          0 \
	history              15 \
	knormThreshold       0.0001 \
	energyDiffThreshold  1e-06 \
	nEnergyDiff          2 \
	alphaTstart          1 \
	alphaTmin            1e-10 \
	updateTestStepSize   yes \
	alphaTreduceFactor   0.1 \
	alphaTincreaseFactor 3 \
	nAlphaAdjustMax      3 \
	wolfeEnergy          0.0001 \
	wolfeGradient        0.9 \
	fdTest               no
kpoint   0.000000000000   0.000000000000   0.000000000000  1.00000000000000
kpoint-folding 48 48 1 
latt-move-scale 1 1 1
latt-scale 1.58 1.58 1 
lattice  \
	   4.727486978767153   -2.363743489383575    0.000000000000000  \
	  -0.000000000000000    4.094123819672497    0.000000000000000  \
	   0.000000000000000    0.000000000000000   40.000000000000000 
lattice-minimize  \
	dirUpdateScheme      L-BFGS \
	linminMethod         DirUpdateRecommended \
	nIterations          0 \
	history              15 \
	knormThreshold       0 \
	energyDiffThreshold  1e-06 \
	nEnergyDiff          2 \
	alphaTstart          1 \
	alphaTmin            1e-10 \
	updateTestStepSize   yes \
	alphaTreduceFactor   0.1 \
	alphaTincreaseFactor 3 \
	nAlphaAdjustMax      3 \
	wolfeEnergy          0.0001 \
	wolfeGradient        0.9 \
	fdTest               no
lcao-params -1 1e-06 1e-05
pcm-variant GLSSA13
spintype no-spin
subspace-rotation-factor 1 yes
symmetries automatic
symmetry-threshold 0.0001



---------- Setting up symmetries ----------

Found 24 point-group symmetries of the bravais lattice
Found 24 space-group symmetries with basis
Applied RMS atom displacement 0 bohrs to make symmetries exact.

---------- Initializing the Grid ----------
R = 
[      7.46943     -3.73471            0  ]
[            0      6.46872            0  ]
[            0            0           40  ]
unit cell volume = 1932.7
G =
[   0.841187   0.485659         -0  ]
[          0   0.971319         -0  ]
[         -0         -0    0.15708  ]
Minimum fftbox size, Smin = [  32  32  164  ]
Chosen fftbox size, S = [  32  32  168  ]

---------- Exchange Correlation functional ----------
Initalized PBE GGA exchange.
Initalized PBE GGA correlation.

---------- Setting up pseudopotentials ----------
Width of ionic core gaussian charges (only for fluid interactions / plotting) set to 0

Reading pseudopotential file '/home/gridsan/aligho/DFT/build-Nov24/pseudopotentials/SG15/Cs_ONCV_PBE.upf':
  'Cs' pseudopotential, 'PBE' functional
  Generated using ONCVPSP code by D. R. Hamann
  Author: Martin Schlipf and Francois Gygi  Date: 150915.
  9 valence electrons, 3 orbitals, 6 projectors, 2414 radial grid points, with lMax = 2
  Transforming local potential to a uniform radial grid of dG=0.02 with 1504 points.
  Transforming nonlocal projectors to a uniform radial grid of dG=0.02 with 432 points.
    5S    l: 0   occupation:  2.0   eigenvalue: -0.982388
    5P    l: 1   occupation:  6.0   eigenvalue: -0.496786
    6S    l: 0   occupation:  1.0   eigenvalue: -0.076670
  Transforming atomic orbitals to a uniform radial grid of dG=0.02 with 432 points.
  Core radius for overlap checks: 2.06 bohrs.
  Reading pulay file /home/gridsan/aligho/DFT/build-Nov24/pseudopotentials/SG15/Cs_ONCV_PBE.pulay ... using dE_dnG = -1.008762e-04 computed for Ecut = 20.

Initialized 1 species with 1 total atoms.

Folded 1 k-points by 48x48x1 to 2304 k-points.

---------- Setting up k-points, bands, fillings ----------
Reduced to 217 k-points under symmetry. 
Computing the number of bands and number of electrons
Calculating initial fillings.
nElectrons:   9.000000   nBands: 6   nStates: 217

----- Setting up reduced wavefunction bases (one per k-point) -----
average nbasis = 8257.025 , ideal nbasis = 8256.661

---------- Setting up coulomb interaction ----------
Initialized slab truncation along lattice direction 001

---------- Setting up 2D ewald sum ----------
Optimum gaussian width for ewald sums = 4.146726 bohr.
Real space sums over 289 unit cells with max indices [  8  8  0  ]
Reciprocal space sums over 81 terms with max indices [  4  4  0  ]

---------- Allocating electronic variables ----------
Initializing wave functions:  linear combination of atomic orbitals
Note: number of bands (6) exceeds available atomic orbitals (5)
Cs pseudo-atom occupations:   s ( 2 1 )  p ( 6 )
	FillingsUpdate:  mu: -0.101726125  nElectrons: 9.000000
LCAOMinimize: Iter:   0  F: -20.1458342728002719  |grad|_K:  2.964e-05  alpha:  1.000e+00
[d-16-11-3:45619] 18 more processes have sent help message help-mpi-common-cuda.txt / dlopen failed
[d-16-11-3:45619] Set MCA parameter "orte_base_help_aggregate" to 0 to see all help / error messages
[d-16-11-3:45619] 18 more processes have sent help message help-mpi-btl-openib-cpc-base.txt / no cpcs for port
	FillingsUpdate:  mu: -0.101598464  nElectrons: 9.000000
LCAOMinimize: Iter:   1  F: -20.1458375503125602  |grad|_K:  8.600e-07  alpha:  9.575e-01  linmin: -4.499e-02  cgtest:  9.073e-01  t[s]:      5.87
LCAOMinimize: Encountered beta<0, resetting CG.
	FillingsUpdate:  mu: -0.101595350  nElectrons: 9.000000
LCAOMinimize: Iter:   2  F: -20.1458375531877891  |grad|_K:  5.448e-09  alpha:  9.954e-01  linmin: -9.937e-03  cgtest:  1.878e-01  t[s]:      7.93
LCAOMinimize: Encountered beta<0, resetting CG.
LCAOMinimize: 	Wrong curvature in test step, increasing alphaT to 2.986103e+00.
	FillingsUpdate:  mu: -0.101595360  nElectrons: 9.000000
LCAOMinimize: Iter:   3  F: -20.1458375531886418  |grad|_K:  1.480e-10  alpha: -1.848e-01  linmin:  1.409e-01  cgtest: -8.801e-01  t[s]:     10.01
LCAOMinimize: Converged (|Delta F|<1.000000e-06 for 2 iters).


---- Citations for features of the code used in this run ----

   Software package:
      R. Sundararaman, K. Letchworth-Weaver, K.A. Schwarz, D. Gunceler, Y. Ozhabes and T.A. Arias, 'JDFTx: software for joint density-functional theory', SoftwareX 6, 278 (2017)

   gga-PBE exchange-correlation functional:
      J.P. Perdew, K. Burke and M. Ernzerhof, Phys. Rev. Lett. 77, 3865 (1996)

   Pseudopotentials:
      M Schlipf and F Gygi, Comput. Phys. Commun. 196, 36 (2015)

   Truncated Coulomb potentials:
      R. Sundararaman and T.A. Arias, Phys. Rev. B 87, 165122 (2013)

   Total energy minimization with Auxiliary Hamiltonian:
      C. Freysoldt, S. Boeck, and J. Neugebauer, Phys. Rev. B 79, 241103(R) (2009)

This list may not be complete. Please suggest additional citations or
report any other bugs at https://github.com/shankar1729/jdftx/issues

Initialization completed successfully at t[s]:     10.26


-------- Electronic minimization -----------
	FillingsUpdate:  mu: -0.101595360  nElectrons: 9.000000
ElecMinimize: Iter:   0  F: -20.145837553188620  |grad|_K:  2.220e-05  alpha:  1.000e+00
	FillingsUpdate:  mu: -0.099270489  nElectrons: 9.000000
	SubspaceRotationAdjust: set factor to 1
ElecMinimize: Iter:   1  F: -20.151908619136023  |grad|_K:  1.284e-05  alpha:  1.146e+00  linmin:  4.462e-05  t[s]:     14.66
	FillingsUpdate:  mu: -0.092356313  nElectrons: 9.000000
	SubspaceRotationAdjust: set factor to 0.65
ElecMinimize: Iter:   2  F: -20.154785305830586  |grad|_K:  2.247e-05  alpha:  2.211e+00  linmin:  4.095e-03  t[s]:     17.36
ElecMinimize: 	Bad step direction: g.d > 0.
ElecMinimize: 	Undoing step.
ElecMinimize: 	Step failed: resetting search direction.
	FillingsUpdate:  mu: -0.092356313  nElectrons: 9.000000
	SubspaceRotationAdjust: set factor to 0.886
ElecMinimize: Iter:   3  F: -20.154785305830600  |grad|_K:  2.015e-05  alpha:  0.000e+00
	FillingsUpdate:  mu: -0.096962007  nElectrons: 9.000000
	SubspaceRotationAdjust: set factor to 0.873
ElecMinimize: Iter:   4  F: -20.157822384024964  |grad|_K:  1.177e-05  alpha:  1.019e+00  linmin:  2.171e-03  t[s]:     22.00
	FillingsUpdate:  mu: -0.096469919  nElectrons: 9.000000
	SubspaceRotationAdjust: set factor to 0.939
ElecMinimize: Iter:   5  F: -20.159555483691392  |grad|_K:  1.126e-05  alpha:  1.311e+00  linmin:  1.057e-03  t[s]:     24.72
	FillingsUpdate:  mu: -0.090223077  nElectrons: 9.000000
	SubspaceRotationAdjust: set factor to 1.07
ElecMinimize: Iter:   6  F: -20.161587068472834  |grad|_K:  8.865e-06  alpha:  7.768e-01  linmin: -5.033e-03  t[s]:     27.50
	FillingsUpdate:  mu: -0.086210767  nElectrons: 9.000000
	SubspaceRotationAdjust: set factor to 0.564
ElecMinimize: Iter:   7  F: -20.162237264175037  |grad|_K:  3.163e-05  alpha:  5.001e-01  linmin:  1.814e-02  t[s]:     30.20
ElecMinimize: 	Bad step direction: g.d > 0.
ElecMinimize: 	Undoing step.
ElecMinimize: 	Step failed: resetting search direction.
	FillingsUpdate:  mu: -0.086210767  nElectrons: 9.000000
	SubspaceRotationAdjust: set factor to 0.308
ElecMinimize: Iter:   8  F: -20.162237264175030  |grad|_K:  2.340e-05  alpha:  0.000e+00
	FillingsUpdate:  mu: -0.086633109  nElectrons: 9.000000
	SubspaceRotationAdjust: set factor to 0.369
ElecMinimize: Iter:   9  F: -20.162603921067515  |grad|_K:  5.733e-06  alpha:  2.924e-01  linmin: -4.112e-02  t[s]:     34.85
ElecMinimize: 	Wrong curvature in test step, increasing alphaT to 8.771657e-01.
	FillingsUpdate:  mu: -0.085794371  nElectrons: 9.000000
	SubspaceRotationAdjust: set factor to 0.297
ElecMinimize: Iter:  10  F: -20.163120369397777  |grad|_K:  7.513e-06  alpha: -1.107e-01  linmin: -2.365e-02  t[s]:     37.35
	FillingsUpdate:  mu: -0.085756035  nElectrons: 9.000000
	SubspaceRotationAdjust: set factor to 0.312
ElecMinimize: Iter:  11  F: -20.163789827815133  |grad|_K:  5.195e-06  alpha:  6.278e-01  linmin: -9.513e-03  t[s]:     40.05
	FillingsUpdate:  mu: -0.085260891  nElectrons: 9.000000
	SubspaceRotationAdjust: set factor to 0.345
ElecMinimize: Iter:  12  F: -20.164492805465184  |grad|_K:  6.939e-06  alpha:  1.853e+00  linmin: -1.212e-03  t[s]:     42.84
	FillingsUpdate:  mu: -0.084701852  nElectrons: 9.000000
	SubspaceRotationAdjust: set factor to 0.363
ElecMinimize: Iter:  13  F: -20.164552528566279  |grad|_K:  6.381e-06  alpha:  8.438e-02  linmin: -7.711e-03  t[s]:     45.58
	FillingsUpdate:  mu: -0.083264762  nElectrons: 9.000000
	SubspaceRotationAdjust: set factor to 0.468
ElecMinimize: Iter:  14  F: -20.164642333590372  |grad|_K:  7.047e-06  alpha:  7.115e-02  linmin:  3.512e-03  t[s]:     48.31
ElecMinimize: 	Wrong curvature in test step, increasing alphaT to 2.134527e-01.
	FillingsUpdate:  mu: -0.082702679  nElectrons: 9.000000
	SubspaceRotationAdjust: set factor to 0.394
ElecMinimize: Iter:  15  F: -20.164719157160885  |grad|_K:  6.820e-06  alpha: -4.842e-02  linmin: -9.290e-03  t[s]:     50.83
	FillingsUpdate:  mu: -0.080762583  nElectrons: 9.000000
	SubspaceRotationAdjust: set factor to 0.351
ElecMinimize: Iter:  16  F: -20.164885244382948  |grad|_K:  5.202e-06  alpha:  1.218e-01  linmin: -2.240e-03  t[s]:     53.57
	FillingsUpdate:  mu: -0.080113215  nElectrons: 9.000000
	SubspaceRotationAdjust: set factor to 0.415
ElecMinimize: Iter:  17  F: -20.164962838954938  |grad|_K:  4.783e-06  alpha:  1.985e-01  linmin:  8.172e-04  t[s]:     56.29
	FillingsUpdate:  mu: -0.079515751  nElectrons: 9.000000
	SubspaceRotationAdjust: set factor to 0.487
ElecMinimize: Iter:  18  F: -20.165011915568993  |grad|_K:  5.103e-06  alpha:  2.193e-01  linmin: -1.308e-04  t[s]:     59.02
ElecMinimize: 	Predicted alpha/alphaT>3.000000, increasing alphaT to 6.579997e-01.
	FillingsUpdate:  mu: -0.079153154  nElectrons: 9.000000
	SubspaceRotationAdjust: set factor to 0.632
ElecMinimize: Iter:  19  F: -20.165048129716645  |grad|_K:  5.382e-06  alpha:  6.725e-02  linmin: -4.899e-03  t[s]:     62.57
ElecMinimize: 	Wrong curvature in test step, increasing alphaT to 2.017451e-01.
	FillingsUpdate:  mu: -0.079564090  nElectrons: 9.000000
	SubspaceRotationAdjust: set factor to 0.782
ElecMinimize: Iter:  20  F: -20.165168543860840  |grad|_K:  4.039e-06  alpha: -8.330e-02  linmin: -4.676e-03  t[s]:     65.10
	FillingsUpdate:  mu: -0.079806582  nElectrons: 9.000000
	SubspaceRotationAdjust: set factor to 0.99
ElecMinimize: Iter:  21  F: -20.165204740569763  |grad|_K:  3.700e-06  alpha:  6.234e-02  linmin: -9.251e-03  t[s]:     67.81
ElecMinimize: 	Predicted alpha/alphaT>3.000000, increasing alphaT to 1.870266e-01.
	FillingsUpdate:  mu: -0.080370606  nElectrons: 9.000000
	SubspaceRotationAdjust: set factor to 1.34
ElecMinimize: Iter:  22  F: -20.165272162743054  |grad|_K:  3.546e-06  alpha:  2.172e-01  linmin:  8.280e-04  t[s]:     71.37
	FillingsUpdate:  mu: -0.080775979  nElectrons: 9.000000
	SubspaceRotationAdjust: set factor to 1.6
ElecMinimize: Iter:  23  F: -20.165286537558504  |grad|_K:  4.011e-06  alpha:  1.169e-01  linmin: -1.165e-05  t[s]:     74.09
	FillingsUpdate:  mu: -0.081466926  nElectrons: 9.000000
	SubspaceRotationAdjust: set factor to 1.76
ElecMinimize: Iter:  24  F: -20.165306071419213  |grad|_K:  4.213e-06  alpha:  1.127e-01  linmin: -9.260e-06  t[s]:     76.82
ElecMinimize: 	Step increased F by 8.003276e-05, reducing alpha to 2.178966e-03.
	FillingsUpdate:  mu: -0.081482443  nElectrons: 9.000000
	SubspaceRotationAdjust: set factor to 1.97
ElecMinimize: Iter:  25  F: -20.165306896430611  |grad|_K:  4.230e-06  alpha:  2.179e-03  linmin: -4.703e-03  t[s]:     81.35
ElecMinimize: 	Predicted alpha/alphaT>3.000000, increasing alphaT to 6.536898e-03.
ElecMinimize: 	Predicted alpha/alphaT>3.000000, increasing alphaT to 1.961069e-02.
ElecMinimize: 	Predicted alpha/alphaT>3.000000, increasing alphaT to 5.883208e-02.
ElecMinimize: 	Step increased F by 2.791468e-05, reducing alpha to 1.495434e-02.
	FillingsUpdate:  mu: -0.081591855  nElectrons: 9.000000
	SubspaceRotationAdjust: set factor to 2.24
ElecMinimize: Iter:  26  F: -20.165317726967409  |grad|_K:  4.091e-06  alpha:  1.495e-02  linmin: -8.851e-03  t[s]:     87.61
ElecMinimize: 	Predicted alpha/alphaT>3.000000, increasing alphaT to 4.486302e-02.
	FillingsUpdate:  mu: -0.081664519  nElectrons: 9.000000
	SubspaceRotationAdjust: set factor to 2.57
ElecMinimize: Iter:  27  F: -20.165328119652983  |grad|_K:  3.936e-06  alpha:  1.077e-02  linmin: -1.144e-02  t[s]:     91.17
ElecMinimize: 	Predicted alpha/alphaT>3.000000, increasing alphaT to 3.232281e-02.
ElecMinimize: 	Predicted alpha/alphaT>3.000000, increasing alphaT to 9.696842e-02.
	FillingsUpdate:  mu: -0.081931597  nElectrons: 9.000000
	SubspaceRotationAdjust: set factor to 1.48
ElecMinimize: Iter:  28  F: -20.165371397138841  |grad|_K:  7.444e-06  alpha:  4.394e-02  linmin: -8.744e-03  t[s]:     95.59
	FillingsUpdate:  mu: -0.082429793  nElectrons: 9.000000
	SubspaceRotationAdjust: set factor to 1.87
ElecMinimize: Iter:  29  F: -20.165409828431937  |grad|_K:  2.180e-06  alpha:  2.392e-02  linmin: -1.374e-03  t[s]:     98.32
ElecMinimize: 	Predicted alpha/alphaT>3.000000, increasing alphaT to 7.176419e-02.
	FillingsUpdate:  mu: -0.082434505  nElectrons: 9.000000
	SubspaceRotationAdjust: set factor to 2.31
ElecMinimize: Iter:  30  F: -20.165418705105040  |grad|_K:  2.489e-06  alpha:  1.490e-01  linmin: -7.335e-05  t[s]:    101.90
	FillingsUpdate:  mu: -0.082187665  nElectrons: 9.000000
	SubspaceRotationAdjust: set factor to 2.98
ElecMinimize: Iter:  31  F: -20.165427044091469  |grad|_K:  2.806e-06  alpha:  1.240e-01  linmin: -9.958e-06  t[s]:    104.63
	FillingsUpdate:  mu: -0.081514800  nElectrons: 9.000000
	SubspaceRotationAdjust: set factor to 3.59
ElecMinimize: Iter:  32  F: -20.165435315437787  |grad|_K:  3.064e-06  alpha:  9.918e-02  linmin:  7.544e-05  t[s]:    107.39
	FillingsUpdate:  mu: -0.081231268  nElectrons: 9.000000
	SubspaceRotationAdjust: set factor to 4.22
ElecMinimize: Iter:  33  F: -20.165442918021085  |grad|_K:  2.958e-06  alpha:  5.393e-02  linmin: -1.785e-03  t[s]:    110.15
	FillingsUpdate:  mu: -0.081247284  nElectrons: 9.000000
	SubspaceRotationAdjust: set factor to 4.59
ElecMinimize: Iter:  34  F: -20.165457891477470  |grad|_K:  2.994e-06  alpha:  1.234e-01  linmin:  9.871e-04  t[s]:    112.86
	FillingsUpdate:  mu: -0.081289341  nElectrons: 9.000000
	SubspaceRotationAdjust: set factor to 4.34
ElecMinimize: Iter:  35  F: -20.165462161900770  |grad|_K:  3.174e-06  alpha:  5.841e-02  linmin: -2.640e-05  t[s]:    115.62
	FillingsUpdate:  mu: -0.081655138  nElectrons: 9.000000
	SubspaceRotationAdjust: set factor to 3.9
ElecMinimize: Iter:  36  F: -20.165470052988020  |grad|_K:  3.043e-06  alpha:  7.188e-02  linmin: -1.320e-04  t[s]:    118.37
	FillingsUpdate:  mu: -0.082550494  nElectrons: 9.000000
	SubspaceRotationAdjust: set factor to 4.25
ElecMinimize: Iter:  37  F: -20.165475067868304  |grad|_K:  2.727e-06  alpha:  5.326e-02  linmin: -3.518e-04  t[s]:    121.06
	FillingsUpdate:  mu: -0.082846779  nElectrons: 9.000000
	SubspaceRotationAdjust: set factor to 5.81
ElecMinimize: Iter:  38  F: -20.165481566092829  |grad|_K:  2.526e-06  alpha:  7.560e-02  linmin:  1.684e-04  t[s]:    123.79
	FillingsUpdate:  mu: -0.082846422  nElectrons: 9.000000
	SubspaceRotationAdjust: set factor to 7.36
ElecMinimize: Iter:  39  F: -20.165486144547096  |grad|_K:  2.527e-06  alpha:  6.843e-02  linmin: -3.523e-05  t[s]:    126.51
	FillingsUpdate:  mu: -0.082046026  nElectrons: 9.000000
	SubspaceRotationAdjust: set factor to 8.06
	SubspaceRotationAdjust: resetting CG because factor has changed by 8.05868
ElecMinimize: 	State modified externally: resetting search direction.
ElecMinimize: Iter:  40  F: -20.165491045630905  |grad|_K:  2.611e-06  alpha:  7.164e-02
	FillingsUpdate:  mu: -0.081726782  nElectrons: 9.000000
	SubspaceRotationAdjust: set factor to 5.3
ElecMinimize: Iter:  41  F: -20.165506447026932  |grad|_K:  1.941e-06  alpha:  2.140e-01  linmin:  9.283e-04  t[s]:    133.57
	FillingsUpdate:  mu: -0.082549041  nElectrons: 9.000000
	SubspaceRotationAdjust: set factor to 4.8
ElecMinimize: Iter:  42  F: -20.165520980403283  |grad|_K:  1.322e-06  alpha:  3.896e-01  linmin:  6.122e-04  t[s]:    136.26
	FillingsUpdate:  mu: -0.081291823  nElectrons: 9.000000
	SubspaceRotationAdjust: set factor to 3.36
ElecMinimize: Iter:  43  F: -20.165525199948483  |grad|_K:  1.083e-06  alpha:  2.357e-01  linmin: -8.159e-04  t[s]:    138.99
ElecMinimize: 	Predicted alpha/alphaT>3.000000, increasing alphaT to 7.069825e-01.
	FillingsUpdate:  mu: -0.082492238  nElectrons: 9.000000
	SubspaceRotationAdjust: set factor to 2.05
ElecMinimize: Iter:  44  F: -20.165534513361951  |grad|_K:  9.108e-07  alpha:  6.148e-01  linmin:  1.342e-03  t[s]:    142.55
	FillingsUpdate:  mu: -0.081411083  nElectrons: 9.000000
	SubspaceRotationAdjust: set factor to 1.25
ElecMinimize: Iter:  45  F: -20.165537271113894  |grad|_K:  7.586e-07  alpha:  4.017e-01  linmin:  8.305e-04  t[s]:    145.27
	FillingsUpdate:  mu: -0.081885305  nElectrons: 9.000000
	SubspaceRotationAdjust: set factor to 1.51
ElecMinimize: Iter:  46  F: -20.165541843381195  |grad|_K:  7.535e-07  alpha:  8.979e-01  linmin:  3.536e-03  t[s]:    147.99
	FillingsUpdate:  mu: -0.082302083  nElectrons: 9.000000
	SubspaceRotationAdjust: set factor to 1.81
ElecMinimize: Iter:  47  F: -20.165548218228679  |grad|_K:  6.441e-07  alpha:  1.198e+00  linmin: -8.566e-04  t[s]:    150.70
	FillingsUpdate:  mu: -0.082183353  nElectrons: 9.000000
	SubspaceRotationAdjust: set factor to 1.93
ElecMinimize: Iter:  48  F: -20.165551388457214  |grad|_K:  3.822e-07  alpha:  5.961e-01  linmin: -2.514e-03  t[s]:    153.44
	FillingsUpdate:  mu: -0.081738937  nElectrons: 9.000000
	SubspaceRotationAdjust: set factor to 1.49
ElecMinimize: Iter:  49  F: -20.165552506147169  |grad|_K:  4.764e-07  alpha:  4.542e-01  linmin:  3.826e-04  t[s]:    156.19
	FillingsUpdate:  mu: -0.081363356  nElectrons: 9.000000
	SubspaceRotationAdjust: set factor to 0.895
	SubspaceRotationAdjust: resetting CG because factor has changed by 0.111045
ElecMinimize: 	State modified externally: resetting search direction.
ElecMinimize: Iter:  50  F: -20.165553382537695  |grad|_K:  6.194e-07  alpha:  3.848e-01
	FillingsUpdate:  mu: -0.082072958  nElectrons: 9.000000
	SubspaceRotationAdjust: set factor to 0.989
ElecMinimize: Iter:  51  F: -20.165554472498972  |grad|_K:  2.217e-07  alpha:  3.050e-01  linmin: -6.205e-03  t[s]:    163.29
ElecMinimize: 	Predicted alpha/alphaT>3.000000, increasing alphaT to 9.149757e-01.
	FillingsUpdate:  mu: -0.082056917  nElectrons: 9.000000
	SubspaceRotationAdjust: set factor to 0.961
ElecMinimize: Iter:  52  F: -20.165555359002649  |grad|_K:  2.922e-07  alpha:  1.469e+00  linmin:  1.037e-04  t[s]:    166.82
	FillingsUpdate:  mu: -0.081945684  nElectrons: 9.000000
	SubspaceRotationAdjust: set factor to 1.07
ElecMinimize: Iter:  53  F: -20.165556436247531  |grad|_K:  2.570e-07  alpha:  1.176e+00  linmin:  5.917e-05  t[s]:    169.50
	FillingsUpdate:  mu: -0.082044114  nElectrons: 9.000000
	SubspaceRotationAdjust: set factor to 1.32
ElecMinimize: Iter:  54  F: -20.165557119829710  |grad|_K:  2.286e-07  alpha:  9.756e-01  linmin: -1.346e-04  t[s]:    172.18
	FillingsUpdate:  mu: -0.081934732  nElectrons: 9.000000
	SubspaceRotationAdjust: set factor to 1.12
ElecMinimize: Iter:  55  F: -20.165557631645925  |grad|_K:  1.709e-07  alpha:  8.924e-01  linmin:  2.828e-04  t[s]:    174.95
	FillingsUpdate:  mu: -0.081797515  nElectrons: 9.000000
	SubspaceRotationAdjust: set factor to 1.27
ElecMinimize: Iter:  56  F: -20.165558049887103  |grad|_K:  2.339e-07  alpha:  1.372e+00  linmin:  8.864e-05  t[s]:    177.70
	FillingsUpdate:  mu: -0.081889566  nElectrons: 9.000000
	SubspaceRotationAdjust: set factor to 1.34
ElecMinimize: Iter:  57  F: -20.165558728656627  |grad|_K:  1.941e-07  alpha:  1.183e+00  linmin: -1.165e-04  t[s]:    180.39
	FillingsUpdate:  mu: -0.081860860  nElectrons: 9.000000
	SubspaceRotationAdjust: set factor to 1.37
ElecMinimize: Iter:  58  F: -20.165559012318774  |grad|_K:  1.327e-07  alpha:  6.877e-01  linmin: -1.203e-06  t[s]:    183.13
	FillingsUpdate:  mu: -0.081815061  nElectrons: 9.000000
	SubspaceRotationAdjust: set factor to 1.39
ElecMinimize: Iter:  59  F: -20.165559172534280  |grad|_K:  8.393e-08  alpha:  8.452e-01  linmin: -1.546e-05  t[s]:    185.86
	FillingsUpdate:  mu: -0.081806320  nElectrons: 9.000000
	SubspaceRotationAdjust: set factor to 1.45
ElecMinimize: Iter:  60  F: -20.165559227999999  |grad|_K:  5.854e-08  alpha:  7.304e-01  linmin:  2.435e-07  t[s]:    188.58
	FillingsUpdate:  mu: -0.081813476  nElectrons: 9.000000
	SubspaceRotationAdjust: set factor to 1.41
ElecMinimize: Iter:  61  F: -20.165559260191266  |grad|_K:  4.649e-08  alpha:  8.736e-01  linmin:  5.537e-06  t[s]:    191.31
	FillingsUpdate:  mu: -0.081817170  nElectrons: 9.000000
	SubspaceRotationAdjust: set factor to 1.48
ElecMinimize: Iter:  62  F: -20.165559284343306  |grad|_K:  4.432e-08  alpha:  1.040e+00  linmin:  1.450e-06  t[s]:    194.02
	FillingsUpdate:  mu: -0.081815732  nElectrons: 9.000000
	SubspaceRotationAdjust: set factor to 1.44
ElecMinimize: Iter:  63  F: -20.165559303940327  |grad|_K:  3.202e-08  alpha:  9.280e-01  linmin:  4.799e-07  t[s]:    196.75
	FillingsUpdate:  mu: -0.081819528  nElectrons: 9.000000
	SubspaceRotationAdjust: set factor to 1.51
ElecMinimize: Iter:  64  F: -20.165559312246113  |grad|_K:  2.524e-08  alpha:  7.531e-01  linmin: -3.680e-08  t[s]:    199.44
	FillingsUpdate:  mu: -0.081832748  nElectrons: 9.000000
	SubspaceRotationAdjust: set factor to 1.45
ElecMinimize: Iter:  65  F: -20.165559321852900  |grad|_K:  2.805e-08  alpha:  1.402e+00  linmin: -8.181e-07  t[s]:    202.15
	FillingsUpdate:  mu: -0.081840760  nElectrons: 9.000000
	SubspaceRotationAdjust: set factor to 1.62
ElecMinimize: Iter:  66  F: -20.165559329220290  |grad|_K:  2.321e-08  alpha:  8.701e-01  linmin: -1.994e-07  t[s]:    204.88
	FillingsUpdate:  mu: -0.081844607  nElectrons: 9.000000
	SubspaceRotationAdjust: set factor to 1.48
ElecMinimize: Iter:  67  F: -20.165559335434001  |grad|_K:  1.955e-08  alpha:  1.073e+00  linmin:  7.865e-06  t[s]:    207.62
ElecMinimize: Converged (|Delta F|<1.000000e-08 for 4 iters).
Setting wave functions to eigenvectors of Hamiltonian

# Ionic positions in lattice coordinates:
ion Cs   0.000000000000000   0.000000000000000   0.000000000000000 0

# Forces in Lattice coordinates:
force Cs   0.000000000000000  -0.000000000000000   0.000000000000000 0

# Energy components:
   Eewald =      -22.8456026586489216
       EH =       -6.7172814994326604
     Eloc =        3.9037755840664263
      Enl =        3.4523713758940051
   Epulay =        0.0000000189683058
      Exc =       -3.1864341285209248
       KE =        5.2276120445289713
-------------------------------------
     Etot =      -20.1655592631447966
       TS =        0.0000000722892033
-------------------------------------
        F =      -20.1655593354340006

IonicMinimize: Iter:   0  F: -20.165559335434001  |grad|_K:  0.000e+00  t[s]:    207.94
IonicMinimize: Converged (|grad|_K<1.000000e-04).

#--- Lowdin population analysis ---
# oxidation-state Cs +0.200

End date and time: Sun Jan 16 16:37:09 2022  (Duration: 0-0:03:28.02)
Done!
