3.26
--------------------------------------------------------------------------
The library attempted to open the following supporting CUDA libraries,
but each of them failed.  CUDA-aware support is disabled.
libcuda.so.1: cannot open shared object file: No such file or directory
libcuda.dylib: cannot open shared object file: No such file or directory
/usr/lib64/libcuda.so.1: cannot open shared object file: No such file or directory
/usr/lib64/libcuda.dylib: cannot open shared object file: No such file or directory
If you are not interested in CUDA-aware support, then run with
--mca opal_warn_on_missing_libcuda 0 to suppress this message.  If you are interested
in CUDA-aware support, then try setting LD_LIBRARY_PATH to the location
of libcuda.so.1 to get passed this issue.
--------------------------------------------------------------------------
--------------------------------------------------------------------------
No OpenFabrics connection schemes reported that they were able to be
used on a specific port.  As such, the openib BTL (OpenFabrics
support) will be disabled for this port.

  Local host:           d-4-4-1
  Local device:         mlx5_1
  Local port:           1
  CPCs attempted:       rdmacm, udcm
--------------------------------------------------------------------------

*************** JDFTx 1.6.0 (git hash 42ebbcc2) ***************

Start date and time: Sun Jan 16 16:48:23 2022
Executable jdftx with command-line: -i Cesium.in
Running on hosts (process indices):  d-4-4-1 (0-18)
Divided in process groups (process indices):  0 (0)  1 (1)  2 (2)  3 (3)  4 (4)  5 (5)  6 (6)  7 (7)  8 (8)  9 (9)  10 (10)  11 (11)  12 (12)  13 (13)  14 (14)  15 (15)  16 (16)  17 (17)  18 (18)
Resource initialization completed at t[s]:      0.00
Run totals: 19 processes, 48 threads, 0 GPUs


Input parsed successfully to the following command list (including defaults):

basis kpoint-dependent
coords-type Lattice
core-overlap-check vector
coulomb-interaction Slab 001
davidson-band-ratio 1.1
dump End None
dump-name $INPUT.$VAR
elec-cutoff 20
elec-eigen-algo Davidson
elec-ex-corr gga-PBE
elec-smearing Fermi 1e-05
electronic-minimize  \
	dirUpdateScheme      FletcherReeves \
	linminMethod         DirUpdateRecommended \
	nIterations          10000 \
	history              15 \
	knormThreshold       0 \
	energyDiffThreshold  1e-08 \
	nEnergyDiff          4 \
	alphaTstart          1 \
	alphaTmin            1e-10 \
	updateTestStepSize   yes \
	alphaTreduceFactor   0.1 \
	alphaTincreaseFactor 3 \
	nAlphaAdjustMax      3 \
	wolfeEnergy          0.0001 \
	wolfeGradient        0.9 \
	fdTest               no
exchange-regularization WignerSeitzTruncated
fluid None
fluid-ex-corr (null) lda-PZ
fluid-gummel-loop 10 1.000000e-05
fluid-minimize  \
	dirUpdateScheme      PolakRibiere \
	linminMethod         DirUpdateRecommended \
	nIterations          100 \
	history              15 \
	knormThreshold       0 \
	energyDiffThreshold  0 \
	nEnergyDiff          2 \
	alphaTstart          1 \
	alphaTmin            1e-10 \
	updateTestStepSize   yes \
	alphaTreduceFactor   0.1 \
	alphaTincreaseFactor 3 \
	nAlphaAdjustMax      3 \
	wolfeEnergy          0.0001 \
	wolfeGradient        0.9 \
	fdTest               no
fluid-solvent H2O 55.338 ScalarEOS \
	epsBulk 78.4 \
	pMol 0.92466 \
	epsInf 1.77 \
	Pvap 1.06736e-10 \
	sigmaBulk 4.62e-05 \
	Rvdw 2.61727 \
	Res 1.42 \
	tauNuc 343133 \
	poleEl 15 7 1
forces-output-coords Positions
ion Cs   0.000000000000000   0.000000000000000   0.000000000000000 0
ion-species SG15/$ID_ONCV_PBE.upf
ion-width 0
ionic-minimize  \
	dirUpdateScheme      L-BFGS \
	linminMethod         DirUpdateRecommended \
	nIterations          0 \
	history              15 \
	knormThreshold       0.0001 \
	energyDiffThreshold  1e-06 \
	nEnergyDiff          2 \
	alphaTstart          1 \
	alphaTmin            1e-10 \
	updateTestStepSize   yes \
	alphaTreduceFactor   0.1 \
	alphaTincreaseFactor 3 \
	nAlphaAdjustMax      3 \
	wolfeEnergy          0.0001 \
	wolfeGradient        0.9 \
	fdTest               no
kpoint   0.000000000000   0.000000000000   0.000000000000  1.00000000000000
kpoint-folding 48 48 1 
latt-move-scale 1 1 1
latt-scale 3.26 3.26 1 
lattice  \
	   4.727486978767153   -2.363743489383575    0.000000000000000  \
	  -0.000000000000000    4.094123819672498    0.000000000000000  \
	   0.000000000000000    0.000000000000000   40.000000000000000 
lattice-minimize  \
	dirUpdateScheme      L-BFGS \
	linminMethod         DirUpdateRecommended \
	nIterations          0 \
	history              15 \
	knormThreshold       0 \
	energyDiffThreshold  1e-06 \
	nEnergyDiff          2 \
	alphaTstart          1 \
	alphaTmin            1e-10 \
	updateTestStepSize   yes \
	alphaTreduceFactor   0.1 \
	alphaTincreaseFactor 3 \
	nAlphaAdjustMax      3 \
	wolfeEnergy          0.0001 \
	wolfeGradient        0.9 \
	fdTest               no
lcao-params -1 1e-06 1e-05
pcm-variant GLSSA13
spintype no-spin
subspace-rotation-factor 1 yes
symmetries automatic
symmetry-threshold 0.0001



---------- Setting up symmetries ----------

Found 24 point-group symmetries of the bravais lattice
Found 24 space-group symmetries with basis
Applied RMS atom displacement 0 bohrs to make symmetries exact.

---------- Initializing the Grid ----------
R = 
[      15.4116      -7.7058            0  ]
[            0      13.3468            0  ]
[            0            0           40  ]
unit cell volume = 8227.85
G =
[   0.407692   0.235381         -0  ]
[          0   0.470762         -0  ]
[         -0         -0    0.15708  ]
Minimum fftbox size, Smin = [  64  64  164  ]
Chosen fftbox size, S = [  64  64  168  ]

---------- Exchange Correlation functional ----------
Initalized PBE GGA exchange.
Initalized PBE GGA correlation.

---------- Setting up pseudopotentials ----------
Width of ionic core gaussian charges (only for fluid interactions / plotting) set to 0

Reading pseudopotential file '/home/gridsan/aligho/DFT/build-Nov24/pseudopotentials/SG15/Cs_ONCV_PBE.upf':
  'Cs' pseudopotential, 'PBE' functional
  Generated using ONCVPSP code by D. R. Hamann
  Author: Martin Schlipf and Francois Gygi  Date: 150915.
  9 valence electrons, 3 orbitals, 6 projectors, 2414 radial grid points, with lMax = 2
  Transforming local potential to a uniform radial grid of dG=0.02 with 1467 points.
  Transforming nonlocal projectors to a uniform radial grid of dG=0.02 with 432 points.
    5S    l: 0   occupation:  2.0   eigenvalue: -0.982388
    5P    l: 1   occupation:  6.0   eigenvalue: -0.496786
    6S    l: 0   occupation:  1.0   eigenvalue: -0.076670
  Transforming atomic orbitals to a uniform radial grid of dG=0.02 with 432 points.
  Core radius for overlap checks: 2.06 bohrs.
  Reading pulay file /home/gridsan/aligho/DFT/build-Nov24/pseudopotentials/SG15/Cs_ONCV_PBE.pulay ... using dE_dnG = -1.008762e-04 computed for Ecut = 20.

Initialized 1 species with 1 total atoms.

Folded 1 k-points by 48x48x1 to 2304 k-points.

---------- Setting up k-points, bands, fillings ----------
Reduced to 217 k-points under symmetry. 
Computing the number of bands and number of electrons
Calculating initial fillings.
nElectrons:   9.000000   nBands: 6   nStates: 217

----- Setting up reduced wavefunction bases (one per k-point) -----
average nbasis = 35150.952 , ideal nbasis = 35150.014

---------- Setting up coulomb interaction ----------
Initialized slab truncation along lattice direction 001

---------- Setting up 2D ewald sum ----------
Optimum gaussian width for ewald sums = 8.555902 bohr.
Real space sums over 289 unit cells with max indices [  8  8  0  ]
Reciprocal space sums over 81 terms with max indices [  4  4  0  ]

---------- Allocating electronic variables ----------
Initializing wave functions:  linear combination of atomic orbitals
Note: number of bands (6) exceeds available atomic orbitals (5)
Cs pseudo-atom occupations:   s ( 2 1 )  p ( 6 )
[d-4-4-1:77829] 18 more processes have sent help message help-mpi-common-cuda.txt / dlopen failed
[d-4-4-1:77829] Set MCA parameter "orte_base_help_aggregate" to 0 to see all help / error messages
[d-4-4-1:77829] 18 more processes have sent help message help-mpi-btl-openib-cpc-base.txt / no cpcs for port
	FillingsUpdate:  mu: -0.077915009  nElectrons: 9.000000
LCAOMinimize: Iter:   0  F: -20.1725140923360584  |grad|_K:  6.417e-06  alpha:  1.000e+00
	FillingsUpdate:  mu: -0.077911917  nElectrons: 9.000000
LCAOMinimize: Iter:   1  F: -20.1725142512945723  |grad|_K:  4.097e-08  alpha:  9.883e-01  linmin: -2.121e-02  cgtest:  4.308e-01  t[s]:     20.57
LCAOMinimize: Encountered beta<0, resetting CG.
	FillingsUpdate:  mu: -0.077911920  nElectrons: 9.000000
LCAOMinimize: Iter:   2  F: -20.1725142513008713  |grad|_K:  1.054e-09  alpha:  9.747e-01  linmin: -6.531e-02  cgtest:  9.986e-01  t[s]:     27.65
LCAOMinimize: Encountered beta<0, resetting CG.
LCAOMinimize: Converged (|Delta F|<1.000000e-06 for 2 iters).


---- Citations for features of the code used in this run ----

   Software package:
      R. Sundararaman, K. Letchworth-Weaver, K.A. Schwarz, D. Gunceler, Y. Ozhabes and T.A. Arias, 'JDFTx: software for joint density-functional theory', SoftwareX 6, 278 (2017)

   gga-PBE exchange-correlation functional:
      J.P. Perdew, K. Burke and M. Ernzerhof, Phys. Rev. Lett. 77, 3865 (1996)

   Pseudopotentials:
      M Schlipf and F Gygi, Comput. Phys. Commun. 196, 36 (2015)

   Truncated Coulomb potentials:
      R. Sundararaman and T.A. Arias, Phys. Rev. B 87, 165122 (2013)

   Total energy minimization with Auxiliary Hamiltonian:
      C. Freysoldt, S. Boeck, and J. Neugebauer, Phys. Rev. B 79, 241103(R) (2009)

This list may not be complete. Please suggest additional citations or
report any other bugs at https://github.com/shankar1729/jdftx/issues

Initialization completed successfully at t[s]:     28.53


-------- Electronic minimization -----------
	FillingsUpdate:  mu: -0.077911920  nElectrons: 9.000000
ElecMinimize: Iter:   0  F: -20.172514251300864  |grad|_K:  1.562e-06  alpha:  1.000e+00
ElecMinimize: 	Predicted alpha/alphaT>3.000000, increasing alphaT to 3.000000e+00.
	FillingsUpdate:  mu: -0.077527507  nElectrons: 9.000000
	SubspaceRotationAdjust: set factor to 1
ElecMinimize: Iter:   1  F: -20.173143741539864  |grad|_K:  2.772e-06  alpha:  5.645e+00  linmin:  9.734e-05  t[s]:     47.46
	FillingsUpdate:  mu: -0.077530182  nElectrons: 9.000000
	SubspaceRotationAdjust: set factor to 1.02
ElecMinimize: Iter:   2  F: -20.173148897072437  |grad|_K:  2.749e-06  alpha:  7.421e-03  linmin: -6.805e-04  t[s]:     57.33
ElecMinimize: 	Predicted alpha/alphaT>3.000000, increasing alphaT to 2.226333e-02.
ElecMinimize: 	Predicted alpha/alphaT>3.000000, increasing alphaT to 6.678999e-02.
ElecMinimize: 	Predicted alpha/alphaT>3.000000, increasing alphaT to 2.003700e-01.
	FillingsUpdate:  mu: -0.078185358  nElectrons: 9.000000
	SubspaceRotationAdjust: set factor to 0.924
ElecMinimize: Iter:   3  F: -20.173685917502134  |grad|_K:  1.840e-06  alpha:  7.931e-01  linmin:  8.510e-05  t[s]:     73.17
	FillingsUpdate:  mu: -0.078246277  nElectrons: 9.000000
	SubspaceRotationAdjust: set factor to 0.977
ElecMinimize: Iter:   4  F: -20.173735863129860  |grad|_K:  1.806e-06  alpha:  2.230e-01  linmin: -3.293e-04  t[s]:     83.13
ElecMinimize: 	Predicted alpha/alphaT>3.000000, increasing alphaT to 6.688606e-01.
	FillingsUpdate:  mu: -0.078345157  nElectrons: 9.000000
	SubspaceRotationAdjust: set factor to 1.03
ElecMinimize: Iter:   5  F: -20.173869235027770  |grad|_K:  1.674e-06  alpha:  4.496e-01  linmin: -1.787e-04  t[s]:     96.05
	FillingsUpdate:  mu: -0.078376260  nElectrons: 9.000000
	SubspaceRotationAdjust: set factor to 0.86
ElecMinimize: Iter:   6  F: -20.173923616564363  |grad|_K:  1.982e-06  alpha:  3.354e-01  linmin:  1.798e-05  t[s]:    105.93
	FillingsUpdate:  mu: -0.078379024  nElectrons: 9.000000
	SubspaceRotationAdjust: set factor to 0.868
ElecMinimize: Iter:   7  F: -20.173961246386003  |grad|_K:  2.069e-06  alpha:  2.030e-01  linmin: -2.104e-05  t[s]:    115.90
	FillingsUpdate:  mu: -0.078364371  nElectrons: 9.000000
	SubspaceRotationAdjust: set factor to 1.17
ElecMinimize: Iter:   8  F: -20.174001512719343  |grad|_K:  2.053e-06  alpha:  2.028e-01  linmin:  7.700e-05  t[s]:    125.76
	FillingsUpdate:  mu: -0.078346602  nElectrons: 9.000000
	SubspaceRotationAdjust: set factor to 1.49
ElecMinimize: Iter:   9  F: -20.174044552580074  |grad|_K:  1.986e-06  alpha:  2.267e-01  linmin: -2.034e-04  t[s]:    135.65
	FillingsUpdate:  mu: -0.078310965  nElectrons: 9.000000
	SubspaceRotationAdjust: set factor to 1.76
ElecMinimize: Iter:  10  F: -20.174095954112630  |grad|_K:  1.596e-06  alpha:  2.566e-01  linmin: -1.778e-04  t[s]:    145.53
	FillingsUpdate:  mu: -0.078271095  nElectrons: 9.000000
	SubspaceRotationAdjust: set factor to 1.91
ElecMinimize: Iter:  11  F: -20.174144730467578  |grad|_K:  1.181e-06  alpha:  3.514e-01  linmin: -1.520e-04  t[s]:    155.41
	FillingsUpdate:  mu: -0.078211890  nElectrons: 9.000000
	SubspaceRotationAdjust: set factor to 2.21
ElecMinimize: Iter:  12  F: -20.174180188677653  |grad|_K:  9.061e-07  alpha:  4.807e-01  linmin: -3.974e-05  t[s]:    165.31
	FillingsUpdate:  mu: -0.078107378  nElectrons: 9.000000
	SubspaceRotationAdjust: set factor to 2.14
ElecMinimize: Iter:  13  F: -20.174201269781946  |grad|_K:  9.111e-07  alpha:  5.782e-01  linmin:  1.283e-04  t[s]:    175.16
	FillingsUpdate:  mu: -0.078090947  nElectrons: 9.000000
	SubspaceRotationAdjust: set factor to 2.5
ElecMinimize: Iter:  14  F: -20.174205483152630  |grad|_K:  9.142e-07  alpha:  8.358e-02  linmin: -2.016e-04  t[s]:    185.12
ElecMinimize: 	Predicted alpha/alphaT>3.000000, increasing alphaT to 2.507398e-01.
	FillingsUpdate:  mu: -0.078037029  nElectrons: 9.000000
	SubspaceRotationAdjust: set factor to 1.82
ElecMinimize: Iter:  15  F: -20.174220650389707  |grad|_K:  1.101e-06  alpha:  2.798e-01  linmin:  2.736e-04  t[s]:    198.05
	FillingsUpdate:  mu: -0.078036991  nElectrons: 9.000000
	SubspaceRotationAdjust: set factor to 1.47
ElecMinimize: Iter:  16  F: -20.174220656264680  |grad|_K:  9.909e-07  alpha:  1.528e-04  linmin: -1.836e-04  t[s]:    207.99
ElecMinimize: 	Predicted alpha/alphaT>3.000000, increasing alphaT to 4.584665e-04.
ElecMinimize: 	Predicted alpha/alphaT>3.000000, increasing alphaT to 1.375399e-03.
ElecMinimize: 	Predicted alpha/alphaT>3.000000, increasing alphaT to 4.126198e-03.
	FillingsUpdate:  mu: -0.078024633  nElectrons: 9.000000
	SubspaceRotationAdjust: set factor to 1.07
ElecMinimize: Iter:  17  F: -20.174225733494097  |grad|_K:  9.518e-07  alpha:  1.266e-01  linmin:  4.985e-04  t[s]:    224.03
	FillingsUpdate:  mu: -0.078024826  nElectrons: 9.000000
	SubspaceRotationAdjust: set factor to 0.844
ElecMinimize: Iter:  18  F: -20.174226448960038  |grad|_K:  8.699e-07  alpha:  2.612e-02  linmin: -2.731e-04  t[s]:    233.85
ElecMinimize: 	Predicted alpha/alphaT>3.000000, increasing alphaT to 7.834728e-02.
	FillingsUpdate:  mu: -0.078035768  nElectrons: 9.000000
	SubspaceRotationAdjust: set factor to 0.737
ElecMinimize: Iter:  19  F: -20.174231207197458  |grad|_K:  8.265e-07  alpha:  1.184e-01  linmin:  1.628e-04  t[s]:    246.78
	FillingsUpdate:  mu: -0.078048688  nElectrons: 9.000000
	SubspaceRotationAdjust: set factor to 0.683
ElecMinimize: Iter:  20  F: -20.174234378796903  |grad|_K:  8.448e-07  alpha:  1.085e-01  linmin: -1.883e-05  t[s]:    256.63
	FillingsUpdate:  mu: -0.078064717  nElectrons: 9.000000
	SubspaceRotationAdjust: set factor to 0.956
ElecMinimize: Iter:  21  F: -20.174238368251238  |grad|_K:  7.425e-07  alpha:  1.197e-01  linmin: -1.235e-04  t[s]:    266.56
	FillingsUpdate:  mu: -0.078076838  nElectrons: 9.000000
	SubspaceRotationAdjust: set factor to 1.2
ElecMinimize: Iter:  22  F: -20.174243078438497  |grad|_K:  6.781e-07  alpha:  1.641e-01  linmin: -2.135e-04  t[s]:    276.52
	FillingsUpdate:  mu: -0.078079979  nElectrons: 9.000000
	SubspaceRotationAdjust: set factor to 1.55
ElecMinimize: Iter:  23  F: -20.174248966198761  |grad|_K:  5.686e-07  alpha:  2.306e-01  linmin: -1.631e-04  t[s]:    286.47
	FillingsUpdate:  mu: -0.078076277  nElectrons: 9.000000
	SubspaceRotationAdjust: set factor to 2.01
ElecMinimize: Iter:  24  F: -20.174253898500890  |grad|_K:  4.836e-07  alpha:  2.907e-01  linmin: -8.962e-05  t[s]:    296.41
	FillingsUpdate:  mu: -0.078071792  nElectrons: 9.000000
	SubspaceRotationAdjust: set factor to 2.36
ElecMinimize: Iter:  25  F: -20.174257571283512  |grad|_K:  4.357e-07  alpha:  3.238e-01  linmin:  1.267e-05  t[s]:    306.27
	FillingsUpdate:  mu: -0.078066143  nElectrons: 9.000000
	SubspaceRotationAdjust: set factor to 2.44
ElecMinimize: Iter:  26  F: -20.174260066719778  |grad|_K:  4.327e-07  alpha:  2.849e-01  linmin:  4.266e-05  t[s]:    316.18
	FillingsUpdate:  mu: -0.078062631  nElectrons: 9.000000
	SubspaceRotationAdjust: set factor to 2.68
ElecMinimize: Iter:  27  F: -20.174261990742611  |grad|_K:  4.785e-07  alpha:  2.122e-01  linmin: -1.050e-06  t[s]:    326.06
	FillingsUpdate:  mu: -0.078062612  nElectrons: 9.000000
	SubspaceRotationAdjust: set factor to 2.06
ElecMinimize: Iter:  28  F: -20.174263954150096  |grad|_K:  5.530e-07  alpha:  1.837e-01  linmin:  2.850e-05  t[s]:    335.92
	FillingsUpdate:  mu: -0.078067036  nElectrons: 9.000000
	SubspaceRotationAdjust: set factor to 1.98
ElecMinimize: Iter:  29  F: -20.174265293908853  |grad|_K:  4.717e-07  alpha:  1.014e-01  linmin: -1.273e-05  t[s]:    345.76
	FillingsUpdate:  mu: -0.078078505  nElectrons: 9.000000
	SubspaceRotationAdjust: set factor to 2.19
ElecMinimize: Iter:  30  F: -20.174266773822417  |grad|_K:  4.341e-07  alpha:  1.430e-01  linmin: -8.614e-06  t[s]:    355.64
	FillingsUpdate:  mu: -0.078092458  nElectrons: 9.000000
	SubspaceRotationAdjust: set factor to 2.66
ElecMinimize: Iter:  31  F: -20.174268037579367  |grad|_K:  3.964e-07  alpha:  1.456e-01  linmin: -5.280e-05  t[s]:    365.54
	FillingsUpdate:  mu: -0.078104434  nElectrons: 9.000000
	SubspaceRotationAdjust: set factor to 3.43
ElecMinimize: Iter:  32  F: -20.174269203595738  |grad|_K:  3.591e-07  alpha:  1.563e-01  linmin: -4.682e-05  t[s]:    375.47
	FillingsUpdate:  mu: -0.078110026  nElectrons: 9.000000
	SubspaceRotationAdjust: set factor to 4.21
ElecMinimize: Iter:  33  F: -20.174270356593304  |grad|_K:  3.369e-07  alpha:  1.827e-01  linmin: -5.116e-05  t[s]:    385.35
	FillingsUpdate:  mu: -0.078105255  nElectrons: 9.000000
	SubspaceRotationAdjust: set factor to 5.28
ElecMinimize: Iter:  34  F: -20.174271555330456  |grad|_K:  3.144e-07  alpha:  2.143e-01  linmin: -2.872e-05  t[s]:    395.25
	FillingsUpdate:  mu: -0.078095163  nElectrons: 9.000000
	SubspaceRotationAdjust: set factor to 6.19
ElecMinimize: Iter:  35  F: -20.174272449439844  |grad|_K:  3.039e-07  alpha:  1.907e-01  linmin:  3.256e-05  t[s]:    405.27
	FillingsUpdate:  mu: -0.078090067  nElectrons: 9.000000
	SubspaceRotationAdjust: set factor to 5.77
ElecMinimize: Iter:  36  F: -20.174273053282754  |grad|_K:  3.113e-07  alpha:  1.417e-01  linmin:  6.799e-06  t[s]:    415.21
	FillingsUpdate:  mu: -0.078092840  nElectrons: 9.000000
	SubspaceRotationAdjust: set factor to 5.08
ElecMinimize: Iter:  37  F: -20.174273525072977  |grad|_K:  2.993e-07  alpha:  1.045e-01  linmin:  5.430e-06  t[s]:    425.08
	FillingsUpdate:  mu: -0.078101468  nElectrons: 9.000000
	SubspaceRotationAdjust: set factor to 4.45
ElecMinimize: Iter:  38  F: -20.174273927682872  |grad|_K:  2.839e-07  alpha:  9.925e-02  linmin: -1.136e-06  t[s]:    435.01
	FillingsUpdate:  mu: -0.078111995  nElectrons: 9.000000
	SubspaceRotationAdjust: set factor to 4.37
ElecMinimize: Iter:  39  F: -20.174274338509335  |grad|_K:  2.598e-07  alpha:  1.106e-01  linmin: -3.455e-05  t[s]:    444.90
	FillingsUpdate:  mu: -0.078119365  nElectrons: 9.000000
	SubspaceRotationAdjust: set factor to 4.95
ElecMinimize: Iter:  40  F: -20.174274780904970  |grad|_K:  2.425e-07  alpha:  1.362e-01  linmin: -3.470e-05  t[s]:    454.86
	FillingsUpdate:  mu: -0.078119840  nElectrons: 9.000000
	SubspaceRotationAdjust: set factor to 5.51
ElecMinimize: Iter:  41  F: -20.174275282605308  |grad|_K:  2.355e-07  alpha:  1.737e-01  linmin: -3.017e-05  t[s]:    464.79
	FillingsUpdate:  mu: -0.078113206  nElectrons: 9.000000
	SubspaceRotationAdjust: set factor to 5.59
ElecMinimize: Iter:  42  F: -20.174275739103248  |grad|_K:  2.279e-07  alpha:  1.724e-01  linmin:  2.444e-05  t[s]:    474.76
	FillingsUpdate:  mu: -0.078107322  nElectrons: 9.000000
	SubspaceRotationAdjust: set factor to 5.42
ElecMinimize: Iter:  43  F: -20.174276076111468  |grad|_K:  2.177e-07  alpha:  1.422e-01  linmin:  1.010e-05  t[s]:    484.65
	FillingsUpdate:  mu: -0.078107083  nElectrons: 9.000000
	SubspaceRotationAdjust: set factor to 5.37
ElecMinimize: Iter:  44  F: -20.174276331208191  |grad|_K:  2.051e-07  alpha:  1.183e-01  linmin:  1.008e-05  t[s]:    494.60
	FillingsUpdate:  mu: -0.078112025  nElectrons: 9.000000
	SubspaceRotationAdjust: set factor to 5.04
ElecMinimize: Iter:  45  F: -20.174276541405462  |grad|_K:  2.033e-07  alpha:  1.114e-01  linmin:  4.175e-06  t[s]:    504.46
	FillingsUpdate:  mu: -0.078119965  nElectrons: 9.000000
	SubspaceRotationAdjust: set factor to 4.68
ElecMinimize: Iter:  46  F: -20.174276765254231  |grad|_K:  1.983e-07  alpha:  1.186e-01  linmin: -2.768e-05  t[s]:    514.42
	FillingsUpdate:  mu: -0.078126806  nElectrons: 9.000000
	SubspaceRotationAdjust: set factor to 4.7
ElecMinimize: Iter:  47  F: -20.174277012457289  |grad|_K:  1.855e-07  alpha:  1.334e-01  linmin: -2.480e-05  t[s]:    524.40
	FillingsUpdate:  mu: -0.078129132  nElectrons: 9.000000
	SubspaceRotationAdjust: set factor to 5.09
ElecMinimize: Iter:  48  F: -20.174277269322001  |grad|_K:  1.712e-07  alpha:  1.563e-01  linmin: -1.997e-05  t[s]:    534.29
	FillingsUpdate:  mu: -0.078127243  nElectrons: 9.000000
	SubspaceRotationAdjust: set factor to 5.52
ElecMinimize: Iter:  49  F: -20.174277490007576  |grad|_K:  1.603e-07  alpha:  1.602e-01  linmin:  1.713e-05  t[s]:    544.17
	FillingsUpdate:  mu: -0.078125627  nElectrons: 9.000000
	SubspaceRotationAdjust: set factor to 5.45
ElecMinimize: Iter:  50  F: -20.174277658210549  |grad|_K:  1.577e-07  alpha:  1.442e-01  linmin:  1.077e-05  t[s]:    554.11
	FillingsUpdate:  mu: -0.078127844  nElectrons: 9.000000
	SubspaceRotationAdjust: set factor to 5.17
ElecMinimize: Iter:  51  F: -20.174277798973048  |grad|_K:  1.541e-07  alpha:  1.252e-01  linmin:  9.045e-06  t[s]:    563.91
	FillingsUpdate:  mu: -0.078134480  nElectrons: 9.000000
	SubspaceRotationAdjust: set factor to 4.78
ElecMinimize: Iter:  52  F: -20.174277923072431  |grad|_K:  1.511e-07  alpha:  1.162e-01  linmin:  5.292e-06  t[s]:    573.82
	FillingsUpdate:  mu: -0.078144038  nElectrons: 9.000000
	SubspaceRotationAdjust: set factor to 4.48
ElecMinimize: Iter:  53  F: -20.174278048774287  |grad|_K:  1.449e-07  alpha:  1.209e-01  linmin: -1.841e-05  t[s]:    583.73
	FillingsUpdate:  mu: -0.078153042  nElectrons: 9.000000
	SubspaceRotationAdjust: set factor to 4.52
ElecMinimize: Iter:  54  F: -20.174278177164442  |grad|_K:  1.340e-07  alpha:  1.313e-01  linmin: -1.587e-05  t[s]:    593.72
	FillingsUpdate:  mu: -0.078158444  nElectrons: 9.000000
	SubspaceRotationAdjust: set factor to 4.82
ElecMinimize: Iter:  55  F: -20.174278302001888  |grad|_K:  1.247e-07  alpha:  1.478e-01  linmin: -1.449e-05  t[s]:    603.59
	FillingsUpdate:  mu: -0.078159658  nElectrons: 9.000000
	SubspaceRotationAdjust: set factor to 5.18
ElecMinimize: Iter:  56  F: -20.174278416161844  |grad|_K:  1.187e-07  alpha:  1.570e-01  linmin:  4.233e-06  t[s]:    613.49
	FillingsUpdate:  mu: -0.078159070  nElectrons: 9.000000
	SubspaceRotationAdjust: set factor to 5.2
ElecMinimize: Iter:  57  F: -20.174278511344017  |grad|_K:  1.173e-07  alpha:  1.476e-01  linmin:  1.121e-05  t[s]:    623.35
	FillingsUpdate:  mu: -0.078159980  nElectrons: 9.000000
	SubspaceRotationAdjust: set factor to 4.93
ElecMinimize: Iter:  58  F: -20.174278593555098  |grad|_K:  1.149e-07  alpha:  1.320e-01  linmin:  8.487e-06  t[s]:    633.34
	FillingsUpdate:  mu: -0.078163913  nElectrons: 9.000000
	SubspaceRotationAdjust: set factor to 4.55
ElecMinimize: Iter:  59  F: -20.174278664949309  |grad|_K:  1.097e-07  alpha:  1.197e-01  linmin:  6.181e-06  t[s]:    643.23
	FillingsUpdate:  mu: -0.078170140  nElectrons: 9.000000
	SubspaceRotationAdjust: set factor to 4.23
ElecMinimize: Iter:  60  F: -20.174278730001806  |grad|_K:  1.017e-07  alpha:  1.192e-01  linmin: -7.579e-06  t[s]:    653.12
	FillingsUpdate:  mu: -0.078176504  nElectrons: 9.000000
	SubspaceRotationAdjust: set factor to 4.25
ElecMinimize: Iter:  61  F: -20.174278789929637  |grad|_K:  9.118e-08  alpha:  1.258e-01  linmin: -1.090e-05  t[s]:    663.03
	FillingsUpdate:  mu: -0.078180926  nElectrons: 9.000000
	SubspaceRotationAdjust: set factor to 4.64
ElecMinimize: Iter:  62  F: -20.174278843470848  |grad|_K:  8.388e-08  alpha:  1.384e-01  linmin: -1.042e-05  t[s]:    672.94
	FillingsUpdate:  mu: -0.078182772  nElectrons: 9.000000
	SubspaceRotationAdjust: set factor to 4.98
ElecMinimize: Iter:  63  F: -20.174278893394277  |grad|_K:  8.164e-08  alpha:  1.522e-01  linmin: -6.274e-06  t[s]:    682.84
	FillingsUpdate:  mu: -0.078182595  nElectrons: 9.000000
	SubspaceRotationAdjust: set factor to 4.91
ElecMinimize: Iter:  64  F: -20.174278939534229  |grad|_K:  8.168e-08  alpha:  1.502e-01  linmin:  9.678e-06  t[s]:    692.72
	FillingsUpdate:  mu: -0.078182309  nElectrons: 9.000000
	SubspaceRotationAdjust: set factor to 4.6
ElecMinimize: Iter:  65  F: -20.174278981153147  |grad|_K:  7.972e-08  alpha:  1.371e-01  linmin:  6.068e-06  t[s]:    702.62
	FillingsUpdate:  mu: -0.078183634  nElectrons: 9.000000
	SubspaceRotationAdjust: set factor to 4.36
ElecMinimize: Iter:  66  F: -20.174279017630433  |grad|_K:  7.443e-08  alpha:  1.265e-01  linmin:  5.106e-06  t[s]:    712.57
	FillingsUpdate:  mu: -0.078186778  nElectrons: 9.000000
	SubspaceRotationAdjust: set factor to 4.23
ElecMinimize: Iter:  67  F: -20.174279048713785  |grad|_K:  6.910e-08  alpha:  1.238e-01  linmin:  1.656e-06  t[s]:    722.44
	FillingsUpdate:  mu: -0.078190907  nElectrons: 9.000000
	SubspaceRotationAdjust: set factor to 4.24
ElecMinimize: Iter:  68  F: -20.174279076864899  |grad|_K:  6.471e-08  alpha:  1.290e-01  linmin: -8.122e-06  t[s]:    732.25
	FillingsUpdate:  mu: -0.078194753  nElectrons: 9.000000
	SubspaceRotationAdjust: set factor to 4.41
ElecMinimize: Iter:  69  F: -20.174279103331294  |grad|_K:  6.154e-08  alpha:  1.370e-01  linmin: -7.805e-06  t[s]:    742.26
	FillingsUpdate:  mu: -0.078197286  nElectrons: 9.000000
	SubspaceRotationAdjust: set factor to 4.52
ElecMinimize: Iter:  70  F: -20.174279128941333  |grad|_K:  5.998e-08  alpha:  1.460e-01  linmin: -7.738e-06  t[s]:    752.13
	FillingsUpdate:  mu: -0.078198138  nElectrons: 9.000000
	SubspaceRotationAdjust: set factor to 4.46
ElecMinimize: Iter:  71  F: -20.174279153629890  |grad|_K:  5.831e-08  alpha:  1.484e-01  linmin:  8.080e-07  t[s]:    762.02
	FillingsUpdate:  mu: -0.078198007  nElectrons: 9.000000
	SubspaceRotationAdjust: set factor to 4.32
ElecMinimize: Iter:  72  F: -20.174279175615979  |grad|_K:  5.543e-08  alpha:  1.412e-01  linmin:  5.131e-06  t[s]:    771.95
	FillingsUpdate:  mu: -0.078198181  nElectrons: 9.000000
	SubspaceRotationAdjust: set factor to 4.25
ElecMinimize: Iter:  73  F: -20.174279194429168  |grad|_K:  5.164e-08  alpha:  1.346e-01  linmin:  3.852e-06  t[s]:    781.81
	FillingsUpdate:  mu: -0.078199418  nElectrons: 9.000000
	SubspaceRotationAdjust: set factor to 4.26
ElecMinimize: Iter:  74  F: -20.174279210289434  |grad|_K:  4.836e-08  alpha:  1.310e-01  linmin:  3.525e-06  t[s]:    791.69
	FillingsUpdate:  mu: -0.078201652  nElectrons: 9.000000
	SubspaceRotationAdjust: set factor to 4.22
ElecMinimize: Iter:  75  F: -20.174279224324906  |grad|_K:  4.646e-08  alpha:  1.319e-01  linmin: -1.160e-06  t[s]:    801.58
	FillingsUpdate:  mu: -0.078204275  nElectrons: 9.000000
	SubspaceRotationAdjust: set factor to 4.17
ElecMinimize: Iter:  76  F: -20.174279237797705  |grad|_K:  4.487e-08  alpha:  1.362e-01  linmin: -6.582e-06  t[s]:    811.42
	FillingsUpdate:  mu: -0.078206300  nElectrons: 9.000000
	SubspaceRotationAdjust: set factor to 4.19
ElecMinimize: Iter:  77  F: -20.174279250869990  |grad|_K:  4.305e-08  alpha:  1.409e-01  linmin: -4.992e-06  t[s]:    821.30
	FillingsUpdate:  mu: -0.078206970  nElectrons: 9.000000
	SubspaceRotationAdjust: set factor to 4.25
ElecMinimize: Iter:  78  F: -20.174279263348332  |grad|_K:  4.133e-08  alpha:  1.459e-01  linmin: -3.495e-06  t[s]:    831.15
	FillingsUpdate:  mu: -0.078206244  nElectrons: 9.000000
	SubspaceRotationAdjust: set factor to 4.28
ElecMinimize: Iter:  79  F: -20.174279274863103  |grad|_K:  3.964e-08  alpha:  1.465e-01  linmin:  2.079e-06  t[s]:    841.08
	FillingsUpdate:  mu: -0.078204834  nElectrons: 9.000000
	SubspaceRotationAdjust: set factor to 4.27
ElecMinimize: Iter:  80  F: -20.174279285086403  |grad|_K:  3.795e-08  alpha:  1.424e-01  linmin:  3.131e-06  t[s]:    850.99
	FillingsUpdate:  mu: -0.078203648  nElectrons: 9.000000
	SubspaceRotationAdjust: set factor to 4.26
ElecMinimize: Iter:  81  F: -20.174279294119657  |grad|_K:  3.616e-08  alpha:  1.378e-01  linmin:  3.168e-06  t[s]:    860.90
	FillingsUpdate:  mu: -0.078203217  nElectrons: 9.000000
	SubspaceRotationAdjust: set factor to 4.21
ElecMinimize: Iter:  82  F: -20.174279302106154  |grad|_K:  3.457e-08  alpha:  1.342e-01  linmin:  2.746e-06  t[s]:    870.81
	FillingsUpdate:  mu: -0.078203461  nElectrons: 9.000000
	SubspaceRotationAdjust: set factor to 4.09
ElecMinimize: Iter:  83  F: -20.174279309411741  |grad|_K:  3.304e-08  alpha:  1.341e-01  linmin: -2.175e-06  t[s]:    880.79
	FillingsUpdate:  mu: -0.078203872  nElectrons: 9.000000
	SubspaceRotationAdjust: set factor to 4.04
ElecMinimize: Iter:  84  F: -20.174279316221828  |grad|_K:  3.103e-08  alpha:  1.360e-01  linmin: -3.382e-06  t[s]:    890.63
ElecMinimize: Converged (|Delta F|<1.000000e-08 for 4 iters).
Setting wave functions to eigenvectors of Hamiltonian

# Ionic positions in lattice coordinates:
ion Cs   0.000000000000000   0.000000000000000   0.000000000000000 0

# Forces in Lattice coordinates:
force Cs  -0.000000000000000   0.000000000000000   0.000000000000000 0

# Energy components:
   Eewald =      -11.0724086505108392
       EH =        4.9465026874578175
     Eloc =      -19.4753345058288119
      Enl =        3.4325332520782519
   Epulay =        0.0000000115033120
      Exc =       -3.1049069799895852
       KE =        5.0993349398173402
-------------------------------------
     Etot =      -20.1742792454725191
       TS =        0.0000000707493075
-------------------------------------
        F =      -20.1742793162218277

IonicMinimize: Iter:   0  F: -20.174279316221828  |grad|_K:  0.000e+00  t[s]:    891.86
IonicMinimize: Converged (|grad|_K<1.000000e-04).

#--- Lowdin population analysis ---
# oxidation-state Cs +0.033

End date and time: Sun Jan 16 17:03:15 2022  (Duration: 0-0:14:52.12)
Done!
