1.34
--------------------------------------------------------------------------
The library attempted to open the following supporting CUDA libraries,
but each of them failed.  CUDA-aware support is disabled.
libcuda.so.1: cannot open shared object file: No such file or directory
libcuda.dylib: cannot open shared object file: No such file or directory
/usr/lib64/libcuda.so.1: cannot open shared object file: No such file or directory
/usr/lib64/libcuda.dylib: cannot open shared object file: No such file or directory
If you are not interested in CUDA-aware support, then run with
--mca opal_warn_on_missing_libcuda 0 to suppress this message.  If you are interested
in CUDA-aware support, then try setting LD_LIBRARY_PATH to the location
of libcuda.so.1 to get passed this issue.
--------------------------------------------------------------------------
--------------------------------------------------------------------------
No OpenFabrics connection schemes reported that they were able to be
used on a specific port.  As such, the openib BTL (OpenFabrics
support) will be disabled for this port.

  Local host:           d-3-3-1
  Local device:         mlx5_1
  Local port:           1
  CPCs attempted:       rdmacm, udcm
--------------------------------------------------------------------------

*************** JDFTx 1.6.0 (git hash 42ebbcc2) ***************

Start date and time: Sun Jan 16 16:33:12 2022
Executable jdftx with command-line: -i Cesium.in
Running on hosts (process indices):  d-3-3-1 (0-18)
Divided in process groups (process indices):  0 (0)  1 (1)  2 (2)  3 (3)  4 (4)  5 (5)  6 (6)  7 (7)  8 (8)  9 (9)  10 (10)  11 (11)  12 (12)  13 (13)  14 (14)  15 (15)  16 (16)  17 (17)  18 (18)
Resource initialization completed at t[s]:      0.00
Run totals: 19 processes, 48 threads, 0 GPUs


Input parsed successfully to the following command list (including defaults):

basis kpoint-dependent
coords-type Lattice
core-overlap-check vector
coulomb-interaction Slab 001
davidson-band-ratio 1.1
dump End None
dump-name $INPUT.$VAR
elec-cutoff 20
elec-eigen-algo Davidson
elec-ex-corr gga-PBE
elec-smearing Fermi 1e-05
electronic-minimize  \
	dirUpdateScheme      FletcherReeves \
	linminMethod         DirUpdateRecommended \
	nIterations          10000 \
	history              15 \
	knormThreshold       0 \
	energyDiffThreshold  1e-08 \
	nEnergyDiff          4 \
	alphaTstart          1 \
	alphaTmin            1e-10 \
	updateTestStepSize   yes \
	alphaTreduceFactor   0.1 \
	alphaTincreaseFactor 3 \
	nAlphaAdjustMax      3 \
	wolfeEnergy          0.0001 \
	wolfeGradient        0.9 \
	fdTest               no
exchange-regularization WignerSeitzTruncated
fluid None
fluid-ex-corr (null) lda-PZ
fluid-gummel-loop 10 1.000000e-05
fluid-minimize  \
	dirUpdateScheme      PolakRibiere \
	linminMethod         DirUpdateRecommended \
	nIterations          100 \
	history              15 \
	knormThreshold       0 \
	energyDiffThreshold  0 \
	nEnergyDiff          2 \
	alphaTstart          1 \
	alphaTmin            1e-10 \
	updateTestStepSize   yes \
	alphaTreduceFactor   0.1 \
	alphaTincreaseFactor 3 \
	nAlphaAdjustMax      3 \
	wolfeEnergy          0.0001 \
	wolfeGradient        0.9 \
	fdTest               no
fluid-solvent H2O 55.338 ScalarEOS \
	epsBulk 78.4 \
	pMol 0.92466 \
	epsInf 1.77 \
	Pvap 1.06736e-10 \
	sigmaBulk 4.62e-05 \
	Rvdw 2.61727 \
	Res 1.42 \
	tauNuc 343133 \
	poleEl 15 7 1
forces-output-coords Positions
ion Cs   0.000000000000000   0.000000000000000   0.000000000000000 0
ion-species SG15/$ID_ONCV_PBE.upf
ion-width 0
ionic-minimize  \
	dirUpdateScheme      L-BFGS \
	linminMethod         DirUpdateRecommended \
	nIterations          0 \
	history              15 \
	knormThreshold       0.0001 \
	energyDiffThreshold  1e-06 \
	nEnergyDiff          2 \
	alphaTstart          1 \
	alphaTmin            1e-10 \
	updateTestStepSize   yes \
	alphaTreduceFactor   0.1 \
	alphaTincreaseFactor 3 \
	nAlphaAdjustMax      3 \
	wolfeEnergy          0.0001 \
	wolfeGradient        0.9 \
	fdTest               no
kpoint   0.000000000000   0.000000000000   0.000000000000  1.00000000000000
kpoint-folding 48 48 1 
latt-move-scale 1 1 1
latt-scale 1.34 1.34 1 
lattice  \
	   4.727486978767153   -2.363743489383575    0.000000000000000  \
	  -0.000000000000000    4.094123819672498    0.000000000000000  \
	   0.000000000000000    0.000000000000000   40.000000000000000 
lattice-minimize  \
	dirUpdateScheme      L-BFGS \
	linminMethod         DirUpdateRecommended \
	nIterations          0 \
	history              15 \
	knormThreshold       0 \
	energyDiffThreshold  1e-06 \
	nEnergyDiff          2 \
	alphaTstart          1 \
	alphaTmin            1e-10 \
	updateTestStepSize   yes \
	alphaTreduceFactor   0.1 \
	alphaTincreaseFactor 3 \
	nAlphaAdjustMax      3 \
	wolfeEnergy          0.0001 \
	wolfeGradient        0.9 \
	fdTest               no
lcao-params -1 1e-06 1e-05
pcm-variant GLSSA13
spintype no-spin
subspace-rotation-factor 1 yes
symmetries automatic
symmetry-threshold 0.0001



---------- Setting up symmetries ----------

Found 24 point-group symmetries of the bravais lattice
Found 24 space-group symmetries with basis
Applied RMS atom displacement 0 bohrs to make symmetries exact.

---------- Initializing the Grid ----------
R = 
[      6.33483     -3.16742            0  ]
[            0      5.48613            0  ]
[            0            0           40  ]
unit cell volume = 1390.15
G =
[   0.991847   0.572643         -0  ]
[          0    1.14529         -0  ]
[         -0         -0    0.15708  ]
Minimum fftbox size, Smin = [  28  28  164  ]
Chosen fftbox size, S = [  28  28  168  ]

---------- Exchange Correlation functional ----------
Initalized PBE GGA exchange.
Initalized PBE GGA correlation.

---------- Setting up pseudopotentials ----------
Width of ionic core gaussian charges (only for fluid interactions / plotting) set to 0

Reading pseudopotential file '/home/gridsan/aligho/DFT/build-Nov24/pseudopotentials/SG15/Cs_ONCV_PBE.upf':
  'Cs' pseudopotential, 'PBE' functional
  Generated using ONCVPSP code by D. R. Hamann
  Author: Martin Schlipf and Francois Gygi  Date: 150915.
  9 valence electrons, 3 orbitals, 6 projectors, 2414 radial grid points, with lMax = 2
  Transforming local potential to a uniform radial grid of dG=0.02 with 1543 points.
  Transforming nonlocal projectors to a uniform radial grid of dG=0.02 with 432 points.
    5S    l: 0   occupation:  2.0   eigenvalue: -0.982388
    5P    l: 1   occupation:  6.0   eigenvalue: -0.496786
    6S    l: 0   occupation:  1.0   eigenvalue: -0.076670
  Transforming atomic orbitals to a uniform radial grid of dG=0.02 with 432 points.
  Core radius for overlap checks: 2.06 bohrs.
  Reading pulay file /home/gridsan/aligho/DFT/build-Nov24/pseudopotentials/SG15/Cs_ONCV_PBE.pulay ... using dE_dnG = -1.008762e-04 computed for Ecut = 20.

Initialized 1 species with 1 total atoms.

Folded 1 k-points by 48x48x1 to 2304 k-points.

---------- Setting up k-points, bands, fillings ----------
Reduced to 217 k-points under symmetry. 
Computing the number of bands and number of electrons
Calculating initial fillings.
nElectrons:   9.000000   nBands: 6   nStates: 217

----- Setting up reduced wavefunction bases (one per k-point) -----
average nbasis = 5938.978 , ideal nbasis = 5938.816

---------- Setting up coulomb interaction ----------
Initialized slab truncation along lattice direction 001

---------- Setting up 2D ewald sum ----------
Optimum gaussian width for ewald sums = 3.516843 bohr.
Real space sums over 289 unit cells with max indices [  8  8  0  ]
Reciprocal space sums over 81 terms with max indices [  4  4  0  ]

---------- Allocating electronic variables ----------
Initializing wave functions:  linear combination of atomic orbitals
Note: number of bands (6) exceeds available atomic orbitals (5)
Cs pseudo-atom occupations:   s ( 2 1 )  p ( 6 )
	FillingsUpdate:  mu: -0.112925760  nElectrons: 9.000000
LCAOMinimize: Iter:   0  F: -20.0603880304508131  |grad|_K:  9.235e-05  alpha:  1.000e+00
[d-3-3-1:90606] 18 more processes have sent help message help-mpi-common-cuda.txt / dlopen failed
[d-3-3-1:90606] Set MCA parameter "orte_base_help_aggregate" to 0 to see all help / error messages
[d-3-3-1:90606] 18 more processes have sent help message help-mpi-btl-openib-cpc-base.txt / no cpcs for port
	FillingsUpdate:  mu: -0.112386157  nElectrons: 9.000000
LCAOMinimize: Iter:   1  F: -20.0604205192931353  |grad|_K:  1.304e-06  alpha:  9.755e-01  linmin: -1.657e-02  cgtest:  3.762e-01  t[s]:      5.02
LCAOMinimize: Encountered beta<0, resetting CG.
	FillingsUpdate:  mu: -0.112384440  nElectrons: 9.000000
LCAOMinimize: Iter:   2  F: -20.0604205258737309  |grad|_K:  1.571e-08  alpha:  9.901e-01  linmin: -4.565e-03  cgtest:  6.079e-02  t[s]:      6.82
LCAOMinimize: Encountered beta<0, resetting CG.
	FillingsUpdate:  mu: -0.112384384  nElectrons: 9.000000
LCAOMinimize: Iter:   3  F: -20.0604205258745090  |grad|_K:  4.870e-09  alpha:  6.738e-01  linmin: -8.888e-02  cgtest:  9.996e-01  t[s]:      8.63
LCAOMinimize: Encountered beta<0, resetting CG.
LCAOMinimize: Converged (|Delta F|<1.000000e-06 for 2 iters).


---- Citations for features of the code used in this run ----

   Software package:
      R. Sundararaman, K. Letchworth-Weaver, K.A. Schwarz, D. Gunceler, Y. Ozhabes and T.A. Arias, 'JDFTx: software for joint density-functional theory', SoftwareX 6, 278 (2017)

   gga-PBE exchange-correlation functional:
      J.P. Perdew, K. Burke and M. Ernzerhof, Phys. Rev. Lett. 77, 3865 (1996)

   Pseudopotentials:
      M Schlipf and F Gygi, Comput. Phys. Commun. 196, 36 (2015)

   Truncated Coulomb potentials:
      R. Sundararaman and T.A. Arias, Phys. Rev. B 87, 165122 (2013)

   Total energy minimization with Auxiliary Hamiltonian:
      C. Freysoldt, S. Boeck, and J. Neugebauer, Phys. Rev. B 79, 241103(R) (2009)

This list may not be complete. Please suggest additional citations or
report any other bugs at https://github.com/shankar1729/jdftx/issues

Initialization completed successfully at t[s]:      8.82


-------- Electronic minimization -----------
	FillingsUpdate:  mu: -0.112384384  nElectrons: 9.000000
ElecMinimize: Iter:   0  F: -20.060420525874509  |grad|_K:  5.072e-05  alpha:  1.000e+00
	FillingsUpdate:  mu: -0.112746694  nElectrons: 9.000000
	SubspaceRotationAdjust: set factor to 1
ElecMinimize: Iter:   1  F: -20.082108032965120  |grad|_K:  2.766e-05  alpha:  1.090e+00  linmin:  9.364e-05  t[s]:     12.65
ElecMinimize: 	Step increased F by 6.599598e-03, reducing alpha to 1.710268e-01.
	FillingsUpdate:  mu: -0.115328758  nElectrons: 9.000000
	SubspaceRotationAdjust: set factor to 1.04
ElecMinimize: Iter:   2  F: -20.084018742484844  |grad|_K:  2.474e-05  alpha:  1.710e-01  linmin: -5.444e-03  t[s]:     16.59
ElecMinimize: 	Predicted alpha/alphaT>3.000000, increasing alphaT to 5.130804e-01.
ElecMinimize: 	Step increased F by 2.877881e-02, reducing alpha to 9.825508e-02.
	FillingsUpdate:  mu: -0.120276318  nElectrons: 9.000000
	SubspaceRotationAdjust: set factor to 1.09
ElecMinimize: Iter:   3  F: -20.085675376676232  |grad|_K:  2.186e-05  alpha:  9.826e-02  linmin: -5.699e-03  t[s]:     21.27
ElecMinimize: 	Predicted alpha/alphaT>3.000000, increasing alphaT to 2.947652e-01.
ElecMinimize: 	Predicted alpha/alphaT>3.000000, increasing alphaT to 8.842957e-01.
	FillingsUpdate:  mu: -0.123578633  nElectrons: 9.000000
	SubspaceRotationAdjust: set factor to 1.17
ElecMinimize: Iter:   4  F: -20.086808488100647  |grad|_K:  1.991e-05  alpha:  6.020e-02  linmin: -5.693e-03  t[s]:     25.11
ElecMinimize: 	Wrong curvature in test step, increasing alphaT to 1.806104e-01.
	FillingsUpdate:  mu: -0.126907554  nElectrons: 9.000000
	SubspaceRotationAdjust: set factor to 1.5
ElecMinimize: Iter:   5  F: -20.088172009172787  |grad|_K:  2.036e-05  alpha: -3.748e-01  linmin: -3.564e-03  t[s]:     27.30
	FillingsUpdate:  mu: -0.127501804  nElectrons: 9.000000
	SubspaceRotationAdjust: set factor to 1.8
ElecMinimize: Iter:   6  F: -20.088603266033008  |grad|_K:  1.925e-05  alpha:  1.691e-02  linmin: -5.073e-03  t[s]:     29.69
ElecMinimize: 	Wrong curvature in test step, increasing alphaT to 5.072966e-02.
	FillingsUpdate:  mu: -0.128467010  nElectrons: 9.000000
	SubspaceRotationAdjust: set factor to 2.05
ElecMinimize: Iter:   7  F: -20.089186623626439  |grad|_K:  1.779e-05  alpha: -4.806e-02  linmin: -5.474e-03  t[s]:     31.86
	FillingsUpdate:  mu: -0.128498870  nElectrons: 9.000000
	SubspaceRotationAdjust: set factor to 2.36
ElecMinimize: Iter:   8  F: -20.089398957843585  |grad|_K:  1.765e-05  alpha:  7.905e-03  linmin: -5.063e-03  t[s]:     34.22
ElecMinimize: 	Predicted alpha/alphaT>3.000000, increasing alphaT to 2.371409e-02.
ElecMinimize: 	Predicted alpha/alphaT>3.000000, increasing alphaT to 7.114228e-02.
ElecMinimize: 	Wrong curvature in test step, increasing alphaT to 2.134268e-01.
	FillingsUpdate:  mu: -0.126770517  nElectrons: 9.000000
	SubspaceRotationAdjust: set factor to 3.03
ElecMinimize: Iter:   9  F: -20.092937436239481  |grad|_K:  1.788e-05  alpha: -5.914e-02  linmin: -5.143e-03  t[s]:     37.79
	FillingsUpdate:  mu: -0.125281898  nElectrons: 9.000000
	SubspaceRotationAdjust: set factor to 3.66
ElecMinimize: Iter:  10  F: -20.093775841383906  |grad|_K:  1.901e-05  alpha:  8.709e-03  linmin: -5.342e-03  t[s]:     40.16
ElecMinimize: 	Wrong curvature in test step, increasing alphaT to 2.612813e-02.
	FillingsUpdate:  mu: -0.123336608  nElectrons: 9.000000
	SubspaceRotationAdjust: set factor to 1.94
ElecMinimize: Iter:  11  F: -20.094639484862860  |grad|_K:  7.340e-05  alpha: -4.676e-03  linmin: -1.717e-02  t[s]:     42.34
ElecMinimize: 	Step increased F by 5.929366e+00, reducing alpha to 3.540797e-02.
ElecMinimize: 	Step increased F by 1.428413e+00, reducing alpha to 3.540797e-03.
ElecMinimize: 	Step increased F by 3.874465e-03, reducing alpha to 3.540797e-04.
ElecMinimize: 	Step failed to reduce F after 3 attempts. Quitting step.
ElecMinimize: 	Undoing step.
ElecMinimize: 	Step failed: resetting search direction.
	FillingsUpdate:  mu: -0.110749313  nElectrons: 9.000000
	SubspaceRotationAdjust: set factor to 1.85
ElecMinimize: Iter:  12  F: -20.095536294780516  |grad|_K:  2.522e-05  alpha:  3.541e-04
	FillingsUpdate:  mu: -0.133743059  nElectrons: 9.000000
	SubspaceRotationAdjust: set factor to 1.41
ElecMinimize: Iter:  13  F: -20.100170914766686  |grad|_K:  2.813e-05  alpha:  1.052e+00  linmin:  1.402e-03  t[s]:     51.78
ElecMinimize: 	Predicted alpha/alphaT>3.000000, increasing alphaT to 3.156274e+00.
	FillingsUpdate:  mu: -0.128744875  nElectrons: 9.000000
	SubspaceRotationAdjust: set factor to 2.01
ElecMinimize: Iter:  14  F: -20.105492531863586  |grad|_K:  2.030e-05  alpha:  4.148e-01  linmin: -1.354e-02  t[s]:     54.85
ElecMinimize: 	Wrong curvature in test step, increasing alphaT to 1.244264e+00.
	FillingsUpdate:  mu: -0.112325648  nElectrons: 9.000000
	SubspaceRotationAdjust: set factor to 2.48
ElecMinimize: Iter:  15  F: -20.112427693538415  |grad|_K:  1.672e-05  alpha: -4.283e-01  linmin: -1.300e-02  t[s]:     57.03
	FillingsUpdate:  mu: -0.106564924  nElectrons: 9.000000
	SubspaceRotationAdjust: set factor to 2.93
ElecMinimize: Iter:  16  F: -20.114049733888592  |grad|_K:  1.665e-05  alpha:  1.168e-01  linmin: -1.771e-02  t[s]:     59.41
ElecMinimize: 	Predicted alpha/alphaT>3.000000, increasing alphaT to 3.503282e-01.
	FillingsUpdate:  mu: -0.098541121  nElectrons: 9.000000
	SubspaceRotationAdjust: set factor to 3.11
ElecMinimize: Iter:  17  F: -20.115863368711658  |grad|_K:  1.727e-05  alpha:  1.398e-01  linmin: -1.053e-02  t[s]:     62.47
	FillingsUpdate:  mu: -0.093459826  nElectrons: 9.000000
	SubspaceRotationAdjust: set factor to 3.08
ElecMinimize: Iter:  18  F: -20.116342799111194  |grad|_K:  2.309e-05  alpha:  6.659e-02  linmin: -1.337e-03  t[s]:     64.81
	FillingsUpdate:  mu: -0.094520352  nElectrons: 9.000000
	SubspaceRotationAdjust: set factor to 1.61
ElecMinimize: Iter:  19  F: -20.116617511584941  |grad|_K:  8.117e-05  alpha:  2.206e-02  linmin:  4.530e-03  t[s]:     67.18
ElecMinimize: 	Bad step direction: g.d > 0.
ElecMinimize: 	Undoing step.
ElecMinimize: 	Step failed: resetting search direction.
	FillingsUpdate:  mu: -0.094520352  nElectrons: 9.000000
	SubspaceRotationAdjust: set factor to 0.87
ElecMinimize: Iter:  20  F: -20.116617511584934  |grad|_K:  5.975e-05  alpha:  0.000e+00
	FillingsUpdate:  mu: -0.095535650  nElectrons: 9.000000
	SubspaceRotationAdjust: set factor to 1.06
ElecMinimize: Iter:  21  F: -20.116806443229521  |grad|_K:  1.729e-05  alpha:  1.362e-02  linmin: -1.673e-02  t[s]:     71.21
ElecMinimize: 	Predicted alpha/alphaT>3.000000, increasing alphaT to 4.086050e-02.
ElecMinimize: 	Wrong curvature in test step, increasing alphaT to 1.225815e-01.
	FillingsUpdate:  mu: -0.095099388  nElectrons: 9.000000
	SubspaceRotationAdjust: set factor to 1.08
ElecMinimize: Iter:  22  F: -20.117110218621448  |grad|_K:  2.199e-05  alpha: -4.348e-02  linmin: -2.200e-02  t[s]:     74.13
	FillingsUpdate:  mu: -0.116335362  nElectrons: 9.000000
	SubspaceRotationAdjust: set factor to 0.908
ElecMinimize: Iter:  23  F: -20.120014525356858  |grad|_K:  1.647e-05  alpha:  4.768e-01  linmin:  1.307e-03  t[s]:     76.52
	FillingsUpdate:  mu: -0.122840957  nElectrons: 9.000000
	SubspaceRotationAdjust: set factor to 1.19
ElecMinimize: Iter:  24  F: -20.121601016137607  |grad|_K:  1.487e-05  alpha:  6.598e-01  linmin: -2.947e-02  t[s]:     78.87
ElecMinimize: 	Wrong curvature in test step, increasing alphaT to 1.979485e+00.
	FillingsUpdate:  mu: -0.102443948  nElectrons: 9.000000
	SubspaceRotationAdjust: set factor to 1.56
ElecMinimize: Iter:  25  F: -20.125441912255237  |grad|_K:  1.116e-05  alpha: -7.145e+00  linmin: -9.034e-03  t[s]:     81.03
	FillingsUpdate:  mu: -0.088631023  nElectrons: 9.000000
	SubspaceRotationAdjust: set factor to 1.91
ElecMinimize: Iter:  26  F: -20.127185670954507  |grad|_K:  1.178e-05  alpha:  4.961e-01  linmin: -1.240e-02  t[s]:     83.41
	FillingsUpdate:  mu: -0.081543777  nElectrons: 9.000000
	SubspaceRotationAdjust: set factor to 2.24
ElecMinimize: Iter:  27  F: -20.127417472201849  |grad|_K:  1.066e-05  alpha:  2.077e-01  linmin: -6.557e-03  t[s]:     85.78
	FillingsUpdate:  mu: -0.087753825  nElectrons: 9.000000
	SubspaceRotationAdjust: set factor to 1.86
ElecMinimize: Iter:  28  F: -20.127817854524096  |grad|_K:  1.137e-05  alpha:  2.129e-01  linmin: -1.871e-04  t[s]:     88.13
	FillingsUpdate:  mu: -0.096250637  nElectrons: 9.000000
	SubspaceRotationAdjust: set factor to 1.39
ElecMinimize: Iter:  29  F: -20.127890716157719  |grad|_K:  1.248e-05  alpha:  4.737e-02  linmin: -9.476e-04  t[s]:     90.50
ElecMinimize: 	Wrong curvature in test step, increasing alphaT to 1.421042e-01.
	FillingsUpdate:  mu: -0.098577891  nElectrons: 9.000000
	SubspaceRotationAdjust: set factor to 1.1
ElecMinimize: Iter:  30  F: -20.128110436253511  |grad|_K:  1.206e-05  alpha: -4.495e-02  linmin: -4.471e-03  t[s]:     92.67
ElecMinimize: 	Step increased F by 6.219195e-05, reducing alpha to 1.319241e-02.
	FillingsUpdate:  mu: -0.099270202  nElectrons: 9.000000
	SubspaceRotationAdjust: set factor to 0.973
ElecMinimize: Iter:  31  F: -20.128242946258474  |grad|_K:  1.118e-05  alpha:  1.319e-02  linmin: -1.124e-02  t[s]:     96.64
	FillingsUpdate:  mu: -0.100762344  nElectrons: 9.000000
	SubspaceRotationAdjust: set factor to 0.902
ElecMinimize: Iter:  32  F: -20.128269737166445  |grad|_K:  1.084e-05  alpha:  1.211e-02  linmin: -2.806e-02  t[s]:     98.97
ElecMinimize: 	Predicted alpha/alphaT>3.000000, increasing alphaT to 3.633132e-02.
ElecMinimize: 	Predicted alpha/alphaT>3.000000, increasing alphaT to 1.089940e-01.
ElecMinimize: 	Predicted alpha/alphaT>3.000000, increasing alphaT to 3.269819e-01.
ElecMinimize: 	Step increased F by 1.046370e-03, reducing alpha to 7.907717e-02.
	FillingsUpdate:  mu: -0.102261408  nElectrons: 9.000000
	SubspaceRotationAdjust: set factor to 0.55
ElecMinimize: Iter:  33  F: -20.128796619214775  |grad|_K:  1.595e-05  alpha:  7.908e-02  linmin: -1.605e-02  t[s]:    104.33
	FillingsUpdate:  mu: -0.104488291  nElectrons: 9.000000
	SubspaceRotationAdjust: set factor to 0.849
ElecMinimize: Iter:  34  F: -20.129161592590272  |grad|_K:  8.169e-06  alpha:  5.348e-02  linmin: -3.750e-02  t[s]:    106.72
ElecMinimize: 	Predicted alpha/alphaT>3.000000, increasing alphaT to 1.604251e-01.
	FillingsUpdate:  mu: -0.108943879  nElectrons: 9.000000
	SubspaceRotationAdjust: set factor to 0.986
ElecMinimize: Iter:  35  F: -20.129434802773407  |grad|_K:  7.767e-06  alpha:  1.792e-01  linmin: -1.878e-02  t[s]:    109.79
ElecMinimize: 	Predicted alpha/alphaT>3.000000, increasing alphaT to 5.375383e-01.
	FillingsUpdate:  mu: -0.100477960  nElectrons: 9.000000
	SubspaceRotationAdjust: set factor to 1.16
ElecMinimize: Iter:  36  F: -20.129965687914265  |grad|_K:  7.080e-06  alpha:  4.059e-01  linmin: -4.543e-03  t[s]:    112.86
ElecMinimize: 	Step increased F by 3.364772e-04, reducing alpha to 9.826952e-02.
	FillingsUpdate:  mu: -0.100412405  nElectrons: 9.000000
	SubspaceRotationAdjust: set factor to 1.56
ElecMinimize: Iter:  37  F: -20.130099205728971  |grad|_K:  7.103e-06  alpha:  9.827e-02  linmin: -8.451e-03  t[s]:    116.84
ElecMinimize: 	Wrong curvature in test step, increasing alphaT to 2.948086e-01.
	FillingsUpdate:  mu: -0.099706836  nElectrons: 9.000000
	SubspaceRotationAdjust: set factor to 1.71
ElecMinimize: Iter:  38  F: -20.130511241983474  |grad|_K:  6.950e-06  alpha: -4.777e-02  linmin: -1.318e-02  t[s]:    119.05
	FillingsUpdate:  mu: -0.099771058  nElectrons: 9.000000
	SubspaceRotationAdjust: set factor to 2.46
ElecMinimize: Iter:  39  F: -20.131426664232606  |grad|_K:  4.674e-06  alpha:  2.345e-01  linmin: -1.466e-02  t[s]:    121.41
ElecMinimize: 	Wrong curvature in test step, increasing alphaT to 7.035278e-01.
	FillingsUpdate:  mu: -0.095440316  nElectrons: 9.000000
	SubspaceRotationAdjust: set factor to 2.55
ElecMinimize: Iter:  40  F: -20.131637658222672  |grad|_K:  4.593e-06  alpha: -1.300e+00  linmin: -1.067e-02  t[s]:    123.61
	FillingsUpdate:  mu: -0.095927835  nElectrons: 9.000000
	SubspaceRotationAdjust: set factor to 2.8
ElecMinimize: Iter:  41  F: -20.131698994648403  |grad|_K:  4.558e-06  alpha:  9.534e-02  linmin: -4.310e-03  t[s]:    125.98
	FillingsUpdate:  mu: -0.099520020  nElectrons: 9.000000
	SubspaceRotationAdjust: set factor to 2.08
ElecMinimize: Iter:  42  F: -20.131739103619967  |grad|_K:  7.310e-06  alpha:  8.720e-02  linmin:  5.827e-04  t[s]:    128.33
ElecMinimize: 	Predicted alpha/alphaT>3.000000, increasing alphaT to 2.616119e-01.
	FillingsUpdate:  mu: -0.098226107  nElectrons: 9.000000
	SubspaceRotationAdjust: set factor to 2.94
ElecMinimize: Iter:  43  F: -20.131740736018156  |grad|_K:  5.097e-06  alpha:  6.636e-03  linmin: -3.026e-03  t[s]:    131.40
ElecMinimize: 	Wrong curvature in test step, increasing alphaT to 1.990685e-02.
	FillingsUpdate:  mu: -0.098226856  nElectrons: 9.000000
	SubspaceRotationAdjust: set factor to 3.64
ElecMinimize: Iter:  44  F: -20.131748471825887  |grad|_K:  4.891e-06  alpha: -1.398e-01  linmin: -5.440e-03  t[s]:    133.60
	FillingsUpdate:  mu: -0.097889901  nElectrons: 9.000000
	SubspaceRotationAdjust: set factor to 3.09
ElecMinimize: Iter:  45  F: -20.131943303641144  |grad|_K:  4.257e-06  alpha:  1.842e-01  linmin: -3.599e-03  t[s]:    135.95
ElecMinimize: 	Step increased F by 2.656682e-05, reducing alpha to 3.926738e-02.
	FillingsUpdate:  mu: -0.096948460  nElectrons: 9.000000
	SubspaceRotationAdjust: set factor to 2.25
ElecMinimize: Iter:  46  F: -20.131987525489386  |grad|_K:  5.719e-06  alpha:  3.927e-02  linmin: -8.456e-03  t[s]:    139.91
	FillingsUpdate:  mu: -0.097598101  nElectrons: 9.000000
	SubspaceRotationAdjust: set factor to 1.86
ElecMinimize: Iter:  47  F: -20.132085832980938  |grad|_K:  5.122e-06  alpha:  1.056e-01  linmin: -3.337e-03  t[s]:    142.27
	FillingsUpdate:  mu: -0.097678491  nElectrons: 9.000000
	SubspaceRotationAdjust: set factor to 2.31
ElecMinimize: Iter:  48  F: -20.132105402574190  |grad|_K:  3.708e-06  alpha:  4.636e-02  linmin: -2.673e-03  t[s]:    144.63
ElecMinimize: 	Predicted alpha/alphaT>3.000000, increasing alphaT to 1.390759e-01.
ElecMinimize: 	Predicted alpha/alphaT>3.000000, increasing alphaT to 4.172278e-01.
	FillingsUpdate:  mu: -0.098127766  nElectrons: 9.000000
	SubspaceRotationAdjust: set factor to 2.49
ElecMinimize: Iter:  49  F: -20.132149537718391  |grad|_K:  3.874e-06  alpha:  1.418e-01  linmin: -1.945e-03  t[s]:    148.40
	FillingsUpdate:  mu: -0.099757119  nElectrons: 9.000000
	SubspaceRotationAdjust: set factor to 1.9
ElecMinimize: Iter:  50  F: -20.132198624235311  |grad|_K:  4.986e-06  alpha:  2.548e-01  linmin:  1.526e-03  t[s]:    150.76
	FillingsUpdate:  mu: -0.099821596  nElectrons: 9.000000
	SubspaceRotationAdjust: set factor to 1.76
ElecMinimize: Iter:  51  F: -20.132198921904706  |grad|_K:  4.322e-06  alpha:  4.628e-03  linmin: -6.553e-04  t[s]:    153.17
	FillingsUpdate:  mu: -0.100030934  nElectrons: 9.000000
	SubspaceRotationAdjust: set factor to 2.05
ElecMinimize: Iter:  52  F: -20.132200946085288  |grad|_K:  3.159e-06  alpha:  9.322e-03  linmin: -2.181e-03  t[s]:    155.53
ElecMinimize: 	Wrong curvature in test step, increasing alphaT to 2.796474e-02.
	FillingsUpdate:  mu: -0.100688923  nElectrons: 9.000000
	SubspaceRotationAdjust: set factor to 1.72
ElecMinimize: Iter:  53  F: -20.132204026983693  |grad|_K:  4.591e-06  alpha: -1.015e-02  linmin: -5.046e-02  t[s]:    157.73
	FillingsUpdate:  mu: -0.099993862  nElectrons: 9.000000
	SubspaceRotationAdjust: set factor to 1.71
ElecMinimize: Iter:  54  F: -20.132223342849429  |grad|_K:  2.961e-06  alpha:  1.275e-01  linmin:  6.335e-03  t[s]:    160.12
	FillingsUpdate:  mu: -0.099991052  nElectrons: 9.000000
	SubspaceRotationAdjust: set factor to 1.94
ElecMinimize: Iter:  55  F: -20.132223820228262  |grad|_K:  2.984e-06  alpha:  1.585e-02  linmin: -5.674e-04  t[s]:    162.51
ElecMinimize: 	Predicted alpha/alphaT>3.000000, increasing alphaT to 4.755201e-02.
	FillingsUpdate:  mu: -0.099936381  nElectrons: 9.000000
	SubspaceRotationAdjust: set factor to 2.23
ElecMinimize: Iter:  56  F: -20.132227353387997  |grad|_K:  3.611e-06  alpha:  4.574e-02  linmin: -1.684e-04  t[s]:    165.57
	FillingsUpdate:  mu: -0.099873870  nElectrons: 9.000000
	SubspaceRotationAdjust: set factor to 2.73
ElecMinimize: Iter:  57  F: -20.132233506364312  |grad|_K:  3.023e-06  alpha:  2.825e-02  linmin: -2.268e-03  t[s]:    167.94
	FillingsUpdate:  mu: -0.098448729  nElectrons: 9.000000
	SubspaceRotationAdjust: set factor to 2.72
ElecMinimize: Iter:  58  F: -20.132237542774519  |grad|_K:  2.884e-06  alpha:  5.420e-02  linmin: -8.540e-04  t[s]:    170.29
ElecMinimize: 	Wrong curvature in test step, increasing alphaT to 1.626075e-01.
	FillingsUpdate:  mu: -0.095088576  nElectrons: 9.000000
	SubspaceRotationAdjust: set factor to 3.07
ElecMinimize: Iter:  59  F: -20.132262570166745  |grad|_K:  2.605e-06  alpha: -1.829e-02  linmin: -2.526e-03  t[s]:    172.51
	FillingsUpdate:  mu: -0.096347078  nElectrons: 9.000000
	SubspaceRotationAdjust: set factor to 3.44
ElecMinimize: Iter:  60  F: -20.132305804184970  |grad|_K:  2.335e-06  alpha:  9.501e-02  linmin: -2.283e-03  t[s]:    174.91
	FillingsUpdate:  mu: -0.096555254  nElectrons: 9.000000
	SubspaceRotationAdjust: set factor to 3.79
ElecMinimize: Iter:  61  F: -20.132319007870013  |grad|_K:  2.309e-06  alpha:  1.107e-01  linmin: -2.731e-03  t[s]:    177.28
ElecMinimize: 	Predicted alpha/alphaT>3.000000, increasing alphaT to 3.320868e-01.
	FillingsUpdate:  mu: -0.099361254  nElectrons: 9.000000
	SubspaceRotationAdjust: set factor to 2.01
ElecMinimize: Iter:  62  F: -20.132333461550715  |grad|_K:  2.959e-06  alpha:  7.040e-02  linmin:  7.743e-03  t[s]:    180.35
ElecMinimize: 	Bad step direction: g.d > 0.
ElecMinimize: 	Undoing step.
ElecMinimize: 	Step failed: resetting search direction.
	FillingsUpdate:  mu: -0.099361254  nElectrons: 9.000000
	SubspaceRotationAdjust: set factor to 2.67
ElecMinimize: Iter:  63  F: -20.132333461550715  |grad|_K:  2.561e-06  alpha:  0.000e+00
ElecMinimize: 	Predicted alpha/alphaT>3.000000, increasing alphaT to 2.111943e-01.
	FillingsUpdate:  mu: -0.096743511  nElectrons: 9.000000
	SubspaceRotationAdjust: set factor to 2.14
ElecMinimize: Iter:  64  F: -20.132362666937031  |grad|_K:  2.958e-06  alpha:  3.734e-01  linmin: -6.077e-03  t[s]:    185.11
	FillingsUpdate:  mu: -0.099235209  nElectrons: 9.000000
	SubspaceRotationAdjust: set factor to 1.4
ElecMinimize: Iter:  65  F: -20.132383207317091  |grad|_K:  2.140e-06  alpha:  2.118e-01  linmin: -1.144e-03  t[s]:    187.48
ElecMinimize: 	Wrong curvature in test step, increasing alphaT to 6.354384e-01.
	FillingsUpdate:  mu: -0.098887954  nElectrons: 9.000000
	SubspaceRotationAdjust: set factor to 2.52
ElecMinimize: Iter:  66  F: -20.132403867017338  |grad|_K:  1.847e-06  alpha: -1.291e+00  linmin: -7.648e-03  t[s]:    189.69
	FillingsUpdate:  mu: -0.094492975  nElectrons: 9.000000
	SubspaceRotationAdjust: set factor to 2.57
ElecMinimize: Iter:  67  F: -20.132448038327908  |grad|_K:  1.666e-06  alpha:  8.447e-01  linmin: -3.462e-02  t[s]:    192.07
	FillingsUpdate:  mu: -0.099366173  nElectrons: 9.000000
	SubspaceRotationAdjust: set factor to 1.08
ElecMinimize: Iter:  68  F: -20.132485390744428  |grad|_K:  1.205e-06  alpha:  1.562e-01  linmin: -1.512e-03  t[s]:    194.42
ElecMinimize: 	Wrong curvature in test step, increasing alphaT to 4.686897e-01.
	FillingsUpdate:  mu: -0.099609619  nElectrons: 9.000000
	SubspaceRotationAdjust: set factor to 1.57
ElecMinimize: Iter:  69  F: -20.132492673495832  |grad|_K:  1.240e-06  alpha: -2.926e-01  linmin: -6.550e-03  t[s]:    196.60
	FillingsUpdate:  mu: -0.101285153  nElectrons: 9.000000
	SubspaceRotationAdjust: set factor to 1.28
ElecMinimize: Iter:  70  F: -20.132499658908117  |grad|_K:  1.066e-06  alpha:  3.576e-01  linmin: -3.797e-03  t[s]:    198.97
ElecMinimize: 	Wrong curvature in test step, increasing alphaT to 1.072802e+00.
	FillingsUpdate:  mu: -0.097433575  nElectrons: 9.000000
	SubspaceRotationAdjust: set factor to 1.49
ElecMinimize: Iter:  71  F: -20.132522752193783  |grad|_K:  7.722e-07  alpha: -1.960e-01  linmin: -1.415e-02  t[s]:    201.16
ElecMinimize: 	Predicted alpha/alphaT>3.000000, increasing alphaT to 3.000000e+00.
	FillingsUpdate:  mu: -0.098433347  nElectrons: 9.000000
	SubspaceRotationAdjust: set factor to 0.592
ElecMinimize: Iter:  72  F: -20.132544068046247  |grad|_K:  9.301e-07  alpha:  1.290e+00  linmin:  2.912e-03  t[s]:    204.21
ElecMinimize: 	Bad step direction: g.d > 0.
ElecMinimize: 	Undoing step.
ElecMinimize: 	Step failed: resetting search direction.
	FillingsUpdate:  mu: -0.098433347  nElectrons: 9.000000
	SubspaceRotationAdjust: set factor to 0.913
ElecMinimize: Iter:  73  F: -20.132544068046247  |grad|_K:  7.618e-07  alpha:  0.000e+00
	FillingsUpdate:  mu: -0.098094337  nElectrons: 9.000000
	SubspaceRotationAdjust: set factor to 0.759
ElecMinimize: Iter:  74  F: -20.132549507877602  |grad|_K:  9.289e-07  alpha:  1.228e+00  linmin: -4.417e-04  t[s]:    208.23
	FillingsUpdate:  mu: -0.098745361  nElectrons: 9.000000
	SubspaceRotationAdjust: set factor to 0.753
ElecMinimize: Iter:  75  F: -20.132550792313406  |grad|_K:  6.128e-07  alpha:  6.013e-01  linmin:  3.568e-04  t[s]:    210.58
	FillingsUpdate:  mu: -0.098780639  nElectrons: 9.000000
	SubspaceRotationAdjust: set factor to 0.771
ElecMinimize: Iter:  76  F: -20.132553101233423  |grad|_K:  4.880e-07  alpha:  8.366e-01  linmin:  6.623e-06  t[s]:    212.95
	FillingsUpdate:  mu: -0.098694591  nElectrons: 9.000000
	SubspaceRotationAdjust: set factor to 0.775
ElecMinimize: Iter:  77  F: -20.132554900523388  |grad|_K:  3.152e-07  alpha:  9.767e-01  linmin:  1.833e-06  t[s]:    215.31
	FillingsUpdate:  mu: -0.098623984  nElectrons: 9.000000
	SubspaceRotationAdjust: set factor to 0.792
ElecMinimize: Iter:  78  F: -20.132555547745032  |grad|_K:  2.270e-07  alpha:  5.449e-01  linmin: -4.705e-03  t[s]:    217.65
	FillingsUpdate:  mu: -0.098402059  nElectrons: 9.000000
	SubspaceRotationAdjust: set factor to 0.712
ElecMinimize: Iter:  79  F: -20.132555870941307  |grad|_K:  2.542e-07  alpha:  3.841e-01  linmin: -1.482e-04  t[s]:    220.00
	FillingsUpdate:  mu: -0.098243962  nElectrons: 9.000000
	SubspaceRotationAdjust: set factor to 0.441
ElecMinimize: Iter:  80  F: -20.132555991374904  |grad|_K:  3.978e-07  alpha:  2.166e-01  linmin: -5.303e-05  t[s]:    222.35
	FillingsUpdate:  mu: -0.098247323  nElectrons: 9.000000
	SubspaceRotationAdjust: set factor to 0.382
ElecMinimize: Iter:  81  F: -20.132556229943969  |grad|_K:  4.074e-07  alpha:  1.903e-01  linmin:  5.575e-07  t[s]:    224.71
	FillingsUpdate:  mu: -0.098464018  nElectrons: 9.000000
	SubspaceRotationAdjust: set factor to 0.498
ElecMinimize: Iter:  82  F: -20.132556446592226  |grad|_K:  3.665e-07  alpha:  1.700e-01  linmin: -1.226e-04  t[s]:    227.06
	FillingsUpdate:  mu: -0.098657815  nElectrons: 9.000000
	SubspaceRotationAdjust: set factor to 0.508
ElecMinimize: Iter:  83  F: -20.132556734836584  |grad|_K:  3.589e-07  alpha:  2.487e-01  linmin: -1.787e-03  t[s]:    229.40
	FillingsUpdate:  mu: -0.098941294  nElectrons: 9.000000
	SubspaceRotationAdjust: set factor to 0.345
ElecMinimize: Iter:  84  F: -20.132556942289476  |grad|_K:  6.372e-07  alpha:  5.137e-01  linmin:  3.215e-03  t[s]:    231.76
ElecMinimize: 	Bad step direction: g.d > 0.
ElecMinimize: 	Undoing step.
ElecMinimize: 	Step failed: resetting search direction.
	FillingsUpdate:  mu: -0.098941294  nElectrons: 9.000000
	SubspaceRotationAdjust: set factor to 0.263
ElecMinimize: Iter:  85  F: -20.132556942289469  |grad|_K:  5.568e-07  alpha:  0.000e+00
	FillingsUpdate:  mu: -0.098638122  nElectrons: 9.000000
	SubspaceRotationAdjust: set factor to 0.341
ElecMinimize: Iter:  86  F: -20.132557919347281  |grad|_K:  1.678e-07  alpha:  4.390e-01  linmin: -4.586e-02  t[s]:    235.76
	FillingsUpdate:  mu: -0.098573335  nElectrons: 9.000000
	SubspaceRotationAdjust: set factor to 0.403
ElecMinimize: Iter:  87  F: -20.132558162172352  |grad|_K:  7.899e-08  alpha:  9.051e-01  linmin: -1.094e-02  t[s]:    238.13
	FillingsUpdate:  mu: -0.098527205  nElectrons: 9.000000
	SubspaceRotationAdjust: set factor to 0.405
ElecMinimize: Iter:  88  F: -20.132558271845447  |grad|_K:  1.052e-07  alpha:  2.005e+00  linmin: -7.127e-06  t[s]:    240.49
	FillingsUpdate:  mu: -0.098512786  nElectrons: 9.000000
	SubspaceRotationAdjust: set factor to 0.41
ElecMinimize: Iter:  89  F: -20.132558326738391  |grad|_K:  8.633e-08  alpha:  3.759e-01  linmin: -6.220e-03  t[s]:    242.88
	FillingsUpdate:  mu: -0.098506098  nElectrons: 9.000000
	SubspaceRotationAdjust: set factor to 0.428
ElecMinimize: Iter:  90  F: -20.132558405264280  |grad|_K:  9.527e-08  alpha:  8.039e-01  linmin:  1.374e-04  t[s]:    245.25
	FillingsUpdate:  mu: -0.098516478  nElectrons: 9.000000
	SubspaceRotationAdjust: set factor to 0.464
ElecMinimize: Iter:  91  F: -20.132558465524532  |grad|_K:  1.224e-07  alpha:  8.773e-01  linmin:  4.543e-05  t[s]:    247.64
	FillingsUpdate:  mu: -0.098537477  nElectrons: 9.000000
	SubspaceRotationAdjust: set factor to 0.513
ElecMinimize: Iter:  92  F: -20.132558526475645  |grad|_K:  1.115e-07  alpha:  5.299e-01  linmin: -6.932e-06  t[s]:    250.00
	FillingsUpdate:  mu: -0.098552250  nElectrons: 9.000000
	SubspaceRotationAdjust: set factor to 0.544
ElecMinimize: Iter:  93  F: -20.132558579339602  |grad|_K:  1.062e-07  alpha:  5.482e-01  linmin: -6.690e-05  t[s]:    252.38
	FillingsUpdate:  mu: -0.098548237  nElectrons: 9.000000
	SubspaceRotationAdjust: set factor to 0.575
ElecMinimize: Iter:  94  F: -20.132558624627723  |grad|_K:  8.384e-08  alpha:  5.116e-01  linmin: -5.272e-06  t[s]:    254.74
	FillingsUpdate:  mu: -0.098535083  nElectrons: 9.000000
	SubspaceRotationAdjust: set factor to 0.617
ElecMinimize: Iter:  95  F: -20.132558648155985  |grad|_K:  5.951e-08  alpha:  4.321e-01  linmin:  1.351e-06  t[s]:    257.12
	FillingsUpdate:  mu: -0.098522273  nElectrons: 9.000000
	SubspaceRotationAdjust: set factor to 0.654
ElecMinimize: Iter:  96  F: -20.132558660895285  |grad|_K:  4.882e-08  alpha:  4.652e-01  linmin:  2.274e-06  t[s]:    259.49
	FillingsUpdate:  mu: -0.098512172  nElectrons: 9.000000
	SubspaceRotationAdjust: set factor to 0.666
ElecMinimize: Iter:  97  F: -20.132558671057172  |grad|_K:  4.561e-08  alpha:  5.518e-01  linmin:  9.650e-06  t[s]:    261.89
	FillingsUpdate:  mu: -0.098509276  nElectrons: 9.000000
	SubspaceRotationAdjust: set factor to 0.69
ElecMinimize: Iter:  98  F: -20.132558679090483  |grad|_K:  3.754e-08  alpha:  5.004e-01  linmin:  6.688e-07  t[s]:    264.21
	FillingsUpdate:  mu: -0.098514098  nElectrons: 9.000000
	SubspaceRotationAdjust: set factor to 0.746
ElecMinimize: Iter:  99  F: -20.132558684530288  |grad|_K:  3.515e-08  alpha:  4.989e-01  linmin: -1.497e-06  t[s]:    266.56
	FillingsUpdate:  mu: -0.098523182  nElectrons: 9.000000
	SubspaceRotationAdjust: set factor to 0.777
ElecMinimize: Iter: 100  F: -20.132558691247812  |grad|_K:  4.087e-08  alpha:  7.002e-01  linmin: -9.948e-06  t[s]:    268.93
	FillingsUpdate:  mu: -0.098527734  nElectrons: 9.000000
	SubspaceRotationAdjust: set factor to 0.802
ElecMinimize: Iter: 101  F: -20.132558698124253  |grad|_K:  3.173e-08  alpha:  5.291e-01  linmin: -4.831e-07  t[s]:    271.28
ElecMinimize: Converged (|Delta F|<1.000000e-08 for 4 iters).
Setting wave functions to eigenvectors of Hamiltonian

# Ionic positions in lattice coordinates:
ion Cs   0.000000000000000   0.000000000000000   0.000000000000000 0

# Forces in Lattice coordinates:
force Cs   0.000000000000000  -0.000000000000000   0.000000000000000 0

# Energy components:
   Eewald =      -26.9373523885562101
       EH =      -11.0209408170011862
     Eloc =       12.2864864669195111
      Enl =        3.4341238345780569
   Epulay =        0.0000000117222202
      Exc =       -3.2494461279574054
       KE =        5.3545704041040665
-------------------------------------
     Etot =      -20.1325586161909449
       TS =        0.0000000819333078
-------------------------------------
        F =      -20.1325586981242530

IonicMinimize: Iter:   0  F: -20.132558698124253  |grad|_K:  0.000e+00  t[s]:    271.51
IonicMinimize: Converged (|grad|_K<1.000000e-04).

#--- Lowdin population analysis ---
# oxidation-state Cs +0.641

End date and time: Sun Jan 16 16:37:44 2022  (Duration: 0-0:04:31.57)
Done!
