1.25
--------------------------------------------------------------------------
The library attempted to open the following supporting CUDA libraries,
but each of them failed.  CUDA-aware support is disabled.
libcuda.so.1: cannot open shared object file: No such file or directory
libcuda.dylib: cannot open shared object file: No such file or directory
/usr/lib64/libcuda.so.1: cannot open shared object file: No such file or directory
/usr/lib64/libcuda.dylib: cannot open shared object file: No such file or directory
If you are not interested in CUDA-aware support, then run with
--mca opal_warn_on_missing_libcuda 0 to suppress this message.  If you are interested
in CUDA-aware support, then try setting LD_LIBRARY_PATH to the location
of libcuda.so.1 to get passed this issue.
--------------------------------------------------------------------------
--------------------------------------------------------------------------
No OpenFabrics connection schemes reported that they were able to be
used on a specific port.  As such, the openib BTL (OpenFabrics
support) will be disabled for this port.

  Local host:           d-4-4-1
  Local device:         mlx5_1
  Local port:           1
  CPCs attempted:       rdmacm, udcm
--------------------------------------------------------------------------

*************** JDFTx 1.6.0 (git hash 42ebbcc2) ***************

Start date and time: Sun Jan 16 16:32:40 2022
Executable jdftx with command-line: -i Cesium.in
Running on hosts (process indices):  d-4-4-1 (0-18)
Divided in process groups (process indices):  0 (0)  1 (1)  2 (2)  3 (3)  4 (4)  5 (5)  6 (6)  7 (7)  8 (8)  9 (9)  10 (10)  11 (11)  12 (12)  13 (13)  14 (14)  15 (15)  16 (16)  17 (17)  18 (18)
Resource initialization completed at t[s]:      0.00
Run totals: 19 processes, 48 threads, 0 GPUs


Input parsed successfully to the following command list (including defaults):

basis kpoint-dependent
coords-type Lattice
core-overlap-check vector
coulomb-interaction Slab 001
davidson-band-ratio 1.1
dump End None
dump-name $INPUT.$VAR
elec-cutoff 20
elec-eigen-algo Davidson
elec-ex-corr gga-PBE
elec-smearing Fermi 1e-05
electronic-minimize  \
	dirUpdateScheme      FletcherReeves \
	linminMethod         DirUpdateRecommended \
	nIterations          10000 \
	history              15 \
	knormThreshold       0 \
	energyDiffThreshold  1e-08 \
	nEnergyDiff          4 \
	alphaTstart          1 \
	alphaTmin            1e-10 \
	updateTestStepSize   yes \
	alphaTreduceFactor   0.1 \
	alphaTincreaseFactor 3 \
	nAlphaAdjustMax      3 \
	wolfeEnergy          0.0001 \
	wolfeGradient        0.9 \
	fdTest               no
exchange-regularization WignerSeitzTruncated
fluid None
fluid-ex-corr (null) lda-PZ
fluid-gummel-loop 10 1.000000e-05
fluid-minimize  \
	dirUpdateScheme      PolakRibiere \
	linminMethod         DirUpdateRecommended \
	nIterations          100 \
	history              15 \
	knormThreshold       0 \
	energyDiffThreshold  0 \
	nEnergyDiff          2 \
	alphaTstart          1 \
	alphaTmin            1e-10 \
	updateTestStepSize   yes \
	alphaTreduceFactor   0.1 \
	alphaTincreaseFactor 3 \
	nAlphaAdjustMax      3 \
	wolfeEnergy          0.0001 \
	wolfeGradient        0.9 \
	fdTest               no
fluid-solvent H2O 55.338 ScalarEOS \
	epsBulk 78.4 \
	pMol 0.92466 \
	epsInf 1.77 \
	Pvap 1.06736e-10 \
	sigmaBulk 4.62e-05 \
	Rvdw 2.61727 \
	Res 1.42 \
	tauNuc 343133 \
	poleEl 15 7 1
forces-output-coords Positions
ion Cs   0.000000000000000   0.000000000000000   0.000000000000000 0
ion-species SG15/$ID_ONCV_PBE.upf
ion-width 0
ionic-minimize  \
	dirUpdateScheme      L-BFGS \
	linminMethod         DirUpdateRecommended \
	nIterations          0 \
	history              15 \
	knormThreshold       0.0001 \
	energyDiffThreshold  1e-06 \
	nEnergyDiff          2 \
	alphaTstart          1 \
	alphaTmin            1e-10 \
	updateTestStepSize   yes \
	alphaTreduceFactor   0.1 \
	alphaTincreaseFactor 3 \
	nAlphaAdjustMax      3 \
	wolfeEnergy          0.0001 \
	wolfeGradient        0.9 \
	fdTest               no
kpoint   0.000000000000   0.000000000000   0.000000000000  1.00000000000000
kpoint-folding 48 48 1 
latt-move-scale 1 1 1
latt-scale 1.25 1.25 1 
lattice  \
	   4.727486978767153   -2.363743489383575    0.000000000000000  \
	  -0.000000000000000    4.094123819672498    0.000000000000000  \
	   0.000000000000000    0.000000000000000   40.000000000000000 
lattice-minimize  \
	dirUpdateScheme      L-BFGS \
	linminMethod         DirUpdateRecommended \
	nIterations          0 \
	history              15 \
	knormThreshold       0 \
	energyDiffThreshold  1e-06 \
	nEnergyDiff          2 \
	alphaTstart          1 \
	alphaTmin            1e-10 \
	updateTestStepSize   yes \
	alphaTreduceFactor   0.1 \
	alphaTincreaseFactor 3 \
	nAlphaAdjustMax      3 \
	wolfeEnergy          0.0001 \
	wolfeGradient        0.9 \
	fdTest               no
lcao-params -1 1e-06 1e-05
pcm-variant GLSSA13
spintype no-spin
subspace-rotation-factor 1 yes
symmetries automatic
symmetry-threshold 0.0001



---------- Setting up symmetries ----------

Found 24 point-group symmetries of the bravais lattice
Found 24 space-group symmetries with basis
Applied RMS atom displacement 0 bohrs to make symmetries exact.

---------- Initializing the Grid ----------
R = 
[      5.90936     -2.95468            0  ]
[            0      5.11765            0  ]
[            0            0           40  ]
unit cell volume = 1209.68
G =
[    1.06326   0.613874         -0  ]
[          0    1.22775         -0  ]
[         -0         -0    0.15708  ]
Minimum fftbox size, Smin = [  24  24  164  ]
Chosen fftbox size, S = [  24  24  168  ]

---------- Exchange Correlation functional ----------
Initalized PBE GGA exchange.
Initalized PBE GGA correlation.

---------- Setting up pseudopotentials ----------
Width of ionic core gaussian charges (only for fluid interactions / plotting) set to 0

Reading pseudopotential file '/home/gridsan/aligho/DFT/build-Nov24/pseudopotentials/SG15/Cs_ONCV_PBE.upf':
  'Cs' pseudopotential, 'PBE' functional
  Generated using ONCVPSP code by D. R. Hamann
  Author: Martin Schlipf and Francois Gygi  Date: 150915.
  9 valence electrons, 3 orbitals, 6 projectors, 2414 radial grid points, with lMax = 2
  Transforming local potential to a uniform radial grid of dG=0.02 with 1442 points.
  Transforming nonlocal projectors to a uniform radial grid of dG=0.02 with 432 points.
    5S    l: 0   occupation:  2.0   eigenvalue: -0.982388
    5P    l: 1   occupation:  6.0   eigenvalue: -0.496786
    6S    l: 0   occupation:  1.0   eigenvalue: -0.076670
  Transforming atomic orbitals to a uniform radial grid of dG=0.02 with 432 points.
  Core radius for overlap checks: 2.06 bohrs.
  Reading pulay file /home/gridsan/aligho/DFT/build-Nov24/pseudopotentials/SG15/Cs_ONCV_PBE.pulay ... using dE_dnG = -1.008762e-04 computed for Ecut = 20.

Initialized 1 species with 1 total atoms.

Folded 1 k-points by 48x48x1 to 2304 k-points.

---------- Setting up k-points, bands, fillings ----------
Reduced to 217 k-points under symmetry. 
Computing the number of bands and number of electrons
Calculating initial fillings.
nElectrons:   9.000000   nBands: 6   nStates: 217

----- Setting up reduced wavefunction bases (one per k-point) -----
average nbasis = 5168.033 , ideal nbasis = 5167.855

---------- Setting up coulomb interaction ----------
Initialized slab truncation along lattice direction 001

---------- Setting up 2D ewald sum ----------
Optimum gaussian width for ewald sums = 3.280637 bohr.
Real space sums over 289 unit cells with max indices [  8  8  0  ]
Reciprocal space sums over 81 terms with max indices [  4  4  0  ]

---------- Allocating electronic variables ----------
Initializing wave functions:  linear combination of atomic orbitals
Note: number of bands (6) exceeds available atomic orbitals (5)
Cs pseudo-atom occupations:   s ( 2 1 )  p ( 6 )
	FillingsUpdate:  mu: -0.121658261  nElectrons: 9.000000
LCAOMinimize: Iter:   0  F: -19.9947890726063662  |grad|_K:  1.331e-04  alpha:  1.000e+00
	FillingsUpdate:  mu: -0.120932163  nElectrons: 9.000000
LCAOMinimize: Iter:   1  F: -19.9948507165221798  |grad|_K:  9.306e-06  alpha:  9.055e-01  linmin: -5.193e-02  cgtest:  1.134e+00  t[s]:      3.61
LCAOMinimize: Encountered beta<0, resetting CG.
[d-4-4-1:18330] 18 more processes have sent help message help-mpi-common-cuda.txt / dlopen failed
[d-4-4-1:18330] Set MCA parameter "orte_base_help_aggregate" to 0 to see all help / error messages
[d-4-4-1:18330] 18 more processes have sent help message help-mpi-btl-openib-cpc-base.txt / no cpcs for port
	FillingsUpdate:  mu: -0.120882061  nElectrons: 9.000000
LCAOMinimize: Iter:   2  F: -19.9948510481665522  |grad|_K:  1.368e-07  alpha:  9.793e-01  linmin: -3.285e-02  cgtest:  6.068e-01  t[s]:      4.87
LCAOMinimize: Encountered beta<0, resetting CG.
	FillingsUpdate:  mu: -0.120881731  nElectrons: 9.000000
LCAOMinimize: Iter:   3  F: -19.9948510482389921  |grad|_K:  1.192e-09  alpha:  9.904e-01  linmin: -3.709e-02  cgtest:  4.843e-01  t[s]:      6.10
LCAOMinimize: Encountered beta<0, resetting CG.
LCAOMinimize: Converged (|Delta F|<1.000000e-06 for 2 iters).


---- Citations for features of the code used in this run ----

   Software package:
      R. Sundararaman, K. Letchworth-Weaver, K.A. Schwarz, D. Gunceler, Y. Ozhabes and T.A. Arias, 'JDFTx: software for joint density-functional theory', SoftwareX 6, 278 (2017)

   gga-PBE exchange-correlation functional:
      J.P. Perdew, K. Burke and M. Ernzerhof, Phys. Rev. Lett. 77, 3865 (1996)

   Pseudopotentials:
      M Schlipf and F Gygi, Comput. Phys. Commun. 196, 36 (2015)

   Truncated Coulomb potentials:
      R. Sundararaman and T.A. Arias, Phys. Rev. B 87, 165122 (2013)

   Total energy minimization with Auxiliary Hamiltonian:
      C. Freysoldt, S. Boeck, and J. Neugebauer, Phys. Rev. B 79, 241103(R) (2009)

This list may not be complete. Please suggest additional citations or
report any other bugs at https://github.com/shankar1729/jdftx/issues

Initialization completed successfully at t[s]:      6.27


-------- Electronic minimization -----------
	FillingsUpdate:  mu: -0.120881731  nElectrons: 9.000000
ElecMinimize: Iter:   0  F: -19.994851048238946  |grad|_K:  7.246e-05  alpha:  1.000e+00
	FillingsUpdate:  mu: -0.123462010  nElectrons: 9.000000
	SubspaceRotationAdjust: set factor to 1
ElecMinimize: Iter:   1  F: -20.032810431666157  |grad|_K:  4.020e-05  alpha:  1.074e+00  linmin:  1.256e-04  t[s]:      8.94
ElecMinimize: 	Step increased F by 4.608094e-03, reducing alpha to 1.462090e-01.
	FillingsUpdate:  mu: -0.124666918  nElectrons: 9.000000
	SubspaceRotationAdjust: set factor to 1.03
ElecMinimize: Iter:   2  F: -20.035798395615533  |grad|_K:  3.610e-05  alpha:  1.462e-01  linmin: -5.617e-03  t[s]:     11.71
ElecMinimize: 	Predicted alpha/alphaT>3.000000, increasing alphaT to 4.386269e-01.
ElecMinimize: 	Step increased F by 2.752925e-02, reducing alpha to 8.350863e-02.
	FillingsUpdate:  mu: -0.129190134  nElectrons: 9.000000
	SubspaceRotationAdjust: set factor to 1.14
ElecMinimize: Iter:   3  F: -20.038517073868270  |grad|_K:  3.336e-05  alpha:  8.351e-02  linmin: -6.060e-03  t[s]:     14.96
ElecMinimize: 	Predicted alpha/alphaT>3.000000, increasing alphaT to 2.505259e-01.
ElecMinimize: 	Step increased F by 1.340129e-02, reducing alpha to 4.945414e-02.
	FillingsUpdate:  mu: -0.133439727  nElectrons: 9.000000
	SubspaceRotationAdjust: set factor to 1.21
ElecMinimize: Iter:   4  F: -20.040395680366963  |grad|_K:  2.957e-05  alpha:  4.945e-02  linmin: -5.969e-03  t[s]:     18.22
ElecMinimize: 	Predicted alpha/alphaT>3.000000, increasing alphaT to 1.483624e-01.
ElecMinimize: 	Predicted alpha/alphaT>3.000000, increasing alphaT to 4.450873e-01.
	FillingsUpdate:  mu: -0.141729626  nElectrons: 9.000000
	SubspaceRotationAdjust: set factor to 1.32
ElecMinimize: Iter:   5  F: -20.043341868907504  |grad|_K:  2.552e-05  alpha:  8.034e-02  linmin: -6.029e-03  t[s]:     20.90
ElecMinimize: 	Predicted alpha/alphaT>3.000000, increasing alphaT to 2.410215e-01.
ElecMinimize: 	Wrong curvature in test step, increasing alphaT to 7.230645e-01.
	FillingsUpdate:  mu: -0.136754807  nElectrons: 9.000000
	SubspaceRotationAdjust: set factor to 1.48
ElecMinimize: Iter:   6  F: -20.052010116154619  |grad|_K:  2.988e-05  alpha: -1.682e+00  linmin: -1.642e-03  t[s]:     22.94
	FillingsUpdate:  mu: -0.134484969  nElectrons: 9.000000
	SubspaceRotationAdjust: set factor to 1.6
ElecMinimize: Iter:   7  F: -20.052328761111330  |grad|_K:  3.140e-05  alpha:  5.475e-03  linmin: -2.340e-03  t[s]:     24.61
ElecMinimize: 	Predicted alpha/alphaT>3.000000, increasing alphaT to 1.642557e-02.
	FillingsUpdate:  mu: -0.134461306  nElectrons: 9.000000
	SubspaceRotationAdjust: set factor to 1.74
ElecMinimize: Iter:   8  F: -20.052372958463490  |grad|_K:  3.157e-05  alpha:  9.780e-04  linmin: -3.169e-03  t[s]:     26.76
ElecMinimize: 	Predicted alpha/alphaT>3.000000, increasing alphaT to 2.933964e-03.
ElecMinimize: 	Predicted alpha/alphaT>3.000000, increasing alphaT to 8.801891e-03.
	FillingsUpdate:  mu: -0.133493987  nElectrons: 9.000000
	SubspaceRotationAdjust: set factor to 1.9
ElecMinimize: Iter:   9  F: -20.052417070524282  |grad|_K:  3.230e-05  alpha:  1.209e-03  linmin: -3.550e-03  t[s]:     29.46
ElecMinimize: 	Wrong curvature in test step, increasing alphaT to 3.627870e-03.
	FillingsUpdate:  mu: -0.133479563  nElectrons: 9.000000
	SubspaceRotationAdjust: set factor to 2.09
ElecMinimize: Iter:  10  F: -20.052508598333617  |grad|_K:  3.245e-05  alpha: -1.059e-02  linmin: -4.437e-03  t[s]:     30.97
ElecMinimize: 	Step increased F by 5.748147e-03, reducing alpha to 1.787505e-03.
	FillingsUpdate:  mu: -0.133474642  nElectrons: 9.000000
	SubspaceRotationAdjust: set factor to 2.32
ElecMinimize: Iter:  11  F: -20.052670435981163  |grad|_K:  3.263e-05  alpha:  1.788e-03  linmin: -4.989e-03  t[s]:     33.73
ElecMinimize: 	Wrong curvature in test step, increasing alphaT to 5.362514e-03.
	FillingsUpdate:  mu: -0.133474840  nElectrons: 9.000000
	SubspaceRotationAdjust: set factor to 2.87
ElecMinimize: Iter:  12  F: -20.052861694074508  |grad|_K:  3.511e-05  alpha: -8.103e-02  linmin: -6.591e-03  t[s]:     35.26
ElecMinimize: 	Step increased F by 1.193093e-02, reducing alpha to 2.605320e-03.
ElecMinimize: 	Step increased F by 1.486780e-03, reducing alpha to 2.605320e-04.
	FillingsUpdate:  mu: -0.133424077  nElectrons: 9.000000
	SubspaceRotationAdjust: set factor to 2.33
ElecMinimize: Iter:  13  F: -20.052903325603584  |grad|_K:  4.958e-05  alpha:  2.605e-04  linmin:  5.031e-03  t[s]:     39.13
ElecMinimize: 	Bad step direction: g.d > 0.
ElecMinimize: 	Undoing step.
ElecMinimize: 	Step failed: resetting search direction.
	FillingsUpdate:  mu: -0.133424077  nElectrons: 9.000000
	SubspaceRotationAdjust: set factor to 2.06
ElecMinimize: Iter:  14  F: -20.052903325603598  |grad|_K:  4.660e-05  alpha:  0.000e+00
ElecMinimize: 	Predicted alpha/alphaT>3.000000, increasing alphaT to 7.815960e-04.
	FillingsUpdate:  mu: -0.133426175  nElectrons: 9.000000
	SubspaceRotationAdjust: set factor to 2.89
ElecMinimize: Iter:  15  F: -20.052932795905928  |grad|_K:  3.819e-05  alpha:  1.439e-03  linmin: -8.922e-03  t[s]:     42.46
ElecMinimize: 	Wrong curvature in test step, increasing alphaT to 4.318267e-03.
	FillingsUpdate:  mu: -0.133351553  nElectrons: 9.000000
	SubspaceRotationAdjust: set factor to 2.47
ElecMinimize: Iter:  16  F: -20.052990031421530  |grad|_K:  4.759e-05  alpha: -3.827e-03  linmin: -7.529e-03  t[s]:     43.98
	FillingsUpdate:  mu: -0.135086533  nElectrons: 9.000000
	SubspaceRotationAdjust: set factor to 3.3
ElecMinimize: Iter:  17  F: -20.056619353343955  |grad|_K:  2.800e-05  alpha:  7.005e-02  linmin: -1.087e-02  t[s]:     45.64
ElecMinimize: 	Predicted alpha/alphaT>3.000000, increasing alphaT to 2.101390e-01.
ElecMinimize: 	Predicted alpha/alphaT>3.000000, increasing alphaT to 6.304171e-01.
	FillingsUpdate:  mu: -0.135635677  nElectrons: 9.000000
	SubspaceRotationAdjust: set factor to 4.05
ElecMinimize: Iter:  18  F: -20.058479043095755  |grad|_K:  2.611e-05  alpha:  7.144e-02  linmin: -1.194e-02  t[s]:     48.30
ElecMinimize: 	Wrong curvature in test step, increasing alphaT to 2.143247e-01.
	FillingsUpdate:  mu: -0.134328990  nElectrons: 9.000000
	SubspaceRotationAdjust: set factor to 5
ElecMinimize: Iter:  19  F: -20.060701262183564  |grad|_K:  2.495e-05  alpha: -1.166e+00  linmin: -1.192e-02  t[s]:     49.83
	FillingsUpdate:  mu: -0.133609191  nElectrons: 9.000000
	SubspaceRotationAdjust: set factor to 5.09
ElecMinimize: Iter:  20  F: -20.062747469272399  |grad|_K:  2.493e-05  alpha:  6.015e-02  linmin: -9.945e-03  t[s]:     51.49
ElecMinimize: 	Step increased F by 2.552259e-03, reducing alpha to 1.541321e-02.
	FillingsUpdate:  mu: -0.133432166  nElectrons: 9.000000
	SubspaceRotationAdjust: set factor to 5.18
ElecMinimize: Iter:  21  F: -20.063375942273566  |grad|_K:  2.569e-05  alpha:  1.541e-02  linmin: -1.069e-02  t[s]:     54.26
ElecMinimize: 	Predicted alpha/alphaT>3.000000, increasing alphaT to 4.623962e-02.
	FillingsUpdate:  mu: -0.135144195  nElectrons: 9.000000
	SubspaceRotationAdjust: set factor to 5.1
ElecMinimize: Iter:  22  F: -20.063769441903109  |grad|_K:  5.476e-05  alpha:  1.072e-01  linmin: -4.238e-03  t[s]:     56.42
ElecMinimize: 	Step increased F by 3.722798e-03, reducing alpha to 1.034892e-03.
	FillingsUpdate:  mu: -0.135324172  nElectrons: 9.000000
	SubspaceRotationAdjust: set factor to 4.89
ElecMinimize: Iter:  23  F: -20.063918903879308  |grad|_K:  5.560e-05  alpha:  1.035e-03  linmin: -5.494e-03  t[s]:     59.19
	FillingsUpdate:  mu: -0.133227774  nElectrons: 9.000000
	SubspaceRotationAdjust: set factor to 4.58
ElecMinimize: Iter:  24  F: -20.063958392690292  |grad|_K:  5.749e-05  alpha:  2.136e-03  linmin: -6.567e-03  t[s]:     60.85
ElecMinimize: 	Step increased F by 5.908922e-05, reducing alpha to 4.612183e-05.
	FillingsUpdate:  mu: -0.133230503  nElectrons: 9.000000
	SubspaceRotationAdjust: set factor to 4.42
ElecMinimize: Iter:  25  F: -20.063968723626889  |grad|_K:  5.655e-05  alpha:  4.612e-05  linmin: -8.560e-03  t[s]:     63.61
ElecMinimize: 	Predicted alpha/alphaT>3.000000, increasing alphaT to 1.383655e-04.
ElecMinimize: 	Predicted alpha/alphaT>3.000000, increasing alphaT to 4.150964e-04.
	FillingsUpdate:  mu: -0.133228843  nElectrons: 9.000000
	SubspaceRotationAdjust: set factor to 4.34
ElecMinimize: Iter:  26  F: -20.064004593938506  |grad|_K:  5.613e-05  alpha:  1.384e-04  linmin: -1.068e-02  t[s]:     66.30
ElecMinimize: 	Predicted alpha/alphaT>3.000000, increasing alphaT to 4.151713e-04.
	FillingsUpdate:  mu: -0.133303419  nElectrons: 9.000000
	SubspaceRotationAdjust: set factor to 2.47
ElecMinimize: Iter:  27  F: -20.064033413396491  |grad|_K:  1.133e-04  alpha:  1.585e-04  linmin:  1.218e-02  t[s]:     68.47
ElecMinimize: 	Bad step direction: g.d > 0.
ElecMinimize: 	Undoing step.
ElecMinimize: 	Step failed: resetting search direction.
	FillingsUpdate:  mu: -0.133303419  nElectrons: 9.000000
	SubspaceRotationAdjust: set factor to 1.53
ElecMinimize: Iter:  28  F: -20.064033413396483  |grad|_K:  8.925e-05  alpha:  0.000e+00
ElecMinimize: 	Predicted alpha/alphaT>3.000000, increasing alphaT to 4.754524e-04.
	FillingsUpdate:  mu: -0.133191210  nElectrons: 9.000000
	SubspaceRotationAdjust: set factor to 2.37
ElecMinimize: Iter:  29  F: -20.064072034607129  |grad|_K:  4.771e-05  alpha:  6.419e-04  linmin: -3.962e-02  t[s]:     71.81
ElecMinimize: 	Predicted alpha/alphaT>3.000000, increasing alphaT to 1.925566e-03.
ElecMinimize: 	Predicted alpha/alphaT>3.000000, increasing alphaT to 5.776697e-03.
ElecMinimize: 	Predicted alpha/alphaT>3.000000, increasing alphaT to 1.733009e-02.
	FillingsUpdate:  mu: -0.133376360  nElectrons: 9.000000
	SubspaceRotationAdjust: set factor to 2.88
ElecMinimize: Iter:  30  F: -20.065529858923171  |grad|_K:  4.811e-05  alpha:  3.247e-02  linmin: -4.280e-02  t[s]:     74.47
ElecMinimize: 	Predicted alpha/alphaT>3.000000, increasing alphaT to 9.739617e-02.
ElecMinimize: 	Predicted alpha/alphaT>3.000000, increasing alphaT to 2.921885e-01.
	FillingsUpdate:  mu: -0.135945967  nElectrons: 9.000000
	SubspaceRotationAdjust: set factor to 1.72
ElecMinimize: Iter:  31  F: -20.073032597163472  |grad|_K:  2.673e-05  alpha:  2.221e-01  linmin:  1.430e-03  t[s]:     77.13
ElecMinimize: 	Predicted alpha/alphaT>3.000000, increasing alphaT to 6.662761e-01.
ElecMinimize: 	Predicted alpha/alphaT>3.000000, increasing alphaT to 1.998828e+00.
	FillingsUpdate:  mu: -0.113399392  nElectrons: 9.000000
	SubspaceRotationAdjust: set factor to 1.86
ElecMinimize: Iter:  32  F: -20.082435477190206  |grad|_K:  4.189e-05  alpha:  1.638e+00  linmin: -6.855e-04  t[s]:     79.82
	FillingsUpdate:  mu: -0.102604451  nElectrons: 9.000000
	SubspaceRotationAdjust: set factor to 2.24
ElecMinimize: Iter:  33  F: -20.085590168353722  |grad|_K:  4.168e-05  alpha:  1.817e-01  linmin: -8.933e-03  t[s]:     81.48
	FillingsUpdate:  mu: -0.101004770  nElectrons: 9.000000
	SubspaceRotationAdjust: set factor to 2.28
ElecMinimize: Iter:  34  F: -20.089122431351001  |grad|_K:  2.913e-05  alpha:  2.818e-01  linmin:  6.499e-03  t[s]:     83.16
	FillingsUpdate:  mu: -0.103622474  nElectrons: 9.000000
	SubspaceRotationAdjust: set factor to 2.73
ElecMinimize: Iter:  35  F: -20.089668205476539  |grad|_K:  3.245e-05  alpha:  7.541e-02  linmin:  3.317e-03  t[s]:     84.81
ElecMinimize: 	Wrong curvature in test step, increasing alphaT to 2.262385e-01.
	FillingsUpdate:  mu: -0.107503095  nElectrons: 9.000000
	SubspaceRotationAdjust: set factor to 3.17
ElecMinimize: Iter:  36  F: -20.091177845008691  |grad|_K:  3.138e-05  alpha: -1.228e-02  linmin: -5.701e-04  t[s]:     86.35
	FillingsUpdate:  mu: -0.116250906  nElectrons: 9.000000
	SubspaceRotationAdjust: set factor to 3.8
ElecMinimize: Iter:  37  F: -20.093533188714883  |grad|_K:  3.087e-05  alpha:  9.454e-02  linmin: -2.960e-03  t[s]:     88.01
	FillingsUpdate:  mu: -0.118906642  nElectrons: 9.000000
	SubspaceRotationAdjust: set factor to 4.8
ElecMinimize: Iter:  38  F: -20.094212312150258  |grad|_K:  3.093e-05  alpha:  7.121e-02  linmin: -9.861e-03  t[s]:     89.67
	FillingsUpdate:  mu: -0.117073167  nElectrons: 9.000000
	SubspaceRotationAdjust: set factor to 3.19
ElecMinimize: Iter:  39  F: -20.095313145193490  |grad|_K:  4.139e-05  alpha:  1.186e-01  linmin:  1.867e-03  t[s]:     91.33
	FillingsUpdate:  mu: -0.112745720  nElectrons: 9.000000
	SubspaceRotationAdjust: set factor to 1.83
ElecMinimize: Iter:  40  F: -20.095385434841887  |grad|_K:  5.587e-05  alpha:  5.187e-02  linmin: -2.376e-03  t[s]:     92.99
	FillingsUpdate:  mu: -0.109203642  nElectrons: 9.000000
	SubspaceRotationAdjust: set factor to 2.36
ElecMinimize: Iter:  41  F: -20.095957590949489  |grad|_K:  2.676e-05  alpha:  2.484e-02  linmin: -1.399e-03  t[s]:     94.66
ElecMinimize: 	Wrong curvature in test step, increasing alphaT to 7.450763e-02.
	FillingsUpdate:  mu: -0.108062685  nElectrons: 9.000000
	SubspaceRotationAdjust: set factor to 3.04
ElecMinimize: Iter:  42  F: -20.096356525475343  |grad|_K:  2.551e-05  alpha: -4.450e-02  linmin: -8.767e-03  t[s]:     96.19
	FillingsUpdate:  mu: -0.097935122  nElectrons: 9.000000
	SubspaceRotationAdjust: set factor to 2.61
ElecMinimize: Iter:  43  F: -20.099973679035827  |grad|_K:  2.769e-05  alpha:  1.783e-01  linmin: -4.206e-02  t[s]:     97.88
	FillingsUpdate:  mu: -0.093796376  nElectrons: 9.000000
	SubspaceRotationAdjust: set factor to 3.09
ElecMinimize: Iter:  44  F: -20.101891379555518  |grad|_K:  1.952e-05  alpha:  8.706e-02  linmin: -3.149e-03  t[s]:     99.54
ElecMinimize: 	Step increased F by 3.126904e-05, reducing alpha to 3.472047e-03.
	FillingsUpdate:  mu: -0.093806038  nElectrons: 9.000000
	SubspaceRotationAdjust: set factor to 3.73
ElecMinimize: Iter:  45  F: -20.101918313717288  |grad|_K:  2.041e-05  alpha:  3.472e-03  linmin: -3.529e-03  t[s]:    102.29
	FillingsUpdate:  mu: -0.092906960  nElectrons: 9.000000
	SubspaceRotationAdjust: set factor to 2.4
ElecMinimize: Iter:  46  F: -20.101976712302047  |grad|_K:  3.744e-05  alpha:  7.368e-03  linmin:  2.033e-03  t[s]:    103.96
ElecMinimize: 	Bad step direction: g.d > 0.
ElecMinimize: 	Undoing step.
ElecMinimize: 	Step failed: resetting search direction.
	FillingsUpdate:  mu: -0.092906960  nElectrons: 9.000000
	SubspaceRotationAdjust: set factor to 1.74
ElecMinimize: Iter:  47  F: -20.101976712302047  |grad|_K:  3.187e-05  alpha:  0.000e+00
	FillingsUpdate:  mu: -0.093688693  nElectrons: 9.000000
	SubspaceRotationAdjust: set factor to 1.98
ElecMinimize: Iter:  48  F: -20.102051504289278  |grad|_K:  1.835e-05  alpha:  9.838e-03  linmin: -5.151e-03  t[s]:    106.79
ElecMinimize: 	Wrong curvature in test step, increasing alphaT to 2.951346e-02.
	FillingsUpdate:  mu: -0.093833672  nElectrons: 9.000000
	SubspaceRotationAdjust: set factor to 2.17
ElecMinimize: Iter:  49  F: -20.102123410764136  |grad|_K:  1.817e-05  alpha: -2.515e-02  linmin: -6.480e-03  t[s]:    108.31
	FillingsUpdate:  mu: -0.104599823  nElectrons: 9.000000
	SubspaceRotationAdjust: set factor to 1.83
ElecMinimize: Iter:  50  F: -20.103483815390710  |grad|_K:  1.221e-05  alpha:  1.463e-01  linmin: -4.541e-03  t[s]:    109.97
ElecMinimize: 	Predicted alpha/alphaT>3.000000, increasing alphaT to 4.387924e-01.
	FillingsUpdate:  mu: -0.107897091  nElectrons: 9.000000
	SubspaceRotationAdjust: set factor to 1.8
ElecMinimize: Iter:  51  F: -20.104140624310201  |grad|_K:  1.084e-05  alpha:  2.016e-01  linmin: -6.318e-03  t[s]:    112.13
	FillingsUpdate:  mu: -0.111508222  nElectrons: 9.000000
	SubspaceRotationAdjust: set factor to 1.94
ElecMinimize: Iter:  52  F: -20.104561716187227  |grad|_K:  1.215e-05  alpha:  2.269e-01  linmin: -1.424e-02  t[s]:    113.79
ElecMinimize: 	Wrong curvature in test step, increasing alphaT to 6.807676e-01.
	FillingsUpdate:  mu: -0.096563971  nElectrons: 9.000000
	SubspaceRotationAdjust: set factor to 2.14
ElecMinimize: Iter:  53  F: -20.105670934984914  |grad|_K:  1.185e-05  alpha: -4.491e+00  linmin: -1.845e-02  t[s]:    115.32
	FillingsUpdate:  mu: -0.086613608  nElectrons: 9.000000
	SubspaceRotationAdjust: set factor to 2.51
ElecMinimize: Iter:  54  F: -20.106392824160146  |grad|_K:  9.998e-06  alpha:  2.852e-01  linmin: -1.108e-02  t[s]:    116.98
ElecMinimize: 	Predicted alpha/alphaT>3.000000, increasing alphaT to 8.556705e-01.
	FillingsUpdate:  mu: -0.097594831  nElectrons: 9.000000
	SubspaceRotationAdjust: set factor to 2.66
ElecMinimize: Iter:  55  F: -20.107052740997155  |grad|_K:  8.211e-06  alpha:  2.752e-01  linmin: -5.659e-03  t[s]:    119.13
	FillingsUpdate:  mu: -0.104513140  nElectrons: 9.000000
	SubspaceRotationAdjust: set factor to 3.09
ElecMinimize: Iter:  56  F: -20.107204546183581  |grad|_K:  9.897e-06  alpha:  2.117e-01  linmin: -4.238e-03  t[s]:    120.82
	FillingsUpdate:  mu: -0.107923327  nElectrons: 9.000000
	SubspaceRotationAdjust: set factor to 3.47
ElecMinimize: Iter:  57  F: -20.107322240056682  |grad|_K:  8.978e-06  alpha:  1.132e-01  linmin: -9.074e-03  t[s]:    122.49
ElecMinimize: 	Predicted alpha/alphaT>3.000000, increasing alphaT to 3.395574e-01.
	FillingsUpdate:  mu: -0.105965412  nElectrons: 9.000000
	SubspaceRotationAdjust: set factor to 2.66
ElecMinimize: Iter:  58  F: -20.107580052136175  |grad|_K:  1.285e-05  alpha:  2.824e-01  linmin: -1.398e-03  t[s]:    124.67
ElecMinimize: 	Step increased F by 1.528660e-04, reducing alpha to 5.961748e-03.
	FillingsUpdate:  mu: -0.106022336  nElectrons: 9.000000
	SubspaceRotationAdjust: set factor to 3.24
ElecMinimize: Iter:  59  F: -20.107588168148137  |grad|_K:  8.258e-06  alpha:  5.962e-03  linmin: -1.681e-03  t[s]:    127.43
ElecMinimize: 	Wrong curvature in test step, increasing alphaT to 1.788525e-02.
	FillingsUpdate:  mu: -0.106091372  nElectrons: 9.000000
	SubspaceRotationAdjust: set factor to 2.54
ElecMinimize: Iter:  60  F: -20.107596481957316  |grad|_K:  1.258e-05  alpha: -2.043e-02  linmin: -9.484e-03  t[s]:    128.96
	FillingsUpdate:  mu: -0.098213286  nElectrons: 9.000000
	SubspaceRotationAdjust: set factor to 2.65
ElecMinimize: Iter:  61  F: -20.107775601002441  |grad|_K:  7.131e-06  alpha:  1.032e-01  linmin: -1.524e-03  t[s]:    130.62
ElecMinimize: 	Wrong curvature in test step, increasing alphaT to 3.094623e-01.
	FillingsUpdate:  mu: -0.101321911  nElectrons: 9.000000
	SubspaceRotationAdjust: set factor to 3.16
ElecMinimize: Iter:  62  F: -20.107896970058459  |grad|_K:  6.999e-06  alpha: -1.212e-01  linmin: -4.742e-03  t[s]:    132.16
	FillingsUpdate:  mu: -0.107907614  nElectrons: 9.000000
	SubspaceRotationAdjust: set factor to 3.34
ElecMinimize: Iter:  63  F: -20.108014073010537  |grad|_K:  6.521e-06  alpha:  1.085e-01  linmin: -2.921e-03  t[s]:    133.82
	FillingsUpdate:  mu: -0.109434403  nElectrons: 9.000000
	SubspaceRotationAdjust: set factor to 3.94
ElecMinimize: Iter:  64  F: -20.108141038938729  |grad|_K:  6.122e-06  alpha:  1.888e-01  linmin: -2.999e-03  t[s]:    135.50
	FillingsUpdate:  mu: -0.105580300  nElectrons: 9.000000
	SubspaceRotationAdjust: set factor to 4.57
ElecMinimize: Iter:  65  F: -20.108236069212865  |grad|_K:  7.328e-06  alpha:  2.908e-01  linmin:  3.317e-03  t[s]:    137.15
ElecMinimize: 	Step increased F by 1.964427e-05, reducing alpha to 4.910799e-03.
	FillingsUpdate:  mu: -0.105263846  nElectrons: 9.000000
	SubspaceRotationAdjust: set factor to 3.72
ElecMinimize: Iter:  66  F: -20.108240760507140  |grad|_K:  8.882e-06  alpha:  4.911e-03  linmin: -4.483e-03  t[s]:    139.90
	FillingsUpdate:  mu: -0.105067847  nElectrons: 9.000000
	SubspaceRotationAdjust: set factor to 4.38
ElecMinimize: Iter:  67  F: -20.108243778131111  |grad|_K:  6.013e-06  alpha:  2.821e-03  linmin: -1.120e-03  t[s]:    141.56
ElecMinimize: 	Predicted alpha/alphaT>3.000000, increasing alphaT to 8.463446e-03.
	FillingsUpdate:  mu: -0.104144533  nElectrons: 9.000000
	SubspaceRotationAdjust: set factor to 2.96
ElecMinimize: Iter:  68  F: -20.108246486802827  |grad|_K:  1.073e-05  alpha:  8.676e-03  linmin:  2.043e-04  t[s]:    143.73
ElecMinimize: 	Wrong curvature in test step, increasing alphaT to 2.602868e-02.
	FillingsUpdate:  mu: -0.102778799  nElectrons: 9.000000
	SubspaceRotationAdjust: set factor to 3.39
ElecMinimize: Iter:  69  F: -20.108259669641061  |grad|_K:  5.715e-06  alpha: -1.594e-02  linmin: -2.977e-03  t[s]:    145.25
	FillingsUpdate:  mu: -0.103856522  nElectrons: 9.000000
	SubspaceRotationAdjust: set factor to 3.13
ElecMinimize: Iter:  70  F: -20.108388995262661  |grad|_K:  7.022e-06  alpha:  1.175e-01  linmin: -6.807e-03  t[s]:    146.91
	FillingsUpdate:  mu: -0.106918751  nElectrons: 9.000000
	SubspaceRotationAdjust: set factor to 3.49
ElecMinimize: Iter:  71  F: -20.108485726454230  |grad|_K:  4.602e-06  alpha:  8.201e-02  linmin: -6.493e-03  t[s]:    148.58
ElecMinimize: 	Predicted alpha/alphaT>3.000000, increasing alphaT to 2.460305e-01.
	FillingsUpdate:  mu: -0.107733952  nElectrons: 9.000000
	SubspaceRotationAdjust: set factor to 4.29
ElecMinimize: Iter:  72  F: -20.108622029380921  |grad|_K:  5.247e-06  alpha:  3.666e-01  linmin:  5.575e-03  t[s]:    150.74
	FillingsUpdate:  mu: -0.107686909  nElectrons: 9.000000
	SubspaceRotationAdjust: set factor to 5.55
ElecMinimize: Iter:  73  F: -20.108626955183279  |grad|_K:  4.993e-06  alpha:  5.940e-02  linmin:  5.373e-04  t[s]:    152.40
ElecMinimize: 	Wrong curvature in test step, increasing alphaT to 1.781947e-01.
	FillingsUpdate:  mu: -0.104847585  nElectrons: 9.000000
	SubspaceRotationAdjust: set factor to 6.52
ElecMinimize: Iter:  74  F: -20.108674313793671  |grad|_K:  4.588e-06  alpha: -1.789e-02  linmin: -2.958e-04  t[s]:    153.92
	FillingsUpdate:  mu: -0.104722398  nElectrons: 9.000000
	SubspaceRotationAdjust: set factor to 7.05
ElecMinimize: Iter:  75  F: -20.108682200906010  |grad|_K:  4.323e-06  alpha:  2.750e-02  linmin: -8.233e-04  t[s]:    155.59
ElecMinimize: 	Wrong curvature in test step, increasing alphaT to 8.250108e-02.
	FillingsUpdate:  mu: -0.104799689  nElectrons: 9.000000
	SubspaceRotationAdjust: set factor to 7.16
ElecMinimize: Iter:  76  F: -20.108695695900938  |grad|_K:  4.067e-06  alpha: -1.288e-01  linmin: -1.055e-03  t[s]:    157.10
	FillingsUpdate:  mu: -0.104969167  nElectrons: 9.000000
	SubspaceRotationAdjust: set factor to 9.34
	SubspaceRotationAdjust: resetting CG because factor has changed by 9.33702
ElecMinimize: 	State modified externally: resetting search direction.
ElecMinimize: Iter:  77  F: -20.108711283893165  |grad|_K:  4.554e-06  alpha:  3.621e-02
	FillingsUpdate:  mu: -0.105458746  nElectrons: 9.000000
	SubspaceRotationAdjust: set factor to 9.33
ElecMinimize: Iter:  78  F: -20.108726106312496  |grad|_K:  3.620e-06  alpha:  7.212e-02  linmin: -3.719e-03  t[s]:    161.38
ElecMinimize: 	Predicted alpha/alphaT>3.000000, increasing alphaT to 2.163612e-01.
ElecMinimize: 	Step increased F by 1.652206e-04, reducing alpha to 5.429368e-02.
	FillingsUpdate:  mu: -0.104774319  nElectrons: 9.000000
	SubspaceRotationAdjust: set factor to 9.28
ElecMinimize: Iter:  79  F: -20.108741409135686  |grad|_K:  3.386e-06  alpha:  5.429e-02  linmin: -4.905e-03  t[s]:    164.64
ElecMinimize: 	Predicted alpha/alphaT>3.000000, increasing alphaT to 1.628810e-01.
	FillingsUpdate:  mu: -0.107931795  nElectrons: 9.000000
	SubspaceRotationAdjust: set factor to 7.45
ElecMinimize: Iter:  80  F: -20.108799805603581  |grad|_K:  4.367e-06  alpha:  4.362e-01  linmin: -3.419e-03  t[s]:    166.81
	FillingsUpdate:  mu: -0.105314797  nElectrons: 9.000000
	SubspaceRotationAdjust: set factor to 12.1
ElecMinimize: Iter:  81  F: -20.108865700362465  |grad|_K:  3.430e-06  alpha:  6.504e-02  linmin: -1.005e-02  t[s]:    168.48
	FillingsUpdate:  mu: -0.103170036  nElectrons: 9.000000
	SubspaceRotationAdjust: set factor to 13.1
ElecMinimize: Iter:  82  F: -20.108876516493261  |grad|_K:  3.087e-06  alpha:  5.717e-02  linmin: -2.117e-03  t[s]:    170.13
ElecMinimize: 	Predicted alpha/alphaT>3.000000, increasing alphaT to 1.715060e-01.
	FillingsUpdate:  mu: -0.102768434  nElectrons: 9.000000
	SubspaceRotationAdjust: set factor to 13.2
ElecMinimize: Iter:  83  F: -20.108892355551777  |grad|_K:  3.038e-06  alpha:  5.494e-02  linmin: -1.124e-03  t[s]:    172.31
ElecMinimize: 	Step increased F by 4.675601e-06, reducing alpha to 1.410761e-03.
	FillingsUpdate:  mu: -0.102836982  nElectrons: 9.000000
	SubspaceRotationAdjust: set factor to 15.6
ElecMinimize: Iter:  84  F: -20.108892892835485  |grad|_K:  3.053e-06  alpha:  1.411e-03  linmin: -1.852e-03  t[s]:    175.06
ElecMinimize: 	Predicted alpha/alphaT>3.000000, increasing alphaT to 4.232282e-03.
ElecMinimize: 	Predicted alpha/alphaT>3.000000, increasing alphaT to 1.269685e-02.
	FillingsUpdate:  mu: -0.102939820  nElectrons: 9.000000
	SubspaceRotationAdjust: set factor to 18.3
ElecMinimize: Iter:  85  F: -20.108894854228694  |grad|_K:  3.060e-06  alpha:  4.028e-03  linmin: -2.357e-03  t[s]:    177.73
	FillingsUpdate:  mu: -0.102998140  nElectrons: 9.000000
	SubspaceRotationAdjust: set factor to 24.4
ElecMinimize: Iter:  86  F: -20.108895229793056  |grad|_K:  3.363e-06  alpha:  5.502e-04  linmin: -4.188e-03  t[s]:    179.39
ElecMinimize: 	Wrong curvature in test step, increasing alphaT to 1.650748e-03.
	FillingsUpdate:  mu: -0.103624052  nElectrons: 9.000000
	SubspaceRotationAdjust: set factor to 25.8
ElecMinimize: Iter:  87  F: -20.108895931174477  |grad|_K:  3.138e-06  alpha: -1.984e-03  linmin: -3.370e-03  t[s]:    180.91
ElecMinimize: 	Step increased F by 2.924465e-06, reducing alpha to 8.852620e-04.
ElecMinimize: 	Step increased F by 3.805166e-06, reducing alpha to 8.852620e-05.
	FillingsUpdate:  mu: -0.103792233  nElectrons: 9.000000
	SubspaceRotationAdjust: set factor to 29.6
ElecMinimize: Iter:  88  F: -20.108895969496967  |grad|_K:  3.655e-06  alpha:  8.853e-05  linmin: -7.731e-04  t[s]:    184.76
	FillingsUpdate:  mu: -0.103837544  nElectrons: 9.000000
	SubspaceRotationAdjust: set factor to 27.2
ElecMinimize: Iter:  89  F: -20.108895972574242  |grad|_K:  4.068e-06  alpha:  1.815e-05  linmin: -2.755e-04  t[s]:    186.43
	FillingsUpdate:  mu: -0.103868359  nElectrons: 9.000000
	SubspaceRotationAdjust: set factor to 23.6
ElecMinimize: Iter:  90  F: -20.108895974062985  |grad|_K:  4.218e-06  alpha:  1.138e-05  linmin: -2.529e-06  t[s]:    188.09
	FillingsUpdate:  mu: -0.103893388  nElectrons: 9.000000
	SubspaceRotationAdjust: set factor to 20.1
ElecMinimize: Iter:  91  F: -20.108895975237129  |grad|_K:  4.267e-06  alpha:  9.755e-06  linmin:  5.381e-06  t[s]:    189.76
	FillingsUpdate:  mu: -0.103917659  nElectrons: 9.000000
	SubspaceRotationAdjust: set factor to 17
ElecMinimize: Iter:  92  F: -20.108895976474269  |grad|_K:  4.289e-06  alpha:  1.015e-05  linmin:  6.327e-06  t[s]:    191.42
ElecMinimize: Converged (|Delta F|<1.000000e-08 for 4 iters).
Setting wave functions to eigenvectors of Hamiltonian

# Ionic positions in lattice coordinates:
ion Cs   0.000000000000000   0.000000000000000   0.000000000000000 0

# Forces in Lattice coordinates:
force Cs  -0.000000000000000  -0.000000000000000   0.000000000000000 0

# Energy components:
   Eewald =      -28.8768417605322654
       EH =      -13.0076840502098161
     Eloc =       16.1634918026578021
      Enl =        3.4469127023244779
   Epulay =        0.0000000148030275
      Exc =       -3.2948909477435819
       KE =        5.4601163837328599
-------------------------------------
     Etot =      -20.1088958549674963
       TS =        0.0000001215067730
-------------------------------------
        F =      -20.1088959764742690

IonicMinimize: Iter:   0  F: -20.108895976474269  |grad|_K:  0.000e+00  t[s]:    191.61
IonicMinimize: Converged (|grad|_K<1.000000e-04).

#--- Lowdin population analysis ---
# oxidation-state Cs +0.752

End date and time: Sun Jan 16 16:35:52 2022  (Duration: 0-0:03:11.66)
Done!
