1.55
--------------------------------------------------------------------------
The library attempted to open the following supporting CUDA libraries,
but each of them failed.  CUDA-aware support is disabled.
libcuda.so.1: cannot open shared object file: No such file or directory
libcuda.dylib: cannot open shared object file: No such file or directory
/usr/lib64/libcuda.so.1: cannot open shared object file: No such file or directory
/usr/lib64/libcuda.dylib: cannot open shared object file: No such file or directory
If you are not interested in CUDA-aware support, then run with
--mca opal_warn_on_missing_libcuda 0 to suppress this message.  If you are interested
in CUDA-aware support, then try setting LD_LIBRARY_PATH to the location
of libcuda.so.1 to get passed this issue.
--------------------------------------------------------------------------
--------------------------------------------------------------------------
No OpenFabrics connection schemes reported that they were able to be
used on a specific port.  As such, the openib BTL (OpenFabrics
support) will be disabled for this port.

  Local host:           d-16-7-2
  Local device:         mlx5_1
  Local port:           1
  CPCs attempted:       rdmacm, udcm
--------------------------------------------------------------------------

*************** JDFTx 1.6.0 (git hash 42ebbcc2) ***************

Start date and time: Sun Jan 16 16:33:41 2022
Executable jdftx with command-line: -i Cesium.in
Running on hosts (process indices):  d-16-7-2 (0-18)
Divided in process groups (process indices):  0 (0)  1 (1)  2 (2)  3 (3)  4 (4)  5 (5)  6 (6)  7 (7)  8 (8)  9 (9)  10 (10)  11 (11)  12 (12)  13 (13)  14 (14)  15 (15)  16 (16)  17 (17)  18 (18)
Resource initialization completed at t[s]:      0.00
Run totals: 19 processes, 48 threads, 0 GPUs


Input parsed successfully to the following command list (including defaults):

basis kpoint-dependent
coords-type Lattice
core-overlap-check vector
coulomb-interaction Slab 001
davidson-band-ratio 1.1
dump End None
dump-name $INPUT.$VAR
elec-cutoff 20
elec-eigen-algo Davidson
elec-ex-corr gga-PBE
elec-smearing Fermi 1e-05
electronic-minimize  \
	dirUpdateScheme      FletcherReeves \
	linminMethod         DirUpdateRecommended \
	nIterations          10000 \
	history              15 \
	knormThreshold       0 \
	energyDiffThreshold  1e-08 \
	nEnergyDiff          4 \
	alphaTstart          1 \
	alphaTmin            1e-10 \
	updateTestStepSize   yes \
	alphaTreduceFactor   0.1 \
	alphaTincreaseFactor 3 \
	nAlphaAdjustMax      3 \
	wolfeEnergy          0.0001 \
	wolfeGradient        0.9 \
	fdTest               no
exchange-regularization WignerSeitzTruncated
fluid None
fluid-ex-corr (null) lda-PZ
fluid-gummel-loop 10 1.000000e-05
fluid-minimize  \
	dirUpdateScheme      PolakRibiere \
	linminMethod         DirUpdateRecommended \
	nIterations          100 \
	history              15 \
	knormThreshold       0 \
	energyDiffThreshold  0 \
	nEnergyDiff          2 \
	alphaTstart          1 \
	alphaTmin            1e-10 \
	updateTestStepSize   yes \
	alphaTreduceFactor   0.1 \
	alphaTincreaseFactor 3 \
	nAlphaAdjustMax      3 \
	wolfeEnergy          0.0001 \
	wolfeGradient        0.9 \
	fdTest               no
fluid-solvent H2O 55.338 ScalarEOS \
	epsBulk 78.4 \
	pMol 0.92466 \
	epsInf 1.77 \
	Pvap 1.06736e-10 \
	sigmaBulk 4.62e-05 \
	Rvdw 2.61727 \
	Res 1.42 \
	tauNuc 343133 \
	poleEl 15 7 1
forces-output-coords Positions
ion Cs   0.000000000000000   0.000000000000000   0.000000000000000 0
ion-species SG15/$ID_ONCV_PBE.upf
ion-width 0
ionic-minimize  \
	dirUpdateScheme      L-BFGS \
	linminMethod         DirUpdateRecommended \
	nIterations          0 \
	history              15 \
	knormThreshold       0.0001 \
	energyDiffThreshold  1e-06 \
	nEnergyDiff          2 \
	alphaTstart          1 \
	alphaTmin            1e-10 \
	updateTestStepSize   yes \
	alphaTreduceFactor   0.1 \
	alphaTincreaseFactor 3 \
	nAlphaAdjustMax      3 \
	wolfeEnergy          0.0001 \
	wolfeGradient        0.9 \
	fdTest               no
kpoint   0.000000000000   0.000000000000   0.000000000000  1.00000000000000
kpoint-folding 48 48 1 
latt-move-scale 1 1 1
latt-scale 1.55 1.55 1 
lattice  \
	   4.727486978767153   -2.363743489383575    0.000000000000000  \
	  -0.000000000000000    4.094123819672498    0.000000000000000  \
	   0.000000000000000    0.000000000000000   40.000000000000000 
lattice-minimize  \
	dirUpdateScheme      L-BFGS \
	linminMethod         DirUpdateRecommended \
	nIterations          0 \
	history              15 \
	knormThreshold       0 \
	energyDiffThreshold  1e-06 \
	nEnergyDiff          2 \
	alphaTstart          1 \
	alphaTmin            1e-10 \
	updateTestStepSize   yes \
	alphaTreduceFactor   0.1 \
	alphaTincreaseFactor 3 \
	nAlphaAdjustMax      3 \
	wolfeEnergy          0.0001 \
	wolfeGradient        0.9 \
	fdTest               no
lcao-params -1 1e-06 1e-05
pcm-variant GLSSA13
spintype no-spin
subspace-rotation-factor 1 yes
symmetries automatic
symmetry-threshold 0.0001



---------- Setting up symmetries ----------

Found 24 point-group symmetries of the bravais lattice
Found 24 space-group symmetries with basis
Applied RMS atom displacement 0 bohrs to make symmetries exact.

---------- Initializing the Grid ----------
R = 
[       7.3276      -3.6638            0  ]
[            0      6.34589            0  ]
[            0            0           40  ]
unit cell volume = 1860.01
G =
[   0.857468   0.495059         -0  ]
[          0   0.990119         -0  ]
[         -0         -0    0.15708  ]
Minimum fftbox size, Smin = [  32  32  164  ]
Chosen fftbox size, S = [  32  32  168  ]

---------- Exchange Correlation functional ----------
Initalized PBE GGA exchange.
Initalized PBE GGA correlation.

---------- Setting up pseudopotentials ----------
Width of ionic core gaussian charges (only for fluid interactions / plotting) set to 0

Reading pseudopotential file '/home/gridsan/aligho/DFT/build-Nov24/pseudopotentials/SG15/Cs_ONCV_PBE.upf':
  'Cs' pseudopotential, 'PBE' functional
  Generated using ONCVPSP code by D. R. Hamann
  Author: Martin Schlipf and Francois Gygi  Date: 150915.
  9 valence electrons, 3 orbitals, 6 projectors, 2414 radial grid points, with lMax = 2
  Transforming local potential to a uniform radial grid of dG=0.02 with 1528 points.
  Transforming nonlocal projectors to a uniform radial grid of dG=0.02 with 432 points.
    5S    l: 0   occupation:  2.0   eigenvalue: -0.982388
    5P    l: 1   occupation:  6.0   eigenvalue: -0.496786
    6S    l: 0   occupation:  1.0   eigenvalue: -0.076670
  Transforming atomic orbitals to a uniform radial grid of dG=0.02 with 432 points.
  Core radius for overlap checks: 2.06 bohrs.
  Reading pulay file /home/gridsan/aligho/DFT/build-Nov24/pseudopotentials/SG15/Cs_ONCV_PBE.pulay ... using dE_dnG = -1.008762e-04 computed for Ecut = 20.

Initialized 1 species with 1 total atoms.

Folded 1 k-points by 48x48x1 to 2304 k-points.

---------- Setting up k-points, bands, fillings ----------
Reduced to 217 k-points under symmetry. 
Computing the number of bands and number of electrons
Calculating initial fillings.
nElectrons:   9.000000   nBands: 6   nStates: 217

----- Setting up reduced wavefunction bases (one per k-point) -----
average nbasis = 7946.163 , ideal nbasis = 7946.094

---------- Setting up coulomb interaction ----------
Initialized slab truncation along lattice direction 001

---------- Setting up 2D ewald sum ----------
Optimum gaussian width for ewald sums = 4.067990 bohr.
Real space sums over 289 unit cells with max indices [  8  8  0  ]
Reciprocal space sums over 81 terms with max indices [  4  4  0  ]

---------- Allocating electronic variables ----------
Initializing wave functions:  linear combination of atomic orbitals
Note: number of bands (6) exceeds available atomic orbitals (5)
Cs pseudo-atom occupations:   s ( 2 1 )  p ( 6 )
	FillingsUpdate:  mu: -0.102517324  nElectrons: 9.000000
LCAOMinimize: Iter:   0  F: -20.1394066717324591  |grad|_K:  3.422e-05  alpha:  1.000e+00
[d-16-7-2:29775] 18 more processes have sent help message help-mpi-common-cuda.txt / dlopen failed
[d-16-7-2:29775] Set MCA parameter "orte_base_help_aggregate" to 0 to see all help / error messages
[d-16-7-2:29775] 18 more processes have sent help message help-mpi-btl-openib-cpc-base.txt / no cpcs for port
	FillingsUpdate:  mu: -0.102364001  nElectrons: 9.000000
LCAOMinimize: Iter:   1  F: -20.1394110203368726  |grad|_K:  1.069e-06  alpha:  9.535e-01  linmin: -4.510e-02  cgtest:  9.338e-01  t[s]:      5.92
LCAOMinimize: Encountered beta<0, resetting CG.
	FillingsUpdate:  mu: -0.102359838  nElectrons: 9.000000
LCAOMinimize: Iter:   2  F: -20.1394110247761731  |grad|_K:  8.892e-09  alpha:  9.941e-01  linmin: -7.947e-03  cgtest:  1.538e-01  t[s]:      7.98
LCAOMinimize: Encountered beta<0, resetting CG.
LCAOMinimize: 	Step increased F by 8.881784e-13, reducing alpha to 5.614499e-02.
LCAOMinimize: 	Step increased F by 7.993606e-13, reducing alpha to 5.614499e-03.
	FillingsUpdate:  mu: -0.102359838  nElectrons: 9.000000
LCAOMinimize: Iter:   3  F: -20.1394110247762725  |grad|_K:  8.840e-09  alpha:  5.614e-03  linmin: -2.529e-01  cgtest:  1.000e+00  t[s]:     12.95
LCAOMinimize: Encountered beta<0, resetting CG.
LCAOMinimize: Converged (|Delta F|<1.000000e-06 for 2 iters).


---- Citations for features of the code used in this run ----

   Software package:
      R. Sundararaman, K. Letchworth-Weaver, K.A. Schwarz, D. Gunceler, Y. Ozhabes and T.A. Arias, 'JDFTx: software for joint density-functional theory', SoftwareX 6, 278 (2017)

   gga-PBE exchange-correlation functional:
      J.P. Perdew, K. Burke and M. Ernzerhof, Phys. Rev. Lett. 77, 3865 (1996)

   Pseudopotentials:
      M Schlipf and F Gygi, Comput. Phys. Commun. 196, 36 (2015)

   Truncated Coulomb potentials:
      R. Sundararaman and T.A. Arias, Phys. Rev. B 87, 165122 (2013)

   Total energy minimization with Auxiliary Hamiltonian:
      C. Freysoldt, S. Boeck, and J. Neugebauer, Phys. Rev. B 79, 241103(R) (2009)

This list may not be complete. Please suggest additional citations or
report any other bugs at https://github.com/shankar1729/jdftx/issues

Initialization completed successfully at t[s]:     13.20


-------- Electronic minimization -----------
	FillingsUpdate:  mu: -0.102359838  nElectrons: 9.000000
ElecMinimize: Iter:   0  F: -20.139411024776269  |grad|_K:  2.434e-05  alpha:  1.000e+00
	FillingsUpdate:  mu: -0.099825156  nElectrons: 9.000000
	SubspaceRotationAdjust: set factor to 1
ElecMinimize: Iter:   1  F: -20.146367279159065  |grad|_K:  1.385e-05  alpha:  1.134e+00  linmin:  4.851e-05  t[s]:     17.67
	FillingsUpdate:  mu: -0.092956440  nElectrons: 9.000000
	SubspaceRotationAdjust: set factor to 0.688
ElecMinimize: Iter:   2  F: -20.149561776955476  |grad|_K:  2.483e-05  alpha:  2.204e+00  linmin:  3.790e-03  t[s]:     20.43
ElecMinimize: 	Bad step direction: g.d > 0.
ElecMinimize: 	Undoing step.
ElecMinimize: 	Step failed: resetting search direction.
	FillingsUpdate:  mu: -0.092956440  nElectrons: 9.000000
	SubspaceRotationAdjust: set factor to 0.881
ElecMinimize: Iter:   3  F: -20.149561776955473  |grad|_K:  2.259e-05  alpha:  0.000e+00
	FillingsUpdate:  mu: -0.099230716  nElectrons: 9.000000
	SubspaceRotationAdjust: set factor to 0.866
ElecMinimize: Iter:   4  F: -20.153182374050456  |grad|_K:  1.308e-05  alpha:  9.833e-01  linmin:  2.441e-03  t[s]:     25.15
	FillingsUpdate:  mu: -0.095843325  nElectrons: 9.000000
	SubspaceRotationAdjust: set factor to 1.13
ElecMinimize: Iter:   5  F: -20.155302066445032  |grad|_K:  1.737e-05  alpha:  1.567e+00  linmin: -1.997e-04  t[s]:     27.89
	FillingsUpdate:  mu: -0.095057676  nElectrons: 9.000000
	SubspaceRotationAdjust: set factor to 1.26
ElecMinimize: Iter:   6  F: -20.155723397822541  |grad|_K:  1.628e-05  alpha:  1.257e-01  linmin: -4.359e-03  t[s]:     30.64
ElecMinimize: 	Predicted alpha/alphaT>3.000000, increasing alphaT to 3.769516e-01.
	FillingsUpdate:  mu: -0.084028203  nElectrons: 9.000000
	SubspaceRotationAdjust: set factor to 0.98
ElecMinimize: Iter:   7  F: -20.156956208353709  |grad|_K:  1.594e-05  alpha:  5.913e-01  linmin:  8.466e-03  t[s]:     34.24
ElecMinimize: 	Bad step direction: g.d > 0.
ElecMinimize: 	Undoing step.
ElecMinimize: 	Step failed: resetting search direction.
	FillingsUpdate:  mu: -0.084028203  nElectrons: 9.000000
	SubspaceRotationAdjust: set factor to 1.44
ElecMinimize: Iter:   8  F: -20.156956208353687  |grad|_K:  1.512e-05  alpha:  0.000e+00
ElecMinimize: 	Predicted alpha/alphaT>3.000000, increasing alphaT to 1.773801e+00.
	FillingsUpdate:  mu: -0.090178463  nElectrons: 9.000000
	SubspaceRotationAdjust: set factor to 1.43
ElecMinimize: Iter:   9  F: -20.159386908067980  |grad|_K:  1.032e-05  alpha:  9.128e-01  linmin:  6.014e-03  t[s]:     39.74
	FillingsUpdate:  mu: -0.086622418  nElectrons: 9.000000
	SubspaceRotationAdjust: set factor to 1.47
ElecMinimize: Iter:  10  F: -20.160250956016387  |grad|_K:  6.886e-06  alpha:  9.304e-01  linmin:  1.172e-03  t[s]:     42.48
	FillingsUpdate:  mu: -0.077739428  nElectrons: 9.000000
	SubspaceRotationAdjust: set factor to 1.09
ElecMinimize: Iter:  11  F: -20.160749009515616  |grad|_K:  9.743e-06  alpha:  1.646e+00  linmin:  9.960e-03  t[s]:     45.23
ElecMinimize: 	Step increased F by 7.377416e-05, reducing alpha to 5.454475e-03.
	FillingsUpdate:  mu: -0.077740569  nElectrons: 9.000000
	SubspaceRotationAdjust: set factor to 1.64
ElecMinimize: Iter:  12  F: -20.160752743983519  |grad|_K:  9.226e-06  alpha:  5.454e-03  linmin: -3.388e-03  t[s]:     49.84
ElecMinimize: 	Predicted alpha/alphaT>3.000000, increasing alphaT to 1.636343e-02.
ElecMinimize: 	Predicted alpha/alphaT>3.000000, increasing alphaT to 4.909028e-02.
ElecMinimize: 	Predicted alpha/alphaT>3.000000, increasing alphaT to 1.472708e-01.
	FillingsUpdate:  mu: -0.091174657  nElectrons: 9.000000
	SubspaceRotationAdjust: set factor to 1.28
ElecMinimize: Iter:  13  F: -20.160760062045025  |grad|_K:  8.282e-06  alpha:  5.354e-01  linmin:  9.092e-04  t[s]:     54.24
ElecMinimize: 	Wrong curvature in test step, increasing alphaT to 1.606065e+00.
	FillingsUpdate:  mu: -0.085932987  nElectrons: 9.000000
	SubspaceRotationAdjust: set factor to 1.53
ElecMinimize: Iter:  14  F: -20.161748648202543  |grad|_K:  7.116e-06  alpha: -6.458e-01  linmin:  5.865e-04  t[s]:     56.80
	FillingsUpdate:  mu: -0.084252673  nElectrons: 9.000000
	SubspaceRotationAdjust: set factor to 1.61
ElecMinimize: Iter:  15  F: -20.162024223552148  |grad|_K:  3.567e-06  alpha:  5.054e-01  linmin: -9.375e-04  t[s]:     59.56
	FillingsUpdate:  mu: -0.083193134  nElectrons: 9.000000
	SubspaceRotationAdjust: set factor to 1.81
ElecMinimize: Iter:  16  F: -20.162117754923909  |grad|_K:  2.882e-06  alpha:  6.557e-01  linmin: -1.362e-03  t[s]:     62.30
	FillingsUpdate:  mu: -0.082575729  nElectrons: 9.000000
	SubspaceRotationAdjust: set factor to 1.59
ElecMinimize: Iter:  17  F: -20.162181308082900  |grad|_K:  2.591e-06  alpha:  7.143e-01  linmin:  3.327e-04  t[s]:     65.04
	FillingsUpdate:  mu: -0.083855514  nElectrons: 9.000000
	SubspaceRotationAdjust: set factor to 1.68
ElecMinimize: Iter:  18  F: -20.162225488422504  |grad|_K:  2.778e-06  alpha:  6.609e-01  linmin:  1.016e-04  t[s]:     67.78
	FillingsUpdate:  mu: -0.085215357  nElectrons: 9.000000
	SubspaceRotationAdjust: set factor to 2.02
ElecMinimize: Iter:  19  F: -20.162273580185335  |grad|_K:  2.656e-06  alpha:  6.062e-01  linmin: -5.815e-05  t[s]:     70.54
	FillingsUpdate:  mu: -0.083250655  nElectrons: 9.000000
	SubspaceRotationAdjust: set factor to 2.18
ElecMinimize: Iter:  20  F: -20.162311553302427  |grad|_K:  2.152e-06  alpha:  5.185e-01  linmin: -1.178e-05  t[s]:     73.28
	FillingsUpdate:  mu: -0.082555622  nElectrons: 9.000000
	SubspaceRotationAdjust: set factor to 2.32
ElecMinimize: Iter:  21  F: -20.162336121792208  |grad|_K:  1.815e-06  alpha:  5.095e-01  linmin:  1.130e-03  t[s]:     76.01
	FillingsUpdate:  mu: -0.083270763  nElectrons: 9.000000
	SubspaceRotationAdjust: set factor to 2.79
ElecMinimize: Iter:  22  F: -20.162350849984591  |grad|_K:  1.490e-06  alpha:  4.755e-01  linmin: -6.610e-06  t[s]:     78.77
	FillingsUpdate:  mu: -0.084387860  nElectrons: 9.000000
	SubspaceRotationAdjust: set factor to 2.07
ElecMinimize: Iter:  23  F: -20.162360767667728  |grad|_K:  1.731e-06  alpha:  4.316e-01  linmin: -6.126e-05  t[s]:     81.55
	FillingsUpdate:  mu: -0.084221369  nElectrons: 9.000000
	SubspaceRotationAdjust: set factor to 2.95
ElecMinimize: Iter:  24  F: -20.162368597234870  |grad|_K:  1.202e-06  alpha:  2.935e-01  linmin: -1.261e-03  t[s]:     84.32
	FillingsUpdate:  mu: -0.083358462  nElectrons: 9.000000
	SubspaceRotationAdjust: set factor to 2.66
ElecMinimize: Iter:  25  F: -20.162377080708293  |grad|_K:  1.049e-06  alpha:  5.195e-01  linmin: -7.495e-05  t[s]:     87.03
	FillingsUpdate:  mu: -0.083561157  nElectrons: 9.000000
	SubspaceRotationAdjust: set factor to 2.87
ElecMinimize: Iter:  26  F: -20.162384433045897  |grad|_K:  9.196e-07  alpha:  6.302e-01  linmin: -2.750e-04  t[s]:     89.80
	FillingsUpdate:  mu: -0.084152753  nElectrons: 9.000000
	SubspaceRotationAdjust: set factor to 2.77
ElecMinimize: Iter:  27  F: -20.162389703335478  |grad|_K:  8.326e-07  alpha:  5.948e-01  linmin:  1.802e-05  t[s]:     92.55
	FillingsUpdate:  mu: -0.083780706  nElectrons: 9.000000
	SubspaceRotationAdjust: set factor to 2.57
ElecMinimize: Iter:  28  F: -20.162393740829209  |grad|_K:  7.366e-07  alpha:  5.638e-01  linmin:  1.511e-04  t[s]:     95.32
	FillingsUpdate:  mu: -0.083444635  nElectrons: 9.000000
	SubspaceRotationAdjust: set factor to 2.92
ElecMinimize: Iter:  29  F: -20.162397163290315  |grad|_K:  6.678e-07  alpha:  6.180e-01  linmin:  1.679e-05  t[s]:     98.08
	FillingsUpdate:  mu: -0.083790791  nElectrons: 9.000000
	SubspaceRotationAdjust: set factor to 2.77
ElecMinimize: Iter:  30  F: -20.162399562893892  |grad|_K:  5.333e-07  alpha:  5.218e-01  linmin: -2.716e-05  t[s]:    100.83
	FillingsUpdate:  mu: -0.083946528  nElectrons: 9.000000
	SubspaceRotationAdjust: set factor to 2.93
ElecMinimize: Iter:  31  F: -20.162401292161597  |grad|_K:  4.620e-07  alpha:  5.852e-01  linmin: -3.339e-05  t[s]:    103.57
	FillingsUpdate:  mu: -0.083647479  nElectrons: 9.000000
	SubspaceRotationAdjust: set factor to 2.7
ElecMinimize: Iter:  32  F: -20.162402489916062  |grad|_K:  4.048e-07  alpha:  5.401e-01  linmin:  2.459e-05  t[s]:    106.30
	FillingsUpdate:  mu: -0.083574804  nElectrons: 9.000000
	SubspaceRotationAdjust: set factor to 2.82
ElecMinimize: Iter:  33  F: -20.162403626763361  |grad|_K:  3.906e-07  alpha:  6.753e-01  linmin:  1.370e-04  t[s]:    109.03
	FillingsUpdate:  mu: -0.083787708  nElectrons: 9.000000
	SubspaceRotationAdjust: set factor to 2.93
ElecMinimize: Iter:  34  F: -20.162404490510749  |grad|_K:  3.349e-07  alpha:  5.535e-01  linmin:  1.032e-06  t[s]:    111.77
	FillingsUpdate:  mu: -0.083760713  nElectrons: 9.000000
	SubspaceRotationAdjust: set factor to 2.89
ElecMinimize: Iter:  35  F: -20.162405149786181  |grad|_K:  2.872e-07  alpha:  5.677e-01  linmin: -7.843e-05  t[s]:    114.52
	FillingsUpdate:  mu: -0.083591857  nElectrons: 9.000000
	SubspaceRotationAdjust: set factor to 2.96
ElecMinimize: Iter:  36  F: -20.162405608458283  |grad|_K:  2.365e-07  alpha:  5.339e-01  linmin:  1.039e-05  t[s]:    117.23
	FillingsUpdate:  mu: -0.083637579  nElectrons: 9.000000
	SubspaceRotationAdjust: set factor to 2.86
ElecMinimize: Iter:  37  F: -20.162405914492332  |grad|_K:  1.967e-07  alpha:  5.291e-01  linmin:  4.203e-05  t[s]:    119.97
	FillingsUpdate:  mu: -0.083737729  nElectrons: 9.000000
	SubspaceRotationAdjust: set factor to 2.9
ElecMinimize: Iter:  38  F: -20.162406163006612  |grad|_K:  1.961e-07  alpha:  6.237e-01  linmin:  1.092e-05  t[s]:    122.74
	FillingsUpdate:  mu: -0.083666373  nElectrons: 9.000000
	SubspaceRotationAdjust: set factor to 3.09
ElecMinimize: Iter:  39  F: -20.162406383355219  |grad|_K:  1.604e-07  alpha:  5.546e-01  linmin: -5.165e-06  t[s]:    125.50
	FillingsUpdate:  mu: -0.083588423  nElectrons: 9.000000
	SubspaceRotationAdjust: set factor to 2.97
ElecMinimize: Iter:  40  F: -20.162406531378977  |grad|_K:  1.456e-07  alpha:  5.557e-01  linmin:  8.052e-07  t[s]:    128.28
	FillingsUpdate:  mu: -0.083643297  nElectrons: 9.000000
	SubspaceRotationAdjust: set factor to 2.99
ElecMinimize: Iter:  41  F: -20.162406650276694  |grad|_K:  1.251e-07  alpha:  5.414e-01  linmin:  7.466e-06  t[s]:    131.01
	FillingsUpdate:  mu: -0.083683414  nElectrons: 9.000000
	SubspaceRotationAdjust: set factor to 3.03
ElecMinimize: Iter:  42  F: -20.162406745133985  |grad|_K:  1.139e-07  alpha:  5.864e-01  linmin:  1.082e-05  t[s]:    133.75
	FillingsUpdate:  mu: -0.083631067  nElectrons: 9.000000
	SubspaceRotationAdjust: set factor to 3.05
ElecMinimize: Iter:  43  F: -20.162406813952220  |grad|_K:  9.480e-08  alpha:  5.134e-01  linmin: -1.139e-06  t[s]:    136.49
	FillingsUpdate:  mu: -0.083602352  nElectrons: 9.000000
	SubspaceRotationAdjust: set factor to 3.01
ElecMinimize: Iter:  44  F: -20.162406870382245  |grad|_K:  9.098e-08  alpha:  6.064e-01  linmin: -4.263e-07  t[s]:    139.26
	FillingsUpdate:  mu: -0.083638849  nElectrons: 9.000000
	SubspaceRotationAdjust: set factor to 3.17
ElecMinimize: Iter:  45  F: -20.162406915883928  |grad|_K:  7.477e-08  alpha:  5.308e-01  linmin:  3.244e-06  t[s]:    142.01
	FillingsUpdate:  mu: -0.083644082  nElectrons: 9.000000
	SubspaceRotationAdjust: set factor to 3.12
ElecMinimize: Iter:  46  F: -20.162406945973579  |grad|_K:  6.301e-08  alpha:  5.203e-01  linmin:  4.580e-06  t[s]:    144.77
	FillingsUpdate:  mu: -0.083609483  nElectrons: 9.000000
	SubspaceRotationAdjust: set factor to 3.01
ElecMinimize: Iter:  47  F: -20.162406968388424  |grad|_K:  5.801e-08  alpha:  5.459e-01  linmin: -2.386e-06  t[s]:    147.52
	FillingsUpdate:  mu: -0.083603056  nElectrons: 9.000000
	SubspaceRotationAdjust: set factor to 3.22
ElecMinimize: Iter:  48  F: -20.162406988144760  |grad|_K:  4.975e-08  alpha:  5.668e-01  linmin:  1.543e-06  t[s]:    150.28
	FillingsUpdate:  mu: -0.083623823  nElectrons: 9.000000
	SubspaceRotationAdjust: set factor to 3.04
ElecMinimize: Iter:  49  F: -20.162407001820373  |grad|_K:  4.511e-08  alpha:  5.339e-01  linmin:  2.604e-06  t[s]:    153.03
	FillingsUpdate:  mu: -0.083621020  nElectrons: 9.000000
	SubspaceRotationAdjust: set factor to 3.21
ElecMinimize: Iter:  50  F: -20.162407013686572  |grad|_K:  3.884e-08  alpha:  5.640e-01  linmin:  1.227e-06  t[s]:    155.77
	FillingsUpdate:  mu: -0.083604138  nElectrons: 9.000000
	SubspaceRotationAdjust: set factor to 3.13
ElecMinimize: Iter:  51  F: -20.162407021857636  |grad|_K:  3.357e-08  alpha:  5.234e-01  linmin: -3.118e-07  t[s]:    158.50
	FillingsUpdate:  mu: -0.083607761  nElectrons: 9.000000
	SubspaceRotationAdjust: set factor to 3.09
ElecMinimize: Iter:  52  F: -20.162407028297125  |grad|_K:  2.955e-08  alpha:  5.519e-01  linmin: -3.123e-08  t[s]:    161.22
	FillingsUpdate:  mu: -0.083620511  nElectrons: 9.000000
	SubspaceRotationAdjust: set factor to 3.13
ElecMinimize: Iter:  53  F: -20.162407033338617  |grad|_K:  2.653e-08  alpha:  5.578e-01  linmin:  2.044e-06  t[s]:    163.96
	FillingsUpdate:  mu: -0.083617851  nElectrons: 9.000000
	SubspaceRotationAdjust: set factor to 3.08
ElecMinimize: Iter:  54  F: -20.162407037381271  |grad|_K:  2.350e-08  alpha:  5.551e-01  linmin: -6.676e-07  t[s]:    166.73
ElecMinimize: Converged (|Delta F|<1.000000e-08 for 4 iters).
Setting wave functions to eigenvectors of Hamiltonian

# Ionic positions in lattice coordinates:
ion Cs   0.000000000000000   0.000000000000000   0.000000000000000 0

# Forces in Lattice coordinates:
force Cs   0.000000000000000  -0.000000000000000   0.000000000000000 0

# Energy components:
   Eewald =      -23.2877756133324638
       EH =       -7.1863466348627849
     Eloc =        4.8130874350385380
      Enl =        3.4522511698929064
   Epulay =        0.0000000037342541
      Exc =       -3.1915238602841622
       KE =        5.2379005287783507
-------------------------------------
     Etot =      -20.1624069710353631
       TS =        0.0000000663459097
-------------------------------------
        F =      -20.1624070373812714

IonicMinimize: Iter:   0  F: -20.162407037381271  |grad|_K:  0.000e+00  t[s]:    167.03
IonicMinimize: Converged (|grad|_K<1.000000e-04).

#--- Lowdin population analysis ---
# oxidation-state Cs +0.223

End date and time: Sun Jan 16 16:36:28 2022  (Duration: 0-0:02:47.10)
Done!
