1.16
--------------------------------------------------------------------------
The library attempted to open the following supporting CUDA libraries,
but each of them failed.  CUDA-aware support is disabled.
libcuda.so.1: cannot open shared object file: No such file or directory
libcuda.dylib: cannot open shared object file: No such file or directory
/usr/lib64/libcuda.so.1: cannot open shared object file: No such file or directory
/usr/lib64/libcuda.dylib: cannot open shared object file: No such file or directory
If you are not interested in CUDA-aware support, then run with
--mca opal_warn_on_missing_libcuda 0 to suppress this message.  If you are interested
in CUDA-aware support, then try setting LD_LIBRARY_PATH to the location
of libcuda.so.1 to get passed this issue.
--------------------------------------------------------------------------
--------------------------------------------------------------------------
No OpenFabrics connection schemes reported that they were able to be
used on a specific port.  As such, the openib BTL (OpenFabrics
support) will be disabled for this port.

  Local host:           d-18-10-2
  Local device:         mlx5_1
  Local port:           1
  CPCs attempted:       rdmacm, udcm
--------------------------------------------------------------------------

*************** JDFTx 1.6.0 (git hash 42ebbcc2) ***************

Start date and time: Sun Jan 16 16:30:39 2022
Executable jdftx with command-line: -i Cesium.in
Running on hosts (process indices):  d-18-10-2 (0-18)
Divided in process groups (process indices):  0 (0)  1 (1)  2 (2)  3 (3)  4 (4)  5 (5)  6 (6)  7 (7)  8 (8)  9 (9)  10 (10)  11 (11)  12 (12)  13 (13)  14 (14)  15 (15)  16 (16)  17 (17)  18 (18)
Resource initialization completed at t[s]:      0.00
Run totals: 19 processes, 48 threads, 0 GPUs


Input parsed successfully to the following command list (including defaults):

basis kpoint-dependent
coords-type Lattice
core-overlap-check vector
coulomb-interaction Slab 001
davidson-band-ratio 1.1
dump End None
dump-name $INPUT.$VAR
elec-cutoff 20
elec-eigen-algo Davidson
elec-ex-corr gga-PBE
elec-smearing Fermi 1e-05
electronic-minimize  \
	dirUpdateScheme      FletcherReeves \
	linminMethod         DirUpdateRecommended \
	nIterations          10000 \
	history              15 \
	knormThreshold       0 \
	energyDiffThreshold  1e-08 \
	nEnergyDiff          4 \
	alphaTstart          1 \
	alphaTmin            1e-10 \
	updateTestStepSize   yes \
	alphaTreduceFactor   0.1 \
	alphaTincreaseFactor 3 \
	nAlphaAdjustMax      3 \
	wolfeEnergy          0.0001 \
	wolfeGradient        0.9 \
	fdTest               no
exchange-regularization WignerSeitzTruncated
fluid None
fluid-ex-corr (null) lda-PZ
fluid-gummel-loop 10 1.000000e-05
fluid-minimize  \
	dirUpdateScheme      PolakRibiere \
	linminMethod         DirUpdateRecommended \
	nIterations          100 \
	history              15 \
	knormThreshold       0 \
	energyDiffThreshold  0 \
	nEnergyDiff          2 \
	alphaTstart          1 \
	alphaTmin            1e-10 \
	updateTestStepSize   yes \
	alphaTreduceFactor   0.1 \
	alphaTincreaseFactor 3 \
	nAlphaAdjustMax      3 \
	wolfeEnergy          0.0001 \
	wolfeGradient        0.9 \
	fdTest               no
fluid-solvent H2O 55.338 ScalarEOS \
	epsBulk 78.4 \
	pMol 0.92466 \
	epsInf 1.77 \
	Pvap 1.06736e-10 \
	sigmaBulk 4.62e-05 \
	Rvdw 2.61727 \
	Res 1.42 \
	tauNuc 343133 \
	poleEl 15 7 1
forces-output-coords Positions
ion Cs   0.000000000000000   0.000000000000000   0.000000000000000 0
ion-species SG15/$ID_ONCV_PBE.upf
ion-width 0
ionic-minimize  \
	dirUpdateScheme      L-BFGS \
	linminMethod         DirUpdateRecommended \
	nIterations          0 \
	history              15 \
	knormThreshold       0.0001 \
	energyDiffThreshold  1e-06 \
	nEnergyDiff          2 \
	alphaTstart          1 \
	alphaTmin            1e-10 \
	updateTestStepSize   yes \
	alphaTreduceFactor   0.1 \
	alphaTincreaseFactor 3 \
	nAlphaAdjustMax      3 \
	wolfeEnergy          0.0001 \
	wolfeGradient        0.9 \
	fdTest               no
kpoint   0.000000000000   0.000000000000   0.000000000000  1.00000000000000
kpoint-folding 48 48 1 
latt-move-scale 1 1 1
latt-scale 1.16 1.16 1 
lattice  \
	   4.727486978767153   -2.363743489383575    0.000000000000000  \
	  -0.000000000000000    4.094123819672498    0.000000000000000  \
	   0.000000000000000    0.000000000000000   40.000000000000000 
lattice-minimize  \
	dirUpdateScheme      L-BFGS \
	linminMethod         DirUpdateRecommended \
	nIterations          0 \
	history              15 \
	knormThreshold       0 \
	energyDiffThreshold  1e-06 \
	nEnergyDiff          2 \
	alphaTstart          1 \
	alphaTmin            1e-10 \
	updateTestStepSize   yes \
	alphaTreduceFactor   0.1 \
	alphaTincreaseFactor 3 \
	nAlphaAdjustMax      3 \
	wolfeEnergy          0.0001 \
	wolfeGradient        0.9 \
	fdTest               no
lcao-params -1 1e-06 1e-05
pcm-variant GLSSA13
spintype no-spin
subspace-rotation-factor 1 yes
symmetries automatic
symmetry-threshold 0.0001



---------- Setting up symmetries ----------

Found 24 point-group symmetries of the bravais lattice
Found 24 space-group symmetries with basis
Applied RMS atom displacement 0 bohrs to make symmetries exact.

---------- Initializing the Grid ----------
R = 
[      5.48388     -2.74194            0  ]
[            0      4.74918            0  ]
[            0            0           40  ]
unit cell volume = 1041.76
G =
[    1.14575   0.661502         -0  ]
[          0      1.323         -0  ]
[         -0         -0    0.15708  ]
Minimum fftbox size, Smin = [  24  24  164  ]
Chosen fftbox size, S = [  24  24  168  ]

---------- Exchange Correlation functional ----------
Initalized PBE GGA exchange.
Initalized PBE GGA correlation.

---------- Setting up pseudopotentials ----------
Width of ionic core gaussian charges (only for fluid interactions / plotting) set to 0

Reading pseudopotential file '/home/gridsan/aligho/DFT/build-Nov24/pseudopotentials/SG15/Cs_ONCV_PBE.upf':
  'Cs' pseudopotential, 'PBE' functional
  Generated using ONCVPSP code by D. R. Hamann
  Author: Martin Schlipf and Francois Gygi  Date: 150915.
  9 valence electrons, 3 orbitals, 6 projectors, 2414 radial grid points, with lMax = 2
  Transforming local potential to a uniform radial grid of dG=0.02 with 1530 points.
  Transforming nonlocal projectors to a uniform radial grid of dG=0.02 with 432 points.
    5S    l: 0   occupation:  2.0   eigenvalue: -0.982388
    5P    l: 1   occupation:  6.0   eigenvalue: -0.496786
    6S    l: 0   occupation:  1.0   eigenvalue: -0.076670
  Transforming atomic orbitals to a uniform radial grid of dG=0.02 with 432 points.
  Core radius for overlap checks: 2.06 bohrs.
  Reading pulay file /home/gridsan/aligho/DFT/build-Nov24/pseudopotentials/SG15/Cs_ONCV_PBE.pulay ... using dE_dnG = -1.008762e-04 computed for Ecut = 20.

Initialized 1 species with 1 total atoms.

Folded 1 k-points by 48x48x1 to 2304 k-points.

---------- Setting up k-points, bands, fillings ----------
Reduced to 217 k-points under symmetry. 
Computing the number of bands and number of electrons
Calculating initial fillings.
nElectrons:   9.000000   nBands: 6   nStates: 217

----- Setting up reduced wavefunction bases (one per k-point) -----
average nbasis = 4450.262 , ideal nbasis = 4450.474

---------- Setting up coulomb interaction ----------
Initialized slab truncation along lattice direction 001

---------- Setting up 2D ewald sum ----------
Optimum gaussian width for ewald sums = 3.044432 bohr.
Real space sums over 289 unit cells with max indices [  8  8  0  ]
Reciprocal space sums over 81 terms with max indices [  4  4  0  ]

---------- Allocating electronic variables ----------
Initializing wave functions:  linear combination of atomic orbitals
Note: number of bands (6) exceeds available atomic orbitals (5)
Cs pseudo-atom occupations:   s ( 2 1 )  p ( 6 )
	FillingsUpdate:  mu: -0.126804276  nElectrons: 9.000000
LCAOMinimize: Iter:   0  F: -19.8903753662910816  |grad|_K:  1.891e-04  alpha:  1.000e+00
	FillingsUpdate:  mu: -0.125661696  nElectrons: 9.000000
LCAOMinimize: Iter:   1  F: -19.8905006792959149  |grad|_K:  1.224e-05  alpha:  9.098e-01  linmin: -5.089e-02  cgtest:  1.180e+00  t[s]:      3.78
LCAOMinimize: Encountered beta<0, resetting CG.
[d-18-10-2:01638] 18 more processes have sent help message help-mpi-common-cuda.txt / dlopen failed
[d-18-10-2:01638] Set MCA parameter "orte_base_help_aggregate" to 0 to see all help / error messages
[d-18-10-2:01638] 18 more processes have sent help message help-mpi-btl-openib-cpc-base.txt / no cpcs for port
	FillingsUpdate:  mu: -0.125594810  nElectrons: 9.000000
LCAOMinimize: Iter:   2  F: -19.8905012528035101  |grad|_K:  1.702e-07  alpha:  9.796e-01  linmin: -4.104e-02  cgtest:  7.458e-01  t[s]:      5.10
LCAOMinimize: Encountered beta<0, resetting CG.
	FillingsUpdate:  mu: -0.125594315  nElectrons: 9.000000
LCAOMinimize: Iter:   3  F: -19.8905012529140315  |grad|_K:  2.988e-09  alpha:  9.788e-01  linmin: -7.872e-02  cgtest:  9.735e-01  t[s]:      6.41
LCAOMinimize: Encountered beta<0, resetting CG.
LCAOMinimize: Converged (|Delta F|<1.000000e-06 for 2 iters).


---- Citations for features of the code used in this run ----

   Software package:
      R. Sundararaman, K. Letchworth-Weaver, K.A. Schwarz, D. Gunceler, Y. Ozhabes and T.A. Arias, 'JDFTx: software for joint density-functional theory', SoftwareX 6, 278 (2017)

   gga-PBE exchange-correlation functional:
      J.P. Perdew, K. Burke and M. Ernzerhof, Phys. Rev. Lett. 77, 3865 (1996)

   Pseudopotentials:
      M Schlipf and F Gygi, Comput. Phys. Commun. 196, 36 (2015)

   Truncated Coulomb potentials:
      R. Sundararaman and T.A. Arias, Phys. Rev. B 87, 165122 (2013)

   Total energy minimization with Auxiliary Hamiltonian:
      C. Freysoldt, S. Boeck, and J. Neugebauer, Phys. Rev. B 79, 241103(R) (2009)

This list may not be complete. Please suggest additional citations or
report any other bugs at https://github.com/shankar1729/jdftx/issues

Initialization completed successfully at t[s]:      6.57


-------- Electronic minimization -----------
	FillingsUpdate:  mu: -0.125594315  nElectrons: 9.000000
ElecMinimize: Iter:   0  F: -19.890501252914081  |grad|_K:  1.061e-04  alpha:  1.000e+00
	FillingsUpdate:  mu: -0.140579566  nElectrons: 9.000000
	SubspaceRotationAdjust: set factor to 1
ElecMinimize: Iter:   1  F: -19.958353855610522  |grad|_K:  6.017e-05  alpha:  1.040e+00  linmin:  1.552e-04  t[s]:      9.35
ElecMinimize: 	Step increased F by 6.745398e-03, reducing alpha to 1.197964e-01.
	FillingsUpdate:  mu: -0.141033806  nElectrons: 9.000000
	SubspaceRotationAdjust: set factor to 1.03
ElecMinimize: Iter:   2  F: -19.963074291326667  |grad|_K:  5.419e-05  alpha:  1.198e-01  linmin: -5.086e-03  t[s]:     12.20
ElecMinimize: 	Predicted alpha/alphaT>3.000000, increasing alphaT to 3.593893e-01.
ElecMinimize: 	Step increased F by 1.288865e-02, reducing alpha to 6.735009e-02.
	FillingsUpdate:  mu: -0.142015621  nElectrons: 9.000000
	SubspaceRotationAdjust: set factor to 1.08
ElecMinimize: Iter:   3  F: -19.967206379692357  |grad|_K:  4.888e-05  alpha:  6.735e-02  linmin: -5.361e-03  t[s]:     15.57
ElecMinimize: 	Predicted alpha/alphaT>3.000000, increasing alphaT to 2.020503e-01.
ElecMinimize: 	Step increased F by 2.414677e-02, reducing alpha to 4.896989e-02.
	FillingsUpdate:  mu: -0.144921829  nElectrons: 9.000000
	SubspaceRotationAdjust: set factor to 1.16
ElecMinimize: Iter:   4  F: -19.970704760058833  |grad|_K:  4.473e-05  alpha:  4.897e-02  linmin: -5.600e-03  t[s]:     18.92
ElecMinimize: 	Predicted alpha/alphaT>3.000000, increasing alphaT to 1.469097e-01.
ElecMinimize: 	Step increased F by 3.145689e-02, reducing alpha to 3.797188e-02.
	FillingsUpdate:  mu: -0.147957662  nElectrons: 9.000000
	SubspaceRotationAdjust: set factor to 1.25
ElecMinimize: Iter:   5  F: -19.973596193517103  |grad|_K:  4.078e-05  alpha:  3.797e-02  linmin: -5.651e-03  t[s]:     22.28
ElecMinimize: 	Predicted alpha/alphaT>3.000000, increasing alphaT to 1.139156e-01.
ElecMinimize: 	Predicted alpha/alphaT>3.000000, increasing alphaT to 3.417469e-01.
	FillingsUpdate:  mu: -0.153787536  nElectrons: 9.000000
	SubspaceRotationAdjust: set factor to 1.38
ElecMinimize: Iter:   6  F: -19.978200184740047  |grad|_K:  3.571e-05  alpha:  6.345e-02  linmin: -5.710e-03  t[s]:     25.02
ElecMinimize: 	Predicted alpha/alphaT>3.000000, increasing alphaT to 1.903381e-01.
ElecMinimize: 	Step increased F by 2.096776e-01, reducing alpha to 5.147403e-02.
	FillingsUpdate:  mu: -0.155206160  nElectrons: 9.000000
	SubspaceRotationAdjust: set factor to 1.54
ElecMinimize: Iter:   7  F: -19.981475758068669  |grad|_K:  3.323e-05  alpha:  5.147e-02  linmin: -5.422e-03  t[s]:     28.36
ElecMinimize: 	Predicted alpha/alphaT>3.000000, increasing alphaT to 1.544221e-01.
	FillingsUpdate:  mu: -0.157314007  nElectrons: 9.000000
	SubspaceRotationAdjust: set factor to 1.72
ElecMinimize: Iter:   8  F: -19.983288050840279  |grad|_K:  3.219e-05  alpha:  3.040e-02  linmin: -5.246e-03  t[s]:     30.59
ElecMinimize: 	Wrong curvature in test step, increasing alphaT to 9.119234e-02.
	FillingsUpdate:  mu: -0.156841564  nElectrons: 9.000000
	SubspaceRotationAdjust: set factor to 1.93
ElecMinimize: Iter:   9  F: -19.985396722494798  |grad|_K:  3.135e-05  alpha: -2.757e-01  linmin: -5.088e-03  t[s]:     32.16
	FillingsUpdate:  mu: -0.156149972  nElectrons: 9.000000
	SubspaceRotationAdjust: set factor to 2.25
ElecMinimize: Iter:  10  F: -19.986770786127380  |grad|_K:  3.170e-05  alpha:  1.718e-02  linmin: -5.440e-03  t[s]:     33.90
ElecMinimize: 	Predicted alpha/alphaT>3.000000, increasing alphaT to 5.155142e-02.
ElecMinimize: 	Wrong curvature in test step, increasing alphaT to 1.546543e-01.
	FillingsUpdate:  mu: -0.143814904  nElectrons: 9.000000
	SubspaceRotationAdjust: set factor to 2.74
ElecMinimize: Iter:  11  F: -19.991484189498930  |grad|_K:  3.815e-05  alpha: -3.109e-01  linmin: -4.879e-03  t[s]:     36.00
ElecMinimize: 	Step increased F by 3.323031e-02, reducing alpha to 2.264621e-03.
ElecMinimize: 	Step increased F by 7.997345e-03, reducing alpha to 2.264621e-04.
	FillingsUpdate:  mu: -0.143775442  nElectrons: 9.000000
	SubspaceRotationAdjust: set factor to 3.25
ElecMinimize: Iter:  12  F: -19.991517588467019  |grad|_K:  3.886e-05  alpha:  2.265e-04  linmin: -5.385e-03  t[s]:     39.98
ElecMinimize: 	Predicted alpha/alphaT>3.000000, increasing alphaT to 6.793862e-04.
ElecMinimize: 	Predicted alpha/alphaT>3.000000, increasing alphaT to 2.038159e-03.
	FillingsUpdate:  mu: -0.143767558  nElectrons: 9.000000
	SubspaceRotationAdjust: set factor to 3.96
ElecMinimize: Iter:  13  F: -19.991524830889208  |grad|_K:  3.960e-05  alpha:  4.249e-05  linmin: -5.833e-03  t[s]:     42.73
ElecMinimize: 	Predicted alpha/alphaT>3.000000, increasing alphaT to 1.274762e-04.
ElecMinimize: 	Predicted alpha/alphaT>3.000000, increasing alphaT to 3.824285e-04.
ElecMinimize: 	Predicted alpha/alphaT>3.000000, increasing alphaT to 1.147285e-03.
ElecMinimize: 	Step increased F by 2.396740e+00, reducing alpha to 6.108279e-02.
ElecMinimize: 	Step increased F by 5.450142e-02, reducing alpha to 6.108279e-03.
ElecMinimize: 	Step increased F by 1.780625e-02, reducing alpha to 6.108279e-04.
ElecMinimize: 	Step failed to reduce F after 3 attempts. Quitting step.
ElecMinimize: 	Undoing step.
ElecMinimize: 	Step failed: resetting search direction.
	FillingsUpdate:  mu: -0.141532877  nElectrons: 9.000000
	SubspaceRotationAdjust: set factor to 4.92
ElecMinimize: Iter:  14  F: -19.973605549852135  |grad|_K:  4.114e-05  alpha:  6.108e-04
ElecMinimize: 	Wrong curvature in test step, increasing alphaT to 1.274762e-04.
	FillingsUpdate:  mu: -0.141532718  nElectrons: 9.000000
	SubspaceRotationAdjust: set factor to 6.23
ElecMinimize: Iter:  15  F: -19.973606386423768  |grad|_K:  4.254e-05  alpha: -7.511e-03  linmin: -5.855e-03  t[s]:     50.43
	FillingsUpdate:  mu: -0.144649717  nElectrons: 9.000000
	SubspaceRotationAdjust: set factor to 9.62
	SubspaceRotationAdjust: resetting CG because factor has changed by 9.62213
ElecMinimize: 	State modified externally: resetting search direction.
ElecMinimize: Iter:  16  F: -19.996391920509893  |grad|_K:  4.236e-05  alpha:  6.822e-02
ElecMinimize: 	Wrong curvature in test step, increasing alphaT to 2.046594e-01.
	FillingsUpdate:  mu: -0.146676119  nElectrons: 9.000000
	SubspaceRotationAdjust: set factor to 14
ElecMinimize: Iter:  17  F: -19.997971140498883  |grad|_K:  3.655e-05  alpha: -3.038e-01  linmin: -6.504e-03  t[s]:     54.73
	FillingsUpdate:  mu: -0.155767899  nElectrons: 9.000000
	SubspaceRotationAdjust: set factor to 11.6
ElecMinimize: Iter:  18  F: -20.000668626608558  |grad|_K:  5.735e-05  alpha:  1.468e-01  linmin: -3.745e-03  t[s]:     56.44
ElecMinimize: 	Step increased F by 3.890694e-04, reducing alpha to 4.315099e-03.
ElecMinimize: 	Step increased F by 2.458486e-04, reducing alpha to 4.315099e-04.
	FillingsUpdate:  mu: -0.155764980  nElectrons: 9.000000
	SubspaceRotationAdjust: set factor to 11.6
ElecMinimize: Iter:  19  F: -20.000699604124055  |grad|_K:  5.460e-05  alpha:  4.315e-04  linmin: -1.288e-02  t[s]:     60.40
ElecMinimize: 	Predicted alpha/alphaT>3.000000, increasing alphaT to 1.294530e-03.
ElecMinimize: 	Predicted alpha/alphaT>3.000000, increasing alphaT to 3.883589e-03.
ElecMinimize: 	Predicted alpha/alphaT>3.000000, increasing alphaT to 1.165077e-02.
	FillingsUpdate:  mu: -0.154944545  nElectrons: 9.000000
	SubspaceRotationAdjust: set factor to 11.8
ElecMinimize: Iter:  20  F: -20.004843110720234  |grad|_K:  5.569e-05  alpha:  5.459e-02  linmin: -2.348e-02  t[s]:     63.13
ElecMinimize: 	Predicted alpha/alphaT>3.000000, increasing alphaT to 1.637819e-01.
	FillingsUpdate:  mu: -0.129002870  nElectrons: 9.000000
	SubspaceRotationAdjust: set factor to 6.54
ElecMinimize: Iter:  21  F: -20.012159553690022  |grad|_K:  1.299e-04  alpha:  1.933e-01  linmin:  1.087e-02  t[s]:     65.36
ElecMinimize: 	Bad step direction: g.d > 0.
ElecMinimize: 	Undoing step.
ElecMinimize: 	Step failed: resetting search direction.
	FillingsUpdate:  mu: -0.129002870  nElectrons: 9.000000
	SubspaceRotationAdjust: set factor to 3.89
ElecMinimize: Iter:  22  F: -20.012159553690008  |grad|_K:  1.002e-04  alpha:  0.000e+00
	FillingsUpdate:  mu: -0.128649565  nElectrons: 9.000000
	SubspaceRotationAdjust: set factor to 2.51
ElecMinimize: Iter:  23  F: -20.027205691625458  |grad|_K:  3.309e-05  alpha:  2.741e-01  linmin: -1.418e-03  t[s]:     68.27
ElecMinimize: 	Wrong curvature in test step, increasing alphaT to 8.224083e-01.
	FillingsUpdate:  mu: -0.125742900  nElectrons: 9.000000
	SubspaceRotationAdjust: set factor to 2.82
ElecMinimize: Iter:  24  F: -20.031078771556746  |grad|_K:  2.484e-05  alpha: -4.826e+00  linmin: -6.311e-03  t[s]:     69.86
	FillingsUpdate:  mu: -0.126525012  nElectrons: 9.000000
	SubspaceRotationAdjust: set factor to 2.8
ElecMinimize: Iter:  25  F: -20.032814696017823  |grad|_K:  2.392e-05  alpha:  1.434e-01  linmin: -1.065e-02  t[s]:     71.57
ElecMinimize: 	Predicted alpha/alphaT>3.000000, increasing alphaT to 4.301251e-01.
ElecMinimize: 	Predicted alpha/alphaT>3.000000, increasing alphaT to 1.290375e+00.
	FillingsUpdate:  mu: -0.118533755  nElectrons: 9.000000
	SubspaceRotationAdjust: set factor to 3.12
ElecMinimize: Iter:  26  F: -20.037000748027264  |grad|_K:  2.706e-05  alpha:  2.781e-01  linmin: -1.827e-02  t[s]:     74.31
ElecMinimize: 	Predicted alpha/alphaT>3.000000, increasing alphaT to 8.341602e-01.
	FillingsUpdate:  mu: -0.089395278  nElectrons: 9.000000
	SubspaceRotationAdjust: set factor to 3.34
ElecMinimize: Iter:  27  F: -20.046175032889117  |grad|_K:  3.207e-05  alpha:  5.707e-01  linmin: -2.043e-02  t[s]:     76.53
	FillingsUpdate:  mu: -0.087989182  nElectrons: 9.000000
	SubspaceRotationAdjust: set factor to 4.37
ElecMinimize: Iter:  28  F: -20.047813904669994  |grad|_K:  2.542e-05  alpha:  1.230e-01  linmin: -2.883e-03  t[s]:     78.23
ElecMinimize: 	Predicted alpha/alphaT>3.000000, increasing alphaT to 3.690647e-01.
	FillingsUpdate:  mu: -0.105700605  nElectrons: 9.000000
	SubspaceRotationAdjust: set factor to 4.4
ElecMinimize: Iter:  29  F: -20.049280878002484  |grad|_K:  2.268e-05  alpha:  1.452e-01  linmin:  4.061e-04  t[s]:     80.46
ElecMinimize: 	Wrong curvature in test step, increasing alphaT to 4.356314e-01.
	FillingsUpdate:  mu: -0.122900064  nElectrons: 9.000000
	SubspaceRotationAdjust: set factor to 1.78
ElecMinimize: Iter:  30  F: -20.050206579728162  |grad|_K:  4.916e-05  alpha: -2.508e-01  linmin:  2.342e-02  t[s]:     82.04
ElecMinimize: 	Bad step direction: g.d > 0.
ElecMinimize: 	Undoing step.
ElecMinimize: 	Step failed: resetting search direction.
	FillingsUpdate:  mu: -0.122900064  nElectrons: 9.000000
	SubspaceRotationAdjust: set factor to 1.3
ElecMinimize: Iter:  31  F: -20.050206579728140  |grad|_K:  3.469e-05  alpha:  0.000e+00
	FillingsUpdate:  mu: -0.099593866  nElectrons: 9.000000
	SubspaceRotationAdjust: set factor to 0.925
	SubspaceRotationAdjust: resetting CG because factor has changed by 0.0961272
ElecMinimize: 	State modified externally: resetting search direction.
ElecMinimize: Iter:  32  F: -20.052715485555115  |grad|_K:  1.615e-05  alpha:  5.747e-01
	FillingsUpdate:  mu: -0.119538194  nElectrons: 9.000000
	SubspaceRotationAdjust: set factor to 0.989
ElecMinimize: Iter:  33  F: -20.054555729093352  |grad|_K:  1.034e-05  alpha:  1.017e+00  linmin: -8.982e-03  t[s]:     87.66
ElecMinimize: 	Wrong curvature in test step, increasing alphaT to 3.049527e+00.
	FillingsUpdate:  mu: -0.107100572  nElectrons: 9.000000
	SubspaceRotationAdjust: set factor to 1.02
ElecMinimize: Iter:  34  F: -20.056582781952873  |grad|_K:  8.342e-06  alpha: -3.218e+00  linmin: -6.477e-02  t[s]:     89.24
ElecMinimize: 	Wrong curvature in test step, increasing alphaT to 3.000000e+00.
	FillingsUpdate:  mu: -0.101099134  nElectrons: 9.000000
	SubspaceRotationAdjust: set factor to 1.19
ElecMinimize: Iter:  35  F: -20.058213594059186  |grad|_K:  8.420e-06  alpha: -4.480e+01  linmin: -1.067e-01  t[s]:     90.83
ElecMinimize: 	Predicted alpha/alphaT>3.000000, increasing alphaT to 3.000000e+00.
	FillingsUpdate:  mu: -0.109296173  nElectrons: 9.000000
	SubspaceRotationAdjust: set factor to 1.12
ElecMinimize: Iter:  36  F: -20.060540193756200  |grad|_K:  9.558e-06  alpha:  1.143e+00  linmin: -3.064e-03  t[s]:     93.05
	FillingsUpdate:  mu: -0.110493110  nElectrons: 9.000000
	SubspaceRotationAdjust: set factor to 1.17
ElecMinimize: Iter:  37  F: -20.060914344270003  |grad|_K:  8.207e-06  alpha:  3.237e-01  linmin: -2.692e-02  t[s]:     94.74
ElecMinimize: 	Predicted alpha/alphaT>3.000000, increasing alphaT to 9.711854e-01.
	FillingsUpdate:  mu: -0.111526759  nElectrons: 9.000000
	SubspaceRotationAdjust: set factor to 1.32
ElecMinimize: Iter:  38  F: -20.061244097398173  |grad|_K:  7.810e-06  alpha:  3.429e-01  linmin: -6.168e-03  t[s]:     96.96
	FillingsUpdate:  mu: -0.109038925  nElectrons: 9.000000
	SubspaceRotationAdjust: set factor to 1.31
ElecMinimize: Iter:  39  F: -20.061407604669018  |grad|_K:  8.746e-06  alpha:  4.738e-01  linmin:  6.902e-03  t[s]:     98.67
	FillingsUpdate:  mu: -0.109049152  nElectrons: 9.000000
	SubspaceRotationAdjust: set factor to 1.63
ElecMinimize: Iter:  40  F: -20.061409713016879  |grad|_K:  7.766e-06  alpha:  2.384e-02  linmin: -3.669e-04  t[s]:    100.39
ElecMinimize: 	Predicted alpha/alphaT>3.000000, increasing alphaT to 7.151264e-02.
	FillingsUpdate:  mu: -0.109069347  nElectrons: 9.000000
	SubspaceRotationAdjust: set factor to 1.86
ElecMinimize: Iter:  41  F: -20.061423926558909  |grad|_K:  7.400e-06  alpha:  2.336e-02  linmin: -1.498e-02  t[s]:    102.64
	FillingsUpdate:  mu: -0.110485136  nElectrons: 9.000000
	SubspaceRotationAdjust: set factor to 2.21
ElecMinimize: Iter:  42  F: -20.061428565773220  |grad|_K:  7.675e-06  alpha:  7.161e-03  linmin: -2.669e-02  t[s]:    104.34
	FillingsUpdate:  mu: -0.110479844  nElectrons: 9.000000
	SubspaceRotationAdjust: set factor to 2.65
ElecMinimize: Iter:  43  F: -20.061429141791294  |grad|_K:  7.126e-06  alpha:  5.381e-03  linmin: -4.150e-02  t[s]:    106.05
	FillingsUpdate:  mu: -0.110482510  nElectrons: 9.000000
	SubspaceRotationAdjust: set factor to 3.22
ElecMinimize: Iter:  44  F: -20.061431344022353  |grad|_K:  7.243e-06  alpha:  1.077e-03  linmin: -3.453e-02  t[s]:    107.77
ElecMinimize: 	Predicted alpha/alphaT>3.000000, increasing alphaT to 3.232425e-03.
ElecMinimize: 	Predicted alpha/alphaT>3.000000, increasing alphaT to 9.697276e-03.
	FillingsUpdate:  mu: -0.110414933  nElectrons: 9.000000
	SubspaceRotationAdjust: set factor to 4.06
ElecMinimize: Iter:  45  F: -20.061439014524090  |grad|_K:  6.970e-06  alpha:  8.343e-03  linmin: -2.825e-02  t[s]:    110.51
ElecMinimize: 	Predicted alpha/alphaT>3.000000, increasing alphaT to 2.503032e-02.
ElecMinimize: 	Predicted alpha/alphaT>3.000000, increasing alphaT to 7.509097e-02.
ElecMinimize: 	Step increased F by 7.299419e-05, reducing alpha to 1.779980e-02.
	FillingsUpdate:  mu: -0.110478308  nElectrons: 9.000000
	SubspaceRotationAdjust: set factor to 5.11
ElecMinimize: Iter:  46  F: -20.061487748126051  |grad|_K:  6.500e-06  alpha:  1.780e-02  linmin: -2.353e-02  t[s]:    114.38
ElecMinimize: 	Predicted alpha/alphaT>3.000000, increasing alphaT to 5.339941e-02.
ElecMinimize: 	Step increased F by 1.247011e-04, reducing alpha to 1.522362e-02.
	FillingsUpdate:  mu: -0.110529133  nElectrons: 9.000000
	SubspaceRotationAdjust: set factor to 6.16
ElecMinimize: Iter:  47  F: -20.061527574136225  |grad|_K:  6.038e-06  alpha:  1.522e-02  linmin: -2.001e-02  t[s]:    117.76
ElecMinimize: 	Predicted alpha/alphaT>3.000000, increasing alphaT to 4.567087e-02.
ElecMinimize: 	Step increased F by 1.866424e-05, reducing alpha to 1.209986e-02.
	FillingsUpdate:  mu: -0.110564683  nElectrons: 9.000000
	SubspaceRotationAdjust: set factor to 7.01
	SubspaceRotationAdjust: resetting CG because factor has changed by 7.57361
ElecMinimize: 	State modified externally: resetting search direction.
ElecMinimize: Iter:  48  F: -20.061557228869791  |grad|_K:  5.687e-06  alpha:  1.210e-02
ElecMinimize: 	Predicted alpha/alphaT>3.000000, increasing alphaT to 3.629957e-02.
ElecMinimize: 	Wrong curvature in test step, increasing alphaT to 1.088987e-01.
	FillingsUpdate:  mu: -0.110650428  nElectrons: 9.000000
	SubspaceRotationAdjust: set factor to 5.4
ElecMinimize: Iter:  49  F: -20.061592889793239  |grad|_K:  9.303e-06  alpha: -1.122e-02  linmin: -3.666e-02  t[s]:    124.21
ElecMinimize: 	Step increased F by 1.221002e-04, reducing alpha to 2.153279e-02.
	FillingsUpdate:  mu: -0.110848233  nElectrons: 9.000000
	SubspaceRotationAdjust: set factor to 5.52
ElecMinimize: Iter:  50  F: -20.061657592794301  |grad|_K:  5.703e-06  alpha:  2.153e-02  linmin: -1.356e-02  t[s]:    127.06
ElecMinimize: 	Predicted alpha/alphaT>3.000000, increasing alphaT to 6.459837e-02.
ElecMinimize: 	Predicted alpha/alphaT>3.000000, increasing alphaT to 1.937951e-01.
	FillingsUpdate:  mu: -0.112143453  nElectrons: 9.000000
	SubspaceRotationAdjust: set factor to 5.03
ElecMinimize: Iter:  51  F: -20.061815622160537  |grad|_K:  7.183e-06  alpha:  2.710e-01  linmin: -1.437e-02  t[s]:    129.81
	FillingsUpdate:  mu: -0.106487790  nElectrons: 9.000000
	SubspaceRotationAdjust: set factor to 3.38
ElecMinimize: Iter:  52  F: -20.061979644332464  |grad|_K:  7.160e-06  alpha:  2.539e-01  linmin: -6.767e-02  t[s]:    131.53
ElecMinimize: 	Wrong curvature in test step, increasing alphaT to 7.616826e-01.
	FillingsUpdate:  mu: -0.106755743  nElectrons: 9.000000
	SubspaceRotationAdjust: set factor to 2.74
ElecMinimize: Iter:  53  F: -20.062387279685229  |grad|_K:  2.988e-06  alpha: -1.413e+00  linmin: -3.482e-02  t[s]:    133.10
	FillingsUpdate:  mu: -0.110515359  nElectrons: 9.000000
	SubspaceRotationAdjust: set factor to 1.4
ElecMinimize: Iter:  54  F: -20.062438891849187  |grad|_K:  1.278e-05  alpha:  4.167e-01  linmin:  1.818e-02  t[s]:    134.80
ElecMinimize: 	Bad step direction: g.d > 0.
ElecMinimize: 	Undoing step.
ElecMinimize: 	Step failed: resetting search direction.
	FillingsUpdate:  mu: -0.110515359  nElectrons: 9.000000
	SubspaceRotationAdjust: set factor to 0.737
	SubspaceRotationAdjust: resetting CG because factor has changed by 0.105152
ElecMinimize: 	State modified externally: resetting search direction.
ElecMinimize: Iter:  55  F: -20.062438891849187  |grad|_K:  6.848e-06  alpha:  0.000e+00
	FillingsUpdate:  mu: -0.109362135  nElectrons: 9.000000
	SubspaceRotationAdjust: set factor to 0.979
ElecMinimize: Iter:  56  F: -20.062460529867892  |grad|_K:  1.864e-06  alpha:  2.392e-01  linmin: -1.294e-02  t[s]:    138.71
ElecMinimize: 	Predicted alpha/alphaT>3.000000, increasing alphaT to 7.174515e-01.
ElecMinimize: 	Predicted alpha/alphaT>3.000000, increasing alphaT to 2.152355e+00.
	FillingsUpdate:  mu: -0.106839394  nElectrons: 9.000000
	SubspaceRotationAdjust: set factor to 0.916
ElecMinimize: Iter:  57  F: -20.062515031386937  |grad|_K:  2.294e-06  alpha:  2.547e+00  linmin: -8.882e-04  t[s]:    141.45
	FillingsUpdate:  mu: -0.107657054  nElectrons: 9.000000
	SubspaceRotationAdjust: set factor to 1.25
ElecMinimize: Iter:  58  F: -20.062553928616584  |grad|_K:  1.266e-06  alpha:  9.475e-01  linmin: -6.463e-03  t[s]:    143.18
	FillingsUpdate:  mu: -0.110583524  nElectrons: 9.000000
	SubspaceRotationAdjust: set factor to 1.29
ElecMinimize: Iter:  59  F: -20.062564998779148  |grad|_K:  1.136e-06  alpha:  9.687e-01  linmin: -2.726e-03  t[s]:    144.89
	FillingsUpdate:  mu: -0.109956556  nElectrons: 9.000000
	SubspaceRotationAdjust: set factor to 1.16
ElecMinimize: Iter:  60  F: -20.062574084216294  |grad|_K:  8.500e-07  alpha:  9.562e-01  linmin:  1.559e-04  t[s]:    146.60
	FillingsUpdate:  mu: -0.107374298  nElectrons: 9.000000
	SubspaceRotationAdjust: set factor to 1.48
ElecMinimize: Iter:  61  F: -20.062576077174079  |grad|_K:  9.880e-07  alpha:  6.300e-01  linmin: -9.494e-04  t[s]:    148.34
	FillingsUpdate:  mu: -0.107403860  nElectrons: 9.000000
	SubspaceRotationAdjust: set factor to 1.6
ElecMinimize: Iter:  62  F: -20.062578683445519  |grad|_K:  8.078e-07  alpha:  4.293e-01  linmin: -1.690e-03  t[s]:    150.04
	FillingsUpdate:  mu: -0.108335789  nElectrons: 9.000000
	SubspaceRotationAdjust: set factor to 3.54
ElecMinimize: Iter:  63  F: -20.062581297033226  |grad|_K:  5.721e-07  alpha:  3.286e-01  linmin: -3.162e-03  t[s]:    151.76
ElecMinimize: 	Step increased F by 9.251872e-07, reducing alpha to 1.238597e-02.
	FillingsUpdate:  mu: -0.108587018  nElectrons: 9.000000
	SubspaceRotationAdjust: set factor to 3.69
ElecMinimize: Iter:  64  F: -20.062581346929758  |grad|_K:  6.514e-07  alpha:  1.239e-02  linmin: -3.850e-04  t[s]:    154.63
	FillingsUpdate:  mu: -0.108791897  nElectrons: 9.000000
	SubspaceRotationAdjust: set factor to 2.51
ElecMinimize: Iter:  65  F: -20.062581370389292  |grad|_K:  8.941e-07  alpha:  8.542e-03  linmin:  2.644e-06  t[s]:    156.34
	FillingsUpdate:  mu: -0.109053372  nElectrons: 9.000000
	SubspaceRotationAdjust: set factor to 1.49
ElecMinimize: Iter:  66  F: -20.062581410149402  |grad|_K:  1.073e-06  alpha:  8.584e-03  linmin: -7.195e-05  t[s]:    158.05
	FillingsUpdate:  mu: -0.109408404  nElectrons: 9.000000
	SubspaceRotationAdjust: set factor to 0.824
ElecMinimize: Iter:  67  F: -20.062581519289612  |grad|_K:  1.126e-06  alpha:  1.480e-02  linmin: -2.292e-04  t[s]:    159.76
	FillingsUpdate:  mu: -0.109682254  nElectrons: 9.000000
	SubspaceRotationAdjust: set factor to 0.452
ElecMinimize: Iter:  68  F: -20.062581750466293  |grad|_K:  9.620e-07  alpha:  2.710e-02  linmin: -7.014e-05  t[s]:    161.47
	FillingsUpdate:  mu: -0.109644849  nElectrons: 9.000000
	SubspaceRotationAdjust: set factor to 0.276
ElecMinimize: Iter:  69  F: -20.062581967989335  |grad|_K:  7.958e-07  alpha:  3.896e-02  linmin:  2.784e-06  t[s]:    163.19
	FillingsUpdate:  mu: -0.109137001  nElectrons: 9.000000
	SubspaceRotationAdjust: set factor to 0.299
ElecMinimize: Iter:  70  F: -20.062582204211470  |grad|_K:  6.557e-07  alpha:  7.288e-02  linmin:  3.560e-04  t[s]:    164.91
	FillingsUpdate:  mu: -0.109082759  nElectrons: 9.000000
	SubspaceRotationAdjust: set factor to 0.331
ElecMinimize: Iter:  71  F: -20.062582226782141  |grad|_K:  6.566e-07  alpha:  6.494e-03  linmin: -9.056e-04  t[s]:    166.62
ElecMinimize: 	Predicted alpha/alphaT>3.000000, increasing alphaT to 1.948197e-02.
ElecMinimize: 	Step increased F by 1.067804e-06, reducing alpha to 5.833109e-03.
	FillingsUpdate:  mu: -0.109017067  nElectrons: 9.000000
	SubspaceRotationAdjust: set factor to 0.373
ElecMinimize: Iter:  72  F: -20.062582272324168  |grad|_K:  6.511e-07  alpha:  5.833e-03  linmin: -2.091e-03  t[s]:    169.98
ElecMinimize: 	Predicted alpha/alphaT>3.000000, increasing alphaT to 1.749933e-02.
ElecMinimize: 	Predicted alpha/alphaT>3.000000, increasing alphaT to 5.249798e-02.
	FillingsUpdate:  mu: -0.108850264  nElectrons: 9.000000
	SubspaceRotationAdjust: set factor to 0.488
ElecMinimize: Iter:  73  F: -20.062582401891838  |grad|_K:  6.040e-07  alpha:  1.181e-02  linmin: -3.220e-03  t[s]:    172.75
ElecMinimize: 	Predicted alpha/alphaT>3.000000, increasing alphaT to 3.543192e-02.
	FillingsUpdate:  mu: -0.108237788  nElectrons: 9.000000
	SubspaceRotationAdjust: set factor to 0.524
ElecMinimize: Iter:  74  F: -20.062582605674468  |grad|_K:  5.334e-07  alpha:  3.612e-02  linmin:  3.638e-02  t[s]:    174.99
ElecMinimize: 	Bad step direction: g.d > 0.
ElecMinimize: 	Undoing step.
ElecMinimize: 	Step failed: resetting search direction.
	FillingsUpdate:  mu: -0.108237788  nElectrons: 9.000000
	SubspaceRotationAdjust: set factor to 0.687
ElecMinimize: Iter:  75  F: -20.062582605674457  |grad|_K:  5.389e-07  alpha:  0.000e+00
ElecMinimize: 	Predicted alpha/alphaT>3.000000, increasing alphaT to 1.083555e-01.
ElecMinimize: 	Predicted alpha/alphaT>3.000000, increasing alphaT to 3.250664e-01.
	FillingsUpdate:  mu: -0.108504682  nElectrons: 9.000000
	SubspaceRotationAdjust: set factor to 0.562
ElecMinimize: Iter:  76  F: -20.062583471705754  |grad|_K:  2.902e-07  alpha:  4.712e-01  linmin: -9.718e-03  t[s]:    178.93
	FillingsUpdate:  mu: -0.107936957  nElectrons: 9.000000
	SubspaceRotationAdjust: set factor to 0.319
ElecMinimize: Iter:  77  F: -20.062585291223883  |grad|_K:  1.242e-06  alpha:  1.087e+00  linmin: -4.036e-03  t[s]:    180.65
	FillingsUpdate:  mu: -0.108226398  nElectrons: 9.000000
	SubspaceRotationAdjust: set factor to 0.405
ElecMinimize: Iter:  78  F: -20.062591486966678  |grad|_K:  8.814e-07  alpha:  7.542e-02  linmin: -1.241e-02  t[s]:    182.35
	FillingsUpdate:  mu: -0.108249105  nElectrons: 9.000000
	SubspaceRotationAdjust: set factor to 0.423
ElecMinimize: Iter:  79  F: -20.062593565778112  |grad|_K:  8.816e-07  alpha:  1.228e-01  linmin: -8.175e-03  t[s]:    184.07
	FillingsUpdate:  mu: -0.108360810  nElectrons: 9.000000
	SubspaceRotationAdjust: set factor to 0.508
ElecMinimize: Iter:  80  F: -20.062595738876876  |grad|_K:  9.082e-07  alpha:  2.237e-01  linmin: -3.624e-03  t[s]:    185.78
	FillingsUpdate:  mu: -0.108468619  nElectrons: 9.000000
	SubspaceRotationAdjust: set factor to 0.673
ElecMinimize: Iter:  81  F: -20.062596016035304  |grad|_K:  9.134e-07  alpha:  1.550e-02  linmin: -8.165e-03  t[s]:    187.50
ElecMinimize: 	Predicted alpha/alphaT>3.000000, increasing alphaT to 4.651123e-02.
	FillingsUpdate:  mu: -0.108578965  nElectrons: 9.000000
	SubspaceRotationAdjust: set factor to 0.496
ElecMinimize: Iter:  82  F: -20.062597247207027  |grad|_K:  8.471e-07  alpha:  1.112e-01  linmin: -4.409e-03  t[s]:    189.72
	FillingsUpdate:  mu: -0.108672650  nElectrons: 9.000000
	SubspaceRotationAdjust: set factor to 0.324
ElecMinimize: Iter:  83  F: -20.062597808814957  |grad|_K:  6.917e-07  alpha:  9.848e-02  linmin:  1.604e-06  t[s]:    191.42
	FillingsUpdate:  mu: -0.108740504  nElectrons: 9.000000
	SubspaceRotationAdjust: set factor to 0.247
ElecMinimize: Iter:  84  F: -20.062598082234551  |grad|_K:  5.796e-07  alpha:  9.854e-02  linmin:  5.332e-06  t[s]:    193.13
	FillingsUpdate:  mu: -0.108809278  nElectrons: 9.000000
	SubspaceRotationAdjust: set factor to 0.262
ElecMinimize: Iter:  85  F: -20.062598355922120  |grad|_K:  5.464e-07  alpha:  1.406e-01  linmin:  1.699e-05  t[s]:    194.83
	FillingsUpdate:  mu: -0.108869634  nElectrons: 9.000000
	SubspaceRotationAdjust: set factor to 0.349
ElecMinimize: Iter:  86  F: -20.062598635261669  |grad|_K:  5.450e-07  alpha:  1.617e-01  linmin:  2.605e-05  t[s]:    196.55
	FillingsUpdate:  mu: -0.108903373  nElectrons: 9.000000
	SubspaceRotationAdjust: set factor to 0.476
ElecMinimize: Iter:  87  F: -20.062598882190777  |grad|_K:  5.237e-07  alpha:  1.437e-01  linmin:  2.240e-05  t[s]:    198.26
ElecMinimize: 	Wrong curvature in test step, increasing alphaT to 4.311531e-01.
	FillingsUpdate:  mu: -0.108801037  nElectrons: 9.000000
	SubspaceRotationAdjust: set factor to 0.66
ElecMinimize: Iter:  88  F: -20.062599836568655  |grad|_K:  4.553e-07  alpha: -6.562e-02  linmin:  1.431e-03  t[s]:    199.85
	FillingsUpdate:  mu: -0.108787990  nElectrons: 9.000000
	SubspaceRotationAdjust: set factor to 0.892
ElecMinimize: Iter:  89  F: -20.062599919533604  |grad|_K:  4.337e-07  alpha:  8.197e-02  linmin: -3.713e-04  t[s]:    201.57
	FillingsUpdate:  mu: -0.108755680  nElectrons: 9.000000
	SubspaceRotationAdjust: set factor to 1.21
ElecMinimize: Iter:  90  F: -20.062600036819969  |grad|_K:  3.875e-07  alpha:  1.004e-01  linmin:  1.502e-05  t[s]:    203.30
	FillingsUpdate:  mu: -0.108720221  nElectrons: 9.000000
	SubspaceRotationAdjust: set factor to 1.54
ElecMinimize: Iter:  91  F: -20.062600111858522  |grad|_K:  3.510e-07  alpha:  8.642e-02  linmin:  3.458e-06  t[s]:    205.01
	FillingsUpdate:  mu: -0.108683717  nElectrons: 9.000000
	SubspaceRotationAdjust: set factor to 1.77
ElecMinimize: Iter:  92  F: -20.062600169112194  |grad|_K:  3.185e-07  alpha:  8.020e-02  linmin:  3.025e-06  t[s]:    206.72
	FillingsUpdate:  mu: -0.108648391  nElectrons: 9.000000
	SubspaceRotationAdjust: set factor to 1.89
ElecMinimize: Iter:  93  F: -20.062600215643840  |grad|_K:  3.014e-07  alpha:  7.922e-02  linmin:  2.179e-06  t[s]:    208.44
	FillingsUpdate:  mu: -0.108613804  nElectrons: 9.000000
	SubspaceRotationAdjust: set factor to 2.07
ElecMinimize: Iter:  94  F: -20.062600259514831  |grad|_K:  3.092e-07  alpha:  8.340e-02  linmin: -2.116e-07  t[s]:    210.15
	FillingsUpdate:  mu: -0.108578131  nElectrons: 9.000000
	SubspaceRotationAdjust: set factor to 2.58
ElecMinimize: Iter:  95  F: -20.062600309984393  |grad|_K:  3.492e-07  alpha:  9.093e-02  linmin: -4.104e-06  t[s]:    211.89
	FillingsUpdate:  mu: -0.108539710  nElectrons: 9.000000
	SubspaceRotationAdjust: set factor to 2.27
ElecMinimize: Iter:  96  F: -20.062600379944513  |grad|_K:  4.367e-07  alpha:  9.843e-02  linmin: -7.457e-06  t[s]:    213.59
	FillingsUpdate:  mu: -0.108539649  nElectrons: 9.000000
	SubspaceRotationAdjust: set factor to 2.11
ElecMinimize: Iter:  97  F: -20.062600380271974  |grad|_K:  4.217e-07  alpha:  1.474e-04  linmin: -9.993e-04  t[s]:    215.31
ElecMinimize: 	Wrong curvature in test step, increasing alphaT to 4.422921e-04.
	FillingsUpdate:  mu: -0.108539618  nElectrons: 9.000000
	SubspaceRotationAdjust: set factor to 2.04
ElecMinimize: Iter:  98  F: -20.062600380882476  |grad|_K:  4.139e-07  alpha: -1.563e-01  linmin: -2.133e-03  t[s]:    216.90
	FillingsUpdate:  mu: -0.108539537  nElectrons: 9.000000
	SubspaceRotationAdjust: set factor to 2.01
ElecMinimize: Iter:  99  F: -20.062600397341136  |grad|_K:  4.081e-07  alpha:  2.769e-03  linmin: -3.365e-03  t[s]:    218.62
ElecMinimize: 	Predicted alpha/alphaT>3.000000, increasing alphaT to 8.308225e-03.
ElecMinimize: 	Predicted alpha/alphaT>3.000000, increasing alphaT to 2.492468e-02.
ElecMinimize: 	Predicted alpha/alphaT>3.000000, increasing alphaT to 7.477403e-02.
ElecMinimize: 	Step increased F by 6.107818e-05, reducing alpha to 2.674433e-02.
	FillingsUpdate:  mu: -0.108543318  nElectrons: 9.000000
	SubspaceRotationAdjust: set factor to 2.29
ElecMinimize: Iter: 100  F: -20.062600592540186  |grad|_K:  3.769e-07  alpha:  2.674e-02  linmin: -4.334e-03  t[s]:    222.52
ElecMinimize: 	Predicted alpha/alphaT>3.000000, increasing alphaT to 8.023298e-02.
ElecMinimize: 	Predicted alpha/alphaT>3.000000, increasing alphaT to 2.406989e-01.
	FillingsUpdate:  mu: -0.108544310  nElectrons: 9.000000
	SubspaceRotationAdjust: set factor to 2.48
ElecMinimize: Iter: 101  F: -20.062600619513642  |grad|_K:  3.826e-07  alpha:  3.601e-03  linmin: -5.857e-03  t[s]:    225.29
ElecMinimize: 	Predicted alpha/alphaT>3.000000, increasing alphaT to 1.080437e-02.
ElecMinimize: 	Predicted alpha/alphaT>3.000000, increasing alphaT to 3.241311e-02.
ElecMinimize: 	Predicted alpha/alphaT>3.000000, increasing alphaT to 9.723933e-02.
ElecMinimize: 	Step increased F by 5.954684e-05, reducing alpha to 1.926079e-02.
	FillingsUpdate:  mu: -0.108552856  nElectrons: 9.000000
	SubspaceRotationAdjust: set factor to 3.11
ElecMinimize: Iter: 102  F: -20.062600790754317  |grad|_K:  3.503e-07  alpha:  1.926e-02  linmin: -6.977e-03  t[s]:    229.17
ElecMinimize: 	Predicted alpha/alphaT>3.000000, increasing alphaT to 5.778236e-02.
	FillingsUpdate:  mu: -0.108639449  nElectrons: 9.000000
	SubspaceRotationAdjust: set factor to 2.24
ElecMinimize: Iter: 103  F: -20.062601531457158  |grad|_K:  3.826e-07  alpha:  1.728e-01  linmin: -1.735e-04  t[s]:    231.41
	FillingsUpdate:  mu: -0.108649023  nElectrons: 9.000000
	SubspaceRotationAdjust: set factor to 1.77
ElecMinimize: Iter: 104  F: -20.062601560159379  |grad|_K:  3.811e-07  alpha:  1.996e-02  linmin: -9.012e-04  t[s]:    233.12
ElecMinimize: 	Predicted alpha/alphaT>3.000000, increasing alphaT to 5.986653e-02.
	FillingsUpdate:  mu: -0.108682076  nElectrons: 9.000000
	SubspaceRotationAdjust: set factor to 1.24
ElecMinimize: Iter: 105  F: -20.062601674907352  |grad|_K:  4.590e-07  alpha:  8.598e-02  linmin: -4.097e-06  t[s]:    235.35
	FillingsUpdate:  mu: -0.108701387  nElectrons: 9.000000
	SubspaceRotationAdjust: set factor to 0.935
ElecMinimize: Iter: 106  F: -20.062601736758626  |grad|_K:  4.600e-07  alpha:  4.520e-02  linmin: -1.370e-04  t[s]:    237.08
	FillingsUpdate:  mu: -0.108723905  nElectrons: 9.000000
	SubspaceRotationAdjust: set factor to 0.708
ElecMinimize: Iter: 107  F: -20.062601829102533  |grad|_K:  5.136e-07  alpha:  7.067e-02  linmin:  1.807e-04  t[s]:    238.80
	FillingsUpdate:  mu: -0.108736354  nElectrons: 9.000000
	SubspaceRotationAdjust: set factor to 0.542
ElecMinimize: Iter: 108  F: -20.062601885689876  |grad|_K:  5.450e-07  alpha:  4.405e-02  linmin: -4.701e-06  t[s]:    240.50
	FillingsUpdate:  mu: -0.108741391  nElectrons: 9.000000
	SubspaceRotationAdjust: set factor to 0.568
ElecMinimize: Iter: 109  F: -20.062601970670364  |grad|_K:  4.667e-07  alpha:  4.880e-02  linmin: -2.819e-05  t[s]:    242.21
	FillingsUpdate:  mu: -0.108739089  nElectrons: 9.000000
	SubspaceRotationAdjust: set factor to 0.622
ElecMinimize: Iter: 110  F: -20.062602061844565  |grad|_K:  4.543e-07  alpha:  6.759e-02  linmin: -8.025e-05  t[s]:    243.92
ElecMinimize: 	Step increased F by 3.292409e-04, reducing alpha to 8.450891e-03.
	FillingsUpdate:  mu: -0.108737745  nElectrons: 9.000000
	SubspaceRotationAdjust: set factor to 0.646
ElecMinimize: Iter: 111  F: -20.062602082774376  |grad|_K:  4.606e-07  alpha:  8.451e-03  linmin: -8.918e-04  t[s]:    246.76
ElecMinimize: 	Predicted alpha/alphaT>3.000000, increasing alphaT to 2.535267e-02.
ElecMinimize: 	Predicted alpha/alphaT>3.000000, increasing alphaT to 7.605802e-02.
ElecMinimize: 	Step increased F by 3.748248e-04, reducing alpha to 1.250005e-02.
	FillingsUpdate:  mu: -0.108733991  nElectrons: 9.000000
	SubspaceRotationAdjust: set factor to 0.649
ElecMinimize: Iter: 112  F: -20.062602140617454  |grad|_K:  4.545e-07  alpha:  1.250e-02  linmin: -1.663e-03  t[s]:    250.67
ElecMinimize: 	Predicted alpha/alphaT>3.000000, increasing alphaT to 3.750014e-02.
ElecMinimize: 	Predicted alpha/alphaT>3.000000, increasing alphaT to 1.125004e-01.
	FillingsUpdate:  mu: -0.108733943  nElectrons: 9.000000
	SubspaceRotationAdjust: set factor to 0.65
ElecMinimize: Iter: 113  F: -20.062602141373450  |grad|_K:  4.548e-07  alpha:  1.135e-04  linmin: -2.569e-03  t[s]:    253.41
ElecMinimize: 	Wrong curvature in test step, increasing alphaT to 3.404555e-04.
	FillingsUpdate:  mu: -0.108733879  nElectrons: 9.000000
	SubspaceRotationAdjust: set factor to 0.65
ElecMinimize: Iter: 114  F: -20.062602142403851  |grad|_K:  4.549e-07  alpha: -5.269e-02  linmin: -3.436e-03  t[s]:    255.00
	FillingsUpdate:  mu: -0.108733117  nElectrons: 9.000000
	SubspaceRotationAdjust: set factor to 0.648
ElecMinimize: Iter: 115  F: -20.062602154939601  |grad|_K:  4.527e-07  alpha:  1.098e-03  linmin: -4.247e-03  t[s]:    256.71
ElecMinimize: 	Predicted alpha/alphaT>3.000000, increasing alphaT to 3.292826e-03.
ElecMinimize: 	Predicted alpha/alphaT>3.000000, increasing alphaT to 9.878479e-03.
ElecMinimize: 	Predicted alpha/alphaT>3.000000, increasing alphaT to 2.963544e-02.
	FillingsUpdate:  mu: -0.108624325  nElectrons: 9.000000
	SubspaceRotationAdjust: set factor to 0.748
ElecMinimize: Iter: 116  F: -20.062603053524494  |grad|_K:  2.522e-07  alpha:  1.322e-01  linmin:  4.799e-05  t[s]:    259.44
	FillingsUpdate:  mu: -0.108607727  nElectrons: 9.000000
	SubspaceRotationAdjust: set factor to 1.04
ElecMinimize: Iter: 117  F: -20.062603078250682  |grad|_K:  2.559e-07  alpha:  6.919e-02  linmin: -6.544e-07  t[s]:    261.16
	FillingsUpdate:  mu: -0.108593821  nElectrons: 9.000000
	SubspaceRotationAdjust: set factor to 1.3
ElecMinimize: Iter: 118  F: -20.062603103556238  |grad|_K:  2.597e-07  alpha:  6.657e-02  linmin:  7.385e-07  t[s]:    262.88
	FillingsUpdate:  mu: -0.108584698  nElectrons: 9.000000
	SubspaceRotationAdjust: set factor to 1.56
ElecMinimize: Iter: 119  F: -20.062603126371222  |grad|_K:  2.515e-07  alpha:  5.835e-02  linmin: -8.149e-08  t[s]:    264.60
	FillingsUpdate:  mu: -0.108580847  nElectrons: 9.000000
	SubspaceRotationAdjust: set factor to 1.74
ElecMinimize: Iter: 120  F: -20.062603146455686  |grad|_K:  2.390e-07  alpha:  5.473e-02  linmin: -6.985e-07  t[s]:    266.31
	FillingsUpdate:  mu: -0.108582181  nElectrons: 9.000000
	SubspaceRotationAdjust: set factor to 1.93
ElecMinimize: Iter: 121  F: -20.062603164392385  |grad|_K:  2.289e-07  alpha:  5.406e-02  linmin: -1.197e-06  t[s]:    268.02
	FillingsUpdate:  mu: -0.108588533  nElectrons: 9.000000
	SubspaceRotationAdjust: set factor to 2.28
ElecMinimize: Iter: 122  F: -20.062603181278313  |grad|_K:  2.259e-07  alpha:  5.540e-02  linmin: -1.621e-06  t[s]:    269.73
	FillingsUpdate:  mu: -0.108599891  nElectrons: 9.000000
	SubspaceRotationAdjust: set factor to 2.53
ElecMinimize: Iter: 123  F: -20.062603198261655  |grad|_K:  2.346e-07  alpha:  5.717e-02  linmin: -1.613e-06  t[s]:    271.44
	FillingsUpdate:  mu: -0.108616165  nElectrons: 9.000000
	SubspaceRotationAdjust: set factor to 2.17
ElecMinimize: Iter: 124  F: -20.062603216294001  |grad|_K:  2.468e-07  alpha:  5.627e-02  linmin: -1.127e-06  t[s]:    273.15
	FillingsUpdate:  mu: -0.108635875  nElectrons: 9.000000
	SubspaceRotationAdjust: set factor to 1.94
ElecMinimize: Iter: 125  F: -20.062603235277770  |grad|_K:  2.393e-07  alpha:  5.360e-02  linmin: -5.252e-07  t[s]:    274.86
	FillingsUpdate:  mu: -0.108656155  nElectrons: 9.000000
	SubspaceRotationAdjust: set factor to 2.09
ElecMinimize: Iter: 126  F: -20.062603254486547  |grad|_K:  2.328e-07  alpha:  5.777e-02  linmin: -2.696e-07  t[s]:    276.56
	FillingsUpdate:  mu: -0.108674369  nElectrons: 9.000000
	SubspaceRotationAdjust: set factor to 2.85
ElecMinimize: Iter: 127  F: -20.062603273670984  |grad|_K:  2.349e-07  alpha:  6.100e-02  linmin: -2.356e-07  t[s]:    278.27
	FillingsUpdate:  mu: -0.108688069  nElectrons: 9.000000
	SubspaceRotationAdjust: set factor to 3.68
ElecMinimize: Iter: 128  F: -20.062603292397618  |grad|_K:  2.412e-07  alpha:  5.847e-02  linmin: -2.309e-07  t[s]:    279.99
	FillingsUpdate:  mu: -0.108695165  nElectrons: 9.000000
	SubspaceRotationAdjust: set factor to 4.58
ElecMinimize: Iter: 129  F: -20.062603309812420  |grad|_K:  2.393e-07  alpha:  5.160e-02  linmin:  1.375e-07  t[s]:    281.70
	FillingsUpdate:  mu: -0.108694986  nElectrons: 9.000000
	SubspaceRotationAdjust: set factor to 5.52
	SubspaceRotationAdjust: resetting CG because factor has changed by 7.49147
ElecMinimize: 	State modified externally: resetting search direction.
ElecMinimize: Iter: 130  F: -20.062603325696557  |grad|_K:  2.433e-07  alpha:  4.783e-02
ElecMinimize: 	Predicted alpha/alphaT>3.000000, increasing alphaT to 1.434756e-01.
	FillingsUpdate:  mu: -0.108632359  nElectrons: 9.000000
	SubspaceRotationAdjust: set factor to 4.01
ElecMinimize: Iter: 131  F: -20.062603456589272  |grad|_K:  2.111e-07  alpha:  3.871e-01  linmin:  3.025e-05  t[s]:    286.65
	FillingsUpdate:  mu: -0.108626004  nElectrons: 9.000000
	SubspaceRotationAdjust: set factor to 3.37
ElecMinimize: Iter: 132  F: -20.062603581354857  |grad|_K:  1.192e-07  alpha:  4.966e-01  linmin: -3.878e-06  t[s]:    288.36
ElecMinimize: 	Predicted alpha/alphaT>3.000000, increasing alphaT to 1.489834e+00.
ElecMinimize: 	Step increased F by 4.662294e-04, reducing alpha to 2.153590e-01.
	FillingsUpdate:  mu: -0.108626077  nElectrons: 9.000000
	SubspaceRotationAdjust: set factor to 3.49
ElecMinimize: Iter: 133  F: -20.062603615093497  |grad|_K:  1.107e-07  alpha:  2.154e-01  linmin: -1.502e-03  t[s]:    291.72
ElecMinimize: 	Predicted alpha/alphaT>3.000000, increasing alphaT to 6.460769e-01.
	FillingsUpdate:  mu: -0.108633017  nElectrons: 9.000000
	SubspaceRotationAdjust: set factor to 3.4
ElecMinimize: Iter: 134  F: -20.062603766438720  |grad|_K:  1.430e-07  alpha:  1.121e+00  linmin:  7.158e-07  t[s]:    293.95
	FillingsUpdate:  mu: -0.108633035  nElectrons: 9.000000
	SubspaceRotationAdjust: set factor to 4.26
ElecMinimize: Iter: 135  F: -20.062603766569168  |grad|_K:  1.425e-07  alpha:  5.498e-04  linmin: -8.535e-04  t[s]:    295.67
ElecMinimize: 	Predicted alpha/alphaT>3.000000, increasing alphaT to 1.649342e-03.
ElecMinimize: 	Wrong curvature in test step, increasing alphaT to 4.948027e-03.
	FillingsUpdate:  mu: -0.108633126  nElectrons: 9.000000
	SubspaceRotationAdjust: set factor to 5.24
ElecMinimize: Iter: 136  F: -20.062603767345578  |grad|_K:  1.459e-07  alpha: -2.574e+00  linmin: -8.191e-04  t[s]:    297.78
	FillingsUpdate:  mu: -0.108633143  nElectrons: 9.000000
	SubspaceRotationAdjust: set factor to 6.66
ElecMinimize: Iter: 137  F: -20.062603767486731  |grad|_K:  1.501e-07  alpha:  1.933e-04  linmin: -7.531e-04  t[s]:    299.51
ElecMinimize: 	Wrong curvature in test step, increasing alphaT to 5.797784e-04.
	FillingsUpdate:  mu: -0.108633169  nElectrons: 9.000000
	SubspaceRotationAdjust: set factor to 8.73
ElecMinimize: Iter: 138  F: -20.062603767691641  |grad|_K:  1.559e-07  alpha: -5.550e-03  linmin: -6.915e-04  t[s]:    301.11
ElecMinimize: Converged (|Delta F|<1.000000e-08 for 4 iters).
Setting wave functions to eigenvectors of Hamiltonian

# Ionic positions in lattice coordinates:
ion Cs   0.000000000000000   0.000000000000000   0.000000000000000 0

# Forces in Lattice coordinates:
force Cs  -0.000000000000000   0.000000000000000   0.000000000000000 0

# Energy components:
   Eewald =      -31.1172863798839003
       EH =      -15.3096301219121198
     Eloc =       20.6104726074225475
      Enl =        3.4828554638945981
   Epulay =       -0.0000000205628162
      Exc =       -3.3598958668020367
       KE =        5.6308805800308352
-------------------------------------
     Etot =      -20.0626037378128927
       TS =        0.0000000298787482
-------------------------------------
        F =      -20.0626037676916411

IonicMinimize: Iter:   0  F: -20.062603767691641  |grad|_K:  0.000e+00  t[s]:    301.28
IonicMinimize: Converged (|grad|_K<1.000000e-04).

#--- Lowdin population analysis ---
# oxidation-state Cs +0.811

End date and time: Sun Jan 16 16:35:41 2022  (Duration: 0-0:05:01.33)
Done!
