1.13
--------------------------------------------------------------------------
The library attempted to open the following supporting CUDA libraries,
but each of them failed.  CUDA-aware support is disabled.
libcuda.so.1: cannot open shared object file: No such file or directory
libcuda.dylib: cannot open shared object file: No such file or directory
/usr/lib64/libcuda.so.1: cannot open shared object file: No such file or directory
/usr/lib64/libcuda.dylib: cannot open shared object file: No such file or directory
If you are not interested in CUDA-aware support, then run with
--mca opal_warn_on_missing_libcuda 0 to suppress this message.  If you are interested
in CUDA-aware support, then try setting LD_LIBRARY_PATH to the location
of libcuda.so.1 to get passed this issue.
--------------------------------------------------------------------------
--------------------------------------------------------------------------
No OpenFabrics connection schemes reported that they were able to be
used on a specific port.  As such, the openib BTL (OpenFabrics
support) will be disabled for this port.

  Local host:           d-18-9-4
  Local device:         mlx5_1
  Local port:           1
  CPCs attempted:       rdmacm, udcm
--------------------------------------------------------------------------

*************** JDFTx 1.6.0 (git hash 42ebbcc2) ***************

Start date and time: Sun Jan 16 16:30:39 2022
Executable jdftx with command-line: -i Cesium.in
Running on hosts (process indices):  d-18-9-4 (0-18)
Divided in process groups (process indices):  0 (0)  1 (1)  2 (2)  3 (3)  4 (4)  5 (5)  6 (6)  7 (7)  8 (8)  9 (9)  10 (10)  11 (11)  12 (12)  13 (13)  14 (14)  15 (15)  16 (16)  17 (17)  18 (18)
Resource initialization completed at t[s]:      0.00
Run totals: 19 processes, 48 threads, 0 GPUs


Input parsed successfully to the following command list (including defaults):

basis kpoint-dependent
coords-type Lattice
core-overlap-check vector
coulomb-interaction Slab 001
davidson-band-ratio 1.1
dump End None
dump-name $INPUT.$VAR
elec-cutoff 20
elec-eigen-algo Davidson
elec-ex-corr gga-PBE
elec-smearing Fermi 1e-05
electronic-minimize  \
	dirUpdateScheme      FletcherReeves \
	linminMethod         DirUpdateRecommended \
	nIterations          10000 \
	history              15 \
	knormThreshold       0 \
	energyDiffThreshold  1e-08 \
	nEnergyDiff          4 \
	alphaTstart          1 \
	alphaTmin            1e-10 \
	updateTestStepSize   yes \
	alphaTreduceFactor   0.1 \
	alphaTincreaseFactor 3 \
	nAlphaAdjustMax      3 \
	wolfeEnergy          0.0001 \
	wolfeGradient        0.9 \
	fdTest               no
exchange-regularization WignerSeitzTruncated
fluid None
fluid-ex-corr (null) lda-PZ
fluid-gummel-loop 10 1.000000e-05
fluid-minimize  \
	dirUpdateScheme      PolakRibiere \
	linminMethod         DirUpdateRecommended \
	nIterations          100 \
	history              15 \
	knormThreshold       0 \
	energyDiffThreshold  0 \
	nEnergyDiff          2 \
	alphaTstart          1 \
	alphaTmin            1e-10 \
	updateTestStepSize   yes \
	alphaTreduceFactor   0.1 \
	alphaTincreaseFactor 3 \
	nAlphaAdjustMax      3 \
	wolfeEnergy          0.0001 \
	wolfeGradient        0.9 \
	fdTest               no
fluid-solvent H2O 55.338 ScalarEOS \
	epsBulk 78.4 \
	pMol 0.92466 \
	epsInf 1.77 \
	Pvap 1.06736e-10 \
	sigmaBulk 4.62e-05 \
	Rvdw 2.61727 \
	Res 1.42 \
	tauNuc 343133 \
	poleEl 15 7 1
forces-output-coords Positions
ion Cs   0.000000000000000   0.000000000000000   0.000000000000000 0
ion-species SG15/$ID_ONCV_PBE.upf
ion-width 0
ionic-minimize  \
	dirUpdateScheme      L-BFGS \
	linminMethod         DirUpdateRecommended \
	nIterations          0 \
	history              15 \
	knormThreshold       0.0001 \
	energyDiffThreshold  1e-06 \
	nEnergyDiff          2 \
	alphaTstart          1 \
	alphaTmin            1e-10 \
	updateTestStepSize   yes \
	alphaTreduceFactor   0.1 \
	alphaTincreaseFactor 3 \
	nAlphaAdjustMax      3 \
	wolfeEnergy          0.0001 \
	wolfeGradient        0.9 \
	fdTest               no
kpoint   0.000000000000   0.000000000000   0.000000000000  1.00000000000000
kpoint-folding 48 48 1 
latt-move-scale 1 1 1
latt-scale 1.13 1.13 1 
lattice  \
	   4.727486978767153   -2.363743489383575    0.000000000000000  \
	  -0.000000000000000    4.094123819672498    0.000000000000000  \
	   0.000000000000000    0.000000000000000   40.000000000000000 
lattice-minimize  \
	dirUpdateScheme      L-BFGS \
	linminMethod         DirUpdateRecommended \
	nIterations          0 \
	history              15 \
	knormThreshold       0 \
	energyDiffThreshold  1e-06 \
	nEnergyDiff          2 \
	alphaTstart          1 \
	alphaTmin            1e-10 \
	updateTestStepSize   yes \
	alphaTreduceFactor   0.1 \
	alphaTincreaseFactor 3 \
	nAlphaAdjustMax      3 \
	wolfeEnergy          0.0001 \
	wolfeGradient        0.9 \
	fdTest               no
lcao-params -1 1e-06 1e-05
pcm-variant GLSSA13
spintype no-spin
subspace-rotation-factor 1 yes
symmetries automatic
symmetry-threshold 0.0001



---------- Setting up symmetries ----------

Found 24 point-group symmetries of the bravais lattice
Found 24 space-group symmetries with basis
Applied RMS atom displacement 0 bohrs to make symmetries exact.

---------- Initializing the Grid ----------
R = 
[      5.34206     -2.67103            0  ]
[            0      4.62636            0  ]
[            0            0           40  ]
unit cell volume = 988.572
G =
[    1.17617   0.679064         -0  ]
[          0    1.35813         -0  ]
[         -0         -0    0.15708  ]
Minimum fftbox size, Smin = [  24  24  164  ]
Chosen fftbox size, S = [  24  24  168  ]

---------- Exchange Correlation functional ----------
Initalized PBE GGA exchange.
Initalized PBE GGA correlation.

---------- Setting up pseudopotentials ----------
Width of ionic core gaussian charges (only for fluid interactions / plotting) set to 0

Reading pseudopotential file '/home/gridsan/aligho/DFT/build-Nov24/pseudopotentials/SG15/Cs_ONCV_PBE.upf':
  'Cs' pseudopotential, 'PBE' functional
  Generated using ONCVPSP code by D. R. Hamann
  Author: Martin Schlipf and Francois Gygi  Date: 150915.
  9 valence electrons, 3 orbitals, 6 projectors, 2414 radial grid points, with lMax = 2
  Transforming local potential to a uniform radial grid of dG=0.02 with 1563 points.
  Transforming nonlocal projectors to a uniform radial grid of dG=0.02 with 432 points.
    5S    l: 0   occupation:  2.0   eigenvalue: -0.982388
    5P    l: 1   occupation:  6.0   eigenvalue: -0.496786
    6S    l: 0   occupation:  1.0   eigenvalue: -0.076670
  Transforming atomic orbitals to a uniform radial grid of dG=0.02 with 432 points.
  Core radius for overlap checks: 2.06 bohrs.
  Reading pulay file /home/gridsan/aligho/DFT/build-Nov24/pseudopotentials/SG15/Cs_ONCV_PBE.pulay ... using dE_dnG = -1.008762e-04 computed for Ecut = 20.

Initialized 1 species with 1 total atoms.

Folded 1 k-points by 48x48x1 to 2304 k-points.

---------- Setting up k-points, bands, fillings ----------
Reduced to 217 k-points under symmetry. 
Computing the number of bands and number of electrons
Calculating initial fillings.
nElectrons:   9.000000   nBands: 6   nStates: 217

----- Setting up reduced wavefunction bases (one per k-point) -----
average nbasis = 4223.452 , ideal nbasis = 4223.254

---------- Setting up coulomb interaction ----------
Initialized slab truncation along lattice direction 001

---------- Setting up 2D ewald sum ----------
Optimum gaussian width for ewald sums = 2.965696 bohr.
Real space sums over 289 unit cells with max indices [  8  8  0  ]
Reciprocal space sums over 81 terms with max indices [  4  4  0  ]

---------- Allocating electronic variables ----------
Initializing wave functions:  linear combination of atomic orbitals
Note: number of bands (6) exceeds available atomic orbitals (5)
Cs pseudo-atom occupations:   s ( 2 1 )  p ( 6 )
	FillingsUpdate:  mu: -0.125623788  nElectrons: 9.000000
LCAOMinimize: Iter:   0  F: -19.8419661228311099  |grad|_K:  1.968e-04  alpha:  1.000e+00
	FillingsUpdate:  mu: -0.124557896  nElectrons: 9.000000
LCAOMinimize: Iter:   1  F: -19.8420961456153435  |grad|_K:  1.760e-05  alpha:  8.824e-01  linmin: -4.895e-02  cgtest:  1.187e+00  t[s]:      3.83
LCAOMinimize: Encountered beta<0, resetting CG.
[d-18-9-4:65048] 18 more processes have sent help message help-mpi-common-cuda.txt / dlopen failed
[d-18-9-4:65048] Set MCA parameter "orte_base_help_aggregate" to 0 to see all help / error messages
[d-18-9-4:65048] 18 more processes have sent help message help-mpi-btl-openib-cpc-base.txt / no cpcs for port
	FillingsUpdate:  mu: -0.124469147  nElectrons: 9.000000
LCAOMinimize: Iter:   2  F: -19.8420973291126934  |grad|_K:  3.065e-07  alpha:  9.755e-01  linmin: -4.384e-02  cgtest:  8.819e-01  t[s]:      5.19
LCAOMinimize: Encountered beta<0, resetting CG.
	FillingsUpdate:  mu: -0.124468034  nElectrons: 9.000000
LCAOMinimize: Iter:   3  F: -19.8420973294785163  |grad|_K:  1.047e-09  alpha:  9.949e-01  linmin: -3.793e-02  cgtest:  5.954e-01  t[s]:      6.54
LCAOMinimize: Encountered beta<0, resetting CG.
	FillingsUpdate:  mu: -0.124468035  nElectrons: 9.000000
LCAOMinimize: Iter:   4  F: -19.8420973294785696  |grad|_K:  9.732e-10  alpha:  7.012e-02  linmin: -3.637e-02  cgtest:  1.000e+00  t[s]:      7.87
LCAOMinimize: Encountered beta<0, resetting CG.
LCAOMinimize: Converged (|Delta F|<1.000000e-06 for 2 iters).


---- Citations for features of the code used in this run ----

   Software package:
      R. Sundararaman, K. Letchworth-Weaver, K.A. Schwarz, D. Gunceler, Y. Ozhabes and T.A. Arias, 'JDFTx: software for joint density-functional theory', SoftwareX 6, 278 (2017)

   gga-PBE exchange-correlation functional:
      J.P. Perdew, K. Burke and M. Ernzerhof, Phys. Rev. Lett. 77, 3865 (1996)

   Pseudopotentials:
      M Schlipf and F Gygi, Comput. Phys. Commun. 196, 36 (2015)

   Truncated Coulomb potentials:
      R. Sundararaman and T.A. Arias, Phys. Rev. B 87, 165122 (2013)

   Total energy minimization with Auxiliary Hamiltonian:
      C. Freysoldt, S. Boeck, and J. Neugebauer, Phys. Rev. B 79, 241103(R) (2009)

This list may not be complete. Please suggest additional citations or
report any other bugs at https://github.com/shankar1729/jdftx/issues

Initialization completed successfully at t[s]:      8.02


-------- Electronic minimization -----------
	FillingsUpdate:  mu: -0.124468035  nElectrons: 9.000000
ElecMinimize: Iter:   0  F: -19.842097329478531  |grad|_K:  1.210e-04  alpha:  1.000e+00
	FillingsUpdate:  mu: -0.146916982  nElectrons: 9.000000
	SubspaceRotationAdjust: set factor to 1
ElecMinimize: Iter:   1  F: -19.924445571836152  |grad|_K:  6.901e-05  alpha:  1.022e+00  linmin:  1.646e-04  t[s]:     10.83
	FillingsUpdate:  mu: -0.145669306  nElectrons: 9.000000
	SubspaceRotationAdjust: set factor to 0.374
ElecMinimize: Iter:   2  F: -19.944738832691218  |grad|_K:  3.568e-04  alpha:  1.124e+00  linmin:  1.205e-01  t[s]:     12.54
ElecMinimize: 	Bad step direction: g.d > 0.
ElecMinimize: 	Undoing step.
ElecMinimize: 	Step failed: resetting search direction.
	FillingsUpdate:  mu: -0.145669306  nElectrons: 9.000000
	SubspaceRotationAdjust: set factor to 0.208
ElecMinimize: Iter:   3  F: -19.944738832691222  |grad|_K:  2.247e-04  alpha:  0.000e+00
	FillingsUpdate:  mu: -0.156292159  nElectrons: 9.000000
	SubspaceRotationAdjust: set factor to 0.208
ElecMinimize: Iter:   4  F: -19.964166293272513  |grad|_K:  3.998e-05  alpha:  5.711e-01  linmin:  7.142e-03  t[s]:     15.47
	FillingsUpdate:  mu: -0.159879243  nElectrons: 9.000000
	SubspaceRotationAdjust: set factor to 0.213
ElecMinimize: Iter:   5  F: -19.968759676726830  |grad|_K:  3.050e-05  alpha:  5.273e-01  linmin: -5.767e-04  t[s]:     17.17
ElecMinimize: 	Predicted alpha/alphaT>3.000000, increasing alphaT to 1.581804e+00.
	FillingsUpdate:  mu: -0.136031958  nElectrons: 9.000000
	SubspaceRotationAdjust: set factor to 0.217
ElecMinimize: Iter:   6  F: -19.982973182354392  |grad|_K:  5.969e-05  alpha:  2.508e+00  linmin:  4.780e-03  t[s]:     19.39
	FillingsUpdate:  mu: -0.135410147  nElectrons: 9.000000
	SubspaceRotationAdjust: set factor to 0.22
ElecMinimize: Iter:   7  F: -19.983240904542146  |grad|_K:  5.593e-05  alpha:  1.917e-02  linmin: -3.001e-03  t[s]:     21.11
ElecMinimize: 	Predicted alpha/alphaT>3.000000, increasing alphaT to 5.750224e-02.
ElecMinimize: 	Wrong curvature in test step, increasing alphaT to 1.725067e-01.
	FillingsUpdate:  mu: -0.135218501  nElectrons: 9.000000
	SubspaceRotationAdjust: set factor to 0.224
ElecMinimize: Iter:   8  F: -19.986163546527209  |grad|_K:  4.685e-05  alpha: -3.775e-01  linmin: -8.785e-03  t[s]:     23.22
	FillingsUpdate:  mu: -0.136289532  nElectrons: 9.000000
	SubspaceRotationAdjust: set factor to 0.229
ElecMinimize: Iter:   9  F: -19.988000464667255  |grad|_K:  4.100e-05  alpha:  3.300e-02  linmin: -1.458e-02  t[s]:     24.94
ElecMinimize: 	Wrong curvature in test step, increasing alphaT to 9.899721e-02.
	FillingsUpdate:  mu: -0.136735695  nElectrons: 9.000000
	SubspaceRotationAdjust: set factor to 0.238
ElecMinimize: Iter:  10  F: -19.989784198130884  |grad|_K:  3.514e-05  alpha: -1.885e-01  linmin: -1.903e-02  t[s]:     26.51
	FillingsUpdate:  mu: -0.133466328  nElectrons: 9.000000
	SubspaceRotationAdjust: set factor to 0.252
ElecMinimize: Iter:  11  F: -19.992446326605862  |grad|_K:  3.063e-05  alpha:  4.319e-02  linmin: -2.145e-02  t[s]:     28.23
ElecMinimize: 	Wrong curvature in test step, increasing alphaT to 1.295563e-01.
	FillingsUpdate:  mu: -0.134284017  nElectrons: 9.000000
	SubspaceRotationAdjust: set factor to 0.269
ElecMinimize: Iter:  12  F: -19.994177566038019  |grad|_K:  2.946e-05  alpha: -1.602e-01  linmin: -2.078e-02  t[s]:     29.85
	FillingsUpdate:  mu: -0.136990652  nElectrons: 9.000000
	SubspaceRotationAdjust: set factor to 0.287
ElecMinimize: Iter:  13  F: -19.995800411431844  |grad|_K:  3.118e-05  alpha:  4.803e-02  linmin: -1.732e-02  t[s]:     31.58
ElecMinimize: 	Wrong curvature in test step, increasing alphaT to 1.440967e-01.
	FillingsUpdate:  mu: -0.137091678  nElectrons: 9.000000
	SubspaceRotationAdjust: set factor to 0.303
ElecMinimize: Iter:  14  F: -19.998535475158924  |grad|_K:  3.564e-05  alpha: -4.863e-02  linmin: -1.183e-02  t[s]:     33.16
	FillingsUpdate:  mu: -0.134541324  nElectrons: 9.000000
	SubspaceRotationAdjust: set factor to 0.318
ElecMinimize: Iter:  15  F: -20.000668899638317  |grad|_K:  4.014e-05  alpha:  3.875e-02  linmin: -7.981e-03  t[s]:     34.86
ElecMinimize: 	Wrong curvature in test step, increasing alphaT to 1.162611e-01.
	FillingsUpdate:  mu: -0.126137563  nElectrons: 9.000000
	SubspaceRotationAdjust: set factor to 0.333
ElecMinimize: Iter:  16  F: -20.004554222339522  |grad|_K:  4.604e-05  alpha: -2.599e-02  linmin: -4.994e-03  t[s]:     36.49
	FillingsUpdate:  mu: -0.124733431  nElectrons: 9.000000
	SubspaceRotationAdjust: set factor to 0.346
ElecMinimize: Iter:  17  F: -20.005890561121127  |grad|_K:  4.808e-05  alpha:  1.285e-02  linmin: -4.830e-03  t[s]:     38.21
ElecMinimize: 	Wrong curvature in test step, increasing alphaT to 3.855132e-02.
	FillingsUpdate:  mu: -0.120449673  nElectrons: 9.000000
	SubspaceRotationAdjust: set factor to 0.359
ElecMinimize: Iter:  18  F: -20.007065558120676  |grad|_K:  4.960e-05  alpha: -4.134e-02  linmin: -4.860e-03  t[s]:     39.81
	FillingsUpdate:  mu: -0.113944919  nElectrons: 9.000000
	SubspaceRotationAdjust: set factor to 0.374
ElecMinimize: Iter:  19  F: -20.009322098759601  |grad|_K:  5.178e-05  alpha:  1.648e-02  linmin: -3.903e-03  t[s]:     41.53
ElecMinimize: 	Wrong curvature in test step, increasing alphaT to 4.945094e-02.
	FillingsUpdate:  mu: -0.108240632  nElectrons: 9.000000
	SubspaceRotationAdjust: set factor to 0.39
ElecMinimize: Iter:  20  F: -20.011828714691603  |grad|_K:  5.181e-05  alpha: -1.270e-02  linmin: -3.119e-03  t[s]:     43.13
	FillingsUpdate:  mu: -0.103984691  nElectrons: 9.000000
	SubspaceRotationAdjust: set factor to 0.403
ElecMinimize: Iter:  21  F: -20.012804447558352  |grad|_K:  5.155e-05  alpha:  1.199e-02  linmin: -1.381e-03  t[s]:     44.85
ElecMinimize: 	Wrong curvature in test step, increasing alphaT to 3.597787e-02.
	FillingsUpdate:  mu: -0.095744434  nElectrons: 9.000000
	SubspaceRotationAdjust: set factor to 0.416
ElecMinimize: Iter:  22  F: -20.013888947965935  |grad|_K:  5.152e-05  alpha: -8.896e-03  linmin:  2.021e-04  t[s]:     46.43
	FillingsUpdate:  mu: -0.097408241  nElectrons: 9.000000
	SubspaceRotationAdjust: set factor to 0.427
ElecMinimize: Iter:  23  F: -20.014017738262375  |grad|_K:  5.088e-05  alpha:  3.006e-03  linmin: -3.179e-04  t[s]:     48.14
ElecMinimize: 	Step increased F by 6.856767e-05, reducing alpha to 9.965970e-05.
	FillingsUpdate:  mu: -0.097451998  nElectrons: 9.000000
	SubspaceRotationAdjust: set factor to 0.438
ElecMinimize: Iter:  24  F: -20.014021138584223  |grad|_K:  5.087e-05  alpha:  9.966e-05  linmin: -1.747e-03  t[s]:     50.99
ElecMinimize: 	Predicted alpha/alphaT>3.000000, increasing alphaT to 2.989791e-04.
ElecMinimize: 	Predicted alpha/alphaT>3.000000, increasing alphaT to 8.969373e-04.
	FillingsUpdate:  mu: -0.097565008  nElectrons: 9.000000
	SubspaceRotationAdjust: set factor to 0.45
ElecMinimize: Iter:  25  F: -20.014036226121302  |grad|_K:  5.081e-05  alpha:  2.451e-04  linmin: -3.020e-03  t[s]:     53.78
	FillingsUpdate:  mu: -0.097592176  nElectrons: 9.000000
	SubspaceRotationAdjust: set factor to 0.462
ElecMinimize: Iter:  26  F: -20.014041241015473  |grad|_K:  5.080e-05  alpha:  5.645e-05  linmin: -4.239e-03  t[s]:     55.49
ElecMinimize: 	Predicted alpha/alphaT>3.000000, increasing alphaT to 1.693518e-04.
	FillingsUpdate:  mu: -0.097624410  nElectrons: 9.000000
	SubspaceRotationAdjust: set factor to 0.476
ElecMinimize: Iter:  27  F: -20.014048974088684  |grad|_K:  5.084e-05  alpha:  6.689e-05  linmin: -5.119e-03  t[s]:     57.77
	FillingsUpdate:  mu: -0.097550368  nElectrons: 9.000000
	SubspaceRotationAdjust: set factor to 0.552
ElecMinimize: Iter:  28  F: -20.014053076170608  |grad|_K:  5.443e-05  alpha:  7.333e-05  linmin:  6.260e-03  t[s]:     59.48
ElecMinimize: 	Bad step direction: g.d > 0.
ElecMinimize: 	Undoing step.
ElecMinimize: 	Step failed: resetting search direction.
	FillingsUpdate:  mu: -0.097550368  nElectrons: 9.000000
	SubspaceRotationAdjust: set factor to 0.641
ElecMinimize: Iter:  29  F: -20.014053076170626  |grad|_K:  5.510e-05  alpha:  0.000e+00
ElecMinimize: 	Predicted alpha/alphaT>3.000000, increasing alphaT to 2.199797e-04.
ElecMinimize: 	Predicted alpha/alphaT>3.000000, increasing alphaT to 6.599392e-04.
ElecMinimize: 	Predicted alpha/alphaT>3.000000, increasing alphaT to 1.979818e-03.
	FillingsUpdate:  mu: -0.097921467  nElectrons: 9.000000
	SubspaceRotationAdjust: set factor to 0.664
ElecMinimize: Iter:  30  F: -20.014391999869893  |grad|_K:  5.006e-05  alpha:  1.177e-02  linmin: -2.324e-02  t[s]:     63.44
ElecMinimize: 	Predicted alpha/alphaT>3.000000, increasing alphaT to 3.530728e-02.
ElecMinimize: 	Predicted alpha/alphaT>3.000000, increasing alphaT to 1.059219e-01.
ElecMinimize: 	Predicted alpha/alphaT>3.000000, increasing alphaT to 3.177656e-01.
	FillingsUpdate:  mu: -0.105539246  nElectrons: 9.000000
	SubspaceRotationAdjust: set factor to 0.714
ElecMinimize: Iter:  31  F: -20.024519005275714  |grad|_K:  3.268e-05  alpha:  4.080e-01  linmin:  5.950e-03  t[s]:     66.22
ElecMinimize: 	Wrong curvature in test step, increasing alphaT to 1.223973e+00.
	FillingsUpdate:  mu: -0.109348800  nElectrons: 9.000000
	SubspaceRotationAdjust: set factor to 0.73
ElecMinimize: Iter:  32  F: -20.028042294056110  |grad|_K:  2.815e-05  alpha: -2.558e+00  linmin: -1.355e-03  t[s]:     67.81
	FillingsUpdate:  mu: -0.109169529  nElectrons: 9.000000
	SubspaceRotationAdjust: set factor to 0.739
ElecMinimize: Iter:  33  F: -20.031046884724194  |grad|_K:  1.645e-05  alpha:  3.147e-01  linmin: -3.283e-03  t[s]:     69.53
ElecMinimize: 	Predicted alpha/alphaT>3.000000, increasing alphaT to 9.442203e-01.
	FillingsUpdate:  mu: -0.098384308  nElectrons: 9.000000
	SubspaceRotationAdjust: set factor to 0.869
ElecMinimize: Iter:  34  F: -20.032235742594487  |grad|_K:  1.916e-05  alpha:  4.929e-01  linmin: -6.152e-03  t[s]:     71.75
	FillingsUpdate:  mu: -0.097847363  nElectrons: 9.000000
	SubspaceRotationAdjust: set factor to 0.881
ElecMinimize: Iter:  35  F: -20.032985256900865  |grad|_K:  2.034e-05  alpha:  2.603e-01  linmin: -5.010e-03  t[s]:     73.48
	FillingsUpdate:  mu: -0.096955768  nElectrons: 9.000000
	SubspaceRotationAdjust: set factor to 0.912
ElecMinimize: Iter:  36  F: -20.033596677772096  |grad|_K:  1.688e-05  alpha:  2.287e-01  linmin: -1.329e-02  t[s]:     75.18
	FillingsUpdate:  mu: -0.101198706  nElectrons: 9.000000
	SubspaceRotationAdjust: set factor to 0.949
ElecMinimize: Iter:  37  F: -20.034482276829721  |grad|_K:  1.286e-05  alpha:  2.921e-01  linmin: -1.255e-02  t[s]:     76.91
ElecMinimize: 	Predicted alpha/alphaT>3.000000, increasing alphaT to 8.763036e-01.
	FillingsUpdate:  mu: -0.105980998  nElectrons: 9.000000
	SubspaceRotationAdjust: set factor to 0.961
ElecMinimize: Iter:  38  F: -20.035248458662981  |grad|_K:  1.683e-05  alpha:  4.676e-01  linmin: -5.499e-03  t[s]:     79.16
	FillingsUpdate:  mu: -0.108813795  nElectrons: 9.000000
	SubspaceRotationAdjust: set factor to 0.967
ElecMinimize: Iter:  39  F: -20.035844630627818  |grad|_K:  1.779e-05  alpha:  2.361e-01  linmin: -2.845e-03  t[s]:     80.89
	FillingsUpdate:  mu: -0.115000331  nElectrons: 9.000000
	SubspaceRotationAdjust: set factor to 0.979
ElecMinimize: Iter:  40  F: -20.036245899961685  |grad|_K:  1.510e-05  alpha:  1.356e-01  linmin: -3.266e-03  t[s]:     82.61
	FillingsUpdate:  mu: -0.115800998  nElectrons: 9.000000
	SubspaceRotationAdjust: set factor to 0.679
ElecMinimize: Iter:  41  F: -20.036344618195297  |grad|_K:  2.018e-05  alpha:  1.743e-01  linmin: -1.014e-03  t[s]:     84.32
	FillingsUpdate:  mu: -0.116211322  nElectrons: 9.000000
	SubspaceRotationAdjust: set factor to 0.716
ElecMinimize: Iter:  42  F: -20.036355850643375  |grad|_K:  1.077e-05  alpha:  4.968e-02  linmin:  4.957e-03  t[s]:     86.03
ElecMinimize: 	Wrong curvature in test step, increasing alphaT to 1.490502e-01.
	FillingsUpdate:  mu: -0.115562588  nElectrons: 9.000000
	SubspaceRotationAdjust: set factor to 0.748
ElecMinimize: Iter:  43  F: -20.036413128399516  |grad|_K:  1.053e-05  alpha: -3.966e-02  linmin: -3.938e-03  t[s]:     87.65
	FillingsUpdate:  mu: -0.113348304  nElectrons: 9.000000
	SubspaceRotationAdjust: set factor to 0.787
ElecMinimize: Iter:  44  F: -20.036895855174389  |grad|_K:  9.698e-06  alpha:  2.592e-01  linmin: -1.056e-03  t[s]:     89.35
ElecMinimize: 	Predicted alpha/alphaT>3.000000, increasing alphaT to 7.775474e-01.
	FillingsUpdate:  mu: -0.113221825  nElectrons: 9.000000
	SubspaceRotationAdjust: set factor to 0.828
ElecMinimize: Iter:  45  F: -20.037158332210911  |grad|_K:  9.416e-06  alpha:  2.067e-01  linmin: -1.880e-03  t[s]:     91.62
	FillingsUpdate:  mu: -0.110658880  nElectrons: 9.000000
	SubspaceRotationAdjust: set factor to 0.863
ElecMinimize: Iter:  46  F: -20.037245680469482  |grad|_K:  8.922e-06  alpha:  1.773e-01  linmin: -9.357e-03  t[s]:     93.36
	FillingsUpdate:  mu: -0.110630027  nElectrons: 9.000000
	SubspaceRotationAdjust: set factor to 0.891
ElecMinimize: Iter:  47  F: -20.037354655160527  |grad|_K:  8.045e-06  alpha:  1.299e-01  linmin: -8.893e-03  t[s]:     95.06
	FillingsUpdate:  mu: -0.111206605  nElectrons: 9.000000
	SubspaceRotationAdjust: set factor to 0.917
ElecMinimize: Iter:  48  F: -20.037381580547621  |grad|_K:  7.088e-06  alpha:  9.574e-02  linmin: -9.142e-03  t[s]:     96.80
ElecMinimize: 	Predicted alpha/alphaT>3.000000, increasing alphaT to 2.872136e-01.
	FillingsUpdate:  mu: -0.112601505  nElectrons: 9.000000
	SubspaceRotationAdjust: set factor to 0.937
ElecMinimize: Iter:  49  F: -20.037522279864607  |grad|_K:  6.372e-06  alpha:  2.590e-01  linmin: -4.852e-04  t[s]:     99.03
	FillingsUpdate:  mu: -0.116985639  nElectrons: 9.000000
	SubspaceRotationAdjust: set factor to 0.806
ElecMinimize: Iter:  50  F: -20.037537515322303  |grad|_K:  7.248e-06  alpha:  1.411e-01  linmin:  1.799e-03  t[s]:    100.77
ElecMinimize: 	Wrong curvature in test step, increasing alphaT to 4.234255e-01.
	FillingsUpdate:  mu: -0.119812751  nElectrons: 9.000000
	SubspaceRotationAdjust: set factor to 0.853
ElecMinimize: Iter:  51  F: -20.037589755240617  |grad|_K:  6.686e-06  alpha: -2.370e-01  linmin: -1.199e-03  t[s]:    102.35
	FillingsUpdate:  mu: -0.115740811  nElectrons: 9.000000
	SubspaceRotationAdjust: set factor to 0.906
ElecMinimize: Iter:  52  F: -20.037696716038457  |grad|_K:  6.230e-06  alpha:  1.555e-01  linmin: -3.590e-03  t[s]:    104.05
ElecMinimize: 	Wrong curvature in test step, increasing alphaT to 4.663612e-01.
	FillingsUpdate:  mu: -0.115714862  nElectrons: 9.000000
	SubspaceRotationAdjust: set factor to 0.521
ElecMinimize: Iter:  53  F: -20.037813118534253  |grad|_K:  1.561e-05  alpha: -2.604e-01  linmin: -7.316e-03  t[s]:    105.65
ElecMinimize: 	Step increased F by 9.235335e-05, reducing alpha to 5.314916e-03.
	FillingsUpdate:  mu: -0.113093961  nElectrons: 9.000000
	SubspaceRotationAdjust: set factor to 0.6
ElecMinimize: Iter:  54  F: -20.037838365460232  |grad|_K:  5.796e-06  alpha:  5.315e-03  linmin: -7.531e-03  t[s]:    108.51
ElecMinimize: 	Predicted alpha/alphaT>3.000000, increasing alphaT to 1.594475e-02.
ElecMinimize: 	Predicted alpha/alphaT>3.000000, increasing alphaT to 4.783424e-02.
	FillingsUpdate:  mu: -0.112481141  nElectrons: 9.000000
	SubspaceRotationAdjust: set factor to 0.619
ElecMinimize: Iter:  55  F: -20.037871837495537  |grad|_K:  5.257e-06  alpha:  1.230e-01  linmin: -6.913e-03  t[s]:    111.26
	FillingsUpdate:  mu: -0.109583731  nElectrons: 9.000000
	SubspaceRotationAdjust: set factor to 0.638
ElecMinimize: Iter:  56  F: -20.037900363864402  |grad|_K:  4.841e-06  alpha:  2.090e-01  linmin:  3.991e-03  t[s]:    112.96
ElecMinimize: 	Wrong curvature in test step, increasing alphaT to 6.269153e-01.
	FillingsUpdate:  mu: -0.107258674  nElectrons: 9.000000
	SubspaceRotationAdjust: set factor to 0.653
ElecMinimize: Iter:  57  F: -20.037967350400621  |grad|_K:  5.107e-06  alpha: -1.310e-01  linmin:  8.379e-03  t[s]:    114.59
	FillingsUpdate:  mu: -0.107154296  nElectrons: 9.000000
	SubspaceRotationAdjust: set factor to 0.673
ElecMinimize: Iter:  58  F: -20.037969389940891  |grad|_K:  5.056e-06  alpha:  4.269e-02  linmin: -4.465e-04  t[s]:    116.31
ElecMinimize: 	Predicted alpha/alphaT>3.000000, increasing alphaT to 1.280754e-01.
ElecMinimize: 	Predicted alpha/alphaT>3.000000, increasing alphaT to 3.842262e-01.
	FillingsUpdate:  mu: -0.110047829  nElectrons: 9.000000
	SubspaceRotationAdjust: set factor to 0.698
ElecMinimize: Iter:  59  F: -20.038003570372414  |grad|_K:  4.400e-06  alpha:  1.510e-01  linmin:  3.737e-03  t[s]:    119.07
	FillingsUpdate:  mu: -0.110490481  nElectrons: 9.000000
	SubspaceRotationAdjust: set factor to 0.829
ElecMinimize: Iter:  60  F: -20.038016327140522  |grad|_K:  4.304e-06  alpha:  1.472e-01  linmin: -8.100e-03  t[s]:    120.78
	FillingsUpdate:  mu: -0.111936816  nElectrons: 9.000000
	SubspaceRotationAdjust: set factor to 0.854
ElecMinimize: Iter:  61  F: -20.038027377238201  |grad|_K:  4.045e-06  alpha:  9.558e-02  linmin: -1.721e-03  t[s]:    122.51
	FillingsUpdate:  mu: -0.111489900  nElectrons: 9.000000
	SubspaceRotationAdjust: set factor to 0.877
ElecMinimize: Iter:  62  F: -20.038044071813438  |grad|_K:  3.965e-06  alpha:  1.633e-01  linmin: -6.532e-04  t[s]:    124.21
	FillingsUpdate:  mu: -0.111566777  nElectrons: 9.000000
	SubspaceRotationAdjust: set factor to 0.896
ElecMinimize: Iter:  63  F: -20.038059156308428  |grad|_K:  4.024e-06  alpha:  1.660e-01  linmin: -1.264e-05  t[s]:    125.94
	FillingsUpdate:  mu: -0.111569307  nElectrons: 9.000000
	SubspaceRotationAdjust: set factor to 0.929
ElecMinimize: Iter:  64  F: -20.038066138723483  |grad|_K:  3.973e-06  alpha:  4.477e-02  linmin: -1.055e-02  t[s]:    127.68
	FillingsUpdate:  mu: -0.111565083  nElectrons: 9.000000
	SubspaceRotationAdjust: set factor to 0.968
ElecMinimize: Iter:  65  F: -20.038068443971966  |grad|_K:  3.939e-06  alpha:  7.533e-03  linmin: -2.310e-02  t[s]:    129.38
ElecMinimize: 	Predicted alpha/alphaT>3.000000, increasing alphaT to 2.259806e-02.
ElecMinimize: 	Step increased F by 2.815007e-05, reducing alpha to 2.565812e-03.
	FillingsUpdate:  mu: -0.111562258  nElectrons: 9.000000
	SubspaceRotationAdjust: set factor to 1.01
ElecMinimize: Iter:  66  F: -20.038069643258346  |grad|_K:  3.916e-06  alpha:  2.566e-03  linmin: -3.464e-02  t[s]:    132.75
ElecMinimize: 	Predicted alpha/alphaT>3.000000, increasing alphaT to 7.697437e-03.
ElecMinimize: 	Predicted alpha/alphaT>3.000000, increasing alphaT to 2.309231e-02.
	FillingsUpdate:  mu: -0.111546271  nElectrons: 9.000000
	SubspaceRotationAdjust: set factor to 1.06
ElecMinimize: Iter:  67  F: -20.038075674786199  |grad|_K:  3.765e-06  alpha:  9.811e-03  linmin: -4.472e-02  t[s]:    135.51
ElecMinimize: 	Predicted alpha/alphaT>3.000000, increasing alphaT to 2.943343e-02.
	FillingsUpdate:  mu: -0.111532608  nElectrons: 9.000000
	SubspaceRotationAdjust: set factor to 1.1
ElecMinimize: Iter:  68  F: -20.038080576442809  |grad|_K:  3.623e-06  alpha:  7.108e-03  linmin: -5.511e-02  t[s]:    137.76
ElecMinimize: 	Predicted alpha/alphaT>3.000000, increasing alphaT to 2.132412e-02.
	FillingsUpdate:  mu: -0.111523882  nElectrons: 9.000000
	SubspaceRotationAdjust: set factor to 1.15
ElecMinimize: Iter:  69  F: -20.038083664551319  |grad|_K:  3.532e-06  alpha:  4.106e-03  linmin: -6.316e-02  t[s]:    139.99
ElecMinimize: 	Predicted alpha/alphaT>3.000000, increasing alphaT to 1.231776e-02.
	FillingsUpdate:  mu: -0.111518315  nElectrons: 9.000000
	SubspaceRotationAdjust: set factor to 1.2
ElecMinimize: Iter:  70  F: -20.038085565044582  |grad|_K:  3.488e-06  alpha:  2.290e-03  linmin: -6.835e-02  t[s]:    142.24
ElecMinimize: 	Predicted alpha/alphaT>3.000000, increasing alphaT to 6.870050e-03.
ElecMinimize: 	Step increased F by 1.068940e-05, reducing alpha to 1.350495e-03.
	FillingsUpdate:  mu: -0.111514383  nElectrons: 9.000000
	SubspaceRotationAdjust: set factor to 1.28
ElecMinimize: Iter:  71  F: -20.038086813086991  |grad|_K:  3.487e-06  alpha:  1.350e-03  linmin: -7.130e-02  t[s]:    145.66
ElecMinimize: 	Predicted alpha/alphaT>3.000000, increasing alphaT to 4.051486e-03.
ElecMinimize: 	Predicted alpha/alphaT>3.000000, increasing alphaT to 1.215446e-02.
	FillingsUpdate:  mu: -0.111091158  nElectrons: 9.000000
	SubspaceRotationAdjust: set factor to 0.67
ElecMinimize: Iter:  72  F: -20.038091141047971  |grad|_K:  1.368e-05  alpha:  1.516e-02  linmin:  8.412e-03  t[s]:    148.42
ElecMinimize: 	Bad step direction: g.d > 0.
ElecMinimize: 	Undoing step.
ElecMinimize: 	Step failed: resetting search direction.
	FillingsUpdate:  mu: -0.111091158  nElectrons: 9.000000
	SubspaceRotationAdjust: set factor to 0.365
ElecMinimize: Iter:  73  F: -20.038091141047985  |grad|_K:  1.010e-05  alpha:  0.000e+00
	FillingsUpdate:  mu: -0.111457076  nElectrons: 9.000000
	SubspaceRotationAdjust: set factor to 0.532
ElecMinimize: Iter:  74  F: -20.038103429789839  |grad|_K:  3.247e-06  alpha:  2.154e-02  linmin: -1.063e-01  t[s]:    151.34
ElecMinimize: 	Predicted alpha/alphaT>3.000000, increasing alphaT to 6.461652e-02.
	FillingsUpdate:  mu: -0.111407036  nElectrons: 9.000000
	SubspaceRotationAdjust: set factor to 0.54
ElecMinimize: Iter:  75  F: -20.038117873955670  |grad|_K:  2.533e-06  alpha:  1.496e-01  linmin: -1.720e-01  t[s]:    153.57
ElecMinimize: 	Predicted alpha/alphaT>3.000000, increasing alphaT to 4.486708e-01.
	FillingsUpdate:  mu: -0.111563873  nElectrons: 9.000000
	SubspaceRotationAdjust: set factor to 0.543
ElecMinimize: Iter:  76  F: -20.038170193752030  |grad|_K:  2.928e-06  alpha:  7.945e-01  linmin: -1.639e-03  t[s]:    155.80
	FillingsUpdate:  mu: -0.109762254  nElectrons: 9.000000
	SubspaceRotationAdjust: set factor to 0.543
ElecMinimize: Iter:  77  F: -20.038204229241305  |grad|_K:  3.462e-06  alpha:  7.001e-01  linmin:  5.059e-04  t[s]:    157.51
	FillingsUpdate:  mu: -0.109855425  nElectrons: 9.000000
	SubspaceRotationAdjust: set factor to 0.55
ElecMinimize: Iter:  78  F: -20.038229502932385  |grad|_K:  2.682e-06  alpha:  3.456e-01  linmin: -4.782e-03  t[s]:    159.25
	FillingsUpdate:  mu: -0.110792651  nElectrons: 9.000000
	SubspaceRotationAdjust: set factor to 0.574
ElecMinimize: Iter:  79  F: -20.038244013092829  |grad|_K:  1.888e-06  alpha:  3.297e-01  linmin: -3.875e-03  t[s]:    160.97
	FillingsUpdate:  mu: -0.111239275  nElectrons: 9.000000
	SubspaceRotationAdjust: set factor to 0.615
ElecMinimize: Iter:  80  F: -20.038252737064095  |grad|_K:  1.403e-06  alpha:  4.043e-01  linmin:  5.494e-06  t[s]:    162.67
ElecMinimize: 	Predicted alpha/alphaT>3.000000, increasing alphaT to 1.213036e+00.
	FillingsUpdate:  mu: -0.110920915  nElectrons: 9.000000
	SubspaceRotationAdjust: set factor to 0.69
ElecMinimize: Iter:  81  F: -20.038260450963794  |grad|_K:  1.128e-06  alpha:  4.521e-01  linmin:  1.088e-03  t[s]:    164.89
	FillingsUpdate:  mu: -0.111022780  nElectrons: 9.000000
	SubspaceRotationAdjust: set factor to 0.704
ElecMinimize: Iter:  82  F: -20.038263257021640  |grad|_K:  1.013e-06  alpha:  4.177e-01  linmin: -1.085e-03  t[s]:    166.60
	FillingsUpdate:  mu: -0.111101112  nElectrons: 9.000000
	SubspaceRotationAdjust: set factor to 0.594
ElecMinimize: Iter:  83  F: -20.038266163110514  |grad|_K:  1.097e-06  alpha:  5.260e-01  linmin:  9.430e-03  t[s]:    168.35
ElecMinimize: 	Bad step direction: g.d > 0.
ElecMinimize: 	Undoing step.
ElecMinimize: 	Step failed: resetting search direction.
	FillingsUpdate:  mu: -0.111101112  nElectrons: 9.000000
	SubspaceRotationAdjust: set factor to 0.775
ElecMinimize: Iter:  84  F: -20.038266163110535  |grad|_K:  1.074e-06  alpha:  0.000e+00
	FillingsUpdate:  mu: -0.110797516  nElectrons: 9.000000
	SubspaceRotationAdjust: set factor to 0.793
ElecMinimize: Iter:  85  F: -20.038270015469948  |grad|_K:  4.972e-07  alpha:  5.841e-01  linmin: -1.571e-02  t[s]:    171.24
	FillingsUpdate:  mu: -0.110882872  nElectrons: 9.000000
	SubspaceRotationAdjust: set factor to 0.784
ElecMinimize: Iter:  86  F: -20.038272456663929  |grad|_K:  4.576e-07  alpha:  1.469e+00  linmin: -6.268e-05  t[s]:    172.95
	FillingsUpdate:  mu: -0.110844999  nElectrons: 9.000000
	SubspaceRotationAdjust: set factor to 0.794
ElecMinimize: Iter:  87  F: -20.038273489870452  |grad|_K:  3.993e-07  alpha:  8.911e-01  linmin:  1.055e-07  t[s]:    174.66
	FillingsUpdate:  mu: -0.110832160  nElectrons: 9.000000
	SubspaceRotationAdjust: set factor to 0.837
ElecMinimize: Iter:  88  F: -20.038274212943197  |grad|_K:  2.181e-07  alpha:  8.239e-01  linmin:  8.166e-08  t[s]:    176.36
	FillingsUpdate:  mu: -0.110841429  nElectrons: 9.000000
	SubspaceRotationAdjust: set factor to 0.899
ElecMinimize: Iter:  89  F: -20.038274372451710  |grad|_K:  1.138e-07  alpha:  6.132e-01  linmin:  2.440e-05  t[s]:    178.09
	FillingsUpdate:  mu: -0.110716803  nElectrons: 9.000000
	SubspaceRotationAdjust: set factor to 0.714
ElecMinimize: Iter:  90  F: -20.038274415731742  |grad|_K:  1.133e-07  alpha:  8.212e-01  linmin:  1.073e-03  t[s]:    179.80
	FillingsUpdate:  mu: -0.110737398  nElectrons: 9.000000
	SubspaceRotationAdjust: set factor to 0.757
ElecMinimize: Iter:  91  F: -20.038274439833611  |grad|_K:  8.467e-08  alpha:  6.434e-01  linmin:  3.728e-05  t[s]:    181.53
	FillingsUpdate:  mu: -0.110780349  nElectrons: 9.000000
	SubspaceRotationAdjust: set factor to 0.933
ElecMinimize: Iter:  92  F: -20.038274466771398  |grad|_K:  8.802e-08  alpha:  6.977e-01  linmin: -1.382e-05  t[s]:    183.26
	FillingsUpdate:  mu: -0.110875421  nElectrons: 9.000000
	SubspaceRotationAdjust: set factor to 0.79
ElecMinimize: Iter:  93  F: -20.038274490388041  |grad|_K:  8.422e-08  alpha:  4.799e-01  linmin:  1.796e-04  t[s]:    184.98
	FillingsUpdate:  mu: -0.110894572  nElectrons: 9.000000
	SubspaceRotationAdjust: set factor to 0.962
ElecMinimize: Iter:  94  F: -20.038274501070251  |grad|_K:  7.088e-08  alpha:  3.509e-01  linmin: -1.402e-05  t[s]:    186.68
	FillingsUpdate:  mu: -0.110870681  nElectrons: 9.000000
	SubspaceRotationAdjust: set factor to 1.29
ElecMinimize: Iter:  95  F: -20.038274511485053  |grad|_K:  5.528e-08  alpha:  3.704e-01  linmin:  1.333e-06  t[s]:    188.40
	FillingsUpdate:  mu: -0.110838850  nElectrons: 9.000000
	SubspaceRotationAdjust: set factor to 1.5
ElecMinimize: Iter:  96  F: -20.038274516339140  |grad|_K:  3.739e-08  alpha:  2.792e-01  linmin:  1.527e-05  t[s]:    190.12
	FillingsUpdate:  mu: -0.110818970  nElectrons: 9.000000
	SubspaceRotationAdjust: set factor to 1.48
ElecMinimize: Iter:  97  F: -20.038274518409349  |grad|_K:  3.545e-08  alpha:  2.741e-01  linmin:  1.037e-05  t[s]:    191.84
	FillingsUpdate:  mu: -0.110817242  nElectrons: 9.000000
	SubspaceRotationAdjust: set factor to 1.8
ElecMinimize: Iter:  98  F: -20.038274520513884  |grad|_K:  3.427e-08  alpha:  3.112e-01  linmin:  1.213e-07  t[s]:    193.56
	FillingsUpdate:  mu: -0.110831504  nElectrons: 9.000000
	SubspaceRotationAdjust: set factor to 1.84
ElecMinimize: Iter:  99  F: -20.038274522075241  |grad|_K:  2.653e-08  alpha:  2.414e-01  linmin:  5.062e-07  t[s]:    195.29
ElecMinimize: Converged (|Delta F|<1.000000e-08 for 4 iters).
Setting wave functions to eigenvectors of Hamiltonian

# Ionic positions in lattice coordinates:
ion Cs   0.000000000000000   0.000000000000000   0.000000000000000 0

# Forces in Lattice coordinates:
force Cs   0.000000000000000   0.000000000000000   0.000000000000000 0

# Energy components:
   Eewald =      -31.9434090271374487
       EH =      -16.1781297702384919
     Eloc =       22.2588765808542632
      Enl =        3.5028660064452439
   Epulay =        0.0000000202044217
      Exc =       -3.3872936555879027
       KE =        5.7088153554824803
-------------------------------------
     Etot =      -20.0382744899774323
       TS =        0.0000000320978084
-------------------------------------
        F =      -20.0382745220752412

IonicMinimize: Iter:   0  F: -20.038274522075241  |grad|_K:  0.000e+00  t[s]:    195.45
IonicMinimize: Converged (|grad|_K<1.000000e-04).

#--- Lowdin population analysis ---
# oxidation-state Cs +0.823

End date and time: Sun Jan 16 16:33:55 2022  (Duration: 0-0:03:15.49)
Done!
