1.04
--------------------------------------------------------------------------
The library attempted to open the following supporting CUDA libraries,
but each of them failed.  CUDA-aware support is disabled.
libcuda.so.1: cannot open shared object file: No such file or directory
libcuda.dylib: cannot open shared object file: No such file or directory
/usr/lib64/libcuda.so.1: cannot open shared object file: No such file or directory
/usr/lib64/libcuda.dylib: cannot open shared object file: No such file or directory
If you are not interested in CUDA-aware support, then run with
--mca opal_warn_on_missing_libcuda 0 to suppress this message.  If you are interested
in CUDA-aware support, then try setting LD_LIBRARY_PATH to the location
of libcuda.so.1 to get passed this issue.
--------------------------------------------------------------------------
--------------------------------------------------------------------------
No OpenFabrics connection schemes reported that they were able to be
used on a specific port.  As such, the openib BTL (OpenFabrics
support) will be disabled for this port.

  Local host:           d-17-9-2
  Local device:         mlx5_1
  Local port:           1
  CPCs attempted:       rdmacm, udcm
--------------------------------------------------------------------------

*************** JDFTx 1.6.0 (git hash 42ebbcc2) ***************

Start date and time: Sun Jan 16 16:30:39 2022
Executable jdftx with command-line: -i Cesium.in
Running on hosts (process indices):  d-17-9-2 (0-18)
Divided in process groups (process indices):  0 (0)  1 (1)  2 (2)  3 (3)  4 (4)  5 (5)  6 (6)  7 (7)  8 (8)  9 (9)  10 (10)  11 (11)  12 (12)  13 (13)  14 (14)  15 (15)  16 (16)  17 (17)  18 (18)
Resource initialization completed at t[s]:      0.00
Run totals: 19 processes, 48 threads, 0 GPUs


Input parsed successfully to the following command list (including defaults):

basis kpoint-dependent
coords-type Lattice
core-overlap-check vector
coulomb-interaction Slab 001
davidson-band-ratio 1.1
dump End None
dump-name $INPUT.$VAR
elec-cutoff 20
elec-eigen-algo Davidson
elec-ex-corr gga-PBE
elec-smearing Fermi 1e-05
electronic-minimize  \
	dirUpdateScheme      FletcherReeves \
	linminMethod         DirUpdateRecommended \
	nIterations          10000 \
	history              15 \
	knormThreshold       0 \
	energyDiffThreshold  1e-08 \
	nEnergyDiff          4 \
	alphaTstart          1 \
	alphaTmin            1e-10 \
	updateTestStepSize   yes \
	alphaTreduceFactor   0.1 \
	alphaTincreaseFactor 3 \
	nAlphaAdjustMax      3 \
	wolfeEnergy          0.0001 \
	wolfeGradient        0.9 \
	fdTest               no
exchange-regularization WignerSeitzTruncated
fluid None
fluid-ex-corr (null) lda-PZ
fluid-gummel-loop 10 1.000000e-05
fluid-minimize  \
	dirUpdateScheme      PolakRibiere \
	linminMethod         DirUpdateRecommended \
	nIterations          100 \
	history              15 \
	knormThreshold       0 \
	energyDiffThreshold  0 \
	nEnergyDiff          2 \
	alphaTstart          1 \
	alphaTmin            1e-10 \
	updateTestStepSize   yes \
	alphaTreduceFactor   0.1 \
	alphaTincreaseFactor 3 \
	nAlphaAdjustMax      3 \
	wolfeEnergy          0.0001 \
	wolfeGradient        0.9 \
	fdTest               no
fluid-solvent H2O 55.338 ScalarEOS \
	epsBulk 78.4 \
	pMol 0.92466 \
	epsInf 1.77 \
	Pvap 1.06736e-10 \
	sigmaBulk 4.62e-05 \
	Rvdw 2.61727 \
	Res 1.42 \
	tauNuc 343133 \
	poleEl 15 7 1
forces-output-coords Positions
ion Cs   0.000000000000000   0.000000000000000   0.000000000000000 0
ion-species SG15/$ID_ONCV_PBE.upf
ion-width 0
ionic-minimize  \
	dirUpdateScheme      L-BFGS \
	linminMethod         DirUpdateRecommended \
	nIterations          0 \
	history              15 \
	knormThreshold       0.0001 \
	energyDiffThreshold  1e-06 \
	nEnergyDiff          2 \
	alphaTstart          1 \
	alphaTmin            1e-10 \
	updateTestStepSize   yes \
	alphaTreduceFactor   0.1 \
	alphaTincreaseFactor 3 \
	nAlphaAdjustMax      3 \
	wolfeEnergy          0.0001 \
	wolfeGradient        0.9 \
	fdTest               no
kpoint   0.000000000000   0.000000000000   0.000000000000  1.00000000000000
kpoint-folding 48 48 1 
latt-move-scale 1 1 1
latt-scale 1.04 1.04 1 
lattice  \
	   4.727486978767153   -2.363743489383574    0.000000000000000  \
	  -0.000000000000000    4.094123819672497    0.000000000000000  \
	   0.000000000000000    0.000000000000000   40.000000000000000 
lattice-minimize  \
	dirUpdateScheme      L-BFGS \
	linminMethod         DirUpdateRecommended \
	nIterations          0 \
	history              15 \
	knormThreshold       0 \
	energyDiffThreshold  1e-06 \
	nEnergyDiff          2 \
	alphaTstart          1 \
	alphaTmin            1e-10 \
	updateTestStepSize   yes \
	alphaTreduceFactor   0.1 \
	alphaTincreaseFactor 3 \
	nAlphaAdjustMax      3 \
	wolfeEnergy          0.0001 \
	wolfeGradient        0.9 \
	fdTest               no
lcao-params -1 1e-06 1e-05
pcm-variant GLSSA13
spintype no-spin
subspace-rotation-factor 1 yes
symmetries automatic
symmetry-threshold 0.0001



---------- Setting up symmetries ----------

Found 24 point-group symmetries of the bravais lattice
Found 24 space-group symmetries with basis
Applied RMS atom displacement 0 bohrs to make symmetries exact.

---------- Initializing the Grid ----------
R = 
[      4.91659     -2.45829            0  ]
[            0      4.25789            0  ]
[            0            0           40  ]
unit cell volume = 837.371
G =
[    1.27796   0.737829         -0  ]
[          0    1.47566         -0  ]
[         -0         -0    0.15708  ]
Minimum fftbox size, Smin = [  20  20  164  ]
Chosen fftbox size, S = [  20  20  168  ]

---------- Exchange Correlation functional ----------
Initalized PBE GGA exchange.
Initalized PBE GGA correlation.

---------- Setting up pseudopotentials ----------
Width of ionic core gaussian charges (only for fluid interactions / plotting) set to 0

Reading pseudopotential file '/home/gridsan/aligho/DFT/build-Nov24/pseudopotentials/SG15/Cs_ONCV_PBE.upf':
  'Cs' pseudopotential, 'PBE' functional
  Generated using ONCVPSP code by D. R. Hamann
  Author: Martin Schlipf and Francois Gygi  Date: 150915.
  9 valence electrons, 3 orbitals, 6 projectors, 2414 radial grid points, with lMax = 2
  Transforming local potential to a uniform radial grid of dG=0.02 with 1444 points.
  Transforming nonlocal projectors to a uniform radial grid of dG=0.02 with 432 points.
    5S    l: 0   occupation:  2.0   eigenvalue: -0.982388
    5P    l: 1   occupation:  6.0   eigenvalue: -0.496786
    6S    l: 0   occupation:  1.0   eigenvalue: -0.076670
  Transforming atomic orbitals to a uniform radial grid of dG=0.02 with 432 points.
  Core radius for overlap checks: 2.06 bohrs.
  Reading pulay file /home/gridsan/aligho/DFT/build-Nov24/pseudopotentials/SG15/Cs_ONCV_PBE.pulay ... using dE_dnG = -1.008762e-04 computed for Ecut = 20.

Initialized 1 species with 1 total atoms.

Folded 1 k-points by 48x48x1 to 2304 k-points.

---------- Setting up k-points, bands, fillings ----------
Reduced to 217 k-points under symmetry. 
Computing the number of bands and number of electrons
Calculating initial fillings.
nElectrons:   9.000000   nBands: 6   nStates: 217

----- Setting up reduced wavefunction bases (one per k-point) -----
average nbasis = 3577.397 , ideal nbasis = 3577.313

---------- Setting up coulomb interaction ----------
Initialized slab truncation along lattice direction 001

---------- Setting up 2D ewald sum ----------
Optimum gaussian width for ewald sums = 2.729490 bohr.
Real space sums over 289 unit cells with max indices [  8  8  0  ]
Reciprocal space sums over 81 terms with max indices [  4  4  0  ]

---------- Allocating electronic variables ----------
Initializing wave functions:  linear combination of atomic orbitals
Note: number of bands (6) exceeds available atomic orbitals (5)
Cs pseudo-atom occupations:   s ( 2 1 )  p ( 6 )
	FillingsUpdate:  mu: -0.104404364  nElectrons: 9.000000
LCAOMinimize: Iter:   0  F: -19.6274590514506677  |grad|_K:  2.597e-04  alpha:  1.000e+00
	FillingsUpdate:  mu: -0.102925572  nElectrons: 9.000000
LCAOMinimize: Iter:   1  F: -19.6276780114959912  |grad|_K:  2.685e-05  alpha:  8.634e-01  linmin: -4.720e-02  cgtest:  1.226e+00  t[s]:      2.48
LCAOMinimize: Encountered beta<0, resetting CG.
	FillingsUpdate:  mu: -0.102795617  nElectrons: 9.000000
LCAOMinimize: Iter:   2  F: -19.6276807564427820  |grad|_K:  5.939e-07  alpha:  9.711e-01  linmin: -4.772e-02  cgtest:  9.824e-01  t[s]:      3.27
LCAOMinimize: Encountered beta<0, resetting CG.
	FillingsUpdate:  mu: -0.102793288  nElectrons: 9.000000
LCAOMinimize: Iter:   3  F: -19.6276807578112589  |grad|_K:  2.991e-09  alpha:  9.935e-01  linmin: -3.477e-02  cgtest:  4.955e-01  t[s]:      4.08
LCAOMinimize: Encountered beta<0, resetting CG.
LCAOMinimize: 	Wrong curvature in test step, increasing alphaT to 2.980450e+00.
[d-17-9-2:29670] 18 more processes have sent help message help-mpi-common-cuda.txt / dlopen failed
[d-17-9-2:29670] Set MCA parameter "orte_base_help_aggregate" to 0 to see all help / error messages
[d-17-9-2:29670] 18 more processes have sent help message help-mpi-btl-openib-cpc-base.txt / no cpcs for port
	FillingsUpdate:  mu: -0.102793292  nElectrons: 9.000000
LCAOMinimize: Iter:   4  F: -19.6276807578123424  |grad|_K:  2.824e-11  alpha: -3.406e-02  linmin: -1.872e-02  cgtest:  2.910e-01  t[s]:      4.87
LCAOMinimize: Encountered beta<0, resetting CG.
LCAOMinimize: Converged (|Delta F|<1.000000e-06 for 2 iters).


---- Citations for features of the code used in this run ----

   Software package:
      R. Sundararaman, K. Letchworth-Weaver, K.A. Schwarz, D. Gunceler, Y. Ozhabes and T.A. Arias, 'JDFTx: software for joint density-functional theory', SoftwareX 6, 278 (2017)

   gga-PBE exchange-correlation functional:
      J.P. Perdew, K. Burke and M. Ernzerhof, Phys. Rev. Lett. 77, 3865 (1996)

   Pseudopotentials:
      M Schlipf and F Gygi, Comput. Phys. Commun. 196, 36 (2015)

   Truncated Coulomb potentials:
      R. Sundararaman and T.A. Arias, Phys. Rev. B 87, 165122 (2013)

   Total energy minimization with Auxiliary Hamiltonian:
      C. Freysoldt, S. Boeck, and J. Neugebauer, Phys. Rev. B 79, 241103(R) (2009)

This list may not be complete. Please suggest additional citations or
report any other bugs at https://github.com/shankar1729/jdftx/issues

Initialization completed successfully at t[s]:      5.00


-------- Electronic minimization -----------
	FillingsUpdate:  mu: -0.102793292  nElectrons: 9.000000
ElecMinimize: Iter:   0  F: -19.627680757812286  |grad|_K:  1.828e-04  alpha:  1.000e+00
	FillingsUpdate:  mu: -0.163389702  nElectrons: 9.000000
	SubspaceRotationAdjust: set factor to 1
ElecMinimize: Iter:   1  F: -19.773882319184995  |grad|_K:  1.045e-04  alpha:  9.401e-01  linmin:  2.645e-04  t[s]:      6.78
	FillingsUpdate:  mu: -0.155094017  nElectrons: 9.000000
	SubspaceRotationAdjust: set factor to 1
ElecMinimize: Iter:   2  F: -19.820879213027595  |grad|_K:  9.088e-05  alpha:  9.290e-01  linmin:  2.352e-04  t[s]:      7.90
	FillingsUpdate:  mu: -0.150571331  nElectrons: 9.000000
	SubspaceRotationAdjust: set factor to 1.02
ElecMinimize: Iter:   3  F: -19.829290571818579  |grad|_K:  6.834e-05  alpha:  1.345e-01  linmin: -4.565e-03  t[s]:      9.00
ElecMinimize: 	Step increased F by 3.371963e-03, reducing alpha to 2.359894e-02.
	FillingsUpdate:  mu: -0.149967830  nElectrons: 9.000000
	SubspaceRotationAdjust: set factor to 1.03
ElecMinimize: Iter:   4  F: -19.830979268419537  |grad|_K:  6.410e-05  alpha:  2.360e-02  linmin: -8.035e-03  t[s]:     10.81
ElecMinimize: 	Predicted alpha/alphaT>3.000000, increasing alphaT to 7.079682e-02.
ElecMinimize: 	Predicted alpha/alphaT>3.000000, increasing alphaT to 2.123905e-01.
	FillingsUpdate:  mu: -0.147078743  nElectrons: 9.000000
	SubspaceRotationAdjust: set factor to 1.11
ElecMinimize: Iter:   5  F: -19.838832485187453  |grad|_K:  4.400e-05  alpha:  1.591e-01  linmin: -7.522e-03  t[s]:     12.61
	FillingsUpdate:  mu: -0.142067694  nElectrons: 9.000000
	SubspaceRotationAdjust: set factor to 1.21
ElecMinimize: Iter:   6  F: -19.840004969751053  |grad|_K:  4.339e-05  alpha:  1.146e-01  linmin: -5.556e-03  t[s]:     13.71
	FillingsUpdate:  mu: -0.142892016  nElectrons: 9.000000
	SubspaceRotationAdjust: set factor to 0.625
ElecMinimize: Iter:   7  F: -19.843285215889480  |grad|_K:  2.536e-04  alpha:  1.409e-01  linmin:  4.510e-03  t[s]:     14.81
ElecMinimize: 	Bad step direction: g.d > 0.
ElecMinimize: 	Undoing step.
ElecMinimize: 	Step failed: resetting search direction.
	FillingsUpdate:  mu: -0.142892016  nElectrons: 9.000000
	SubspaceRotationAdjust: set factor to 0.331
ElecMinimize: Iter:   8  F: -19.843285215889480  |grad|_K:  1.844e-04  alpha:  0.000e+00
	FillingsUpdate:  mu: -0.145813124  nElectrons: 9.000000
	SubspaceRotationAdjust: set factor to 0.361
ElecMinimize: Iter:   9  F: -19.845284137859625  |grad|_K:  3.800e-05  alpha:  7.562e-02  linmin: -2.460e-02  t[s]:     16.67
ElecMinimize: 	Wrong curvature in test step, increasing alphaT to 2.268674e-01.
	FillingsUpdate:  mu: -0.149545241  nElectrons: 9.000000
	SubspaceRotationAdjust: set factor to 0.387
ElecMinimize: Iter:  10  F: -19.846383150743037  |grad|_K:  3.417e-05  alpha: -1.341e+00  linmin: -3.577e-02  t[s]:     17.67
	FillingsUpdate:  mu: -0.162607799  nElectrons: 9.000000
	SubspaceRotationAdjust: set factor to 0.445
ElecMinimize: Iter:  11  F: -19.853211464813054  |grad|_K:  4.128e-05  alpha:  3.167e-01  linmin: -1.499e-02  t[s]:     18.78
	FillingsUpdate:  mu: -0.155533153  nElectrons: 9.000000
	SubspaceRotationAdjust: set factor to 0.497
ElecMinimize: Iter:  12  F: -19.855433721815778  |grad|_K:  5.189e-05  alpha:  1.729e-01  linmin: -2.717e-03  t[s]:     19.88
ElecMinimize: 	Wrong curvature in test step, increasing alphaT to 5.186502e-01.
	FillingsUpdate:  mu: -0.147003948  nElectrons: 9.000000
	SubspaceRotationAdjust: set factor to 0.753
ElecMinimize: Iter:  13  F: -19.861948384994861  |grad|_K:  1.005e-04  alpha: -6.148e-01  linmin: -3.874e-02  t[s]:     20.88
ElecMinimize: 	Step increased F by 1.360101e-01, reducing alpha to 1.591946e-02.
	FillingsUpdate:  mu: -0.140968966  nElectrons: 9.000000
	SubspaceRotationAdjust: set factor to 0.761
ElecMinimize: Iter:  14  F: -19.862328418569124  |grad|_K:  1.095e-04  alpha:  1.592e-02  linmin:  1.966e-03  t[s]:     22.69
ElecMinimize: 	Step increased F by 2.978371e-04, reducing alpha to 6.188520e-04.
	FillingsUpdate:  mu: -0.141073665  nElectrons: 9.000000
	SubspaceRotationAdjust: set factor to 0.776
ElecMinimize: Iter:  15  F: -19.862356924145107  |grad|_K:  1.093e-04  alpha:  6.189e-04  linmin: -1.332e-03  t[s]:     24.52
ElecMinimize: 	Predicted alpha/alphaT>3.000000, increasing alphaT to 1.856556e-03.
ElecMinimize: 	Wrong curvature in test step, increasing alphaT to 5.569668e-03.
	FillingsUpdate:  mu: -0.140295055  nElectrons: 9.000000
	SubspaceRotationAdjust: set factor to 0.793
ElecMinimize: Iter:  16  F: -19.862929830623386  |grad|_K:  1.095e-04  alpha: -9.475e-04  linmin: -4.556e-03  t[s]:     25.87
	FillingsUpdate:  mu: -0.132968375  nElectrons: 9.000000
	SubspaceRotationAdjust: set factor to 0.806
ElecMinimize: Iter:  17  F: -19.870922015458458  |grad|_K:  1.110e-04  alpha:  3.473e-02  linmin: -1.409e-03  t[s]:     26.98
ElecMinimize: 	Step increased F by 7.918987e-04, reducing alpha to 4.567960e-04.
ElecMinimize: 	Step increased F by 3.909413e-04, reducing alpha to 4.567960e-05.
	FillingsUpdate:  mu: -0.132984958  nElectrons: 9.000000
	SubspaceRotationAdjust: set factor to 0.817
ElecMinimize: Iter:  18  F: -19.870929547914304  |grad|_K:  1.093e-04  alpha:  4.568e-05  linmin: -4.354e-03  t[s]:     29.51
ElecMinimize: 	Predicted alpha/alphaT>3.000000, increasing alphaT to 1.370388e-04.
ElecMinimize: 	Predicted alpha/alphaT>3.000000, increasing alphaT to 4.111164e-04.
	FillingsUpdate:  mu: -0.132996772  nElectrons: 9.000000
	SubspaceRotationAdjust: set factor to 0.829
ElecMinimize: Iter:  19  F: -19.870942905765528  |grad|_K:  1.092e-04  alpha:  4.941e-05  linmin: -7.144e-03  t[s]:     31.32
ElecMinimize: 	Predicted alpha/alphaT>3.000000, increasing alphaT to 1.482158e-04.
ElecMinimize: 	Predicted alpha/alphaT>3.000000, increasing alphaT to 4.446475e-04.
	FillingsUpdate:  mu: -0.133007053  nElectrons: 9.000000
	SubspaceRotationAdjust: set factor to 0.842
ElecMinimize: Iter:  20  F: -19.870973707194985  |grad|_K:  1.091e-04  alpha:  8.109e-05  linmin: -9.724e-03  t[s]:     33.12
	FillingsUpdate:  mu: -0.133007391  nElectrons: 9.000000
	SubspaceRotationAdjust: set factor to 0.854
ElecMinimize: Iter:  21  F: -19.870985130455576  |grad|_K:  1.090e-04  alpha:  2.338e-05  linmin: -1.213e-02  t[s]:     34.23
ElecMinimize: 	Predicted alpha/alphaT>3.000000, increasing alphaT to 7.014688e-05.
	FillingsUpdate:  mu: -0.133006647  nElectrons: 9.000000
	SubspaceRotationAdjust: set factor to 0.867
ElecMinimize: Iter:  22  F: -19.870989641428228  |grad|_K:  1.090e-04  alpha:  7.538e-06  linmin: -1.434e-02  t[s]:     35.72
ElecMinimize: 	Predicted alpha/alphaT>3.000000, increasing alphaT to 2.261257e-05.
ElecMinimize: 	Predicted alpha/alphaT>3.000000, increasing alphaT to 6.783770e-05.
	FillingsUpdate:  mu: -0.133005187  nElectrons: 9.000000
	SubspaceRotationAdjust: set factor to 0.881
ElecMinimize: Iter:  23  F: -19.870994508171311  |grad|_K:  1.090e-04  alpha:  6.869e-06  linmin: -1.633e-02  t[s]:     37.55
ElecMinimize: 	Predicted alpha/alphaT>3.000000, increasing alphaT to 2.060831e-05.
ElecMinimize: 	Predicted alpha/alphaT>3.000000, increasing alphaT to 6.182493e-05.
	FillingsUpdate:  mu: -0.133003006  nElectrons: 9.000000
	SubspaceRotationAdjust: set factor to 0.896
ElecMinimize: Iter:  24  F: -19.870999930350408  |grad|_K:  1.091e-04  alpha:  6.638e-06  linmin: -1.807e-02  t[s]:     39.35
ElecMinimize: 	Predicted alpha/alphaT>3.000000, increasing alphaT to 1.991462e-05.
ElecMinimize: 	Predicted alpha/alphaT>3.000000, increasing alphaT to 5.974385e-05.
	FillingsUpdate:  mu: -0.133000157  nElectrons: 9.000000
	SubspaceRotationAdjust: set factor to 0.913
ElecMinimize: Iter:  25  F: -19.871005702171814  |grad|_K:  1.092e-04  alpha:  6.280e-06  linmin: -1.939e-02  t[s]:     41.15
ElecMinimize: 	Predicted alpha/alphaT>3.000000, increasing alphaT to 1.883904e-05.
ElecMinimize: 	Step increased F by 6.765253e-05, reducing alpha to 3.836340e-06.
	FillingsUpdate:  mu: -0.132997868  nElectrons: 9.000000
	SubspaceRotationAdjust: set factor to 0.935
ElecMinimize: Iter:  26  F: -19.871009581647606  |grad|_K:  1.094e-04  alpha:  3.836e-06  linmin: -2.036e-02  t[s]:     43.31
ElecMinimize: 	Predicted alpha/alphaT>3.000000, increasing alphaT to 1.150902e-05.
ElecMinimize: 	Predicted alpha/alphaT>3.000000, increasing alphaT to 3.452706e-05.
	FillingsUpdate:  mu: -0.132992567  nElectrons: 9.000000
	SubspaceRotationAdjust: set factor to 0.979
ElecMinimize: Iter:  27  F: -19.871016532565879  |grad|_K:  1.108e-04  alpha:  6.566e-06  linmin: -1.897e-02  t[s]:     45.13
ElecMinimize: 	Step increased F by 4.004578e-06, reducing alpha to 1.772187e-06.
	FillingsUpdate:  mu: -0.132990600  nElectrons: 9.000000
	SubspaceRotationAdjust: set factor to 1.04
ElecMinimize: Iter:  28  F: -19.871018435161414  |grad|_K:  1.117e-04  alpha:  1.772e-06  linmin: -1.872e-02  t[s]:     46.95
ElecMinimize: 	Predicted alpha/alphaT>3.000000, increasing alphaT to 5.316561e-06.
	FillingsUpdate:  mu: -0.132948015  nElectrons: 9.000000
	SubspaceRotationAdjust: set factor to 1.21
ElecMinimize: Iter:  29  F: -19.871018554859308  |grad|_K:  1.432e-04  alpha:  1.457e-05  linmin:  1.776e-02  t[s]:     48.42
ElecMinimize: 	Bad step direction: g.d > 0.
ElecMinimize: 	Undoing step.
ElecMinimize: 	Step failed: resetting search direction.
	FillingsUpdate:  mu: -0.132948015  nElectrons: 9.000000
	SubspaceRotationAdjust: set factor to 1.29
ElecMinimize: Iter:  30  F: -19.871018554859329  |grad|_K:  1.481e-04  alpha:  0.000e+00
ElecMinimize: 	Predicted alpha/alphaT>3.000000, increasing alphaT to 4.371050e-05.
ElecMinimize: 	Predicted alpha/alphaT>3.000000, increasing alphaT to 1.311315e-04.
ElecMinimize: 	Predicted alpha/alphaT>3.000000, increasing alphaT to 3.933945e-04.
	FillingsUpdate:  mu: -0.132900823  nElectrons: 9.000000
	SubspaceRotationAdjust: set factor to 1.36
ElecMinimize: Iter:  31  F: -19.871117604597217  |grad|_K:  1.109e-04  alpha:  7.003e-04  linmin: -3.301e-02  t[s]:     50.98
ElecMinimize: 	Predicted alpha/alphaT>3.000000, increasing alphaT to 2.100949e-03.
ElecMinimize: 	Predicted alpha/alphaT>3.000000, increasing alphaT to 6.302847e-03.
ElecMinimize: 	Predicted alpha/alphaT>3.000000, increasing alphaT to 1.890854e-02.
	FillingsUpdate:  mu: -0.135238786  nElectrons: 9.000000
	SubspaceRotationAdjust: set factor to 1.4
ElecMinimize: Iter:  32  F: -19.881599961052540  |grad|_K:  7.862e-05  alpha:  7.083e-02  linmin: -3.022e-02  t[s]:     52.80
ElecMinimize: 	Predicted alpha/alphaT>3.000000, increasing alphaT to 2.124843e-01.
	FillingsUpdate:  mu: -0.139040285  nElectrons: 9.000000
	SubspaceRotationAdjust: set factor to 1.46
ElecMinimize: Iter:  33  F: -19.895499811618453  |grad|_K:  4.532e-05  alpha:  2.387e-01  linmin:  9.067e-03  t[s]:     54.25
ElecMinimize: 	Wrong curvature in test step, increasing alphaT to 7.161963e-01.
	FillingsUpdate:  mu: -0.128404967  nElectrons: 9.000000
	SubspaceRotationAdjust: set factor to 1.48
ElecMinimize: Iter:  34  F: -19.900685164577030  |grad|_K:  5.080e-05  alpha: -1.468e-01  linmin: -3.735e-03  t[s]:     55.26
	FillingsUpdate:  mu: -0.100531782  nElectrons: 9.000000
	SubspaceRotationAdjust: set factor to 1.48
ElecMinimize: Iter:  35  F: -19.905737407696680  |grad|_K:  3.712e-05  alpha:  2.243e-01  linmin: -9.013e-03  t[s]:     56.37
	FillingsUpdate:  mu: -0.087659485  nElectrons: 9.000000
	SubspaceRotationAdjust: set factor to 1.61
ElecMinimize: Iter:  36  F: -19.908374417115407  |grad|_K:  2.308e-05  alpha:  2.119e-01  linmin: -9.157e-03  t[s]:     57.49
ElecMinimize: 	Wrong curvature in test step, increasing alphaT to 6.356985e-01.
	FillingsUpdate:  mu: -0.094796842  nElectrons: 9.000000
	SubspaceRotationAdjust: set factor to 1.71
ElecMinimize: Iter:  37  F: -19.911003678941256  |grad|_K:  2.115e-05  alpha: -3.041e-01  linmin: -7.011e-03  t[s]:     58.50
	FillingsUpdate:  mu: -0.109075310  nElectrons: 9.000000
	SubspaceRotationAdjust: set factor to 1.21
ElecMinimize: Iter:  38  F: -19.914376876029376  |grad|_K:  3.871e-05  alpha:  3.155e-01  linmin: -1.625e-02  t[s]:     59.61
ElecMinimize: 	Step increased F by 1.804636e-03, reducing alpha to 1.227230e-02.
	FillingsUpdate:  mu: -0.114586323  nElectrons: 9.000000
	SubspaceRotationAdjust: set factor to 1.29
ElecMinimize: Iter:  39  F: -19.914551028638449  |grad|_K:  2.166e-05  alpha:  1.227e-02  linmin: -5.230e-03  t[s]:     61.43
ElecMinimize: 	Predicted alpha/alphaT>3.000000, increasing alphaT to 3.681689e-02.
	FillingsUpdate:  mu: -0.117936126  nElectrons: 9.000000
	SubspaceRotationAdjust: set factor to 1.37
ElecMinimize: Iter:  40  F: -19.914593060174937  |grad|_K:  2.118e-05  alpha:  2.648e-02  linmin: -2.675e-02  t[s]:     62.88
ElecMinimize: 	Predicted alpha/alphaT>3.000000, increasing alphaT to 7.945284e-02.
	FillingsUpdate:  mu: -0.122504990  nElectrons: 9.000000
	SubspaceRotationAdjust: set factor to 1.51
ElecMinimize: Iter:  41  F: -19.915043741918890  |grad|_K:  1.644e-05  alpha:  8.317e-02  linmin: -1.207e-02  t[s]:     64.34
	FillingsUpdate:  mu: -0.121409618  nElectrons: 9.000000
	SubspaceRotationAdjust: set factor to 1.66
ElecMinimize: Iter:  42  F: -19.915480845130102  |grad|_K:  1.242e-05  alpha:  1.066e-01  linmin: -6.733e-03  t[s]:     65.46
ElecMinimize: 	Wrong curvature in test step, increasing alphaT to 3.196759e-01.
	FillingsUpdate:  mu: -0.117805968  nElectrons: 9.000000
	SubspaceRotationAdjust: set factor to 1.76
ElecMinimize: Iter:  43  F: -19.916085550238886  |grad|_K:  1.135e-05  alpha: -9.389e-02  linmin: -5.174e-03  t[s]:     66.46
	FillingsUpdate:  mu: -0.111532733  nElectrons: 9.000000
	SubspaceRotationAdjust: set factor to 1.82
ElecMinimize: Iter:  44  F: -19.916857736167444  |grad|_K:  1.271e-05  alpha:  1.906e-01  linmin: -2.776e-03  t[s]:     67.58
	FillingsUpdate:  mu: -0.106357544  nElectrons: 9.000000
	SubspaceRotationAdjust: set factor to 2.04
ElecMinimize: Iter:  45  F: -19.917227901051273  |grad|_K:  1.472e-05  alpha:  1.241e-01  linmin: -2.740e-03  t[s]:     68.69
ElecMinimize: 	Step increased F by 4.526131e-05, reducing alpha to 5.949996e-03.
	FillingsUpdate:  mu: -0.106413203  nElectrons: 9.000000
	SubspaceRotationAdjust: set factor to 2.46
ElecMinimize: Iter:  46  F: -19.917257070981503  |grad|_K:  1.484e-05  alpha:  5.950e-03  linmin: -7.465e-03  t[s]:     70.51
ElecMinimize: 	Predicted alpha/alphaT>3.000000, increasing alphaT to 1.784999e-02.
ElecMinimize: 	Predicted alpha/alphaT>3.000000, increasing alphaT to 5.354996e-02.
	FillingsUpdate:  mu: -0.105006362  nElectrons: 9.000000
	SubspaceRotationAdjust: set factor to 3.08
ElecMinimize: Iter:  47  F: -19.917479292312226  |grad|_K:  1.430e-05  alpha:  1.047e-01  linmin: -2.041e-02  t[s]:     72.32
	FillingsUpdate:  mu: -0.107491674  nElectrons: 9.000000
	SubspaceRotationAdjust: set factor to 3.4
ElecMinimize: Iter:  48  F: -19.917766354067606  |grad|_K:  1.376e-05  alpha:  1.231e-01  linmin: -5.381e-03  t[s]:     73.45
	FillingsUpdate:  mu: -0.113820255  nElectrons: 9.000000
	SubspaceRotationAdjust: set factor to 4.1
ElecMinimize: Iter:  49  F: -19.917817518948773  |grad|_K:  1.346e-05  alpha:  5.541e-02  linmin: -3.883e-03  t[s]:     74.56
ElecMinimize: 	Wrong curvature in test step, increasing alphaT to 1.662223e-01.
	FillingsUpdate:  mu: -0.120176081  nElectrons: 9.000000
	SubspaceRotationAdjust: set factor to 5.01
ElecMinimize: Iter:  50  F: -19.918304012807948  |grad|_K:  1.383e-05  alpha: -3.893e-02  linmin: -2.977e-03  t[s]:     75.57
	FillingsUpdate:  mu: -0.125747939  nElectrons: 9.000000
	SubspaceRotationAdjust: set factor to 6.53
ElecMinimize: Iter:  51  F: -19.918536662067101  |grad|_K:  1.428e-05  alpha:  3.171e-02  linmin: -3.586e-03  t[s]:     76.69
ElecMinimize: 	Wrong curvature in test step, increasing alphaT to 9.513316e-02.
	FillingsUpdate:  mu: -0.127652250  nElectrons: 9.000000
	SubspaceRotationAdjust: set factor to 7.55
	SubspaceRotationAdjust: resetting CG because factor has changed by 7.55032
ElecMinimize: 	State modified externally: resetting search direction.
ElecMinimize: Iter:  52  F: -19.918723044750386  |grad|_K:  1.471e-05  alpha: -1.803e-01
	FillingsUpdate:  mu: -0.123045870  nElectrons: 9.000000
	SubspaceRotationAdjust: set factor to 9.78
ElecMinimize: Iter:  53  F: -19.919011868421897  |grad|_K:  1.045e-05  alpha:  6.229e-02  linmin: -2.004e-03  t[s]:     79.41
ElecMinimize: 	Wrong curvature in test step, increasing alphaT to 1.868751e-01.
	FillingsUpdate:  mu: -0.117392832  nElectrons: 9.000000
	SubspaceRotationAdjust: set factor to 8.93
ElecMinimize: Iter:  54  F: -19.919157950122486  |grad|_K:  8.908e-06  alpha: -7.995e-02  linmin: -1.958e-03  t[s]:     80.42
	FillingsUpdate:  mu: -0.116553313  nElectrons: 9.000000
	SubspaceRotationAdjust: set factor to 7.85
ElecMinimize: Iter:  55  F: -19.919191396763772  |grad|_K:  9.588e-06  alpha:  1.275e-01  linmin: -9.873e-03  t[s]:     81.53
	FillingsUpdate:  mu: -0.123856704  nElectrons: 9.000000
	SubspaceRotationAdjust: set factor to 9.15
ElecMinimize: Iter:  56  F: -19.919317777106947  |grad|_K:  8.256e-06  alpha:  1.614e-01  linmin: -1.211e-03  t[s]:     82.64
ElecMinimize: 	Wrong curvature in test step, increasing alphaT to 4.840737e-01.
	FillingsUpdate:  mu: -0.122656995  nElectrons: 9.000000
	SubspaceRotationAdjust: set factor to 9.01
ElecMinimize: Iter:  57  F: -19.919577655320250  |grad|_K:  9.149e-06  alpha: -9.173e-02  linmin: -5.231e-03  t[s]:     83.65
ElecMinimize: 	Step increased F by 1.856023e-05, reducing alpha to 5.542729e-03.
	FillingsUpdate:  mu: -0.122665800  nElectrons: 9.000000
	SubspaceRotationAdjust: set factor to 9.86
ElecMinimize: Iter:  58  F: -19.919584948463946  |grad|_K:  9.180e-06  alpha:  5.543e-03  linmin: -4.836e-03  t[s]:     85.49
ElecMinimize: 	Wrong curvature in test step, increasing alphaT to 1.662819e-02.
	FillingsUpdate:  mu: -0.121509785  nElectrons: 9.000000
	SubspaceRotationAdjust: set factor to 10.8
ElecMinimize: Iter:  59  F: -19.919603247597923  |grad|_K:  9.019e-06  alpha: -4.860e-03  linmin: -4.734e-03  t[s]:     86.49
	FillingsUpdate:  mu: -0.113917570  nElectrons: 9.000000
	SubspaceRotationAdjust: set factor to 7.36
ElecMinimize: Iter:  60  F: -19.919624151343857  |grad|_K:  1.352e-05  alpha:  4.964e-02  linmin: -2.241e-03  t[s]:     87.60
ElecMinimize: 	Step increased F by 4.678037e-05, reducing alpha to 2.834885e-03.
ElecMinimize: 	Step increased F by 4.091894e-05, reducing alpha to 2.834885e-04.
ElecMinimize: 	Step increased F by 1.034252e-06, reducing alpha to 2.834885e-05.
ElecMinimize: 	Step failed to reduce F after 3 attempts. Quitting step.
ElecMinimize: 	Undoing step.
ElecMinimize: 	Step failed: resetting search direction.
	FillingsUpdate:  mu: -0.113835370  nElectrons: 9.000000
	SubspaceRotationAdjust: set factor to 3.82
ElecMinimize: Iter:  61  F: -19.919623635472853  |grad|_K:  3.640e-05  alpha:  2.835e-05
	FillingsUpdate:  mu: -0.118830032  nElectrons: 9.000000
	SubspaceRotationAdjust: set factor to 2.63
ElecMinimize: Iter:  62  F: -19.919718084427402  |grad|_K:  1.224e-05  alpha:  3.142e-02  linmin: -6.564e-03  t[s]:     91.96
	FillingsUpdate:  mu: -0.119114880  nElectrons: 9.000000
	SubspaceRotationAdjust: set factor to 2.79
ElecMinimize: Iter:  63  F: -19.919763668258440  |grad|_K:  6.021e-06  alpha:  4.448e-02  linmin: -6.502e-03  t[s]:     93.08
ElecMinimize: 	Predicted alpha/alphaT>3.000000, increasing alphaT to 1.334350e-01.
ElecMinimize: 	Predicted alpha/alphaT>3.000000, increasing alphaT to 4.003049e-01.
	FillingsUpdate:  mu: -0.119802030  nElectrons: 9.000000
	SubspaceRotationAdjust: set factor to 2.33
ElecMinimize: Iter:  64  F: -19.919886343315817  |grad|_K:  8.695e-06  alpha:  5.553e-01  linmin:  2.527e-03  t[s]:     94.90
	FillingsUpdate:  mu: -0.122484509  nElectrons: 9.000000
	SubspaceRotationAdjust: set factor to 2.39
ElecMinimize: Iter:  65  F: -19.919886431529942  |grad|_K:  8.731e-06  alpha:  2.208e-01  linmin:  9.457e-05  t[s]:     96.02
ElecMinimize: 	Wrong curvature in test step, increasing alphaT to 6.623877e-01.
	FillingsUpdate:  mu: -0.119299311  nElectrons: 9.000000
	SubspaceRotationAdjust: set factor to 2.47
ElecMinimize: Iter:  66  F: -19.920097934177328  |grad|_K:  8.084e-06  alpha: -3.093e-01  linmin: -1.567e-02  t[s]:     97.03
	FillingsUpdate:  mu: -0.115887083  nElectrons: 9.000000
	SubspaceRotationAdjust: set factor to 1.6
ElecMinimize: Iter:  67  F: -19.920376384584326  |grad|_K:  9.043e-06  alpha:  3.250e-01  linmin: -5.985e-04  t[s]:     98.15
	FillingsUpdate:  mu: -0.112923788  nElectrons: 9.000000
	SubspaceRotationAdjust: set factor to 1.83
ElecMinimize: Iter:  68  F: -19.920413885023020  |grad|_K:  7.997e-06  alpha:  1.595e-01  linmin:  4.269e-03  t[s]:     99.28
ElecMinimize: 	Wrong curvature in test step, increasing alphaT to 4.784705e-01.
	FillingsUpdate:  mu: -0.117086892  nElectrons: 9.000000
	SubspaceRotationAdjust: set factor to 1.9
ElecMinimize: Iter:  69  F: -19.920498097611940  |grad|_K:  6.763e-06  alpha: -3.029e-01  linmin: -1.214e-02  t[s]:    100.29
	FillingsUpdate:  mu: -0.120537337  nElectrons: 9.000000
	SubspaceRotationAdjust: set factor to 2.15
ElecMinimize: Iter:  70  F: -19.920614318348186  |grad|_K:  3.724e-06  alpha:  3.733e-01  linmin: -2.645e-03  t[s]:    101.40
ElecMinimize: 	Wrong curvature in test step, increasing alphaT to 1.119812e+00.
	FillingsUpdate:  mu: -0.118384268  nElectrons: 9.000000
	SubspaceRotationAdjust: set factor to 2.5
ElecMinimize: Iter:  71  F: -19.920698720464269  |grad|_K:  2.939e-06  alpha: -3.873e-01  linmin: -8.047e-03  t[s]:    102.42
	FillingsUpdate:  mu: -0.118286500  nElectrons: 9.000000
	SubspaceRotationAdjust: set factor to 2.31
ElecMinimize: Iter:  72  F: -19.920727270341018  |grad|_K:  2.315e-06  alpha:  3.546e-01  linmin: -1.176e-02  t[s]:    103.54
	FillingsUpdate:  mu: -0.118348932  nElectrons: 9.000000
	SubspaceRotationAdjust: set factor to 2.58
ElecMinimize: Iter:  73  F: -19.920753090841547  |grad|_K:  2.713e-06  alpha:  6.393e-01  linmin:  1.402e-04  t[s]:    104.66
	FillingsUpdate:  mu: -0.118675904  nElectrons: 9.000000
	SubspaceRotationAdjust: set factor to 2.6
ElecMinimize: Iter:  74  F: -19.920775068935260  |grad|_K:  3.526e-06  alpha:  6.440e-01  linmin:  2.766e-04  t[s]:    105.78
	FillingsUpdate:  mu: -0.118773131  nElectrons: 9.000000
	SubspaceRotationAdjust: set factor to 2.62
ElecMinimize: Iter:  75  F: -19.920786146797706  |grad|_K:  3.021e-06  alpha:  1.226e-01  linmin: -9.333e-03  t[s]:    106.90
	FillingsUpdate:  mu: -0.118890953  nElectrons: 9.000000
	SubspaceRotationAdjust: set factor to 3.04
ElecMinimize: Iter:  76  F: -19.920802678976170  |grad|_K:  1.562e-06  alpha:  2.472e-01  linmin:  4.983e-04  t[s]:    108.02
	FillingsUpdate:  mu: -0.118879983  nElectrons: 9.000000
	SubspaceRotationAdjust: set factor to 3.59
ElecMinimize: Iter:  77  F: -19.920806222691475  |grad|_K:  1.246e-06  alpha:  3.158e-01  linmin: -2.572e-05  t[s]:    109.14
	FillingsUpdate:  mu: -0.118847000  nElectrons: 9.000000
	SubspaceRotationAdjust: set factor to 3.26
ElecMinimize: Iter:  78  F: -19.920808555180525  |grad|_K:  1.085e-06  alpha:  3.218e-01  linmin: -1.798e-05  t[s]:    110.26
	FillingsUpdate:  mu: -0.118837837  nElectrons: 9.000000
	SubspaceRotationAdjust: set factor to 3.8
ElecMinimize: Iter:  79  F: -19.920810803722151  |grad|_K:  1.154e-06  alpha:  4.089e-01  linmin:  2.870e-07  t[s]:    111.38
	FillingsUpdate:  mu: -0.118823522  nElectrons: 9.000000
	SubspaceRotationAdjust: set factor to 3.69
ElecMinimize: Iter:  80  F: -19.920813630945844  |grad|_K:  1.242e-06  alpha:  4.555e-01  linmin:  2.517e-05  t[s]:    112.50
	FillingsUpdate:  mu: -0.118745238  nElectrons: 9.000000
	SubspaceRotationAdjust: set factor to 3.92
ElecMinimize: Iter:  81  F: -19.920816127675280  |grad|_K:  1.006e-06  alpha:  3.479e-01  linmin:  5.934e-06  t[s]:    113.62
	FillingsUpdate:  mu: -0.118653225  nElectrons: 9.000000
	SubspaceRotationAdjust: set factor to 4.84
ElecMinimize: Iter:  82  F: -19.920817450576372  |grad|_K:  7.320e-07  alpha:  2.808e-01  linmin:  9.111e-07  t[s]:    114.73
	FillingsUpdate:  mu: -0.118575035  nElectrons: 9.000000
	SubspaceRotationAdjust: set factor to 4.33
ElecMinimize: Iter:  83  F: -19.920818350726009  |grad|_K:  7.712e-07  alpha:  3.604e-01  linmin: -7.131e-06  t[s]:    115.85
	FillingsUpdate:  mu: -0.118513302  nElectrons: 9.000000
	SubspaceRotationAdjust: set factor to 5.58
ElecMinimize: Iter:  84  F: -19.920819545870533  |grad|_K:  7.243e-07  alpha:  4.309e-01  linmin:  1.049e-05  t[s]:    116.97
	FillingsUpdate:  mu: -0.118221291  nElectrons: 9.000000
	SubspaceRotationAdjust: set factor to 6.62
ElecMinimize: Iter:  85  F: -19.920820430435178  |grad|_K:  6.468e-07  alpha:  1.422e-01  linmin: -4.058e-03  t[s]:    118.09
ElecMinimize: 	Step increased F by 1.424093e-06, reducing alpha to 3.180302e-02.
	FillingsUpdate:  mu: -0.118284853  nElectrons: 9.000000
	SubspaceRotationAdjust: set factor to 7.18
ElecMinimize: Iter:  86  F: -19.920820697798014  |grad|_K:  6.040e-07  alpha:  3.180e-02  linmin: -5.532e-03  t[s]:    119.92
ElecMinimize: 	Predicted alpha/alphaT>3.000000, increasing alphaT to 9.540907e-02.
ElecMinimize: 	Step increased F by 1.755999e-06, reducing alpha to 2.640497e-02.
	FillingsUpdate:  mu: -0.118339512  nElectrons: 9.000000
	SubspaceRotationAdjust: set factor to 7.4
ElecMinimize: Iter:  87  F: -19.920820957407990  |grad|_K:  5.576e-07  alpha:  2.640e-02  linmin: -5.747e-03  t[s]:    122.10
ElecMinimize: 	Predicted alpha/alphaT>3.000000, increasing alphaT to 7.921491e-02.
ElecMinimize: 	Predicted alpha/alphaT>3.000000, increasing alphaT to 2.376447e-01.
	FillingsUpdate:  mu: -0.118776472  nElectrons: 9.000000
	SubspaceRotationAdjust: set factor to 4.74
ElecMinimize: Iter:  88  F: -19.920822261240907  |grad|_K:  9.034e-07  alpha:  2.406e-01  linmin:  9.162e-06  t[s]:    123.93
	FillingsUpdate:  mu: -0.118789202  nElectrons: 9.000000
	SubspaceRotationAdjust: set factor to 3.41
ElecMinimize: Iter:  89  F: -19.920822285404409  |grad|_K:  7.768e-07  alpha:  3.342e-03  linmin: -2.133e-03  t[s]:    125.05
ElecMinimize: 	Predicted alpha/alphaT>3.000000, increasing alphaT to 1.002661e-02.
ElecMinimize: 	Predicted alpha/alphaT>3.000000, increasing alphaT to 3.007984e-02.
ElecMinimize: 	Predicted alpha/alphaT>3.000000, increasing alphaT to 9.023953e-02.
	FillingsUpdate:  mu: -0.119027101  nElectrons: 9.000000
	SubspaceRotationAdjust: set factor to 4.92
ElecMinimize: Iter:  90  F: -19.920822865054294  |grad|_K:  7.580e-07  alpha:  1.087e-01  linmin:  1.924e-05  t[s]:    126.88
	FillingsUpdate:  mu: -0.119097656  nElectrons: 9.000000
	SubspaceRotationAdjust: set factor to 6.09
ElecMinimize: Iter:  91  F: -19.920823025979988  |grad|_K:  7.762e-07  alpha:  6.083e-02  linmin: -1.825e-06  t[s]:    128.00
	FillingsUpdate:  mu: -0.119120956  nElectrons: 9.000000
	SubspaceRotationAdjust: set factor to 6.6
ElecMinimize: Iter:  92  F: -19.920823166466057  |grad|_K:  7.138e-07  alpha:  4.989e-02  linmin:  1.076e-06  t[s]:    129.12
	FillingsUpdate:  mu: -0.119113045  nElectrons: 9.000000
	SubspaceRotationAdjust: set factor to 6.42
ElecMinimize: Iter:  93  F: -19.920823281755258  |grad|_K:  6.772e-07  alpha:  4.861e-02  linmin:  1.530e-06  t[s]:    130.24
	FillingsUpdate:  mu: -0.119084331  nElectrons: 9.000000
	SubspaceRotationAdjust: set factor to 7.43
ElecMinimize: Iter:  94  F: -19.920823391651599  |grad|_K:  6.924e-07  alpha:  5.158e-02  linmin:  1.521e-05  t[s]:    131.36
	FillingsUpdate:  mu: -0.119043911  nElectrons: 9.000000
	SubspaceRotationAdjust: set factor to 7.51
ElecMinimize: Iter:  95  F: -19.920823498068007  |grad|_K:  6.932e-07  alpha:  4.832e-02  linmin: -1.344e-05  t[s]:    132.48
	FillingsUpdate:  mu: -0.118994934  nElectrons: 9.000000
	SubspaceRotationAdjust: set factor to 7.96
ElecMinimize: Iter:  96  F: -19.920823600175019  |grad|_K:  6.160e-07  alpha:  4.523e-02  linmin: -2.430e-06  t[s]:    133.59
	FillingsUpdate:  mu: -0.118954210  nElectrons: 9.000000
	SubspaceRotationAdjust: set factor to 11.6
ElecMinimize: Iter:  97  F: -19.920823672499345  |grad|_K:  5.078e-07  alpha:  4.085e-02  linmin: -6.058e-07  t[s]:    134.71
	FillingsUpdate:  mu: -0.118922907  nElectrons: 9.000000
	SubspaceRotationAdjust: set factor to 12.5
ElecMinimize: Iter:  98  F: -19.920823720650695  |grad|_K:  4.334e-07  alpha:  4.005e-02  linmin: -1.105e-07  t[s]:    135.83
	FillingsUpdate:  mu: -0.118893354  nElectrons: 9.000000
	SubspaceRotationAdjust: set factor to 11.9
ElecMinimize: Iter:  99  F: -19.920823758038825  |grad|_K:  4.310e-07  alpha:  4.271e-02  linmin:  4.196e-07  t[s]:    136.96
	FillingsUpdate:  mu: -0.118848959  nElectrons: 9.000000
	SubspaceRotationAdjust: set factor to 13
ElecMinimize: Iter: 100  F: -19.920823802210020  |grad|_K:  4.716e-07  alpha:  5.104e-02  linmin:  2.339e-07  t[s]:    138.07
	FillingsUpdate:  mu: -0.118792801  nElectrons: 9.000000
	SubspaceRotationAdjust: set factor to 11.6
ElecMinimize: Iter: 101  F: -19.920823849690798  |grad|_K:  4.477e-07  alpha:  4.582e-02  linmin: -5.632e-08  t[s]:    139.19
	FillingsUpdate:  mu: -0.118751039  nElectrons: 9.000000
	SubspaceRotationAdjust: set factor to 19
ElecMinimize: Iter: 102  F: -19.920823881969064  |grad|_K:  3.313e-07  alpha:  3.457e-02  linmin: -6.239e-08  t[s]:    140.31
	FillingsUpdate:  mu: -0.118727375  nElectrons: 9.000000
	SubspaceRotationAdjust: set factor to 19.9
ElecMinimize: Iter: 103  F: -19.920823900873152  |grad|_K:  2.769e-07  alpha:  3.696e-02  linmin: -3.112e-07  t[s]:    141.43
	FillingsUpdate:  mu: -0.118712379  nElectrons: 9.000000
	SubspaceRotationAdjust: set factor to 19.2
ElecMinimize: Iter: 104  F: -19.920823916914028  |grad|_K:  3.179e-07  alpha:  4.487e-02  linmin: -8.342e-07  t[s]:    142.55
	FillingsUpdate:  mu: -0.118696629  nElectrons: 9.000000
	SubspaceRotationAdjust: set factor to 16.9
ElecMinimize: Iter: 105  F: -19.920823945038816  |grad|_K:  4.057e-07  alpha:  5.968e-02  linmin: -4.309e-07  t[s]:    143.67
	FillingsUpdate:  mu: -0.118685399  nElectrons: 9.000000
	SubspaceRotationAdjust: set factor to 25.6
ElecMinimize: Iter: 106  F: -19.920823978373512  |grad|_K:  3.604e-07  alpha:  4.344e-02  linmin: -1.417e-07  t[s]:    144.79
	FillingsUpdate:  mu: -0.118681818  nElectrons: 9.000000
	SubspaceRotationAdjust: set factor to 26.4
ElecMinimize: Iter: 107  F: -19.920824002329418  |grad|_K:  3.220e-07  alpha:  3.957e-02  linmin:  4.682e-07  t[s]:    145.90
	FillingsUpdate:  mu: -0.118680945  nElectrons: 9.000000
	SubspaceRotationAdjust: set factor to 26
ElecMinimize: Iter: 108  F: -19.920824026902245  |grad|_K:  4.151e-07  alpha:  5.093e-02  linmin:  1.786e-06  t[s]:    147.02
	FillingsUpdate:  mu: -0.118686645  nElectrons: 9.000000
	SubspaceRotationAdjust: set factor to 22.7
ElecMinimize: Iter: 109  F: -19.920824075906964  |grad|_K:  5.111e-07  alpha:  6.118e-02  linmin:  1.070e-06  t[s]:    148.14
	FillingsUpdate:  mu: -0.118701489  nElectrons: 9.000000
	SubspaceRotationAdjust: set factor to 33.5
ElecMinimize: Iter: 110  F: -19.920824118012682  |grad|_K:  3.778e-07  alpha:  3.463e-02  linmin: -4.018e-07  t[s]:    149.25
	FillingsUpdate:  mu: -0.118721406  nElectrons: 9.000000
	SubspaceRotationAdjust: set factor to 30
ElecMinimize: Iter: 111  F: -19.920824143757777  |grad|_K:  3.678e-07  alpha:  3.867e-02  linmin: -1.252e-06  t[s]:    150.37
	FillingsUpdate:  mu: -0.118762835  nElectrons: 9.000000
	SubspaceRotationAdjust: set factor to 29
ElecMinimize: Iter: 112  F: -19.920824184647028  |grad|_K:  4.561e-07  alpha:  6.472e-02  linmin: -2.104e-07  t[s]:    151.49
	FillingsUpdate:  mu: -0.118795942  nElectrons: 9.000000
	SubspaceRotationAdjust: set factor to 41.3
ElecMinimize: Iter: 113  F: -19.920824223454382  |grad|_K:  3.393e-07  alpha:  3.995e-02  linmin: -3.358e-07  t[s]:    152.61
	FillingsUpdate:  mu: -0.118811656  nElectrons: 9.000000
	SubspaceRotationAdjust: set factor to 36
ElecMinimize: Iter: 114  F: -19.920824245127815  |grad|_K:  3.421e-07  alpha:  4.039e-02  linmin:  1.788e-06  t[s]:    153.73
	FillingsUpdate:  mu: -0.118853109  nElectrons: 9.000000
	SubspaceRotationAdjust: set factor to 41.6
ElecMinimize: Iter: 115  F: -19.920824282084730  |grad|_K:  3.868e-07  alpha:  6.800e-02  linmin:  1.734e-06  t[s]:    154.85
	FillingsUpdate:  mu: -0.118897287  nElectrons: 9.000000
	SubspaceRotationAdjust: set factor to 41.1
ElecMinimize: Iter: 116  F: -19.920824308060588  |grad|_K:  2.958e-07  alpha:  3.740e-02  linmin:  7.985e-07  t[s]:    155.97
	FillingsUpdate:  mu: -0.118944707  nElectrons: 9.000000
	SubspaceRotationAdjust: set factor to 40.9
ElecMinimize: Iter: 117  F: -19.920824333581777  |grad|_K:  3.851e-07  alpha:  6.248e-02  linmin: -2.924e-06  t[s]:    157.09
	FillingsUpdate:  mu: -0.118985659  nElectrons: 9.000000
	SubspaceRotationAdjust: set factor to 52.2
ElecMinimize: Iter: 118  F: -19.920824366035220  |grad|_K:  3.016e-07  alpha:  4.671e-02  linmin:  4.615e-07  t[s]:    158.21
	FillingsUpdate:  mu: -0.119004360  nElectrons: 9.000000
	SubspaceRotationAdjust: set factor to 45.2
ElecMinimize: Iter: 119  F: -19.920824385296516  |grad|_K:  3.478e-07  alpha:  4.545e-02  linmin:  2.630e-06  t[s]:    159.33
	FillingsUpdate:  mu: -0.119054708  nElectrons: 9.000000
	SubspaceRotationAdjust: set factor to 56
	SubspaceRotationAdjust: resetting CG because factor has changed by 7.41099
ElecMinimize: 	State modified externally: resetting search direction.
ElecMinimize: Iter: 120  F: -19.920824417838389  |grad|_K:  3.227e-07  alpha:  5.806e-02
	FillingsUpdate:  mu: -0.119057651  nElectrons: 9.000000
	SubspaceRotationAdjust: set factor to 37.7
ElecMinimize: Iter: 121  F: -19.920824450416795  |grad|_K:  5.035e-07  alpha:  6.677e-02  linmin: -1.379e-05  t[s]:    162.16
ElecMinimize: 	Predicted alpha/alphaT>3.000000, increasing alphaT to 2.003110e-01.
	FillingsUpdate:  mu: -0.119036373  nElectrons: 9.000000
	SubspaceRotationAdjust: set factor to 17.3
ElecMinimize: Iter: 122  F: -19.920824709860806  |grad|_K:  2.573e-07  alpha:  2.139e-01  linmin:  1.258e-05  t[s]:    163.63
	FillingsUpdate:  mu: -0.119047364  nElectrons: 9.000000
	SubspaceRotationAdjust: set factor to 9.91
ElecMinimize: Iter: 123  F: -19.920824730011219  |grad|_K:  2.448e-07  alpha:  6.680e-02  linmin:  1.018e-05  t[s]:    164.75
ElecMinimize: 	Predicted alpha/alphaT>3.000000, increasing alphaT to 2.003973e-01.
	FillingsUpdate:  mu: -0.119064319  nElectrons: 9.000000
	SubspaceRotationAdjust: set factor to 5.37
	SubspaceRotationAdjust: resetting CG because factor has changed by 0.0959526
ElecMinimize: 	State modified externally: resetting search direction.
ElecMinimize: Iter: 124  F: -19.920824839208233  |grad|_K:  3.065e-07  alpha:  3.955e-01
	FillingsUpdate:  mu: -0.119050174  nElectrons: 9.000000
	SubspaceRotationAdjust: set factor to 2.76
ElecMinimize: Iter: 125  F: -19.920824929326798  |grad|_K:  9.875e-08  alpha:  2.001e-01  linmin: -7.574e-05  t[s]:    167.95
ElecMinimize: 	Predicted alpha/alphaT>3.000000, increasing alphaT to 6.003311e-01.
	FillingsUpdate:  mu: -0.119100589  nElectrons: 9.000000
	SubspaceRotationAdjust: set factor to 2.88
ElecMinimize: Iter: 126  F: -19.920824999717286  |grad|_K:  1.188e-07  alpha:  1.525e+00  linmin:  7.411e-06  t[s]:    169.41
	FillingsUpdate:  mu: -0.119117784  nElectrons: 9.000000
	SubspaceRotationAdjust: set factor to 2.44
ElecMinimize: Iter: 127  F: -19.920825065253005  |grad|_K:  1.084e-07  alpha:  1.002e+00  linmin: -7.200e-07  t[s]:    170.52
	FillingsUpdate:  mu: -0.119103456  nElectrons: 9.000000
	SubspaceRotationAdjust: set factor to 2.58
ElecMinimize: Iter: 128  F: -19.920825103599750  |grad|_K:  5.894e-08  alpha:  6.991e-01  linmin:  4.154e-07  t[s]:    171.63
	FillingsUpdate:  mu: -0.119092293  nElectrons: 9.000000
	SubspaceRotationAdjust: set factor to 2.45
ElecMinimize: Iter: 129  F: -19.920825114336328  |grad|_K:  4.264e-08  alpha:  6.632e-01  linmin: -8.715e-07  t[s]:    172.76
	FillingsUpdate:  mu: -0.119084197  nElectrons: 9.000000
	SubspaceRotationAdjust: set factor to 2.35
ElecMinimize: Iter: 130  F: -19.920825121940947  |grad|_K:  3.862e-08  alpha:  8.976e-01  linmin: -9.533e-07  t[s]:    173.89
	FillingsUpdate:  mu: -0.119084141  nElectrons: 9.000000
	SubspaceRotationAdjust: set factor to 2.46
ElecMinimize: Iter: 131  F: -19.920825128313393  |grad|_K:  2.334e-08  alpha:  9.164e-01  linmin:  3.929e-07  t[s]:    175.00
	FillingsUpdate:  mu: -0.119087362  nElectrons: 9.000000
	SubspaceRotationAdjust: set factor to 2.29
ElecMinimize: Iter: 132  F: -19.920825129700923  |grad|_K:  1.410e-08  alpha:  5.475e-01  linmin:  9.300e-07  t[s]:    176.12
	FillingsUpdate:  mu: -0.119090870  nElectrons: 9.000000
	SubspaceRotationAdjust: set factor to 2.36
ElecMinimize: Iter: 133  F: -19.920825130718708  |grad|_K:  1.570e-08  alpha:  1.103e+00  linmin:  4.567e-06  t[s]:    177.23
ElecMinimize: Converged (|Delta F|<1.000000e-08 for 4 iters).
Setting wave functions to eigenvectors of Hamiltonian

# Ionic positions in lattice coordinates:
ion Cs   0.000000000000000   0.000000000000000   0.000000000000000 0

# Forces in Lattice coordinates:
force Cs   0.000000000000000   0.000000000000000   0.000000000000000 0

# Energy components:
   Eewald =      -34.7077425006397604
       EH =      -19.1294299046350673
     Eloc =       27.7855267662030734
      Enl =        3.5916603461792782
   Epulay =        0.0000000101011797
      Exc =       -3.4926911400897360
       KE =        6.0318513390957884
-------------------------------------
     Etot =      -19.9208250837852461
       TS =        0.0000000469334612
-------------------------------------
        F =      -19.9208251307187076

IonicMinimize: Iter:   0  F: -19.920825130718708  |grad|_K:  0.000e+00  t[s]:    177.37
IonicMinimize: Converged (|grad|_K<1.000000e-04).

#--- Lowdin population analysis ---
# oxidation-state Cs +0.862

End date and time: Sun Jan 16 16:33:37 2022  (Duration: 0-0:02:57.40)
Done!
