2.57
--------------------------------------------------------------------------
The library attempted to open the following supporting CUDA libraries,
but each of them failed.  CUDA-aware support is disabled.
libcuda.so.1: cannot open shared object file: No such file or directory
libcuda.dylib: cannot open shared object file: No such file or directory
/usr/lib64/libcuda.so.1: cannot open shared object file: No such file or directory
/usr/lib64/libcuda.dylib: cannot open shared object file: No such file or directory
If you are not interested in CUDA-aware support, then run with
--mca opal_warn_on_missing_libcuda 0 to suppress this message.  If you are interested
in CUDA-aware support, then try setting LD_LIBRARY_PATH to the location
of libcuda.so.1 to get passed this issue.
--------------------------------------------------------------------------
--------------------------------------------------------------------------
No OpenFabrics connection schemes reported that they were able to be
used on a specific port.  As such, the openib BTL (OpenFabrics
support) will be disabled for this port.

  Local host:           d-6-15-3
  Local device:         mlx5_1
  Local port:           1
  CPCs attempted:       rdmacm, udcm
--------------------------------------------------------------------------

*************** JDFTx 1.6.0 (git hash 42ebbcc2) ***************

Start date and time: Sun Jan 16 16:40:46 2022
Executable jdftx with command-line: -i Cesium.in
Running on hosts (process indices):  d-6-15-3 (0-18)
Divided in process groups (process indices):  0 (0)  1 (1)  2 (2)  3 (3)  4 (4)  5 (5)  6 (6)  7 (7)  8 (8)  9 (9)  10 (10)  11 (11)  12 (12)  13 (13)  14 (14)  15 (15)  16 (16)  17 (17)  18 (18)
Resource initialization completed at t[s]:      0.00
Run totals: 19 processes, 48 threads, 0 GPUs


Input parsed successfully to the following command list (including defaults):

basis kpoint-dependent
coords-type Lattice
core-overlap-check vector
coulomb-interaction Slab 001
davidson-band-ratio 1.1
dump End None
dump-name $INPUT.$VAR
elec-cutoff 20
elec-eigen-algo Davidson
elec-ex-corr gga-PBE
elec-smearing Fermi 1e-05
electronic-minimize  \
	dirUpdateScheme      FletcherReeves \
	linminMethod         DirUpdateRecommended \
	nIterations          10000 \
	history              15 \
	knormThreshold       0 \
	energyDiffThreshold  1e-08 \
	nEnergyDiff          4 \
	alphaTstart          1 \
	alphaTmin            1e-10 \
	updateTestStepSize   yes \
	alphaTreduceFactor   0.1 \
	alphaTincreaseFactor 3 \
	nAlphaAdjustMax      3 \
	wolfeEnergy          0.0001 \
	wolfeGradient        0.9 \
	fdTest               no
exchange-regularization WignerSeitzTruncated
fluid None
fluid-ex-corr (null) lda-PZ
fluid-gummel-loop 10 1.000000e-05
fluid-minimize  \
	dirUpdateScheme      PolakRibiere \
	linminMethod         DirUpdateRecommended \
	nIterations          100 \
	history              15 \
	knormThreshold       0 \
	energyDiffThreshold  0 \
	nEnergyDiff          2 \
	alphaTstart          1 \
	alphaTmin            1e-10 \
	updateTestStepSize   yes \
	alphaTreduceFactor   0.1 \
	alphaTincreaseFactor 3 \
	nAlphaAdjustMax      3 \
	wolfeEnergy          0.0001 \
	wolfeGradient        0.9 \
	fdTest               no
fluid-solvent H2O 55.338 ScalarEOS \
	epsBulk 78.4 \
	pMol 0.92466 \
	epsInf 1.77 \
	Pvap 1.06736e-10 \
	sigmaBulk 4.62e-05 \
	Rvdw 2.61727 \
	Res 1.42 \
	tauNuc 343133 \
	poleEl 15 7 1
forces-output-coords Positions
ion Cs   0.000000000000000   0.000000000000000   0.000000000000000 0
ion-species SG15/$ID_ONCV_PBE.upf
ion-width 0
ionic-minimize  \
	dirUpdateScheme      L-BFGS \
	linminMethod         DirUpdateRecommended \
	nIterations          0 \
	history              15 \
	knormThreshold       0.0001 \
	energyDiffThreshold  1e-06 \
	nEnergyDiff          2 \
	alphaTstart          1 \
	alphaTmin            1e-10 \
	updateTestStepSize   yes \
	alphaTreduceFactor   0.1 \
	alphaTincreaseFactor 3 \
	nAlphaAdjustMax      3 \
	wolfeEnergy          0.0001 \
	wolfeGradient        0.9 \
	fdTest               no
kpoint   0.000000000000   0.000000000000   0.000000000000  1.00000000000000
kpoint-folding 48 48 1 
latt-move-scale 1 1 1
latt-scale 2.57 2.57 1 
lattice  \
	   4.727486978767153   -2.363743489383574    0.000000000000000  \
	  -0.000000000000000    4.094123819672498    0.000000000000000  \
	   0.000000000000000    0.000000000000000   40.000000000000000 
lattice-minimize  \
	dirUpdateScheme      L-BFGS \
	linminMethod         DirUpdateRecommended \
	nIterations          0 \
	history              15 \
	knormThreshold       0 \
	energyDiffThreshold  1e-06 \
	nEnergyDiff          2 \
	alphaTstart          1 \
	alphaTmin            1e-10 \
	updateTestStepSize   yes \
	alphaTreduceFactor   0.1 \
	alphaTincreaseFactor 3 \
	nAlphaAdjustMax      3 \
	wolfeEnergy          0.0001 \
	wolfeGradient        0.9 \
	fdTest               no
lcao-params -1 1e-06 1e-05
pcm-variant GLSSA13
spintype no-spin
subspace-rotation-factor 1 yes
symmetries automatic
symmetry-threshold 0.0001



---------- Setting up symmetries ----------

Found 24 point-group symmetries of the bravais lattice
Found 24 space-group symmetries with basis
Applied RMS atom displacement 0 bohrs to make symmetries exact.

---------- Initializing the Grid ----------
R = 
[      12.1496     -6.07482            0  ]
[            0      10.5219            0  ]
[            0            0           40  ]
unit cell volume = 5113.49
G =
[    0.51715   0.298577         -0  ]
[          0   0.597153         -0  ]
[         -0         -0    0.15708  ]
Minimum fftbox size, Smin = [  52  52  164  ]
Chosen fftbox size, S = [  54  54  168  ]

---------- Exchange Correlation functional ----------
Initalized PBE GGA exchange.
Initalized PBE GGA correlation.

---------- Setting up pseudopotentials ----------
Width of ionic core gaussian charges (only for fluid interactions / plotting) set to 0

Reading pseudopotential file '/home/gridsan/aligho/DFT/build-Nov24/pseudopotentials/SG15/Cs_ONCV_PBE.upf':
  'Cs' pseudopotential, 'PBE' functional
  Generated using ONCVPSP code by D. R. Hamann
  Author: Martin Schlipf and Francois Gygi  Date: 150915.
  9 valence electrons, 3 orbitals, 6 projectors, 2414 radial grid points, with lMax = 2
  Transforming local potential to a uniform radial grid of dG=0.02 with 1550 points.
  Transforming nonlocal projectors to a uniform radial grid of dG=0.02 with 432 points.
    5S    l: 0   occupation:  2.0   eigenvalue: -0.982388
    5P    l: 1   occupation:  6.0   eigenvalue: -0.496786
    6S    l: 0   occupation:  1.0   eigenvalue: -0.076670
  Transforming atomic orbitals to a uniform radial grid of dG=0.02 with 432 points.
  Core radius for overlap checks: 2.06 bohrs.
  Reading pulay file /home/gridsan/aligho/DFT/build-Nov24/pseudopotentials/SG15/Cs_ONCV_PBE.pulay ... using dE_dnG = -1.008762e-04 computed for Ecut = 20.

Initialized 1 species with 1 total atoms.

Folded 1 k-points by 48x48x1 to 2304 k-points.

---------- Setting up k-points, bands, fillings ----------
Reduced to 217 k-points under symmetry. 
Computing the number of bands and number of electrons
Calculating initial fillings.
nElectrons:   9.000000   nBands: 6   nStates: 217

----- Setting up reduced wavefunction bases (one per k-point) -----
average nbasis = 21846.225 , ideal nbasis = 21845.226

---------- Setting up coulomb interaction ----------
Initialized slab truncation along lattice direction 001

---------- Setting up 2D ewald sum ----------
Optimum gaussian width for ewald sums = 6.744991 bohr.
Real space sums over 289 unit cells with max indices [  8  8  0  ]
Reciprocal space sums over 81 terms with max indices [  4  4  0  ]

---------- Allocating electronic variables ----------
Initializing wave functions:  linear combination of atomic orbitals
Note: number of bands (6) exceeds available atomic orbitals (5)
Cs pseudo-atom occupations:   s ( 2 1 )  p ( 6 )
[d-6-15-3:97121] 18 more processes have sent help message help-mpi-common-cuda.txt / dlopen failed
[d-6-15-3:97121] Set MCA parameter "orte_base_help_aggregate" to 0 to see all help / error messages
[d-6-15-3:97121] 18 more processes have sent help message help-mpi-btl-openib-cpc-base.txt / no cpcs for port
	FillingsUpdate:  mu: -0.082088821  nElectrons: 9.000000
LCAOMinimize: Iter:   0  F: -20.1814354534731315  |grad|_K:  6.624e-06  alpha:  1.000e+00
	FillingsUpdate:  mu: -0.082084408  nElectrons: 9.000000
LCAOMinimize: Iter:   1  F: -20.1814356223351972  |grad|_K:  4.582e-08  alpha:  9.855e-01  linmin: -2.411e-02  cgtest:  3.524e-01  t[s]:     15.39
LCAOMinimize: Encountered beta<0, resetting CG.
	FillingsUpdate:  mu: -0.082084410  nElectrons: 9.000000
LCAOMinimize: Iter:   2  F: -20.1814356223435247  |grad|_K:  1.552e-09  alpha:  1.034e+00  linmin:  1.317e-01  cgtest: -9.985e-01  t[s]:     21.10
LCAOMinimize: Converged (|Delta F|<1.000000e-06 for 2 iters).


---- Citations for features of the code used in this run ----

   Software package:
      R. Sundararaman, K. Letchworth-Weaver, K.A. Schwarz, D. Gunceler, Y. Ozhabes and T.A. Arias, 'JDFTx: software for joint density-functional theory', SoftwareX 6, 278 (2017)

   gga-PBE exchange-correlation functional:
      J.P. Perdew, K. Burke and M. Ernzerhof, Phys. Rev. Lett. 77, 3865 (1996)

   Pseudopotentials:
      M Schlipf and F Gygi, Comput. Phys. Commun. 196, 36 (2015)

   Truncated Coulomb potentials:
      R. Sundararaman and T.A. Arias, Phys. Rev. B 87, 165122 (2013)

   Total energy minimization with Auxiliary Hamiltonian:
      C. Freysoldt, S. Boeck, and J. Neugebauer, Phys. Rev. B 79, 241103(R) (2009)

This list may not be complete. Please suggest additional citations or
report any other bugs at https://github.com/shankar1729/jdftx/issues

Initialization completed successfully at t[s]:     21.70


-------- Electronic minimization -----------
	FillingsUpdate:  mu: -0.082084410  nElectrons: 9.000000
ElecMinimize: Iter:   0  F: -20.181435622343532  |grad|_K:  3.695e-06  alpha:  1.000e+00
ElecMinimize: 	Predicted alpha/alphaT>3.000000, increasing alphaT to 3.000000e+00.
	FillingsUpdate:  mu: -0.082266064  nElectrons: 9.000000
	SubspaceRotationAdjust: set factor to 1
ElecMinimize: Iter:   1  F: -20.182775011177448  |grad|_K:  5.372e-06  alpha:  3.450e+00  linmin:  1.197e-04  t[s]:     36.30
	FillingsUpdate:  mu: -0.082276820  nElectrons: 9.000000
	SubspaceRotationAdjust: set factor to 1.03
ElecMinimize: Iter:   2  F: -20.182809661674931  |grad|_K:  5.297e-06  alpha:  2.137e-02  linmin: -1.163e-03  t[s]:     43.89
ElecMinimize: 	Predicted alpha/alphaT>3.000000, increasing alphaT to 6.412350e-02.
ElecMinimize: 	Predicted alpha/alphaT>3.000000, increasing alphaT to 1.923705e-01.
ElecMinimize: 	Predicted alpha/alphaT>3.000000, increasing alphaT to 5.771115e-01.
	FillingsUpdate:  mu: -0.082190083  nElectrons: 9.000000
	SubspaceRotationAdjust: set factor to 0.691
ElecMinimize: Iter:   3  F: -20.184061316921376  |grad|_K:  3.762e-06  alpha:  8.394e-01  linmin:  4.760e-04  t[s]:     56.03
	FillingsUpdate:  mu: -0.082185220  nElectrons: 9.000000
	SubspaceRotationAdjust: set factor to 0.816
ElecMinimize: Iter:   4  F: -20.184063703201016  |grad|_K:  3.609e-06  alpha:  6.853e-03  linmin: -4.746e-04  t[s]:     63.58
ElecMinimize: 	Predicted alpha/alphaT>3.000000, increasing alphaT to 2.055883e-02.
ElecMinimize: 	Predicted alpha/alphaT>3.000000, increasing alphaT to 6.167650e-02.
ElecMinimize: 	Predicted alpha/alphaT>3.000000, increasing alphaT to 1.850295e-01.
ElecMinimize: 	Step increased F by 2.088107e-03, reducing alpha to 9.479776e-02.
	FillingsUpdate:  mu: -0.082142855  nElectrons: 9.000000
	SubspaceRotationAdjust: set factor to 0.941
ElecMinimize: Iter:   5  F: -20.184158894208043  |grad|_K:  3.402e-06  alpha:  9.480e-02  linmin: -2.044e-03  t[s]:     80.86
ElecMinimize: 	Predicted alpha/alphaT>3.000000, increasing alphaT to 2.843933e-01.
	FillingsUpdate:  mu: -0.081353196  nElectrons: 9.000000
	SubspaceRotationAdjust: set factor to 1.2
ElecMinimize: Iter:   6  F: -20.184602440134075  |grad|_K:  2.759e-06  alpha:  6.222e-01  linmin:  5.655e-04  t[s]:     90.77
	FillingsUpdate:  mu: -0.080941524  nElectrons: 9.000000
	SubspaceRotationAdjust: set factor to 1.38
ElecMinimize: Iter:   7  F: -20.184668581056687  |grad|_K:  3.138e-06  alpha:  4.142e-01  linmin:  1.475e-05  t[s]:     98.32
	FillingsUpdate:  mu: -0.080517967  nElectrons: 9.000000
	SubspaceRotationAdjust: set factor to 1.54
ElecMinimize: Iter:   8  F: -20.184792036092649  |grad|_K:  2.770e-06  alpha:  4.395e-01  linmin: -2.623e-04  t[s]:    105.87
	FillingsUpdate:  mu: -0.080131605  nElectrons: 9.000000
	SubspaceRotationAdjust: set factor to 1.63
ElecMinimize: Iter:   9  F: -20.184894395219793  |grad|_K:  2.044e-06  alpha:  4.466e-01  linmin: -1.661e-04  t[s]:    113.42
	FillingsUpdate:  mu: -0.079859554  nElectrons: 9.000000
	SubspaceRotationAdjust: set factor to 1.79
ElecMinimize: Iter:  10  F: -20.184953916288727  |grad|_K:  1.520e-06  alpha:  4.795e-01  linmin: -1.059e-04  t[s]:    120.97
	FillingsUpdate:  mu: -0.079467426  nElectrons: 9.000000
	SubspaceRotationAdjust: set factor to 2.04
ElecMinimize: Iter:  11  F: -20.184991319973935  |grad|_K:  1.345e-06  alpha:  5.619e-01  linmin:  9.573e-05  t[s]:    128.56
	FillingsUpdate:  mu: -0.079075569  nElectrons: 9.000000
	SubspaceRotationAdjust: set factor to 2.02
ElecMinimize: Iter:  12  F: -20.185013877007396  |grad|_K:  1.324e-06  alpha:  4.200e-01  linmin:  2.057e-05  t[s]:    136.18
	FillingsUpdate:  mu: -0.078850482  nElectrons: 9.000000
	SubspaceRotationAdjust: set factor to 2.43
ElecMinimize: Iter:  13  F: -20.185027723786757  |grad|_K:  1.321e-06  alpha:  2.485e-01  linmin: -6.374e-05  t[s]:    143.73
	FillingsUpdate:  mu: -0.078742176  nElectrons: 9.000000
	SubspaceRotationAdjust: set factor to 1.9
ElecMinimize: Iter:  14  F: -20.185039351998487  |grad|_K:  1.356e-06  alpha:  2.167e-01  linmin:  9.615e-05  t[s]:    151.29
	FillingsUpdate:  mu: -0.078776794  nElectrons: 9.000000
	SubspaceRotationAdjust: set factor to 1.85
ElecMinimize: Iter:  15  F: -20.185046828351378  |grad|_K:  1.158e-06  alpha:  1.492e-01  linmin: -7.863e-06  t[s]:    158.87
	FillingsUpdate:  mu: -0.078894469  nElectrons: 9.000000
	SubspaceRotationAdjust: set factor to 2.56
ElecMinimize: Iter:  16  F: -20.185053762491250  |grad|_K:  1.026e-06  alpha:  1.785e-01  linmin: -1.516e-04  t[s]:    166.51
	FillingsUpdate:  mu: -0.079047657  nElectrons: 9.000000
	SubspaceRotationAdjust: set factor to 2.84
ElecMinimize: Iter:  17  F: -20.185061700415577  |grad|_K:  9.664e-07  alpha:  2.393e-01  linmin: -2.018e-04  t[s]:    174.16
	FillingsUpdate:  mu: -0.079128958  nElectrons: 9.000000
	SubspaceRotationAdjust: set factor to 3
ElecMinimize: Iter:  18  F: -20.185073471951448  |grad|_K:  8.557e-07  alpha:  3.709e-01  linmin: -3.417e-04  t[s]:    181.68
	FillingsUpdate:  mu: -0.078979714  nElectrons: 9.000000
	SubspaceRotationAdjust: set factor to 4.04
ElecMinimize: Iter:  19  F: -20.185082020730380  |grad|_K:  6.215e-07  alpha:  3.608e-01  linmin:  1.107e-04  t[s]:    189.30
	FillingsUpdate:  mu: -0.078864562  nElectrons: 9.000000
	SubspaceRotationAdjust: set factor to 4.12
ElecMinimize: Iter:  20  F: -20.185085387668689  |grad|_K:  5.923e-07  alpha:  3.099e-01  linmin:  7.279e-05  t[s]:    196.88
	FillingsUpdate:  mu: -0.078852697  nElectrons: 9.000000
	SubspaceRotationAdjust: set factor to 3.87
ElecMinimize: Iter:  21  F: -20.185087883638502  |grad|_K:  6.762e-07  alpha:  2.559e-01  linmin:  4.965e-05  t[s]:    204.39
	FillingsUpdate:  mu: -0.078931481  nElectrons: 9.000000
	SubspaceRotationAdjust: set factor to 2.85
ElecMinimize: Iter:  22  F: -20.185090856511668  |grad|_K:  7.300e-07  alpha:  2.370e-01  linmin:  1.270e-05  t[s]:    212.04
	FillingsUpdate:  mu: -0.079022424  nElectrons: 9.000000
	SubspaceRotationAdjust: set factor to 2.96
ElecMinimize: Iter:  23  F: -20.185093863629714  |grad|_K:  5.422e-07  alpha:  2.017e-01  linmin: -1.090e-04  t[s]:    219.61
	FillingsUpdate:  mu: -0.079045635  nElectrons: 9.000000
	SubspaceRotationAdjust: set factor to 3.8
ElecMinimize: Iter:  24  F: -20.185096073923599  |grad|_K:  4.167e-07  alpha:  2.535e-01  linmin: -1.541e-04  t[s]:    227.20
	FillingsUpdate:  mu: -0.079004810  nElectrons: 9.000000
	SubspaceRotationAdjust: set factor to 3.91
ElecMinimize: Iter:  25  F: -20.185097793327493  |grad|_K:  3.923e-07  alpha:  3.274e-01  linmin:  1.829e-05  t[s]:    234.76
	FillingsUpdate:  mu: -0.078952738  nElectrons: 9.000000
	SubspaceRotationAdjust: set factor to 3.83
ElecMinimize: Iter:  26  F: -20.185099259174709  |grad|_K:  4.102e-07  alpha:  3.382e-01  linmin:  4.621e-05  t[s]:    242.30
	FillingsUpdate:  mu: -0.078971300  nElectrons: 9.000000
	SubspaceRotationAdjust: set factor to 4.26
ElecMinimize: Iter:  27  F: -20.185100457235936  |grad|_K:  3.840e-07  alpha:  2.530e-01  linmin:  1.370e-05  t[s]:    249.85
	FillingsUpdate:  mu: -0.079052122  nElectrons: 9.000000
	SubspaceRotationAdjust: set factor to 4.22
ElecMinimize: Iter:  28  F: -20.185101437561261  |grad|_K:  3.660e-07  alpha:  2.359e-01  linmin: -9.901e-06  t[s]:    257.42
	FillingsUpdate:  mu: -0.079131144  nElectrons: 9.000000
	SubspaceRotationAdjust: set factor to 4.19
ElecMinimize: Iter:  29  F: -20.185102287368522  |grad|_K:  3.164e-07  alpha:  2.228e-01  linmin: -5.361e-05  t[s]:    264.97
	FillingsUpdate:  mu: -0.079146406  nElectrons: 9.000000
	SubspaceRotationAdjust: set factor to 5.11
ElecMinimize: Iter:  30  F: -20.185102991122150  |grad|_K:  2.706e-07  alpha:  2.413e-01  linmin: -4.934e-05  t[s]:    272.60
	FillingsUpdate:  mu: -0.079112124  nElectrons: 9.000000
	SubspaceRotationAdjust: set factor to 5.41
ElecMinimize: Iter:  31  F: -20.185103587730644  |grad|_K:  2.772e-07  alpha:  2.802e-01  linmin:  2.362e-05  t[s]:    280.14
	FillingsUpdate:  mu: -0.079095848  nElectrons: 9.000000
	SubspaceRotationAdjust: set factor to 4.76
ElecMinimize: Iter:  32  F: -20.185104148029662  |grad|_K:  2.917e-07  alpha:  2.591e-01  linmin:  4.032e-05  t[s]:    287.75
	FillingsUpdate:  mu: -0.079137180  nElectrons: 9.000000
	SubspaceRotationAdjust: set factor to 4.52
ElecMinimize: Iter:  33  F: -20.185104623854574  |grad|_K:  2.633e-07  alpha:  2.001e-01  linmin:  1.141e-05  t[s]:    295.33
	FillingsUpdate:  mu: -0.079200422  nElectrons: 9.000000
	SubspaceRotationAdjust: set factor to 4.64
ElecMinimize: Iter:  34  F: -20.185105023594552  |grad|_K:  2.321e-07  alpha:  2.037e-01  linmin: -3.208e-05  t[s]:    302.91
	FillingsUpdate:  mu: -0.079238055  nElectrons: 9.000000
	SubspaceRotationAdjust: set factor to 4.6
ElecMinimize: Iter:  35  F: -20.185105371909227  |grad|_K:  2.099e-07  alpha:  2.236e-01  linmin: -5.246e-05  t[s]:    310.54
	FillingsUpdate:  mu: -0.079233578  nElectrons: 9.000000
	SubspaceRotationAdjust: set factor to 4.73
ElecMinimize: Iter:  36  F: -20.185105680123375  |grad|_K:  1.845e-07  alpha:  2.392e-01  linmin: -5.085e-06  t[s]:    318.22
	FillingsUpdate:  mu: -0.079220000  nElectrons: 9.000000
	SubspaceRotationAdjust: set factor to 4.85
ElecMinimize: Iter:  37  F: -20.185105912610450  |grad|_K:  1.703e-07  alpha:  2.394e-01  linmin:  2.655e-05  t[s]:    325.79
	FillingsUpdate:  mu: -0.079232078  nElectrons: 9.000000
	SubspaceRotationAdjust: set factor to 4.72
ElecMinimize: Iter:  38  F: -20.185106095251097  |grad|_K:  1.631e-07  alpha:  2.245e-01  linmin:  2.482e-05  t[s]:    333.43
	FillingsUpdate:  mu: -0.079268730  nElectrons: 9.000000
	SubspaceRotationAdjust: set factor to 4.43
ElecMinimize: Iter:  39  F: -20.185106253340159  |grad|_K:  1.554e-07  alpha:  2.129e-01  linmin:  2.522e-06  t[s]:    341.00
	FillingsUpdate:  mu: -0.079304582  nElectrons: 9.000000
	SubspaceRotationAdjust: set factor to 4.33
ElecMinimize: Iter:  40  F: -20.185106398732422  |grad|_K:  1.394e-07  alpha:  2.120e-01  linmin: -2.055e-05  t[s]:    348.57
	FillingsUpdate:  mu: -0.079316343  nElectrons: 9.000000
	SubspaceRotationAdjust: set factor to 4.4
ElecMinimize: Iter:  41  F: -20.185106523965946  |grad|_K:  1.215e-07  alpha:  2.238e-01  linmin: -2.303e-05  t[s]:    356.13
	FillingsUpdate:  mu: -0.079308565  nElectrons: 9.000000
	SubspaceRotationAdjust: set factor to 4.58
ElecMinimize: Iter:  42  F: -20.185106621848032  |grad|_K:  1.069e-07  alpha:  2.301e-01  linmin:  7.708e-06  t[s]:    363.70
	FillingsUpdate:  mu: -0.079303651  nElectrons: 9.000000
	SubspaceRotationAdjust: set factor to 4.63
ElecMinimize: Iter:  43  F: -20.185106697266360  |grad|_K:  1.008e-07  alpha:  2.331e-01  linmin:  1.701e-05  t[s]:    371.27
	FillingsUpdate:  mu: -0.079314237  nElectrons: 9.000000
	SubspaceRotationAdjust: set factor to 4.51
ElecMinimize: Iter:  44  F: -20.185106761793801  |grad|_K:  9.846e-08  alpha:  2.259e-01  linmin:  1.294e-05  t[s]:    378.87
	FillingsUpdate:  mu: -0.079335316  nElectrons: 9.000000
	SubspaceRotationAdjust: set factor to 4.22
ElecMinimize: Iter:  45  F: -20.185106822637401  |grad|_K:  9.452e-08  alpha:  2.228e-01  linmin: -3.552e-06  t[s]:    386.47
	FillingsUpdate:  mu: -0.079350582  nElectrons: 9.000000
	SubspaceRotationAdjust: set factor to 4.06
ElecMinimize: Iter:  46  F: -20.185106878097645  |grad|_K:  8.382e-08  alpha:  2.179e-01  linmin: -1.431e-05  t[s]:    394.08
	FillingsUpdate:  mu: -0.079351221  nElectrons: 9.000000
	SubspaceRotationAdjust: set factor to 4.23
ElecMinimize: Iter:  47  F: -20.185106922929069  |grad|_K:  7.159e-08  alpha:  2.225e-01  linmin: -7.807e-06  t[s]:    401.71
	FillingsUpdate:  mu: -0.079344792  nElectrons: 9.000000
	SubspaceRotationAdjust: set factor to 4.5
ElecMinimize: Iter:  48  F: -20.185106957089825  |grad|_K:  6.524e-08  alpha:  2.332e-01  linmin:  6.664e-06  t[s]:    409.31
	FillingsUpdate:  mu: -0.079342441  nElectrons: 9.000000
	SubspaceRotationAdjust: set factor to 4.42
ElecMinimize: Iter:  49  F: -20.185106986073841  |grad|_K:  6.435e-08  alpha:  2.405e-01  linmin:  1.132e-05  t[s]:    416.91
	FillingsUpdate:  mu: -0.079348987  nElectrons: 9.000000
	SubspaceRotationAdjust: set factor to 4.16
ElecMinimize: Iter:  50  F: -20.185107012826844  |grad|_K:  6.241e-08  alpha:  2.290e-01  linmin:  6.330e-06  t[s]:    424.44
	FillingsUpdate:  mu: -0.079358935  nElectrons: 9.000000
	SubspaceRotationAdjust: set factor to 4.02
ElecMinimize: Iter:  51  F: -20.185107037208908  |grad|_K:  5.693e-08  alpha:  2.211e-01  linmin: -3.547e-06  t[s]:    431.95
	FillingsUpdate:  mu: -0.079363293  nElectrons: 9.000000
	SubspaceRotationAdjust: set factor to 4.1
ElecMinimize: Iter:  52  F: -20.185107057658502  |grad|_K:  5.028e-08  alpha:  2.214e-01  linmin: -9.182e-06  t[s]:    439.49
	FillingsUpdate:  mu: -0.079359953  nElectrons: 9.000000
	SubspaceRotationAdjust: set factor to 4.29
ElecMinimize: Iter:  53  F: -20.185107074357774  |grad|_K:  4.545e-08  alpha:  2.309e-01  linmin: -3.547e-06  t[s]:    447.18
	FillingsUpdate:  mu: -0.079353581  nElectrons: 9.000000
	SubspaceRotationAdjust: set factor to 4.3
ElecMinimize: Iter:  54  F: -20.185107088283353  |grad|_K:  4.304e-08  alpha:  2.364e-01  linmin:  4.337e-06  t[s]:    454.79
	FillingsUpdate:  mu: -0.079350007  nElectrons: 9.000000
	SubspaceRotationAdjust: set factor to 4.14
ElecMinimize: Iter:  55  F: -20.185107100477520  |grad|_K:  4.087e-08  alpha:  2.321e-01  linmin:  6.184e-06  t[s]:    462.36
	FillingsUpdate:  mu: -0.079350818  nElectrons: 9.000000
	SubspaceRotationAdjust: set factor to 4.05
ElecMinimize: Iter:  56  F: -20.185107111084807  |grad|_K:  3.790e-08  alpha:  2.243e-01  linmin:  3.649e-06  t[s]:    469.94
	FillingsUpdate:  mu: -0.079352525  nElectrons: 9.000000
	SubspaceRotationAdjust: set factor to 4.05
ElecMinimize: Iter:  57  F: -20.185107120252553  |grad|_K:  3.485e-08  alpha:  2.249e-01  linmin: -1.560e-06  t[s]:    477.52
	FillingsUpdate:  mu: -0.079351173  nElectrons: 9.000000
	SubspaceRotationAdjust: set factor to 4.05
ElecMinimize: Iter:  58  F: -20.185107128173193  |grad|_K:  3.219e-08  alpha:  2.290e-01  linmin: -4.796e-06  t[s]:    485.06
	FillingsUpdate:  mu: -0.079346077  nElectrons: 9.000000
	SubspaceRotationAdjust: set factor to 4.04
ElecMinimize: Iter:  59  F: -20.185107135042269  |grad|_K:  2.961e-08  alpha:  2.322e-01  linmin: -1.421e-06  t[s]:    492.61
	FillingsUpdate:  mu: -0.079340090  nElectrons: 9.000000
	SubspaceRotationAdjust: set factor to 4.06
ElecMinimize: Iter:  60  F: -20.185107140828059  |grad|_K:  2.729e-08  alpha:  2.316e-01  linmin:  2.427e-06  t[s]:    500.14
ElecMinimize: Converged (|Delta F|<1.000000e-08 for 4 iters).
Setting wave functions to eigenvectors of Hamiltonian

# Ionic positions in lattice coordinates:
ion Cs   0.000000000000000   0.000000000000000   0.000000000000000 0

# Forces in Lattice coordinates:
force Cs   0.000000000000000  -0.000000000000000   0.000000000000000 0

# Energy components:
   Eewald =      -14.0451564983133537
       EH =        2.0680912988107973
     Eloc =      -13.6297032763994377
      Enl =        3.4325828853117706
   Epulay =        0.0000000197114257
      Exc =       -3.1178769448497521
       KE =        5.1069554456497874
-------------------------------------
     Etot =      -20.1851070700787609
       TS =        0.0000000707492985
-------------------------------------
        F =      -20.1851071408280589

IonicMinimize: Iter:   0  F: -20.185107140828059  |grad|_K:  0.000e+00  t[s]:    501.00
IonicMinimize: Converged (|grad|_K<1.000000e-04).

#--- Lowdin population analysis ---
# oxidation-state Cs +0.042

End date and time: Sun Jan 16 16:49:07 2022  (Duration: 0-0:08:21.18)
Done!
