2.72
--------------------------------------------------------------------------
The library attempted to open the following supporting CUDA libraries,
but each of them failed.  CUDA-aware support is disabled.
libcuda.so.1: cannot open shared object file: No such file or directory
libcuda.dylib: cannot open shared object file: No such file or directory
/usr/lib64/libcuda.so.1: cannot open shared object file: No such file or directory
/usr/lib64/libcuda.dylib: cannot open shared object file: No such file or directory
If you are not interested in CUDA-aware support, then run with
--mca opal_warn_on_missing_libcuda 0 to suppress this message.  If you are interested
in CUDA-aware support, then try setting LD_LIBRARY_PATH to the location
of libcuda.so.1 to get passed this issue.
--------------------------------------------------------------------------
--------------------------------------------------------------------------
No OpenFabrics connection schemes reported that they were able to be
used on a specific port.  As such, the openib BTL (OpenFabrics
support) will be disabled for this port.

  Local host:           d-18-7-3
  Local device:         mlx5_1
  Local port:           1
  CPCs attempted:       rdmacm, udcm
--------------------------------------------------------------------------

*************** JDFTx 1.6.0 (git hash 42ebbcc2) ***************

Start date and time: Sun Jan 16 16:41:16 2022
Executable jdftx with command-line: -i Cesium.in
Running on hosts (process indices):  d-18-7-3 (0-18)
Divided in process groups (process indices):  0 (0)  1 (1)  2 (2)  3 (3)  4 (4)  5 (5)  6 (6)  7 (7)  8 (8)  9 (9)  10 (10)  11 (11)  12 (12)  13 (13)  14 (14)  15 (15)  16 (16)  17 (17)  18 (18)
Resource initialization completed at t[s]:      0.00
Run totals: 19 processes, 48 threads, 0 GPUs


Input parsed successfully to the following command list (including defaults):

basis kpoint-dependent
coords-type Lattice
core-overlap-check vector
coulomb-interaction Slab 001
davidson-band-ratio 1.1
dump End None
dump-name $INPUT.$VAR
elec-cutoff 20
elec-eigen-algo Davidson
elec-ex-corr gga-PBE
elec-smearing Fermi 1e-05
electronic-minimize  \
	dirUpdateScheme      FletcherReeves \
	linminMethod         DirUpdateRecommended \
	nIterations          10000 \
	history              15 \
	knormThreshold       0 \
	energyDiffThreshold  1e-08 \
	nEnergyDiff          4 \
	alphaTstart          1 \
	alphaTmin            1e-10 \
	updateTestStepSize   yes \
	alphaTreduceFactor   0.1 \
	alphaTincreaseFactor 3 \
	nAlphaAdjustMax      3 \
	wolfeEnergy          0.0001 \
	wolfeGradient        0.9 \
	fdTest               no
exchange-regularization WignerSeitzTruncated
fluid None
fluid-ex-corr (null) lda-PZ
fluid-gummel-loop 10 1.000000e-05
fluid-minimize  \
	dirUpdateScheme      PolakRibiere \
	linminMethod         DirUpdateRecommended \
	nIterations          100 \
	history              15 \
	knormThreshold       0 \
	energyDiffThreshold  0 \
	nEnergyDiff          2 \
	alphaTstart          1 \
	alphaTmin            1e-10 \
	updateTestStepSize   yes \
	alphaTreduceFactor   0.1 \
	alphaTincreaseFactor 3 \
	nAlphaAdjustMax      3 \
	wolfeEnergy          0.0001 \
	wolfeGradient        0.9 \
	fdTest               no
fluid-solvent H2O 55.338 ScalarEOS \
	epsBulk 78.4 \
	pMol 0.92466 \
	epsInf 1.77 \
	Pvap 1.06736e-10 \
	sigmaBulk 4.62e-05 \
	Rvdw 2.61727 \
	Res 1.42 \
	tauNuc 343133 \
	poleEl 15 7 1
forces-output-coords Positions
ion Cs   0.000000000000000   0.000000000000000   0.000000000000000 0
ion-species SG15/$ID_ONCV_PBE.upf
ion-width 0
ionic-minimize  \
	dirUpdateScheme      L-BFGS \
	linminMethod         DirUpdateRecommended \
	nIterations          0 \
	history              15 \
	knormThreshold       0.0001 \
	energyDiffThreshold  1e-06 \
	nEnergyDiff          2 \
	alphaTstart          1 \
	alphaTmin            1e-10 \
	updateTestStepSize   yes \
	alphaTreduceFactor   0.1 \
	alphaTincreaseFactor 3 \
	nAlphaAdjustMax      3 \
	wolfeEnergy          0.0001 \
	wolfeGradient        0.9 \
	fdTest               no
kpoint   0.000000000000   0.000000000000   0.000000000000  1.00000000000000
kpoint-folding 48 48 1 
latt-move-scale 1 1 1
latt-scale 2.72 2.72 1 
lattice  \
	   4.727486978767153   -2.363743489383575    0.000000000000000  \
	  -0.000000000000000    4.094123819672498    0.000000000000000  \
	   0.000000000000000    0.000000000000000   40.000000000000000 
lattice-minimize  \
	dirUpdateScheme      L-BFGS \
	linminMethod         DirUpdateRecommended \
	nIterations          0 \
	history              15 \
	knormThreshold       0 \
	energyDiffThreshold  1e-06 \
	nEnergyDiff          2 \
	alphaTstart          1 \
	alphaTmin            1e-10 \
	updateTestStepSize   yes \
	alphaTreduceFactor   0.1 \
	alphaTincreaseFactor 3 \
	nAlphaAdjustMax      3 \
	wolfeEnergy          0.0001 \
	wolfeGradient        0.9 \
	fdTest               no
lcao-params -1 1e-06 1e-05
pcm-variant GLSSA13
spintype no-spin
subspace-rotation-factor 1 yes
symmetries automatic
symmetry-threshold 0.0001



---------- Setting up symmetries ----------

Found 24 point-group symmetries of the bravais lattice
Found 24 space-group symmetries with basis
Applied RMS atom displacement 0 bohrs to make symmetries exact.

---------- Initializing the Grid ----------
R = 
[      12.8588     -6.42938            0  ]
[            0       11.136            0  ]
[            0            0           40  ]
unit cell volume = 5727.82
G =
[   0.488631   0.282111         -0  ]
[          0   0.564222         -0  ]
[         -0         -0    0.15708  ]
Minimum fftbox size, Smin = [  52  52  164  ]
Chosen fftbox size, S = [  54  54  168  ]

---------- Exchange Correlation functional ----------
Initalized PBE GGA exchange.
Initalized PBE GGA correlation.

---------- Setting up pseudopotentials ----------
Width of ionic core gaussian charges (only for fluid interactions / plotting) set to 0

Reading pseudopotential file '/home/gridsan/aligho/DFT/build-Nov24/pseudopotentials/SG15/Cs_ONCV_PBE.upf':
  'Cs' pseudopotential, 'PBE' functional
  Generated using ONCVPSP code by D. R. Hamann
  Author: Martin Schlipf and Francois Gygi  Date: 150915.
  9 valence electrons, 3 orbitals, 6 projectors, 2414 radial grid points, with lMax = 2
  Transforming local potential to a uniform radial grid of dG=0.02 with 1481 points.
  Transforming nonlocal projectors to a uniform radial grid of dG=0.02 with 432 points.
    5S    l: 0   occupation:  2.0   eigenvalue: -0.982388
    5P    l: 1   occupation:  6.0   eigenvalue: -0.496786
    6S    l: 0   occupation:  1.0   eigenvalue: -0.076670
  Transforming atomic orbitals to a uniform radial grid of dG=0.02 with 432 points.
  Core radius for overlap checks: 2.06 bohrs.
  Reading pulay file /home/gridsan/aligho/DFT/build-Nov24/pseudopotentials/SG15/Cs_ONCV_PBE.pulay ... using dE_dnG = -1.008762e-04 computed for Ecut = 20.

Initialized 1 species with 1 total atoms.

Folded 1 k-points by 48x48x1 to 2304 k-points.

---------- Setting up k-points, bands, fillings ----------
Reduced to 217 k-points under symmetry. 
Computing the number of bands and number of electrons
Calculating initial fillings.
nElectrons:   9.000000   nBands: 6   nStates: 217

----- Setting up reduced wavefunction bases (one per k-point) -----
average nbasis = 24470.285 , ideal nbasis = 24469.670

---------- Setting up coulomb interaction ----------
Initialized slab truncation along lattice direction 001

---------- Setting up 2D ewald sum ----------
Optimum gaussian width for ewald sums = 7.138667 bohr.
Real space sums over 289 unit cells with max indices [  8  8  0  ]
Reciprocal space sums over 81 terms with max indices [  4  4  0  ]

---------- Allocating electronic variables ----------
Initializing wave functions:  linear combination of atomic orbitals
Note: number of bands (6) exceeds available atomic orbitals (5)
Cs pseudo-atom occupations:   s ( 2 1 )  p ( 6 )
[d-18-7-3:60173] 18 more processes have sent help message help-mpi-common-cuda.txt / dlopen failed
[d-18-7-3:60173] Set MCA parameter "orte_base_help_aggregate" to 0 to see all help / error messages
[d-18-7-3:60173] 18 more processes have sent help message help-mpi-btl-openib-cpc-base.txt / no cpcs for port
	FillingsUpdate:  mu: -0.080543094  nElectrons: 9.000000
LCAOMinimize: Iter:   0  F: -20.1793024043165765  |grad|_K:  6.985e-06  alpha:  1.000e+00
	FillingsUpdate:  mu: -0.080538855  nElectrons: 9.000000
LCAOMinimize: Iter:   1  F: -20.1793025921573133  |grad|_K:  4.524e-08  alpha:  9.857e-01  linmin: -2.612e-02  cgtest:  4.258e-01  t[s]:     15.71
LCAOMinimize: Encountered beta<0, resetting CG.
	FillingsUpdate:  mu: -0.080538854  nElectrons: 9.000000
LCAOMinimize: Iter:   2  F: -20.1793025921656373  |grad|_K:  1.216e-09  alpha:  1.028e+00  linmin:  8.785e-02  cgtest: -9.999e-01  t[s]:     21.62
LCAOMinimize: Converged (|Delta F|<1.000000e-06 for 2 iters).


---- Citations for features of the code used in this run ----

   Software package:
      R. Sundararaman, K. Letchworth-Weaver, K.A. Schwarz, D. Gunceler, Y. Ozhabes and T.A. Arias, 'JDFTx: software for joint density-functional theory', SoftwareX 6, 278 (2017)

   gga-PBE exchange-correlation functional:
      J.P. Perdew, K. Burke and M. Ernzerhof, Phys. Rev. Lett. 77, 3865 (1996)

   Pseudopotentials:
      M Schlipf and F Gygi, Comput. Phys. Commun. 196, 36 (2015)

   Truncated Coulomb potentials:
      R. Sundararaman and T.A. Arias, Phys. Rev. B 87, 165122 (2013)

   Total energy minimization with Auxiliary Hamiltonian:
      C. Freysoldt, S. Boeck, and J. Neugebauer, Phys. Rev. B 79, 241103(R) (2009)

This list may not be complete. Please suggest additional citations or
report any other bugs at https://github.com/shankar1729/jdftx/issues

Initialization completed successfully at t[s]:     22.29


-------- Electronic minimization -----------
	FillingsUpdate:  mu: -0.080538854  nElectrons: 9.000000
ElecMinimize: Iter:   0  F: -20.179302592165637  |grad|_K:  3.093e-06  alpha:  1.000e+00
ElecMinimize: 	Predicted alpha/alphaT>3.000000, increasing alphaT to 3.000000e+00.
	FillingsUpdate:  mu: -0.080616074  nElectrons: 9.000000
	SubspaceRotationAdjust: set factor to 1
ElecMinimize: Iter:   1  F: -20.180539224363027  |grad|_K:  4.829e-06  alpha:  4.059e+00  linmin:  1.187e-04  t[s]:     37.47
	FillingsUpdate:  mu: -0.080629100  nElectrons: 9.000000
	SubspaceRotationAdjust: set factor to 1.02
ElecMinimize: Iter:   2  F: -20.180575803592308  |grad|_K:  4.747e-06  alpha:  2.498e-02  linmin: -1.077e-03  t[s]:     45.39
ElecMinimize: 	Predicted alpha/alphaT>3.000000, increasing alphaT to 7.493143e-02.
ElecMinimize: 	Predicted alpha/alphaT>3.000000, increasing alphaT to 2.247943e-01.
ElecMinimize: 	Predicted alpha/alphaT>3.000000, increasing alphaT to 6.743829e-01.
	FillingsUpdate:  mu: -0.080940876  nElectrons: 9.000000
	SubspaceRotationAdjust: set factor to 0.794
ElecMinimize: Iter:   3  F: -20.181677809867669  |grad|_K:  3.074e-06  alpha:  8.038e-01  linmin:  2.677e-04  t[s]:     58.24
	FillingsUpdate:  mu: -0.080914693  nElectrons: 9.000000
	SubspaceRotationAdjust: set factor to 0.897
ElecMinimize: Iter:   4  F: -20.181735731669097  |grad|_K:  3.070e-06  alpha:  1.623e-01  linmin: -5.224e-04  t[s]:     66.11
ElecMinimize: 	Predicted alpha/alphaT>3.000000, increasing alphaT to 4.870338e-01.
	FillingsUpdate:  mu: -0.080538182  nElectrons: 9.000000
	SubspaceRotationAdjust: set factor to 0.611
ElecMinimize: Iter:   5  F: -20.181983668648918  |grad|_K:  4.250e-06  alpha:  7.678e-01  linmin:  2.299e-03  t[s]:     76.33
ElecMinimize: 	Bad step direction: g.d > 0.
ElecMinimize: 	Undoing step.
ElecMinimize: 	Step failed: resetting search direction.
	FillingsUpdate:  mu: -0.080538182  nElectrons: 9.000000
	SubspaceRotationAdjust: set factor to 0.46
ElecMinimize: Iter:   6  F: -20.181983668648908  |grad|_K:  3.687e-06  alpha:  0.000e+00
	FillingsUpdate:  mu: -0.080561799  nElectrons: 9.000000
	SubspaceRotationAdjust: set factor to 0.857
ElecMinimize: Iter:   7  F: -20.182261745748537  |grad|_K:  1.252e-06  alpha:  6.786e-01  linmin: -2.987e-03  t[s]:     89.72
	FillingsUpdate:  mu: -0.080526565  nElectrons: 9.000000
	SubspaceRotationAdjust: set factor to 0.817
ElecMinimize: Iter:   8  F: -20.182364954270174  |grad|_K:  8.690e-07  alpha:  1.539e+00  linmin: -2.475e-03  t[s]:     97.62
	FillingsUpdate:  mu: -0.080191296  nElectrons: 9.000000
	SubspaceRotationAdjust: set factor to 0.827
ElecMinimize: Iter:   9  F: -20.182461029382186  |grad|_K:  1.569e-06  alpha:  3.063e+00  linmin:  3.285e-05  t[s]:    105.50
	FillingsUpdate:  mu: -0.080189268  nElectrons: 9.000000
	SubspaceRotationAdjust: set factor to 0.942
ElecMinimize: Iter:  10  F: -20.182461859619647  |grad|_K:  1.563e-06  alpha:  5.455e-03  linmin: -8.672e-04  t[s]:    113.46
ElecMinimize: 	Predicted alpha/alphaT>3.000000, increasing alphaT to 1.636611e-02.
ElecMinimize: 	Predicted alpha/alphaT>3.000000, increasing alphaT to 4.909833e-02.
ElecMinimize: 	Predicted alpha/alphaT>3.000000, increasing alphaT to 1.472950e-01.
	FillingsUpdate:  mu: -0.079838828  nElectrons: 9.000000
	SubspaceRotationAdjust: set factor to 1.15
ElecMinimize: Iter:  11  F: -20.182539546529892  |grad|_K:  1.073e-06  alpha:  5.150e-01  linmin:  5.512e-05  t[s]:    126.25
	FillingsUpdate:  mu: -0.079318927  nElectrons: 9.000000
	SubspaceRotationAdjust: set factor to 1.2
ElecMinimize: Iter:  12  F: -20.182564117833060  |grad|_K:  1.229e-06  alpha:  7.974e-01  linmin:  1.972e-04  t[s]:    134.18
	FillingsUpdate:  mu: -0.079177465  nElectrons: 9.000000
	SubspaceRotationAdjust: set factor to 1.03
ElecMinimize: Iter:  13  F: -20.182575977810167  |grad|_K:  1.065e-06  alpha:  2.904e-01  linmin: -9.376e-05  t[s]:    142.12
	FillingsUpdate:  mu: -0.079145292  nElectrons: 9.000000
	SubspaceRotationAdjust: set factor to 0.869
ElecMinimize: Iter:  14  F: -20.182587456650634  |grad|_K:  8.016e-07  alpha:  3.046e-01  linmin: -1.240e-05  t[s]:    150.03
	FillingsUpdate:  mu: -0.079139532  nElectrons: 9.000000
	SubspaceRotationAdjust: set factor to 1.22
ElecMinimize: Iter:  15  F: -20.182596130026251  |grad|_K:  6.861e-07  alpha:  4.031e-01  linmin: -2.379e-05  t[s]:    157.95
	FillingsUpdate:  mu: -0.079139549  nElectrons: 9.000000
	SubspaceRotationAdjust: set factor to 1.44
ElecMinimize: Iter:  16  F: -20.182596140063662  |grad|_K:  7.110e-07  alpha:  3.092e-04  linmin: -3.341e-04  t[s]:    165.78
ElecMinimize: 	Predicted alpha/alphaT>3.000000, increasing alphaT to 9.275314e-04.
ElecMinimize: 	Predicted alpha/alphaT>3.000000, increasing alphaT to 2.782594e-03.
ElecMinimize: 	Predicted alpha/alphaT>3.000000, increasing alphaT to 8.347783e-03.
ElecMinimize: 	Step increased F by 2.326839e-03, reducing alpha to 3.043263e-02.
	FillingsUpdate:  mu: -0.079145340  nElectrons: 9.000000
	SubspaceRotationAdjust: set factor to 1.84
ElecMinimize: Iter:  17  F: -20.182598079653904  |grad|_K:  6.639e-07  alpha:  3.043e-02  linmin: -7.149e-04  t[s]:    183.81
ElecMinimize: 	Predicted alpha/alphaT>3.000000, increasing alphaT to 9.129788e-02.
ElecMinimize: 	Step increased F by 5.496313e-04, reducing alpha to 2.268366e-02.
	FillingsUpdate:  mu: -0.079151736  nElectrons: 9.000000
	SubspaceRotationAdjust: set factor to 2.38
ElecMinimize: Iter:  18  F: -20.182599819168573  |grad|_K:  6.220e-07  alpha:  2.268e-02  linmin: -1.262e-03  t[s]:    199.38
ElecMinimize: 	Predicted alpha/alphaT>3.000000, increasing alphaT to 6.805098e-02.
	FillingsUpdate:  mu: -0.079201756  nElectrons: 9.000000
	SubspaceRotationAdjust: set factor to 2.17
ElecMinimize: Iter:  19  F: -20.182607617928237  |grad|_K:  3.335e-07  alpha:  1.738e-01  linmin: -9.113e-05  t[s]:    209.72
	FillingsUpdate:  mu: -0.079199445  nElectrons: 9.000000
	SubspaceRotationAdjust: set factor to 2.39
ElecMinimize: Iter:  20  F: -20.182608704001595  |grad|_K:  4.375e-07  alpha:  2.810e-01  linmin:  1.040e-05  t[s]:    217.63
	FillingsUpdate:  mu: -0.079171873  nElectrons: 9.000000
	SubspaceRotationAdjust: set factor to 2.72
ElecMinimize: Iter:  21  F: -20.182610038538037  |grad|_K:  5.560e-07  alpha:  2.178e-01  linmin:  5.225e-06  t[s]:    225.57
	FillingsUpdate:  mu: -0.079122042  nElectrons: 9.000000
	SubspaceRotationAdjust: set factor to 2.26
ElecMinimize: Iter:  22  F: -20.182611520743126  |grad|_K:  6.341e-07  alpha:  1.420e-01  linmin: -6.960e-06  t[s]:    233.48
	FillingsUpdate:  mu: -0.079063372  nElectrons: 9.000000
	SubspaceRotationAdjust: set factor to 1.77
ElecMinimize: Iter:  23  F: -20.182612877330900  |grad|_K:  6.012e-07  alpha:  1.002e-01  linmin:  4.112e-06  t[s]:    241.39
	FillingsUpdate:  mu: -0.079016172  nElectrons: 9.000000
	SubspaceRotationAdjust: set factor to 1.48
ElecMinimize: Iter:  24  F: -20.182613925184466  |grad|_K:  5.134e-07  alpha:  9.108e-02  linmin:  3.002e-05  t[s]:    249.30
	FillingsUpdate:  mu: -0.078990497  nElectrons: 9.000000
	SubspaceRotationAdjust: set factor to 1.44
ElecMinimize: Iter:  25  F: -20.182614676848132  |grad|_K:  4.251e-07  alpha:  9.080e-02  linmin: -1.591e-06  t[s]:    257.19
	FillingsUpdate:  mu: -0.078981676  nElectrons: 9.000000
	SubspaceRotationAdjust: set factor to 1.65
ElecMinimize: Iter:  26  F: -20.182615242525820  |grad|_K:  3.636e-07  alpha:  9.777e-02  linmin: -1.167e-05  t[s]:    265.08
	FillingsUpdate:  mu: -0.078984720  nElectrons: 9.000000
	SubspaceRotationAdjust: set factor to 2.07
ElecMinimize: Iter:  27  F: -20.182615715244246  |grad|_K:  3.237e-07  alpha:  1.089e-01  linmin: -1.678e-05  t[s]:    272.92
	FillingsUpdate:  mu: -0.078998195  nElectrons: 9.000000
	SubspaceRotationAdjust: set factor to 2.7
ElecMinimize: Iter:  28  F: -20.182616148009298  |grad|_K:  2.983e-07  alpha:  1.236e-01  linmin: -2.162e-05  t[s]:    280.83
	FillingsUpdate:  mu: -0.079021239  nElectrons: 9.000000
	SubspaceRotationAdjust: set factor to 3.52
ElecMinimize: Iter:  29  F: -20.182616569895629  |grad|_K:  2.848e-07  alpha:  1.408e-01  linmin: -2.069e-05  t[s]:    288.77
	FillingsUpdate:  mu: -0.079021285  nElectrons: 9.000000
	SubspaceRotationAdjust: set factor to 4.09
ElecMinimize: Iter:  30  F: -20.182616571215590  |grad|_K:  3.000e-07  alpha:  2.447e-04  linmin: -7.085e-04  t[s]:    296.67
ElecMinimize: 	Predicted alpha/alphaT>3.000000, increasing alphaT to 7.341142e-04.
ElecMinimize: 	Predicted alpha/alphaT>3.000000, increasing alphaT to 2.202343e-03.
ElecMinimize: 	Predicted alpha/alphaT>3.000000, increasing alphaT to 6.607028e-03.
	FillingsUpdate:  mu: -0.079061478  nElectrons: 9.000000
	SubspaceRotationAdjust: set factor to 4.3
ElecMinimize: Iter:  31  F: -20.182617501934896  |grad|_K:  2.460e-07  alpha:  1.526e-01  linmin: -1.390e-04  t[s]:    309.42
	FillingsUpdate:  mu: -0.079073395  nElectrons: 9.000000
	SubspaceRotationAdjust: set factor to 3.83
ElecMinimize: Iter:  32  F: -20.182617826246975  |grad|_K:  2.730e-07  alpha:  1.496e-01  linmin:  4.551e-06  t[s]:    317.34
	FillingsUpdate:  mu: -0.079066276  nElectrons: 9.000000
	SubspaceRotationAdjust: set factor to 3.3
ElecMinimize: Iter:  33  F: -20.182618111264016  |grad|_K:  2.788e-07  alpha:  1.194e-01  linmin:  4.395e-06  t[s]:    325.17
	FillingsUpdate:  mu: -0.079046419  nElectrons: 9.000000
	SubspaceRotationAdjust: set factor to 3.3
ElecMinimize: Iter:  34  F: -20.182618368237225  |grad|_K:  2.683e-07  alpha:  1.039e-01  linmin:  1.037e-05  t[s]:    333.04
	FillingsUpdate:  mu: -0.079025382  nElectrons: 9.000000
	SubspaceRotationAdjust: set factor to 3.5
ElecMinimize: Iter:  35  F: -20.182618585291412  |grad|_K:  2.680e-07  alpha:  9.669e-02  linmin:  1.441e-05  t[s]:    340.94
	FillingsUpdate:  mu: -0.079010082  nElectrons: 9.000000
	SubspaceRotationAdjust: set factor to 3.53
ElecMinimize: Iter:  36  F: -20.182618789972178  |grad|_K:  2.708e-07  alpha:  9.105e-02  linmin:  8.336e-06  t[s]:    348.87
	FillingsUpdate:  mu: -0.079005434  nElectrons: 9.000000
	SubspaceRotationAdjust: set factor to 3.31
ElecMinimize: Iter:  37  F: -20.182618993463084  |grad|_K:  2.672e-07  alpha:  8.764e-02  linmin: -3.735e-06  t[s]:    356.75
	FillingsUpdate:  mu: -0.079012740  nElectrons: 9.000000
	SubspaceRotationAdjust: set factor to 2.97
ElecMinimize: Iter:  38  F: -20.182619205474012  |grad|_K:  2.524e-07  alpha:  9.224e-02  linmin: -7.921e-06  t[s]:    364.63
	FillingsUpdate:  mu: -0.079029278  nElectrons: 9.000000
	SubspaceRotationAdjust: set factor to 2.84
ElecMinimize: Iter:  39  F: -20.182619424015652  |grad|_K:  2.244e-07  alpha:  1.045e-01  linmin: -9.713e-06  t[s]:    372.49
	FillingsUpdate:  mu: -0.079048024  nElectrons: 9.000000
	SubspaceRotationAdjust: set factor to 3.28
ElecMinimize: Iter:  40  F: -20.182619618495501  |grad|_K:  1.961e-07  alpha:  1.174e-01  linmin: -1.120e-05  t[s]:    380.36
	FillingsUpdate:  mu: -0.079063162  nElectrons: 9.000000
	SubspaceRotationAdjust: set factor to 4.28
ElecMinimize: Iter:  41  F: -20.182619775376928  |grad|_K:  1.812e-07  alpha:  1.259e-01  linmin: -7.534e-06  t[s]:    388.30
	FillingsUpdate:  mu: -0.079071598  nElectrons: 9.000000
	SubspaceRotationAdjust: set factor to 4.89
ElecMinimize: Iter:  42  F: -20.182619905406252  |grad|_K:  1.811e-07  alpha:  1.238e-01  linmin:  4.386e-06  t[s]:    396.11
	FillingsUpdate:  mu: -0.079070886  nElectrons: 9.000000
	SubspaceRotationAdjust: set factor to 4.69
ElecMinimize: Iter:  43  F: -20.182620017582000  |grad|_K:  1.850e-07  alpha:  1.074e-01  linmin:  5.547e-06  t[s]:    404.03
	FillingsUpdate:  mu: -0.079063390  nElectrons: 9.000000
	SubspaceRotationAdjust: set factor to 4.13
ElecMinimize: Iter:  44  F: -20.182620113012394  |grad|_K:  1.833e-07  alpha:  8.793e-02  linmin:  4.972e-06  t[s]:    411.87
	FillingsUpdate:  mu: -0.079054439  nElectrons: 9.000000
	SubspaceRotationAdjust: set factor to 3.54
ElecMinimize: Iter:  45  F: -20.182620198478585  |grad|_K:  1.752e-07  alpha:  8.089e-02  linmin:  7.762e-06  t[s]:    419.80
	FillingsUpdate:  mu: -0.079049063  nElectrons: 9.000000
	SubspaceRotationAdjust: set factor to 3.15
ElecMinimize: Iter:  46  F: -20.182620276788029  |grad|_K:  1.610e-07  alpha:  8.116e-02  linmin:  4.233e-06  t[s]:    427.69
	FillingsUpdate:  mu: -0.079050076  nElectrons: 9.000000
	SubspaceRotationAdjust: set factor to 3.03
ElecMinimize: Iter:  47  F: -20.182620347593382  |grad|_K:  1.472e-07  alpha:  8.602e-02  linmin: -3.548e-06  t[s]:    435.59
	FillingsUpdate:  mu: -0.079057719  nElectrons: 9.000000
	SubspaceRotationAdjust: set factor to 3.13
ElecMinimize: Iter:  48  F: -20.182620414696764  |grad|_K:  1.385e-07  alpha:  9.616e-02  linmin: -8.864e-06  t[s]:    443.47
	FillingsUpdate:  mu: -0.079071371  nElectrons: 9.000000
	SubspaceRotationAdjust: set factor to 3.38
ElecMinimize: Iter:  49  F: -20.182620483118807  |grad|_K:  1.342e-07  alpha:  1.094e-01  linmin: -1.014e-05  t[s]:    451.30
	FillingsUpdate:  mu: -0.079088716  nElectrons: 9.000000
	SubspaceRotationAdjust: set factor to 3.72
ElecMinimize: Iter:  50  F: -20.182620553003030  |grad|_K:  1.331e-07  alpha:  1.187e-01  linmin: -6.788e-06  t[s]:    459.21
	FillingsUpdate:  mu: -0.079105429  nElectrons: 9.000000
	SubspaceRotationAdjust: set factor to 3.85
ElecMinimize: Iter:  51  F: -20.182620621424377  |grad|_K:  1.341e-07  alpha:  1.194e-01  linmin: -3.863e-06  t[s]:    467.07
	FillingsUpdate:  mu: -0.079117467  nElectrons: 9.000000
	SubspaceRotationAdjust: set factor to 3.69
ElecMinimize: Iter:  52  F: -20.182620686976147  |grad|_K:  1.335e-07  alpha:  1.139e-01  linmin:  2.459e-06  t[s]:    475.05
	FillingsUpdate:  mu: -0.079122627  nElectrons: 9.000000
	SubspaceRotationAdjust: set factor to 3.45
ElecMinimize: Iter:  53  F: -20.182620746213505  |grad|_K:  1.278e-07  alpha:  1.046e-01  linmin:  4.211e-06  t[s]:    482.92
	FillingsUpdate:  mu: -0.079122325  nElectrons: 9.000000
	SubspaceRotationAdjust: set factor to 3.26
ElecMinimize: Iter:  54  F: -20.182620795291154  |grad|_K:  1.203e-07  alpha:  9.529e-02  linmin:  5.641e-06  t[s]:    490.81
	FillingsUpdate:  mu: -0.079119912  nElectrons: 9.000000
	SubspaceRotationAdjust: set factor to 3.08
ElecMinimize: Iter:  55  F: -20.182620836595142  |grad|_K:  1.137e-07  alpha:  9.097e-02  linmin:  6.892e-06  t[s]:    498.67
	FillingsUpdate:  mu: -0.079118151  nElectrons: 9.000000
	SubspaceRotationAdjust: set factor to 2.9
ElecMinimize: Iter:  56  F: -20.182620873389446  |grad|_K:  1.070e-07  alpha:  9.033e-02  linmin:  7.190e-06  t[s]:    506.57
	FillingsUpdate:  mu: -0.079118838  nElectrons: 9.000000
	SubspaceRotationAdjust: set factor to 2.74
ElecMinimize: Iter:  57  F: -20.182620906534840  |grad|_K:  9.956e-08  alpha:  9.128e-02  linmin: -8.612e-07  t[s]:    514.53
	FillingsUpdate:  mu: -0.079122530  nElectrons: 9.000000
	SubspaceRotationAdjust: set factor to 2.61
ElecMinimize: Iter:  58  F: -20.182620936583881  |grad|_K:  9.192e-08  alpha:  9.493e-02  linmin: -2.833e-06  t[s]:    522.42
	FillingsUpdate:  mu: -0.079128870  nElectrons: 9.000000
	SubspaceRotationAdjust: set factor to 2.56
ElecMinimize: Iter:  59  F: -20.182620964421407  |grad|_K:  8.440e-08  alpha:  1.023e-01  linmin: -4.065e-06  t[s]:    530.39
	FillingsUpdate:  mu: -0.079136823  nElectrons: 9.000000
	SubspaceRotationAdjust: set factor to 2.71
ElecMinimize: Iter:  60  F: -20.182620990108056  |grad|_K:  7.817e-08  alpha:  1.115e-01  linmin: -4.837e-06  t[s]:    538.26
	FillingsUpdate:  mu: -0.079145018  nElectrons: 9.000000
	SubspaceRotationAdjust: set factor to 3.14
ElecMinimize: Iter:  61  F: -20.182621013561636  |grad|_K:  7.536e-08  alpha:  1.190e-01  linmin: -5.638e-06  t[s]:    546.09
	FillingsUpdate:  mu: -0.079152299  nElectrons: 9.000000
	SubspaceRotationAdjust: set factor to 3.56
ElecMinimize: Iter:  62  F: -20.182621035652840  |grad|_K:  7.670e-08  alpha:  1.214e-01  linmin: -9.430e-07  t[s]:    553.95
	FillingsUpdate:  mu: -0.079157587  nElectrons: 9.000000
	SubspaceRotationAdjust: set factor to 3.57
ElecMinimize: Iter:  63  F: -20.182621057544477  |grad|_K:  8.011e-08  alpha:  1.167e-01  linmin:  1.645e-06  t[s]:    561.85
	FillingsUpdate:  mu: -0.079160004  nElectrons: 9.000000
	SubspaceRotationAdjust: set factor to 3.23
ElecMinimize: Iter:  64  F: -20.182621079304212  |grad|_K:  8.128e-08  alpha:  1.067e-01  linmin:  2.381e-06  t[s]:    569.75
	FillingsUpdate:  mu: -0.079159862  nElectrons: 9.000000
	SubspaceRotationAdjust: set factor to 2.81
ElecMinimize: Iter:  65  F: -20.182621099801420  |grad|_K:  7.828e-08  alpha:  9.808e-02  linmin:  2.898e-06  t[s]:    577.70
	FillingsUpdate:  mu: -0.079158542  nElectrons: 9.000000
	SubspaceRotationAdjust: set factor to 2.48
ElecMinimize: Iter:  66  F: -20.182621118448488  |grad|_K:  7.238e-08  alpha:  9.645e-02  linmin:  3.586e-06  t[s]:    585.66
	FillingsUpdate:  mu: -0.079157463  nElectrons: 9.000000
	SubspaceRotationAdjust: set factor to 2.35
ElecMinimize: Iter:  67  F: -20.182621135074054  |grad|_K:  6.581e-08  alpha:  1.003e-01  linmin:  3.405e-06  t[s]:    593.54
	FillingsUpdate:  mu: -0.079157491  nElectrons: 9.000000
	SubspaceRotationAdjust: set factor to 2.43
ElecMinimize: Iter:  68  F: -20.182621149655407  |grad|_K:  6.073e-08  alpha:  1.059e-01  linmin: -1.241e-06  t[s]:    601.49
	FillingsUpdate:  mu: -0.079158865  nElectrons: 9.000000
	SubspaceRotationAdjust: set factor to 2.59
ElecMinimize: Iter:  69  F: -20.182621162728573  |grad|_K:  5.769e-08  alpha:  1.110e-01  linmin: -2.497e-06  t[s]:    609.44
	FillingsUpdate:  mu: -0.079161487  nElectrons: 9.000000
	SubspaceRotationAdjust: set factor to 2.66
ElecMinimize: Iter:  70  F: -20.182621174992036  |grad|_K:  5.563e-08  alpha:  1.148e-01  linmin: -2.684e-06  t[s]:    617.43
	FillingsUpdate:  mu: -0.079164900  nElectrons: 9.000000
	SubspaceRotationAdjust: set factor to 2.64
ElecMinimize: Iter:  71  F: -20.182621186632410  |grad|_K:  5.310e-08  alpha:  1.169e-01  linmin: -2.467e-06  t[s]:    625.23
	FillingsUpdate:  mu: -0.079168244  nElectrons: 9.000000
	SubspaceRotationAdjust: set factor to 2.64
ElecMinimize: Iter:  72  F: -20.182621197313448  |grad|_K:  5.002e-08  alpha:  1.180e-01  linmin: -2.433e-06  t[s]:    633.10
	FillingsUpdate:  mu: -0.079170722  nElectrons: 9.000000
	SubspaceRotationAdjust: set factor to 2.77
ElecMinimize: Iter:  73  F: -20.182621206900709  |grad|_K:  4.757e-08  alpha:  1.198e-01  linmin: -2.189e-07  t[s]:    640.99
	FillingsUpdate:  mu: -0.079171900  nElectrons: 9.000000
	SubspaceRotationAdjust: set factor to 2.97
ElecMinimize: Iter:  74  F: -20.182621215634960  |grad|_K:  4.645e-08  alpha:  1.211e-01  linmin:  1.432e-06  t[s]:    648.92
	FillingsUpdate:  mu: -0.079171632  nElectrons: 9.000000
	SubspaceRotationAdjust: set factor to 3.07
ElecMinimize: Iter:  75  F: -20.182621223688518  |grad|_K:  4.625e-08  alpha:  1.175e-01  linmin:  2.016e-06  t[s]:    656.86
	FillingsUpdate:  mu: -0.079170134  nElectrons: 9.000000
	SubspaceRotationAdjust: set factor to 2.93
ElecMinimize: Iter:  76  F: -20.182621231115014  |grad|_K:  4.587e-08  alpha:  1.096e-01  linmin:  2.003e-06  t[s]:    664.72
ElecMinimize: Converged (|Delta F|<1.000000e-08 for 4 iters).
Setting wave functions to eigenvectors of Hamiltonian

# Ionic positions in lattice coordinates:
ion Cs   0.000000000000000   0.000000000000000   0.000000000000000 0

# Forces in Lattice coordinates:
force Cs   0.000000000000000   0.000000000000000   0.000000000000000 0

# Energy components:
   Eewald =      -13.2706074267151983
       EH =        2.8137981582307563
     Eloc =      -15.1469498112213525
      Enl =        3.4318881464320934
   Epulay =        0.0000000108413756
      Exc =       -3.1136948328739802
       KE =        5.1029445949405909
-------------------------------------
     Etot =      -20.1826211603657164
       TS =        0.0000000707492985
-------------------------------------
        F =      -20.1826212311150144

IonicMinimize: Iter:   0  F: -20.182621231115014  |grad|_K:  0.000e+00  t[s]:    665.71
IonicMinimize: Converged (|grad|_K<1.000000e-04).

#--- Lowdin population analysis ---
# oxidation-state Cs +0.042

End date and time: Sun Jan 16 16:52:22 2022  (Duration: 0-0:11:05.91)
Done!
