1.79
--------------------------------------------------------------------------
The library attempted to open the following supporting CUDA libraries,
but each of them failed.  CUDA-aware support is disabled.
libcuda.so.1: cannot open shared object file: No such file or directory
libcuda.dylib: cannot open shared object file: No such file or directory
/usr/lib64/libcuda.so.1: cannot open shared object file: No such file or directory
/usr/lib64/libcuda.dylib: cannot open shared object file: No such file or directory
If you are not interested in CUDA-aware support, then run with
--mca opal_warn_on_missing_libcuda 0 to suppress this message.  If you are interested
in CUDA-aware support, then try setting LD_LIBRARY_PATH to the location
of libcuda.so.1 to get passed this issue.
--------------------------------------------------------------------------
--------------------------------------------------------------------------
No OpenFabrics connection schemes reported that they were able to be
used on a specific port.  As such, the openib BTL (OpenFabrics
support) will be disabled for this port.

  Local host:           d-16-8-1
  Local device:         mlx5_1
  Local port:           1
  CPCs attempted:       rdmacm, udcm
--------------------------------------------------------------------------

*************** JDFTx 1.6.0 (git hash 42ebbcc2) ***************

Start date and time: Sun Jan 16 16:34:41 2022
Executable jdftx with command-line: -i Cesium.in
Running on hosts (process indices):  d-16-8-1 (0-18)
Divided in process groups (process indices):  0 (0)  1 (1)  2 (2)  3 (3)  4 (4)  5 (5)  6 (6)  7 (7)  8 (8)  9 (9)  10 (10)  11 (11)  12 (12)  13 (13)  14 (14)  15 (15)  16 (16)  17 (17)  18 (18)
Resource initialization completed at t[s]:      0.00
Run totals: 19 processes, 48 threads, 0 GPUs


Input parsed successfully to the following command list (including defaults):

basis kpoint-dependent
coords-type Lattice
core-overlap-check vector
coulomb-interaction Slab 001
davidson-band-ratio 1.1
dump End None
dump-name $INPUT.$VAR
elec-cutoff 20
elec-eigen-algo Davidson
elec-ex-corr gga-PBE
elec-smearing Fermi 1e-05
electronic-minimize  \
	dirUpdateScheme      FletcherReeves \
	linminMethod         DirUpdateRecommended \
	nIterations          10000 \
	history              15 \
	knormThreshold       0 \
	energyDiffThreshold  1e-08 \
	nEnergyDiff          4 \
	alphaTstart          1 \
	alphaTmin            1e-10 \
	updateTestStepSize   yes \
	alphaTreduceFactor   0.1 \
	alphaTincreaseFactor 3 \
	nAlphaAdjustMax      3 \
	wolfeEnergy          0.0001 \
	wolfeGradient        0.9 \
	fdTest               no
exchange-regularization WignerSeitzTruncated
fluid None
fluid-ex-corr (null) lda-PZ
fluid-gummel-loop 10 1.000000e-05
fluid-minimize  \
	dirUpdateScheme      PolakRibiere \
	linminMethod         DirUpdateRecommended \
	nIterations          100 \
	history              15 \
	knormThreshold       0 \
	energyDiffThreshold  0 \
	nEnergyDiff          2 \
	alphaTstart          1 \
	alphaTmin            1e-10 \
	updateTestStepSize   yes \
	alphaTreduceFactor   0.1 \
	alphaTincreaseFactor 3 \
	nAlphaAdjustMax      3 \
	wolfeEnergy          0.0001 \
	wolfeGradient        0.9 \
	fdTest               no
fluid-solvent H2O 55.338 ScalarEOS \
	epsBulk 78.4 \
	pMol 0.92466 \
	epsInf 1.77 \
	Pvap 1.06736e-10 \
	sigmaBulk 4.62e-05 \
	Rvdw 2.61727 \
	Res 1.42 \
	tauNuc 343133 \
	poleEl 15 7 1
forces-output-coords Positions
ion Cs   0.000000000000000   0.000000000000000   0.000000000000000 0
ion-species SG15/$ID_ONCV_PBE.upf
ion-width 0
ionic-minimize  \
	dirUpdateScheme      L-BFGS \
	linminMethod         DirUpdateRecommended \
	nIterations          0 \
	history              15 \
	knormThreshold       0.0001 \
	energyDiffThreshold  1e-06 \
	nEnergyDiff          2 \
	alphaTstart          1 \
	alphaTmin            1e-10 \
	updateTestStepSize   yes \
	alphaTreduceFactor   0.1 \
	alphaTincreaseFactor 3 \
	nAlphaAdjustMax      3 \
	wolfeEnergy          0.0001 \
	wolfeGradient        0.9 \
	fdTest               no
kpoint   0.000000000000   0.000000000000   0.000000000000  1.00000000000000
kpoint-folding 48 48 1 
latt-move-scale 1 1 1
latt-scale 1.79 1.79 1 
lattice  \
	   4.727486978767153   -2.363743489383575    0.000000000000000  \
	  -0.000000000000000    4.094123819672498    0.000000000000000  \
	   0.000000000000000    0.000000000000000   40.000000000000000 
lattice-minimize  \
	dirUpdateScheme      L-BFGS \
	linminMethod         DirUpdateRecommended \
	nIterations          0 \
	history              15 \
	knormThreshold       0 \
	energyDiffThreshold  1e-06 \
	nEnergyDiff          2 \
	alphaTstart          1 \
	alphaTmin            1e-10 \
	updateTestStepSize   yes \
	alphaTreduceFactor   0.1 \
	alphaTincreaseFactor 3 \
	nAlphaAdjustMax      3 \
	wolfeEnergy          0.0001 \
	wolfeGradient        0.9 \
	fdTest               no
lcao-params -1 1e-06 1e-05
pcm-variant GLSSA13
spintype no-spin
subspace-rotation-factor 1 yes
symmetries automatic
symmetry-threshold 0.0001



---------- Setting up symmetries ----------

Found 24 point-group symmetries of the bravais lattice
Found 24 space-group symmetries with basis
Applied RMS atom displacement 0 bohrs to make symmetries exact.

---------- Initializing the Grid ----------
R = 
[       8.4622      -4.2311            0  ]
[            0      7.32848            0  ]
[            0            0           40  ]
unit cell volume = 2480.6
G =
[     0.7425   0.428683         -0  ]
[          0   0.857365         -0  ]
[         -0         -0    0.15708  ]
Minimum fftbox size, Smin = [  36  36  164  ]
Chosen fftbox size, S = [  36  36  168  ]

---------- Exchange Correlation functional ----------
Initalized PBE GGA exchange.
Initalized PBE GGA correlation.

---------- Setting up pseudopotentials ----------
Width of ionic core gaussian charges (only for fluid interactions / plotting) set to 0

Reading pseudopotential file '/home/gridsan/aligho/DFT/build-Nov24/pseudopotentials/SG15/Cs_ONCV_PBE.upf':
  'Cs' pseudopotential, 'PBE' functional
  Generated using ONCVPSP code by D. R. Hamann
  Author: Martin Schlipf and Francois Gygi  Date: 150915.
  9 valence electrons, 3 orbitals, 6 projectors, 2414 radial grid points, with lMax = 2
  Transforming local potential to a uniform radial grid of dG=0.02 with 1496 points.
  Transforming nonlocal projectors to a uniform radial grid of dG=0.02 with 432 points.
    5S    l: 0   occupation:  2.0   eigenvalue: -0.982388
    5P    l: 1   occupation:  6.0   eigenvalue: -0.496786
    6S    l: 0   occupation:  1.0   eigenvalue: -0.076670
  Transforming atomic orbitals to a uniform radial grid of dG=0.02 with 432 points.
  Core radius for overlap checks: 2.06 bohrs.
  Reading pulay file /home/gridsan/aligho/DFT/build-Nov24/pseudopotentials/SG15/Cs_ONCV_PBE.pulay ... using dE_dnG = -1.008762e-04 computed for Ecut = 20.

Initialized 1 species with 1 total atoms.

Folded 1 k-points by 48x48x1 to 2304 k-points.

---------- Setting up k-points, bands, fillings ----------
Reduced to 217 k-points under symmetry. 
Computing the number of bands and number of electrons
Calculating initial fillings.
nElectrons:   9.000000   nBands: 6   nStates: 217

----- Setting up reduced wavefunction bases (one per k-point) -----
average nbasis = 10597.686 , ideal nbasis = 10597.328

---------- Setting up coulomb interaction ----------
Initialized slab truncation along lattice direction 001

---------- Setting up 2D ewald sum ----------
Optimum gaussian width for ewald sums = 4.697873 bohr.
Real space sums over 289 unit cells with max indices [  8  8  0  ]
Reciprocal space sums over 81 terms with max indices [  4  4  0  ]

---------- Allocating electronic variables ----------
Initializing wave functions:  linear combination of atomic orbitals
Note: number of bands (6) exceeds available atomic orbitals (5)
Cs pseudo-atom occupations:   s ( 2 1 )  p ( 6 )
	FillingsUpdate:  mu: -0.096693530  nElectrons: 9.000000
LCAOMinimize: Iter:   0  F: -20.1731626909277750  |grad|_K:  8.780e-06  alpha:  1.000e+00
[d-16-8-1:01258] 18 more processes have sent help message help-mpi-common-cuda.txt / dlopen failed
[d-16-8-1:01258] Set MCA parameter "orte_base_help_aggregate" to 0 to see all help / error messages
[d-16-8-1:01258] 18 more processes have sent help message help-mpi-btl-openib-cpc-base.txt / no cpcs for port
	FillingsUpdate:  mu: -0.096668484  nElectrons: 9.000000
LCAOMinimize: Iter:   1  F: -20.1731629848182301  |grad|_K:  1.498e-07  alpha:  9.765e-01  linmin: -8.712e-03  cgtest:  6.160e-01  t[s]:      7.48
LCAOMinimize: Encountered beta<0, resetting CG.
	FillingsUpdate:  mu: -0.096668254  nElectrons: 9.000000
LCAOMinimize: Iter:   2  F: -20.1731629849058933  |grad|_K:  1.050e-09  alpha:  1.001e+00  linmin:  2.192e-03  cgtest: -5.055e-01  t[s]:     10.16
LCAOMinimize: Converged (|Delta F|<1.000000e-06 for 2 iters).


---- Citations for features of the code used in this run ----

   Software package:
      R. Sundararaman, K. Letchworth-Weaver, K.A. Schwarz, D. Gunceler, Y. Ozhabes and T.A. Arias, 'JDFTx: software for joint density-functional theory', SoftwareX 6, 278 (2017)

   gga-PBE exchange-correlation functional:
      J.P. Perdew, K. Burke and M. Ernzerhof, Phys. Rev. Lett. 77, 3865 (1996)

   Pseudopotentials:
      M Schlipf and F Gygi, Comput. Phys. Commun. 196, 36 (2015)

   Truncated Coulomb potentials:
      R. Sundararaman and T.A. Arias, Phys. Rev. B 87, 165122 (2013)

   Total energy minimization with Auxiliary Hamiltonian:
      C. Freysoldt, S. Boeck, and J. Neugebauer, Phys. Rev. B 79, 241103(R) (2009)

This list may not be complete. Please suggest additional citations or
report any other bugs at https://github.com/shankar1729/jdftx/issues

Initialization completed successfully at t[s]:     10.48


-------- Electronic minimization -----------
	FillingsUpdate:  mu: -0.096668254  nElectrons: 9.000000
ElecMinimize: Iter:   0  F: -20.173162984905868  |grad|_K:  1.266e-05  alpha:  1.000e+00
	FillingsUpdate:  mu: -0.095729561  nElectrons: 9.000000
	SubspaceRotationAdjust: set factor to 1
ElecMinimize: Iter:   1  F: -20.176029970572298  |grad|_K:  8.932e-06  alpha:  1.297e+00  linmin:  3.950e-05  t[s]:     16.27
	FillingsUpdate:  mu: -0.088278894  nElectrons: 9.000000
	SubspaceRotationAdjust: set factor to 0.677
ElecMinimize: Iter:   2  F: -20.178313229224216  |grad|_K:  9.191e-06  alpha:  2.146e+00  linmin:  1.444e-03  t[s]:     19.83
	FillingsUpdate:  mu: -0.088209515  nElectrons: 9.000000
	SubspaceRotationAdjust: set factor to 0.867
ElecMinimize: Iter:   3  F: -20.178324943476515  |grad|_K:  8.492e-06  alpha:  1.083e-02  linmin: -1.970e-03  t[s]:     23.37
ElecMinimize: 	Predicted alpha/alphaT>3.000000, increasing alphaT to 3.250384e-02.
ElecMinimize: 	Predicted alpha/alphaT>3.000000, increasing alphaT to 9.751152e-02.
ElecMinimize: 	Predicted alpha/alphaT>3.000000, increasing alphaT to 2.925346e-01.
	FillingsUpdate:  mu: -0.081262903  nElectrons: 9.000000
	SubspaceRotationAdjust: set factor to 1.16
ElecMinimize: Iter:   4  F: -20.179234602928169  |grad|_K:  1.012e-05  alpha:  8.740e-01  linmin:  2.868e-03  t[s]:     29.04
ElecMinimize: 	Step increased F by 2.599350e-04, reducing alpha to 4.131760e-04.
	FillingsUpdate:  mu: -0.081257743  nElectrons: 9.000000
	SubspaceRotationAdjust: set factor to 1.15
ElecMinimize: Iter:   5  F: -20.179234772749894  |grad|_K:  1.144e-05  alpha:  4.132e-04  linmin: -3.600e-04  t[s]:     34.95
ElecMinimize: 	Predicted alpha/alphaT>3.000000, increasing alphaT to 1.239528e-03.
ElecMinimize: 	Predicted alpha/alphaT>3.000000, increasing alphaT to 3.718584e-03.
ElecMinimize: 	Predicted alpha/alphaT>3.000000, increasing alphaT to 1.115575e-02.
	FillingsUpdate:  mu: -0.080944280  nElectrons: 9.000000
	SubspaceRotationAdjust: set factor to 1.57
ElecMinimize: Iter:   6  F: -20.179303803379579  |grad|_K:  9.895e-06  alpha:  2.009e-02  linmin: -3.238e-03  t[s]:     40.59
ElecMinimize: 	Predicted alpha/alphaT>3.000000, increasing alphaT to 6.025601e-02.
ElecMinimize: 	Predicted alpha/alphaT>3.000000, increasing alphaT to 1.807680e-01.
	FillingsUpdate:  mu: -0.079056697  nElectrons: 9.000000
	SubspaceRotationAdjust: set factor to 2.06
ElecMinimize: Iter:   7  F: -20.180107106543655  |grad|_K:  5.959e-06  alpha:  3.105e-01  linmin: -1.006e-03  t[s]:     46.22
	FillingsUpdate:  mu: -0.078255782  nElectrons: 9.000000
	SubspaceRotationAdjust: set factor to 2.26
ElecMinimize: Iter:   8  F: -20.180339191176127  |grad|_K:  4.904e-06  alpha:  4.005e-01  linmin: -1.250e-03  t[s]:     49.75
	FillingsUpdate:  mu: -0.078435981  nElectrons: 9.000000
	SubspaceRotationAdjust: set factor to 2.21
ElecMinimize: Iter:   9  F: -20.180602097121458  |grad|_K:  4.446e-06  alpha:  7.106e-01  linmin:  1.548e-04  t[s]:     53.30
	FillingsUpdate:  mu: -0.077543830  nElectrons: 9.000000
	SubspaceRotationAdjust: set factor to 3.26
ElecMinimize: Iter:  10  F: -20.180718740786524  |grad|_K:  3.699e-06  alpha:  2.904e-01  linmin: -2.028e-03  t[s]:     56.82
	FillingsUpdate:  mu: -0.073978848  nElectrons: 9.000000
	SubspaceRotationAdjust: set factor to 1.69
ElecMinimize: Iter:  11  F: -20.180784768146424  |grad|_K:  1.735e-05  alpha:  4.668e-01  linmin:  1.497e-02  t[s]:     60.35
ElecMinimize: 	Bad step direction: g.d > 0.
ElecMinimize: 	Undoing step.
ElecMinimize: 	Step failed: resetting search direction.
	FillingsUpdate:  mu: -0.073978848  nElectrons: 9.000000
	SubspaceRotationAdjust: set factor to 0.903
ElecMinimize: Iter:  12  F: -20.180784768146424  |grad|_K:  1.268e-05  alpha:  0.000e+00
	FillingsUpdate:  mu: -0.075773360  nElectrons: 9.000000
	SubspaceRotationAdjust: set factor to 1.59
ElecMinimize: Iter:  13  F: -20.180903287416832  |grad|_K:  2.455e-06  alpha:  2.530e-01  linmin: -6.558e-03  t[s]:     66.31
ElecMinimize: 	Predicted alpha/alphaT>3.000000, increasing alphaT to 7.589141e-01.
	FillingsUpdate:  mu: -0.077064813  nElectrons: 9.000000
	SubspaceRotationAdjust: set factor to 1.47
ElecMinimize: Iter:  14  F: -20.181006456837924  |grad|_K:  1.623e-06  alpha:  1.106e+00  linmin: -2.594e-03  t[s]:     70.90
	FillingsUpdate:  mu: -0.075384065  nElectrons: 9.000000
	SubspaceRotationAdjust: set factor to 1.25
ElecMinimize: Iter:  15  F: -20.181062152800120  |grad|_K:  2.470e-06  alpha:  1.911e+00  linmin:  1.625e-03  t[s]:     74.45
	FillingsUpdate:  mu: -0.075392364  nElectrons: 9.000000
	SubspaceRotationAdjust: set factor to 1.55
ElecMinimize: Iter:  16  F: -20.181063060845197  |grad|_K:  2.435e-06  alpha:  1.427e-02  linmin: -1.680e-03  t[s]:     77.99
ElecMinimize: 	Predicted alpha/alphaT>3.000000, increasing alphaT to 4.281591e-02.
ElecMinimize: 	Predicted alpha/alphaT>3.000000, increasing alphaT to 1.284477e-01.
ElecMinimize: 	Predicted alpha/alphaT>3.000000, increasing alphaT to 3.853432e-01.
	FillingsUpdate:  mu: -0.076738328  nElectrons: 9.000000
	SubspaceRotationAdjust: set factor to 2.18
ElecMinimize: Iter:  17  F: -20.181129549587574  |grad|_K:  1.555e-06  alpha:  5.466e-01  linmin: -1.288e-03  t[s]:     83.66
	FillingsUpdate:  mu: -0.077427052  nElectrons: 9.000000
	SubspaceRotationAdjust: set factor to 2.14
ElecMinimize: Iter:  18  F: -20.181154036926664  |grad|_K:  1.322e-06  alpha:  6.357e-01  linmin: -1.602e-03  t[s]:     87.19
	FillingsUpdate:  mu: -0.077455974  nElectrons: 9.000000
	SubspaceRotationAdjust: set factor to 2.16
ElecMinimize: Iter:  19  F: -20.181184846808392  |grad|_K:  1.264e-06  alpha:  1.040e+00  linmin: -3.966e-04  t[s]:     90.74
	FillingsUpdate:  mu: -0.076554378  nElectrons: 9.000000
	SubspaceRotationAdjust: set factor to 1.62
ElecMinimize: Iter:  20  F: -20.181207307180347  |grad|_K:  1.168e-06  alpha:  9.053e-01  linmin:  5.329e-04  t[s]:     94.25
	FillingsUpdate:  mu: -0.076884300  nElectrons: 9.000000
	SubspaceRotationAdjust: set factor to 1.84
ElecMinimize: Iter:  21  F: -20.181217951963728  |grad|_K:  1.093e-06  alpha:  6.367e-01  linmin:  1.904e-05  t[s]:     97.80
	FillingsUpdate:  mu: -0.077656310  nElectrons: 9.000000
	SubspaceRotationAdjust: set factor to 2.11
ElecMinimize: Iter:  22  F: -20.181227881163014  |grad|_K:  9.946e-07  alpha:  6.029e-01  linmin:  5.341e-05  t[s]:    101.37
	FillingsUpdate:  mu: -0.077088374  nElectrons: 9.000000
	SubspaceRotationAdjust: set factor to 1.97
ElecMinimize: Iter:  23  F: -20.181237199231369  |grad|_K:  7.384e-07  alpha:  6.944e-01  linmin:  1.027e-04  t[s]:    104.89
	FillingsUpdate:  mu: -0.076706256  nElectrons: 9.000000
	SubspaceRotationAdjust: set factor to 2.1
ElecMinimize: Iter:  24  F: -20.181242930204942  |grad|_K:  5.787e-07  alpha:  7.842e-01  linmin:  5.465e-05  t[s]:    108.45
	FillingsUpdate:  mu: -0.076867775  nElectrons: 9.000000
	SubspaceRotationAdjust: set factor to 1.78
ElecMinimize: Iter:  25  F: -20.181246639695722  |grad|_K:  5.253e-07  alpha:  8.183e-01  linmin:  3.165e-04  t[s]:    112.01
	FillingsUpdate:  mu: -0.077130119  nElectrons: 9.000000
	SubspaceRotationAdjust: set factor to 1.74
ElecMinimize: Iter:  26  F: -20.181248657043117  |grad|_K:  4.863e-07  alpha:  6.369e-01  linmin: -9.231e-06  t[s]:    115.51
	FillingsUpdate:  mu: -0.076700036  nElectrons: 9.000000
	SubspaceRotationAdjust: set factor to 1.82
ElecMinimize: Iter:  27  F: -20.181250760386618  |grad|_K:  3.632e-07  alpha:  6.445e-01  linmin:  2.940e-04  t[s]:    119.05
	FillingsUpdate:  mu: -0.076528651  nElectrons: 9.000000
	SubspaceRotationAdjust: set factor to 1.88
ElecMinimize: Iter:  28  F: -20.181252116687016  |grad|_K:  3.052e-07  alpha:  8.066e-01  linmin:  2.089e-04  t[s]:    122.56
	FillingsUpdate:  mu: -0.076535798  nElectrons: 9.000000
	SubspaceRotationAdjust: set factor to 2.09
ElecMinimize: Iter:  29  F: -20.181252911867620  |grad|_K:  2.359e-07  alpha:  6.570e-01  linmin: -2.532e-04  t[s]:    126.14
	FillingsUpdate:  mu: -0.076549141  nElectrons: 9.000000
	SubspaceRotationAdjust: set factor to 1.91
ElecMinimize: Iter:  30  F: -20.181253572788556  |grad|_K:  2.110e-07  alpha:  8.206e-01  linmin:  6.800e-05  t[s]:    129.69
	FillingsUpdate:  mu: -0.076479190  nElectrons: 9.000000
	SubspaceRotationAdjust: set factor to 2.36
ElecMinimize: Iter:  31  F: -20.181254021959678  |grad|_K:  1.634e-07  alpha:  7.451e-01  linmin:  7.813e-06  t[s]:    133.22
	FillingsUpdate:  mu: -0.076418351  nElectrons: 9.000000
	SubspaceRotationAdjust: set factor to 2.08
ElecMinimize: Iter:  32  F: -20.181254296153636  |grad|_K:  1.262e-07  alpha:  7.454e-01  linmin: -8.192e-05  t[s]:    136.77
	FillingsUpdate:  mu: -0.076427646  nElectrons: 9.000000
	SubspaceRotationAdjust: set factor to 1.99
ElecMinimize: Iter:  33  F: -20.181254494741697  |grad|_K:  1.147e-07  alpha:  8.968e-01  linmin:  2.001e-04  t[s]:    140.31
	FillingsUpdate:  mu: -0.076432775  nElectrons: 9.000000
	SubspaceRotationAdjust: set factor to 2.07
ElecMinimize: Iter:  34  F: -20.181254644035505  |grad|_K:  1.004e-07  alpha:  8.666e-01  linmin:  1.864e-05  t[s]:    143.87
	FillingsUpdate:  mu: -0.076422221  nElectrons: 9.000000
	SubspaceRotationAdjust: set factor to 2.24
ElecMinimize: Iter:  35  F: -20.181254742701945  |grad|_K:  7.992e-08  alpha:  7.167e-01  linmin: -2.604e-05  t[s]:    147.43
	FillingsUpdate:  mu: -0.076424483  nElectrons: 9.000000
	SubspaceRotationAdjust: set factor to 2.04
ElecMinimize: Iter:  36  F: -20.181254822751033  |grad|_K:  7.291e-08  alpha:  8.978e-01  linmin: -6.625e-05  t[s]:    150.98
	FillingsUpdate:  mu: -0.076447935  nElectrons: 9.000000
	SubspaceRotationAdjust: set factor to 2.09
ElecMinimize: Iter:  37  F: -20.181254888031877  |grad|_K:  6.170e-08  alpha:  8.726e-01  linmin:  7.603e-05  t[s]:    154.51
	FillingsUpdate:  mu: -0.076458319  nElectrons: 9.000000
	SubspaceRotationAdjust: set factor to 2.02
ElecMinimize: Iter:  38  F: -20.181254933671237  |grad|_K:  5.785e-08  alpha:  8.890e-01  linmin:  1.804e-05  t[s]:    158.02
	FillingsUpdate:  mu: -0.076463465  nElectrons: 9.000000
	SubspaceRotationAdjust: set factor to 2.28
ElecMinimize: Iter:  39  F: -20.181254969908185  |grad|_K:  4.623e-08  alpha:  7.916e-01  linmin: -2.929e-05  t[s]:    161.54
	FillingsUpdate:  mu: -0.076475849  nElectrons: 9.000000
	SubspaceRotationAdjust: set factor to 2.04
ElecMinimize: Iter:  40  F: -20.181254993732843  |grad|_K:  3.901e-08  alpha:  7.998e-01  linmin: -1.412e-05  t[s]:    165.05
	FillingsUpdate:  mu: -0.076492215  nElectrons: 9.000000
	SubspaceRotationAdjust: set factor to 2.08
ElecMinimize: Iter:  41  F: -20.181255013110306  |grad|_K:  3.431e-08  alpha:  9.218e-01  linmin:  4.827e-05  t[s]:    168.58
	FillingsUpdate:  mu: -0.076499104  nElectrons: 9.000000
	SubspaceRotationAdjust: set factor to 2.04
ElecMinimize: Iter:  42  F: -20.181255026144107  |grad|_K:  2.861e-08  alpha:  8.176e-01  linmin:  3.951e-06  t[s]:    172.12
	FillingsUpdate:  mu: -0.076504363  nElectrons: 9.000000
	SubspaceRotationAdjust: set factor to 2.08
ElecMinimize: Iter:  43  F: -20.181255035689421  |grad|_K:  2.494e-08  alpha:  8.455e-01  linmin: -2.657e-05  t[s]:    175.64
	FillingsUpdate:  mu: -0.076512464  nElectrons: 9.000000
	SubspaceRotationAdjust: set factor to 2.01
ElecMinimize: Iter:  44  F: -20.181255043230689  |grad|_K:  2.087e-08  alpha:  8.675e-01  linmin: -1.375e-06  t[s]:    179.17
	FillingsUpdate:  mu: -0.076517180  nElectrons: 9.000000
	SubspaceRotationAdjust: set factor to 2.01
ElecMinimize: Iter:  45  F: -20.181255048150611  |grad|_K:  1.669e-08  alpha:  8.169e-01  linmin:  1.940e-05  t[s]:    182.73
	FillingsUpdate:  mu: -0.076517706  nElectrons: 9.000000
	SubspaceRotationAdjust: set factor to 1.97
ElecMinimize: Iter:  46  F: -20.181255051442044  |grad|_K:  1.481e-08  alpha:  8.649e-01  linmin:  1.479e-06  t[s]:    186.23
ElecMinimize: Converged (|Delta F|<1.000000e-08 for 4 iters).
Setting wave functions to eigenvectors of Hamiltonian

# Ionic positions in lattice coordinates:
ion Cs   0.000000000000000   0.000000000000000   0.000000000000000 0

# Forces in Lattice coordinates:
force Cs  -0.000000000000000  -0.000000000000000   0.000000000000000 0

# Energy components:
   Eewald =      -20.1653922908744789
       EH =       -3.9729527030022385
     Eloc =       -1.5099159994395419
      Enl =        3.4507994053511313
   Epulay =        0.0000000145839936
      Exc =       -3.1594160348801408
       KE =        5.1756226448684135
-------------------------------------
     Etot =      -20.1812549633928668
       TS =        0.0000000880491765
-------------------------------------
        F =      -20.1812550514420437

IonicMinimize: Iter:   0  F: -20.181255051442044  |grad|_K:  0.000e+00  t[s]:    186.64
IonicMinimize: Converged (|grad|_K<1.000000e-04).

#--- Lowdin population analysis ---
# oxidation-state Cs +0.076

End date and time: Sun Jan 16 16:37:48 2022  (Duration: 0-0:03:06.72)
Done!
