2.0
--------------------------------------------------------------------------
The library attempted to open the following supporting CUDA libraries,
but each of them failed.  CUDA-aware support is disabled.
libcuda.so.1: cannot open shared object file: No such file or directory
libcuda.dylib: cannot open shared object file: No such file or directory
/usr/lib64/libcuda.so.1: cannot open shared object file: No such file or directory
/usr/lib64/libcuda.dylib: cannot open shared object file: No such file or directory
If you are not interested in CUDA-aware support, then run with
--mca opal_warn_on_missing_libcuda 0 to suppress this message.  If you are interested
in CUDA-aware support, then try setting LD_LIBRARY_PATH to the location
of libcuda.so.1 to get passed this issue.
--------------------------------------------------------------------------
--------------------------------------------------------------------------
No OpenFabrics connection schemes reported that they were able to be
used on a specific port.  As such, the openib BTL (OpenFabrics
support) will be disabled for this port.

  Local host:           d-17-8-4
  Local device:         mlx5_1
  Local port:           1
  CPCs attempted:       rdmacm, udcm
--------------------------------------------------------------------------

*************** JDFTx 1.6.0 (git hash 42ebbcc2) ***************

Start date and time: Sun Jan 16 16:36:43 2022
Executable jdftx with command-line: -i Cesium.in
Running on hosts (process indices):  d-17-8-4 (0-18)
Divided in process groups (process indices):  0 (0)  1 (1)  2 (2)  3 (3)  4 (4)  5 (5)  6 (6)  7 (7)  8 (8)  9 (9)  10 (10)  11 (11)  12 (12)  13 (13)  14 (14)  15 (15)  16 (16)  17 (17)  18 (18)
Resource initialization completed at t[s]:      0.00
Run totals: 19 processes, 48 threads, 0 GPUs


Input parsed successfully to the following command list (including defaults):

basis kpoint-dependent
coords-type Lattice
core-overlap-check vector
coulomb-interaction Slab 001
davidson-band-ratio 1.1
dump End None
dump-name $INPUT.$VAR
elec-cutoff 20
elec-eigen-algo Davidson
elec-ex-corr gga-PBE
elec-smearing Fermi 1e-05
electronic-minimize  \
	dirUpdateScheme      FletcherReeves \
	linminMethod         DirUpdateRecommended \
	nIterations          10000 \
	history              15 \
	knormThreshold       0 \
	energyDiffThreshold  1e-08 \
	nEnergyDiff          4 \
	alphaTstart          1 \
	alphaTmin            1e-10 \
	updateTestStepSize   yes \
	alphaTreduceFactor   0.1 \
	alphaTincreaseFactor 3 \
	nAlphaAdjustMax      3 \
	wolfeEnergy          0.0001 \
	wolfeGradient        0.9 \
	fdTest               no
exchange-regularization WignerSeitzTruncated
fluid None
fluid-ex-corr (null) lda-PZ
fluid-gummel-loop 10 1.000000e-05
fluid-minimize  \
	dirUpdateScheme      PolakRibiere \
	linminMethod         DirUpdateRecommended \
	nIterations          100 \
	history              15 \
	knormThreshold       0 \
	energyDiffThreshold  0 \
	nEnergyDiff          2 \
	alphaTstart          1 \
	alphaTmin            1e-10 \
	updateTestStepSize   yes \
	alphaTreduceFactor   0.1 \
	alphaTincreaseFactor 3 \
	nAlphaAdjustMax      3 \
	wolfeEnergy          0.0001 \
	wolfeGradient        0.9 \
	fdTest               no
fluid-solvent H2O 55.338 ScalarEOS \
	epsBulk 78.4 \
	pMol 0.92466 \
	epsInf 1.77 \
	Pvap 1.06736e-10 \
	sigmaBulk 4.62e-05 \
	Rvdw 2.61727 \
	Res 1.42 \
	tauNuc 343133 \
	poleEl 15 7 1
forces-output-coords Positions
ion Cs   0.000000000000000   0.000000000000000   0.000000000000000 0
ion-species SG15/$ID_ONCV_PBE.upf
ion-width 0
ionic-minimize  \
	dirUpdateScheme      L-BFGS \
	linminMethod         DirUpdateRecommended \
	nIterations          0 \
	history              15 \
	knormThreshold       0.0001 \
	energyDiffThreshold  1e-06 \
	nEnergyDiff          2 \
	alphaTstart          1 \
	alphaTmin            1e-10 \
	updateTestStepSize   yes \
	alphaTreduceFactor   0.1 \
	alphaTincreaseFactor 3 \
	nAlphaAdjustMax      3 \
	wolfeEnergy          0.0001 \
	wolfeGradient        0.9 \
	fdTest               no
kpoint   0.000000000000   0.000000000000   0.000000000000  1.00000000000000
kpoint-folding 48 48 1 
latt-move-scale 1 1 1
latt-scale 2 2 1 
lattice  \
	   4.727486978767153   -2.363743489383575    0.000000000000000  \
	  -0.000000000000000    4.094123819672498    0.000000000000000  \
	   0.000000000000000    0.000000000000000   40.000000000000000 
lattice-minimize  \
	dirUpdateScheme      L-BFGS \
	linminMethod         DirUpdateRecommended \
	nIterations          0 \
	history              15 \
	knormThreshold       0 \
	energyDiffThreshold  1e-06 \
	nEnergyDiff          2 \
	alphaTstart          1 \
	alphaTmin            1e-10 \
	updateTestStepSize   yes \
	alphaTreduceFactor   0.1 \
	alphaTincreaseFactor 3 \
	nAlphaAdjustMax      3 \
	wolfeEnergy          0.0001 \
	wolfeGradient        0.9 \
	fdTest               no
lcao-params -1 1e-06 1e-05
pcm-variant GLSSA13
spintype no-spin
subspace-rotation-factor 1 yes
symmetries automatic
symmetry-threshold 0.0001



---------- Setting up symmetries ----------

Found 24 point-group symmetries of the bravais lattice
Found 24 space-group symmetries with basis
Applied RMS atom displacement 0 bohrs to make symmetries exact.

---------- Initializing the Grid ----------
R = 
[      9.45497     -4.72749            0  ]
[            0      8.18825            0  ]
[            0            0           40  ]
unit cell volume = 3096.79
G =
[   0.664538   0.383671         -0  ]
[          0   0.767342         -0  ]
[         -0         -0    0.15708  ]
Minimum fftbox size, Smin = [  40  40  164  ]
Chosen fftbox size, S = [  40  40  168  ]

---------- Exchange Correlation functional ----------
Initalized PBE GGA exchange.
Initalized PBE GGA correlation.

---------- Setting up pseudopotentials ----------
Width of ionic core gaussian charges (only for fluid interactions / plotting) set to 0

Reading pseudopotential file '/home/gridsan/aligho/DFT/build-Nov24/pseudopotentials/SG15/Cs_ONCV_PBE.upf':
  'Cs' pseudopotential, 'PBE' functional
  Generated using ONCVPSP code by D. R. Hamann
  Author: Martin Schlipf and Francois Gygi  Date: 150915.
  9 valence electrons, 3 orbitals, 6 projectors, 2414 radial grid points, with lMax = 2
  Transforming local potential to a uniform radial grid of dG=0.02 with 1489 points.
  Transforming nonlocal projectors to a uniform radial grid of dG=0.02 with 432 points.
    5S    l: 0   occupation:  2.0   eigenvalue: -0.982388
    5P    l: 1   occupation:  6.0   eigenvalue: -0.496786
    6S    l: 0   occupation:  1.0   eigenvalue: -0.076670
  Transforming atomic orbitals to a uniform radial grid of dG=0.02 with 432 points.
  Core radius for overlap checks: 2.06 bohrs.
  Reading pulay file /home/gridsan/aligho/DFT/build-Nov24/pseudopotentials/SG15/Cs_ONCV_PBE.pulay ... using dE_dnG = -1.008762e-04 computed for Ecut = 20.

Initialized 1 species with 1 total atoms.

Folded 1 k-points by 48x48x1 to 2304 k-points.

---------- Setting up k-points, bands, fillings ----------
Reduced to 217 k-points under symmetry. 
Computing the number of bands and number of electrons
Calculating initial fillings.
nElectrons:   9.000000   nBands: 6   nStates: 217

----- Setting up reduced wavefunction bases (one per k-point) -----
average nbasis = 13230.257 , ideal nbasis = 13229.709

---------- Setting up coulomb interaction ----------
Initialized slab truncation along lattice direction 001

---------- Setting up 2D ewald sum ----------
Optimum gaussian width for ewald sums = 5.249020 bohr.
Real space sums over 289 unit cells with max indices [  8  8  0  ]
Reciprocal space sums over 81 terms with max indices [  4  4  0  ]

---------- Allocating electronic variables ----------
Initializing wave functions:  linear combination of atomic orbitals
Note: number of bands (6) exceeds available atomic orbitals (5)
Cs pseudo-atom occupations:   s ( 2 1 )  p ( 6 )
[d-17-8-4:62270] 18 more processes have sent help message help-mpi-common-cuda.txt / dlopen failed
[d-17-8-4:62270] Set MCA parameter "orte_base_help_aggregate" to 0 to see all help / error messages
[d-17-8-4:62270] 18 more processes have sent help message help-mpi-btl-openib-cpc-base.txt / no cpcs for port
	FillingsUpdate:  mu: -0.092206328  nElectrons: 9.000000
LCAOMinimize: Iter:   0  F: -20.1828949537565840  |grad|_K:  4.166e-06  alpha:  1.000e+00
	FillingsUpdate:  mu: -0.092197759  nElectrons: 9.000000
LCAOMinimize: Iter:   1  F: -20.1828950203218618  |grad|_K:  4.958e-08  alpha:  9.821e-01  linmin: -1.544e-02  cgtest:  3.176e-01  t[s]:      9.54
LCAOMinimize: Encountered beta<0, resetting CG.
	FillingsUpdate:  mu: -0.092197717  nElectrons: 9.000000
LCAOMinimize: Iter:   2  F: -20.1828950203314363  |grad|_K:  1.139e-09  alpha:  1.018e+00  linmin:  4.862e-02  cgtest: -9.346e-01  t[s]:     13.08
LCAOMinimize: Converged (|Delta F|<1.000000e-06 for 2 iters).


---- Citations for features of the code used in this run ----

   Software package:
      R. Sundararaman, K. Letchworth-Weaver, K.A. Schwarz, D. Gunceler, Y. Ozhabes and T.A. Arias, 'JDFTx: software for joint density-functional theory', SoftwareX 6, 278 (2017)

   gga-PBE exchange-correlation functional:
      J.P. Perdew, K. Burke and M. Ernzerhof, Phys. Rev. Lett. 77, 3865 (1996)

   Pseudopotentials:
      M Schlipf and F Gygi, Comput. Phys. Commun. 196, 36 (2015)

   Truncated Coulomb potentials:
      R. Sundararaman and T.A. Arias, Phys. Rev. B 87, 165122 (2013)

   Total energy minimization with Auxiliary Hamiltonian:
      C. Freysoldt, S. Boeck, and J. Neugebauer, Phys. Rev. B 79, 241103(R) (2009)

This list may not be complete. Please suggest additional citations or
report any other bugs at https://github.com/shankar1729/jdftx/issues

Initialization completed successfully at t[s]:     13.47


-------- Electronic minimization -----------
	FillingsUpdate:  mu: -0.092197717  nElectrons: 9.000000
ElecMinimize: Iter:   0  F: -20.182895020331426  |grad|_K:  8.210e-06  alpha:  1.000e+00
	FillingsUpdate:  mu: -0.091394924  nElectrons: 9.000000
	SubspaceRotationAdjust: set factor to 1
ElecMinimize: Iter:   1  F: -20.184759586972927  |grad|_K:  7.175e-06  alpha:  1.608e+00  linmin:  8.144e-05  t[s]:     20.87
ElecMinimize: 	Step increased F by 5.117379e-03, reducing alpha to 2.498851e-01.
	FillingsUpdate:  mu: -0.091322942  nElectrons: 9.000000
	SubspaceRotationAdjust: set factor to 1.03
ElecMinimize: Iter:   2  F: -20.185179928531547  |grad|_K:  6.505e-06  alpha:  2.499e-01  linmin: -1.914e-03  t[s]:     28.60
ElecMinimize: 	Predicted alpha/alphaT>3.000000, increasing alphaT to 7.496554e-01.
	FillingsUpdate:  mu: -0.087901998  nElectrons: 9.000000
	SubspaceRotationAdjust: set factor to 0.7
ElecMinimize: Iter:   3  F: -20.186545710649657  |grad|_K:  6.975e-06  alpha:  1.095e+00  linmin:  9.608e-04  t[s]:     34.65
ElecMinimize: 	Bad step direction: g.d > 0.
ElecMinimize: 	Undoing step.
ElecMinimize: 	Step failed: resetting search direction.
	FillingsUpdate:  mu: -0.087901998  nElectrons: 9.000000
	SubspaceRotationAdjust: set factor to 0.888
ElecMinimize: Iter:   4  F: -20.186545710649675  |grad|_K:  6.624e-06  alpha:  0.000e+00
	FillingsUpdate:  mu: -0.087680290  nElectrons: 9.000000
	SubspaceRotationAdjust: set factor to 0.92
ElecMinimize: Iter:   5  F: -20.187182180329369  |grad|_K:  3.017e-06  alpha:  8.682e-01  linmin: -4.479e-04  t[s]:     42.46
	FillingsUpdate:  mu: -0.085053898  nElectrons: 9.000000
	SubspaceRotationAdjust: set factor to 0.878
ElecMinimize: Iter:   6  F: -20.187577009402219  |grad|_K:  4.163e-06  alpha:  2.376e+00  linmin:  5.809e-05  t[s]:     47.02
	FillingsUpdate:  mu: -0.084909854  nElectrons: 9.000000
	SubspaceRotationAdjust: set factor to 0.992
ElecMinimize: Iter:   7  F: -20.187605772631905  |grad|_K:  3.833e-06  alpha:  5.080e-02  linmin: -2.432e-03  t[s]:     51.64
ElecMinimize: 	Predicted alpha/alphaT>3.000000, increasing alphaT to 1.524094e-01.
ElecMinimize: 	Predicted alpha/alphaT>3.000000, increasing alphaT to 4.572283e-01.
	FillingsUpdate:  mu: -0.082502309  nElectrons: 9.000000
	SubspaceRotationAdjust: set factor to 1.14
ElecMinimize: Iter:   8  F: -20.187904262049130  |grad|_K:  2.718e-06  alpha:  6.117e-01  linmin: -3.052e-05  t[s]:     59.03
	FillingsUpdate:  mu: -0.079064163  nElectrons: 9.000000
	SubspaceRotationAdjust: set factor to 0.897
ElecMinimize: Iter:   9  F: -20.187965021292779  |grad|_K:  3.889e-06  alpha:  8.634e-01  linmin:  2.229e-03  t[s]:     63.59
ElecMinimize: 	Bad step direction: g.d > 0.
ElecMinimize: 	Undoing step.
ElecMinimize: 	Step failed: resetting search direction.
	FillingsUpdate:  mu: -0.079064163  nElectrons: 9.000000
	SubspaceRotationAdjust: set factor to 0.913
ElecMinimize: Iter:  10  F: -20.187965021292758  |grad|_K:  3.644e-06  alpha:  0.000e+00
	FillingsUpdate:  mu: -0.079910955  nElectrons: 9.000000
	SubspaceRotationAdjust: set factor to 1.49
ElecMinimize: Iter:  11  F: -20.188108829487394  |grad|_K:  1.227e-06  alpha:  6.787e-01  linmin: -7.713e-04  t[s]:     71.40
ElecMinimize: 	Predicted alpha/alphaT>3.000000, increasing alphaT to 2.036185e+00.
	FillingsUpdate:  mu: -0.080069013  nElectrons: 9.000000
	SubspaceRotationAdjust: set factor to 1.32
ElecMinimize: Iter:  12  F: -20.188149867100009  |grad|_K:  1.008e-06  alpha:  1.224e+00  linmin: -2.841e-04  t[s]:     77.44
	FillingsUpdate:  mu: -0.078550454  nElectrons: 9.000000
	SubspaceRotationAdjust: set factor to 1.25
ElecMinimize: Iter:  13  F: -20.188181978026737  |grad|_K:  1.308e-06  alpha:  2.449e+00  linmin:  5.089e-04  t[s]:     82.04
	FillingsUpdate:  mu: -0.078317716  nElectrons: 9.000000
	SubspaceRotationAdjust: set factor to 1.67
ElecMinimize: Iter:  14  F: -20.188190105779068  |grad|_K:  1.228e-06  alpha:  2.171e-01  linmin: -2.279e-03  t[s]:     86.65
ElecMinimize: 	Wrong curvature in test step, increasing alphaT to 6.513821e-01.
	FillingsUpdate:  mu: -0.078259405  nElectrons: 9.000000
	SubspaceRotationAdjust: set factor to 1.88
ElecMinimize: Iter:  15  F: -20.188208761549838  |grad|_K:  6.664e-07  alpha: -8.735e+00  linmin: -4.637e-03  t[s]:     90.90
	FillingsUpdate:  mu: -0.078162180  nElectrons: 9.000000
	SubspaceRotationAdjust: set factor to 1.78
ElecMinimize: Iter:  16  F: -20.188218192381861  |grad|_K:  7.442e-07  alpha:  7.573e-01  linmin: -6.480e-05  t[s]:     95.45
	FillingsUpdate:  mu: -0.077912166  nElectrons: 9.000000
	SubspaceRotationAdjust: set factor to 1.44
ElecMinimize: Iter:  17  F: -20.188225901114848  |grad|_K:  1.104e-06  alpha:  7.007e-01  linmin:  6.019e-04  t[s]:    100.05
	FillingsUpdate:  mu: -0.077603596  nElectrons: 9.000000
	SubspaceRotationAdjust: set factor to 1.9
ElecMinimize: Iter:  18  F: -20.188229778411230  |grad|_K:  6.440e-07  alpha:  2.585e-01  linmin:  1.635e-04  t[s]:    104.62
ElecMinimize: 	Predicted alpha/alphaT>3.000000, increasing alphaT to 7.756087e-01.
	FillingsUpdate:  mu: -0.077293266  nElectrons: 9.000000
	SubspaceRotationAdjust: set factor to 2.11
ElecMinimize: Iter:  19  F: -20.188233292593534  |grad|_K:  4.670e-07  alpha:  4.509e-01  linmin:  7.581e-05  t[s]:    110.56
	FillingsUpdate:  mu: -0.077087354  nElectrons: 9.000000
	SubspaceRotationAdjust: set factor to 1.96
ElecMinimize: Iter:  20  F: -20.188235093528242  |grad|_K:  4.425e-07  alpha:  5.024e-01  linmin:  3.866e-05  t[s]:    115.12
	FillingsUpdate:  mu: -0.077055796  nElectrons: 9.000000
	SubspaceRotationAdjust: set factor to 2.45
ElecMinimize: Iter:  21  F: -20.188235993791597  |grad|_K:  4.065e-07  alpha:  1.620e-01  linmin: -2.399e-03  t[s]:    119.71
ElecMinimize: 	Predicted alpha/alphaT>3.000000, increasing alphaT to 4.858605e-01.
	FillingsUpdate:  mu: -0.077053349  nElectrons: 9.000000
	SubspaceRotationAdjust: set factor to 2.61
ElecMinimize: Iter:  22  F: -20.188238398061497  |grad|_K:  3.081e-07  alpha:  5.029e-01  linmin: -3.073e-05  t[s]:    125.71
	FillingsUpdate:  mu: -0.077028061  nElectrons: 9.000000
	SubspaceRotationAdjust: set factor to 2.56
ElecMinimize: Iter:  23  F: -20.188239260524245  |grad|_K:  2.761e-07  alpha:  5.204e-01  linmin: -1.962e-05  t[s]:    130.29
	FillingsUpdate:  mu: -0.076968024  nElectrons: 9.000000
	SubspaceRotationAdjust: set factor to 2.94
ElecMinimize: Iter:  24  F: -20.188239852172504  |grad|_K:  2.176e-07  alpha:  4.460e-01  linmin:  1.863e-06  t[s]:    134.90
	FillingsUpdate:  mu: -0.076938399  nElectrons: 9.000000
	SubspaceRotationAdjust: set factor to 2.85
ElecMinimize: Iter:  25  F: -20.188240243789487  |grad|_K:  2.002e-07  alpha:  4.807e-01  linmin:  1.278e-05  t[s]:    139.51
	FillingsUpdate:  mu: -0.076973387  nElectrons: 9.000000
	SubspaceRotationAdjust: set factor to 3
ElecMinimize: Iter:  26  F: -20.188240625732870  |grad|_K:  2.134e-07  alpha:  5.587e-01  linmin:  8.871e-06  t[s]:    144.12
	FillingsUpdate:  mu: -0.077029670  nElectrons: 9.000000
	SubspaceRotationAdjust: set factor to 3.3
ElecMinimize: Iter:  27  F: -20.188241034425570  |grad|_K:  2.037e-07  alpha:  5.232e-01  linmin: -2.357e-06  t[s]:    148.74
	FillingsUpdate:  mu: -0.077034169  nElectrons: 9.000000
	SubspaceRotationAdjust: set factor to 3.14
ElecMinimize: Iter:  28  F: -20.188241359492928  |grad|_K:  1.761e-07  alpha:  4.549e-01  linmin: -8.375e-06  t[s]:    153.32
	FillingsUpdate:  mu: -0.077012032  nElectrons: 9.000000
	SubspaceRotationAdjust: set factor to 3.5
ElecMinimize: Iter:  29  F: -20.188241603285437  |grad|_K:  1.515e-07  alpha:  4.547e-01  linmin:  1.373e-06  t[s]:    157.95
	FillingsUpdate:  mu: -0.077022124  nElectrons: 9.000000
	SubspaceRotationAdjust: set factor to 3.31
ElecMinimize: Iter:  30  F: -20.188241796330782  |grad|_K:  1.429e-07  alpha:  4.885e-01  linmin:  6.596e-06  t[s]:    162.51
	FillingsUpdate:  mu: -0.077060153  nElectrons: 9.000000
	SubspaceRotationAdjust: set factor to 3.72
ElecMinimize: Iter:  31  F: -20.188241958767033  |grad|_K:  1.165e-07  alpha:  4.642e-01  linmin:  9.435e-08  t[s]:    167.14
	FillingsUpdate:  mu: -0.077071868  nElectrons: 9.000000
	SubspaceRotationAdjust: set factor to 3.83
ElecMinimize: Iter:  32  F: -20.188242048213670  |grad|_K:  8.834e-08  alpha:  3.827e-01  linmin: -3.788e-06  t[s]:    171.75
	FillingsUpdate:  mu: -0.077069590  nElectrons: 9.000000
	SubspaceRotationAdjust: set factor to 3.71
ElecMinimize: Iter:  33  F: -20.188242116871237  |grad|_K:  9.043e-08  alpha:  5.098e-01  linmin: -2.598e-07  t[s]:    176.30
	FillingsUpdate:  mu: -0.077089575  nElectrons: 9.000000
	SubspaceRotationAdjust: set factor to 4.37
ElecMinimize: Iter:  34  F: -20.188242177180296  |grad|_K:  6.616e-08  alpha:  4.277e-01  linmin:  1.740e-06  t[s]:    180.89
	FillingsUpdate:  mu: -0.077114488  nElectrons: 9.000000
	SubspaceRotationAdjust: set factor to 3.93
ElecMinimize: Iter:  35  F: -20.188242206110257  |grad|_K:  5.579e-08  alpha:  3.838e-01  linmin:  2.008e-06  t[s]:    185.47
	FillingsUpdate:  mu: -0.077127015  nElectrons: 9.000000
	SubspaceRotationAdjust: set factor to 4.12
ElecMinimize: Iter:  36  F: -20.188242233122878  |grad|_K:  5.439e-08  alpha:  5.038e-01  linmin: -1.559e-06  t[s]:    190.06
	FillingsUpdate:  mu: -0.077125612  nElectrons: 9.000000
	SubspaceRotationAdjust: set factor to 3.87
ElecMinimize: Iter:  37  F: -20.188242259105152  |grad|_K:  5.152e-08  alpha:  5.094e-01  linmin:  8.350e-07  t[s]:    194.63
	FillingsUpdate:  mu: -0.077134123  nElectrons: 9.000000
	SubspaceRotationAdjust: set factor to 4.29
ElecMinimize: Iter:  38  F: -20.188242277118935  |grad|_K:  3.636e-08  alpha:  3.939e-01  linmin:  5.759e-07  t[s]:    199.19
	FillingsUpdate:  mu: -0.077147076  nElectrons: 9.000000
	SubspaceRotationAdjust: set factor to 3.92
ElecMinimize: Iter:  39  F: -20.188242287359305  |grad|_K:  3.511e-08  alpha:  4.498e-01  linmin:  1.565e-06  t[s]:    203.77
	FillingsUpdate:  mu: -0.077152342  nElectrons: 9.000000
	SubspaceRotationAdjust: set factor to 4.18
ElecMinimize: Iter:  40  F: -20.188242298709511  |grad|_K:  3.264e-08  alpha:  5.346e-01  linmin: -4.844e-08  t[s]:    208.34
	FillingsUpdate:  mu: -0.077150111  nElectrons: 9.000000
	SubspaceRotationAdjust: set factor to 3.91
ElecMinimize: Iter:  41  F: -20.188242306835200  |grad|_K:  2.726e-08  alpha:  4.426e-01  linmin:  4.397e-07  t[s]:    212.93
	FillingsUpdate:  mu: -0.077153318  nElectrons: 9.000000
	SubspaceRotationAdjust: set factor to 4.01
ElecMinimize: Iter:  42  F: -20.188242312378030  |grad|_K:  2.193e-08  alpha:  4.330e-01  linmin:  2.516e-07  t[s]:    217.55
	FillingsUpdate:  mu: -0.077157377  nElectrons: 9.000000
	SubspaceRotationAdjust: set factor to 3.82
ElecMinimize: Iter:  43  F: -20.188242316309420  |grad|_K:  1.978e-08  alpha:  4.747e-01  linmin:  7.928e-07  t[s]:    222.17
	FillingsUpdate:  mu: -0.077155597  nElectrons: 9.000000
	SubspaceRotationAdjust: set factor to 3.91
ElecMinimize: Iter:  44  F: -20.188242319462617  |grad|_K:  1.665e-08  alpha:  4.679e-01  linmin: -6.141e-08  t[s]:    226.81
ElecMinimize: Converged (|Delta F|<1.000000e-08 for 4 iters).
Setting wave functions to eigenvectors of Hamiltonian

# Ionic positions in lattice coordinates:
ion Cs   0.000000000000000   0.000000000000000   0.000000000000000 0

# Forces in Lattice coordinates:
force Cs   0.000000000000000   0.000000000000000   0.000000000000000 0

# Energy components:
   Eewald =      -18.0480261003326561
       EH =       -1.8413025590229779
     Eloc =       -5.7435890603162374
      Enl =        3.4433243800261200
   Epulay =        0.0000000178382235
      Exc =       -3.1432655633029754
       KE =        5.1446165955449485
-------------------------------------
     Etot =      -20.1882422895655544
       TS =        0.0000000298970629
-------------------------------------
        F =      -20.1882423194626170

IonicMinimize: Iter:   0  F: -20.188242319462617  |grad|_K:  0.000e+00  t[s]:    227.34
IonicMinimize: Converged (|grad|_K<1.000000e-04).

#--- Lowdin population analysis ---
# oxidation-state Cs +0.043

End date and time: Sun Jan 16 16:40:30 2022  (Duration: 0-0:03:47.46)
Done!
