3.44
--------------------------------------------------------------------------
The library attempted to open the following supporting CUDA libraries,
but each of them failed.  CUDA-aware support is disabled.
libcuda.so.1: cannot open shared object file: No such file or directory
libcuda.dylib: cannot open shared object file: No such file or directory
/usr/lib64/libcuda.so.1: cannot open shared object file: No such file or directory
/usr/lib64/libcuda.dylib: cannot open shared object file: No such file or directory
If you are not interested in CUDA-aware support, then run with
--mca opal_warn_on_missing_libcuda 0 to suppress this message.  If you are interested
in CUDA-aware support, then try setting LD_LIBRARY_PATH to the location
of libcuda.so.1 to get passed this issue.
--------------------------------------------------------------------------
--------------------------------------------------------------------------
No OpenFabrics connection schemes reported that they were able to be
used on a specific port.  As such, the openib BTL (OpenFabrics
support) will be disabled for this port.

  Local host:           d-18-10-2
  Local device:         mlx5_1
  Local port:           1
  CPCs attempted:       rdmacm, udcm
--------------------------------------------------------------------------

*************** JDFTx 1.6.0 (git hash 42ebbcc2) ***************

Start date and time: Sun Jan 16 16:50:25 2022
Executable jdftx with command-line: -i Cesium.in
Running on hosts (process indices):  d-18-10-2 (0-18)
Divided in process groups (process indices):  0 (0)  1 (1)  2 (2)  3 (3)  4 (4)  5 (5)  6 (6)  7 (7)  8 (8)  9 (9)  10 (10)  11 (11)  12 (12)  13 (13)  14 (14)  15 (15)  16 (16)  17 (17)  18 (18)
Resource initialization completed at t[s]:      0.00
Run totals: 19 processes, 48 threads, 0 GPUs


Input parsed successfully to the following command list (including defaults):

basis kpoint-dependent
coords-type Lattice
core-overlap-check vector
coulomb-interaction Slab 001
davidson-band-ratio 1.1
dump End None
dump-name $INPUT.$VAR
elec-cutoff 20
elec-eigen-algo Davidson
elec-ex-corr gga-PBE
elec-smearing Fermi 1e-05
electronic-minimize  \
	dirUpdateScheme      FletcherReeves \
	linminMethod         DirUpdateRecommended \
	nIterations          10000 \
	history              15 \
	knormThreshold       0 \
	energyDiffThreshold  1e-08 \
	nEnergyDiff          4 \
	alphaTstart          1 \
	alphaTmin            1e-10 \
	updateTestStepSize   yes \
	alphaTreduceFactor   0.1 \
	alphaTincreaseFactor 3 \
	nAlphaAdjustMax      3 \
	wolfeEnergy          0.0001 \
	wolfeGradient        0.9 \
	fdTest               no
exchange-regularization WignerSeitzTruncated
fluid None
fluid-ex-corr (null) lda-PZ
fluid-gummel-loop 10 1.000000e-05
fluid-minimize  \
	dirUpdateScheme      PolakRibiere \
	linminMethod         DirUpdateRecommended \
	nIterations          100 \
	history              15 \
	knormThreshold       0 \
	energyDiffThreshold  0 \
	nEnergyDiff          2 \
	alphaTstart          1 \
	alphaTmin            1e-10 \
	updateTestStepSize   yes \
	alphaTreduceFactor   0.1 \
	alphaTincreaseFactor 3 \
	nAlphaAdjustMax      3 \
	wolfeEnergy          0.0001 \
	wolfeGradient        0.9 \
	fdTest               no
fluid-solvent H2O 55.338 ScalarEOS \
	epsBulk 78.4 \
	pMol 0.92466 \
	epsInf 1.77 \
	Pvap 1.06736e-10 \
	sigmaBulk 4.62e-05 \
	Rvdw 2.61727 \
	Res 1.42 \
	tauNuc 343133 \
	poleEl 15 7 1
forces-output-coords Positions
ion Cs   0.000000000000000   0.000000000000000   0.000000000000000 0
ion-species SG15/$ID_ONCV_PBE.upf
ion-width 0
ionic-minimize  \
	dirUpdateScheme      L-BFGS \
	linminMethod         DirUpdateRecommended \
	nIterations          0 \
	history              15 \
	knormThreshold       0.0001 \
	energyDiffThreshold  1e-06 \
	nEnergyDiff          2 \
	alphaTstart          1 \
	alphaTmin            1e-10 \
	updateTestStepSize   yes \
	alphaTreduceFactor   0.1 \
	alphaTincreaseFactor 3 \
	nAlphaAdjustMax      3 \
	wolfeEnergy          0.0001 \
	wolfeGradient        0.9 \
	fdTest               no
kpoint   0.000000000000   0.000000000000   0.000000000000  1.00000000000000
kpoint-folding 48 48 1 
latt-move-scale 1 1 1
latt-scale 3.44 3.44 1 
lattice  \
	   4.727486978767153   -2.363743489383575    0.000000000000000  \
	  -0.000000000000000    4.094123819672498    0.000000000000000  \
	   0.000000000000000    0.000000000000000   40.000000000000000 
lattice-minimize  \
	dirUpdateScheme      L-BFGS \
	linminMethod         DirUpdateRecommended \
	nIterations          0 \
	history              15 \
	knormThreshold       0 \
	energyDiffThreshold  1e-06 \
	nEnergyDiff          2 \
	alphaTstart          1 \
	alphaTmin            1e-10 \
	updateTestStepSize   yes \
	alphaTreduceFactor   0.1 \
	alphaTincreaseFactor 3 \
	nAlphaAdjustMax      3 \
	wolfeEnergy          0.0001 \
	wolfeGradient        0.9 \
	fdTest               no
lcao-params -1 1e-06 1e-05
pcm-variant GLSSA13
spintype no-spin
subspace-rotation-factor 1 yes
symmetries automatic
symmetry-threshold 0.0001



---------- Setting up symmetries ----------

Found 24 point-group symmetries of the bravais lattice
Found 24 space-group symmetries with basis
Applied RMS atom displacement 0 bohrs to make symmetries exact.

---------- Initializing the Grid ----------
R = 
[      16.2626     -8.13128            0  ]
[            0      14.0838            0  ]
[            0            0           40  ]
unit cell volume = 9161.53
G =
[   0.386359   0.223064         -0  ]
[          0   0.446129         -0  ]
[         -0         -0    0.15708  ]
Minimum fftbox size, Smin = [  68  68  164  ]
Chosen fftbox size, S = [  70  70  168  ]

---------- Exchange Correlation functional ----------
Initalized PBE GGA exchange.
Initalized PBE GGA correlation.

---------- Setting up pseudopotentials ----------
Width of ionic core gaussian charges (only for fluid interactions / plotting) set to 0

Reading pseudopotential file '/home/gridsan/aligho/DFT/build-Nov24/pseudopotentials/SG15/Cs_ONCV_PBE.upf':
  'Cs' pseudopotential, 'PBE' functional
  Generated using ONCVPSP code by D. R. Hamann
  Author: Martin Schlipf and Francois Gygi  Date: 150915.
  9 valence electrons, 3 orbitals, 6 projectors, 2414 radial grid points, with lMax = 2
  Transforming local potential to a uniform radial grid of dG=0.02 with 1510 points.
  Transforming nonlocal projectors to a uniform radial grid of dG=0.02 with 432 points.
    5S    l: 0   occupation:  2.0   eigenvalue: -0.982388
    5P    l: 1   occupation:  6.0   eigenvalue: -0.496786
    6S    l: 0   occupation:  1.0   eigenvalue: -0.076670
  Transforming atomic orbitals to a uniform radial grid of dG=0.02 with 432 points.
  Core radius for overlap checks: 2.06 bohrs.
  Reading pulay file /home/gridsan/aligho/DFT/build-Nov24/pseudopotentials/SG15/Cs_ONCV_PBE.pulay ... using dE_dnG = -1.008762e-04 computed for Ecut = 20.

Initialized 1 species with 1 total atoms.

Folded 1 k-points by 48x48x1 to 2304 k-points.

---------- Setting up k-points, bands, fillings ----------
Reduced to 217 k-points under symmetry. 
Computing the number of bands and number of electrons
Calculating initial fillings.
nElectrons:   9.000000   nBands: 6   nStates: 217

----- Setting up reduced wavefunction bases (one per k-point) -----
average nbasis = 39139.488 , ideal nbasis = 39138.771

---------- Setting up coulomb interaction ----------
Initialized slab truncation along lattice direction 001

---------- Setting up 2D ewald sum ----------
Optimum gaussian width for ewald sums = 9.028314 bohr.
Real space sums over 289 unit cells with max indices [  8  8  0  ]
Reciprocal space sums over 81 terms with max indices [  4  4  0  ]

---------- Allocating electronic variables ----------
Initializing wave functions:  linear combination of atomic orbitals
Note: number of bands (6) exceeds available atomic orbitals (5)
Cs pseudo-atom occupations:   s ( 2 1 )  p ( 6 )
[d-18-10-2:87568] 18 more processes have sent help message help-mpi-common-cuda.txt / dlopen failed
[d-18-10-2:87568] Set MCA parameter "orte_base_help_aggregate" to 0 to see all help / error messages
[d-18-10-2:87568] 18 more processes have sent help message help-mpi-btl-openib-cpc-base.txt / no cpcs for port
	FillingsUpdate:  mu: -0.077623522  nElectrons: 9.000000
LCAOMinimize: Iter:   0  F: -20.1709043245131241  |grad|_K:  5.752e-06  alpha:  1.000e+00
	FillingsUpdate:  mu: -0.077620812  nElectrons: 9.000000
LCAOMinimize: Iter:   1  F: -20.1709044523542893  |grad|_K:  3.633e-08  alpha:  9.892e-01  linmin: -1.636e-02  cgtest:  3.899e-01  t[s]:     25.10
LCAOMinimize: Encountered beta<0, resetting CG.
	FillingsUpdate:  mu: -0.077620814  nElectrons: 9.000000
LCAOMinimize: Iter:   2  F: -20.1709044523592702  |grad|_K:  8.339e-10  alpha:  9.772e-01  linmin: -5.919e-02  cgtest:  9.951e-01  t[s]:     34.08
LCAOMinimize: Encountered beta<0, resetting CG.
LCAOMinimize: Converged (|Delta F|<1.000000e-06 for 2 iters).


---- Citations for features of the code used in this run ----

   Software package:
      R. Sundararaman, K. Letchworth-Weaver, K.A. Schwarz, D. Gunceler, Y. Ozhabes and T.A. Arias, 'JDFTx: software for joint density-functional theory', SoftwareX 6, 278 (2017)

   gga-PBE exchange-correlation functional:
      J.P. Perdew, K. Burke and M. Ernzerhof, Phys. Rev. Lett. 77, 3865 (1996)

   Pseudopotentials:
      M Schlipf and F Gygi, Comput. Phys. Commun. 196, 36 (2015)

   Truncated Coulomb potentials:
      R. Sundararaman and T.A. Arias, Phys. Rev. B 87, 165122 (2013)

   Total energy minimization with Auxiliary Hamiltonian:
      C. Freysoldt, S. Boeck, and J. Neugebauer, Phys. Rev. B 79, 241103(R) (2009)

This list may not be complete. Please suggest additional citations or
report any other bugs at https://github.com/shankar1729/jdftx/issues

Initialization completed successfully at t[s]:     35.11


-------- Electronic minimization -----------
	FillingsUpdate:  mu: -0.077620814  nElectrons: 9.000000
ElecMinimize: Iter:   0  F: -20.170904452359270  |grad|_K:  1.203e-06  alpha:  1.000e+00
ElecMinimize: 	Predicted alpha/alphaT>3.000000, increasing alphaT to 3.000000e+00.
	FillingsUpdate:  mu: -0.077203310  nElectrons: 9.000000
	SubspaceRotationAdjust: set factor to 1
ElecMinimize: Iter:   1  F: -20.171329845654366  |grad|_K:  2.172e-06  alpha:  5.765e+00  linmin:  6.644e-05  t[s]:     58.79
	FillingsUpdate:  mu: -0.077204678  nElectrons: 9.000000
	SubspaceRotationAdjust: set factor to 1.03
ElecMinimize: Iter:   2  F: -20.171332280824000  |grad|_K:  2.157e-06  alpha:  5.110e-03  linmin: -5.181e-04  t[s]:     71.22
ElecMinimize: 	Predicted alpha/alphaT>3.000000, increasing alphaT to 1.533089e-02.
ElecMinimize: 	Predicted alpha/alphaT>3.000000, increasing alphaT to 4.599266e-02.
ElecMinimize: 	Predicted alpha/alphaT>3.000000, increasing alphaT to 1.379780e-01.
	FillingsUpdate:  mu: -0.077789720  nElectrons: 9.000000
	SubspaceRotationAdjust: set factor to 0.881
ElecMinimize: Iter:   3  F: -20.171714837440327  |grad|_K:  1.574e-06  alpha:  8.323e-01  linmin:  1.073e-04  t[s]:     91.05
	FillingsUpdate:  mu: -0.077795453  nElectrons: 9.000000
	SubspaceRotationAdjust: set factor to 0.923
ElecMinimize: Iter:   4  F: -20.171718431709948  |grad|_K:  1.547e-06  alpha:  1.993e-02  linmin: -3.088e-04  t[s]:    103.45
ElecMinimize: 	Predicted alpha/alphaT>3.000000, increasing alphaT to 5.978526e-02.
ElecMinimize: 	Predicted alpha/alphaT>3.000000, increasing alphaT to 1.793558e-01.
ElecMinimize: 	Predicted alpha/alphaT>3.000000, increasing alphaT to 5.380673e-01.
	FillingsUpdate:  mu: -0.078014715  nElectrons: 9.000000
	SubspaceRotationAdjust: set factor to 0.663
ElecMinimize: Iter:   5  F: -20.171757984218075  |grad|_K:  2.771e-06  alpha:  7.299e-01  linmin:  1.804e-03  t[s]:    123.38
ElecMinimize: 	Bad step direction: g.d > 0.
ElecMinimize: 	Undoing step.
ElecMinimize: 	Step failed: resetting search direction.
	FillingsUpdate:  mu: -0.078014715  nElectrons: 9.000000
	SubspaceRotationAdjust: set factor to 0.522
ElecMinimize: Iter:   6  F: -20.171757984218075  |grad|_K:  2.459e-06  alpha:  0.000e+00
	FillingsUpdate:  mu: -0.077962385  nElectrons: 9.000000
	SubspaceRotationAdjust: set factor to 0.97
ElecMinimize: Iter:   7  F: -20.171935577401872  |grad|_K:  7.627e-07  alpha:  6.199e-01  linmin: -1.680e-03  t[s]:    144.38
	FillingsUpdate:  mu: -0.077945333  nElectrons: 9.000000
	SubspaceRotationAdjust: set factor to 0.923
ElecMinimize: Iter:   8  F: -20.171984610101234  |grad|_K:  4.791e-07  alpha:  1.279e+00  linmin: -1.448e-03  t[s]:    156.79
ElecMinimize: 	Predicted alpha/alphaT>3.000000, increasing alphaT to 3.835508e+00.
	FillingsUpdate:  mu: -0.078080546  nElectrons: 9.000000
	SubspaceRotationAdjust: set factor to 0.891
ElecMinimize: Iter:   9  F: -20.172041339345707  |grad|_K:  1.002e-06  alpha:  3.779e+00  linmin:  9.890e-05  t[s]:    172.90
	FillingsUpdate:  mu: -0.078080867  nElectrons: 9.000000
	SubspaceRotationAdjust: set factor to 1.13
ElecMinimize: Iter:  10  F: -20.172041581271955  |grad|_K:  9.730e-07  alpha:  2.858e-03  linmin: -9.567e-04  t[s]:    185.30
ElecMinimize: 	Predicted alpha/alphaT>3.000000, increasing alphaT to 8.572926e-03.
ElecMinimize: 	Predicted alpha/alphaT>3.000000, increasing alphaT to 2.571878e-02.
ElecMinimize: 	Predicted alpha/alphaT>3.000000, increasing alphaT to 7.715634e-02.
	FillingsUpdate:  mu: -0.078088445  nElectrons: 9.000000
	SubspaceRotationAdjust: set factor to 1.47
ElecMinimize: Iter:  11  F: -20.172055347614073  |grad|_K:  7.817e-07  alpha:  9.735e-02  linmin: -1.174e-03  t[s]:    205.18
ElecMinimize: 	Predicted alpha/alphaT>3.000000, increasing alphaT to 2.920572e-01.
	FillingsUpdate:  mu: -0.078086183  nElectrons: 9.000000
	SubspaceRotationAdjust: set factor to 1.58
ElecMinimize: Iter:  12  F: -20.172091612914056  |grad|_K:  7.438e-07  alpha:  5.100e-01  linmin:  4.950e-05  t[s]:    221.23
	FillingsUpdate:  mu: -0.078079759  nElectrons: 9.000000
	SubspaceRotationAdjust: set factor to 1.58
ElecMinimize: Iter:  13  F: -20.172098839022951  |grad|_K:  9.000e-07  alpha:  2.724e-01  linmin: -8.456e-06  t[s]:    233.57
	FillingsUpdate:  mu: -0.078074351  nElectrons: 9.000000
	SubspaceRotationAdjust: set factor to 1.79
ElecMinimize: Iter:  14  F: -20.172109130048053  |grad|_K:  9.472e-07  alpha:  2.320e-01  linmin:  1.103e-05  t[s]:    245.87
	FillingsUpdate:  mu: -0.078072756  nElectrons: 9.000000
	SubspaceRotationAdjust: set factor to 1.22
ElecMinimize: Iter:  15  F: -20.172116073158772  |grad|_K:  9.895e-07  alpha:  1.560e-01  linmin:  2.750e-06  t[s]:    258.28
	FillingsUpdate:  mu: -0.078072030  nElectrons: 9.000000
	SubspaceRotationAdjust: set factor to 0.932
ElecMinimize: Iter:  16  F: -20.172123106851124  |grad|_K:  8.386e-07  alpha:  1.415e-01  linmin: -3.511e-07  t[s]:    270.64
	FillingsUpdate:  mu: -0.078068185  nElectrons: 9.000000
	SubspaceRotationAdjust: set factor to 1.46
ElecMinimize: Iter:  17  F: -20.172130029885487  |grad|_K:  7.799e-07  alpha:  1.904e-01  linmin: -6.825e-06  t[s]:    283.01
	FillingsUpdate:  mu: -0.078057183  nElectrons: 9.000000
	SubspaceRotationAdjust: set factor to 1.69
ElecMinimize: Iter:  18  F: -20.172138204140829  |grad|_K:  7.230e-07  alpha:  2.482e-01  linmin: -1.164e-05  t[s]:    295.43
	FillingsUpdate:  mu: -0.078056945  nElectrons: 9.000000
	SubspaceRotationAdjust: set factor to 1.87
ElecMinimize: Iter:  19  F: -20.172138470065295  |grad|_K:  7.222e-07  alpha:  4.703e-03  linmin: -2.042e-04  t[s]:    307.72
ElecMinimize: 	Predicted alpha/alphaT>3.000000, increasing alphaT to 1.410969e-02.
ElecMinimize: 	Predicted alpha/alphaT>3.000000, increasing alphaT to 4.232908e-02.
ElecMinimize: 	Predicted alpha/alphaT>3.000000, increasing alphaT to 1.269872e-01.
	FillingsUpdate:  mu: -0.078046082  nElectrons: 9.000000
	SubspaceRotationAdjust: set factor to 1.59
ElecMinimize: Iter:  20  F: -20.172149285270631  |grad|_K:  3.943e-07  alpha:  1.891e-01  linmin: -1.098e-04  t[s]:    327.54
	FillingsUpdate:  mu: -0.078037336  nElectrons: 9.000000
	SubspaceRotationAdjust: set factor to 1.98
ElecMinimize: Iter:  21  F: -20.172151849172973  |grad|_K:  3.754e-07  alpha:  2.782e-01  linmin: -5.808e-06  t[s]:    340.05
	FillingsUpdate:  mu: -0.078022243  nElectrons: 9.000000
	SubspaceRotationAdjust: set factor to 2.53
ElecMinimize: Iter:  22  F: -20.172154331242879  |grad|_K:  4.648e-07  alpha:  3.435e-01  linmin:  8.539e-06  t[s]:    352.50
	FillingsUpdate:  mu: -0.077998740  nElectrons: 9.000000
	SubspaceRotationAdjust: set factor to 2.94
ElecMinimize: Iter:  23  F: -20.172157259835146  |grad|_K:  4.909e-07  alpha:  2.573e-01  linmin:  7.935e-06  t[s]:    364.99
	FillingsUpdate:  mu: -0.077981545  nElectrons: 9.000000
	SubspaceRotationAdjust: set factor to 2.91
ElecMinimize: Iter:  24  F: -20.172159130962005  |grad|_K:  4.577e-07  alpha:  1.396e-01  linmin: -2.217e-05  t[s]:    377.40
	FillingsUpdate:  mu: -0.077967163  nElectrons: 9.000000
	SubspaceRotationAdjust: set factor to 3.24
ElecMinimize: Iter:  25  F: -20.172160569377262  |grad|_K:  4.387e-07  alpha:  1.273e-01  linmin:  3.086e-05  t[s]:    389.81
	FillingsUpdate:  mu: -0.077956676  nElectrons: 9.000000
	SubspaceRotationAdjust: set factor to 3.02
ElecMinimize: Iter:  26  F: -20.172161614577892  |grad|_K:  4.343e-07  alpha:  1.096e-01  linmin:  6.490e-06  t[s]:    402.16
	FillingsUpdate:  mu: -0.077949338  nElectrons: 9.000000
	SubspaceRotationAdjust: set factor to 3.13
ElecMinimize: Iter:  27  F: -20.172162558754774  |grad|_K:  3.824e-07  alpha:  9.899e-02  linmin: -1.490e-06  t[s]:    414.62
	FillingsUpdate:  mu: -0.077945852  nElectrons: 9.000000
	SubspaceRotationAdjust: set factor to 4.37
ElecMinimize: Iter:  28  F: -20.172163303509798  |grad|_K:  3.339e-07  alpha:  9.960e-02  linmin: -6.338e-06  t[s]:    426.97
	FillingsUpdate:  mu: -0.077945136  nElectrons: 9.000000
	SubspaceRotationAdjust: set factor to 4.57
ElecMinimize: Iter:  29  F: -20.172163932301601  |grad|_K:  3.070e-07  alpha:  1.085e-01  linmin: -1.495e-05  t[s]:    439.37
	FillingsUpdate:  mu: -0.077946169  nElectrons: 9.000000
	SubspaceRotationAdjust: set factor to 4.59
ElecMinimize: Iter:  30  F: -20.172164589325572  |grad|_K:  3.218e-07  alpha:  1.316e-01  linmin: -3.929e-05  t[s]:    451.74
	FillingsUpdate:  mu: -0.077945888  nElectrons: 9.000000
	SubspaceRotationAdjust: set factor to 3.99
ElecMinimize: Iter:  31  F: -20.172165484537000  |grad|_K:  3.553e-07  alpha:  1.632e-01  linmin: -1.841e-05  t[s]:    464.12
	FillingsUpdate:  mu: -0.077940359  nElectrons: 9.000000
	SubspaceRotationAdjust: set factor to 4.28
ElecMinimize: Iter:  32  F: -20.172166386931799  |grad|_K:  3.075e-07  alpha:  1.375e-01  linmin:  7.909e-06  t[s]:    476.43
	FillingsUpdate:  mu: -0.077932769  nElectrons: 9.000000
	SubspaceRotationAdjust: set factor to 5.7
ElecMinimize: Iter:  33  F: -20.172166947156452  |grad|_K:  2.512e-07  alpha:  1.159e-01  linmin:  1.107e-05  t[s]:    488.73
	FillingsUpdate:  mu: -0.077926290  nElectrons: 9.000000
	SubspaceRotationAdjust: set factor to 5.74
ElecMinimize: Iter:  34  F: -20.172167274373198  |grad|_K:  2.293e-07  alpha:  1.032e-01  linmin:  8.137e-06  t[s]:    501.15
	FillingsUpdate:  mu: -0.077920813  nElectrons: 9.000000
	SubspaceRotationAdjust: set factor to 6.57
ElecMinimize: Iter:  35  F: -20.172167558224970  |grad|_K:  2.395e-07  alpha:  1.080e-01  linmin:  9.076e-06  t[s]:    513.55
	FillingsUpdate:  mu: -0.077917762  nElectrons: 9.000000
	SubspaceRotationAdjust: set factor to 5.46
ElecMinimize: Iter:  36  F: -20.172167867816682  |grad|_K:  2.494e-07  alpha:  1.073e-01  linmin: -1.065e-06  t[s]:    525.92
	FillingsUpdate:  mu: -0.077918973  nElectrons: 9.000000
	SubspaceRotationAdjust: set factor to 8.29
	SubspaceRotationAdjust: resetting CG because factor has changed by 8.29454
ElecMinimize: 	State modified externally: resetting search direction.
ElecMinimize: Iter:  37  F: -20.172168138368722  |grad|_K:  2.204e-07  alpha:  8.558e-02
	FillingsUpdate:  mu: -0.077929206  nElectrons: 9.000000
	SubspaceRotationAdjust: set factor to 5.01
ElecMinimize: Iter:  38  F: -20.172168721859300  |grad|_K:  1.798e-07  alpha:  2.307e-01  linmin: -3.165e-05  t[s]:    557.99
	FillingsUpdate:  mu: -0.077922544  nElectrons: 9.000000
	SubspaceRotationAdjust: set factor to 3.85
ElecMinimize: Iter:  39  F: -20.172169663757007  |grad|_K:  1.259e-07  alpha:  5.577e-01  linmin:  1.938e-05  t[s]:    570.40
	FillingsUpdate:  mu: -0.077923787  nElectrons: 9.000000
	SubspaceRotationAdjust: set factor to 3.84
ElecMinimize: Iter:  40  F: -20.172170784289673  |grad|_K:  1.051e-07  alpha:  1.420e+00  linmin:  2.453e-06  t[s]:    582.87
	FillingsUpdate:  mu: -0.077923788  nElectrons: 9.000000
	SubspaceRotationAdjust: set factor to 4.76
ElecMinimize: Iter:  41  F: -20.172170784351643  |grad|_K:  1.050e-07  alpha:  5.551e-05  linmin: -1.178e-04  t[s]:    595.29
ElecMinimize: 	Wrong curvature in test step, increasing alphaT to 1.665417e-04.
	FillingsUpdate:  mu: -0.077923789  nElectrons: 9.000000
	SubspaceRotationAdjust: set factor to 5.84
ElecMinimize: Iter:  42  F: -20.172170784476588  |grad|_K:  1.077e-07  alpha: -1.036e-02  linmin: -1.090e-04  t[s]:    606.65
	FillingsUpdate:  mu: -0.077923790  nElectrons: 9.000000
	SubspaceRotationAdjust: set factor to 7.4
ElecMinimize: Iter:  43  F: -20.172170784622239  |grad|_K:  1.108e-07  alpha:  4.108e-05  linmin: -1.001e-04  t[s]:    619.06
ElecMinimize: 	Predicted alpha/alphaT>3.000000, increasing alphaT to 1.232532e-04.
ElecMinimize: 	Predicted alpha/alphaT>3.000000, increasing alphaT to 3.697597e-04.
ElecMinimize: 	Predicted alpha/alphaT>3.000000, increasing alphaT to 1.109279e-03.
ElecMinimize: 	Step increased F by 6.295696e-03, reducing alpha to 1.378548e-02.
	FillingsUpdate:  mu: -0.077924520  nElectrons: 9.000000
	SubspaceRotationAdjust: set factor to 9.57
ElecMinimize: Iter:  44  F: -20.172170850260898  |grad|_K:  1.017e-07  alpha:  1.379e-02  linmin: -9.103e-05  t[s]:    647.38
ElecMinimize: 	Predicted alpha/alphaT>3.000000, increasing alphaT to 4.135645e-02.
ElecMinimize: 	Step increased F by 6.301740e-03, reducing alpha to 1.095611e-02.
	FillingsUpdate:  mu: -0.077925157  nElectrons: 9.000000
	SubspaceRotationAdjust: set factor to 11.7
ElecMinimize: Iter:  45  F: -20.172170900960332  |grad|_K:  9.321e-08  alpha:  1.096e-02  linmin: -8.441e-05  t[s]:    672.03
ElecMinimize: 	Predicted alpha/alphaT>3.000000, increasing alphaT to 3.286834e-02.
ElecMinimize: 	Step increased F by 6.285116e-03, reducing alpha to 9.069606e-03.
	FillingsUpdate:  mu: -0.077925715  nElectrons: 9.000000
	SubspaceRotationAdjust: set factor to 13.3
ElecMinimize: Iter:  46  F: -20.172170940344234  |grad|_K:  8.523e-08  alpha:  9.070e-03  linmin: -7.982e-05  t[s]:    696.50
ElecMinimize: 	Predicted alpha/alphaT>3.000000, increasing alphaT to 2.720882e-02.
ElecMinimize: 	Predicted alpha/alphaT>3.000000, increasing alphaT to 8.162646e-02.
	FillingsUpdate:  mu: -0.077925715  nElectrons: 9.000000
	SubspaceRotationAdjust: set factor to 14.6
ElecMinimize: Iter:  47  F: -20.172170940353492  |grad|_K:  8.578e-08  alpha:  2.219e-06  linmin: -8.169e-05  t[s]:    716.35
ElecMinimize: 	Wrong curvature in test step, increasing alphaT to 6.658457e-06.
	FillingsUpdate:  mu: -0.077925715  nElectrons: 9.000000
	SubspaceRotationAdjust: set factor to 16.2
ElecMinimize: Iter:  48  F: -20.172170940364591  |grad|_K:  8.621e-08  alpha: -3.841e-04  linmin: -8.169e-05  t[s]:    727.69
	FillingsUpdate:  mu: -0.077925720  nElectrons: 9.000000
	SubspaceRotationAdjust: set factor to 18.1
ElecMinimize: Iter:  49  F: -20.172170940679305  |grad|_K:  8.667e-08  alpha:  5.437e-05  linmin: -8.076e-05  t[s]:    740.02
ElecMinimize: 	Predicted alpha/alphaT>3.000000, increasing alphaT to 1.631247e-04.
ElecMinimize: 	Predicted alpha/alphaT>3.000000, increasing alphaT to 4.893742e-04.
ElecMinimize: 	Predicted alpha/alphaT>3.000000, increasing alphaT to 1.468122e-03.
ElecMinimize: 	Step increased F by 6.801600e-03, reducing alpha to 5.215632e-03.
	FillingsUpdate:  mu: -0.077926246  nElectrons: 9.000000
	SubspaceRotationAdjust: set factor to 19.1
ElecMinimize: Iter:  50  F: -20.172170973419444  |grad|_K:  7.911e-08  alpha:  5.216e-03  linmin: -7.617e-05  t[s]:    768.25
ElecMinimize: 	Predicted alpha/alphaT>3.000000, increasing alphaT to 1.564689e-02.
	FillingsUpdate:  mu: -0.077926443  nElectrons: 9.000000
	SubspaceRotationAdjust: set factor to 19.3
ElecMinimize: Iter:  51  F: -20.172170985016596  |grad|_K:  7.731e-08  alpha:  2.120e-03  linmin: -7.952e-05  t[s]:    784.40
ElecMinimize: 	Predicted alpha/alphaT>3.000000, increasing alphaT to 6.358720e-03.
ElecMinimize: 	Predicted alpha/alphaT>3.000000, increasing alphaT to 1.907616e-02.
	FillingsUpdate:  mu: -0.077926452  nElectrons: 9.000000
	SubspaceRotationAdjust: set factor to 19.3
ElecMinimize: Iter:  52  F: -20.172170985544788  |grad|_K:  7.724e-08  alpha:  9.232e-05  linmin: -8.668e-05  t[s]:    804.23
ElecMinimize: 	Predicted alpha/alphaT>3.000000, increasing alphaT to 2.769521e-04.
ElecMinimize: 	Predicted alpha/alphaT>3.000000, increasing alphaT to 8.308564e-04.
ElecMinimize: 	Predicted alpha/alphaT>3.000000, increasing alphaT to 2.492569e-03.
ElecMinimize: 	Step increased F by 6.834156e-03, reducing alpha to 5.290085e-03.
	FillingsUpdate:  mu: -0.077926994  nElectrons: 9.000000
	SubspaceRotationAdjust: set factor to 19.1
ElecMinimize: Iter:  53  F: -20.172171017260371  |grad|_K:  7.577e-08  alpha:  5.290e-03  linmin: -9.121e-05  t[s]:    832.26
ElecMinimize: 	Predicted alpha/alphaT>3.000000, increasing alphaT to 1.587026e-02.
	FillingsUpdate:  mu: -0.077926994  nElectrons: 9.000000
	SubspaceRotationAdjust: set factor to 20
ElecMinimize: Iter:  54  F: -20.172171017283766  |grad|_K:  7.576e-08  alpha:  3.872e-06  linmin: -1.099e-04  t[s]:    848.38
ElecMinimize: 	Predicted alpha/alphaT>3.000000, increasing alphaT to 1.161494e-05.
ElecMinimize: 	Predicted alpha/alphaT>3.000000, increasing alphaT to 3.484483e-05.
ElecMinimize: 	Wrong curvature in test step, increasing alphaT to 1.045345e-04.
	FillingsUpdate:  mu: -0.077926998  nElectrons: 9.000000
	SubspaceRotationAdjust: set factor to 20.9
ElecMinimize: Iter:  55  F: -20.172171017514803  |grad|_K:  7.583e-08  alpha: -4.356e-02  linmin: -1.321e-04  t[s]:    867.22
	FillingsUpdate:  mu: -0.077927004  nElectrons: 9.000000
	SubspaceRotationAdjust: set factor to 21.8
ElecMinimize: Iter:  56  F: -20.172171017902386  |grad|_K:  7.590e-08  alpha:  5.372e-05  linmin: -1.599e-04  t[s]:    879.60
ElecMinimize: 	Predicted alpha/alphaT>3.000000, increasing alphaT to 1.611463e-04.
ElecMinimize: 	Predicted alpha/alphaT>3.000000, increasing alphaT to 4.834390e-04.
ElecMinimize: 	Predicted alpha/alphaT>3.000000, increasing alphaT to 1.450317e-03.
ElecMinimize: 	Step increased F by 6.773241e-03, reducing alpha to 7.032900e-03.
	FillingsUpdate:  mu: -0.077927755  nElectrons: 9.000000
	SubspaceRotationAdjust: set factor to 24
ElecMinimize: Iter:  57  F: -20.172171070076374  |grad|_K:  7.746e-08  alpha:  7.033e-03  linmin: -2.025e-04  t[s]:    907.82
	FillingsUpdate:  mu: -0.077927904  nElectrons: 9.000000
	SubspaceRotationAdjust: set factor to 30
ElecMinimize: Iter:  58  F: -20.172171080924240  |grad|_K:  7.983e-08  alpha:  1.387e-03  linmin: -3.058e-04  t[s]:    920.16
ElecMinimize: 	Predicted alpha/alphaT>3.000000, increasing alphaT to 4.161984e-03.
ElecMinimize: 	Predicted alpha/alphaT>3.000000, increasing alphaT to 1.248595e-02.
	FillingsUpdate:  mu: -0.077927976  nElectrons: 9.000000
	SubspaceRotationAdjust: set factor to 39
ElecMinimize: Iter:  59  F: -20.172171086787301  |grad|_K:  8.375e-08  alpha:  6.671e-04  linmin: -5.813e-04  t[s]:    939.97
ElecMinimize: 	Predicted alpha/alphaT>3.000000, increasing alphaT to 2.001340e-03.
ElecMinimize: 	Predicted alpha/alphaT>3.000000, increasing alphaT to 6.004019e-03.
ElecMinimize: 	Predicted alpha/alphaT>3.000000, increasing alphaT to 1.801206e-02.
	FillingsUpdate:  mu: -0.077934898  nElectrons: 9.000000
	SubspaceRotationAdjust: set factor to 20.6
ElecMinimize: Iter:  60  F: -20.172171406536503  |grad|_K:  3.230e-07  alpha:  6.314e-02  linmin:  1.128e-04  t[s]:    959.77
	FillingsUpdate:  mu: -0.077935003  nElectrons: 9.000000
	SubspaceRotationAdjust: set factor to 11.5
ElecMinimize: Iter:  61  F: -20.172171406617565  |grad|_K:  2.393e-07  alpha:  6.625e-05  linmin: -5.843e-07  t[s]:    972.11
ElecMinimize: 	Predicted alpha/alphaT>3.000000, increasing alphaT to 1.987593e-04.
	FillingsUpdate:  mu: -0.077935325  nElectrons: 9.000000
	SubspaceRotationAdjust: set factor to 7.46
ElecMinimize: Iter:  62  F: -20.172171407736247  |grad|_K:  1.642e-07  alpha:  3.768e-04  linmin: -6.471e-06  t[s]:    988.17
	FillingsUpdate:  mu: -0.077935534  nElectrons: 9.000000
	SubspaceRotationAdjust: set factor to 6.53
ElecMinimize: Iter:  63  F: -20.172171408509282  |grad|_K:  1.240e-07  alpha:  5.339e-04  linmin: -6.694e-06  t[s]:   1000.58
	FillingsUpdate:  mu: -0.077935697  nElectrons: 9.000000
	SubspaceRotationAdjust: set factor to 8.18
ElecMinimize: Iter:  64  F: -20.172171409156654  |grad|_K:  1.069e-07  alpha:  7.523e-04  linmin: -5.981e-06  t[s]:   1012.96
ElecMinimize: Converged (|Delta F|<1.000000e-08 for 4 iters).
Setting wave functions to eigenvectors of Hamiltonian

# Ionic positions in lattice coordinates:
ion Cs   0.000000000000000   0.000000000000000   0.000000000000000 0

# Forces in Lattice coordinates:
force Cs  -0.000000000000000   0.000000000000000   0.000000000000000 0

# Energy components:
   Eewald =      -10.4930384304259654
       EH =        5.5186889056939075
     Eloc =      -20.6274932928442460
      Enl =        3.4329855367788613
   Epulay =        0.0000000079000622
      Exc =       -3.1037750733403828
       KE =        5.1004610083554889
-------------------------------------
     Etot =      -20.1721713378822756
       TS =        0.0000000712743800
-------------------------------------
        F =      -20.1721714091566540

IonicMinimize: Iter:   0  F: -20.172171409156654  |grad|_K:  0.000e+00  t[s]:   1014.45
IonicMinimize: Converged (|grad|_K<1.000000e-04).

#--- Lowdin population analysis ---
# oxidation-state Cs +0.027

End date and time: Sun Jan 16 17:07:20 2022  (Duration: 0-0:16:54.76)
Done!
