1.73
--------------------------------------------------------------------------
The library attempted to open the following supporting CUDA libraries,
but each of them failed.  CUDA-aware support is disabled.
libcuda.so.1: cannot open shared object file: No such file or directory
libcuda.dylib: cannot open shared object file: No such file or directory
/usr/lib64/libcuda.so.1: cannot open shared object file: No such file or directory
/usr/lib64/libcuda.dylib: cannot open shared object file: No such file or directory
If you are not interested in CUDA-aware support, then run with
--mca opal_warn_on_missing_libcuda 0 to suppress this message.  If you are interested
in CUDA-aware support, then try setting LD_LIBRARY_PATH to the location
of libcuda.so.1 to get passed this issue.
--------------------------------------------------------------------------
--------------------------------------------------------------------------
No OpenFabrics connection schemes reported that they were able to be
used on a specific port.  As such, the openib BTL (OpenFabrics
support) will be disabled for this port.

  Local host:           d-17-12-4
  Local device:         mlx5_1
  Local port:           1
  CPCs attempted:       rdmacm, udcm
--------------------------------------------------------------------------

*************** JDFTx 1.6.0 (git hash 42ebbcc2) ***************

Start date and time: Sun Jan 16 16:34:11 2022
Executable jdftx with command-line: -i Cesium.in
Running on hosts (process indices):  d-17-12-4 (0-18)
Divided in process groups (process indices):  0 (0)  1 (1)  2 (2)  3 (3)  4 (4)  5 (5)  6 (6)  7 (7)  8 (8)  9 (9)  10 (10)  11 (11)  12 (12)  13 (13)  14 (14)  15 (15)  16 (16)  17 (17)  18 (18)
Resource initialization completed at t[s]:      0.00
Run totals: 19 processes, 48 threads, 0 GPUs


Input parsed successfully to the following command list (including defaults):

basis kpoint-dependent
coords-type Lattice
core-overlap-check vector
coulomb-interaction Slab 001
davidson-band-ratio 1.1
dump End None
dump-name $INPUT.$VAR
elec-cutoff 20
elec-eigen-algo Davidson
elec-ex-corr gga-PBE
elec-smearing Fermi 1e-05
electronic-minimize  \
	dirUpdateScheme      FletcherReeves \
	linminMethod         DirUpdateRecommended \
	nIterations          10000 \
	history              15 \
	knormThreshold       0 \
	energyDiffThreshold  1e-08 \
	nEnergyDiff          4 \
	alphaTstart          1 \
	alphaTmin            1e-10 \
	updateTestStepSize   yes \
	alphaTreduceFactor   0.1 \
	alphaTincreaseFactor 3 \
	nAlphaAdjustMax      3 \
	wolfeEnergy          0.0001 \
	wolfeGradient        0.9 \
	fdTest               no
exchange-regularization WignerSeitzTruncated
fluid None
fluid-ex-corr (null) lda-PZ
fluid-gummel-loop 10 1.000000e-05
fluid-minimize  \
	dirUpdateScheme      PolakRibiere \
	linminMethod         DirUpdateRecommended \
	nIterations          100 \
	history              15 \
	knormThreshold       0 \
	energyDiffThreshold  0 \
	nEnergyDiff          2 \
	alphaTstart          1 \
	alphaTmin            1e-10 \
	updateTestStepSize   yes \
	alphaTreduceFactor   0.1 \
	alphaTincreaseFactor 3 \
	nAlphaAdjustMax      3 \
	wolfeEnergy          0.0001 \
	wolfeGradient        0.9 \
	fdTest               no
fluid-solvent H2O 55.338 ScalarEOS \
	epsBulk 78.4 \
	pMol 0.92466 \
	epsInf 1.77 \
	Pvap 1.06736e-10 \
	sigmaBulk 4.62e-05 \
	Rvdw 2.61727 \
	Res 1.42 \
	tauNuc 343133 \
	poleEl 15 7 1
forces-output-coords Positions
ion Cs   0.000000000000000   0.000000000000000   0.000000000000000 0
ion-species SG15/$ID_ONCV_PBE.upf
ion-width 0
ionic-minimize  \
	dirUpdateScheme      L-BFGS \
	linminMethod         DirUpdateRecommended \
	nIterations          0 \
	history              15 \
	knormThreshold       0.0001 \
	energyDiffThreshold  1e-06 \
	nEnergyDiff          2 \
	alphaTstart          1 \
	alphaTmin            1e-10 \
	updateTestStepSize   yes \
	alphaTreduceFactor   0.1 \
	alphaTincreaseFactor 3 \
	nAlphaAdjustMax      3 \
	wolfeEnergy          0.0001 \
	wolfeGradient        0.9 \
	fdTest               no
kpoint   0.000000000000   0.000000000000   0.000000000000  1.00000000000000
kpoint-folding 48 48 1 
latt-move-scale 1 1 1
latt-scale 1.73 1.73 1 
lattice  \
	   4.727486978767153   -2.363743489383575    0.000000000000000  \
	  -0.000000000000000    4.094123819672498    0.000000000000000  \
	   0.000000000000000    0.000000000000000   40.000000000000000 
lattice-minimize  \
	dirUpdateScheme      L-BFGS \
	linminMethod         DirUpdateRecommended \
	nIterations          0 \
	history              15 \
	knormThreshold       0 \
	energyDiffThreshold  1e-06 \
	nEnergyDiff          2 \
	alphaTstart          1 \
	alphaTmin            1e-10 \
	updateTestStepSize   yes \
	alphaTreduceFactor   0.1 \
	alphaTincreaseFactor 3 \
	nAlphaAdjustMax      3 \
	wolfeEnergy          0.0001 \
	wolfeGradient        0.9 \
	fdTest               no
lcao-params -1 1e-06 1e-05
pcm-variant GLSSA13
spintype no-spin
subspace-rotation-factor 1 yes
symmetries automatic
symmetry-threshold 0.0001



---------- Setting up symmetries ----------

Found 24 point-group symmetries of the bravais lattice
Found 24 space-group symmetries with basis
Applied RMS atom displacement 0 bohrs to make symmetries exact.

---------- Initializing the Grid ----------
R = 
[      8.17855     -4.08928            0  ]
[            0      7.08283            0  ]
[            0            0           40  ]
unit cell volume = 2317.09
G =
[   0.768252    0.44355         -0  ]
[          0     0.8871         -0  ]
[         -0         -0    0.15708  ]
Minimum fftbox size, Smin = [  36  36  164  ]
Chosen fftbox size, S = [  36  36  168  ]

---------- Exchange Correlation functional ----------
Initalized PBE GGA exchange.
Initalized PBE GGA correlation.

---------- Setting up pseudopotentials ----------
Width of ionic core gaussian charges (only for fluid interactions / plotting) set to 0

Reading pseudopotential file '/home/gridsan/aligho/DFT/build-Nov24/pseudopotentials/SG15/Cs_ONCV_PBE.upf':
  'Cs' pseudopotential, 'PBE' functional
  Generated using ONCVPSP code by D. R. Hamann
  Author: Martin Schlipf and Francois Gygi  Date: 150915.
  9 valence electrons, 3 orbitals, 6 projectors, 2414 radial grid points, with lMax = 2
  Transforming local potential to a uniform radial grid of dG=0.02 with 1538 points.
  Transforming nonlocal projectors to a uniform radial grid of dG=0.02 with 432 points.
    5S    l: 0   occupation:  2.0   eigenvalue: -0.982388
    5P    l: 1   occupation:  6.0   eigenvalue: -0.496786
    6S    l: 0   occupation:  1.0   eigenvalue: -0.076670
  Transforming atomic orbitals to a uniform radial grid of dG=0.02 with 432 points.
  Core radius for overlap checks: 2.06 bohrs.
  Reading pulay file /home/gridsan/aligho/DFT/build-Nov24/pseudopotentials/SG15/Cs_ONCV_PBE.pulay ... using dE_dnG = -1.008762e-04 computed for Ecut = 20.

Initialized 1 species with 1 total atoms.

Folded 1 k-points by 48x48x1 to 2304 k-points.

---------- Setting up k-points, bands, fillings ----------
Reduced to 217 k-points under symmetry. 
Computing the number of bands and number of electrons
Calculating initial fillings.
nElectrons:   9.000000   nBands: 6   nStates: 217

----- Setting up reduced wavefunction bases (one per k-point) -----
average nbasis = 9899.173 , ideal nbasis = 9898.799

---------- Setting up coulomb interaction ----------
Initialized slab truncation along lattice direction 001

---------- Setting up 2D ewald sum ----------
Optimum gaussian width for ewald sums = 4.540402 bohr.
Real space sums over 289 unit cells with max indices [  8  8  0  ]
Reciprocal space sums over 81 terms with max indices [  4  4  0  ]

---------- Allocating electronic variables ----------
Initializing wave functions:  linear combination of atomic orbitals
Note: number of bands (6) exceeds available atomic orbitals (5)
Cs pseudo-atom occupations:   s ( 2 1 )  p ( 6 )
	FillingsUpdate:  mu: -0.098102548  nElectrons: 9.000000
LCAOMinimize: Iter:   0  F: -20.1678106873985747  |grad|_K:  1.347e-05  alpha:  1.000e+00
[d-17-12-4:95442] 18 more processes have sent help message help-mpi-common-cuda.txt / dlopen failed
[d-17-12-4:95442] Set MCA parameter "orte_base_help_aggregate" to 0 to see all help / error messages
[d-17-12-4:95442] 18 more processes have sent help message help-mpi-btl-openib-cpc-base.txt / no cpcs for port
	FillingsUpdate:  mu: -0.098055487  nElectrons: 9.000000
LCAOMinimize: Iter:   1  F: -20.1678113764161928  |grad|_K:  2.652e-07  alpha:  9.727e-01  linmin: -3.531e-02  cgtest:  7.362e-01  t[s]:      7.60
LCAOMinimize: Encountered beta<0, resetting CG.
	FillingsUpdate:  mu: -0.098054879  nElectrons: 9.000000
LCAOMinimize: Iter:   2  F: -20.1678113766900289  |grad|_K:  1.048e-09  alpha:  9.960e-01  linmin: -2.638e-02  cgtest:  4.947e-01  t[s]:     10.37
LCAOMinimize: Encountered beta<0, resetting CG.
LCAOMinimize: Converged (|Delta F|<1.000000e-06 for 2 iters).


---- Citations for features of the code used in this run ----

   Software package:
      R. Sundararaman, K. Letchworth-Weaver, K.A. Schwarz, D. Gunceler, Y. Ozhabes and T.A. Arias, 'JDFTx: software for joint density-functional theory', SoftwareX 6, 278 (2017)

   gga-PBE exchange-correlation functional:
      J.P. Perdew, K. Burke and M. Ernzerhof, Phys. Rev. Lett. 77, 3865 (1996)

   Pseudopotentials:
      M Schlipf and F Gygi, Comput. Phys. Commun. 196, 36 (2015)

   Truncated Coulomb potentials:
      R. Sundararaman and T.A. Arias, Phys. Rev. B 87, 165122 (2013)

   Total energy minimization with Auxiliary Hamiltonian:
      C. Freysoldt, S. Boeck, and J. Neugebauer, Phys. Rev. B 79, 241103(R) (2009)

This list may not be complete. Please suggest additional citations or
report any other bugs at https://github.com/shankar1729/jdftx/issues

Initialization completed successfully at t[s]:     10.66


-------- Electronic minimization -----------
	FillingsUpdate:  mu: -0.098054879  nElectrons: 9.000000
ElecMinimize: Iter:   0  F: -20.167811376690029  |grad|_K:  1.465e-05  alpha:  1.000e+00
	FillingsUpdate:  mu: -0.096706481  nElectrons: 9.000000
	SubspaceRotationAdjust: set factor to 1
ElecMinimize: Iter:   1  F: -20.171243521978575  |grad|_K:  9.554e-06  alpha:  1.241e+00  linmin:  4.207e-05  t[s]:     16.49
ElecMinimize: 	Step increased F by 4.762165e-04, reducing alpha to 2.346135e-01.
	FillingsUpdate:  mu: -0.096340098  nElectrons: 9.000000
	SubspaceRotationAdjust: set factor to 1.04
ElecMinimize: Iter:   2  F: -20.171765885896665  |grad|_K:  8.607e-06  alpha:  2.346e-01  linmin: -2.745e-03  t[s]:     22.53
ElecMinimize: 	Predicted alpha/alphaT>3.000000, increasing alphaT to 7.038406e-01.
	FillingsUpdate:  mu: -0.089084562  nElectrons: 9.000000
	SubspaceRotationAdjust: set factor to 0.6
ElecMinimize: Iter:   3  F: -20.172595819996694  |grad|_K:  1.620e-05  alpha:  1.150e+00  linmin:  4.178e-03  t[s]:     27.20
ElecMinimize: 	Bad step direction: g.d > 0.
ElecMinimize: 	Undoing step.
ElecMinimize: 	Step failed: resetting search direction.
	FillingsUpdate:  mu: -0.089084562  nElectrons: 9.000000
	SubspaceRotationAdjust: set factor to 0.927
ElecMinimize: Iter:   4  F: -20.172595819996705  |grad|_K:  1.427e-05  alpha:  0.000e+00
	FillingsUpdate:  mu: -0.089281635  nElectrons: 9.000000
	SubspaceRotationAdjust: set factor to 1.06
ElecMinimize: Iter:   5  F: -20.174704936791159  |grad|_K:  5.649e-06  alpha:  8.492e-01  linmin: -2.236e-04  t[s]:     33.37
	FillingsUpdate:  mu: -0.088386403  nElectrons: 9.000000
	SubspaceRotationAdjust: set factor to 1.08
ElecMinimize: Iter:   6  F: -20.175386357324665  |grad|_K:  6.075e-06  alpha:  1.631e+00  linmin: -7.339e-04  t[s]:     37.02
	FillingsUpdate:  mu: -0.088225698  nElectrons: 9.000000
	SubspaceRotationAdjust: set factor to 1.22
ElecMinimize: Iter:   7  F: -20.175606252314644  |grad|_K:  5.340e-06  alpha:  2.172e-01  linmin: -4.229e-03  t[s]:     40.61
ElecMinimize: 	Predicted alpha/alphaT>3.000000, increasing alphaT to 6.517432e-01.
ElecMinimize: 	Step increased F by 2.533172e-04, reducing alpha to 8.449362e-02.
	FillingsUpdate:  mu: -0.088266439  nElectrons: 9.000000
	SubspaceRotationAdjust: set factor to 1.43
ElecMinimize: Iter:   8  F: -20.175726067958522  |grad|_K:  4.667e-06  alpha:  8.449e-02  linmin: -4.996e-03  t[s]:     47.78
ElecMinimize: 	Predicted alpha/alphaT>3.000000, increasing alphaT to 2.534809e-01.
ElecMinimize: 	Predicted alpha/alphaT>3.000000, increasing alphaT to 7.604426e-01.
	FillingsUpdate:  mu: -0.087221964  nElectrons: 9.000000
	SubspaceRotationAdjust: set factor to 1.22
ElecMinimize: Iter:   9  F: -20.176027830857493  |grad|_K:  4.602e-06  alpha:  2.346e-01  linmin: -5.828e-03  t[s]:     53.52
	FillingsUpdate:  mu: -0.082391137  nElectrons: 9.000000
	SubspaceRotationAdjust: set factor to 1.21
ElecMinimize: Iter:  10  F: -20.176225634891900  |grad|_K:  4.960e-06  alpha:  1.869e-01  linmin: -4.530e-04  t[s]:     57.12
	FillingsUpdate:  mu: -0.081286186  nElectrons: 9.000000
	SubspaceRotationAdjust: set factor to 1.33
ElecMinimize: Iter:  11  F: -20.176238798816691  |grad|_K:  5.754e-06  alpha:  3.817e-02  linmin: -8.369e-05  t[s]:     60.72
ElecMinimize: 	Predicted alpha/alphaT>3.000000, increasing alphaT to 1.145111e-01.
	FillingsUpdate:  mu: -0.080715829  nElectrons: 9.000000
	SubspaceRotationAdjust: set factor to 1.42
ElecMinimize: Iter:  12  F: -20.176262101038319  |grad|_K:  5.776e-06  alpha:  2.229e-02  linmin: -7.735e-04  t[s]:     65.43
	FillingsUpdate:  mu: -0.079641154  nElectrons: 9.000000
	SubspaceRotationAdjust: set factor to 1.69
ElecMinimize: Iter:  13  F: -20.176303443026953  |grad|_K:  6.898e-06  alpha:  6.178e-02  linmin:  7.209e-04  t[s]:     69.04
	FillingsUpdate:  mu: -0.079637121  nElectrons: 9.000000
	SubspaceRotationAdjust: set factor to 1.92
ElecMinimize: Iter:  14  F: -20.176303462361599  |grad|_K:  7.168e-06  alpha:  2.013e-04  linmin: -5.759e-05  t[s]:     72.65
ElecMinimize: 	Predicted alpha/alphaT>3.000000, increasing alphaT to 6.038440e-04.
ElecMinimize: 	Predicted alpha/alphaT>3.000000, increasing alphaT to 1.811532e-03.
ElecMinimize: 	Predicted alpha/alphaT>3.000000, increasing alphaT to 5.434596e-03.
ElecMinimize: 	Step increased F by 2.248399e-07, reducing alpha to 1.324496e-03.
	FillingsUpdate:  mu: -0.079620474  nElectrons: 9.000000
	SubspaceRotationAdjust: set factor to 1.98
ElecMinimize: Iter:  15  F: -20.176305245329477  |grad|_K:  7.420e-06  alpha:  1.324e-03  linmin: -8.386e-04  t[s]:     80.80
ElecMinimize: 	Predicted alpha/alphaT>3.000000, increasing alphaT to 3.973488e-03.
ElecMinimize: 	Predicted alpha/alphaT>3.000000, increasing alphaT to 1.192046e-02.
	FillingsUpdate:  mu: -0.079246885  nElectrons: 9.000000
	SubspaceRotationAdjust: set factor to 1.65
ElecMinimize: Iter:  16  F: -20.176321818688528  |grad|_K:  7.968e-06  alpha:  1.191e-02  linmin: -8.576e-04  t[s]:     86.53
	FillingsUpdate:  mu: -0.079116309  nElectrons: 9.000000
	SubspaceRotationAdjust: set factor to 1.39
ElecMinimize: Iter:  17  F: -20.176332337310022  |grad|_K:  7.659e-06  alpha:  3.804e-03  linmin: -1.571e-03  t[s]:     90.11
ElecMinimize: 	Predicted alpha/alphaT>3.000000, increasing alphaT to 1.141159e-02.
	FillingsUpdate:  mu: -0.078990985  nElectrons: 9.000000
	SubspaceRotationAdjust: set factor to 1.17
ElecMinimize: Iter:  18  F: -20.176347961834992  |grad|_K:  7.360e-06  alpha:  4.475e-03  linmin: -2.329e-03  t[s]:     94.75
	FillingsUpdate:  mu: -0.078969970  nElectrons: 9.000000
	SubspaceRotationAdjust: set factor to 0.942
ElecMinimize: Iter:  19  F: -20.176351796586857  |grad|_K:  7.581e-06  alpha:  9.927e-04  linmin: -2.180e-03  t[s]:     98.39
	FillingsUpdate:  mu: -0.078964396  nElectrons: 9.000000
	SubspaceRotationAdjust: set factor to 0.681
ElecMinimize: Iter:  20  F: -20.176353220262886  |grad|_K:  8.348e-06  alpha:  5.190e-04  linmin: -2.894e-04  t[s]:    101.98
	FillingsUpdate:  mu: -0.078964657  nElectrons: 9.000000
	SubspaceRotationAdjust: set factor to 0.513
ElecMinimize: Iter:  21  F: -20.176353421648251  |grad|_K:  7.973e-06  alpha:  1.527e-04  linmin: -7.907e-05  t[s]:    105.59
	FillingsUpdate:  mu: -0.078966348  nElectrons: 9.000000
	SubspaceRotationAdjust: set factor to 0.402
ElecMinimize: Iter:  22  F: -20.176353570313189  |grad|_K:  7.661e-06  alpha:  1.645e-04  linmin:  1.378e-05  t[s]:    109.20
	FillingsUpdate:  mu: -0.078969458  nElectrons: 9.000000
	SubspaceRotationAdjust: set factor to 0.328
ElecMinimize: Iter:  23  F: -20.176353698228610  |grad|_K:  7.398e-06  alpha:  1.729e-04  linmin:  5.037e-06  t[s]:    112.80
	FillingsUpdate:  mu: -0.078974933  nElectrons: 9.000000
	SubspaceRotationAdjust: set factor to 0.274
ElecMinimize: Iter:  24  F: -20.176353846547290  |grad|_K:  7.220e-06  alpha:  2.123e-04  linmin:  1.215e-06  t[s]:    116.42
	FillingsUpdate:  mu: -0.078984027  nElectrons: 9.000000
	SubspaceRotationAdjust: set factor to 0.234
ElecMinimize: Iter:  25  F: -20.176354021974344  |grad|_K:  7.090e-06  alpha:  2.609e-04  linmin: -4.547e-06  t[s]:    120.04
	FillingsUpdate:  mu: -0.078999030  nElectrons: 9.000000
	SubspaceRotationAdjust: set factor to 0.203
ElecMinimize: Iter:  26  F: -20.176354245863394  |grad|_K:  6.982e-06  alpha:  3.379e-04  linmin: -1.418e-05  t[s]:    123.64
	FillingsUpdate:  mu: -0.079025215  nElectrons: 9.000000
	SubspaceRotationAdjust: set factor to 0.178
ElecMinimize: Iter:  27  F: -20.176354591669568  |grad|_K:  6.866e-06  alpha:  5.047e-04  linmin: -4.433e-05  t[s]:    127.25
	FillingsUpdate:  mu: -0.079103342  nElectrons: 9.000000
	SubspaceRotationAdjust: set factor to 0.166
ElecMinimize: Iter:  28  F: -20.176356333837337  |grad|_K:  6.425e-06  alpha:  1.433e-03  linmin: -5.492e-04  t[s]:    130.88
ElecMinimize: 	Wrong curvature in test step, increasing alphaT to 4.298727e-03.
	FillingsUpdate:  mu: -0.079167904  nElectrons: 9.000000
	SubspaceRotationAdjust: set factor to 0.188
ElecMinimize: Iter:  29  F: -20.176361671150254  |grad|_K:  5.707e-06  alpha: -1.819e-03  linmin: -2.573e-03  t[s]:    134.23
	FillingsUpdate:  mu: -0.079485758  nElectrons: 9.000000
	SubspaceRotationAdjust: set factor to 0.244
ElecMinimize: Iter:  30  F: -20.176450667005081  |grad|_K:  4.088e-06  alpha:  1.411e-02  linmin: -1.279e-02  t[s]:    137.83
ElecMinimize: 	Predicted alpha/alphaT>3.000000, increasing alphaT to 4.234191e-02.
	FillingsUpdate:  mu: -0.079322679  nElectrons: 9.000000
	SubspaceRotationAdjust: set factor to 0.18
ElecMinimize: Iter:  31  F: -20.176602983603399  |grad|_K:  6.571e-06  alpha:  1.041e-01  linmin:  1.138e-02  t[s]:    142.48
ElecMinimize: 	Bad step direction: g.d > 0.
ElecMinimize: 	Undoing step.
ElecMinimize: 	Step failed: resetting search direction.
	FillingsUpdate:  mu: -0.079322679  nElectrons: 9.000000
	SubspaceRotationAdjust: set factor to 0.148
ElecMinimize: Iter:  32  F: -20.176602983603402  |grad|_K:  5.951e-06  alpha:  0.000e+00
	FillingsUpdate:  mu: -0.079509142  nElectrons: 9.000000
	SubspaceRotationAdjust: set factor to 0.199
ElecMinimize: Iter:  33  F: -20.176657615365912  |grad|_K:  3.695e-06  alpha:  1.126e-01  linmin: -5.612e-02  t[s]:    148.59
ElecMinimize: 	Wrong curvature in test step, increasing alphaT to 3.376550e-01.
	FillingsUpdate:  mu: -0.079640777  nElectrons: 9.000000
	SubspaceRotationAdjust: set factor to 0.256
ElecMinimize: Iter:  34  F: -20.176732164303701  |grad|_K:  3.415e-06  alpha: -1.915e-01  linmin: -6.983e-02  t[s]:    151.91
	FillingsUpdate:  mu: -0.079290911  nElectrons: 9.000000
	SubspaceRotationAdjust: set factor to 0.286
ElecMinimize: Iter:  35  F: -20.176926972433087  |grad|_K:  3.965e-06  alpha:  5.425e-01  linmin:  2.458e-03  t[s]:    155.52
	FillingsUpdate:  mu: -0.079079562  nElectrons: 9.000000
	SubspaceRotationAdjust: set factor to 0.293
ElecMinimize: Iter:  36  F: -20.176993967981687  |grad|_K:  5.568e-06  alpha:  4.104e-01  linmin: -9.327e-05  t[s]:    159.14
	FillingsUpdate:  mu: -0.082023696  nElectrons: 9.000000
	SubspaceRotationAdjust: set factor to 0.294
ElecMinimize: Iter:  37  F: -20.177350496905493  |grad|_K:  4.412e-06  alpha:  8.723e-01  linmin: -9.396e-04  t[s]:    162.76
	FillingsUpdate:  mu: -0.081857038  nElectrons: 9.000000
	SubspaceRotationAdjust: set factor to 0.338
ElecMinimize: Iter:  38  F: -20.177474633400610  |grad|_K:  2.141e-06  alpha:  4.602e-01  linmin:  9.801e-05  t[s]:    166.33
ElecMinimize: 	Predicted alpha/alphaT>3.000000, increasing alphaT to 1.380729e+00.
	FillingsUpdate:  mu: -0.079875305  nElectrons: 9.000000
	SubspaceRotationAdjust: set factor to 0.377
ElecMinimize: Iter:  39  F: -20.177536016896710  |grad|_K:  2.294e-06  alpha:  9.595e-01  linmin:  5.874e-04  t[s]:    171.07
	FillingsUpdate:  mu: -0.077242551  nElectrons: 9.000000
	SubspaceRotationAdjust: set factor to 0.4
ElecMinimize: Iter:  40  F: -20.177593643821485  |grad|_K:  1.979e-06  alpha:  9.000e-01  linmin:  1.216e-03  t[s]:    174.67
	FillingsUpdate:  mu: -0.076193403  nElectrons: 9.000000
	SubspaceRotationAdjust: set factor to 0.471
ElecMinimize: Iter:  41  F: -20.177606653431507  |grad|_K:  2.127e-06  alpha:  3.584e-01  linmin:  2.746e-03  t[s]:    178.26
ElecMinimize: 	Bad step direction: g.d > 0.
ElecMinimize: 	Undoing step.
ElecMinimize: 	Step failed: resetting search direction.
	FillingsUpdate:  mu: -0.076193403  nElectrons: 9.000000
	SubspaceRotationAdjust: set factor to 0.536
ElecMinimize: Iter:  42  F: -20.177606653431507  |grad|_K:  2.200e-06  alpha:  0.000e+00
	FillingsUpdate:  mu: -0.076918622  nElectrons: 9.000000
	SubspaceRotationAdjust: set factor to 0.531
ElecMinimize: Iter:  43  F: -20.177641702869021  |grad|_K:  1.488e-06  alpha:  4.767e-01  linmin: -1.068e-02  t[s]:    184.38
	FillingsUpdate:  mu: -0.077403193  nElectrons: 9.000000
	SubspaceRotationAdjust: set factor to 0.574
ElecMinimize: Iter:  44  F: -20.177680260721601  |grad|_K:  9.077e-07  alpha:  9.159e-01  linmin: -4.576e-04  t[s]:    187.96
	FillingsUpdate:  mu: -0.077447976  nElectrons: 9.000000
	SubspaceRotationAdjust: set factor to 0.558
ElecMinimize: Iter:  45  F: -20.177696738598723  |grad|_K:  1.025e-06  alpha:  1.547e+00  linmin:  4.847e-04  t[s]:    191.54
	FillingsUpdate:  mu: -0.077293237  nElectrons: 9.000000
	SubspaceRotationAdjust: set factor to 0.679
ElecMinimize: Iter:  46  F: -20.177709969035739  |grad|_K:  7.193e-07  alpha:  8.371e-01  linmin: -3.304e-03  t[s]:    195.11
	FillingsUpdate:  mu: -0.077290568  nElectrons: 9.000000
	SubspaceRotationAdjust: set factor to 0.932
ElecMinimize: Iter:  47  F: -20.177717127313780  |grad|_K:  6.534e-07  alpha:  8.841e-01  linmin: -2.881e-05  t[s]:    198.71
	FillingsUpdate:  mu: -0.077347874  nElectrons: 9.000000
	SubspaceRotationAdjust: set factor to 1.08
ElecMinimize: Iter:  48  F: -20.177721837030756  |grad|_K:  4.707e-07  alpha:  8.550e-01  linmin: -2.991e-04  t[s]:    202.32
	FillingsUpdate:  mu: -0.077466509  nElectrons: 9.000000
	SubspaceRotationAdjust: set factor to 1.08
ElecMinimize: Iter:  49  F: -20.177723816922441  |grad|_K:  3.423e-07  alpha:  6.780e-01  linmin: -9.741e-05  t[s]:    205.98
	FillingsUpdate:  mu: -0.077695601  nElectrons: 9.000000
	SubspaceRotationAdjust: set factor to 1.13
ElecMinimize: Iter:  50  F: -20.177725207013143  |grad|_K:  3.283e-07  alpha:  9.524e-01  linmin:  1.497e-03  t[s]:    209.59
	FillingsUpdate:  mu: -0.077704765  nElectrons: 9.000000
	SubspaceRotationAdjust: set factor to 1.38
ElecMinimize: Iter:  51  F: -20.177726095769014  |grad|_K:  2.824e-07  alpha:  7.403e-01  linmin:  3.439e-05  t[s]:    213.21
	FillingsUpdate:  mu: -0.077697002  nElectrons: 9.000000
	SubspaceRotationAdjust: set factor to 1.36
ElecMinimize: Iter:  52  F: -20.177726992417757  |grad|_K:  2.638e-07  alpha:  8.598e-01  linmin: -3.717e-04  t[s]:    216.78
	FillingsUpdate:  mu: -0.077705490  nElectrons: 9.000000
	SubspaceRotationAdjust: set factor to 1.57
ElecMinimize: Iter:  53  F: -20.177727875955572  |grad|_K:  2.182e-07  alpha:  9.190e-01  linmin:  6.030e-05  t[s]:    220.39
	FillingsUpdate:  mu: -0.077759893  nElectrons: 9.000000
	SubspaceRotationAdjust: set factor to 1.86
ElecMinimize: Iter:  54  F: -20.177728355141046  |grad|_K:  1.671e-07  alpha:  7.886e-01  linmin: -3.587e-05  t[s]:    224.00
	FillingsUpdate:  mu: -0.077795504  nElectrons: 9.000000
	SubspaceRotationAdjust: set factor to 1.72
ElecMinimize: Iter:  55  F: -20.177728625759080  |grad|_K:  1.300e-07  alpha:  7.494e-01  linmin: -6.508e-05  t[s]:    227.59
	FillingsUpdate:  mu: -0.077768110  nElectrons: 9.000000
	SubspaceRotationAdjust: set factor to 1.88
ElecMinimize: Iter:  56  F: -20.177728820388499  |grad|_K:  1.183e-07  alpha:  8.880e-01  linmin:  1.608e-05  t[s]:    231.19
	FillingsUpdate:  mu: -0.077718483  nElectrons: 9.000000
	SubspaceRotationAdjust: set factor to 1.81
ElecMinimize: Iter:  57  F: -20.177728977103879  |grad|_K:  1.007e-07  alpha:  8.714e-01  linmin:  3.057e-05  t[s]:    234.79
	FillingsUpdate:  mu: -0.077702747  nElectrons: 9.000000
	SubspaceRotationAdjust: set factor to 1.93
ElecMinimize: Iter:  58  F: -20.177729087518294  |grad|_K:  9.100e-08  alpha:  8.482e-01  linmin:  4.307e-06  t[s]:    238.38
	FillingsUpdate:  mu: -0.077693116  nElectrons: 9.000000
	SubspaceRotationAdjust: set factor to 1.9
ElecMinimize: Iter:  59  F: -20.177729178949598  |grad|_K:  7.195e-08  alpha:  8.571e-01  linmin: -1.594e-05  t[s]:    241.96
	FillingsUpdate:  mu: -0.077668650  nElectrons: 9.000000
	SubspaceRotationAdjust: set factor to 2.16
ElecMinimize: Iter:  60  F: -20.177729224909307  |grad|_K:  5.115e-08  alpha:  6.863e-01  linmin:  2.536e-06  t[s]:    245.55
	FillingsUpdate:  mu: -0.077642697  nElectrons: 9.000000
	SubspaceRotationAdjust: set factor to 1.95
ElecMinimize: Iter:  61  F: -20.177729252276055  |grad|_K:  4.381e-08  alpha:  8.127e-01  linmin:  2.041e-05  t[s]:    249.17
	FillingsUpdate:  mu: -0.077630908  nElectrons: 9.000000
	SubspaceRotationAdjust: set factor to 2.27
ElecMinimize: Iter:  62  F: -20.177729271233698  |grad|_K:  3.406e-08  alpha:  7.692e-01  linmin:  3.523e-06  t[s]:    252.77
	FillingsUpdate:  mu: -0.077624380  nElectrons: 9.000000
	SubspaceRotationAdjust: set factor to 2.05
ElecMinimize: Iter:  63  F: -20.177729283576983  |grad|_K:  3.016e-08  alpha:  8.262e-01  linmin: -4.283e-06  t[s]:    256.33
	FillingsUpdate:  mu: -0.077612326  nElectrons: 9.000000
	SubspaceRotationAdjust: set factor to 2.18
ElecMinimize: Iter:  64  F: -20.177729293714858  |grad|_K:  2.551e-08  alpha:  8.638e-01  linmin:  2.092e-06  t[s]:    259.94
	FillingsUpdate:  mu: -0.077604760  nElectrons: 9.000000
	SubspaceRotationAdjust: set factor to 2.08
ElecMinimize: Iter:  65  F: -20.177729300112915  |grad|_K:  1.861e-08  alpha:  7.629e-01  linmin:  2.194e-06  t[s]:    263.52
	FillingsUpdate:  mu: -0.077603700  nElectrons: 9.000000
	SubspaceRotationAdjust: set factor to 2.09
ElecMinimize: Iter:  66  F: -20.177729303308876  |grad|_K:  1.395e-08  alpha:  7.158e-01  linmin:  2.312e-06  t[s]:    267.10
	FillingsUpdate:  mu: -0.077602323  nElectrons: 9.000000
	SubspaceRotationAdjust: set factor to 2.04
ElecMinimize: Iter:  67  F: -20.177729305411859  |grad|_K:  1.133e-08  alpha:  8.383e-01  linmin: -8.185e-07  t[s]:    270.72
	FillingsUpdate:  mu: -0.077600659  nElectrons: 9.000000
	SubspaceRotationAdjust: set factor to 2.11
ElecMinimize: Iter:  68  F: -20.177729306657994  |grad|_K:  8.770e-09  alpha:  7.522e-01  linmin:  8.322e-07  t[s]:    274.34
ElecMinimize: Converged (|Delta F|<1.000000e-08 for 4 iters).
Setting wave functions to eigenvectors of Hamiltonian

# Ionic positions in lattice coordinates:
ion Cs   0.000000000000000   0.000000000000000   0.000000000000000 0

# Forces in Lattice coordinates:
force Cs  -0.000000000000000   0.000000000000000   0.000000000000000 0

# Energy components:
   Eewald =      -20.8647700581880642
       EH =       -4.6780679276571728
     Eloc =       -0.1085406054240045
      Enl =        3.4517593762525349
   Epulay =        0.0000000162926882
      Exc =       -3.1658338298810249
       KE =        5.1877237688819617
-------------------------------------
     Etot =      -20.1777292597230797
       TS =        0.0000000469349160
-------------------------------------
        F =      -20.1777293066579944

IonicMinimize: Iter:   0  F: -20.177729306657994  |grad|_K:  0.000e+00  t[s]:    274.74
IonicMinimize: Converged (|grad|_K<1.000000e-04).

#--- Lowdin population analysis ---
# oxidation-state Cs +0.103

End date and time: Sun Jan 16 16:38:46 2022  (Duration: 0-0:04:34.82)
Done!
