1.22
--------------------------------------------------------------------------
The library attempted to open the following supporting CUDA libraries,
but each of them failed.  CUDA-aware support is disabled.
libcuda.so.1: cannot open shared object file: No such file or directory
libcuda.dylib: cannot open shared object file: No such file or directory
/usr/lib64/libcuda.so.1: cannot open shared object file: No such file or directory
/usr/lib64/libcuda.dylib: cannot open shared object file: No such file or directory
If you are not interested in CUDA-aware support, then run with
--mca opal_warn_on_missing_libcuda 0 to suppress this message.  If you are interested
in CUDA-aware support, then try setting LD_LIBRARY_PATH to the location
of libcuda.so.1 to get passed this issue.
--------------------------------------------------------------------------
--------------------------------------------------------------------------
No OpenFabrics connection schemes reported that they were able to be
used on a specific port.  As such, the openib BTL (OpenFabrics
support) will be disabled for this port.

  Local host:           d-4-1-2
  Local device:         mlx5_1
  Local port:           1
  CPCs attempted:       rdmacm, udcm
--------------------------------------------------------------------------

*************** JDFTx 1.6.0 (git hash 42ebbcc2) ***************

Start date and time: Sun Jan 16 16:32:40 2022
Executable jdftx with command-line: -i Cesium.in
Running on hosts (process indices):  d-4-1-2 (0-18)
Divided in process groups (process indices):  0 (0)  1 (1)  2 (2)  3 (3)  4 (4)  5 (5)  6 (6)  7 (7)  8 (8)  9 (9)  10 (10)  11 (11)  12 (12)  13 (13)  14 (14)  15 (15)  16 (16)  17 (17)  18 (18)
Resource initialization completed at t[s]:      0.00
Run totals: 19 processes, 48 threads, 0 GPUs


Input parsed successfully to the following command list (including defaults):

basis kpoint-dependent
coords-type Lattice
core-overlap-check vector
coulomb-interaction Slab 001
davidson-band-ratio 1.1
dump End None
dump-name $INPUT.$VAR
elec-cutoff 20
elec-eigen-algo Davidson
elec-ex-corr gga-PBE
elec-smearing Fermi 1e-05
electronic-minimize  \
	dirUpdateScheme      FletcherReeves \
	linminMethod         DirUpdateRecommended \
	nIterations          10000 \
	history              15 \
	knormThreshold       0 \
	energyDiffThreshold  1e-08 \
	nEnergyDiff          4 \
	alphaTstart          1 \
	alphaTmin            1e-10 \
	updateTestStepSize   yes \
	alphaTreduceFactor   0.1 \
	alphaTincreaseFactor 3 \
	nAlphaAdjustMax      3 \
	wolfeEnergy          0.0001 \
	wolfeGradient        0.9 \
	fdTest               no
exchange-regularization WignerSeitzTruncated
fluid None
fluid-ex-corr (null) lda-PZ
fluid-gummel-loop 10 1.000000e-05
fluid-minimize  \
	dirUpdateScheme      PolakRibiere \
	linminMethod         DirUpdateRecommended \
	nIterations          100 \
	history              15 \
	knormThreshold       0 \
	energyDiffThreshold  0 \
	nEnergyDiff          2 \
	alphaTstart          1 \
	alphaTmin            1e-10 \
	updateTestStepSize   yes \
	alphaTreduceFactor   0.1 \
	alphaTincreaseFactor 3 \
	nAlphaAdjustMax      3 \
	wolfeEnergy          0.0001 \
	wolfeGradient        0.9 \
	fdTest               no
fluid-solvent H2O 55.338 ScalarEOS \
	epsBulk 78.4 \
	pMol 0.92466 \
	epsInf 1.77 \
	Pvap 1.06736e-10 \
	sigmaBulk 4.62e-05 \
	Rvdw 2.61727 \
	Res 1.42 \
	tauNuc 343133 \
	poleEl 15 7 1
forces-output-coords Positions
ion Cs   0.000000000000000   0.000000000000000   0.000000000000000 0
ion-species SG15/$ID_ONCV_PBE.upf
ion-width 0
ionic-minimize  \
	dirUpdateScheme      L-BFGS \
	linminMethod         DirUpdateRecommended \
	nIterations          0 \
	history              15 \
	knormThreshold       0.0001 \
	energyDiffThreshold  1e-06 \
	nEnergyDiff          2 \
	alphaTstart          1 \
	alphaTmin            1e-10 \
	updateTestStepSize   yes \
	alphaTreduceFactor   0.1 \
	alphaTincreaseFactor 3 \
	nAlphaAdjustMax      3 \
	wolfeEnergy          0.0001 \
	wolfeGradient        0.9 \
	fdTest               no
kpoint   0.000000000000   0.000000000000   0.000000000000  1.00000000000000
kpoint-folding 48 48 1 
latt-move-scale 1 1 1
latt-scale 1.22 1.22 1 
lattice  \
	   4.727486978767153   -2.363743489383575    0.000000000000000  \
	  -0.000000000000000    4.094123819672498    0.000000000000000  \
	   0.000000000000000    0.000000000000000   40.000000000000000 
lattice-minimize  \
	dirUpdateScheme      L-BFGS \
	linminMethod         DirUpdateRecommended \
	nIterations          0 \
	history              15 \
	knormThreshold       0 \
	energyDiffThreshold  1e-06 \
	nEnergyDiff          2 \
	alphaTstart          1 \
	alphaTmin            1e-10 \
	updateTestStepSize   yes \
	alphaTreduceFactor   0.1 \
	alphaTincreaseFactor 3 \
	nAlphaAdjustMax      3 \
	wolfeEnergy          0.0001 \
	wolfeGradient        0.9 \
	fdTest               no
lcao-params -1 1e-06 1e-05
pcm-variant GLSSA13
spintype no-spin
subspace-rotation-factor 1 yes
symmetries automatic
symmetry-threshold 0.0001



---------- Setting up symmetries ----------

Found 24 point-group symmetries of the bravais lattice
Found 24 space-group symmetries with basis
Applied RMS atom displacement 0 bohrs to make symmetries exact.

---------- Initializing the Grid ----------
R = 
[      5.76753     -2.88377            0  ]
[            0      4.99483            0  ]
[            0            0           40  ]
unit cell volume = 1152.31
G =
[    1.08941   0.628969         -0  ]
[          0    1.25794         -0  ]
[         -0         -0    0.15708  ]
Minimum fftbox size, Smin = [  24  24  164  ]
Chosen fftbox size, S = [  24  24  168  ]

---------- Exchange Correlation functional ----------
Initalized PBE GGA exchange.
Initalized PBE GGA correlation.

---------- Setting up pseudopotentials ----------
Width of ionic core gaussian charges (only for fluid interactions / plotting) set to 0

Reading pseudopotential file '/home/gridsan/aligho/DFT/build-Nov24/pseudopotentials/SG15/Cs_ONCV_PBE.upf':
  'Cs' pseudopotential, 'PBE' functional
  Generated using ONCVPSP code by D. R. Hamann
  Author: Martin Schlipf and Francois Gygi  Date: 150915.
  9 valence electrons, 3 orbitals, 6 projectors, 2414 radial grid points, with lMax = 2
  Transforming local potential to a uniform radial grid of dG=0.02 with 1470 points.
  Transforming nonlocal projectors to a uniform radial grid of dG=0.02 with 432 points.
    5S    l: 0   occupation:  2.0   eigenvalue: -0.982388
    5P    l: 1   occupation:  6.0   eigenvalue: -0.496786
    6S    l: 0   occupation:  1.0   eigenvalue: -0.076670
  Transforming atomic orbitals to a uniform radial grid of dG=0.02 with 432 points.
  Core radius for overlap checks: 2.06 bohrs.
  Reading pulay file /home/gridsan/aligho/DFT/build-Nov24/pseudopotentials/SG15/Cs_ONCV_PBE.pulay ... using dE_dnG = -1.008762e-04 computed for Ecut = 20.

Initialized 1 species with 1 total atoms.

Folded 1 k-points by 48x48x1 to 2304 k-points.

---------- Setting up k-points, bands, fillings ----------
Reduced to 217 k-points under symmetry. 
Computing the number of bands and number of electrons
Calculating initial fillings.
nElectrons:   9.000000   nBands: 6   nStates: 217

----- Setting up reduced wavefunction bases (one per k-point) -----
average nbasis = 4922.842 , ideal nbasis = 4922.775

---------- Setting up coulomb interaction ----------
Initialized slab truncation along lattice direction 001

---------- Setting up 2D ewald sum ----------
Optimum gaussian width for ewald sums = 3.201902 bohr.
Real space sums over 289 unit cells with max indices [  8  8  0  ]
Reciprocal space sums over 81 terms with max indices [  4  4  0  ]

---------- Allocating electronic variables ----------
Initializing wave functions:  linear combination of atomic orbitals
Note: number of bands (6) exceeds available atomic orbitals (5)
Cs pseudo-atom occupations:   s ( 2 1 )  p ( 6 )
	FillingsUpdate:  mu: -0.124007594  nElectrons: 9.000000
LCAOMinimize: Iter:   0  F: -19.9654941690976671  |grad|_K:  1.606e-04  alpha:  1.000e+00
	FillingsUpdate:  mu: -0.123005863  nElectrons: 9.000000
LCAOMinimize: Iter:   1  F: -19.9655827896173115  |grad|_K:  1.234e-05  alpha:  8.966e-01  linmin: -5.444e-02  cgtest:  1.151e+00  t[s]:      3.60
LCAOMinimize: Encountered beta<0, resetting CG.
	FillingsUpdate:  mu: -0.122930288  nElectrons: 9.000000
LCAOMinimize: Iter:   2  F: -19.9655833718968658  |grad|_K:  1.883e-07  alpha:  9.774e-01  linmin: -4.029e-02  cgtest:  7.066e-01  t[s]:      4.84
LCAOMinimize: Encountered beta<0, resetting CG.
[d-4-1-2:76342] 18 more processes have sent help message help-mpi-common-cuda.txt / dlopen failed
[d-4-1-2:76342] Set MCA parameter "orte_base_help_aggregate" to 0 to see all help / error messages
[d-4-1-2:76342] 18 more processes have sent help message help-mpi-btl-openib-cpc-base.txt / no cpcs for port
	FillingsUpdate:  mu: -0.122929625  nElectrons: 9.000000
LCAOMinimize: Iter:   3  F: -19.9655833720331835  |grad|_K:  1.865e-09  alpha:  9.870e-01  linmin: -7.452e-02  cgtest:  8.710e-01  t[s]:      6.07
LCAOMinimize: Encountered beta<0, resetting CG.
LCAOMinimize: Converged (|Delta F|<1.000000e-06 for 2 iters).


---- Citations for features of the code used in this run ----

   Software package:
      R. Sundararaman, K. Letchworth-Weaver, K.A. Schwarz, D. Gunceler, Y. Ozhabes and T.A. Arias, 'JDFTx: software for joint density-functional theory', SoftwareX 6, 278 (2017)

   gga-PBE exchange-correlation functional:
      J.P. Perdew, K. Burke and M. Ernzerhof, Phys. Rev. Lett. 77, 3865 (1996)

   Pseudopotentials:
      M Schlipf and F Gygi, Comput. Phys. Commun. 196, 36 (2015)

   Truncated Coulomb potentials:
      R. Sundararaman and T.A. Arias, Phys. Rev. B 87, 165122 (2013)

   Total energy minimization with Auxiliary Hamiltonian:
      C. Freysoldt, S. Boeck, and J. Neugebauer, Phys. Rev. B 79, 241103(R) (2009)

This list may not be complete. Please suggest additional citations or
report any other bugs at https://github.com/shankar1729/jdftx/issues

Initialization completed successfully at t[s]:      6.23


-------- Electronic minimization -----------
	FillingsUpdate:  mu: -0.122929625  nElectrons: 9.000000
ElecMinimize: Iter:   0  F: -19.965583372033191  |grad|_K:  8.208e-05  alpha:  1.000e+00
	FillingsUpdate:  mu: -0.128697942  nElectrons: 9.000000
	SubspaceRotationAdjust: set factor to 1
ElecMinimize: Iter:   1  F: -20.011588599344400  |grad|_K:  4.593e-05  alpha:  1.065e+00  linmin:  1.328e-04  t[s]:      8.89
ElecMinimize: 	Step increased F by 1.770685e-03, reducing alpha to 1.358544e-01.
	FillingsUpdate:  mu: -0.129410524  nElectrons: 9.000000
	SubspaceRotationAdjust: set factor to 1.03
ElecMinimize: Iter:   2  F: -20.015050502235557  |grad|_K:  4.133e-05  alpha:  1.359e-01  linmin: -5.537e-03  t[s]:     11.62
ElecMinimize: 	Predicted alpha/alphaT>3.000000, increasing alphaT to 4.075631e-01.
ElecMinimize: 	Step increased F by 1.901123e-02, reducing alpha to 7.565883e-02.
	FillingsUpdate:  mu: -0.133961830  nElectrons: 9.000000
	SubspaceRotationAdjust: set factor to 1.08
ElecMinimize: Iter:   3  F: -20.018030155439735  |grad|_K:  3.712e-05  alpha:  7.566e-02  linmin: -5.821e-03  t[s]:     14.86
ElecMinimize: 	Predicted alpha/alphaT>3.000000, increasing alphaT to 2.269765e-01.
ElecMinimize: 	Step increased F by 3.782800e-02, reducing alpha to 5.737532e-02.
	FillingsUpdate:  mu: -0.138951517  nElectrons: 9.000000
	SubspaceRotationAdjust: set factor to 1.15
ElecMinimize: Iter:   4  F: -20.020626713447040  |grad|_K:  3.342e-05  alpha:  5.738e-02  linmin: -5.961e-03  t[s]:     18.09
ElecMinimize: 	Predicted alpha/alphaT>3.000000, increasing alphaT to 1.721260e-01.
ElecMinimize: 	Predicted alpha/alphaT>3.000000, increasing alphaT to 5.163779e-01.
	FillingsUpdate:  mu: -0.145426107  nElectrons: 9.000000
	SubspaceRotationAdjust: set factor to 1.26
ElecMinimize: Iter:   5  F: -20.023965483265499  |grad|_K:  2.934e-05  alpha:  7.068e-02  linmin: -6.150e-03  t[s]:     20.74
ElecMinimize: 	Predicted alpha/alphaT>3.000000, increasing alphaT to 2.120377e-01.
ElecMinimize: 	Step increased F by 1.740481e-01, reducing alpha to 5.816600e-02.
	FillingsUpdate:  mu: -0.147850051  nElectrons: 9.000000
	SubspaceRotationAdjust: set factor to 1.4
ElecMinimize: Iter:   6  F: -20.026317712359770  |grad|_K:  2.692e-05  alpha:  5.817e-02  linmin: -6.004e-03  t[s]:     23.98
ElecMinimize: 	Wrong curvature in test step, increasing alphaT to 1.744980e-01.
	FillingsUpdate:  mu: -0.148984876  nElectrons: 9.000000
	SubspaceRotationAdjust: set factor to 1.58
ElecMinimize: Iter:   7  F: -20.028814725093628  |grad|_K:  2.550e-05  alpha: -6.181e-01  linmin: -5.627e-03  t[s]:     25.49
	FillingsUpdate:  mu: -0.149109306  nElectrons: 9.000000
	SubspaceRotationAdjust: set factor to 1.76
ElecMinimize: Iter:   8  F: -20.029336026569347  |grad|_K:  2.539e-05  alpha:  1.199e-02  linmin: -5.704e-03  t[s]:     27.13
ElecMinimize: 	Wrong curvature in test step, increasing alphaT to 3.597053e-02.
	FillingsUpdate:  mu: -0.149648517  nElectrons: 9.000000
	SubspaceRotationAdjust: set factor to 1.98
ElecMinimize: Iter:   9  F: -20.029983022896062  |grad|_K:  2.526e-05  alpha: -4.871e-02  linmin: -5.728e-03  t[s]:     28.65
	FillingsUpdate:  mu: -0.149208151  nElectrons: 9.000000
	SubspaceRotationAdjust: set factor to 2.27
ElecMinimize: Iter:  10  F: -20.030916623793740  |grad|_K:  2.521e-05  alpha:  1.446e-02  linmin: -5.775e-03  t[s]:     30.30
ElecMinimize: 	Predicted alpha/alphaT>3.000000, increasing alphaT to 4.337423e-02.
ElecMinimize: 	Wrong curvature in test step, increasing alphaT to 1.301227e-01.
	FillingsUpdate:  mu: -0.143085751  nElectrons: 9.000000
	SubspaceRotationAdjust: set factor to 2.9
ElecMinimize: Iter:  11  F: -20.036299008951339  |grad|_K:  2.866e-05  alpha: -2.196e-02  linmin: -6.285e-03  t[s]:     32.31
	FillingsUpdate:  mu: -0.131758490  nElectrons: 9.000000
	SubspaceRotationAdjust: set factor to 3.62
ElecMinimize: Iter:  12  F: -20.038046268964376  |grad|_K:  3.353e-05  alpha:  1.994e-02  linmin: -5.976e-03  t[s]:     33.94
ElecMinimize: 	Step increased F by 3.279127e-03, reducing alpha to 1.326715e-04.
	FillingsUpdate:  mu: -0.131733339  nElectrons: 9.000000
	SubspaceRotationAdjust: set factor to 4.47
ElecMinimize: Iter:  13  F: -20.038070100682994  |grad|_K:  3.445e-05  alpha:  1.327e-04  linmin: -6.342e-03  t[s]:     36.67
ElecMinimize: 	Wrong curvature in test step, increasing alphaT to 3.980144e-04.
	FillingsUpdate:  mu: -0.131706076  nElectrons: 9.000000
	SubspaceRotationAdjust: set factor to 5.7
ElecMinimize: Iter:  14  F: -20.038097276439249  |grad|_K:  3.550e-05  alpha: -1.833e+00  linmin: -6.632e-03  t[s]:     38.18
ElecMinimize: 	Step increased F by 2.820556e-02, reducing alpha to 2.700264e-03.
ElecMinimize: 	Step increased F by 5.798461e-03, reducing alpha to 2.700264e-04.
ElecMinimize: 	Step increased F by 3.148180e-04, reducing alpha to 2.700264e-05.
ElecMinimize: 	Step failed to reduce F after 3 attempts. Quitting step.
ElecMinimize: 	Undoing step.
ElecMinimize: 	Step failed: resetting search direction.
	FillingsUpdate:  mu: -0.131077634  nElectrons: 9.000000
	SubspaceRotationAdjust: set factor to 2.98
ElecMinimize: Iter:  15  F: -20.037888306692789  |grad|_K:  1.438e-04  alpha:  2.700e-05
	FillingsUpdate:  mu: -0.154974615  nElectrons: 9.000000
	SubspaceRotationAdjust: set factor to 1.43
ElecMinimize: Iter:  16  F: -20.041741073365539  |grad|_K:  4.574e-05  alpha:  3.610e-01  linmin:  3.256e-03  t[s]:     44.72
	FillingsUpdate:  mu: -0.126402803  nElectrons: 9.000000
	SubspaceRotationAdjust: set factor to 0.591
ElecMinimize: Iter:  17  F: -20.042699071854393  |grad|_K:  1.482e-04  alpha:  8.425e-01  linmin:  3.039e-02  t[s]:     46.37
ElecMinimize: 	Bad step direction: g.d > 0.
ElecMinimize: 	Undoing step.
ElecMinimize: 	Step failed: resetting search direction.
	FillingsUpdate:  mu: -0.126402803  nElectrons: 9.000000
	SubspaceRotationAdjust: set factor to 0.312
ElecMinimize: Iter:  18  F: -20.042699071854390  |grad|_K:  9.687e-05  alpha:  0.000e+00
	FillingsUpdate:  mu: -0.127530625  nElectrons: 9.000000
	SubspaceRotationAdjust: set factor to 0.472
ElecMinimize: Iter:  19  F: -20.054864089594947  |grad|_K:  2.290e-05  alpha:  4.995e-01  linmin: -1.371e-02  t[s]:     49.15
ElecMinimize: 	Wrong curvature in test step, increasing alphaT to 1.498430e+00.
	FillingsUpdate:  mu: -0.133458059  nElectrons: 9.000000
	SubspaceRotationAdjust: set factor to 0.596
ElecMinimize: Iter:  20  F: -20.058902696257345  |grad|_K:  2.325e-05  alpha: -2.110e+00  linmin: -2.031e-02  t[s]:     50.65
ElecMinimize: 	Wrong curvature in test step, increasing alphaT to 3.000000e+00.
	FillingsUpdate:  mu: -0.128681182  nElectrons: 9.000000
	SubspaceRotationAdjust: set factor to 0.709
ElecMinimize: Iter:  21  F: -20.074339352062108  |grad|_K:  1.700e-05  alpha: -5.871e+00  linmin: -2.576e-02  t[s]:     52.17
ElecMinimize: 	Step increased F by 2.538695e-02, reducing alpha to 2.171894e-01.
	FillingsUpdate:  mu: -0.120098366  nElectrons: 9.000000
	SubspaceRotationAdjust: set factor to 0.391
ElecMinimize: Iter:  22  F: -20.077434266784557  |grad|_K:  3.976e-05  alpha:  2.172e-01  linmin: -1.571e-02  t[s]:     54.91
	FillingsUpdate:  mu: -0.096314220  nElectrons: 9.000000
	SubspaceRotationAdjust: set factor to 0.511
ElecMinimize: Iter:  23  F: -20.082307318164496  |grad|_K:  1.526e-05  alpha:  1.046e-01  linmin: -4.731e-03  t[s]:     56.56
	FillingsUpdate:  mu: -0.090306839  nElectrons: 9.000000
	SubspaceRotationAdjust: set factor to 0.547
ElecMinimize: Iter:  24  F: -20.082472984345255  |grad|_K:  1.564e-05  alpha:  8.765e-02  linmin: -1.093e-02  t[s]:     58.20
ElecMinimize: 	Predicted alpha/alphaT>3.000000, increasing alphaT to 2.629569e-01.
	FillingsUpdate:  mu: -0.084448898  nElectrons: 9.000000
	SubspaceRotationAdjust: set factor to 0.705
ElecMinimize: Iter:  25  F: -20.083884838089169  |grad|_K:  1.558e-05  alpha:  2.803e-01  linmin: -1.255e-02  t[s]:     60.36
ElecMinimize: 	Step increased F by 6.170912e-04, reducing alpha to 1.165101e-02.
ElecMinimize: 	Step increased F by 1.540157e-04, reducing alpha to 1.165101e-03.
	FillingsUpdate:  mu: -0.084469675  nElectrons: 9.000000
	SubspaceRotationAdjust: set factor to 0.868
ElecMinimize: Iter:  26  F: -20.083894214725440  |grad|_K:  1.638e-05  alpha:  1.165e-03  linmin: -9.664e-03  t[s]:     64.18
	FillingsUpdate:  mu: -0.084462378  nElectrons: 9.000000
	SubspaceRotationAdjust: set factor to 0.593
ElecMinimize: Iter:  27  F: -20.083899255595352  |grad|_K:  2.696e-05  alpha:  6.899e-04  linmin: -7.989e-04  t[s]:     65.82
	FillingsUpdate:  mu: -0.084450249  nElectrons: 9.000000
	SubspaceRotationAdjust: set factor to 0.4
ElecMinimize: Iter:  28  F: -20.083899967190352  |grad|_K:  2.737e-05  alpha:  8.632e-05  linmin: -2.515e-04  t[s]:     67.46
	FillingsUpdate:  mu: -0.084430144  nElectrons: 9.000000
	SubspaceRotationAdjust: set factor to 0.271
ElecMinimize: Iter:  29  F: -20.083900598884906  |grad|_K:  2.719e-05  alpha:  1.081e-04  linmin:  4.366e-05  t[s]:     69.11
	FillingsUpdate:  mu: -0.084407863  nElectrons: 9.000000
	SubspaceRotationAdjust: set factor to 0.191
ElecMinimize: Iter:  30  F: -20.083901063526628  |grad|_K:  2.582e-05  alpha:  1.043e-04  linmin:  5.765e-06  t[s]:     70.75
	FillingsUpdate:  mu: -0.084372882  nElectrons: 9.000000
	SubspaceRotationAdjust: set factor to 0.139
ElecMinimize: Iter:  31  F: -20.083901767012602  |grad|_K:  2.484e-05  alpha:  1.662e-04  linmin: -1.819e-06  t[s]:     72.41
	FillingsUpdate:  mu: -0.084316385  nElectrons: 9.000000
	SubspaceRotationAdjust: set factor to 0.105
	SubspaceRotationAdjust: resetting CG because factor has changed by 0.105162
ElecMinimize: 	State modified externally: resetting search direction.
ElecMinimize: Iter:  32  F: -20.083902847579687  |grad|_K:  2.194e-05  alpha:  2.651e-04
ElecMinimize: 	Predicted alpha/alphaT>3.000000, increasing alphaT to 7.954343e-04.
ElecMinimize: 	Predicted alpha/alphaT>3.000000, increasing alphaT to 2.386303e-03.
ElecMinimize: 	Predicted alpha/alphaT>3.000000, increasing alphaT to 7.158909e-03.
	FillingsUpdate:  mu: -0.084646928  nElectrons: 9.000000
	SubspaceRotationAdjust: set factor to 0.111
ElecMinimize: Iter:  33  F: -20.083993024708381  |grad|_K:  1.397e-05  alpha:  2.494e-02  linmin: -1.305e-01  t[s]:     77.66
ElecMinimize: 	Predicted alpha/alphaT>3.000000, increasing alphaT to 7.482571e-02.
ElecMinimize: 	Predicted alpha/alphaT>3.000000, increasing alphaT to 2.244771e-01.
ElecMinimize: 	Predicted alpha/alphaT>3.000000, increasing alphaT to 6.734314e-01.
	FillingsUpdate:  mu: -0.105919071  nElectrons: 9.000000
	SubspaceRotationAdjust: set factor to 0.114
ElecMinimize: Iter:  34  F: -20.088505447405879  |grad|_K:  1.081e-05  alpha:  2.027e+00  linmin:  4.768e-03  t[s]:     80.30
	FillingsUpdate:  mu: -0.118728703  nElectrons: 9.000000
	SubspaceRotationAdjust: set factor to 0.116
ElecMinimize: Iter:  35  F: -20.089921986970939  |grad|_K:  1.387e-05  alpha:  1.735e+00  linmin:  2.827e-02  t[s]:     81.94
	FillingsUpdate:  mu: -0.117428316  nElectrons: 9.000000
	SubspaceRotationAdjust: set factor to 0.12
ElecMinimize: Iter:  36  F: -20.091575453879695  |grad|_K:  1.169e-05  alpha:  9.367e-01  linmin:  3.339e-02  t[s]:     83.60
	FillingsUpdate:  mu: -0.123957647  nElectrons: 9.000000
	SubspaceRotationAdjust: set factor to 0.124
ElecMinimize: Iter:  37  F: -20.092073323832221  |grad|_K:  1.103e-05  alpha:  9.120e-01  linmin:  2.682e-02  t[s]:     85.25
	FillingsUpdate:  mu: -0.122116489  nElectrons: 9.000000
	SubspaceRotationAdjust: set factor to 0.159
ElecMinimize: Iter:  38  F: -20.092587513223513  |grad|_K:  9.082e-06  alpha:  5.152e-01  linmin: -7.512e-03  t[s]:     86.90
	FillingsUpdate:  mu: -0.121545492  nElectrons: 9.000000
	SubspaceRotationAdjust: set factor to 0.179
ElecMinimize: Iter:  39  F: -20.092892567842018  |grad|_K:  8.550e-06  alpha:  4.624e-01  linmin: -7.006e-03  t[s]:     88.53
ElecMinimize: 	Wrong curvature in test step, increasing alphaT to 1.387134e+00.
	FillingsUpdate:  mu: -0.120285318  nElectrons: 9.000000
	SubspaceRotationAdjust: set factor to 0.196
ElecMinimize: Iter:  40  F: -20.093664995184181  |grad|_K:  8.875e-06  alpha: -4.594e-01  linmin: -1.517e-02  t[s]:     90.05
	FillingsUpdate:  mu: -0.106839761  nElectrons: 9.000000
	SubspaceRotationAdjust: set factor to 0.111
ElecMinimize: Iter:  41  F: -20.094319811399615  |grad|_K:  2.146e-05  alpha:  5.621e-01  linmin:  1.395e-02  t[s]:     91.70
ElecMinimize: 	Bad step direction: g.d > 0.
ElecMinimize: 	Undoing step.
ElecMinimize: 	Step failed: resetting search direction.
	FillingsUpdate:  mu: -0.106839761  nElectrons: 9.000000
	SubspaceRotationAdjust: set factor to 0.0687
ElecMinimize: Iter:  42  F: -20.094319811399615  |grad|_K:  1.687e-05  alpha:  0.000e+00
	FillingsUpdate:  mu: -0.106987660  nElectrons: 9.000000
	SubspaceRotationAdjust: set factor to 0.0748
ElecMinimize: Iter:  43  F: -20.094626250302721  |grad|_K:  6.316e-06  alpha:  3.557e-01  linmin: -1.368e-01  t[s]:     94.50
ElecMinimize: 	Wrong curvature in test step, increasing alphaT to 1.066982e+00.
	FillingsUpdate:  mu: -0.107284705  nElectrons: 9.000000
	SubspaceRotationAdjust: set factor to 0.0949
ElecMinimize: Iter:  44  F: -20.094839577950886  |grad|_K:  6.309e-06  alpha: -3.323e+01  linmin: -2.645e-02  t[s]:     96.02
	FillingsUpdate:  mu: -0.110057910  nElectrons: 9.000000
	SubspaceRotationAdjust: set factor to 0.0982
ElecMinimize: Iter:  45  F: -20.095786023288973  |grad|_K:  7.452e-06  alpha:  1.780e+00  linmin:  6.225e-03  t[s]:     97.65
	FillingsUpdate:  mu: -0.108542685  nElectrons: 9.000000
	SubspaceRotationAdjust: set factor to 0.0994
ElecMinimize: Iter:  46  F: -20.096173297297778  |grad|_K:  5.636e-06  alpha:  9.687e-01  linmin:  2.574e-02  t[s]:     99.30
ElecMinimize: 	Predicted alpha/alphaT>3.000000, increasing alphaT to 2.906076e+00.
	FillingsUpdate:  mu: -0.109142109  nElectrons: 9.000000
	SubspaceRotationAdjust: set factor to 0.108
ElecMinimize: Iter:  47  F: -20.096455300914762  |grad|_K:  4.630e-06  alpha:  5.379e-01  linmin: -2.078e-03  t[s]:    101.45
	FillingsUpdate:  mu: -0.108007450  nElectrons: 9.000000
	SubspaceRotationAdjust: set factor to 0.109
ElecMinimize: Iter:  48  F: -20.096531504547180  |grad|_K:  3.894e-06  alpha:  5.314e-01  linmin: -2.158e-03  t[s]:    103.11
	FillingsUpdate:  mu: -0.104752351  nElectrons: 9.000000
	SubspaceRotationAdjust: set factor to 0.112
ElecMinimize: Iter:  49  F: -20.096776900204656  |grad|_K:  3.606e-06  alpha:  9.956e-01  linmin:  2.351e-02  t[s]:    104.77
	FillingsUpdate:  mu: -0.104855398  nElectrons: 9.000000
	SubspaceRotationAdjust: set factor to 0.112
ElecMinimize: Iter:  50  F: -20.096801940182633  |grad|_K:  3.371e-06  alpha:  4.492e-01  linmin:  4.081e-03  t[s]:    106.41
	FillingsUpdate:  mu: -0.101453109  nElectrons: 9.000000
	SubspaceRotationAdjust: set factor to 0.113
ElecMinimize: Iter:  51  F: -20.096835128892646  |grad|_K:  3.328e-06  alpha:  7.819e-01  linmin:  1.261e-02  t[s]:    108.06
	FillingsUpdate:  mu: -0.101370075  nElectrons: 9.000000
	SubspaceRotationAdjust: set factor to 0.125
ElecMinimize: Iter:  52  F: -20.096835735508574  |grad|_K:  3.507e-06  alpha:  4.652e-01  linmin: -2.889e-03  t[s]:    109.72
	FillingsUpdate:  mu: -0.101115094  nElectrons: 9.000000
	SubspaceRotationAdjust: set factor to 0.13
ElecMinimize: Iter:  53  F: -20.096874550717175  |grad|_K:  3.333e-06  alpha:  7.838e-01  linmin:  1.263e-02  t[s]:    111.37
	FillingsUpdate:  mu: -0.101467474  nElectrons: 9.000000
	SubspaceRotationAdjust: set factor to 0.165
ElecMinimize: Iter:  54  F: -20.096876274933528  |grad|_K:  3.654e-06  alpha:  5.592e-02  linmin:  1.091e-03  t[s]:    113.01
	FillingsUpdate:  mu: -0.102519282  nElectrons: 9.000000
	SubspaceRotationAdjust: set factor to 0.162
ElecMinimize: Iter:  55  F: -20.096878695022305  |grad|_K:  4.314e-06  alpha:  3.003e-02  linmin:  7.436e-06  t[s]:    114.65
	FillingsUpdate:  mu: -0.104197399  nElectrons: 9.000000
	SubspaceRotationAdjust: set factor to 0.122
ElecMinimize: Iter:  56  F: -20.096884741573771  |grad|_K:  4.656e-06  alpha:  4.431e-02  linmin: -8.419e-04  t[s]:    116.28
ElecMinimize: 	Predicted alpha/alphaT>3.000000, increasing alphaT to 1.329274e-01.
	FillingsUpdate:  mu: -0.104374063  nElectrons: 9.000000
	SubspaceRotationAdjust: set factor to 0.0999
ElecMinimize: Iter:  57  F: -20.096891508065710  |grad|_K:  4.024e-06  alpha:  1.892e-02  linmin: -3.043e-03  t[s]:    118.44
ElecMinimize: 	Predicted alpha/alphaT>3.000000, increasing alphaT to 5.676237e-02.
ElecMinimize: 	Predicted alpha/alphaT>3.000000, increasing alphaT to 1.702871e-01.
	FillingsUpdate:  mu: -0.104428425  nElectrons: 9.000000
	SubspaceRotationAdjust: set factor to 0.081
ElecMinimize: Iter:  58  F: -20.096903885439502  |grad|_K:  3.632e-06  alpha:  2.918e-02  linmin: -4.802e-03  t[s]:    121.08
ElecMinimize: 	Predicted alpha/alphaT>3.000000, increasing alphaT to 8.752986e-02.
	FillingsUpdate:  mu: -0.104471572  nElectrons: 9.000000
	SubspaceRotationAdjust: set factor to 0.0938
ElecMinimize: Iter:  59  F: -20.096937603951680  |grad|_K:  1.759e-06  alpha:  1.296e-01  linmin: -2.018e-02  t[s]:    123.23
ElecMinimize: 	Predicted alpha/alphaT>3.000000, increasing alphaT to 3.888384e-01.
	FillingsUpdate:  mu: -0.104477724  nElectrons: 9.000000
	SubspaceRotationAdjust: set factor to 0.105
ElecMinimize: Iter:  60  F: -20.096938956205538  |grad|_K:  1.748e-06  alpha:  2.310e-02  linmin: -6.083e-02  t[s]:    125.36
ElecMinimize: 	Predicted alpha/alphaT>3.000000, increasing alphaT to 6.930457e-02.
ElecMinimize: 	Predicted alpha/alphaT>3.000000, increasing alphaT to 2.079137e-01.
ElecMinimize: 	Predicted alpha/alphaT>3.000000, increasing alphaT to 6.237412e-01.
ElecMinimize: 	Step increased F by 1.388398e-04, reducing alpha to 6.630864e-02.
	FillingsUpdate:  mu: -0.104489931  nElectrons: 9.000000
	SubspaceRotationAdjust: set factor to 0.123
ElecMinimize: Iter:  61  F: -20.096944885797917  |grad|_K:  1.656e-06  alpha:  6.631e-02  linmin: -9.440e-02  t[s]:    129.09
ElecMinimize: 	Predicted alpha/alphaT>3.000000, increasing alphaT to 1.989259e-01.
ElecMinimize: 	Wrong curvature in test step, increasing alphaT to 5.967778e-01.
	FillingsUpdate:  mu: -0.102971291  nElectrons: 9.000000
	SubspaceRotationAdjust: set factor to 0.0866
ElecMinimize: Iter:  62  F: -20.096969979811306  |grad|_K:  2.293e-06  alpha: -7.001e-01  linmin: -2.298e-02  t[s]:    131.11
	FillingsUpdate:  mu: -0.103988178  nElectrons: 9.000000
	SubspaceRotationAdjust: set factor to 0.0939
ElecMinimize: Iter:  63  F: -20.096981315698848  |grad|_K:  2.185e-06  alpha:  2.953e-01  linmin:  4.271e-02  t[s]:    132.75
ElecMinimize: 	Bad step direction: g.d > 0.
ElecMinimize: 	Undoing step.
ElecMinimize: 	Step failed: resetting search direction.
	FillingsUpdate:  mu: -0.103988178  nElectrons: 9.000000
	SubspaceRotationAdjust: set factor to 0.0987
ElecMinimize: Iter:  64  F: -20.096981315698841  |grad|_K:  2.190e-06  alpha:  0.000e+00
	FillingsUpdate:  mu: -0.103879814  nElectrons: 9.000000
	SubspaceRotationAdjust: set factor to 0.111
ElecMinimize: Iter:  65  F: -20.097005458446557  |grad|_K:  1.409e-06  alpha:  7.858e-01  linmin:  3.426e-04  t[s]:    135.54
	FillingsUpdate:  mu: -0.103749550  nElectrons: 9.000000
	SubspaceRotationAdjust: set factor to 0.138
ElecMinimize: Iter:  66  F: -20.097016087077527  |grad|_K:  9.668e-07  alpha:  8.361e-01  linmin:  2.061e-04  t[s]:    137.19
	FillingsUpdate:  mu: -0.105018472  nElectrons: 9.000000
	SubspaceRotationAdjust: set factor to 0.145
ElecMinimize: Iter:  67  F: -20.097022863757612  |grad|_K:  1.652e-06  alpha:  1.545e+00  linmin:  1.991e-02  t[s]:    138.84
	FillingsUpdate:  mu: -0.106181869  nElectrons: 9.000000
	SubspaceRotationAdjust: set factor to 0.148
ElecMinimize: Iter:  68  F: -20.097026744310732  |grad|_K:  1.500e-06  alpha:  4.553e-01  linmin:  2.426e-03  t[s]:    140.48
	FillingsUpdate:  mu: -0.106151780  nElectrons: 9.000000
	SubspaceRotationAdjust: set factor to 0.152
ElecMinimize: Iter:  69  F: -20.097030745798079  |grad|_K:  8.794e-07  alpha:  3.314e-01  linmin:  2.957e-03  t[s]:    142.13
ElecMinimize: 	Wrong curvature in test step, increasing alphaT to 9.943036e-01.
	FillingsUpdate:  mu: -0.105826814  nElectrons: 9.000000
	SubspaceRotationAdjust: set factor to 0.175
ElecMinimize: Iter:  70  F: -20.097034119258009  |grad|_K:  7.855e-07  alpha: -1.186e+00  linmin: -8.068e-03  t[s]:    143.63
	FillingsUpdate:  mu: -0.105525600  nElectrons: 9.000000
	SubspaceRotationAdjust: set factor to 0.175
ElecMinimize: Iter:  71  F: -20.097036740369770  |grad|_K:  5.643e-07  alpha:  5.031e-01  linmin:  3.373e-04  t[s]:    145.29
	FillingsUpdate:  mu: -0.105532573  nElectrons: 9.000000
	SubspaceRotationAdjust: set factor to 0.175
ElecMinimize: Iter:  72  F: -20.097037912525366  |grad|_K:  4.653e-07  alpha:  5.841e-01  linmin: -1.986e-06  t[s]:    146.93
	FillingsUpdate:  mu: -0.105571246  nElectrons: 9.000000
	SubspaceRotationAdjust: set factor to 0.176
ElecMinimize: Iter:  73  F: -20.097038554816557  |grad|_K:  3.240e-07  alpha:  4.625e-01  linmin:  1.420e-07  t[s]:    148.59
	FillingsUpdate:  mu: -0.105576806  nElectrons: 9.000000
	SubspaceRotationAdjust: set factor to 0.179
ElecMinimize: Iter:  74  F: -20.097038928907480  |grad|_K:  2.709e-07  alpha:  5.557e-01  linmin:  2.576e-07  t[s]:    150.23
	FillingsUpdate:  mu: -0.105547701  nElectrons: 9.000000
	SubspaceRotationAdjust: set factor to 0.183
ElecMinimize: Iter:  75  F: -20.097039179866282  |grad|_K:  2.227e-07  alpha:  5.332e-01  linmin:  1.052e-07  t[s]:    151.87
	FillingsUpdate:  mu: -0.105503444  nElectrons: 9.000000
	SubspaceRotationAdjust: set factor to 0.189
ElecMinimize: Iter:  76  F: -20.097039368098244  |grad|_K:  1.848e-07  alpha:  5.920e-01  linmin:  4.688e-06  t[s]:    153.53
	FillingsUpdate:  mu: -0.105484405  nElectrons: 9.000000
	SubspaceRotationAdjust: set factor to 0.197
ElecMinimize: Iter:  77  F: -20.097039472368703  |grad|_K:  1.408e-07  alpha:  4.762e-01  linmin:  1.179e-06  t[s]:    155.17
	FillingsUpdate:  mu: -0.105494392  nElectrons: 9.000000
	SubspaceRotationAdjust: set factor to 0.204
ElecMinimize: Iter:  78  F: -20.097039556890326  |grad|_K:  1.351e-07  alpha:  6.647e-01  linmin:  5.690e-07  t[s]:    156.81
	FillingsUpdate:  mu: -0.105509342  nElectrons: 9.000000
	SubspaceRotationAdjust: set factor to 0.211
ElecMinimize: Iter:  79  F: -20.097039611755243  |grad|_K:  8.788e-08  alpha:  4.689e-01  linmin:  1.325e-08  t[s]:    158.46
	FillingsUpdate:  mu: -0.105509475  nElectrons: 9.000000
	SubspaceRotationAdjust: set factor to 0.218
ElecMinimize: Iter:  80  F: -20.097039636105826  |grad|_K:  6.678e-08  alpha:  4.917e-01  linmin:  1.336e-07  t[s]:    160.11
	FillingsUpdate:  mu: -0.105498917  nElectrons: 9.000000
	SubspaceRotationAdjust: set factor to 0.224
ElecMinimize: Iter:  81  F: -20.097039650147209  |grad|_K:  4.932e-08  alpha:  4.910e-01  linmin:  4.423e-07  t[s]:    161.75
	FillingsUpdate:  mu: -0.105484164  nElectrons: 9.000000
	SubspaceRotationAdjust: set factor to 0.227
ElecMinimize: Iter:  82  F: -20.097039659261021  |grad|_K:  4.516e-08  alpha:  5.842e-01  linmin: -3.895e-09  t[s]:    163.39
	FillingsUpdate:  mu: -0.105473977  nElectrons: 9.000000
	SubspaceRotationAdjust: set factor to 0.229
ElecMinimize: Iter:  83  F: -20.097039666644015  |grad|_K:  3.780e-08  alpha:  5.642e-01  linmin: -1.106e-07  t[s]:    165.04
	FillingsUpdate:  mu: -0.105476386  nElectrons: 9.000000
	SubspaceRotationAdjust: set factor to 0.23
ElecMinimize: Iter:  84  F: -20.097039672002762  |grad|_K:  3.347e-08  alpha:  5.847e-01  linmin: -6.639e-07  t[s]:    166.69
	FillingsUpdate:  mu: -0.105487222  nElectrons: 9.000000
	SubspaceRotationAdjust: set factor to 0.233
ElecMinimize: Iter:  85  F: -20.097039675755553  |grad|_K:  2.572e-08  alpha:  5.218e-01  linmin: -1.920e-07  t[s]:    168.34
ElecMinimize: Converged (|Delta F|<1.000000e-08 for 4 iters).
Setting wave functions to eigenvectors of Hamiltonian

# Ionic positions in lattice coordinates:
ion Cs   0.000000000000000   0.000000000000000   0.000000000000000 0

# Forces in Lattice coordinates:
force Cs  -0.000000000000000   0.000000000000000   0.000000000000000 0

# Energy components:
   Eewald =      -29.5869280333322351
       EH =      -13.7359064663608308
     Eloc =       17.5759351462382440
      Enl =        3.4557629029924168
   Epulay =        0.0000000059325047
      Exc =       -3.3138284569531775
       KE =        5.5079252966882217
-------------------------------------
     Etot =      -20.0970396047948547
       TS =        0.0000000709606978
-------------------------------------
        F =      -20.0970396757555534

IonicMinimize: Iter:   0  F: -20.097039675755553  |grad|_K:  0.000e+00  t[s]:    168.52
IonicMinimize: Converged (|grad|_K<1.000000e-04).

#--- Lowdin population analysis ---
# oxidation-state Cs +0.768

End date and time: Sun Jan 16 16:35:29 2022  (Duration: 0-0:02:48.57)
Done!
