2.48
--------------------------------------------------------------------------
The library attempted to open the following supporting CUDA libraries,
but each of them failed.  CUDA-aware support is disabled.
libcuda.so.1: cannot open shared object file: No such file or directory
libcuda.dylib: cannot open shared object file: No such file or directory
/usr/lib64/libcuda.so.1: cannot open shared object file: No such file or directory
/usr/lib64/libcuda.dylib: cannot open shared object file: No such file or directory
If you are not interested in CUDA-aware support, then run with
--mca opal_warn_on_missing_libcuda 0 to suppress this message.  If you are interested
in CUDA-aware support, then try setting LD_LIBRARY_PATH to the location
of libcuda.so.1 to get passed this issue.
--------------------------------------------------------------------------
--------------------------------------------------------------------------
No OpenFabrics connection schemes reported that they were able to be
used on a specific port.  As such, the openib BTL (OpenFabrics
support) will be disabled for this port.

  Local host:           d-3-11-2
  Local device:         mlx5_1
  Local port:           1
  CPCs attempted:       rdmacm, udcm
--------------------------------------------------------------------------

*************** JDFTx 1.6.0 (git hash 42ebbcc2) ***************

Start date and time: Sun Jan 16 16:39:45 2022
Executable jdftx with command-line: -i Cesium.in
Running on hosts (process indices):  d-3-11-2 (0-18)
Divided in process groups (process indices):  0 (0)  1 (1)  2 (2)  3 (3)  4 (4)  5 (5)  6 (6)  7 (7)  8 (8)  9 (9)  10 (10)  11 (11)  12 (12)  13 (13)  14 (14)  15 (15)  16 (16)  17 (17)  18 (18)
Resource initialization completed at t[s]:      0.00
Run totals: 19 processes, 48 threads, 0 GPUs


Input parsed successfully to the following command list (including defaults):

basis kpoint-dependent
coords-type Lattice
core-overlap-check vector
coulomb-interaction Slab 001
davidson-band-ratio 1.1
dump End None
dump-name $INPUT.$VAR
elec-cutoff 20
elec-eigen-algo Davidson
elec-ex-corr gga-PBE
elec-smearing Fermi 1e-05
electronic-minimize  \
	dirUpdateScheme      FletcherReeves \
	linminMethod         DirUpdateRecommended \
	nIterations          10000 \
	history              15 \
	knormThreshold       0 \
	energyDiffThreshold  1e-08 \
	nEnergyDiff          4 \
	alphaTstart          1 \
	alphaTmin            1e-10 \
	updateTestStepSize   yes \
	alphaTreduceFactor   0.1 \
	alphaTincreaseFactor 3 \
	nAlphaAdjustMax      3 \
	wolfeEnergy          0.0001 \
	wolfeGradient        0.9 \
	fdTest               no
exchange-regularization WignerSeitzTruncated
fluid None
fluid-ex-corr (null) lda-PZ
fluid-gummel-loop 10 1.000000e-05
fluid-minimize  \
	dirUpdateScheme      PolakRibiere \
	linminMethod         DirUpdateRecommended \
	nIterations          100 \
	history              15 \
	knormThreshold       0 \
	energyDiffThreshold  0 \
	nEnergyDiff          2 \
	alphaTstart          1 \
	alphaTmin            1e-10 \
	updateTestStepSize   yes \
	alphaTreduceFactor   0.1 \
	alphaTincreaseFactor 3 \
	nAlphaAdjustMax      3 \
	wolfeEnergy          0.0001 \
	wolfeGradient        0.9 \
	fdTest               no
fluid-solvent H2O 55.338 ScalarEOS \
	epsBulk 78.4 \
	pMol 0.92466 \
	epsInf 1.77 \
	Pvap 1.06736e-10 \
	sigmaBulk 4.62e-05 \
	Rvdw 2.61727 \
	Res 1.42 \
	tauNuc 343133 \
	poleEl 15 7 1
forces-output-coords Positions
ion Cs   0.000000000000000   0.000000000000000   0.000000000000000 0
ion-species SG15/$ID_ONCV_PBE.upf
ion-width 0
ionic-minimize  \
	dirUpdateScheme      L-BFGS \
	linminMethod         DirUpdateRecommended \
	nIterations          0 \
	history              15 \
	knormThreshold       0.0001 \
	energyDiffThreshold  1e-06 \
	nEnergyDiff          2 \
	alphaTstart          1 \
	alphaTmin            1e-10 \
	updateTestStepSize   yes \
	alphaTreduceFactor   0.1 \
	alphaTincreaseFactor 3 \
	nAlphaAdjustMax      3 \
	wolfeEnergy          0.0001 \
	wolfeGradient        0.9 \
	fdTest               no
kpoint   0.000000000000   0.000000000000   0.000000000000  1.00000000000000
kpoint-folding 48 48 1 
latt-move-scale 1 1 1
latt-scale 2.48 2.48 1 
lattice  \
	   4.727486978767153   -2.363743489383575    0.000000000000000  \
	  -0.000000000000000    4.094123819672498    0.000000000000000  \
	   0.000000000000000    0.000000000000000   40.000000000000000 
lattice-minimize  \
	dirUpdateScheme      L-BFGS \
	linminMethod         DirUpdateRecommended \
	nIterations          0 \
	history              15 \
	knormThreshold       0 \
	energyDiffThreshold  1e-06 \
	nEnergyDiff          2 \
	alphaTstart          1 \
	alphaTmin            1e-10 \
	updateTestStepSize   yes \
	alphaTreduceFactor   0.1 \
	alphaTincreaseFactor 3 \
	nAlphaAdjustMax      3 \
	wolfeEnergy          0.0001 \
	wolfeGradient        0.9 \
	fdTest               no
lcao-params -1 1e-06 1e-05
pcm-variant GLSSA13
spintype no-spin
subspace-rotation-factor 1 yes
symmetries automatic
symmetry-threshold 0.0001



---------- Setting up symmetries ----------

Found 24 point-group symmetries of the bravais lattice
Found 24 space-group symmetries with basis
Applied RMS atom displacement 0 bohrs to make symmetries exact.

---------- Initializing the Grid ----------
R = 
[      11.7242     -5.86208            0  ]
[            0      10.1534            0  ]
[            0            0           40  ]
unit cell volume = 4761.62
G =
[   0.535917   0.309412         -0  ]
[          0   0.618824         -0  ]
[         -0         -0    0.15708  ]
Minimum fftbox size, Smin = [  48  48  164  ]
Chosen fftbox size, S = [  48  48  168  ]

---------- Exchange Correlation functional ----------
Initalized PBE GGA exchange.
Initalized PBE GGA correlation.

---------- Setting up pseudopotentials ----------
Width of ionic core gaussian charges (only for fluid interactions / plotting) set to 0

Reading pseudopotential file '/home/gridsan/aligho/DFT/build-Nov24/pseudopotentials/SG15/Cs_ONCV_PBE.upf':
  'Cs' pseudopotential, 'PBE' functional
  Generated using ONCVPSP code by D. R. Hamann
  Author: Martin Schlipf and Francois Gygi  Date: 150915.
  9 valence electrons, 3 orbitals, 6 projectors, 2414 radial grid points, with lMax = 2
  Transforming local potential to a uniform radial grid of dG=0.02 with 1451 points.
  Transforming nonlocal projectors to a uniform radial grid of dG=0.02 with 432 points.
    5S    l: 0   occupation:  2.0   eigenvalue: -0.982388
    5P    l: 1   occupation:  6.0   eigenvalue: -0.496786
    6S    l: 0   occupation:  1.0   eigenvalue: -0.076670
  Transforming atomic orbitals to a uniform radial grid of dG=0.02 with 432 points.
  Core radius for overlap checks: 2.06 bohrs.
  Reading pulay file /home/gridsan/aligho/DFT/build-Nov24/pseudopotentials/SG15/Cs_ONCV_PBE.pulay ... using dE_dnG = -1.008762e-04 computed for Ecut = 20.

Initialized 1 species with 1 total atoms.

Folded 1 k-points by 48x48x1 to 2304 k-points.

---------- Setting up k-points, bands, fillings ----------
Reduced to 217 k-points under symmetry. 
Computing the number of bands and number of electrons
Calculating initial fillings.
nElectrons:   9.000000   nBands: 6   nStates: 217

----- Setting up reduced wavefunction bases (one per k-point) -----
average nbasis = 20342.340 , ideal nbasis = 20342.000

---------- Setting up coulomb interaction ----------
Initialized slab truncation along lattice direction 001

---------- Setting up 2D ewald sum ----------
Optimum gaussian width for ewald sums = 6.508785 bohr.
Real space sums over 289 unit cells with max indices [  8  8  0  ]
Reciprocal space sums over 81 terms with max indices [  4  4  0  ]

---------- Allocating electronic variables ----------
Initializing wave functions:  linear combination of atomic orbitals
Note: number of bands (6) exceeds available atomic orbitals (5)
Cs pseudo-atom occupations:   s ( 2 1 )  p ( 6 )
[d-3-11-2:85506] 18 more processes have sent help message help-mpi-common-cuda.txt / dlopen failed
[d-3-11-2:85506] Set MCA parameter "orte_base_help_aggregate" to 0 to see all help / error messages
[d-3-11-2:85506] 18 more processes have sent help message help-mpi-btl-openib-cpc-base.txt / no cpcs for port
	FillingsUpdate:  mu: -0.083261259  nElectrons: 9.000000
LCAOMinimize: Iter:   0  F: -20.1826285079481345  |grad|_K:  6.117e-06  alpha:  1.000e+00
	FillingsUpdate:  mu: -0.083256872  nElectrons: 9.000000
LCAOMinimize: Iter:   1  F: -20.1826286518665761  |grad|_K:  4.199e-08  alpha:  9.847e-01  linmin: -2.391e-02  cgtest:  3.302e-01  t[s]:     12.20
LCAOMinimize: Encountered beta<0, resetting CG.
	FillingsUpdate:  mu: -0.083256874  nElectrons: 9.000000
LCAOMinimize: Iter:   2  F: -20.1826286518736886  |grad|_K:  5.686e-10  alpha:  1.014e+00  linmin:  1.425e-01  cgtest: -9.904e-01  t[s]:     16.66
LCAOMinimize: Converged (|Delta F|<1.000000e-06 for 2 iters).


---- Citations for features of the code used in this run ----

   Software package:
      R. Sundararaman, K. Letchworth-Weaver, K.A. Schwarz, D. Gunceler, Y. Ozhabes and T.A. Arias, 'JDFTx: software for joint density-functional theory', SoftwareX 6, 278 (2017)

   gga-PBE exchange-correlation functional:
      J.P. Perdew, K. Burke and M. Ernzerhof, Phys. Rev. Lett. 77, 3865 (1996)

   Pseudopotentials:
      M Schlipf and F Gygi, Comput. Phys. Commun. 196, 36 (2015)

   Truncated Coulomb potentials:
      R. Sundararaman and T.A. Arias, Phys. Rev. B 87, 165122 (2013)

   Total energy minimization with Auxiliary Hamiltonian:
      C. Freysoldt, S. Boeck, and J. Neugebauer, Phys. Rev. B 79, 241103(R) (2009)

This list may not be complete. Please suggest additional citations or
report any other bugs at https://github.com/shankar1729/jdftx/issues

Initialization completed successfully at t[s]:     17.21


-------- Electronic minimization -----------
	FillingsUpdate:  mu: -0.083256874  nElectrons: 9.000000
ElecMinimize: Iter:   0  F: -20.182628651873689  |grad|_K:  4.118e-06  alpha:  1.000e+00
ElecMinimize: 	Predicted alpha/alphaT>3.000000, increasing alphaT to 3.000000e+00.
	FillingsUpdate:  mu: -0.083390536  nElectrons: 9.000000
	SubspaceRotationAdjust: set factor to 1
ElecMinimize: Iter:   1  F: -20.184014537838483  |grad|_K:  5.665e-06  alpha:  3.086e+00  linmin:  1.061e-04  t[s]:     29.14
	FillingsUpdate:  mu: -0.083397840  nElectrons: 9.000000
	SubspaceRotationAdjust: set factor to 1.03
ElecMinimize: Iter:   2  F: -20.184046046968998  |grad|_K:  5.598e-06  alpha:  1.873e-02  linmin: -1.235e-03  t[s]:     35.32
ElecMinimize: 	Predicted alpha/alphaT>3.000000, increasing alphaT to 5.618901e-02.
ElecMinimize: 	Predicted alpha/alphaT>3.000000, increasing alphaT to 1.685670e-01.
ElecMinimize: 	Predicted alpha/alphaT>3.000000, increasing alphaT to 5.057011e-01.
	FillingsUpdate:  mu: -0.083071081  nElectrons: 9.000000
	SubspaceRotationAdjust: set factor to 0.634
ElecMinimize: Iter:   3  F: -20.185356171144473  |grad|_K:  4.330e-06  alpha:  8.641e-01  linmin:  6.813e-04  t[s]:     45.25
	FillingsUpdate:  mu: -0.083069979  nElectrons: 9.000000
	SubspaceRotationAdjust: set factor to 0.808
ElecMinimize: Iter:   4  F: -20.185356383975936  |grad|_K:  4.065e-06  alpha:  1.039e-03  linmin: -2.305e-04  t[s]:     51.50
ElecMinimize: 	Predicted alpha/alphaT>3.000000, increasing alphaT to 3.116621e-03.
ElecMinimize: 	Predicted alpha/alphaT>3.000000, increasing alphaT to 9.349864e-03.
ElecMinimize: 	Predicted alpha/alphaT>3.000000, increasing alphaT to 2.804959e-02.
ElecMinimize: 	Step increased F by 4.761826e-04, reducing alpha to 7.333504e-02.
	FillingsUpdate:  mu: -0.083012369  nElectrons: 9.000000
	SubspaceRotationAdjust: set factor to 0.967
ElecMinimize: Iter:   5  F: -20.185429725492131  |grad|_K:  4.025e-06  alpha:  7.334e-02  linmin: -1.662e-03  t[s]:     65.58
ElecMinimize: 	Predicted alpha/alphaT>3.000000, increasing alphaT to 2.200051e-01.
	FillingsUpdate:  mu: -0.081728184  nElectrons: 9.000000
	SubspaceRotationAdjust: set factor to 1.02
ElecMinimize: Iter:   6  F: -20.185919316711992  |grad|_K:  3.748e-06  alpha:  6.081e-01  linmin:  9.410e-04  t[s]:     73.60
	FillingsUpdate:  mu: -0.081297231  nElectrons: 9.000000
	SubspaceRotationAdjust: set factor to 1.3
ElecMinimize: Iter:   7  F: -20.185962379519495  |grad|_K:  4.034e-06  alpha:  2.048e-01  linmin: -1.011e-05  t[s]:     79.79
	FillingsUpdate:  mu: -0.080870665  nElectrons: 9.000000
	SubspaceRotationAdjust: set factor to 1.63
ElecMinimize: Iter:   8  F: -20.186091241282149  |grad|_K:  3.585e-06  alpha:  2.857e-01  linmin: -5.429e-04  t[s]:     85.97
	FillingsUpdate:  mu: -0.080506541  nElectrons: 9.000000
	SubspaceRotationAdjust: set factor to 1.79
ElecMinimize: Iter:   9  F: -20.186223716039564  |grad|_K:  2.590e-06  alpha:  3.394e-01  linmin: -4.878e-04  t[s]:     92.22
	FillingsUpdate:  mu: -0.080207944  nElectrons: 9.000000
	SubspaceRotationAdjust: set factor to 1.84
ElecMinimize: Iter:  10  F: -20.186314569121595  |grad|_K:  1.761e-06  alpha:  4.393e-01  linmin: -2.172e-04  t[s]:     98.40
	FillingsUpdate:  mu: -0.079875577  nElectrons: 9.000000
	SubspaceRotationAdjust: set factor to 2.25
ElecMinimize: Iter:  11  F: -20.186362785028262  |grad|_K:  1.408e-06  alpha:  5.491e-01  linmin:  2.725e-05  t[s]:    104.55
	FillingsUpdate:  mu: -0.079324823  nElectrons: 9.000000
	SubspaceRotationAdjust: set factor to 2.11
ElecMinimize: Iter:  12  F: -20.186391095604467  |grad|_K:  1.370e-06  alpha:  5.407e-01  linmin:  1.577e-04  t[s]:    110.74
	FillingsUpdate:  mu: -0.079124848  nElectrons: 9.000000
	SubspaceRotationAdjust: set factor to 2.52
ElecMinimize: Iter:  13  F: -20.186401277605444  |grad|_K:  1.395e-06  alpha:  1.809e-01  linmin: -2.292e-04  t[s]:    116.94
	FillingsUpdate:  mu: -0.078829406  nElectrons: 9.000000
	SubspaceRotationAdjust: set factor to 1.76
ElecMinimize: Iter:  14  F: -20.186419437163789  |grad|_K:  1.612e-06  alpha:  3.035e-01  linmin:  4.020e-04  t[s]:    123.10
	FillingsUpdate:  mu: -0.078768159  nElectrons: 9.000000
	SubspaceRotationAdjust: set factor to 1.28
ElecMinimize: Iter:  15  F: -20.186425361775790  |grad|_K:  1.432e-06  alpha:  1.095e-01  linmin: -1.463e-04  t[s]:    129.25
	FillingsUpdate:  mu: -0.078813707  nElectrons: 9.000000
	SubspaceRotationAdjust: set factor to 1.49
ElecMinimize: Iter:  16  F: -20.186434955013755  |grad|_K:  1.136e-06  alpha:  1.663e-01  linmin: -2.922e-04  t[s]:    135.51
	FillingsUpdate:  mu: -0.078939956  nElectrons: 9.000000
	SubspaceRotationAdjust: set factor to 1.84
ElecMinimize: Iter:  17  F: -20.186443605894461  |grad|_K:  1.020e-06  alpha:  2.303e-01  linmin: -2.769e-04  t[s]:    141.72
	FillingsUpdate:  mu: -0.079117177  nElectrons: 9.000000
	SubspaceRotationAdjust: set factor to 2.02
ElecMinimize: Iter:  18  F: -20.186454855853356  |grad|_K:  8.963e-07  alpha:  3.425e-01  linmin: -2.895e-04  t[s]:    147.91
	FillingsUpdate:  mu: -0.079156730  nElectrons: 9.000000
	SubspaceRotationAdjust: set factor to 2.04
ElecMinimize: Iter:  19  F: -20.186466541472036  |grad|_K:  6.885e-07  alpha:  4.634e-01  linmin: -1.092e-04  t[s]:    154.10
	FillingsUpdate:  mu: -0.079015041  nElectrons: 9.000000
	SubspaceRotationAdjust: set factor to 2.86
ElecMinimize: Iter:  20  F: -20.186472122968745  |grad|_K:  5.441e-07  alpha:  4.295e-01  linmin:  7.788e-05  t[s]:    160.27
	FillingsUpdate:  mu: -0.078880502  nElectrons: 9.000000
	SubspaceRotationAdjust: set factor to 2.85
ElecMinimize: Iter:  21  F: -20.186475074318412  |grad|_K:  5.526e-07  alpha:  3.803e-01  linmin:  6.959e-05  t[s]:    166.46
	FillingsUpdate:  mu: -0.078824855  nElectrons: 9.000000
	SubspaceRotationAdjust: set factor to 2.36
ElecMinimize: Iter:  22  F: -20.186477273083991  |grad|_K:  6.177e-07  alpha:  2.778e-01  linmin:  1.292e-05  t[s]:    172.63
	FillingsUpdate:  mu: -0.078859130  nElectrons: 9.000000
	SubspaceRotationAdjust: set factor to 1.62
ElecMinimize: Iter:  23  F: -20.186479828863973  |grad|_K:  5.801e-07  alpha:  2.553e-01  linmin:  1.620e-05  t[s]:    178.84
	FillingsUpdate:  mu: -0.078953910  nElectrons: 9.000000
	SubspaceRotationAdjust: set factor to 1.66
ElecMinimize: Iter:  24  F: -20.186481880992641  |grad|_K:  4.126e-07  alpha:  2.326e-01  linmin: -1.210e-04  t[s]:    185.01
	FillingsUpdate:  mu: -0.079040021  nElectrons: 9.000000
	SubspaceRotationAdjust: set factor to 2.14
ElecMinimize: Iter:  25  F: -20.186483422970671  |grad|_K:  3.369e-07  alpha:  3.247e-01  linmin: -1.588e-04  t[s]:    191.19
	FillingsUpdate:  mu: -0.079087009  nElectrons: 9.000000
	SubspaceRotationAdjust: set factor to 2.26
ElecMinimize: Iter:  26  F: -20.186484931998695  |grad|_K:  3.162e-07  alpha:  4.572e-01  linmin: -8.693e-05  t[s]:    197.38
	FillingsUpdate:  mu: -0.079067998  nElectrons: 9.000000
	SubspaceRotationAdjust: set factor to 1.92
ElecMinimize: Iter:  27  F: -20.186486280071705  |grad|_K:  3.035e-07  alpha:  4.864e-01  linmin:  5.664e-05  t[s]:    203.58
	FillingsUpdate:  mu: -0.079050937  nElectrons: 9.000000
	SubspaceRotationAdjust: set factor to 2.46
ElecMinimize: Iter:  28  F: -20.186487212595964  |grad|_K:  2.498e-07  alpha:  3.821e-01  linmin:  2.155e-05  t[s]:    209.75
	FillingsUpdate:  mu: -0.079071954  nElectrons: 9.000000
	SubspaceRotationAdjust: set factor to 2.77
ElecMinimize: Iter:  29  F: -20.186487825987911  |grad|_K:  2.401e-07  alpha:  3.754e-01  linmin:  3.859e-05  t[s]:    215.95
	FillingsUpdate:  mu: -0.079132598  nElectrons: 9.000000
	SubspaceRotationAdjust: set factor to 2.36
ElecMinimize: Iter:  30  F: -20.186488351486215  |grad|_K:  2.501e-07  alpha:  3.540e-01  linmin: -5.097e-06  t[s]:    222.14
	FillingsUpdate:  mu: -0.079203685  nElectrons: 9.000000
	SubspaceRotationAdjust: set factor to 2.09
ElecMinimize: Iter:  31  F: -20.186488899918384  |grad|_K:  2.169e-07  alpha:  3.312e-01  linmin: -5.969e-05  t[s]:    228.37
	FillingsUpdate:  mu: -0.079234012  nElectrons: 9.000000
	SubspaceRotationAdjust: set factor to 2.66
ElecMinimize: Iter:  32  F: -20.186489349105603  |grad|_K:  1.738e-07  alpha:  3.543e-01  linmin: -3.318e-05  t[s]:    234.62
	FillingsUpdate:  mu: -0.079228659  nElectrons: 9.000000
	SubspaceRotationAdjust: set factor to 2.89
ElecMinimize: Iter:  33  F: -20.186489669009980  |grad|_K:  1.582e-07  alpha:  3.944e-01  linmin:  2.802e-05  t[s]:    240.72
	FillingsUpdate:  mu: -0.079220329  nElectrons: 9.000000
	SubspaceRotationAdjust: set factor to 2.61
ElecMinimize: Iter:  34  F: -20.186489905213207  |grad|_K:  1.496e-07  alpha:  3.594e-01  linmin:  2.998e-05  t[s]:    246.86
	FillingsUpdate:  mu: -0.079237918  nElectrons: 9.000000
	SubspaceRotationAdjust: set factor to 2.63
ElecMinimize: Iter:  35  F: -20.186490087793004  |grad|_K:  1.305e-07  alpha:  3.114e-01  linmin:  1.503e-05  t[s]:    253.05
	FillingsUpdate:  mu: -0.079276505  nElectrons: 9.000000
	SubspaceRotationAdjust: set factor to 2.66
ElecMinimize: Iter:  36  F: -20.186490229416375  |grad|_K:  1.172e-07  alpha:  3.169e-01  linmin: -4.797e-06  t[s]:    259.28
	FillingsUpdate:  mu: -0.079314784  nElectrons: 9.000000
	SubspaceRotationAdjust: set factor to 2.51
ElecMinimize: Iter:  37  F: -20.186490347611930  |grad|_K:  1.051e-07  alpha:  3.241e-01  linmin: -3.710e-05  t[s]:    265.50
	FillingsUpdate:  mu: -0.079332755  nElectrons: 9.000000
	SubspaceRotationAdjust: set factor to 2.58
ElecMinimize: Iter:  38  F: -20.186490446514973  |grad|_K:  9.048e-08  alpha:  3.341e-01  linmin: -1.891e-05  t[s]:    271.70
	FillingsUpdate:  mu: -0.079330219  nElectrons: 9.000000
	SubspaceRotationAdjust: set factor to 2.78
ElecMinimize: Iter:  39  F: -20.186490523121506  |grad|_K:  8.033e-08  alpha:  3.502e-01  linmin:  9.057e-06  t[s]:    277.90
	FillingsUpdate:  mu: -0.079324228  nElectrons: 9.000000
	SubspaceRotationAdjust: set factor to 2.63
ElecMinimize: Iter:  40  F: -20.186490582190089  |grad|_K:  7.502e-08  alpha:  3.471e-01  linmin:  1.868e-05  t[s]:    284.12
	FillingsUpdate:  mu: -0.079329097  nElectrons: 9.000000
	SubspaceRotationAdjust: set factor to 2.51
ElecMinimize: Iter:  41  F: -20.186490629284645  |grad|_K:  6.698e-08  alpha:  3.187e-01  linmin:  1.149e-05  t[s]:    290.25
	FillingsUpdate:  mu: -0.079344103  nElectrons: 9.000000
	SubspaceRotationAdjust: set factor to 2.54
ElecMinimize: Iter:  42  F: -20.186490666664316  |grad|_K:  5.910e-08  alpha:  3.167e-01  linmin: -3.842e-07  t[s]:    296.36
	FillingsUpdate:  mu: -0.079359007  nElectrons: 9.000000
	SubspaceRotationAdjust: set factor to 2.5
ElecMinimize: Iter:  43  F: -20.186490697000128  |grad|_K:  5.297e-08  alpha:  3.277e-01  linmin: -1.567e-05  t[s]:    302.54
	FillingsUpdate:  mu: -0.079365122  nElectrons: 9.000000
	SubspaceRotationAdjust: set factor to 2.49
ElecMinimize: Iter:  44  F: -20.186490722100888  |grad|_K:  4.714e-08  alpha:  3.358e-01  linmin: -1.102e-05  t[s]:    308.72
	FillingsUpdate:  mu: -0.079361878  nElectrons: 9.000000
	SubspaceRotationAdjust: set factor to 2.59
ElecMinimize: Iter:  45  F: -20.186490742410715  |grad|_K:  4.219e-08  alpha:  3.431e-01  linmin:  2.358e-06  t[s]:    314.87
	FillingsUpdate:  mu: -0.079355805  nElectrons: 9.000000
	SubspaceRotationAdjust: set factor to 2.54
ElecMinimize: Iter:  46  F: -20.186490758719533  |grad|_K:  3.907e-08  alpha:  3.464e-01  linmin:  8.221e-06  t[s]:    321.02
	FillingsUpdate:  mu: -0.079353270  nElectrons: 9.000000
	SubspaceRotationAdjust: set factor to 2.41
ElecMinimize: Iter:  47  F: -20.186490772077139  |grad|_K:  3.545e-08  alpha:  3.318e-01  linmin:  6.546e-06  t[s]:    327.23
	FillingsUpdate:  mu: -0.079355358  nElectrons: 9.000000
	SubspaceRotationAdjust: set factor to 2.38
ElecMinimize: Iter:  48  F: -20.186490782836753  |grad|_K:  3.138e-08  alpha:  3.248e-01  linmin:  1.860e-06  t[s]:    333.37
	FillingsUpdate:  mu: -0.079358288  nElectrons: 9.000000
	SubspaceRotationAdjust: set factor to 2.42
ElecMinimize: Iter:  49  F: -20.186490791549872  |grad|_K:  2.816e-08  alpha:  3.343e-01  linmin: -4.516e-06  t[s]:    339.58
	FillingsUpdate:  mu: -0.079357975  nElectrons: 9.000000
	SubspaceRotationAdjust: set factor to 2.43
ElecMinimize: Iter:  50  F: -20.186490798797383  |grad|_K:  2.577e-08  alpha:  3.442e-01  linmin: -5.047e-06  t[s]:    345.76
	FillingsUpdate:  mu: -0.079353286  nElectrons: 9.000000
	SubspaceRotationAdjust: set factor to 2.44
ElecMinimize: Iter:  51  F: -20.186490804935502  |grad|_K:  2.357e-08  alpha:  3.480e-01  linmin: -7.432e-07  t[s]:    351.93
	FillingsUpdate:  mu: -0.079346746  nElectrons: 9.000000
	SubspaceRotationAdjust: set factor to 2.4
ElecMinimize: Iter:  52  F: -20.186490810024008  |grad|_K:  2.148e-08  alpha:  3.454e-01  linmin:  3.106e-06  t[s]:    358.17
ElecMinimize: Converged (|Delta F|<1.000000e-08 for 4 iters).
Setting wave functions to eigenvectors of Hamiltonian

# Ionic positions in lattice coordinates:
ion Cs   0.000000000000000   0.000000000000000   0.000000000000000 0

# Forces in Lattice coordinates:
force Cs   0.000000000000000   0.000000000000000   0.000000000000000 0

# Energy components:
   Eewald =      -14.5548597583327908
       EH =        1.5768127232082807
     Eloc =      -12.6311704804908995
      Enl =        3.4333131851461576
   Epulay =        0.0000000071912067
      Exc =       -3.1208003441499543
       KE =        5.1102139281532892
-------------------------------------
     Etot =      -20.1864907392747099
       TS =        0.0000000707492985
-------------------------------------
        F =      -20.1864908100240079

IonicMinimize: Iter:   0  F: -20.186490810024008  |grad|_K:  0.000e+00  t[s]:    358.94
IonicMinimize: Converged (|grad|_K<1.000000e-04).

#--- Lowdin population analysis ---
# oxidation-state Cs +0.041

End date and time: Sun Jan 16 16:45:44 2022  (Duration: 0-0:05:59.10)
Done!
