2.69
--------------------------------------------------------------------------
The library attempted to open the following supporting CUDA libraries,
but each of them failed.  CUDA-aware support is disabled.
libcuda.so.1: cannot open shared object file: No such file or directory
libcuda.dylib: cannot open shared object file: No such file or directory
/usr/lib64/libcuda.so.1: cannot open shared object file: No such file or directory
/usr/lib64/libcuda.dylib: cannot open shared object file: No such file or directory
If you are not interested in CUDA-aware support, then run with
--mca opal_warn_on_missing_libcuda 0 to suppress this message.  If you are interested
in CUDA-aware support, then try setting LD_LIBRARY_PATH to the location
of libcuda.so.1 to get passed this issue.
--------------------------------------------------------------------------
--------------------------------------------------------------------------
No OpenFabrics connection schemes reported that they were able to be
used on a specific port.  As such, the openib BTL (OpenFabrics
support) will be disabled for this port.

  Local host:           d-16-7-2
  Local device:         mlx5_1
  Local port:           1
  CPCs attempted:       rdmacm, udcm
--------------------------------------------------------------------------

*************** JDFTx 1.6.0 (git hash 42ebbcc2) ***************

Start date and time: Sun Jan 16 16:41:16 2022
Executable jdftx with command-line: -i Cesium.in
Running on hosts (process indices):  d-16-7-2 (0-18)
Divided in process groups (process indices):  0 (0)  1 (1)  2 (2)  3 (3)  4 (4)  5 (5)  6 (6)  7 (7)  8 (8)  9 (9)  10 (10)  11 (11)  12 (12)  13 (13)  14 (14)  15 (15)  16 (16)  17 (17)  18 (18)
Resource initialization completed at t[s]:      0.00
Run totals: 19 processes, 48 threads, 0 GPUs


Input parsed successfully to the following command list (including defaults):

basis kpoint-dependent
coords-type Lattice
core-overlap-check vector
coulomb-interaction Slab 001
davidson-band-ratio 1.1
dump End None
dump-name $INPUT.$VAR
elec-cutoff 20
elec-eigen-algo Davidson
elec-ex-corr gga-PBE
elec-smearing Fermi 1e-05
electronic-minimize  \
	dirUpdateScheme      FletcherReeves \
	linminMethod         DirUpdateRecommended \
	nIterations          10000 \
	history              15 \
	knormThreshold       0 \
	energyDiffThreshold  1e-08 \
	nEnergyDiff          4 \
	alphaTstart          1 \
	alphaTmin            1e-10 \
	updateTestStepSize   yes \
	alphaTreduceFactor   0.1 \
	alphaTincreaseFactor 3 \
	nAlphaAdjustMax      3 \
	wolfeEnergy          0.0001 \
	wolfeGradient        0.9 \
	fdTest               no
exchange-regularization WignerSeitzTruncated
fluid None
fluid-ex-corr (null) lda-PZ
fluid-gummel-loop 10 1.000000e-05
fluid-minimize  \
	dirUpdateScheme      PolakRibiere \
	linminMethod         DirUpdateRecommended \
	nIterations          100 \
	history              15 \
	knormThreshold       0 \
	energyDiffThreshold  0 \
	nEnergyDiff          2 \
	alphaTstart          1 \
	alphaTmin            1e-10 \
	updateTestStepSize   yes \
	alphaTreduceFactor   0.1 \
	alphaTincreaseFactor 3 \
	nAlphaAdjustMax      3 \
	wolfeEnergy          0.0001 \
	wolfeGradient        0.9 \
	fdTest               no
fluid-solvent H2O 55.338 ScalarEOS \
	epsBulk 78.4 \
	pMol 0.92466 \
	epsInf 1.77 \
	Pvap 1.06736e-10 \
	sigmaBulk 4.62e-05 \
	Rvdw 2.61727 \
	Res 1.42 \
	tauNuc 343133 \
	poleEl 15 7 1
forces-output-coords Positions
ion Cs   0.000000000000000   0.000000000000000   0.000000000000000 0
ion-species SG15/$ID_ONCV_PBE.upf
ion-width 0
ionic-minimize  \
	dirUpdateScheme      L-BFGS \
	linminMethod         DirUpdateRecommended \
	nIterations          0 \
	history              15 \
	knormThreshold       0.0001 \
	energyDiffThreshold  1e-06 \
	nEnergyDiff          2 \
	alphaTstart          1 \
	alphaTmin            1e-10 \
	updateTestStepSize   yes \
	alphaTreduceFactor   0.1 \
	alphaTincreaseFactor 3 \
	nAlphaAdjustMax      3 \
	wolfeEnergy          0.0001 \
	wolfeGradient        0.9 \
	fdTest               no
kpoint   0.000000000000   0.000000000000   0.000000000000  1.00000000000000
kpoint-folding 48 48 1 
latt-move-scale 1 1 1
latt-scale 2.69 2.69 1 
lattice  \
	   4.727486978767153   -2.363743489383575    0.000000000000000  \
	  -0.000000000000000    4.094123819672498    0.000000000000000  \
	   0.000000000000000    0.000000000000000   40.000000000000000 
lattice-minimize  \
	dirUpdateScheme      L-BFGS \
	linminMethod         DirUpdateRecommended \
	nIterations          0 \
	history              15 \
	knormThreshold       0 \
	energyDiffThreshold  1e-06 \
	nEnergyDiff          2 \
	alphaTstart          1 \
	alphaTmin            1e-10 \
	updateTestStepSize   yes \
	alphaTreduceFactor   0.1 \
	alphaTincreaseFactor 3 \
	nAlphaAdjustMax      3 \
	wolfeEnergy          0.0001 \
	wolfeGradient        0.9 \
	fdTest               no
lcao-params -1 1e-06 1e-05
pcm-variant GLSSA13
spintype no-spin
subspace-rotation-factor 1 yes
symmetries automatic
symmetry-threshold 0.0001



---------- Setting up symmetries ----------

Found 24 point-group symmetries of the bravais lattice
Found 24 space-group symmetries with basis
Applied RMS atom displacement 0 bohrs to make symmetries exact.

---------- Initializing the Grid ----------
R = 
[      12.7169     -6.35847            0  ]
[            0      11.0132            0  ]
[            0            0           40  ]
unit cell volume = 5602.16
G =
[    0.49408   0.285257         -0  ]
[          0   0.570514         -0  ]
[         -0         -0    0.15708  ]
Minimum fftbox size, Smin = [  52  52  164  ]
Chosen fftbox size, S = [  54  54  168  ]

---------- Exchange Correlation functional ----------
Initalized PBE GGA exchange.
Initalized PBE GGA correlation.

---------- Setting up pseudopotentials ----------
Width of ionic core gaussian charges (only for fluid interactions / plotting) set to 0

Reading pseudopotential file '/home/gridsan/aligho/DFT/build-Nov24/pseudopotentials/SG15/Cs_ONCV_PBE.upf':
  'Cs' pseudopotential, 'PBE' functional
  Generated using ONCVPSP code by D. R. Hamann
  Author: Martin Schlipf and Francois Gygi  Date: 150915.
  9 valence electrons, 3 orbitals, 6 projectors, 2414 radial grid points, with lMax = 2
  Transforming local potential to a uniform radial grid of dG=0.02 with 1494 points.
  Transforming nonlocal projectors to a uniform radial grid of dG=0.02 with 432 points.
    5S    l: 0   occupation:  2.0   eigenvalue: -0.982388
    5P    l: 1   occupation:  6.0   eigenvalue: -0.496786
    6S    l: 0   occupation:  1.0   eigenvalue: -0.076670
  Transforming atomic orbitals to a uniform radial grid of dG=0.02 with 432 points.
  Core radius for overlap checks: 2.06 bohrs.
  Reading pulay file /home/gridsan/aligho/DFT/build-Nov24/pseudopotentials/SG15/Cs_ONCV_PBE.pulay ... using dE_dnG = -1.008762e-04 computed for Ecut = 20.

Initialized 1 species with 1 total atoms.

Folded 1 k-points by 48x48x1 to 2304 k-points.

---------- Setting up k-points, bands, fillings ----------
Reduced to 217 k-points under symmetry. 
Computing the number of bands and number of electrons
Calculating initial fillings.
nElectrons:   9.000000   nBands: 6   nStates: 217

----- Setting up reduced wavefunction bases (one per k-point) -----
average nbasis = 23933.548 , ideal nbasis = 23932.874

---------- Setting up coulomb interaction ----------
Initialized slab truncation along lattice direction 001

---------- Setting up 2D ewald sum ----------
Optimum gaussian width for ewald sums = 7.059932 bohr.
Real space sums over 289 unit cells with max indices [  8  8  0  ]
Reciprocal space sums over 81 terms with max indices [  4  4  0  ]

---------- Allocating electronic variables ----------
Initializing wave functions:  linear combination of atomic orbitals
Note: number of bands (6) exceeds available atomic orbitals (5)
Cs pseudo-atom occupations:   s ( 2 1 )  p ( 6 )
[d-16-7-2:60138] 18 more processes have sent help message help-mpi-common-cuda.txt / dlopen failed
[d-16-7-2:60138] Set MCA parameter "orte_base_help_aggregate" to 0 to see all help / error messages
[d-16-7-2:60138] 18 more processes have sent help message help-mpi-btl-openib-cpc-base.txt / no cpcs for port
	FillingsUpdate:  mu: -0.080831695  nElectrons: 9.000000
LCAOMinimize: Iter:   0  F: -20.1797338512525819  |grad|_K:  6.986e-06  alpha:  1.000e+00
	FillingsUpdate:  mu: -0.080827494  nElectrons: 9.000000
LCAOMinimize: Iter:   1  F: -20.1797340391821720  |grad|_K:  4.685e-08  alpha:  9.858e-01  linmin: -2.550e-02  cgtest:  4.004e-01  t[s]:     15.66
LCAOMinimize: Encountered beta<0, resetting CG.
	FillingsUpdate:  mu: -0.080827497  nElectrons: 9.000000
LCAOMinimize: Iter:   2  F: -20.1797340391906275  |grad|_K:  1.544e-09  alpha:  9.677e-01  linmin: -1.015e-01  cgtest:  9.996e-01  t[s]:     21.44
LCAOMinimize: Encountered beta<0, resetting CG.
LCAOMinimize: Converged (|Delta F|<1.000000e-06 for 2 iters).


---- Citations for features of the code used in this run ----

   Software package:
      R. Sundararaman, K. Letchworth-Weaver, K.A. Schwarz, D. Gunceler, Y. Ozhabes and T.A. Arias, 'JDFTx: software for joint density-functional theory', SoftwareX 6, 278 (2017)

   gga-PBE exchange-correlation functional:
      J.P. Perdew, K. Burke and M. Ernzerhof, Phys. Rev. Lett. 77, 3865 (1996)

   Pseudopotentials:
      M Schlipf and F Gygi, Comput. Phys. Commun. 196, 36 (2015)

   Truncated Coulomb potentials:
      R. Sundararaman and T.A. Arias, Phys. Rev. B 87, 165122 (2013)

   Total energy minimization with Auxiliary Hamiltonian:
      C. Freysoldt, S. Boeck, and J. Neugebauer, Phys. Rev. B 79, 241103(R) (2009)

This list may not be complete. Please suggest additional citations or
report any other bugs at https://github.com/shankar1729/jdftx/issues

Initialization completed successfully at t[s]:     22.09


-------- Electronic minimization -----------
	FillingsUpdate:  mu: -0.080827497  nElectrons: 9.000000
ElecMinimize: Iter:   0  F: -20.179734039190610  |grad|_K:  3.205e-06  alpha:  1.000e+00
ElecMinimize: 	Predicted alpha/alphaT>3.000000, increasing alphaT to 3.000000e+00.
	FillingsUpdate:  mu: -0.080914781  nElectrons: 9.000000
	SubspaceRotationAdjust: set factor to 1
ElecMinimize: Iter:   1  F: -20.180993367226776  |grad|_K:  4.944e-06  alpha:  3.937e+00  linmin:  1.252e-04  t[s]:     37.09
	FillingsUpdate:  mu: -0.080927774  nElectrons: 9.000000
	SubspaceRotationAdjust: set factor to 1.02
ElecMinimize: Iter:   2  F: -20.181030291256807  |grad|_K:  4.864e-06  alpha:  2.459e-02  linmin: -1.085e-03  t[s]:     44.89
ElecMinimize: 	Predicted alpha/alphaT>3.000000, increasing alphaT to 7.376132e-02.
ElecMinimize: 	Predicted alpha/alphaT>3.000000, increasing alphaT to 2.212839e-01.
ElecMinimize: 	Predicted alpha/alphaT>3.000000, increasing alphaT to 6.638518e-01.
	FillingsUpdate:  mu: -0.081184781  nElectrons: 9.000000
	SubspaceRotationAdjust: set factor to 0.744
ElecMinimize: Iter:   3  F: -20.182160757677977  |grad|_K:  3.220e-06  alpha:  8.080e-01  linmin:  3.269e-04  t[s]:     57.44
	FillingsUpdate:  mu: -0.081174396  nElectrons: 9.000000
	SubspaceRotationAdjust: set factor to 0.855
ElecMinimize: Iter:   4  F: -20.182185756094615  |grad|_K:  3.156e-06  alpha:  6.815e-02  linmin: -5.559e-04  t[s]:     65.22
ElecMinimize: 	Predicted alpha/alphaT>3.000000, increasing alphaT to 2.044517e-01.
ElecMinimize: 	Predicted alpha/alphaT>3.000000, increasing alphaT to 6.133552e-01.
	FillingsUpdate:  mu: -0.080721894  nElectrons: 9.000000
	SubspaceRotationAdjust: set factor to 0.644
ElecMinimize: Iter:   5  F: -20.182498130411993  |grad|_K:  3.823e-06  alpha:  7.770e-01  linmin:  1.584e-03  t[s]:     77.86
	FillingsUpdate:  mu: -0.080721826  nElectrons: 9.000000
	SubspaceRotationAdjust: set factor to 0.527
ElecMinimize: Iter:   6  F: -20.182498130739003  |grad|_K:  3.460e-06  alpha:  3.885e-05  linmin: -2.139e-05  t[s]:     85.67
ElecMinimize: 	Predicted alpha/alphaT>3.000000, increasing alphaT to 1.165616e-04.
ElecMinimize: 	Predicted alpha/alphaT>3.000000, increasing alphaT to 3.496847e-04.
ElecMinimize: 	Predicted alpha/alphaT>3.000000, increasing alphaT to 1.049054e-03.
	FillingsUpdate:  mu: -0.080280433  nElectrons: 9.000000
	SubspaceRotationAdjust: set factor to 0.449
ElecMinimize: Iter:   7  F: -20.182598303854729  |grad|_K:  3.508e-06  alpha:  3.088e-01  linmin:  1.008e-03  t[s]:     98.49
	FillingsUpdate:  mu: -0.080000485  nElectrons: 9.000000
	SubspaceRotationAdjust: set factor to 0.423
ElecMinimize: Iter:   8  F: -20.182649820220750  |grad|_K:  3.440e-06  alpha:  1.770e-01  linmin: -4.035e-05  t[s]:    106.33
	FillingsUpdate:  mu: -0.079602533  nElectrons: 9.000000
	SubspaceRotationAdjust: set factor to 0.512
ElecMinimize: Iter:   9  F: -20.182744993783121  |grad|_K:  3.144e-06  alpha:  2.485e-01  linmin: -5.214e-04  t[s]:    114.10
	FillingsUpdate:  mu: -0.079213468  nElectrons: 9.000000
	SubspaceRotationAdjust: set factor to 0.683
ElecMinimize: Iter:  10  F: -20.182848101718704  |grad|_K:  2.639e-06  alpha:  3.005e-01  linmin: -6.347e-04  t[s]:    121.91
	FillingsUpdate:  mu: -0.078988403  nElectrons: 9.000000
	SubspaceRotationAdjust: set factor to 0.87
ElecMinimize: Iter:  11  F: -20.182935209682380  |grad|_K:  1.821e-06  alpha:  3.464e-01  linmin: -5.912e-04  t[s]:    129.68
	FillingsUpdate:  mu: -0.078929444  nElectrons: 9.000000
	SubspaceRotationAdjust: set factor to 1.05
ElecMinimize: Iter:  12  F: -20.182985134753338  |grad|_K:  1.235e-06  alpha:  4.148e-01  linmin: -6.225e-04  t[s]:    137.46
	FillingsUpdate:  mu: -0.078915331  nElectrons: 9.000000
	SubspaceRotationAdjust: set factor to 1.14
ElecMinimize: Iter:  13  F: -20.183020494221179  |grad|_K:  1.064e-06  alpha:  6.456e-01  linmin: -2.632e-04  t[s]:    145.22
	FillingsUpdate:  mu: -0.078837544  nElectrons: 9.000000
	SubspaceRotationAdjust: set factor to 1.16
ElecMinimize: Iter:  14  F: -20.183047940729253  |grad|_K:  9.049e-07  alpha:  7.263e-01  linmin:  1.663e-04  t[s]:    153.06
	FillingsUpdate:  mu: -0.078732751  nElectrons: 9.000000
	SubspaceRotationAdjust: set factor to 1.4
ElecMinimize: Iter:  15  F: -20.183060569513238  |grad|_K:  8.958e-07  alpha:  5.053e-01  linmin: -4.242e-06  t[s]:    160.85
	FillingsUpdate:  mu: -0.078610263  nElectrons: 9.000000
	SubspaceRotationAdjust: set factor to 1.64
ElecMinimize: Iter:  16  F: -20.183072118633152  |grad|_K:  9.686e-07  alpha:  4.442e-01  linmin:  9.703e-05  t[s]:    168.72
	FillingsUpdate:  mu: -0.078571089  nElectrons: 9.000000
	SubspaceRotationAdjust: set factor to 1.69
ElecMinimize: Iter:  17  F: -20.183077824729356  |grad|_K:  9.943e-07  alpha:  1.701e-01  linmin: -2.662e-04  t[s]:    176.58
	FillingsUpdate:  mu: -0.078577027  nElectrons: 9.000000
	SubspaceRotationAdjust: set factor to 1.31
ElecMinimize: Iter:  18  F: -20.183085477585927  |grad|_K:  9.920e-07  alpha:  2.093e-01  linmin:  7.623e-05  t[s]:    184.40
	FillingsUpdate:  mu: -0.078635147  nElectrons: 9.000000
	SubspaceRotationAdjust: set factor to 0.963
ElecMinimize: Iter:  19  F: -20.183091042192817  |grad|_K:  8.763e-07  alpha:  1.882e-01  linmin: -9.970e-05  t[s]:    192.18
	FillingsUpdate:  mu: -0.078724877  nElectrons: 9.000000
	SubspaceRotationAdjust: set factor to 0.984
ElecMinimize: Iter:  20  F: -20.183096739227185  |grad|_K:  6.909e-07  alpha:  2.281e-01  linmin: -1.833e-04  t[s]:    199.95
	FillingsUpdate:  mu: -0.078826292  nElectrons: 9.000000
	SubspaceRotationAdjust: set factor to 1.36
ElecMinimize: Iter:  21  F: -20.183102426233031  |grad|_K:  5.965e-07  alpha:  3.396e-01  linmin: -2.486e-04  t[s]:    207.83
	FillingsUpdate:  mu: -0.078918604  nElectrons: 9.000000
	SubspaceRotationAdjust: set factor to 1.66
ElecMinimize: Iter:  22  F: -20.183108752342189  |grad|_K:  4.917e-07  alpha:  4.871e-01  linmin: -2.666e-04  t[s]:    215.59
	FillingsUpdate:  mu: -0.078933380  nElectrons: 9.000000
	SubspaceRotationAdjust: set factor to 2
ElecMinimize: Iter:  23  F: -20.183112926960913  |grad|_K:  4.245e-07  alpha:  5.073e-01  linmin:  9.828e-05  t[s]:    223.41
	FillingsUpdate:  mu: -0.078895589  nElectrons: 9.000000
	SubspaceRotationAdjust: set factor to 2.04
ElecMinimize: Iter:  24  F: -20.183115293521180  |grad|_K:  4.310e-07  alpha:  4.252e-01  linmin:  4.189e-05  t[s]:    231.28
	FillingsUpdate:  mu: -0.078855167  nElectrons: 9.000000
	SubspaceRotationAdjust: set factor to 1.97
ElecMinimize: Iter:  25  F: -20.183116936275223  |grad|_K:  4.185e-07  alpha:  2.697e-01  linmin: -2.267e-05  t[s]:    239.11
	FillingsUpdate:  mu: -0.078841745  nElectrons: 9.000000
	SubspaceRotationAdjust: set factor to 1.68
ElecMinimize: Iter:  26  F: -20.183118176940557  |grad|_K:  4.070e-07  alpha:  2.174e-01  linmin:  3.995e-05  t[s]:    246.95
	FillingsUpdate:  mu: -0.078864309  nElectrons: 9.000000
	SubspaceRotationAdjust: set factor to 1.32
ElecMinimize: Iter:  27  F: -20.183119199536694  |grad|_K:  3.857e-07  alpha:  2.027e-01  linmin: -1.956e-05  t[s]:    254.77
	FillingsUpdate:  mu: -0.078920863  nElectrons: 9.000000
	SubspaceRotationAdjust: set factor to 1.17
ElecMinimize: Iter:  28  F: -20.183120298207527  |grad|_K:  3.347e-07  alpha:  2.340e-01  linmin: -7.761e-05  t[s]:    262.55
	FillingsUpdate:  mu: -0.078990119  nElectrons: 9.000000
	SubspaceRotationAdjust: set factor to 1.32
ElecMinimize: Iter:  29  F: -20.183121360315855  |grad|_K:  2.902e-07  alpha:  2.902e-01  linmin: -8.269e-05  t[s]:    270.39
	FillingsUpdate:  mu: -0.079054651  nElectrons: 9.000000
	SubspaceRotationAdjust: set factor to 1.61
ElecMinimize: Iter:  30  F: -20.183122405808714  |grad|_K:  2.648e-07  alpha:  3.721e-01  linmin: -1.130e-04  t[s]:    278.20
	FillingsUpdate:  mu: -0.079094424  nElectrons: 9.000000
	SubspaceRotationAdjust: set factor to 1.87
ElecMinimize: Iter:  31  F: -20.183123369090556  |grad|_K:  2.463e-07  alpha:  4.167e-01  linmin: -1.306e-05  t[s]:    285.97
	FillingsUpdate:  mu: -0.079098012  nElectrons: 9.000000
	SubspaceRotationAdjust: set factor to 1.9
ElecMinimize: Iter:  32  F: -20.183124071849665  |grad|_K:  2.371e-07  alpha:  3.668e-01  linmin:  2.721e-05  t[s]:    293.83
	FillingsUpdate:  mu: -0.079084929  nElectrons: 9.000000
	SubspaceRotationAdjust: set factor to 1.71
ElecMinimize: Iter:  33  F: -20.183124598280155  |grad|_K:  2.250e-07  alpha:  3.022e-01  linmin:  2.173e-05  t[s]:    301.66
	FillingsUpdate:  mu: -0.079078352  nElectrons: 9.000000
	SubspaceRotationAdjust: set factor to 1.56
ElecMinimize: Iter:  34  F: -20.183124994882174  |grad|_K:  2.031e-07  alpha:  2.532e-01  linmin:  3.074e-05  t[s]:    309.49
	FillingsUpdate:  mu: -0.079088723  nElectrons: 9.000000
	SubspaceRotationAdjust: set factor to 1.48
ElecMinimize: Iter:  35  F: -20.183125298571849  |grad|_K:  1.873e-07  alpha:  2.407e-01  linmin:  2.044e-05  t[s]:    317.28
	FillingsUpdate:  mu: -0.079116431  nElectrons: 9.000000
	SubspaceRotationAdjust: set factor to 1.41
ElecMinimize: Iter:  36  F: -20.183125579478794  |grad|_K:  1.763e-07  alpha:  2.587e-01  linmin: -2.800e-05  t[s]:    325.15
	FillingsUpdate:  mu: -0.079155775  nElectrons: 9.000000
	SubspaceRotationAdjust: set factor to 1.34
ElecMinimize: Iter:  37  F: -20.183125857220727  |grad|_K:  1.605e-07  alpha:  2.822e-01  linmin: -3.364e-05  t[s]:    332.89
	FillingsUpdate:  mu: -0.079192623  nElectrons: 9.000000
	SubspaceRotationAdjust: set factor to 1.25
ElecMinimize: Iter:  38  F: -20.183126105045414  |grad|_K:  1.393e-07  alpha:  3.014e-01  linmin: -4.737e-05  t[s]:    340.71
	FillingsUpdate:  mu: -0.079216302  nElectrons: 9.000000
	SubspaceRotationAdjust: set factor to 1.31
ElecMinimize: Iter:  39  F: -20.183126309895581  |grad|_K:  1.183e-07  alpha:  3.305e-01  linmin: -4.394e-05  t[s]:    348.55
	FillingsUpdate:  mu: -0.079224151  nElectrons: 9.000000
	SubspaceRotationAdjust: set factor to 1.65
ElecMinimize: Iter:  40  F: -20.183126469478932  |grad|_K:  1.062e-07  alpha:  3.613e-01  linmin:  1.330e-05  t[s]:    356.36
	FillingsUpdate:  mu: -0.079221052  nElectrons: 9.000000
	SubspaceRotationAdjust: set factor to 1.75
ElecMinimize: Iter:  41  F: -20.183126590770399  |grad|_K:  1.033e-07  alpha:  3.470e-01  linmin:  1.737e-05  t[s]:    364.19
	FillingsUpdate:  mu: -0.079214439  nElectrons: 9.000000
	SubspaceRotationAdjust: set factor to 1.51
ElecMinimize: Iter:  42  F: -20.183126688527310  |grad|_K:  9.859e-08  alpha:  2.967e-01  linmin:  1.439e-05  t[s]:    372.00
	FillingsUpdate:  mu: -0.079211428  nElectrons: 9.000000
	SubspaceRotationAdjust: set factor to 1.32
ElecMinimize: Iter:  43  F: -20.183126768809483  |grad|_K:  8.741e-08  alpha:  2.671e-01  linmin:  1.756e-05  t[s]:    379.80
	FillingsUpdate:  mu: -0.079214792  nElectrons: 9.000000
	SubspaceRotationAdjust: set factor to 1.35
ElecMinimize: Iter:  44  F: -20.183126834588876  |grad|_K:  7.910e-08  alpha:  2.791e-01  linmin:  7.223e-06  t[s]:    387.61
	FillingsUpdate:  mu: -0.079223562  nElectrons: 9.000000
	SubspaceRotationAdjust: set factor to 1.42
ElecMinimize: Iter:  45  F: -20.183126894255505  |grad|_K:  7.531e-08  alpha:  3.066e-01  linmin: -1.521e-05  t[s]:    395.39
	FillingsUpdate:  mu: -0.079234820  nElectrons: 9.000000
	SubspaceRotationAdjust: set factor to 1.33
ElecMinimize: Iter:  46  F: -20.183126950070701  |grad|_K:  7.110e-08  alpha:  3.134e-01  linmin: -1.897e-05  t[s]:    403.25
	FillingsUpdate:  mu: -0.079243882  nElectrons: 9.000000
	SubspaceRotationAdjust: set factor to 1.22
ElecMinimize: Iter:  47  F: -20.183126999983397  |grad|_K:  6.422e-08  alpha:  3.139e-01  linmin: -1.956e-05  t[s]:    411.11
	FillingsUpdate:  mu: -0.079247422  nElectrons: 9.000000
	SubspaceRotationAdjust: set factor to 1.29
ElecMinimize: Iter:  48  F: -20.183127043914340  |grad|_K:  5.777e-08  alpha:  3.384e-01  linmin: -1.379e-05  t[s]:    418.88
	FillingsUpdate:  mu: -0.079244928  nElectrons: 9.000000
	SubspaceRotationAdjust: set factor to 1.43
ElecMinimize: Iter:  49  F: -20.183127081307358  |grad|_K:  5.317e-08  alpha:  3.574e-01  linmin:  5.963e-06  t[s]:    426.70
	FillingsUpdate:  mu: -0.079238556  nElectrons: 9.000000
	SubspaceRotationAdjust: set factor to 1.39
ElecMinimize: Iter:  50  F: -20.183127110604797  |grad|_K:  4.917e-08  alpha:  3.332e-01  linmin:  9.005e-06  t[s]:    434.49
	FillingsUpdate:  mu: -0.079231125  nElectrons: 9.000000
	SubspaceRotationAdjust: set factor to 1.32
ElecMinimize: Iter:  51  F: -20.183127133900673  |grad|_K:  4.475e-08  alpha:  3.107e-01  linmin:  7.284e-06  t[s]:    442.25
	FillingsUpdate:  mu: -0.079224736  nElectrons: 9.000000
	SubspaceRotationAdjust: set factor to 1.35
ElecMinimize: Iter:  52  F: -20.183127153282864  |grad|_K:  4.131e-08  alpha:  3.125e-01  linmin:  8.356e-06  t[s]:    450.04
	FillingsUpdate:  mu: -0.079220358  nElectrons: 9.000000
	SubspaceRotationAdjust: set factor to 1.33
ElecMinimize: Iter:  53  F: -20.183127169892799  |grad|_K:  3.897e-08  alpha:  3.145e-01  linmin:  5.090e-06  t[s]:    457.86
	FillingsUpdate:  mu: -0.079217866  nElectrons: 9.000000
	SubspaceRotationAdjust: set factor to 1.22
ElecMinimize: Iter:  54  F: -20.183127184384201  |grad|_K:  3.599e-08  alpha:  3.071e-01  linmin: -4.782e-06  t[s]:    465.60
	FillingsUpdate:  mu: -0.079216235  nElectrons: 9.000000
	SubspaceRotationAdjust: set factor to 1.17
ElecMinimize: Iter:  55  F: -20.183127196955414  |grad|_K:  3.240e-08  alpha:  3.108e-01  linmin: -5.844e-06  t[s]:    473.35
	FillingsUpdate:  mu: -0.079214134  nElectrons: 9.000000
	SubspaceRotationAdjust: set factor to 1.24
ElecMinimize: Iter:  56  F: -20.183127207894859  |grad|_K:  2.964e-08  alpha:  3.331e-01  linmin: -7.194e-06  t[s]:    481.19
	FillingsUpdate:  mu: -0.079210741  nElectrons: 9.000000
	SubspaceRotationAdjust: set factor to 1.26
ElecMinimize: Iter:  57  F: -20.183127217348371  |grad|_K:  2.730e-08  alpha:  3.435e-01  linmin: -6.905e-06  t[s]:    489.04
	FillingsUpdate:  mu: -0.079206066  nElectrons: 9.000000
	SubspaceRotationAdjust: set factor to 1.24
ElecMinimize: Iter:  58  F: -20.183127225119467  |grad|_K:  2.477e-08  alpha:  3.335e-01  linmin:  1.000e-06  t[s]:    496.83
	FillingsUpdate:  mu: -0.079200659  nElectrons: 9.000000
	SubspaceRotationAdjust: set factor to 1.28
ElecMinimize: Iter:  59  F: -20.183127231478814  |grad|_K:  2.267e-08  alpha:  3.327e-01  linmin:  2.971e-06  t[s]:    504.59
	FillingsUpdate:  mu: -0.079195285  nElectrons: 9.000000
	SubspaceRotationAdjust: set factor to 1.3
ElecMinimize: Iter:  60  F: -20.183127236835332  |grad|_K:  2.106e-08  alpha:  3.353e-01  linmin:  3.097e-06  t[s]:    512.39
ElecMinimize: Converged (|Delta F|<1.000000e-08 for 4 iters).
Setting wave functions to eigenvectors of Hamiltonian

# Ionic positions in lattice coordinates:
ion Cs   0.000000000000000   0.000000000000000   0.000000000000000 0

# Forces in Lattice coordinates:
force Cs   0.000000000000000   0.000000000000000   0.000000000000000 0

# Energy components:
   Eewald =      -13.4186067660465902
       EH =        2.6715189474294072
     Eloc =      -14.8571344471827853
      Enl =        3.4319240274109664
   Epulay =        0.0000000121371962
      Exc =       -3.1144789522525880
       KE =        5.1036500124183597
-------------------------------------
     Etot =      -20.1831271660860345
       TS =        0.0000000707492985
-------------------------------------
        F =      -20.1831272368353325

IonicMinimize: Iter:   0  F: -20.183127236835332  |grad|_K:  0.000e+00  t[s]:    513.37
IonicMinimize: Converged (|grad|_K<1.000000e-04).

#--- Lowdin population analysis ---
# oxidation-state Cs +0.042

End date and time: Sun Jan 16 16:49:50 2022  (Duration: 0-0:08:33.56)
Done!
