0.53
--------------------------------------------------------------------------
The library attempted to open the following supporting CUDA libraries,
but each of them failed.  CUDA-aware support is disabled.
libcuda.so.1: cannot open shared object file: No such file or directory
libcuda.dylib: cannot open shared object file: No such file or directory
/usr/lib64/libcuda.so.1: cannot open shared object file: No such file or directory
/usr/lib64/libcuda.dylib: cannot open shared object file: No such file or directory
If you are not interested in CUDA-aware support, then run with
--mca opal_warn_on_missing_libcuda 0 to suppress this message.  If you are interested
in CUDA-aware support, then try setting LD_LIBRARY_PATH to the location
of libcuda.so.1 to get passed this issue.
--------------------------------------------------------------------------
--------------------------------------------------------------------------
No OpenFabrics connection schemes reported that they were able to be
used on a specific port.  As such, the openib BTL (OpenFabrics
support) will be disabled for this port.

  Local host:           d-3-3-1
  Local device:         mlx5_1
  Local port:           1
  CPCs attempted:       rdmacm, udcm
--------------------------------------------------------------------------

*************** JDFTx 1.6.0 (git hash 42ebbcc2) ***************

Start date and time: Sun Jan 16 16:30:41 2022
Executable jdftx with command-line: -i Cesium.in
Running on hosts (process indices):  d-3-3-1 (0-18)
Divided in process groups (process indices):  0 (0)  1 (1)  2 (2)  3 (3)  4 (4)  5 (5)  6 (6)  7 (7)  8 (8)  9 (9)  10 (10)  11 (11)  12 (12)  13 (13)  14 (14)  15 (15)  16 (16)  17 (17)  18 (18)
Resource initialization completed at t[s]:      0.00
Run totals: 19 processes, 48 threads, 0 GPUs


Input parsed successfully to the following command list (including defaults):

basis kpoint-dependent
coords-type Lattice
core-overlap-check vector
coulomb-interaction Slab 001
davidson-band-ratio 1.1
dump End None
dump-name $INPUT.$VAR
elec-cutoff 20
elec-eigen-algo Davidson
elec-ex-corr gga-PBE
elec-smearing Fermi 1e-05
electronic-minimize  \
	dirUpdateScheme      FletcherReeves \
	linminMethod         DirUpdateRecommended \
	nIterations          10000 \
	history              15 \
	knormThreshold       0 \
	energyDiffThreshold  1e-08 \
	nEnergyDiff          4 \
	alphaTstart          1 \
	alphaTmin            1e-10 \
	updateTestStepSize   yes \
	alphaTreduceFactor   0.1 \
	alphaTincreaseFactor 3 \
	nAlphaAdjustMax      3 \
	wolfeEnergy          0.0001 \
	wolfeGradient        0.9 \
	fdTest               no
exchange-regularization WignerSeitzTruncated
fluid None
fluid-ex-corr (null) lda-PZ
fluid-gummel-loop 10 1.000000e-05
fluid-minimize  \
	dirUpdateScheme      PolakRibiere \
	linminMethod         DirUpdateRecommended \
	nIterations          100 \
	history              15 \
	knormThreshold       0 \
	energyDiffThreshold  0 \
	nEnergyDiff          2 \
	alphaTstart          1 \
	alphaTmin            1e-10 \
	updateTestStepSize   yes \
	alphaTreduceFactor   0.1 \
	alphaTincreaseFactor 3 \
	nAlphaAdjustMax      3 \
	wolfeEnergy          0.0001 \
	wolfeGradient        0.9 \
	fdTest               no
fluid-solvent H2O 55.338 ScalarEOS \
	epsBulk 78.4 \
	pMol 0.92466 \
	epsInf 1.77 \
	Pvap 1.06736e-10 \
	sigmaBulk 4.62e-05 \
	Rvdw 2.61727 \
	Res 1.42 \
	tauNuc 343133 \
	poleEl 15 7 1
forces-output-coords Positions
ion Cs   0.000000000000000   0.000000000000000   0.000000000000000 0
ion-species SG15/$ID_ONCV_PBE.upf
ion-width 0
ionic-minimize  \
	dirUpdateScheme      L-BFGS \
	linminMethod         DirUpdateRecommended \
	nIterations          0 \
	history              15 \
	knormThreshold       0.0001 \
	energyDiffThreshold  1e-06 \
	nEnergyDiff          2 \
	alphaTstart          1 \
	alphaTmin            1e-10 \
	updateTestStepSize   yes \
	alphaTreduceFactor   0.1 \
	alphaTincreaseFactor 3 \
	nAlphaAdjustMax      3 \
	wolfeEnergy          0.0001 \
	wolfeGradient        0.9 \
	fdTest               no
kpoint   0.000000000000   0.000000000000   0.000000000000  1.00000000000000
kpoint-folding 48 48 1 
latt-move-scale 1 1 1
latt-scale 0.53 0.53 1 
lattice  \
	   4.727486978767153   -2.363743489383574    0.000000000000000  \
	  -0.000000000000000    4.094123819672498    0.000000000000000  \
	   0.000000000000000    0.000000000000000   40.000000000000000 
lattice-minimize  \
	dirUpdateScheme      L-BFGS \
	linminMethod         DirUpdateRecommended \
	nIterations          0 \
	history              15 \
	knormThreshold       0 \
	energyDiffThreshold  1e-06 \
	nEnergyDiff          2 \
	alphaTstart          1 \
	alphaTmin            1e-10 \
	updateTestStepSize   yes \
	alphaTreduceFactor   0.1 \
	alphaTincreaseFactor 3 \
	nAlphaAdjustMax      3 \
	wolfeEnergy          0.0001 \
	wolfeGradient        0.9 \
	fdTest               no
lcao-params -1 1e-06 1e-05
pcm-variant GLSSA13
spintype no-spin
subspace-rotation-factor 1 yes
symmetries automatic
symmetry-threshold 0.0001



---------- Setting up symmetries ----------

Found 24 point-group symmetries of the bravais lattice
Found 24 space-group symmetries with basis
Applied RMS atom displacement 0 bohrs to make symmetries exact.

---------- Initializing the Grid ----------
R = 
[      2.50557     -1.25278            0  ]
[            0      2.16989            0  ]
[            0            0           40  ]
unit cell volume = 217.472
G =
[    2.50769    1.44781         -0  ]
[          0    2.89563         -0  ]
[         -0         -0    0.15708  ]
Minimum fftbox size, Smin = [  12  12  164  ]
Chosen fftbox size, S = [  12  12  168  ]

---------- Exchange Correlation functional ----------
Initalized PBE GGA exchange.
Initalized PBE GGA correlation.

---------- Setting up pseudopotentials ----------
Width of ionic core gaussian charges (only for fluid interactions / plotting) set to 0

Reading pseudopotential file '/home/gridsan/aligho/DFT/build-Nov24/pseudopotentials/SG15/Cs_ONCV_PBE.upf':
  'Cs' pseudopotential, 'PBE' functional
  Generated using ONCVPSP code by D. R. Hamann
  Author: Martin Schlipf and Francois Gygi  Date: 150915.
  9 valence electrons, 3 orbitals, 6 projectors, 2414 radial grid points, with lMax = 2
  Transforming local potential to a uniform radial grid of dG=0.02 with 1648 points.
  Transforming nonlocal projectors to a uniform radial grid of dG=0.02 with 432 points.
    5S    l: 0   occupation:  2.0   eigenvalue: -0.982388
    5P    l: 1   occupation:  6.0   eigenvalue: -0.496786
    6S    l: 0   occupation:  1.0   eigenvalue: -0.076670
  Transforming atomic orbitals to a uniform radial grid of dG=0.02 with 432 points.
  Core radius for overlap checks: 2.06 bohrs.
  Reading pulay file /home/gridsan/aligho/DFT/build-Nov24/pseudopotentials/SG15/Cs_ONCV_PBE.pulay ... using dE_dnG = -1.008762e-04 computed for Ecut = 20.

Initialized 1 species with 1 total atoms.

Folded 1 k-points by 48x48x1 to 2304 k-points.

---------- Setting up k-points, bands, fillings ----------
Reduced to 217 k-points under symmetry. 
Computing the number of bands and number of electrons
Calculating initial fillings.
nElectrons:   9.000000   nBands: 6   nStates: 217

----- Setting up reduced wavefunction bases (one per k-point) -----
average nbasis = 929.150 , ideal nbasis = 929.056

---------- Setting up coulomb interaction ----------
Initialized slab truncation along lattice direction 001

---------- Setting up 2D ewald sum ----------
Optimum gaussian width for ewald sums = 1.390990 bohr.
Real space sums over 289 unit cells with max indices [  8  8  0  ]
Reciprocal space sums over 81 terms with max indices [  4  4  0  ]

---------- Allocating electronic variables ----------
Initializing wave functions:  linear combination of atomic orbitals
Note: number of bands (6) exceeds available atomic orbitals (5)
Cs pseudo-atom occupations:   s ( 2 1 )  p ( 6 )
	FillingsUpdate:  mu: -1.456928245  nElectrons: 9.000000
LCAOMinimize: Iter:   0  F: -0.0606275560611734  |grad|_K:  8.277e-03  alpha:  1.000e+00
	FillingsUpdate:  mu: +1.290912176  nElectrons: 9.000000
LCAOMinimize: Iter:   1  F: -0.2016476016981456  |grad|_K:  1.578e-03  alpha:  6.730e-01  linmin:  3.401e-02  cgtest: -5.395e+00  t[s]:      1.30
LCAOMinimize: 	Predicted alpha/alphaT>3.000000, increasing alphaT to 2.018947e+00.
	FillingsUpdate:  mu: +1.284686457  nElectrons: 9.000000
LCAOMinimize: Iter:   2  F: -0.2036077424464052  |grad|_K:  1.489e-03  alpha:  3.501e-01  linmin: -2.226e-02  cgtest:  9.788e-01  t[s]:      1.81
LCAOMinimize: Encountered beta<0, resetting CG.
LCAOMinimize: 	Wrong curvature in test step, increasing alphaT to 1.050218e+00.
	FillingsUpdate:  mu: +1.090863582  nElectrons: 9.000000
LCAOMinimize: Iter:   3  F: -0.2391216227322884  |grad|_K:  2.729e-03  alpha: -3.602e-02  linmin: -4.059e-02  cgtest:  3.049e-01  t[s]:      2.20
	FillingsUpdate:  mu: +1.075241439  nElectrons: 9.000000
LCAOMinimize: Iter:   4  F: -0.2410869776300869  |grad|_K:  2.544e-03  alpha:  6.182e-03  linmin: -5.018e-02  cgtest:  1.021e+00  t[s]:      2.61
LCAOMinimize: Encountered beta<0, resetting CG.
LCAOMinimize: 	Wrong curvature in test step, increasing alphaT to 1.854722e-02.
	FillingsUpdate:  mu: +1.072648854  nElectrons: 9.000000
LCAOMinimize: Iter:   5  F: -0.2414036860776078  |grad|_K:  2.569e-03  alpha: -2.280e-01  linmin: -5.211e-02  cgtest:  9.819e-01  t[s]:      3.02
[d-3-3-1:80831] 18 more processes have sent help message help-mpi-common-cuda.txt / dlopen failed
[d-3-3-1:80831] Set MCA parameter "orte_base_help_aggregate" to 0 to see all help / error messages
[d-3-3-1:80831] 18 more processes have sent help message help-mpi-btl-openib-cpc-base.txt / no cpcs for port
	FillingsUpdate:  mu: +1.034955784  nElectrons: 9.000000
LCAOMinimize: Iter:   6  F: -0.2465406359805341  |grad|_K:  2.538e-03  alpha:  6.852e-03  linmin: -5.320e-02  cgtest:  9.733e-01  t[s]:      3.43
LCAOMinimize: 	Wrong curvature in test step, increasing alphaT to 2.055614e-02.
	FillingsUpdate:  mu: +0.986262640  nElectrons: 9.000000
LCAOMinimize: Iter:   7  F: -0.2535424827415836  |grad|_K:  2.482e-03  alpha: -1.804e-04  linmin: -3.202e-02  cgtest:  9.680e-01  t[s]:      3.84
	FillingsUpdate:  mu: +0.982112422  nElectrons: 9.000000
LCAOMinimize: Iter:   8  F: -0.2540035884781956  |grad|_K:  2.555e-03  alpha:  9.160e-03  linmin: -5.390e-02  cgtest:  9.591e-01  t[s]:      4.24
LCAOMinimize: 	Wrong curvature in test step, increasing alphaT to 2.747967e-02.
	FillingsUpdate:  mu: +0.977418705  nElectrons: 9.000000
LCAOMinimize: Iter:   9  F: -0.2545271924517932  |grad|_K:  2.649e-03  alpha: -1.056e-01  linmin: -5.433e-02  cgtest:  9.512e-01  t[s]:      4.65
	FillingsUpdate:  mu: +0.972966669  nElectrons: 9.000000
LCAOMinimize: Iter:  10  F: -0.2550459911860840  |grad|_K:  2.750e-03  alpha:  8.261e-03  linmin: -5.513e-02  cgtest:  9.509e-01  t[s]:      5.05
LCAOMinimize: 	Wrong curvature in test step, increasing alphaT to 2.478332e-02.
	FillingsUpdate:  mu: +0.935019129  nElectrons: 9.000000
LCAOMinimize: Iter:  11  F: -0.2595313243100860  |grad|_K:  2.824e-03  alpha: -5.617e-04  linmin: -5.787e-02  cgtest:  9.299e-01  t[s]:      5.45
	FillingsUpdate:  mu: +0.886366920  nElectrons: 9.000000
LCAOMinimize: Iter:  12  F: -0.2654718024286274  |grad|_K:  5.016e-02  alpha:  1.024e-02  linmin: -2.132e-02  cgtest:  5.262e-02  t[s]:      5.86
LCAOMinimize: 	Step increased F by 6.658242e+00, reducing alpha to 3.749985e-04.
	FillingsUpdate:  mu: +0.622904193  nElectrons: 9.000000
LCAOMinimize: Iter:  13  F: -0.2971547031944367  |grad|_K:  9.176e-04  alpha:  3.750e-04  linmin: -4.505e-02  cgtest:  2.279e+01  t[s]:      6.49
LCAOMinimize: Encountered beta<0, resetting CG.
LCAOMinimize: 	Predicted alpha/alphaT>3.000000, increasing alphaT to 1.124995e-03.
LCAOMinimize: 	Predicted alpha/alphaT>3.000000, increasing alphaT to 3.374986e-03.
LCAOMinimize: 	Predicted alpha/alphaT>3.000000, increasing alphaT to 1.012496e-02.
LCAOMinimize: 	Step increased F by 4.188235e-02, reducing alpha to 7.231670e-02.
	FillingsUpdate:  mu: +0.575440097  nElectrons: 9.000000
LCAOMinimize: Iter:  14  F: -0.3005906477178185  |grad|_K:  8.252e-04  alpha:  7.232e-02  linmin: -6.633e-02  cgtest:  7.838e-01  t[s]:      7.40
LCAOMinimize: 	Wrong curvature in test step, increasing alphaT to 2.169501e-01.
	FillingsUpdate:  mu: +0.499344998  nElectrons: 9.000000
LCAOMinimize: Iter:  15  F: -0.3031750314630272  |grad|_K:  4.755e-04  alpha: -7.443e-03  linmin: -3.648e-02  cgtest:  9.795e-01  t[s]:      7.80
LCAOMinimize: Encountered beta<0, resetting CG.
	FillingsUpdate:  mu: +0.413298698  nElectrons: 9.000000
LCAOMinimize: Iter:  16  F: -0.3043593138512718  |grad|_K:  1.891e-04  alpha:  8.271e-02  linmin: -3.908e-02  cgtest:  7.542e-01  t[s]:      8.21
LCAOMinimize: Encountered beta<0, resetting CG.
LCAOMinimize: 	Predicted alpha/alphaT>3.000000, increasing alphaT to 2.481200e-01.
LCAOMinimize: 	Wrong curvature in test step, increasing alphaT to 7.443599e-01.
	FillingsUpdate:  mu: +0.392739307  nElectrons: 9.000000
LCAOMinimize: Iter:  17  F: -0.3044388322921491  |grad|_K:  8.540e-05  alpha: -8.416e-01  linmin: -3.228e-02  cgtest:  9.449e-01  t[s]:      8.74
LCAOMinimize: Encountered beta<0, resetting CG.
LCAOMinimize: 	Step increased F by 1.231689e-05, reducing alpha to 3.379749e-02.
	FillingsUpdate:  mu: +0.392148865  nElectrons: 9.000000
LCAOMinimize: Iter:  18  F: -0.3044407084719863  |grad|_K:  8.105e-05  alpha:  3.380e-02  linmin: -5.254e-02  cgtest:  1.000e+00  t[s]:      9.39
LCAOMinimize: Encountered beta<0, resetting CG.
LCAOMinimize: 	Predicted alpha/alphaT>3.000000, increasing alphaT to 1.013925e-01.
LCAOMinimize: 	Predicted alpha/alphaT>3.000000, increasing alphaT to 3.041774e-01.
	FillingsUpdate:  mu: +0.390832256  nElectrons: 9.000000
LCAOMinimize: Iter:  19  F: -0.3044445952229323  |grad|_K:  7.132e-05  alpha:  8.064e-02  linmin: -5.305e-02  cgtest:  9.998e-01  t[s]:     10.07
LCAOMinimize: Encountered beta<0, resetting CG.
LCAOMinimize: 	Predicted alpha/alphaT>3.000000, increasing alphaT to 2.419131e-01.
	FillingsUpdate:  mu: +0.390234570  nElectrons: 9.000000
LCAOMinimize: Iter:  20  F: -0.3044462614019706  |grad|_K:  6.683e-05  alpha:  4.330e-02  linmin: -5.225e-02  cgtest:  1.000e+00  t[s]:     10.63
LCAOMinimize: Encountered beta<0, resetting CG.
LCAOMinimize: 	Predicted alpha/alphaT>3.000000, increasing alphaT to 1.299088e-01.
	FillingsUpdate:  mu: +0.390068333  nElectrons: 9.000000
LCAOMinimize: Iter:  21  F: -0.3044467152574837  |grad|_K:  6.557e-05  alpha:  1.313e-02  linmin: -5.175e-02  cgtest:  1.000e+00  t[s]:     11.17
LCAOMinimize: Encountered beta<0, resetting CG.
LCAOMinimize: 	Predicted alpha/alphaT>3.000000, increasing alphaT to 3.940059e-02.
LCAOMinimize: 	Predicted alpha/alphaT>3.000000, increasing alphaT to 1.182018e-01.
	FillingsUpdate:  mu: +0.389926905  nElectrons: 9.000000
LCAOMinimize: Iter:  22  F: -0.3044470970203647  |grad|_K:  6.449e-05  alpha:  1.146e-02  linmin: -5.171e-02  cgtest:  1.000e+00  t[s]:     11.86
LCAOMinimize: Encountered beta<0, resetting CG.
LCAOMinimize: Converged (|Delta F|<1.000000e-06 for 2 iters).


---- Citations for features of the code used in this run ----

   Software package:
      R. Sundararaman, K. Letchworth-Weaver, K.A. Schwarz, D. Gunceler, Y. Ozhabes and T.A. Arias, 'JDFTx: software for joint density-functional theory', SoftwareX 6, 278 (2017)

   gga-PBE exchange-correlation functional:
      J.P. Perdew, K. Burke and M. Ernzerhof, Phys. Rev. Lett. 77, 3865 (1996)

   Pseudopotentials:
      M Schlipf and F Gygi, Comput. Phys. Commun. 196, 36 (2015)

   Truncated Coulomb potentials:
      R. Sundararaman and T.A. Arias, Phys. Rev. B 87, 165122 (2013)

   Total energy minimization with Auxiliary Hamiltonian:
      C. Freysoldt, S. Boeck, and J. Neugebauer, Phys. Rev. B 79, 241103(R) (2009)

This list may not be complete. Please suggest additional citations or
report any other bugs at https://github.com/shankar1729/jdftx/issues

Initialization completed successfully at t[s]:     11.94


-------- Electronic minimization -----------
	FillingsUpdate:  mu: +0.389926905  nElectrons: 9.000000
ElecMinimize: Iter:   0  F: -0.304447097020112  |grad|_K:  2.987e-03  alpha:  1.000e+00
	FillingsUpdate:  mu: +0.523574414  nElectrons: 9.000000
	SubspaceRotationAdjust: set factor to 1
ElecMinimize: Iter:   1  F: -2.981346395644874  |grad|_K:  3.599e-03  alpha:  4.241e-01  linmin:  3.216e-02  t[s]:     12.79
	FillingsUpdate:  mu: +0.462072438  nElectrons: 9.000000
	SubspaceRotationAdjust: set factor to 1.01
ElecMinimize: Iter:   2  F: -4.284974129658606  |grad|_K:  2.560e-03  alpha:  1.961e-01  linmin:  1.143e-02  t[s]:     13.32
	FillingsUpdate:  mu: +0.093503669  nElectrons: 9.000000
	SubspaceRotationAdjust: set factor to 1.05
ElecMinimize: Iter:   3  F: -5.438104183414151  |grad|_K:  1.788e-03  alpha:  1.629e-01  linmin: -3.116e-04  t[s]:     13.84
	FillingsUpdate:  mu: -0.343662644  nElectrons: 9.000000
	SubspaceRotationAdjust: set factor to 1.08
ElecMinimize: Iter:   4  F: -6.460349863688301  |grad|_K:  1.544e-03  alpha:  2.762e-01  linmin:  2.659e-03  t[s]:     14.36
	FillingsUpdate:  mu: -0.460459635  nElectrons: 9.000000
	SubspaceRotationAdjust: set factor to 1.14
ElecMinimize: Iter:   5  F: -6.892577261380582  |grad|_K:  1.055e-03  alpha:  1.593e-01  linmin: -1.231e-04  t[s]:     14.89
	FillingsUpdate:  mu: -0.334280684  nElectrons: 9.000000
	SubspaceRotationAdjust: set factor to 1.19
ElecMinimize: Iter:   6  F: -7.191804593905865  |grad|_K:  9.533e-04  alpha:  2.372e-01  linmin:  5.870e-03  t[s]:     15.40
	FillingsUpdate:  mu: -0.319561444  nElectrons: 9.000000
	SubspaceRotationAdjust: set factor to 1.27
ElecMinimize: Iter:   7  F: -7.366096923290727  |grad|_K:  1.162e-03  alpha:  2.721e-01  linmin:  5.050e-03  t[s]:     15.94
	FillingsUpdate:  mu: -0.427469830  nElectrons: 9.000000
	SubspaceRotationAdjust: set factor to 1.33
ElecMinimize: Iter:   8  F: -7.393614745131760  |grad|_K:  1.050e-03  alpha:  4.969e-02  linmin: -5.900e-04  t[s]:     16.46
	FillingsUpdate:  mu: -0.507918792  nElectrons: 9.000000
	SubspaceRotationAdjust: set factor to 1.43
ElecMinimize: Iter:   9  F: -7.504394012114239  |grad|_K:  8.043e-04  alpha:  8.345e-02  linmin:  6.948e-04  t[s]:     17.00
	FillingsUpdate:  mu: -0.549262409  nElectrons: 9.000000
	SubspaceRotationAdjust: set factor to 1.57
ElecMinimize: Iter:  10  F: -7.572519054856193  |grad|_K:  8.265e-04  alpha:  8.863e-02  linmin: -2.074e-03  t[s]:     17.54
	FillingsUpdate:  mu: -0.441917497  nElectrons: 9.000000
	SubspaceRotationAdjust: set factor to 1.69
ElecMinimize: Iter:  11  F: -7.668560951865540  |grad|_K:  9.599e-04  alpha:  1.477e-01  linmin:  8.318e-03  t[s]:     18.07
	FillingsUpdate:  mu: -0.346081724  nElectrons: 9.000000
	SubspaceRotationAdjust: set factor to 1.85
ElecMinimize: Iter:  12  F: -7.699042313710231  |grad|_K:  9.369e-04  alpha:  3.736e-02  linmin:  7.243e-04  t[s]:     18.59
	FillingsUpdate:  mu: -0.233641498  nElectrons: 9.000000
	SubspaceRotationAdjust: set factor to 2.02
ElecMinimize: Iter:  13  F: -7.751839352949663  |grad|_K:  8.987e-04  alpha:  9.242e-02  linmin:  8.545e-03  t[s]:     19.13
	FillingsUpdate:  mu: -0.234289602  nElectrons: 9.000000
	SubspaceRotationAdjust: set factor to 2.19
ElecMinimize: Iter:  14  F: -7.761406397442205  |grad|_K:  8.816e-04  alpha:  2.742e-02  linmin: -1.286e-04  t[s]:     19.67
ElecMinimize: 	Predicted alpha/alphaT>3.000000, increasing alphaT to 8.225600e-02.
	FillingsUpdate:  mu: -0.273916647  nElectrons: 9.000000
	SubspaceRotationAdjust: set factor to 2.79
ElecMinimize: Iter:  15  F: -7.824151372514100  |grad|_K:  8.470e-04  alpha:  5.582e-02  linmin: -2.796e-03  t[s]:     20.38
	FillingsUpdate:  mu: -0.342108000  nElectrons: 9.000000
	SubspaceRotationAdjust: set factor to 3
ElecMinimize: Iter:  16  F: -7.846434951390633  |grad|_K:  7.410e-04  alpha:  2.915e-02  linmin: -2.634e-04  t[s]:     20.92
	FillingsUpdate:  mu: -0.486000515  nElectrons: 9.000000
	SubspaceRotationAdjust: set factor to 3.28
ElecMinimize: Iter:  17  F: -7.875323139305157  |grad|_K:  7.171e-04  alpha:  5.508e-02  linmin:  1.565e-03  t[s]:     21.44
	FillingsUpdate:  mu: -0.496647888  nElectrons: 9.000000
	SubspaceRotationAdjust: set factor to 2.04
ElecMinimize: Iter:  18  F: -7.897867218719643  |grad|_K:  1.472e-03  alpha:  4.554e-02  linmin:  6.205e-03  t[s]:     21.96
ElecMinimize: 	Bad step direction: g.d > 0.
ElecMinimize: 	Undoing step.
ElecMinimize: 	Step failed: resetting search direction.
	FillingsUpdate:  mu: -0.496647888  nElectrons: 9.000000
	SubspaceRotationAdjust: set factor to 1.42
ElecMinimize: Iter:  19  F: -7.897867218719526  |grad|_K:  1.227e-03  alpha:  0.000e+00
	FillingsUpdate:  mu: -0.440865882  nElectrons: 9.000000
	SubspaceRotationAdjust: set factor to 1.76
ElecMinimize: Iter:  20  F: -7.943324704579496  |grad|_K:  5.853e-04  alpha:  3.475e-02  linmin: -3.009e-02  t[s]:     22.85
ElecMinimize: 	Wrong curvature in test step, increasing alphaT to 1.042427e-01.
	FillingsUpdate:  mu: -0.368292398  nElectrons: 9.000000
	SubspaceRotationAdjust: set factor to 2.1
ElecMinimize: Iter:  21  F: -7.985461117016400  |grad|_K:  5.042e-04  alpha: -1.279e-01  linmin: -4.329e-02  t[s]:     23.33
	FillingsUpdate:  mu: -0.096138065  nElectrons: 9.000000
	SubspaceRotationAdjust: set factor to 2.18
ElecMinimize: Iter:  22  F: -8.087888459696595  |grad|_K:  5.425e-04  alpha:  1.807e-01  linmin:  6.405e-03  t[s]:     23.85
	FillingsUpdate:  mu: -0.074116830  nElectrons: 9.000000
	SubspaceRotationAdjust: set factor to 2.23
ElecMinimize: Iter:  23  F: -8.111624197673265  |grad|_K:  5.386e-04  alpha:  6.879e-02  linmin: -1.835e-03  t[s]:     24.38
	FillingsUpdate:  mu: -0.111079454  nElectrons: 9.000000
	SubspaceRotationAdjust: set factor to 2.29
ElecMinimize: Iter:  24  F: -8.135519079645663  |grad|_K:  3.985e-04  alpha:  5.794e-02  linmin: -2.858e-03  t[s]:     24.92
	FillingsUpdate:  mu: -0.141583223  nElectrons: 9.000000
	SubspaceRotationAdjust: set factor to 2.47
ElecMinimize: Iter:  25  F: -8.147721346096651  |grad|_K:  3.159e-04  alpha:  4.939e-02  linmin: -4.321e-03  t[s]:     25.43
	FillingsUpdate:  mu: -0.215253750  nElectrons: 9.000000
	SubspaceRotationAdjust: set factor to 2.9
ElecMinimize: Iter:  26  F: -8.160956567663833  |grad|_K:  3.734e-04  alpha:  1.358e-01  linmin:  4.911e-03  t[s]:     25.96
	FillingsUpdate:  mu: -0.220120733  nElectrons: 9.000000
	SubspaceRotationAdjust: set factor to 3.4
ElecMinimize: Iter:  27  F: -8.163978899282286  |grad|_K:  3.787e-04  alpha:  1.081e-02  linmin:  6.252e-04  t[s]:     26.49
ElecMinimize: 	Wrong curvature in test step, increasing alphaT to 3.243011e-02.
	FillingsUpdate:  mu: -0.215527485  nElectrons: 9.000000
	SubspaceRotationAdjust: set factor to 4.1
ElecMinimize: Iter:  28  F: -8.169187136716399  |grad|_K:  3.670e-04  alpha: -1.068e-02  linmin: -6.622e-03  t[s]:     26.96
	FillingsUpdate:  mu: -0.174272272  nElectrons: 9.000000
	SubspaceRotationAdjust: set factor to 4.77
ElecMinimize: Iter:  29  F: -8.186269278313507  |grad|_K:  3.241e-04  alpha:  4.412e-02  linmin: -3.290e-03  t[s]:     27.50
	FillingsUpdate:  mu: -0.173281163  nElectrons: 9.000000
	SubspaceRotationAdjust: set factor to 5.21
ElecMinimize: Iter:  30  F: -8.188591357182446  |grad|_K:  2.660e-04  alpha:  2.363e-02  linmin: -4.352e-04  t[s]:     28.01
	FillingsUpdate:  mu: -0.179220161  nElectrons: 9.000000
	SubspaceRotationAdjust: set factor to 5.26
ElecMinimize: Iter:  31  F: -8.193392307362458  |grad|_K:  2.631e-04  alpha:  5.965e-02  linmin:  1.765e-03  t[s]:     28.54
	FillingsUpdate:  mu: -0.192795753  nElectrons: 9.000000
	SubspaceRotationAdjust: set factor to 5.28
ElecMinimize: Iter:  32  F: -8.196412023464775  |grad|_K:  2.325e-04  alpha:  3.895e-02  linmin: -6.494e-04  t[s]:     29.07
	FillingsUpdate:  mu: -0.183979840  nElectrons: 9.000000
	SubspaceRotationAdjust: set factor to 5.76
ElecMinimize: Iter:  33  F: -8.198907475703869  |grad|_K:  1.861e-04  alpha:  3.654e-02  linmin: -1.522e-03  t[s]:     29.59
	FillingsUpdate:  mu: -0.177410759  nElectrons: 9.000000
	SubspaceRotationAdjust: set factor to 6.93
ElecMinimize: Iter:  34  F: -8.201034138450122  |grad|_K:  1.636e-04  alpha:  4.221e-02  linmin: -9.246e-04  t[s]:     30.10
	FillingsUpdate:  mu: -0.176707697  nElectrons: 9.000000
	SubspaceRotationAdjust: set factor to 7.93
	SubspaceRotationAdjust: resetting CG because factor has changed by 7.93007
ElecMinimize: 	State modified externally: resetting search direction.
ElecMinimize: Iter:  35  F: -8.202919184009589  |grad|_K:  1.786e-04  alpha:  5.206e-02
ElecMinimize: 	Predicted alpha/alphaT>3.000000, increasing alphaT to 1.561784e-01.
	FillingsUpdate:  mu: -0.180375785  nElectrons: 9.000000
	SubspaceRotationAdjust: set factor to 6.84
ElecMinimize: Iter:  36  F: -8.208967436553044  |grad|_K:  9.612e-05  alpha:  1.560e-01  linmin:  8.811e-04  t[s]:     31.59
	FillingsUpdate:  mu: -0.143345963  nElectrons: 9.000000
	SubspaceRotationAdjust: set factor to 6.7
ElecMinimize: Iter:  37  F: -8.211832126212949  |grad|_K:  7.800e-05  alpha:  2.715e-01  linmin:  8.681e-04  t[s]:     32.11
	FillingsUpdate:  mu: -0.190119187  nElectrons: 9.000000
	SubspaceRotationAdjust: set factor to 4.73
ElecMinimize: Iter:  38  F: -8.213792554239909  |grad|_K:  6.351e-05  alpha:  2.262e-01  linmin: -1.933e-03  t[s]:     32.63
	FillingsUpdate:  mu: -0.137379419  nElectrons: 9.000000
	SubspaceRotationAdjust: set factor to 3.42
ElecMinimize: Iter:  39  F: -8.214894499195241  |grad|_K:  5.118e-05  alpha:  1.938e-01  linmin:  1.120e-04  t[s]:     33.18
ElecMinimize: 	Wrong curvature in test step, increasing alphaT to 5.814172e-01.
	FillingsUpdate:  mu: -0.167509175  nElectrons: 9.000000
	SubspaceRotationAdjust: set factor to 3.87
ElecMinimize: Iter:  40  F: -8.216280344305613  |grad|_K:  3.486e-05  alpha: -6.875e-01  linmin: -2.107e-02  t[s]:     33.67
	FillingsUpdate:  mu: -0.188365986  nElectrons: 9.000000
	SubspaceRotationAdjust: set factor to 3.8
ElecMinimize: Iter:  41  F: -8.217800927678240  |grad|_K:  5.266e-05  alpha:  4.193e-01  linmin: -3.955e-03  t[s]:     34.18
	FillingsUpdate:  mu: -0.183163981  nElectrons: 9.000000
	SubspaceRotationAdjust: set factor to 4.19
ElecMinimize: Iter:  42  F: -8.218723780793020  |grad|_K:  6.012e-05  alpha:  1.431e-01  linmin: -1.441e-03  t[s]:     34.70
	FillingsUpdate:  mu: -0.175922261  nElectrons: 9.000000
	SubspaceRotationAdjust: set factor to 4.85
ElecMinimize: Iter:  43  F: -8.219094264248366  |grad|_K:  5.641e-05  alpha:  7.499e-02  linmin: -9.407e-04  t[s]:     35.23
	FillingsUpdate:  mu: -0.159736623  nElectrons: 9.000000
	SubspaceRotationAdjust: set factor to 5.3
ElecMinimize: Iter:  44  F: -8.219393939289255  |grad|_K:  5.017e-05  alpha:  5.688e-02  linmin:  3.447e-04  t[s]:     35.75
	FillingsUpdate:  mu: -0.159150205  nElectrons: 9.000000
	SubspaceRotationAdjust: set factor to 5.66
ElecMinimize: Iter:  45  F: -8.219453189846242  |grad|_K:  4.815e-05  alpha:  1.366e-02  linmin: -1.395e-03  t[s]:     36.26
ElecMinimize: 	Step increased F by 7.285702e-05, reducing alpha to 3.950690e-03.
	FillingsUpdate:  mu: -0.159026904  nElectrons: 9.000000
	SubspaceRotationAdjust: set factor to 6.01
ElecMinimize: Iter:  46  F: -8.219485273119901  |grad|_K:  4.724e-05  alpha:  3.951e-03  linmin: -3.112e-03  t[s]:     37.10
ElecMinimize: 	Predicted alpha/alphaT>3.000000, increasing alphaT to 1.185207e-02.
ElecMinimize: 	Wrong curvature in test step, increasing alphaT to 3.555621e-02.
	FillingsUpdate:  mu: -0.170546802  nElectrons: 9.000000
	SubspaceRotationAdjust: set factor to 6.21
ElecMinimize: Iter:  47  F: -8.219664927802492  |grad|_K:  4.321e-05  alpha: -3.281e-02  linmin: -3.527e-03  t[s]:     37.75
ElecMinimize: 	Step increased F by 2.462178e-03, reducing alpha to 4.383228e-03.
	FillingsUpdate:  mu: -0.170534458  nElectrons: 9.000000
	SubspaceRotationAdjust: set factor to 6.47
ElecMinimize: Iter:  48  F: -8.219715701067196  |grad|_K:  4.201e-05  alpha:  4.383e-03  linmin: -4.489e-03  t[s]:     38.56
	FillingsUpdate:  mu: -0.170513546  nElectrons: 9.000000
	SubspaceRotationAdjust: set factor to 6.75
ElecMinimize: Iter:  49  F: -8.219741268793477  |grad|_K:  4.151e-05  alpha:  1.788e-03  linmin: -5.434e-03  t[s]:     39.09
ElecMinimize: 	Predicted alpha/alphaT>3.000000, increasing alphaT to 5.363576e-03.
ElecMinimize: 	Step increased F by 1.989062e-05, reducing alpha to 3.146637e-04.
	FillingsUpdate:  mu: -0.170507010  nElectrons: 9.000000
	SubspaceRotationAdjust: set factor to 7.07
ElecMinimize: Iter:  50  F: -8.219746862863976  |grad|_K:  4.144e-05  alpha:  3.147e-04  linmin: -6.258e-03  t[s]:     40.08
ElecMinimize: 	Predicted alpha/alphaT>3.000000, increasing alphaT to 9.439911e-04.
ElecMinimize: 	Predicted alpha/alphaT>3.000000, increasing alphaT to 2.831973e-03.
	FillingsUpdate:  mu: -0.170462096  nElectrons: 9.000000
	SubspaceRotationAdjust: set factor to 7.42
ElecMinimize: Iter:  51  F: -8.219777921984125  |grad|_K:  4.091e-05  alpha:  1.446e-03  linmin: -6.793e-03  t[s]:     40.95
ElecMinimize: 	Wrong curvature in test step, increasing alphaT to 4.338499e-03.
	FillingsUpdate:  mu: -0.165251535  nElectrons: 9.000000
	SubspaceRotationAdjust: set factor to 9.72
ElecMinimize: Iter:  52  F: -8.219820519687021  |grad|_K:  4.074e-05  alpha: -3.727e-03  linmin: -7.584e-03  t[s]:     41.44
ElecMinimize: 	Step increased F by 3.618432e-03, reducing alpha to 4.757141e-03.
	FillingsUpdate:  mu: -0.158219364  nElectrons: 9.000000
	SubspaceRotationAdjust: set factor to 10.3
ElecMinimize: Iter:  53  F: -8.219866346547215  |grad|_K:  3.985e-05  alpha:  4.757e-03  linmin: -7.602e-03  t[s]:     42.26
ElecMinimize: 	Wrong curvature in test step, increasing alphaT to 1.427142e-02.
	FillingsUpdate:  mu: -0.157851688  nElectrons: 9.000000
	SubspaceRotationAdjust: set factor to 11.9
ElecMinimize: Iter:  54  F: -8.220111176652052  |grad|_K:  3.846e-05  alpha: -3.052e-03  linmin: -7.196e-03  t[s]:     42.74
ElecMinimize: 	Step increased F by 4.107176e-03, reducing alpha to 3.302739e-03.
	FillingsUpdate:  mu: -0.164469179  nElectrons: 9.000000
	SubspaceRotationAdjust: set factor to 14.8
ElecMinimize: Iter:  55  F: -8.220205512158573  |grad|_K:  3.818e-05  alpha:  3.303e-03  linmin: -7.158e-03  t[s]:     43.58
ElecMinimize: 	Wrong curvature in test step, increasing alphaT to 9.908217e-03.
	FillingsUpdate:  mu: -0.169409795  nElectrons: 9.000000
	SubspaceRotationAdjust: set factor to 8.35
ElecMinimize: Iter:  56  F: -8.220328560533520  |grad|_K:  9.667e-05  alpha: -4.376e-03  linmin: -5.992e-03  t[s]:     44.07
ElecMinimize: 	Step increased F by 2.367316e-02, reducing alpha to 3.014438e-03.
ElecMinimize: 	Step increased F by 4.028723e-03, reducing alpha to 3.014438e-04.
ElecMinimize: 	Step increased F by 4.699699e-05, reducing alpha to 3.014438e-05.
ElecMinimize: 	Step failed to reduce F after 3 attempts. Quitting step.
ElecMinimize: 	Undoing step.
ElecMinimize: 	Step failed: resetting search direction.
	FillingsUpdate:  mu: -0.171050026  nElectrons: 9.000000
	SubspaceRotationAdjust: set factor to 12.2
ElecMinimize: Iter:  57  F: -8.220277403195967  |grad|_K:  3.629e-05  alpha:  3.014e-05
	FillingsUpdate:  mu: -0.135230343  nElectrons: 9.000000
	SubspaceRotationAdjust: set factor to 10.1
ElecMinimize: Iter:  58  F: -8.220916099379764  |grad|_K:  6.367e-05  alpha:  5.011e-01  linmin: -1.733e-03  t[s]:     46.02
	FillingsUpdate:  mu: -0.136587188  nElectrons: 9.000000
	SubspaceRotationAdjust: set factor to 9.93
ElecMinimize: Iter:  59  F: -8.221045124280153  |grad|_K:  5.518e-05  alpha:  1.199e-02  linmin: -5.175e-03  t[s]:     46.55
ElecMinimize: 	Predicted alpha/alphaT>3.000000, increasing alphaT to 3.597350e-02.
ElecMinimize: 	Predicted alpha/alphaT>3.000000, increasing alphaT to 1.079205e-01.
	FillingsUpdate:  mu: -0.140403532  nElectrons: 9.000000
	SubspaceRotationAdjust: set factor to 12
ElecMinimize: Iter:  60  F: -8.221216036686059  |grad|_K:  4.549e-05  alpha:  1.220e-02  linmin: -4.330e-03  t[s]:     47.42
ElecMinimize: 	Wrong curvature in test step, increasing alphaT to 3.659110e-02.
	FillingsUpdate:  mu: -0.167619770  nElectrons: 9.000000
	SubspaceRotationAdjust: set factor to 13.9
ElecMinimize: Iter:  61  F: -8.221500768354147  |grad|_K:  3.330e-05  alpha: -8.782e-03  linmin: -2.822e-03  t[s]:     47.90
	FillingsUpdate:  mu: -0.168578153  nElectrons: 9.000000
	SubspaceRotationAdjust: set factor to 18.7
ElecMinimize: Iter:  62  F: -8.221543291697650  |grad|_K:  3.240e-05  alpha:  6.802e-03  linmin: -4.945e-03  t[s]:     48.44
ElecMinimize: 	Predicted alpha/alphaT>3.000000, increasing alphaT to 2.040489e-02.
	FillingsUpdate:  mu: -0.169302262  nElectrons: 9.000000
	SubspaceRotationAdjust: set factor to 23.7
ElecMinimize: Iter:  63  F: -8.221633420426041  |grad|_K:  2.952e-05  alpha:  1.223e-02  linmin: -6.738e-03  t[s]:     49.14
ElecMinimize: 	Step increased F by 5.082335e-05, reducing alpha to 7.844335e-04.
	FillingsUpdate:  mu: -0.169255729  nElectrons: 9.000000
	SubspaceRotationAdjust: set factor to 26.7
ElecMinimize: Iter:  64  F: -8.221639213706744  |grad|_K:  3.057e-05  alpha:  7.844e-04  linmin: -7.907e-03  t[s]:     49.97
ElecMinimize: 	Predicted alpha/alphaT>3.000000, increasing alphaT to 2.353300e-03.
ElecMinimize: 	Predicted alpha/alphaT>3.000000, increasing alphaT to 7.059901e-03.
ElecMinimize: 	Predicted alpha/alphaT>3.000000, increasing alphaT to 2.117970e-02.
ElecMinimize: 	Step increased F by 3.299268e-03, reducing alpha to 5.620536e-03.
	FillingsUpdate:  mu: -0.168098463  nElectrons: 9.000000
	SubspaceRotationAdjust: set factor to 39
ElecMinimize: Iter:  65  F: -8.221695876963373  |grad|_K:  2.528e-05  alpha:  5.621e-03  linmin: -5.602e-03  t[s]:     51.13
	FillingsUpdate:  mu: -0.167418755  nElectrons: 9.000000
	SubspaceRotationAdjust: set factor to 44.5
ElecMinimize: Iter:  66  F: -8.221731432945900  |grad|_K:  2.562e-05  alpha:  8.093e-03  linmin: -3.148e-03  t[s]:     51.65
	FillingsUpdate:  mu: -0.152124006  nElectrons: 9.000000
	SubspaceRotationAdjust: set factor to 31.5
ElecMinimize: Iter:  67  F: -8.221739605528187  |grad|_K:  3.653e-05  alpha:  5.405e-03  linmin: -1.243e-03  t[s]:     52.18
	FillingsUpdate:  mu: -0.151640433  nElectrons: 9.000000
	SubspaceRotationAdjust: set factor to 22.4
ElecMinimize: Iter:  68  F: -8.221748045065768  |grad|_K:  3.626e-05  alpha:  1.358e-03  linmin: -2.851e-03  t[s]:     52.70
ElecMinimize: 	Predicted alpha/alphaT>3.000000, increasing alphaT to 4.074007e-03.
ElecMinimize: 	Predicted alpha/alphaT>3.000000, increasing alphaT to 1.222202e-02.
	FillingsUpdate:  mu: -0.150462189  nElectrons: 9.000000
	SubspaceRotationAdjust: set factor to 14.6
ElecMinimize: Iter:  69  F: -8.221785446460123  |grad|_K:  4.222e-05  alpha:  5.618e-03  linmin: -4.140e-03  t[s]:     53.59
ElecMinimize: 	Step increased F by 3.652452e-05, reducing alpha to 2.269735e-04.
ElecMinimize: 	Step increased F by 1.986880e-06, reducing alpha to 2.269735e-05.
	FillingsUpdate:  mu: -0.150458346  nElectrons: 9.000000
	SubspaceRotationAdjust: set factor to 10.6
ElecMinimize: Iter:  70  F: -8.221785682210974  |grad|_K:  3.658e-05  alpha:  2.270e-05  linmin: -1.290e-02  t[s]:     54.72
ElecMinimize: 	Predicted alpha/alphaT>3.000000, increasing alphaT to 6.809206e-05.
ElecMinimize: 	Predicted alpha/alphaT>3.000000, increasing alphaT to 2.042762e-04.
ElecMinimize: 	Predicted alpha/alphaT>3.000000, increasing alphaT to 6.128286e-04.
ElecMinimize: 	Step increased F by 5.862875e-06, reducing alpha to 5.087555e-04.
	FillingsUpdate:  mu: -0.150329613  nElectrons: 9.000000
	SubspaceRotationAdjust: set factor to 5.76
ElecMinimize: Iter:  71  F: -8.221790128075163  |grad|_K:  7.506e-05  alpha:  5.088e-04  linmin: -2.419e-04  t[s]:     55.91
ElecMinimize: 	Step increased F by 8.802979e-07, reducing alpha to 4.964521e-06.
	FillingsUpdate:  mu: -0.150312031  nElectrons: 9.000000
	SubspaceRotationAdjust: set factor to 3.26
ElecMinimize: Iter:  72  F: -8.221790193178030  |grad|_K:  5.999e-05  alpha:  4.965e-06  linmin: -1.203e-03  t[s]:     56.72
ElecMinimize: 	Predicted alpha/alphaT>3.000000, increasing alphaT to 1.489356e-05.
ElecMinimize: 	Predicted alpha/alphaT>3.000000, increasing alphaT to 4.468069e-05.
	FillingsUpdate:  mu: -0.150173822  nElectrons: 9.000000
	SubspaceRotationAdjust: set factor to 1.83
ElecMinimize: Iter:  73  F: -8.221790648232801  |grad|_K:  6.284e-05  alpha:  6.237e-05  linmin:  2.219e-04  t[s]:     57.60
	FillingsUpdate:  mu: -0.150120782  nElectrons: 9.000000
	SubspaceRotationAdjust: set factor to 1.08
ElecMinimize: Iter:  74  F: -8.221790720029423  |grad|_K:  5.274e-05  alpha:  2.013e-05  linmin: -2.380e-05  t[s]:     58.12
ElecMinimize: 	Predicted alpha/alphaT>3.000000, increasing alphaT to 6.038885e-05.
	FillingsUpdate:  mu: -0.150000224  nElectrons: 9.000000
	SubspaceRotationAdjust: set factor to 0.662
	SubspaceRotationAdjust: resetting CG because factor has changed by 0.0834441
ElecMinimize: 	State modified externally: resetting search direction.
ElecMinimize: Iter:  75  F: -8.221790948351083  |grad|_K:  3.971e-05  alpha:  6.511e-05
ElecMinimize: 	Predicted alpha/alphaT>3.000000, increasing alphaT to 1.953244e-04.
ElecMinimize: 	Predicted alpha/alphaT>3.000000, increasing alphaT to 5.859731e-04.
ElecMinimize: 	Predicted alpha/alphaT>3.000000, increasing alphaT to 1.757919e-03.
	FillingsUpdate:  mu: -0.150422457  nElectrons: 9.000000
	SubspaceRotationAdjust: set factor to 1.01
ElecMinimize: Iter:  76  F: -8.221799404271531  |grad|_K:  2.488e-05  alpha:  3.508e-03  linmin: -2.704e-02  t[s]:     59.96
	FillingsUpdate:  mu: -0.150639264  nElectrons: 9.000000
	SubspaceRotationAdjust: set factor to 1.1
ElecMinimize: Iter:  77  F: -8.221814456745465  |grad|_K:  2.117e-05  alpha:  9.460e-03  linmin: -4.479e-02  t[s]:     60.47
ElecMinimize: 	Predicted alpha/alphaT>3.000000, increasing alphaT to 2.838110e-02.
ElecMinimize: 	Predicted alpha/alphaT>3.000000, increasing alphaT to 8.514329e-02.
	FillingsUpdate:  mu: -0.157564791  nElectrons: 9.000000
	SubspaceRotationAdjust: set factor to 1.13
ElecMinimize: Iter:  78  F: -8.222048993420030  |grad|_K:  3.327e-05  alpha:  2.160e-01  linmin:  3.557e-06  t[s]:     61.35
	FillingsUpdate:  mu: -0.175408946  nElectrons: 9.000000
	SubspaceRotationAdjust: set factor to 1.14
ElecMinimize: Iter:  79  F: -8.222122749051133  |grad|_K:  4.267e-05  alpha:  6.762e-02  linmin: -1.490e-03  t[s]:     61.87
	FillingsUpdate:  mu: -0.200000000  nElectrons: 9.000000
	SubspaceRotationAdjust: set factor to 1.22
ElecMinimize: Iter:  80  F: -8.222132246911903  |grad|_K:  4.048e-05  alpha:  1.397e-01  linmin:  7.142e-03  t[s]:     62.38
	FillingsUpdate:  mu: -0.201420167  nElectrons: 9.000000
	SubspaceRotationAdjust: set factor to 1.5
ElecMinimize: Iter:  81  F: -8.222140937927827  |grad|_K:  3.993e-05  alpha:  1.727e-02  linmin: -3.230e-04  t[s]:     62.91
ElecMinimize: 	Predicted alpha/alphaT>3.000000, increasing alphaT to 5.180113e-02.
	FillingsUpdate:  mu: -0.196869964  nElectrons: 9.000000
	SubspaceRotationAdjust: set factor to 1.88
ElecMinimize: Iter:  82  F: -8.222267062664759  |grad|_K:  3.922e-05  alpha:  6.380e-02  linmin:  4.426e-05  t[s]:     63.61
ElecMinimize: 	Wrong curvature in test step, increasing alphaT to 1.914006e-01.
	FillingsUpdate:  mu: -0.175484875  nElectrons: 9.000000
	SubspaceRotationAdjust: set factor to 2.29
ElecMinimize: Iter:  83  F: -8.222533976764510  |grad|_K:  4.014e-05  alpha: -2.596e-01  linmin:  8.391e-04  t[s]:     64.10
	FillingsUpdate:  mu: -0.184548064  nElectrons: 9.000000
	SubspaceRotationAdjust: set factor to 2.88
ElecMinimize: Iter:  84  F: -8.223164078331051  |grad|_K:  4.345e-05  alpha:  1.988e-02  linmin: -4.404e-03  t[s]:     64.63
ElecMinimize: 	Predicted alpha/alphaT>3.000000, increasing alphaT to 5.963461e-02.
	FillingsUpdate:  mu: -0.162058123  nElectrons: 9.000000
	SubspaceRotationAdjust: set factor to 3.59
ElecMinimize: Iter:  85  F: -8.223418166081968  |grad|_K:  3.757e-05  alpha:  4.289e-02  linmin: -7.477e-04  t[s]:     65.33
	FillingsUpdate:  mu: -0.159003970  nElectrons: 9.000000
	SubspaceRotationAdjust: set factor to 4.62
ElecMinimize: Iter:  86  F: -8.223465659719748  |grad|_K:  3.757e-05  alpha:  1.414e-02  linmin: -2.248e-03  t[s]:     65.85
ElecMinimize: 	Predicted alpha/alphaT>3.000000, increasing alphaT to 4.240632e-02.
ElecMinimize: 	Wrong curvature in test step, increasing alphaT to 1.272190e-01.
	FillingsUpdate:  mu: -0.140141674  nElectrons: 9.000000
	SubspaceRotationAdjust: set factor to 5.55
	SubspaceRotationAdjust: resetting CG because factor has changed by 8.39042
ElecMinimize: 	State modified externally: resetting search direction.
ElecMinimize: Iter:  87  F: -8.223753821362514  |grad|_K:  4.499e-05  alpha: -1.652e-01
	FillingsUpdate:  mu: -0.169280342  nElectrons: 9.000000
	SubspaceRotationAdjust: set factor to 6.51
ElecMinimize: Iter:  88  F: -8.224430522073515  |grad|_K:  3.641e-05  alpha:  3.521e-02  linmin: -5.794e-03  t[s]:     67.30
ElecMinimize: 	Wrong curvature in test step, increasing alphaT to 1.056418e-01.
	FillingsUpdate:  mu: -0.183255997  nElectrons: 9.000000
	SubspaceRotationAdjust: set factor to 6.8
ElecMinimize: Iter:  89  F: -8.224637319773576  |grad|_K:  3.134e-05  alpha: -7.970e-01  linmin: -6.617e-03  t[s]:     67.78
	FillingsUpdate:  mu: -0.193724873  nElectrons: 9.000000
	SubspaceRotationAdjust: set factor to 7.6
ElecMinimize: Iter:  90  F: -8.224835206380789  |grad|_K:  3.360e-05  alpha:  5.677e-02  linmin: -6.037e-03  t[s]:     68.30
	FillingsUpdate:  mu: -0.188433703  nElectrons: 9.000000
	SubspaceRotationAdjust: set factor to 9.26
ElecMinimize: Iter:  91  F: -8.225048216280083  |grad|_K:  3.283e-05  alpha:  4.037e-02  linmin: -6.472e-03  t[s]:     68.82
	FillingsUpdate:  mu: -0.177875188  nElectrons: 9.000000
	SubspaceRotationAdjust: set factor to 10.7
ElecMinimize: Iter:  92  F: -8.225163422833152  |grad|_K:  3.025e-05  alpha:  4.082e-03  linmin: -8.643e-03  t[s]:     69.33
ElecMinimize: 	Predicted alpha/alphaT>3.000000, increasing alphaT to 1.224673e-02.
	FillingsUpdate:  mu: -0.177574238  nElectrons: 9.000000
	SubspaceRotationAdjust: set factor to 11.9
ElecMinimize: Iter:  93  F: -8.225189157207026  |grad|_K:  3.008e-05  alpha:  2.906e-03  linmin: -1.138e-02  t[s]:     70.04
ElecMinimize: 	Predicted alpha/alphaT>3.000000, increasing alphaT to 8.718108e-03.
ElecMinimize: 	Predicted alpha/alphaT>3.000000, increasing alphaT to 2.615433e-02.
ElecMinimize: 	Predicted alpha/alphaT>3.000000, increasing alphaT to 7.846298e-02.
	FillingsUpdate:  mu: -0.149928404  nElectrons: 9.000000
	SubspaceRotationAdjust: set factor to 8.6
ElecMinimize: Iter:  94  F: -8.225746976618371  |grad|_K:  4.796e-05  alpha:  8.119e-02  linmin: -6.186e-03  t[s]:     70.91
	FillingsUpdate:  mu: -0.148383163  nElectrons: 9.000000
	SubspaceRotationAdjust: set factor to 6.72
ElecMinimize: Iter:  95  F: -8.225860990174223  |grad|_K:  4.552e-05  alpha:  6.553e-03  linmin: -1.281e-02  t[s]:     71.44
ElecMinimize: 	Wrong curvature in test step, increasing alphaT to 1.965937e-02.
	FillingsUpdate:  mu: -0.148536934  nElectrons: 9.000000
	SubspaceRotationAdjust: set factor to 5.96
ElecMinimize: Iter:  96  F: -8.226024454980326  |grad|_K:  4.174e-05  alpha: -1.292e-02  linmin: -1.375e-02  t[s]:     71.91
	FillingsUpdate:  mu: -0.150188053  nElectrons: 9.000000
	SubspaceRotationAdjust: set factor to 6.5
ElecMinimize: Iter:  97  F: -8.226267858527757  |grad|_K:  3.745e-05  alpha:  1.238e-02  linmin: -1.041e-02  t[s]:     72.46
	FillingsUpdate:  mu: -0.150356204  nElectrons: 9.000000
	SubspaceRotationAdjust: set factor to 6.88
ElecMinimize: Iter:  98  F: -8.226285803507832  |grad|_K:  3.783e-05  alpha:  1.022e-03  linmin: -9.366e-03  t[s]:     72.98
ElecMinimize: 	Predicted alpha/alphaT>3.000000, increasing alphaT to 3.066222e-03.
ElecMinimize: 	Predicted alpha/alphaT>3.000000, increasing alphaT to 9.198665e-03.
	FillingsUpdate:  mu: -0.150522317  nElectrons: 9.000000
	SubspaceRotationAdjust: set factor to 7.2
ElecMinimize: Iter:  99  F: -8.226303628140560  |grad|_K:  3.783e-05  alpha:  8.403e-04  linmin: -8.544e-03  t[s]:     73.86
ElecMinimize: 	Predicted alpha/alphaT>3.000000, increasing alphaT to 2.520887e-03.
ElecMinimize: 	Predicted alpha/alphaT>3.000000, increasing alphaT to 7.562662e-03.
ElecMinimize: 	Wrong curvature in test step, increasing alphaT to 2.268799e-02.
	FillingsUpdate:  mu: -0.154384340  nElectrons: 9.000000
	SubspaceRotationAdjust: set factor to 10.9
ElecMinimize: Iter: 100  F: -8.226515147109865  |grad|_K:  3.111e-05  alpha: -2.740e-02  linmin: -7.551e-03  t[s]:     74.69
ElecMinimize: 	Step increased F by 1.031152e-03, reducing alpha to 4.692641e-04.
	FillingsUpdate:  mu: -0.154516631  nElectrons: 9.000000
	SubspaceRotationAdjust: set factor to 13.1
ElecMinimize: Iter: 101  F: -8.226522916743029  |grad|_K:  3.328e-05  alpha:  4.693e-04  linmin: -7.293e-03  t[s]:     75.51
ElecMinimize: 	Predicted alpha/alphaT>3.000000, increasing alphaT to 1.407792e-03.
ElecMinimize: 	Predicted alpha/alphaT>3.000000, increasing alphaT to 4.223377e-03.
ElecMinimize: 	Predicted alpha/alphaT>3.000000, increasing alphaT to 1.267013e-02.
ElecMinimize: 	Step increased F by 6.978283e-04, reducing alpha to 4.089475e-03.
	FillingsUpdate:  mu: -0.156198984  nElectrons: 9.000000
	SubspaceRotationAdjust: set factor to 18.6
ElecMinimize: Iter: 102  F: -8.226606698742554  |grad|_K:  2.966e-05  alpha:  4.089e-03  linmin: -6.532e-03  t[s]:     76.69
ElecMinimize: 	Predicted alpha/alphaT>3.000000, increasing alphaT to 1.226843e-02.
ElecMinimize: 	Step increased F by 1.392742e-04, reducing alpha to 2.708077e-03.
	FillingsUpdate:  mu: -0.157380350  nElectrons: 9.000000
	SubspaceRotationAdjust: set factor to 24.2
ElecMinimize: Iter: 103  F: -8.226652476593628  |grad|_K:  2.824e-05  alpha:  2.708e-03  linmin: -5.981e-03  t[s]:     77.68
ElecMinimize: 	Wrong curvature in test step, increasing alphaT to 8.124231e-03.
	FillingsUpdate:  mu: -0.166302578  nElectrons: 9.000000
	SubspaceRotationAdjust: set factor to 26.3
ElecMinimize: Iter: 104  F: -8.226709423266902  |grad|_K:  2.467e-05  alpha: -5.186e-03  linmin: -4.676e-03  t[s]:     78.16
	FillingsUpdate:  mu: -0.169724280  nElectrons: 9.000000
	SubspaceRotationAdjust: set factor to 28.8
ElecMinimize: Iter: 105  F: -8.226744406396055  |grad|_K:  2.595e-05  alpha:  3.125e-03  linmin: -4.620e-03  t[s]:     78.69
ElecMinimize: 	Predicted alpha/alphaT>3.000000, increasing alphaT to 9.374536e-03.
	FillingsUpdate:  mu: -0.173757061  nElectrons: 9.000000
	SubspaceRotationAdjust: set factor to 19.5
ElecMinimize: Iter: 106  F: -8.226782050679372  |grad|_K:  4.719e-05  alpha:  4.193e-03  linmin: -1.221e-03  t[s]:     79.38
	FillingsUpdate:  mu: -0.174225443  nElectrons: 9.000000
	SubspaceRotationAdjust: set factor to 28.4
ElecMinimize: Iter: 107  F: -8.226800354103304  |grad|_K:  2.989e-05  alpha:  4.942e-04  linmin: -5.234e-03  t[s]:     79.92
	FillingsUpdate:  mu: -0.174233020  nElectrons: 9.000000
	SubspaceRotationAdjust: set factor to 32.7
ElecMinimize: Iter: 108  F: -8.226800925133659  |grad|_K:  3.217e-05  alpha:  3.403e-05  linmin: -7.160e-03  t[s]:     80.44
ElecMinimize: 	Predicted alpha/alphaT>3.000000, increasing alphaT to 1.020825e-04.
ElecMinimize: 	Predicted alpha/alphaT>3.000000, increasing alphaT to 3.062475e-04.
ElecMinimize: 	Predicted alpha/alphaT>3.000000, increasing alphaT to 9.187425e-04.
ElecMinimize: 	Step increased F by 8.589750e-04, reducing alpha to 4.140592e-03.
ElecMinimize: 	Step increased F by 1.454032e-05, reducing alpha to 4.140592e-04.
	FillingsUpdate:  mu: -0.174328951  nElectrons: 9.000000
	SubspaceRotationAdjust: set factor to 18.1
ElecMinimize: Iter: 109  F: -8.226809540939273  |grad|_K:  7.680e-05  alpha:  4.141e-04  linmin:  2.311e-03  t[s]:     81.90
ElecMinimize: 	Bad step direction: g.d > 0.
ElecMinimize: 	Undoing step.
ElecMinimize: 	Step failed: resetting search direction.
	FillingsUpdate:  mu: -0.174328951  nElectrons: 9.000000
	SubspaceRotationAdjust: set factor to 10.9
ElecMinimize: Iter: 110  F: -8.226809540939174  |grad|_K:  5.944e-05  alpha:  0.000e+00
	FillingsUpdate:  mu: -0.174223847  nElectrons: 9.000000
	SubspaceRotationAdjust: set factor to 15.9
ElecMinimize: Iter: 111  F: -8.226810670217633  |grad|_K:  2.775e-05  alpha:  3.284e-04  linmin: -3.444e-03  t[s]:     82.76
ElecMinimize: 	Predicted alpha/alphaT>3.000000, increasing alphaT to 9.853472e-04.
ElecMinimize: 	Predicted alpha/alphaT>3.000000, increasing alphaT to 2.956042e-03.
ElecMinimize: 	Predicted alpha/alphaT>3.000000, increasing alphaT to 8.868125e-03.
	FillingsUpdate:  mu: -0.154480350  nElectrons: 9.000000
	SubspaceRotationAdjust: set factor to 12.6
ElecMinimize: Iter: 112  F: -8.226901881546183  |grad|_K:  2.653e-05  alpha:  6.114e-02  linmin: -1.848e-03  t[s]:     83.65
ElecMinimize: 	Predicted alpha/alphaT>3.000000, increasing alphaT to 1.834138e-01.
ElecMinimize: 	Predicted alpha/alphaT>3.000000, increasing alphaT to 5.502414e-01.
ElecMinimize: 	Step increased F by 2.411800e-03, reducing alpha to 7.078776e-02.
	FillingsUpdate:  mu: -0.153125359  nElectrons: 9.000000
	SubspaceRotationAdjust: set factor to 18
ElecMinimize: Iter: 113  F: -8.227067745249222  |grad|_K:  2.457e-05  alpha:  7.079e-02  linmin: -2.486e-02  t[s]:     84.83
	FillingsUpdate:  mu: -0.182357309  nElectrons: 9.000000
	SubspaceRotationAdjust: set factor to 9.07
ElecMinimize: Iter: 114  F: -8.227229193234148  |grad|_K:  2.653e-04  alpha:  8.794e-02  linmin:  6.514e-03  t[s]:     85.37
ElecMinimize: 	Bad step direction: g.d > 0.
ElecMinimize: 	Undoing step.
ElecMinimize: 	Step failed: resetting search direction.
	FillingsUpdate:  mu: -0.182357309  nElectrons: 9.000000
	SubspaceRotationAdjust: set factor to 4.6
ElecMinimize: Iter: 115  F: -8.227229193234148  |grad|_K:  1.889e-04  alpha:  0.000e+00
	FillingsUpdate:  mu: -0.162602021  nElectrons: 9.000000
	SubspaceRotationAdjust: set factor to 4.57
ElecMinimize: Iter: 116  F: -8.227396823155424  |grad|_K:  1.932e-05  alpha:  4.475e-02  linmin: -2.247e-03  t[s]:     86.23
ElecMinimize: 	Predicted alpha/alphaT>3.000000, increasing alphaT to 1.342639e-01.
ElecMinimize: 	Predicted alpha/alphaT>3.000000, increasing alphaT to 4.027917e-01.
ElecMinimize: 	Wrong curvature in test step, increasing alphaT to 1.208375e+00.
	FillingsUpdate:  mu: -0.160277338  nElectrons: 9.000000
	SubspaceRotationAdjust: set factor to 4.57
ElecMinimize: Iter: 117  F: -8.227832773649565  |grad|_K:  1.967e-05  alpha: -1.116e+00  linmin: -1.077e-01  t[s]:     87.05
	FillingsUpdate:  mu: -0.159024849  nElectrons: 9.000000
	SubspaceRotationAdjust: set factor to 4.61
ElecMinimize: Iter: 118  F: -8.228377636343344  |grad|_K:  1.399e-05  alpha:  3.281e-01  linmin: -5.700e-02  t[s]:     87.58
	FillingsUpdate:  mu: -0.158506765  nElectrons: 9.000000
	SubspaceRotationAdjust: set factor to 4.57
ElecMinimize: Iter: 119  F: -8.228746369916513  |grad|_K:  1.325e-05  alpha:  6.401e-01  linmin: -5.048e-04  t[s]:     88.10
	FillingsUpdate:  mu: -0.158640189  nElectrons: 9.000000
	SubspaceRotationAdjust: set factor to 5.05
ElecMinimize: Iter: 120  F: -8.228769728507993  |grad|_K:  3.768e-06  alpha:  1.076e-01  linmin:  5.614e-04  t[s]:     88.62
	FillingsUpdate:  mu: -0.158425393  nElectrons: 9.000000
	SubspaceRotationAdjust: set factor to 4.95
ElecMinimize: Iter: 121  F: -8.228773814881205  |grad|_K:  4.660e-06  alpha:  2.393e-01  linmin: -2.313e-06  t[s]:     89.15
ElecMinimize: 	Step increased F by 2.928339e-04, reducing alpha to 3.888918e-02.
	FillingsUpdate:  mu: -0.158358480  nElectrons: 9.000000
	SubspaceRotationAdjust: set factor to 5.07
ElecMinimize: Iter: 122  F: -8.228775768969497  |grad|_K:  4.450e-06  alpha:  3.889e-02  linmin: -2.544e-03  t[s]:     89.96
ElecMinimize: 	Predicted alpha/alphaT>3.000000, increasing alphaT to 1.166676e-01.
	FillingsUpdate:  mu: -0.158070835  nElectrons: 9.000000
	SubspaceRotationAdjust: set factor to 5.35
ElecMinimize: Iter: 123  F: -8.228784119533046  |grad|_K:  4.847e-06  alpha:  1.827e-01  linmin:  1.824e-05  t[s]:     90.67
	FillingsUpdate:  mu: -0.158030330  nElectrons: 9.000000
	SubspaceRotationAdjust: set factor to 5.48
ElecMinimize: Iter: 124  F: -8.228791010009639  |grad|_K:  6.214e-06  alpha:  2.474e-01  linmin:  1.204e-04  t[s]:     91.20
ElecMinimize: 	Wrong curvature in test step, increasing alphaT to 7.422185e-01.
	FillingsUpdate:  mu: -0.178792477  nElectrons: 9.000000
	SubspaceRotationAdjust: set factor to 5.42
ElecMinimize: Iter: 125  F: -8.229061210869080  |grad|_K:  1.805e-05  alpha: -1.099e-02  linmin: -1.581e-02  t[s]:     91.68
ElecMinimize: 	Step increased F by 1.166527e-02, reducing alpha to 3.708195e-03.
ElecMinimize: 	Step increased F by 8.785782e-04, reducing alpha to 3.708195e-04.
ElecMinimize: 	Step increased F by 8.861045e-04, reducing alpha to 3.708195e-05.
ElecMinimize: 	Step failed to reduce F after 3 attempts. Quitting step.
ElecMinimize: 	Undoing step.
ElecMinimize: 	Step failed: resetting search direction.
	FillingsUpdate:  mu: -0.180080274  nElectrons: 9.000000
	SubspaceRotationAdjust: set factor to 6.07
ElecMinimize: Iter: 126  F: -8.228174979773904  |grad|_K:  1.975e-05  alpha:  3.708e-05
	FillingsUpdate:  mu: -0.159180266  nElectrons: 9.000000
	SubspaceRotationAdjust: set factor to 5.36
ElecMinimize: Iter: 127  F: -8.229173863133544  |grad|_K:  2.466e-05  alpha:  2.615e-01  linmin: -6.297e-04  t[s]:     93.63
ElecMinimize: 	Predicted alpha/alphaT>3.000000, increasing alphaT to 7.843768e-01.
	FillingsUpdate:  mu: -0.186642857  nElectrons: 9.000000
	SubspaceRotationAdjust: set factor to 4.31
ElecMinimize: Iter: 128  F: -8.229418749818635  |grad|_K:  3.553e-05  alpha:  4.611e-01  linmin: -5.181e-03  t[s]:     94.34
ElecMinimize: 	Step increased F by 2.363592e-03, reducing alpha to 6.151910e-02.
	FillingsUpdate:  mu: -0.181130181  nElectrons: 9.000000
	SubspaceRotationAdjust: set factor to 2.57
ElecMinimize: Iter: 129  F: -8.229743451854890  |grad|_K:  5.596e-05  alpha:  6.152e-02  linmin: -3.889e-03  t[s]:     95.19
	FillingsUpdate:  mu: -0.141693349  nElectrons: 9.000000
	SubspaceRotationAdjust: set factor to 2.16
ElecMinimize: Iter: 130  F: -8.230703508630501  |grad|_K:  2.879e-05  alpha:  6.809e-02  linmin: -4.956e-03  t[s]:     95.71
ElecMinimize: 	Predicted alpha/alphaT>3.000000, increasing alphaT to 2.042694e-01.
	FillingsUpdate:  mu: -0.141371547  nElectrons: 9.000000
	SubspaceRotationAdjust: set factor to 2.59
ElecMinimize: Iter: 131  F: -8.230791699187016  |grad|_K:  2.660e-05  alpha:  2.627e-02  linmin: -7.500e-03  t[s]:     96.41
ElecMinimize: 	Predicted alpha/alphaT>3.000000, increasing alphaT to 7.880256e-02.
ElecMinimize: 	Predicted alpha/alphaT>3.000000, increasing alphaT to 2.364077e-01.
	FillingsUpdate:  mu: -0.142132572  nElectrons: 9.000000
	SubspaceRotationAdjust: set factor to 3.06
ElecMinimize: Iter: 132  F: -8.230877897969496  |grad|_K:  2.425e-05  alpha:  1.992e-02  linmin: -8.723e-03  t[s]:     97.30
ElecMinimize: 	Predicted alpha/alphaT>3.000000, increasing alphaT to 5.976899e-02.
ElecMinimize: 	Predicted alpha/alphaT>3.000000, increasing alphaT to 1.793070e-01.
	FillingsUpdate:  mu: -0.143714380  nElectrons: 9.000000
	SubspaceRotationAdjust: set factor to 3.74
ElecMinimize: Iter: 133  F: -8.230967837363627  |grad|_K:  2.138e-05  alpha:  1.964e-02  linmin: -8.316e-03  t[s]:     98.18
ElecMinimize: 	Wrong curvature in test step, increasing alphaT to 5.891532e-02.
	FillingsUpdate:  mu: -0.151622425  nElectrons: 9.000000
	SubspaceRotationAdjust: set factor to 4.36
ElecMinimize: Iter: 134  F: -8.231088226837379  |grad|_K:  1.702e-05  alpha: -2.579e-02  linmin: -9.035e-03  t[s]:     98.65
	FillingsUpdate:  mu: -0.158833016  nElectrons: 9.000000
	SubspaceRotationAdjust: set factor to 4.44
ElecMinimize: Iter: 135  F: -8.231160714196438  |grad|_K:  1.514e-05  alpha:  2.223e-02  linmin: -7.684e-03  t[s]:     99.17
ElecMinimize: 	Predicted alpha/alphaT>3.000000, increasing alphaT to 6.668892e-02.
	FillingsUpdate:  mu: -0.168587631  nElectrons: 9.000000
	SubspaceRotationAdjust: set factor to 4.41
ElecMinimize: Iter: 136  F: -8.231213181974539  |grad|_K:  1.776e-05  alpha:  4.356e-02  linmin: -4.951e-03  t[s]:     99.88
	FillingsUpdate:  mu: -0.175984710  nElectrons: 9.000000
	SubspaceRotationAdjust: set factor to 5.41
ElecMinimize: Iter: 137  F: -8.231250201038815  |grad|_K:  2.198e-05  alpha:  3.669e-02  linmin: -4.662e-03  t[s]:    100.40
ElecMinimize: 	Step increased F by 2.915587e-03, reducing alpha to 7.286500e-03.
	FillingsUpdate:  mu: -0.176256259  nElectrons: 9.000000
	SubspaceRotationAdjust: set factor to 6.33
ElecMinimize: Iter: 138  F: -8.231276302725075  |grad|_K:  2.289e-05  alpha:  7.286e-03  linmin: -9.212e-03  t[s]:    101.22
ElecMinimize: 	Predicted alpha/alphaT>3.000000, increasing alphaT to 2.185950e-02.
ElecMinimize: 	Predicted alpha/alphaT>3.000000, increasing alphaT to 6.557850e-02.
	FillingsUpdate:  mu: -0.175898744  nElectrons: 9.000000
	SubspaceRotationAdjust: set factor to 6.61
ElecMinimize: Iter: 139  F: -8.231334259533208  |grad|_K:  2.212e-05  alpha:  1.279e-02  linmin: -1.793e-02  t[s]:    102.10
ElecMinimize: 	Wrong curvature in test step, increasing alphaT to 3.836190e-02.
	FillingsUpdate:  mu: -0.169528788  nElectrons: 9.000000
	SubspaceRotationAdjust: set factor to 7.86
ElecMinimize: Iter: 140  F: -8.231437212369066  |grad|_K:  1.598e-05  alpha: -1.061e-02  linmin: -1.541e-02  t[s]:    102.58
	FillingsUpdate:  mu: -0.153509784  nElectrons: 9.000000
	SubspaceRotationAdjust: set factor to 5.54
ElecMinimize: Iter: 141  F: -8.231529824535027  |grad|_K:  9.471e-06  alpha:  3.527e-02  linmin: -6.229e-03  t[s]:    103.10
ElecMinimize: 	Predicted alpha/alphaT>3.000000, increasing alphaT to 1.058062e-01.
ElecMinimize: 	Step increased F by 3.737667e-06, reducing alpha to 5.378859e-03.
	FillingsUpdate:  mu: -0.153444181  nElectrons: 9.000000
	SubspaceRotationAdjust: set factor to 5.47
ElecMinimize: Iter: 142  F: -8.231532510544760  |grad|_K:  8.537e-06  alpha:  5.379e-03  linmin: -9.195e-03  t[s]:    104.10
ElecMinimize: 	Predicted alpha/alphaT>3.000000, increasing alphaT to 1.613658e-02.
ElecMinimize: 	Predicted alpha/alphaT>3.000000, increasing alphaT to 4.840973e-02.
ElecMinimize: 	Predicted alpha/alphaT>3.000000, increasing alphaT to 1.452292e-01.
	FillingsUpdate:  mu: -0.160733949  nElectrons: 9.000000
	SubspaceRotationAdjust: set factor to 3.49
ElecMinimize: Iter: 143  F: -8.231584299349844  |grad|_K:  6.614e-06  alpha:  1.630e-01  linmin:  5.939e-04  t[s]:    104.97
	FillingsUpdate:  mu: -0.160599245  nElectrons: 9.000000
	SubspaceRotationAdjust: set factor to 3.39
ElecMinimize: Iter: 144  F: -8.231587372913687  |grad|_K:  5.135e-06  alpha:  7.112e-02  linmin:  1.776e-05  t[s]:    105.49
	FillingsUpdate:  mu: -0.160024324  nElectrons: 9.000000
	SubspaceRotationAdjust: set factor to 3.47
ElecMinimize: Iter: 145  F: -8.231589915881553  |grad|_K:  3.972e-06  alpha:  7.943e-02  linmin: -3.128e-06  t[s]:    106.00
	FillingsUpdate:  mu: -0.159386902  nElectrons: 9.000000
	SubspaceRotationAdjust: set factor to 4.71
ElecMinimize: Iter: 146  F: -8.231591680999241  |grad|_K:  3.332e-06  alpha:  9.197e-02  linmin: -8.094e-06  t[s]:    106.53
	FillingsUpdate:  mu: -0.159033030  nElectrons: 9.000000
	SubspaceRotationAdjust: set factor to 4.9
ElecMinimize: Iter: 147  F: -8.231592773425369  |grad|_K:  2.401e-06  alpha:  8.081e-02  linmin: -6.301e-06  t[s]:    107.04
	FillingsUpdate:  mu: -0.159051256  nElectrons: 9.000000
	SubspaceRotationAdjust: set factor to 5.02
ElecMinimize: Iter: 148  F: -8.231593361561167  |grad|_K:  2.076e-06  alpha:  8.371e-02  linmin: -4.015e-06  t[s]:    107.57
	FillingsUpdate:  mu: -0.159323228  nElectrons: 9.000000
	SubspaceRotationAdjust: set factor to 5.66
ElecMinimize: Iter: 149  F: -8.231593991521365  |grad|_K:  2.394e-06  alpha:  1.201e-01  linmin: -1.991e-07  t[s]:    108.08
	FillingsUpdate:  mu: -0.159646953  nElectrons: 9.000000
	SubspaceRotationAdjust: set factor to 6.97
ElecMinimize: Iter: 150  F: -8.231594784741038  |grad|_K:  2.474e-06  alpha:  1.138e-01  linmin:  4.042e-07  t[s]:    108.60
	FillingsUpdate:  mu: -0.159630544  nElectrons: 9.000000
	SubspaceRotationAdjust: set factor to 8.76
ElecMinimize: Iter: 151  F: -8.231595463383293  |grad|_K:  2.274e-06  alpha:  9.126e-02  linmin:  2.380e-07  t[s]:    109.14
	FillingsUpdate:  mu: -0.159265467  nElectrons: 9.000000
	SubspaceRotationAdjust: set factor to 8.56
ElecMinimize: Iter: 152  F: -8.231596018852084  |grad|_K:  2.202e-06  alpha:  8.840e-02  linmin:  1.093e-06  t[s]:    109.67
	FillingsUpdate:  mu: -0.158803537  nElectrons: 9.000000
	SubspaceRotationAdjust: set factor to 9.04
ElecMinimize: Iter: 153  F: -8.231596606683407  |grad|_K:  2.368e-06  alpha:  9.985e-02  linmin: -2.981e-07  t[s]:    110.18
	FillingsUpdate:  mu: -0.158716693  nElectrons: 9.000000
	SubspaceRotationAdjust: set factor to 8.26
ElecMinimize: Iter: 154  F: -8.231597229145994  |grad|_K:  2.158e-06  alpha:  9.130e-02  linmin: -1.000e-07  t[s]:    110.71
	FillingsUpdate:  mu: -0.159042417  nElectrons: 9.000000
	SubspaceRotationAdjust: set factor to 11.6
ElecMinimize: Iter: 155  F: -8.231597606814809  |grad|_K:  1.523e-06  alpha:  6.671e-02  linmin: -5.464e-09  t[s]:    111.22
	FillingsUpdate:  mu: -0.159359777  nElectrons: 9.000000
	SubspaceRotationAdjust: set factor to 10.3
ElecMinimize: Iter: 156  F: -8.231597815312071  |grad|_K:  1.306e-06  alpha:  7.397e-02  linmin: -1.033e-06  t[s]:    111.74
	FillingsUpdate:  mu: -0.159473329  nElectrons: 9.000000
	SubspaceRotationAdjust: set factor to 10.8
ElecMinimize: Iter: 157  F: -8.231598014218957  |grad|_K:  1.245e-06  alpha:  9.587e-02  linmin: -1.066e-06  t[s]:    112.27
	FillingsUpdate:  mu: -0.159366882  nElectrons: 9.000000
	SubspaceRotationAdjust: set factor to 14.3
ElecMinimize: Iter: 158  F: -8.231598170336898  |grad|_K:  1.000e-06  alpha:  8.282e-02  linmin: -6.672e-08  t[s]:    112.79
	FillingsUpdate:  mu: -0.159307376  nElectrons: 9.000000
	SubspaceRotationAdjust: set factor to 13.4
ElecMinimize: Iter: 159  F: -8.231598264507010  |grad|_K:  8.514e-07  alpha:  7.748e-02  linmin:  9.840e-07  t[s]:    113.32
	FillingsUpdate:  mu: -0.159447076  nElectrons: 9.000000
	SubspaceRotationAdjust: set factor to 14.9
ElecMinimize: Iter: 160  F: -8.231598342233127  |grad|_K:  8.284e-07  alpha:  8.828e-02  linmin:  8.464e-07  t[s]:    113.85
	FillingsUpdate:  mu: -0.159649278  nElectrons: 9.000000
	SubspaceRotationAdjust: set factor to 16
ElecMinimize: Iter: 161  F: -8.231598430785429  |grad|_K:  9.405e-07  alpha:  1.062e-01  linmin:  2.110e-08  t[s]:    114.37
	FillingsUpdate:  mu: -0.159647093  nElectrons: 9.000000
	SubspaceRotationAdjust: set factor to 15.7
ElecMinimize: Iter: 162  F: -8.231598531816598  |grad|_K:  9.305e-07  alpha:  9.399e-02  linmin: -7.731e-07  t[s]:    114.89
	FillingsUpdate:  mu: -0.159504519  nElectrons: 9.000000
	SubspaceRotationAdjust: set factor to 17.5
ElecMinimize: Iter: 163  F: -8.231598622795762  |grad|_K:  8.862e-07  alpha:  8.641e-02  linmin: -2.068e-07  t[s]:    115.41
	FillingsUpdate:  mu: -0.159520155  nElectrons: 9.000000
	SubspaceRotationAdjust: set factor to 19.6
ElecMinimize: Iter: 164  F: -8.231598698777066  |grad|_K:  7.533e-07  alpha:  7.959e-02  linmin:  5.533e-07  t[s]:    115.94
	FillingsUpdate:  mu: -0.159639495  nElectrons: 9.000000
	SubspaceRotationAdjust: set factor to 18
ElecMinimize: Iter: 165  F: -8.231598754837215  |grad|_K:  7.814e-07  alpha:  8.131e-02  linmin:  5.104e-07  t[s]:    116.46
	FillingsUpdate:  mu: -0.159586670  nElectrons: 9.000000
	SubspaceRotationAdjust: set factor to 24.7
ElecMinimize: Iter: 166  F: -8.231598814112321  |grad|_K:  5.910e-07  alpha:  7.991e-02  linmin:  4.562e-09  t[s]:    116.97
	FillingsUpdate:  mu: -0.159440648  nElectrons: 9.000000
	SubspaceRotationAdjust: set factor to 20.5
ElecMinimize: Iter: 167  F: -8.231598841955737  |grad|_K:  5.285e-07  alpha:  6.559e-02  linmin: -1.837e-07  t[s]:    117.51
	FillingsUpdate:  mu: -0.159390782  nElectrons: 9.000000
	SubspaceRotationAdjust: set factor to 25.4
ElecMinimize: Iter: 168  F: -8.231598876049453  |grad|_K:  4.358e-07  alpha:  1.004e-01  linmin: -4.142e-07  t[s]:    118.03
	FillingsUpdate:  mu: -0.159455178  nElectrons: 9.000000
	SubspaceRotationAdjust: set factor to 21
ElecMinimize: Iter: 169  F: -8.231598892886772  |grad|_K:  3.905e-07  alpha:  7.294e-02  linmin: -1.208e-07  t[s]:    118.55
	FillingsUpdate:  mu: -0.159399314  nElectrons: 9.000000
	SubspaceRotationAdjust: set factor to 21
ElecMinimize: Iter: 170  F: -8.231598909723534  |grad|_K:  3.295e-07  alpha:  9.084e-02  linmin:  2.740e-07  t[s]:    119.10
	FillingsUpdate:  mu: -0.159335022  nElectrons: 9.000000
	SubspaceRotationAdjust: set factor to 19.6
ElecMinimize: Iter: 171  F: -8.231598924649145  |grad|_K:  3.422e-07  alpha:  1.131e-01  linmin: -1.608e-07  t[s]:    119.61
	FillingsUpdate:  mu: -0.159367458  nElectrons: 9.000000
	SubspaceRotationAdjust: set factor to 18.5
ElecMinimize: Iter: 172  F: -8.231598938053196  |grad|_K:  3.013e-07  alpha:  9.413e-02  linmin:  9.173e-08  t[s]:    120.14
	FillingsUpdate:  mu: -0.159344664  nElectrons: 9.000000
	SubspaceRotationAdjust: set factor to 17.3
ElecMinimize: Iter: 173  F: -8.231598948799832  |grad|_K:  2.769e-07  alpha:  9.740e-02  linmin: -8.519e-09  t[s]:    120.67
	FillingsUpdate:  mu: -0.159278493  nElectrons: 9.000000
	SubspaceRotationAdjust: set factor to 17.6
ElecMinimize: Iter: 174  F: -8.231598961509029  |grad|_K:  3.142e-07  alpha:  1.364e-01  linmin:  3.148e-07  t[s]:    121.18
	FillingsUpdate:  mu: -0.159291483  nElectrons: 9.000000
	SubspaceRotationAdjust: set factor to 16.4
ElecMinimize: Iter: 175  F: -8.231598972411572  |grad|_K:  2.400e-07  alpha:  9.087e-02  linmin: -1.153e-07  t[s]:    121.71
	FillingsUpdate:  mu: -0.159307231  nElectrons: 9.000000
	SubspaceRotationAdjust: set factor to 17.1
ElecMinimize: Iter: 176  F: -8.231598979636221  |grad|_K:  2.123e-07  alpha:  1.031e-01  linmin: -1.215e-06  t[s]:    122.22
	FillingsUpdate:  mu: -0.159279750  nElectrons: 9.000000
	SubspaceRotationAdjust: set factor to 15.4
ElecMinimize: Iter: 177  F: -8.231598985267478  |grad|_K:  2.026e-07  alpha:  1.027e-01  linmin: -2.104e-07  t[s]:    122.74
	FillingsUpdate:  mu: -0.159284489  nElectrons: 9.000000
	SubspaceRotationAdjust: set factor to 17.3
ElecMinimize: Iter: 178  F: -8.231598991084638  |grad|_K:  1.667e-07  alpha:  1.165e-01  linmin: -3.933e-07  t[s]:    123.27
	FillingsUpdate:  mu: -0.159319246  nElectrons: 9.000000
	SubspaceRotationAdjust: set factor to 15.3
ElecMinimize: Iter: 179  F: -8.231598994067792  |grad|_K:  1.391e-07  alpha:  8.828e-02  linmin: -2.970e-07  t[s]:    123.80
ElecMinimize: Converged (|Delta F|<1.000000e-08 for 4 iters).
Setting wave functions to eigenvectors of Hamiltonian

# Ionic positions in lattice coordinates:
ion Cs   0.000000000000000   0.000000000000000   0.000000000000000 0

# Forces in Lattice coordinates:
force Cs   0.000000000000000   0.000000000000000   0.000000000000000 0

# Energy components:
   Eewald =      -68.1057588691798657
       EH =      -66.1801575123311068
     Eloc =      104.1690667595985786
      Enl =       10.6098033509981207
   Epulay =        0.0000000433393944
      Exc =       -5.4530989474707763
       KE =       16.7285462517271455
-------------------------------------
     Etot =       -8.2315989233184936
       TS =        0.0000000707492985
-------------------------------------
        F =       -8.2315989940677916

IonicMinimize: Iter:   0  F: -8.231598994067792  |grad|_K:  0.000e+00  t[s]:    123.85
IonicMinimize: Converged (|grad|_K<1.000000e-04).

#--- Lowdin population analysis ---
# oxidation-state Cs +3.347

End date and time: Sun Jan 16 16:32:45 2022  (Duration: 0-0:02:03.86)
Done!
