0.62
--------------------------------------------------------------------------
The library attempted to open the following supporting CUDA libraries,
but each of them failed.  CUDA-aware support is disabled.
libcuda.so.1: cannot open shared object file: No such file or directory
libcuda.dylib: cannot open shared object file: No such file or directory
/usr/lib64/libcuda.so.1: cannot open shared object file: No such file or directory
/usr/lib64/libcuda.dylib: cannot open shared object file: No such file or directory
If you are not interested in CUDA-aware support, then run with
--mca opal_warn_on_missing_libcuda 0 to suppress this message.  If you are interested
in CUDA-aware support, then try setting LD_LIBRARY_PATH to the location
of libcuda.so.1 to get passed this issue.
--------------------------------------------------------------------------
--------------------------------------------------------------------------
No OpenFabrics connection schemes reported that they were able to be
used on a specific port.  As such, the openib BTL (OpenFabrics
support) will be disabled for this port.

  Local host:           d-4-3-2
  Local device:         mlx5_1
  Local port:           1
  CPCs attempted:       rdmacm, udcm
--------------------------------------------------------------------------

*************** JDFTx 1.6.0 (git hash 42ebbcc2) ***************

Start date and time: Sun Jan 16 16:30:39 2022
Executable jdftx with command-line: -i Cesium.in
Running on hosts (process indices):  d-4-3-2 (0-18)
Divided in process groups (process indices):  0 (0)  1 (1)  2 (2)  3 (3)  4 (4)  5 (5)  6 (6)  7 (7)  8 (8)  9 (9)  10 (10)  11 (11)  12 (12)  13 (13)  14 (14)  15 (15)  16 (16)  17 (17)  18 (18)
Resource initialization completed at t[s]:      0.00
Run totals: 19 processes, 48 threads, 0 GPUs


Input parsed successfully to the following command list (including defaults):

basis kpoint-dependent
coords-type Lattice
core-overlap-check vector
coulomb-interaction Slab 001
davidson-band-ratio 1.1
dump End None
dump-name $INPUT.$VAR
elec-cutoff 20
elec-eigen-algo Davidson
elec-ex-corr gga-PBE
elec-smearing Fermi 1e-05
electronic-minimize  \
	dirUpdateScheme      FletcherReeves \
	linminMethod         DirUpdateRecommended \
	nIterations          10000 \
	history              15 \
	knormThreshold       0 \
	energyDiffThreshold  1e-08 \
	nEnergyDiff          4 \
	alphaTstart          1 \
	alphaTmin            1e-10 \
	updateTestStepSize   yes \
	alphaTreduceFactor   0.1 \
	alphaTincreaseFactor 3 \
	nAlphaAdjustMax      3 \
	wolfeEnergy          0.0001 \
	wolfeGradient        0.9 \
	fdTest               no
exchange-regularization WignerSeitzTruncated
fluid None
fluid-ex-corr (null) lda-PZ
fluid-gummel-loop 10 1.000000e-05
fluid-minimize  \
	dirUpdateScheme      PolakRibiere \
	linminMethod         DirUpdateRecommended \
	nIterations          100 \
	history              15 \
	knormThreshold       0 \
	energyDiffThreshold  0 \
	nEnergyDiff          2 \
	alphaTstart          1 \
	alphaTmin            1e-10 \
	updateTestStepSize   yes \
	alphaTreduceFactor   0.1 \
	alphaTincreaseFactor 3 \
	nAlphaAdjustMax      3 \
	wolfeEnergy          0.0001 \
	wolfeGradient        0.9 \
	fdTest               no
fluid-solvent H2O 55.338 ScalarEOS \
	epsBulk 78.4 \
	pMol 0.92466 \
	epsInf 1.77 \
	Pvap 1.06736e-10 \
	sigmaBulk 4.62e-05 \
	Rvdw 2.61727 \
	Res 1.42 \
	tauNuc 343133 \
	poleEl 15 7 1
forces-output-coords Positions
ion Cs   0.000000000000000   0.000000000000000   0.000000000000000 0
ion-species SG15/$ID_ONCV_PBE.upf
ion-width 0
ionic-minimize  \
	dirUpdateScheme      L-BFGS \
	linminMethod         DirUpdateRecommended \
	nIterations          0 \
	history              15 \
	knormThreshold       0.0001 \
	energyDiffThreshold  1e-06 \
	nEnergyDiff          2 \
	alphaTstart          1 \
	alphaTmin            1e-10 \
	updateTestStepSize   yes \
	alphaTreduceFactor   0.1 \
	alphaTincreaseFactor 3 \
	nAlphaAdjustMax      3 \
	wolfeEnergy          0.0001 \
	wolfeGradient        0.9 \
	fdTest               no
kpoint   0.000000000000   0.000000000000   0.000000000000  1.00000000000000
kpoint-folding 48 48 1 
latt-move-scale 1 1 1
latt-scale 0.62 0.62 1 
lattice  \
	   4.727486978767153   -2.363743489383575    0.000000000000000  \
	  -0.000000000000000    4.094123819672498    0.000000000000000  \
	   0.000000000000000    0.000000000000000   40.000000000000000 
lattice-minimize  \
	dirUpdateScheme      L-BFGS \
	linminMethod         DirUpdateRecommended \
	nIterations          0 \
	history              15 \
	knormThreshold       0 \
	energyDiffThreshold  1e-06 \
	nEnergyDiff          2 \
	alphaTstart          1 \
	alphaTmin            1e-10 \
	updateTestStepSize   yes \
	alphaTreduceFactor   0.1 \
	alphaTincreaseFactor 3 \
	nAlphaAdjustMax      3 \
	wolfeEnergy          0.0001 \
	wolfeGradient        0.9 \
	fdTest               no
lcao-params -1 1e-06 1e-05
pcm-variant GLSSA13
spintype no-spin
subspace-rotation-factor 1 yes
symmetries automatic
symmetry-threshold 0.0001



---------- Setting up symmetries ----------

Found 24 point-group symmetries of the bravais lattice
Found 24 space-group symmetries with basis
Applied RMS atom displacement 0 bohrs to make symmetries exact.

---------- Initializing the Grid ----------
R = 
[      2.93104     -1.46552            0  ]
[            0      2.53836            0  ]
[            0            0           40  ]
unit cell volume = 297.601
G =
[    2.14367    1.23765         -0  ]
[          0     2.4753         -0  ]
[         -0         -0    0.15708  ]
Minimum fftbox size, Smin = [  12  12  164  ]
Chosen fftbox size, S = [  12  12  168  ]

---------- Exchange Correlation functional ----------
Initalized PBE GGA exchange.
Initalized PBE GGA correlation.

---------- Setting up pseudopotentials ----------
Width of ionic core gaussian charges (only for fluid interactions / plotting) set to 0

Reading pseudopotential file '/home/gridsan/aligho/DFT/build-Nov24/pseudopotentials/SG15/Cs_ONCV_PBE.upf':
  'Cs' pseudopotential, 'PBE' functional
  Generated using ONCVPSP code by D. R. Hamann
  Author: Martin Schlipf and Francois Gygi  Date: 150915.
  9 valence electrons, 3 orbitals, 6 projectors, 2414 radial grid points, with lMax = 2
  Transforming local potential to a uniform radial grid of dG=0.02 with 1451 points.
  Transforming nonlocal projectors to a uniform radial grid of dG=0.02 with 432 points.
    5S    l: 0   occupation:  2.0   eigenvalue: -0.982388
    5P    l: 1   occupation:  6.0   eigenvalue: -0.496786
    6S    l: 0   occupation:  1.0   eigenvalue: -0.076670
  Transforming atomic orbitals to a uniform radial grid of dG=0.02 with 432 points.
  Core radius for overlap checks: 2.06 bohrs.
  Reading pulay file /home/gridsan/aligho/DFT/build-Nov24/pseudopotentials/SG15/Cs_ONCV_PBE.pulay ... using dE_dnG = -1.008762e-04 computed for Ecut = 20.

Initialized 1 species with 1 total atoms.

Folded 1 k-points by 48x48x1 to 2304 k-points.

---------- Setting up k-points, bands, fillings ----------
Reduced to 217 k-points under symmetry. 
Computing the number of bands and number of electrons
Calculating initial fillings.
nElectrons:   9.000000   nBands: 6   nStates: 217

----- Setting up reduced wavefunction bases (one per k-point) -----
average nbasis = 1271.337 , ideal nbasis = 1271.375

---------- Setting up coulomb interaction ----------
Initialized slab truncation along lattice direction 001

---------- Setting up 2D ewald sum ----------
Optimum gaussian width for ewald sums = 1.627196 bohr.
Real space sums over 289 unit cells with max indices [  8  8  0  ]
Reciprocal space sums over 81 terms with max indices [  4  4  0  ]

---------- Allocating electronic variables ----------
Initializing wave functions:  linear combination of atomic orbitals
Note: number of bands (6) exceeds available atomic orbitals (5)
Cs pseudo-atom occupations:   s ( 2 1 )  p ( 6 )
	FillingsUpdate:  mu: -3.355163220  nElectrons: 9.000000
LCAOMinimize: Iter:   0  F: -9.1581736155074616  |grad|_K:  1.580e-02  alpha:  1.000e+00
	FillingsUpdate:  mu: +0.758596935  nElectrons: 9.000000
LCAOMinimize: Iter:   1  F: -10.1487544925793074  |grad|_K:  3.002e-03  alpha:  1.018e+00  linmin:  1.126e-02  cgtest: -5.526e+00  t[s]:      1.29
LCAOMinimize: 	Predicted alpha/alphaT>3.000000, increasing alphaT to 3.054123e+00.
LCAOMinimize: 	Wrong curvature in test step, increasing alphaT to 9.162369e+00.
	FillingsUpdate:  mu: +0.755617839  nElectrons: 9.000000
LCAOMinimize: Iter:   2  F: -10.1587309874385614  |grad|_K:  2.302e-03  alpha: -8.486e-01  linmin:  4.289e-05  cgtest:  1.225e+00  t[s]:      1.80
LCAOMinimize: Encountered beta<0, resetting CG.
	FillingsUpdate:  mu: +0.755628923  nElectrons: 9.000000
LCAOMinimize: Iter:   3  F: -10.1594019585960265  |grad|_K:  2.199e-03  alpha:  1.682e-02  linmin: -2.151e-02  cgtest:  1.029e+00  t[s]:      2.20
LCAOMinimize: Encountered beta<0, resetting CG.
LCAOMinimize: 	Wrong curvature in test step, increasing alphaT to 5.045633e-02.
	FillingsUpdate:  mu: +0.755658399  nElectrons: 9.000000
LCAOMinimize: Iter:   4  F: -10.1600881500979554  |grad|_K:  2.122e-03  alpha: -1.049e-01  linmin: -2.121e-02  cgtest:  1.018e+00  t[s]:      2.59
LCAOMinimize: Encountered beta<0, resetting CG.
	FillingsUpdate:  mu: +0.755729877  nElectrons: 9.000000
LCAOMinimize: Iter:   5  F: -10.1608330404663114  |grad|_K:  2.233e-03  alpha:  1.437e-02  linmin: -3.610e-03  cgtest:  9.359e-01  t[s]:      3.00
LCAOMinimize: 	Predicted alpha/alphaT>3.000000, increasing alphaT to 4.311941e-02.
LCAOMinimize: 	Predicted alpha/alphaT>3.000000, increasing alphaT to 1.293582e-01.
LCAOMinimize: 	Predicted alpha/alphaT>3.000000, increasing alphaT to 3.880747e-01.
	FillingsUpdate:  mu: +0.549825263  nElectrons: 9.000000
LCAOMinimize: Iter:   6  F: -10.2884476052823164  |grad|_K:  7.532e-04  alpha:  6.917e-01  linmin: -9.907e-02  cgtest: -2.586e-01  t[s]:      3.68
	FillingsUpdate:  mu: +0.549429820  nElectrons: 9.000000
LCAOMinimize: Iter:   7  F: -10.2885627343535457  |grad|_K:  7.244e-04  alpha:  4.919e-03  linmin: -1.001e-01  cgtest:  9.960e-01  t[s]:      4.08
LCAOMinimize: Encountered beta<0, resetting CG.
LCAOMinimize: 	Predicted alpha/alphaT>3.000000, increasing alphaT to 1.475735e-02.
LCAOMinimize: 	Wrong curvature in test step, increasing alphaT to 4.427206e-02.
	FillingsUpdate:  mu: +0.502109526  nElectrons: 9.000000
LCAOMinimize: Iter:   8  F: -10.2904451256611846  |grad|_K:  5.297e-04  alpha: -2.450e-04  linmin: -9.789e-02  cgtest:  9.797e-01  t[s]:      4.63
LCAOMinimize: Encountered beta<0, resetting CG.
[d-4-3-2:84803] 18 more processes have sent help message help-mpi-common-cuda.txt / dlopen failed
[d-4-3-2:84803] Set MCA parameter "orte_base_help_aggregate" to 0 to see all help / error messages
[d-4-3-2:84803] 18 more processes have sent help message help-mpi-btl-openib-cpc-base.txt / no cpcs for port
	FillingsUpdate:  mu: +0.461155941  nElectrons: 9.000000
LCAOMinimize: Iter:   9  F: -10.2914152647652379  |grad|_K:  3.980e-04  alpha:  2.129e-02  linmin: -5.329e-02  cgtest:  9.544e-01  t[s]:      5.03
LCAOMinimize: Encountered beta<0, resetting CG.
LCAOMinimize: 	Predicted alpha/alphaT>3.000000, increasing alphaT to 6.386697e-02.
LCAOMinimize: 	Predicted alpha/alphaT>3.000000, increasing alphaT to 1.916009e-01.
LCAOMinimize: 	Wrong curvature in test step, increasing alphaT to 5.748027e-01.
	FillingsUpdate:  mu: +0.431013051  nElectrons: 9.000000
LCAOMinimize: Iter:  10  F: -10.2918927378225309  |grad|_K:  2.778e-04  alpha: -9.450e-02  linmin: -1.332e-01  cgtest:  9.192e-01  t[s]:      5.72
LCAOMinimize: Encountered beta<0, resetting CG.
	FillingsUpdate:  mu: +0.417745953  nElectrons: 9.000000
LCAOMinimize: Iter:  11  F: -10.2922582495990511  |grad|_K:  2.467e-04  alpha:  7.853e-02  linmin: -8.443e-02  cgtest:  9.828e-01  t[s]:      6.12
LCAOMinimize: Encountered beta<0, resetting CG.
LCAOMinimize: 	Predicted alpha/alphaT>3.000000, increasing alphaT to 2.355970e-01.
LCAOMinimize: 	Predicted alpha/alphaT>3.000000, increasing alphaT to 7.067910e-01.
	FillingsUpdate:  mu: +0.417408613  nElectrons: 9.000000
LCAOMinimize: Iter:  12  F: -10.2923013975828503  |grad|_K:  2.236e-04  alpha:  9.504e-02  linmin: -1.505e-01  cgtest:  9.961e-01  t[s]:      6.80
LCAOMinimize: Encountered beta<0, resetting CG.
LCAOMinimize: 	Predicted alpha/alphaT>3.000000, increasing alphaT to 2.851067e-01.
LCAOMinimize: 	Wrong curvature in test step, increasing alphaT to 8.553200e-01.
	FillingsUpdate:  mu: +0.420512448  nElectrons: 9.000000
LCAOMinimize: Iter:  13  F: -10.2925244279873223  |grad|_K:  1.585e-04  alpha: -1.421e-01  linmin: -1.458e-01  cgtest:  9.877e-01  t[s]:      7.34
LCAOMinimize: Encountered beta<0, resetting CG.
	FillingsUpdate:  mu: +0.420370067  nElectrons: 9.000000
LCAOMinimize: Iter:  14  F: -10.2925300581466761  |grad|_K:  1.539e-04  alpha:  2.910e-02  linmin: -1.459e-01  cgtest:  9.991e-01  t[s]:      7.76
LCAOMinimize: Encountered beta<0, resetting CG.
LCAOMinimize: 	Predicted alpha/alphaT>3.000000, increasing alphaT to 8.729840e-02.
	FillingsUpdate:  mu: +0.420311397  nElectrons: 9.000000
LCAOMinimize: Iter:  15  F: -10.2925323591499751  |grad|_K:  1.519e-04  alpha:  1.252e-02  linmin: -1.460e-01  cgtest:  9.996e-01  t[s]:      8.30
LCAOMinimize: Encountered beta<0, resetting CG.
LCAOMinimize: 	Predicted alpha/alphaT>3.000000, increasing alphaT to 3.755087e-02.
LCAOMinimize: 	Predicted alpha/alphaT>3.000000, increasing alphaT to 1.126526e-01.
	FillingsUpdate:  mu: +0.420220799  nElectrons: 9.000000
LCAOMinimize: Iter:  16  F: -10.2925358697027693  |grad|_K:  1.489e-04  alpha:  1.966e-02  linmin: -1.460e-01  cgtest:  9.994e-01  t[s]:      8.98
LCAOMinimize: Encountered beta<0, resetting CG.
LCAOMinimize: 	Predicted alpha/alphaT>3.000000, increasing alphaT to 5.896518e-02.
	FillingsUpdate:  mu: +0.420196685  nElectrons: 9.000000
LCAOMinimize: Iter:  17  F: -10.2925368005739148  |grad|_K:  1.481e-04  alpha:  5.386e-03  linmin: -1.461e-01  cgtest:  9.998e-01  t[s]:      9.53
LCAOMinimize: Encountered beta<0, resetting CG.
LCAOMinimize: 	Predicted alpha/alphaT>3.000000, increasing alphaT to 1.615803e-02.
LCAOMinimize: 	Predicted alpha/alphaT>3.000000, increasing alphaT to 4.847408e-02.
	FillingsUpdate:  mu: +0.420180598  nElectrons: 9.000000
LCAOMinimize: Iter:  18  F: -10.2925374201726019  |grad|_K:  1.476e-04  alpha:  3.621e-03  linmin: -1.461e-01  cgtest:  9.999e-01  t[s]:     10.21
LCAOMinimize: Encountered beta<0, resetting CG.
LCAOMinimize: Converged (|Delta F|<1.000000e-06 for 2 iters).


---- Citations for features of the code used in this run ----

   Software package:
      R. Sundararaman, K. Letchworth-Weaver, K.A. Schwarz, D. Gunceler, Y. Ozhabes and T.A. Arias, 'JDFTx: software for joint density-functional theory', SoftwareX 6, 278 (2017)

   gga-PBE exchange-correlation functional:
      J.P. Perdew, K. Burke and M. Ernzerhof, Phys. Rev. Lett. 77, 3865 (1996)

   Pseudopotentials:
      M Schlipf and F Gygi, Comput. Phys. Commun. 196, 36 (2015)

   Truncated Coulomb potentials:
      R. Sundararaman and T.A. Arias, Phys. Rev. B 87, 165122 (2013)

   Total energy minimization with Auxiliary Hamiltonian:
      C. Freysoldt, S. Boeck, and J. Neugebauer, Phys. Rev. B 79, 241103(R) (2009)

This list may not be complete. Please suggest additional citations or
report any other bugs at https://github.com/shankar1729/jdftx/issues

Initialization completed successfully at t[s]:     10.30


-------- Electronic minimization -----------
	FillingsUpdate:  mu: +0.420180598  nElectrons: 9.000000
ElecMinimize: Iter:   0  F: -10.292537420172573  |grad|_K:  1.809e-03  alpha:  1.000e+00
	FillingsUpdate:  mu: +0.448457136  nElectrons: 9.000000
	SubspaceRotationAdjust: set factor to 1
ElecMinimize: Iter:   1  F: -12.528012296795158  |grad|_K:  1.340e-03  alpha:  5.037e-01  linmin:  3.712e-04  t[s]:     11.14
	FillingsUpdate:  mu: +0.080318285  nElectrons: 9.000000
	SubspaceRotationAdjust: set factor to 1.01
ElecMinimize: Iter:   2  F: -13.032135128961533  |grad|_K:  1.064e-03  alpha:  2.524e-01  linmin:  2.372e-04  t[s]:     11.67
	FillingsUpdate:  mu: -0.118880456  nElectrons: 9.000000
	SubspaceRotationAdjust: set factor to 1.02
ElecMinimize: Iter:   3  F: -13.391621560970975  |grad|_K:  7.310e-04  alpha:  2.280e-01  linmin: -5.580e-05  t[s]:     12.19
	FillingsUpdate:  mu: -0.145062382  nElectrons: 9.000000
	SubspaceRotationAdjust: set factor to 1.05
ElecMinimize: Iter:   4  F: -13.671001191248010  |grad|_K:  6.067e-04  alpha:  3.197e-01  linmin:  3.897e-04  t[s]:     12.73
	FillingsUpdate:  mu: -0.643364456  nElectrons: 9.000000
	SubspaceRotationAdjust: set factor to 1.05
ElecMinimize: Iter:   5  F: -13.717644601502890  |grad|_K:  1.250e-03  alpha:  4.041e-01  linmin:  2.396e-03  t[s]:     13.27
ElecMinimize: 	Bad step direction: g.d > 0.
ElecMinimize: 	Undoing step.
ElecMinimize: 	Step failed: resetting search direction.
	FillingsUpdate:  mu: -0.643364456  nElectrons: 9.000000
	SubspaceRotationAdjust: set factor to 1.09
ElecMinimize: Iter:   6  F: -13.717644601502748  |grad|_K:  1.157e-03  alpha:  0.000e+00
	FillingsUpdate:  mu: -0.229176952  nElectrons: 9.000000
	SubspaceRotationAdjust: set factor to 1.16
ElecMinimize: Iter:   7  F: -14.024368195604298  |grad|_K:  5.635e-04  alpha:  1.852e-01  linmin:  1.980e-03  t[s]:     14.17
	FillingsUpdate:  mu: -0.052301292  nElectrons: 9.000000
	SubspaceRotationAdjust: set factor to 1.23
ElecMinimize: Iter:   8  F: -14.155927997179960  |grad|_K:  4.507e-04  alpha:  3.619e-01  linmin:  1.106e-03  t[s]:     14.73
ElecMinimize: 	Step increased F by 1.835017e-02, reducing alpha to 6.967373e-02.
	FillingsUpdate:  mu: -0.048616200  nElectrons: 9.000000
	SubspaceRotationAdjust: set factor to 1.32
ElecMinimize: Iter:   9  F: -14.200454434146650  |grad|_K:  3.471e-04  alpha:  6.967e-02  linmin: -1.499e-03  t[s]:     15.57
ElecMinimize: 	Wrong curvature in test step, increasing alphaT to 2.090212e-01.
	FillingsUpdate:  mu: -0.057050088  nElectrons: 9.000000
	SubspaceRotationAdjust: set factor to 1.65
ElecMinimize: Iter:  10  F: -14.248054193798122  |grad|_K:  1.825e-04  alpha: -2.784e-01  linmin: -2.543e-03  t[s]:     16.06
	FillingsUpdate:  mu: -0.106554419  nElectrons: 9.000000
	SubspaceRotationAdjust: set factor to 2.14
ElecMinimize: Iter:  11  F: -14.277744173205141  |grad|_K:  1.608e-04  alpha:  1.042e-01  linmin: -1.622e-03  t[s]:     16.60
ElecMinimize: 	Wrong curvature in test step, increasing alphaT to 3.127456e-01.
	FillingsUpdate:  mu: -0.159746942  nElectrons: 9.000000
	SubspaceRotationAdjust: set factor to 2.66
ElecMinimize: Iter:  12  F: -14.315167381951046  |grad|_K:  1.984e-04  alpha: -3.347e-02  linmin: -1.657e-03  t[s]:     17.08
	FillingsUpdate:  mu: -0.213963265  nElectrons: 9.000000
	SubspaceRotationAdjust: set factor to 3.22
ElecMinimize: Iter:  13  F: -14.352181864971435  |grad|_K:  2.249e-04  alpha:  6.891e-02  linmin: -1.877e-03  t[s]:     17.62
	FillingsUpdate:  mu: -0.285288960  nElectrons: 9.000000
	SubspaceRotationAdjust: set factor to 3.41
ElecMinimize: Iter:  14  F: -14.376217922761846  |grad|_K:  2.807e-04  alpha:  1.024e-01  linmin: -8.416e-05  t[s]:     18.15
	FillingsUpdate:  mu: -0.279818234  nElectrons: 9.000000
	SubspaceRotationAdjust: set factor to 2.96
ElecMinimize: Iter:  15  F: -14.376384981813999  |grad|_K:  3.582e-04  alpha:  7.828e-03  linmin:  7.506e-04  t[s]:     18.70
ElecMinimize: 	Bad step direction: g.d > 0.
ElecMinimize: 	Undoing step.
ElecMinimize: 	Step failed: resetting search direction.
	FillingsUpdate:  mu: -0.279818234  nElectrons: 9.000000
	SubspaceRotationAdjust: set factor to 2.73
ElecMinimize: Iter:  16  F: -14.376384981813999  |grad|_K:  3.443e-04  alpha:  0.000e+00
ElecMinimize: 	Wrong curvature in test step, increasing alphaT to 2.348346e-02.
	FillingsUpdate:  mu: -0.273033556  nElectrons: 9.000000
	SubspaceRotationAdjust: set factor to 3.69
ElecMinimize: Iter:  17  F: -14.380386491873841  |grad|_K:  2.643e-04  alpha: -1.300e-02  linmin: -3.865e-03  t[s]:     19.54
	FillingsUpdate:  mu: -0.055624279  nElectrons: 9.000000
	SubspaceRotationAdjust: set factor to 2.95
ElecMinimize: Iter:  18  F: -14.411704859130360  |grad|_K:  1.576e-04  alpha:  1.543e-01  linmin:  8.438e-04  t[s]:     20.08
ElecMinimize: 	Wrong curvature in test step, increasing alphaT to 4.628001e-01.
	FillingsUpdate:  mu: -0.096623916  nElectrons: 9.000000
	SubspaceRotationAdjust: set factor to 4.39
ElecMinimize: Iter:  19  F: -14.422729383086095  |grad|_K:  1.243e-04  alpha: -1.983e+00  linmin: -7.519e-04  t[s]:     20.56
	FillingsUpdate:  mu: -0.119545796  nElectrons: 9.000000
	SubspaceRotationAdjust: set factor to 5.82
ElecMinimize: Iter:  20  F: -14.427959902106895  |grad|_K:  1.099e-04  alpha:  7.600e-02  linmin: -2.485e-03  t[s]:     21.11
	FillingsUpdate:  mu: -0.236420986  nElectrons: 9.000000
	SubspaceRotationAdjust: set factor to 5.41
ElecMinimize: Iter:  21  F: -14.433211039833528  |grad|_K:  1.291e-04  alpha:  1.128e-01  linmin: -4.726e-03  t[s]:     21.63
	FillingsUpdate:  mu: -0.277958323  nElectrons: 9.000000
	SubspaceRotationAdjust: set factor to 5.27
ElecMinimize: Iter:  22  F: -14.442769979417056  |grad|_K:  2.043e-04  alpha:  1.906e-01  linmin: -1.448e-03  t[s]:     22.15
	FillingsUpdate:  mu: -0.165285831  nElectrons: 9.000000
	SubspaceRotationAdjust: set factor to 7.52
	SubspaceRotationAdjust: resetting CG because factor has changed by 7.52407
ElecMinimize: 	State modified externally: resetting search direction.
ElecMinimize: Iter:  23  F: -14.450501471641289  |grad|_K:  1.887e-04  alpha:  5.563e-02
ElecMinimize: 	Wrong curvature in test step, increasing alphaT to 1.668854e-01.
	FillingsUpdate:  mu: -0.129837195  nElectrons: 9.000000
	SubspaceRotationAdjust: set factor to 8.87
ElecMinimize: Iter:  24  F: -14.457320714339851  |grad|_K:  1.190e-04  alpha: -7.186e-01  linmin: -2.677e-03  t[s]:     23.41
	FillingsUpdate:  mu: -0.151057717  nElectrons: 9.000000
	SubspaceRotationAdjust: set factor to 7.82
ElecMinimize: Iter:  25  F: -14.462341391627012  |grad|_K:  6.952e-05  alpha:  8.765e-02  linmin: -1.484e-03  t[s]:     23.94
	FillingsUpdate:  mu: -0.183468094  nElectrons: 9.000000
	SubspaceRotationAdjust: set factor to 8.11
ElecMinimize: Iter:  26  F: -14.463444993469388  |grad|_K:  5.900e-05  alpha:  8.992e-02  linmin: -3.887e-03  t[s]:     24.46
ElecMinimize: 	Wrong curvature in test step, increasing alphaT to 2.697560e-01.
	FillingsUpdate:  mu: -0.159458585  nElectrons: 9.000000
	SubspaceRotationAdjust: set factor to 4.15
ElecMinimize: Iter:  27  F: -14.465429454129962  |grad|_K:  7.400e-05  alpha: -3.604e-01  linmin: -8.893e-04  t[s]:     24.93
	FillingsUpdate:  mu: -0.125852966  nElectrons: 9.000000
	SubspaceRotationAdjust: set factor to 4.25
ElecMinimize: Iter:  28  F: -14.467906483239616  |grad|_K:  7.173e-05  alpha:  1.083e-01  linmin: -1.193e-03  t[s]:     25.47
ElecMinimize: 	Predicted alpha/alphaT>3.000000, increasing alphaT to 3.250098e-01.
	FillingsUpdate:  mu: -0.139733601  nElectrons: 9.000000
	SubspaceRotationAdjust: set factor to 4.23
ElecMinimize: Iter:  29  F: -14.472250917205679  |grad|_K:  1.061e-04  alpha:  2.673e-01  linmin:  1.203e-03  t[s]:     26.18
	FillingsUpdate:  mu: -0.139383706  nElectrons: 9.000000
	SubspaceRotationAdjust: set factor to 5.3
ElecMinimize: Iter:  30  F: -14.472541160370319  |grad|_K:  1.070e-04  alpha:  2.276e-02  linmin: -1.366e-03  t[s]:     26.71
	FillingsUpdate:  mu: -0.140062945  nElectrons: 9.000000
	SubspaceRotationAdjust: set factor to 6.77
ElecMinimize: Iter:  31  F: -14.473369593561204  |grad|_K:  1.007e-04  alpha:  3.817e-02  linmin:  8.008e-07  t[s]:     27.24
ElecMinimize: 	Step increased F by 2.078715e-05, reducing alpha to 7.232182e-03.
	FillingsUpdate:  mu: -0.138427420  nElectrons: 9.000000
	SubspaceRotationAdjust: set factor to 8.82
ElecMinimize: Iter:  32  F: -14.473567860742246  |grad|_K:  1.001e-04  alpha:  7.232e-03  linmin: -1.259e-03  t[s]:     28.08
ElecMinimize: 	Predicted alpha/alphaT>3.000000, increasing alphaT to 2.169655e-02.
ElecMinimize: 	Wrong curvature in test step, increasing alphaT to 6.508964e-02.
	FillingsUpdate:  mu: -0.133927751  nElectrons: 9.000000
	SubspaceRotationAdjust: set factor to 11.4
ElecMinimize: Iter:  33  F: -14.474855938308258  |grad|_K:  8.572e-05  alpha: -2.311e+00  linmin: -1.179e-03  t[s]:     28.73
	FillingsUpdate:  mu: -0.146213406  nElectrons: 9.000000
	SubspaceRotationAdjust: set factor to 12.3
ElecMinimize: Iter:  34  F: -14.475939849533614  |grad|_K:  7.056e-05  alpha:  3.437e-02  linmin: -2.820e-04  t[s]:     29.27
ElecMinimize: 	Step increased F by 1.189979e-03, reducing alpha to 4.375978e-03.
	FillingsUpdate:  mu: -0.146125235  nElectrons: 9.000000
	SubspaceRotationAdjust: set factor to 13
ElecMinimize: Iter:  35  F: -14.476069701952365  |grad|_K:  6.985e-05  alpha:  4.376e-03  linmin: -1.088e-03  t[s]:     30.11
ElecMinimize: 	Predicted alpha/alphaT>3.000000, increasing alphaT to 1.312793e-02.
	FillingsUpdate:  mu: -0.155589887  nElectrons: 9.000000
	SubspaceRotationAdjust: set factor to 13.5
ElecMinimize: Iter:  36  F: -14.476416982140721  |grad|_K:  6.786e-05  alpha:  1.634e-02  linmin: -1.595e-03  t[s]:     30.82
	FillingsUpdate:  mu: -0.148939040  nElectrons: 9.000000
	SubspaceRotationAdjust: set factor to 14.7
ElecMinimize: Iter:  37  F: -14.476892657094535  |grad|_K:  6.527e-05  alpha:  8.404e-03  linmin: -4.303e-03  t[s]:     31.34
	FillingsUpdate:  mu: -0.148071614  nElectrons: 9.000000
	SubspaceRotationAdjust: set factor to 17.3
ElecMinimize: Iter:  38  F: -14.476933305302934  |grad|_K:  6.664e-05  alpha:  2.112e-03  linmin: -1.590e-02  t[s]:     31.87
ElecMinimize: 	Predicted alpha/alphaT>3.000000, increasing alphaT to 6.336635e-03.
ElecMinimize: 	Step increased F by 1.710998e-04, reducing alpha to 8.170641e-04.
	FillingsUpdate:  mu: -0.147949767  nElectrons: 9.000000
	SubspaceRotationAdjust: set factor to 20.8
ElecMinimize: Iter:  39  F: -14.476978615770239  |grad|_K:  6.751e-05  alpha:  8.171e-04  linmin: -7.520e-03  t[s]:     32.88
ElecMinimize: 	Predicted alpha/alphaT>3.000000, increasing alphaT to 2.451192e-03.
ElecMinimize: 	Predicted alpha/alphaT>3.000000, increasing alphaT to 7.353577e-03.
ElecMinimize: 	Predicted alpha/alphaT>3.000000, increasing alphaT to 2.206073e-02.
	FillingsUpdate:  mu: -0.121661138  nElectrons: 9.000000
	SubspaceRotationAdjust: set factor to 18.7
ElecMinimize: Iter:  40  F: -14.477123529768487  |grad|_K:  7.147e-05  alpha:  2.217e-02  linmin: -3.499e-03  t[s]:     33.75
ElecMinimize: 	Wrong curvature in test step, increasing alphaT to 6.650295e-02.
	FillingsUpdate:  mu: -0.117522952  nElectrons: 9.000000
	SubspaceRotationAdjust: set factor to 20.5
ElecMinimize: Iter:  41  F: -14.478663114714115  |grad|_K:  5.988e-05  alpha: -1.370e-01  linmin: -3.650e-03  t[s]:     34.23
	FillingsUpdate:  mu: -0.122638663  nElectrons: 9.000000
	SubspaceRotationAdjust: set factor to 22.9
ElecMinimize: Iter:  42  F: -14.479784666323290  |grad|_K:  6.010e-05  alpha:  1.294e-02  linmin: -1.404e-02  t[s]:     34.78
ElecMinimize: 	Wrong curvature in test step, increasing alphaT to 3.882715e-02.
	FillingsUpdate:  mu: -0.136579322  nElectrons: 9.000000
	SubspaceRotationAdjust: set factor to 22.1
ElecMinimize: Iter:  43  F: -14.480319964353869  |grad|_K:  6.462e-05  alpha: -5.211e-02  linmin: -2.882e-03  t[s]:     35.27
	FillingsUpdate:  mu: -0.151854955  nElectrons: 9.000000
	SubspaceRotationAdjust: set factor to 20.6
ElecMinimize: Iter:  44  F: -14.480699122391862  |grad|_K:  7.183e-05  alpha:  1.481e-02  linmin: -1.771e-03  t[s]:     35.82
ElecMinimize: 	Step increased F by 1.877598e-04, reducing alpha to 5.713846e-04.
	FillingsUpdate:  mu: -0.151800635  nElectrons: 9.000000
	SubspaceRotationAdjust: set factor to 20.1
ElecMinimize: Iter:  45  F: -14.480724677387027  |grad|_K:  6.999e-05  alpha:  5.714e-04  linmin: -3.425e-03  t[s]:     36.65
ElecMinimize: 	Predicted alpha/alphaT>3.000000, increasing alphaT to 1.714154e-03.
ElecMinimize: 	Predicted alpha/alphaT>3.000000, increasing alphaT to 5.142462e-03.
	FillingsUpdate:  mu: -0.150952869  nElectrons: 9.000000
	SubspaceRotationAdjust: set factor to 17.8
ElecMinimize: Iter:  46  F: -14.480850491662762  |grad|_K:  7.359e-05  alpha:  2.296e-03  linmin: -4.670e-03  t[s]:     37.53
ElecMinimize: 	Step increased F by 1.045448e-04, reducing alpha to 2.830737e-04.
ElecMinimize: 	Step increased F by 8.793764e-06, reducing alpha to 2.830737e-05.
	FillingsUpdate:  mu: -0.150947370  nElectrons: 9.000000
	SubspaceRotationAdjust: set factor to 14.7
ElecMinimize: Iter:  47  F: -14.480852328557241  |grad|_K:  7.748e-05  alpha:  2.831e-05  linmin: -7.445e-03  t[s]:     38.69
ElecMinimize: 	Predicted alpha/alphaT>3.000000, increasing alphaT to 8.492210e-05.
ElecMinimize: 	Predicted alpha/alphaT>3.000000, increasing alphaT to 2.547663e-04.
	FillingsUpdate:  mu: -0.152410527  nElectrons: 9.000000
	SubspaceRotationAdjust: set factor to 7.96
ElecMinimize: Iter:  48  F: -14.480870649305599  |grad|_K:  1.716e-04  alpha:  4.913e-04  linmin: -3.469e-04  t[s]:     39.58
ElecMinimize: 	Wrong curvature in test step, increasing alphaT to 1.474027e-03.
	FillingsUpdate:  mu: -0.156951696  nElectrons: 9.000000
	SubspaceRotationAdjust: set factor to 11.2
ElecMinimize: Iter:  49  F: -14.481041942440822  |grad|_K:  5.197e-05  alpha: -1.876e-04  linmin: -1.048e-02  t[s]:     40.06
ElecMinimize: 	Step increased F by 6.457037e-04, reducing alpha to 3.298542e-03.
	FillingsUpdate:  mu: -0.144960539  nElectrons: 9.000000
	SubspaceRotationAdjust: set factor to 8.96
ElecMinimize: Iter:  50  F: -14.481167427872908  |grad|_K:  7.455e-05  alpha:  3.299e-03  linmin: -6.431e-04  t[s]:     40.90
ElecMinimize: 	Wrong curvature in test step, increasing alphaT to 9.895626e-03.
	FillingsUpdate:  mu: -0.141156976  nElectrons: 9.000000
	SubspaceRotationAdjust: set factor to 5.05
ElecMinimize: Iter:  51  F: -14.481389870448391  |grad|_K:  1.308e-04  alpha: -9.119e-04  linmin: -4.179e-03  t[s]:     41.37
ElecMinimize: 	Step increased F by 1.871743e-01, reducing alpha to 5.668328e-03.
ElecMinimize: 	Step increased F by 3.214559e-03, reducing alpha to 5.668328e-04.
ElecMinimize: 	Step increased F by 6.464227e-05, reducing alpha to 5.668328e-05.
ElecMinimize: 	Step failed to reduce F after 3 attempts. Quitting step.
ElecMinimize: 	Undoing step.
ElecMinimize: 	Step failed: resetting search direction.
	FillingsUpdate:  mu: -0.137119324  nElectrons: 9.000000
	SubspaceRotationAdjust: set factor to 5.94
ElecMinimize: Iter:  52  F: -14.481318341210772  |grad|_K:  4.642e-05  alpha:  5.668e-05
	FillingsUpdate:  mu: -0.135256126  nElectrons: 9.000000
	SubspaceRotationAdjust: set factor to 5.79
ElecMinimize: Iter:  53  F: -14.482607963621129  |grad|_K:  3.217e-05  alpha:  1.828e-01  linmin: -1.829e-02  t[s]:     43.37
	FillingsUpdate:  mu: -0.160910764  nElectrons: 9.000000
	SubspaceRotationAdjust: set factor to 6
ElecMinimize: Iter:  54  F: -14.482897612381089  |grad|_K:  3.056e-05  alpha:  1.513e-01  linmin: -5.279e-02  t[s]:     43.90
ElecMinimize: 	Predicted alpha/alphaT>3.000000, increasing alphaT to 4.539625e-01.
	FillingsUpdate:  mu: -0.116915657  nElectrons: 9.000000
	SubspaceRotationAdjust: set factor to 4.66
ElecMinimize: Iter:  55  F: -14.483836618113829  |grad|_K:  3.342e-05  alpha:  1.563e-01  linmin: -4.901e-03  t[s]:     44.60
ElecMinimize: 	Wrong curvature in test step, increasing alphaT to 4.690018e-01.
	FillingsUpdate:  mu: -0.177059572  nElectrons: 9.000000
	SubspaceRotationAdjust: set factor to 3.75
ElecMinimize: Iter:  56  F: -14.485019093075984  |grad|_K:  2.914e-05  alpha: -6.951e-01  linmin: -1.207e-02  t[s]:     45.08
	FillingsUpdate:  mu: -0.146969654  nElectrons: 9.000000
	SubspaceRotationAdjust: set factor to 3.47
ElecMinimize: Iter:  57  F: -14.486339197407540  |grad|_K:  3.183e-05  alpha:  3.799e-01  linmin: -2.522e-03  t[s]:     45.61
	FillingsUpdate:  mu: -0.157590479  nElectrons: 9.000000
	SubspaceRotationAdjust: set factor to 3.53
ElecMinimize: Iter:  58  F: -14.486794341234324  |grad|_K:  3.004e-05  alpha:  1.788e-01  linmin:  7.962e-04  t[s]:     46.15
	FillingsUpdate:  mu: -0.159236500  nElectrons: 9.000000
	SubspaceRotationAdjust: set factor to 3.69
ElecMinimize: Iter:  59  F: -14.487050389975170  |grad|_K:  3.063e-05  alpha:  1.772e-01  linmin:  1.668e-03  t[s]:     46.68
	FillingsUpdate:  mu: -0.164580754  nElectrons: 9.000000
	SubspaceRotationAdjust: set factor to 3.93
ElecMinimize: Iter:  60  F: -14.487143033590064  |grad|_K:  2.966e-05  alpha:  1.254e-01  linmin: -4.341e-03  t[s]:     47.21
	FillingsUpdate:  mu: -0.152951594  nElectrons: 9.000000
	SubspaceRotationAdjust: set factor to 4.71
ElecMinimize: Iter:  61  F: -14.487486031431223  |grad|_K:  3.927e-05  alpha:  2.227e-01  linmin: -4.264e-04  t[s]:     47.73
	FillingsUpdate:  mu: -0.148503689  nElectrons: 9.000000
	SubspaceRotationAdjust: set factor to 5.32
ElecMinimize: Iter:  62  F: -14.487602062771845  |grad|_K:  3.323e-05  alpha:  3.947e-02  linmin: -2.906e-03  t[s]:     48.26
	FillingsUpdate:  mu: -0.150549621  nElectrons: 9.000000
	SubspaceRotationAdjust: set factor to 6.33
ElecMinimize: Iter:  63  F: -14.487670871700272  |grad|_K:  3.128e-05  alpha:  3.532e-02  linmin: -9.901e-03  t[s]:     48.79
ElecMinimize: 	Predicted alpha/alphaT>3.000000, increasing alphaT to 1.059693e-01.
ElecMinimize: 	Wrong curvature in test step, increasing alphaT to 3.179079e-01.
	FillingsUpdate:  mu: -0.146934027  nElectrons: 9.000000
	SubspaceRotationAdjust: set factor to 6.79
ElecMinimize: Iter:  64  F: -14.488746700420155  |grad|_K:  2.522e-05  alpha: -1.504e-01  linmin: -8.622e-03  t[s]:     49.45
	FillingsUpdate:  mu: -0.161813837  nElectrons: 9.000000
	SubspaceRotationAdjust: set factor to 6.36
ElecMinimize: Iter:  65  F: -14.489156669438273  |grad|_K:  2.741e-05  alpha:  9.328e-02  linmin: -9.652e-03  t[s]:     49.99
ElecMinimize: 	Wrong curvature in test step, increasing alphaT to 2.798379e-01.
	FillingsUpdate:  mu: -0.158976164  nElectrons: 9.000000
	SubspaceRotationAdjust: set factor to 8.49
ElecMinimize: Iter:  66  F: -14.489964472407332  |grad|_K:  2.720e-05  alpha: -8.890e-02  linmin: -1.411e-02  t[s]:     50.46
	FillingsUpdate:  mu: -0.124713678  nElectrons: 9.000000
	SubspaceRotationAdjust: set factor to 7.22
ElecMinimize: Iter:  67  F: -14.490255526258174  |grad|_K:  3.494e-05  alpha:  1.089e-01  linmin:  9.364e-04  t[s]:     51.01
	FillingsUpdate:  mu: -0.132954250  nElectrons: 9.000000
	SubspaceRotationAdjust: set factor to 11
ElecMinimize: Iter:  68  F: -14.490380179494261  |grad|_K:  3.008e-05  alpha:  8.546e-03  linmin: -1.189e-03  t[s]:     51.54
ElecMinimize: 	Wrong curvature in test step, increasing alphaT to 2.563737e-02.
	FillingsUpdate:  mu: -0.133680132  nElectrons: 9.000000
	SubspaceRotationAdjust: set factor to 13.9
ElecMinimize: Iter:  69  F: -14.490453605650362  |grad|_K:  3.071e-05  alpha: -3.650e-03  linmin: -1.707e-03  t[s]:     52.02
	FillingsUpdate:  mu: -0.134447701  nElectrons: 9.000000
	SubspaceRotationAdjust: set factor to 18.5
ElecMinimize: Iter:  70  F: -14.490476739139421  |grad|_K:  3.036e-05  alpha:  4.094e-03  linmin: -1.774e-03  t[s]:     52.56
ElecMinimize: 	Predicted alpha/alphaT>3.000000, increasing alphaT to 1.228076e-02.
ElecMinimize: 	Wrong curvature in test step, increasing alphaT to 3.684228e-02.
	FillingsUpdate:  mu: -0.146479334  nElectrons: 9.000000
	SubspaceRotationAdjust: set factor to 17.5
ElecMinimize: Iter:  71  F: -14.490621067800573  |grad|_K:  2.326e-05  alpha: -1.414e-02  linmin: -6.311e-04  t[s]:     53.22
ElecMinimize: 	Step increased F by 9.736444e-07, reducing alpha to 3.456946e-04.
	FillingsUpdate:  mu: -0.146553316  nElectrons: 9.000000
	SubspaceRotationAdjust: set factor to 18.7
ElecMinimize: Iter:  72  F: -14.490622185254113  |grad|_K:  2.321e-05  alpha:  3.457e-04  linmin: -1.296e-03  t[s]:     54.06
ElecMinimize: 	Predicted alpha/alphaT>3.000000, increasing alphaT to 1.037084e-03.
ElecMinimize: 	Predicted alpha/alphaT>3.000000, increasing alphaT to 3.111252e-03.
ElecMinimize: 	Step increased F by 2.372778e-05, reducing alpha to 8.866271e-04.
	FillingsUpdate:  mu: -0.146735327  nElectrons: 9.000000
	SubspaceRotationAdjust: set factor to 19.9
ElecMinimize: Iter:  73  F: -14.490626569686475  |grad|_K:  2.322e-05  alpha:  8.866e-04  linmin: -1.834e-03  t[s]:     55.25
ElecMinimize: 	Predicted alpha/alphaT>3.000000, increasing alphaT to 2.659881e-03.
ElecMinimize: 	Predicted alpha/alphaT>3.000000, increasing alphaT to 7.979644e-03.
	FillingsUpdate:  mu: -0.149578167  nElectrons: 9.000000
	SubspaceRotationAdjust: set factor to 14.5
ElecMinimize: Iter:  74  F: -14.490644442786051  |grad|_K:  3.913e-05  alpha:  3.200e-03  linmin:  1.344e-04  t[s]:     56.13
ElecMinimize: 	Step increased F by 3.566909e-05, reducing alpha to 1.194451e-04.
ElecMinimize: 	Step increased F by 7.931343e-06, reducing alpha to 1.194451e-05.
	FillingsUpdate:  mu: -0.149656540  nElectrons: 9.000000
	SubspaceRotationAdjust: set factor to 10.4
ElecMinimize: Iter:  75  F: -14.490644449422430  |grad|_K:  3.956e-05  alpha:  1.194e-05  linmin:  2.527e-04  t[s]:     57.28
	FillingsUpdate:  mu: -0.149685360  nElectrons: 9.000000
	SubspaceRotationAdjust: set factor to 8.05
ElecMinimize: Iter:  76  F: -14.490644454096101  |grad|_K:  3.665e-05  alpha:  4.106e-06  linmin: -6.626e-06  t[s]:     57.81
ElecMinimize: 	Predicted alpha/alphaT>3.000000, increasing alphaT to 1.231893e-05.
	FillingsUpdate:  mu: -0.149778383  nElectrons: 9.000000
	SubspaceRotationAdjust: set factor to 6.2
ElecMinimize: Iter:  77  F: -14.490644488063387  |grad|_K:  3.683e-05  alpha:  1.523e-05  linmin:  1.763e-05  t[s]:     58.51
	FillingsUpdate:  mu: -0.149881046  nElectrons: 9.000000
	SubspaceRotationAdjust: set factor to 4.83
ElecMinimize: Iter:  78  F: -14.490644520917025  |grad|_K:  3.645e-05  alpha:  1.542e-05  linmin:  7.955e-06  t[s]:     59.03
	FillingsUpdate:  mu: -0.150007372  nElectrons: 9.000000
	SubspaceRotationAdjust: set factor to 3.8
ElecMinimize: Iter:  79  F: -14.490644559609265  |grad|_K:  3.613e-05  alpha:  1.821e-05  linmin:  7.996e-06  t[s]:     59.56
	FillingsUpdate:  mu: -0.150154963  nElectrons: 9.000000
	SubspaceRotationAdjust: set factor to 3.02
ElecMinimize: Iter:  80  F: -14.490644602214829  |grad|_K:  3.575e-05  alpha:  2.047e-05  linmin:  5.454e-06  t[s]:     60.09
	FillingsUpdate:  mu: -0.150328231  nElectrons: 9.000000
	SubspaceRotationAdjust: set factor to 2.43
ElecMinimize: Iter:  81  F: -14.490644650116975  |grad|_K:  3.541e-05  alpha:  2.335e-05  linmin:  4.257e-06  t[s]:     60.62
	FillingsUpdate:  mu: -0.150528504  nElectrons: 9.000000
	SubspaceRotationAdjust: set factor to 1.97
ElecMinimize: Iter:  82  F: -14.490644703252437  |grad|_K:  3.509e-05  alpha:  2.633e-05  linmin:  3.244e-06  t[s]:     61.14
	FillingsUpdate:  mu: -0.150757821  nElectrons: 9.000000
	SubspaceRotationAdjust: set factor to 1.62
ElecMinimize: Iter:  83  F: -14.490644761992186  |grad|_K:  3.481e-05  alpha:  2.954e-05  linmin:  2.485e-06  t[s]:     61.68
	FillingsUpdate:  mu: -0.151018082  nElectrons: 9.000000
	SubspaceRotationAdjust: set factor to 1.34
ElecMinimize: Iter:  84  F: -14.490644826686241  |grad|_K:  3.456e-05  alpha:  3.297e-05  linmin:  1.907e-06  t[s]:     62.21
	FillingsUpdate:  mu: -0.151311361  nElectrons: 9.000000
	SubspaceRotationAdjust: set factor to 1.12
ElecMinimize: Iter:  85  F: -14.490644897777319  |grad|_K:  3.433e-05  alpha:  3.666e-05  linmin:  1.436e-06  t[s]:     62.74
	FillingsUpdate:  mu: -0.151640502  nElectrons: 9.000000
	SubspaceRotationAdjust: set factor to 0.936
	SubspaceRotationAdjust: resetting CG because factor has changed by 0.124372
ElecMinimize: 	State modified externally: resetting search direction.
ElecMinimize: Iter:  86  F: -14.490644975987079  |grad|_K:  3.245e-05  alpha:  4.074e-05
ElecMinimize: 	Predicted alpha/alphaT>3.000000, increasing alphaT to 1.222147e-04.
ElecMinimize: 	Predicted alpha/alphaT>3.000000, increasing alphaT to 3.666441e-04.
ElecMinimize: 	Predicted alpha/alphaT>3.000000, increasing alphaT to 1.099932e-03.
	FillingsUpdate:  mu: -0.149728943  nElectrons: 9.000000
	SubspaceRotationAdjust: set factor to 1.03
ElecMinimize: Iter:  87  F: -14.490666631863986  |grad|_K:  2.210e-05  alpha:  9.414e-03  linmin: -5.764e-02  t[s]:     64.42
ElecMinimize: 	Predicted alpha/alphaT>3.000000, increasing alphaT to 2.824225e-02.
ElecMinimize: 	Predicted alpha/alphaT>3.000000, increasing alphaT to 8.472676e-02.
ElecMinimize: 	Predicted alpha/alphaT>3.000000, increasing alphaT to 2.541803e-01.
	FillingsUpdate:  mu: -0.148171116  nElectrons: 9.000000
	SubspaceRotationAdjust: set factor to 1.04
ElecMinimize: Iter:  88  F: -14.491217777023389  |grad|_K:  1.504e-05  alpha:  3.411e-01  linmin: -4.103e-02  t[s]:     65.31
ElecMinimize: 	Wrong curvature in test step, increasing alphaT to 1.023358e+00.
	FillingsUpdate:  mu: -0.148517550  nElectrons: 9.000000
	SubspaceRotationAdjust: set factor to 1.04
ElecMinimize: Iter:  89  F: -14.491634973526169  |grad|_K:  1.377e-05  alpha: -4.175e+00  linmin: -3.061e-02  t[s]:     65.79
	FillingsUpdate:  mu: -0.158696207  nElectrons: 9.000000
	SubspaceRotationAdjust: set factor to 1.04
ElecMinimize: Iter:  90  F: -14.492200953824335  |grad|_K:  1.792e-05  alpha:  8.368e-01  linmin:  7.224e-04  t[s]:     66.31
	FillingsUpdate:  mu: -0.158535881  nElectrons: 9.000000
	SubspaceRotationAdjust: set factor to 1.06
ElecMinimize: Iter:  91  F: -14.492234685440598  |grad|_K:  1.691e-05  alpha:  3.876e-02  linmin: -6.484e-03  t[s]:     66.85
ElecMinimize: 	Predicted alpha/alphaT>3.000000, increasing alphaT to 1.162820e-01.
	FillingsUpdate:  mu: -0.157921530  nElectrons: 9.000000
	SubspaceRotationAdjust: set factor to 1.07
ElecMinimize: Iter:  92  F: -14.492369157248326  |grad|_K:  1.649e-05  alpha:  1.670e-01  linmin:  1.200e-04  t[s]:     67.56
	FillingsUpdate:  mu: -0.157875509  nElectrons: 9.000000
	SubspaceRotationAdjust: set factor to 1.08
ElecMinimize: Iter:  93  F: -14.492378364053094  |grad|_K:  1.650e-05  alpha:  1.075e-02  linmin: -8.942e-03  t[s]:     68.08
ElecMinimize: 	Predicted alpha/alphaT>3.000000, increasing alphaT to 3.225398e-02.
ElecMinimize: 	Predicted alpha/alphaT>3.000000, increasing alphaT to 9.676194e-02.
ElecMinimize: 	Wrong curvature in test step, increasing alphaT to 2.902858e-01.
	FillingsUpdate:  mu: -0.153990030  nElectrons: 9.000000
	SubspaceRotationAdjust: set factor to 1.11
ElecMinimize: Iter:  94  F: -14.492710597311886  |grad|_K:  1.402e-05  alpha: -4.897e-02  linmin: -1.382e-02  t[s]:     68.92
ElecMinimize: 	Step increased F by 1.106404e-03, reducing alpha to 6.476957e-03.
ElecMinimize: 	Step increased F by 1.091090e-03, reducing alpha to 6.476957e-04.
	FillingsUpdate:  mu: -0.153988576  nElectrons: 9.000000
	SubspaceRotationAdjust: set factor to 1.15
ElecMinimize: Iter:  95  F: -14.492711588387930  |grad|_K:  1.401e-05  alpha:  6.477e-04  linmin: -2.072e-02  t[s]:     70.06
ElecMinimize: 	Predicted alpha/alphaT>3.000000, increasing alphaT to 1.943087e-03.
ElecMinimize: 	Predicted alpha/alphaT>3.000000, increasing alphaT to 5.829262e-03.
ElecMinimize: 	Predicted alpha/alphaT>3.000000, increasing alphaT to 1.748778e-02.
ElecMinimize: 	Step increased F by 9.916118e-04, reducing alpha to 2.280000e-02.
	FillingsUpdate:  mu: -0.153947319  nElectrons: 9.000000
	SubspaceRotationAdjust: set factor to 1.19
ElecMinimize: Iter:  96  F: -14.492758677829165  |grad|_K:  1.335e-05  alpha:  2.280e-02  linmin: -2.231e-02  t[s]:     71.25
ElecMinimize: 	Predicted alpha/alphaT>3.000000, increasing alphaT to 6.840001e-02.
ElecMinimize: 	Wrong curvature in test step, increasing alphaT to 2.052000e-01.
	FillingsUpdate:  mu: -0.151044959  nElectrons: 9.000000
	SubspaceRotationAdjust: set factor to 1.3
ElecMinimize: Iter:  97  F: -14.493072706637591  |grad|_K:  1.231e-05  alpha: -3.644e-02  linmin: -1.808e-02  t[s]:     71.90
	FillingsUpdate:  mu: -0.143611298  nElectrons: 9.000000
	SubspaceRotationAdjust: set factor to 1.37
ElecMinimize: Iter:  98  F: -14.493170726831277  |grad|_K:  1.275e-05  alpha:  1.046e-01  linmin: -1.066e-02  t[s]:     72.43
ElecMinimize: 	Wrong curvature in test step, increasing alphaT to 3.138003e-01.
	FillingsUpdate:  mu: -0.143992901  nElectrons: 9.000000
	SubspaceRotationAdjust: set factor to 1.4
ElecMinimize: Iter:  99  F: -14.493390636038253  |grad|_K:  1.079e-05  alpha: -5.011e-01  linmin: -1.028e-02  t[s]:     72.91
	FillingsUpdate:  mu: -0.144358670  nElectrons: 9.000000
	SubspaceRotationAdjust: set factor to 1.43
ElecMinimize: Iter: 100  F: -14.493464198343627  |grad|_K:  9.613e-06  alpha:  6.008e-02  linmin: -6.600e-03  t[s]:     73.44
	FillingsUpdate:  mu: -0.147882758  nElectrons: 9.000000
	SubspaceRotationAdjust: set factor to 1.43
ElecMinimize: Iter: 101  F: -14.493530682427320  |grad|_K:  1.094e-05  alpha:  1.395e-01  linmin:  5.832e-04  t[s]:     73.97
	FillingsUpdate:  mu: -0.147894620  nElectrons: 9.000000
	SubspaceRotationAdjust: set factor to 1.54
ElecMinimize: Iter: 102  F: -14.493531064049224  |grad|_K:  1.093e-05  alpha:  1.335e-03  linmin: -1.613e-03  t[s]:     74.50
ElecMinimize: 	Predicted alpha/alphaT>3.000000, increasing alphaT to 4.005451e-03.
ElecMinimize: 	Predicted alpha/alphaT>3.000000, increasing alphaT to 1.201635e-02.
ElecMinimize: 	Predicted alpha/alphaT>3.000000, increasing alphaT to 3.604906e-02.
ElecMinimize: 	Step increased F by 1.329112e-03, reducing alpha to 5.115786e-03.
	FillingsUpdate:  mu: -0.147922137  nElectrons: 9.000000
	SubspaceRotationAdjust: set factor to 1.67
ElecMinimize: Iter: 103  F: -14.493534340392960  |grad|_K:  1.074e-05  alpha:  5.116e-03  linmin: -3.548e-03  t[s]:     75.70
ElecMinimize: 	Predicted alpha/alphaT>3.000000, increasing alphaT to 1.534736e-02.
ElecMinimize: 	Predicted alpha/alphaT>3.000000, increasing alphaT to 4.604207e-02.
	FillingsUpdate:  mu: -0.147923269  nElectrons: 9.000000
	SubspaceRotationAdjust: set factor to 1.82
ElecMinimize: Iter: 104  F: -14.493535075840846  |grad|_K:  1.071e-05  alpha:  7.650e-04  linmin: -5.630e-03  t[s]:     76.59
ElecMinimize: 	Predicted alpha/alphaT>3.000000, increasing alphaT to 2.295064e-03.
ElecMinimize: 	Predicted alpha/alphaT>3.000000, increasing alphaT to 6.885192e-03.
ElecMinimize: 	Predicted alpha/alphaT>3.000000, increasing alphaT to 2.065558e-02.
ElecMinimize: 	Step increased F by 1.289007e-03, reducing alpha to 5.523121e-03.
	FillingsUpdate:  mu: -0.147910096  nElectrons: 9.000000
	SubspaceRotationAdjust: set factor to 2.02
ElecMinimize: Iter: 105  F: -14.493542057998910  |grad|_K:  1.008e-05  alpha:  5.523e-03  linmin: -7.221e-03  t[s]:     77.78
ElecMinimize: 	Predicted alpha/alphaT>3.000000, increasing alphaT to 1.656936e-02.
ElecMinimize: 	Predicted alpha/alphaT>3.000000, increasing alphaT to 4.970809e-02.
	FillingsUpdate:  mu: -0.147665956  nElectrons: 9.000000
	SubspaceRotationAdjust: set factor to 2.23
ElecMinimize: Iter: 106  F: -14.493577980972084  |grad|_K:  8.166e-06  alpha:  5.142e-02  linmin:  1.021e-05  t[s]:     78.66
	FillingsUpdate:  mu: -0.147655685  nElectrons: 9.000000
	SubspaceRotationAdjust: set factor to 2.39
ElecMinimize: Iter: 107  F: -14.493578419342001  |grad|_K:  8.264e-06  alpha:  2.086e-03  linmin: -2.200e-03  t[s]:     79.18
ElecMinimize: 	Predicted alpha/alphaT>3.000000, increasing alphaT to 6.258616e-03.
ElecMinimize: 	Predicted alpha/alphaT>3.000000, increasing alphaT to 1.877585e-02.
ElecMinimize: 	Step increased F by 1.137734e-04, reducing alpha to 5.025034e-03.
	FillingsUpdate:  mu: -0.147616224  nElectrons: 9.000000
	SubspaceRotationAdjust: set factor to 2.55
ElecMinimize: Iter: 108  F: -14.493580479295257  |grad|_K:  8.327e-06  alpha:  5.025e-03  linmin: -3.609e-03  t[s]:     80.38
ElecMinimize: 	Predicted alpha/alphaT>3.000000, increasing alphaT to 1.507510e-02.
ElecMinimize: 	Predicted alpha/alphaT>3.000000, increasing alphaT to 4.522530e-02.
ElecMinimize: 	Wrong curvature in test step, increasing alphaT to 1.356759e-01.
	FillingsUpdate:  mu: -0.151539786  nElectrons: 9.000000
	SubspaceRotationAdjust: set factor to 2.73
ElecMinimize: Iter: 109  F: -14.493678983363907  |grad|_K:  8.483e-06  alpha: -9.081e-03  linmin: -2.557e-03  t[s]:     81.21
ElecMinimize: 	Step increased F by 1.980827e-04, reducing alpha to 1.460475e-03.
ElecMinimize: 	Step increased F by 2.010106e-04, reducing alpha to 1.460475e-04.
	FillingsUpdate:  mu: -0.151537642  nElectrons: 9.000000
	SubspaceRotationAdjust: set factor to 2.97
ElecMinimize: Iter: 110  F: -14.493679069431245  |grad|_K:  8.502e-06  alpha:  1.460e-04  linmin: -3.775e-03  t[s]:     82.36
ElecMinimize: 	Predicted alpha/alphaT>3.000000, increasing alphaT to 4.381425e-04.
ElecMinimize: 	Predicted alpha/alphaT>3.000000, increasing alphaT to 1.314428e-03.
	FillingsUpdate:  mu: -0.151537571  nElectrons: 9.000000
	SubspaceRotationAdjust: set factor to 3.25
ElecMinimize: Iter: 111  F: -14.493679072438931  |grad|_K:  8.535e-06  alpha:  3.619e-06  linmin: -4.539e-03  t[s]:     83.24
ElecMinimize: 	Wrong curvature in test step, increasing alphaT to 1.085789e-05.
	FillingsUpdate:  mu: -0.151537480  nElectrons: 9.000000
	SubspaceRotationAdjust: set factor to 3.57
ElecMinimize: Iter: 112  F: -14.493679076344247  |grad|_K:  8.573e-06  alpha: -3.652e-03  linmin: -4.944e-03  t[s]:     83.72
	FillingsUpdate:  mu: -0.151047263  nElectrons: 9.000000
	SubspaceRotationAdjust: set factor to 3.86
ElecMinimize: Iter: 113  F: -14.493696824345957  |grad|_K:  6.439e-06  alpha:  1.616e-02  linmin: -4.244e-03  t[s]:     84.26
ElecMinimize: 	Predicted alpha/alphaT>3.000000, increasing alphaT to 4.849367e-02.
	FillingsUpdate:  mu: -0.150036406  nElectrons: 9.000000
	SubspaceRotationAdjust: set factor to 3.75
ElecMinimize: Iter: 114  F: -14.493713250559635  |grad|_K:  6.865e-06  alpha:  5.258e-02  linmin:  4.699e-05  t[s]:     84.97
	FillingsUpdate:  mu: -0.150023960  nElectrons: 9.000000
	SubspaceRotationAdjust: set factor to 4.43
ElecMinimize: Iter: 115  F: -14.493713347547729  |grad|_K:  6.894e-06  alpha:  6.711e-04  linmin: -8.588e-04  t[s]:     85.50
ElecMinimize: 	Predicted alpha/alphaT>3.000000, increasing alphaT to 2.013328e-03.
ElecMinimize: 	Predicted alpha/alphaT>3.000000, increasing alphaT to 6.039983e-03.
ElecMinimize: 	Predicted alpha/alphaT>3.000000, increasing alphaT to 1.811995e-02.
ElecMinimize: 	Step increased F by 1.864712e-04, reducing alpha to 2.890575e-03.
	FillingsUpdate:  mu: -0.149977529  nElectrons: 9.000000
	SubspaceRotationAdjust: set factor to 5.21
ElecMinimize: Iter: 116  F: -14.493714168819505  |grad|_K:  7.123e-06  alpha:  2.891e-03  linmin: -1.555e-03  t[s]:     86.69
ElecMinimize: 	Predicted alpha/alphaT>3.000000, increasing alphaT to 8.671726e-03.
ElecMinimize: 	Predicted alpha/alphaT>3.000000, increasing alphaT to 2.601518e-02.
	FillingsUpdate:  mu: -0.149966630  nElectrons: 9.000000
	SubspaceRotationAdjust: set factor to 6.31
ElecMinimize: Iter: 117  F: -14.493714526646276  |grad|_K:  7.261e-06  alpha:  7.927e-04  linmin: -2.318e-03  t[s]:     87.59
ElecMinimize: 	Predicted alpha/alphaT>3.000000, increasing alphaT to 2.377955e-03.
ElecMinimize: 	Predicted alpha/alphaT>3.000000, increasing alphaT to 7.133865e-03.
ElecMinimize: 	Predicted alpha/alphaT>3.000000, increasing alphaT to 2.140159e-02.
ElecMinimize: 	Step increased F by 2.720942e-04, reducing alpha to 5.782482e-03.
	FillingsUpdate:  mu: -0.149907743  nElectrons: 9.000000
	SubspaceRotationAdjust: set factor to 7.89
	SubspaceRotationAdjust: resetting CG because factor has changed by 8.4274
ElecMinimize: 	State modified externally: resetting search direction.
ElecMinimize: Iter: 118  F: -14.493718039941879  |grad|_K:  7.604e-06  alpha:  5.782e-03
ElecMinimize: 	Predicted alpha/alphaT>3.000000, increasing alphaT to 1.734745e-02.
ElecMinimize: 	Predicted alpha/alphaT>3.000000, increasing alphaT to 5.204234e-02.
	FillingsUpdate:  mu: -0.150838286  nElectrons: 9.000000
	SubspaceRotationAdjust: set factor to 5.99
ElecMinimize: Iter: 119  F: -14.493732162462122  |grad|_K:  5.094e-06  alpha:  1.430e-01  linmin: -4.127e-04  t[s]:     89.93
ElecMinimize: 	Predicted alpha/alphaT>3.000000, increasing alphaT to 4.290135e-01.
	FillingsUpdate:  mu: -0.150602137  nElectrons: 9.000000
	SubspaceRotationAdjust: set factor to 7.8
ElecMinimize: Iter: 120  F: -14.493738569507842  |grad|_K:  4.460e-06  alpha:  7.604e-02  linmin: -6.426e-03  t[s]:     90.65
ElecMinimize: 	Predicted alpha/alphaT>3.000000, increasing alphaT to 2.281115e-01.
	FillingsUpdate:  mu: -0.149949114  nElectrons: 9.000000
	SubspaceRotationAdjust: set factor to 6.94
ElecMinimize: Iter: 121  F: -14.493750836230733  |grad|_K:  3.708e-06  alpha:  1.168e-01  linmin: -8.721e-03  t[s]:     91.35
ElecMinimize: 	Predicted alpha/alphaT>3.000000, increasing alphaT to 3.504848e-01.
	FillingsUpdate:  mu: -0.149077955  nElectrons: 9.000000
	SubspaceRotationAdjust: set factor to 7.24
ElecMinimize: Iter: 122  F: -14.493780534598766  |grad|_K:  7.474e-06  alpha:  5.797e-01  linmin:  2.089e-04  t[s]:     92.06
ElecMinimize: 	Step increased F by 1.325509e-04, reducing alpha to 3.273575e-04.
	FillingsUpdate:  mu: -0.149077718  nElectrons: 9.000000
	SubspaceRotationAdjust: set factor to 9.6
ElecMinimize: Iter: 123  F: -14.493780590466503  |grad|_K:  7.519e-06  alpha:  3.274e-04  linmin: -3.301e-03  t[s]:     92.90
ElecMinimize: 	Predicted alpha/alphaT>3.000000, increasing alphaT to 9.820724e-04.
ElecMinimize: 	Predicted alpha/alphaT>3.000000, increasing alphaT to 2.946217e-03.
ElecMinimize: 	Predicted alpha/alphaT>3.000000, increasing alphaT to 8.838652e-03.
	FillingsUpdate:  mu: -0.149482264  nElectrons: 9.000000
	SubspaceRotationAdjust: set factor to 8.27
ElecMinimize: Iter: 124  F: -14.493795930850412  |grad|_K:  3.887e-06  alpha:  8.428e-02  linmin: -1.716e-04  t[s]:     93.79
	FillingsUpdate:  mu: -0.149190398  nElectrons: 9.000000
	SubspaceRotationAdjust: set factor to 9.04
ElecMinimize: Iter: 125  F: -14.493798742329313  |grad|_K:  3.223e-06  alpha:  1.078e-01  linmin: -6.483e-05  t[s]:     94.31
	FillingsUpdate:  mu: -0.149177283  nElectrons: 9.000000
	SubspaceRotationAdjust: set factor to 9.61
ElecMinimize: Iter: 126  F: -14.493798896031976  |grad|_K:  3.197e-06  alpha:  4.388e-03  linmin: -1.701e-03  t[s]:     94.83
ElecMinimize: 	Predicted alpha/alphaT>3.000000, increasing alphaT to 1.316404e-02.
ElecMinimize: 	Predicted alpha/alphaT>3.000000, increasing alphaT to 3.949212e-02.
ElecMinimize: 	Predicted alpha/alphaT>3.000000, increasing alphaT to 1.184763e-01.
ElecMinimize: 	Step increased F by 3.975243e-06, reducing alpha to 1.272737e-02.
	FillingsUpdate:  mu: -0.149125447  nElectrons: 9.000000
	SubspaceRotationAdjust: set factor to 10.1
ElecMinimize: Iter: 127  F: -14.493799716307496  |grad|_K:  2.951e-06  alpha:  1.273e-02  linmin: -2.698e-03  t[s]:     96.02
ElecMinimize: 	Predicted alpha/alphaT>3.000000, increasing alphaT to 3.818210e-02.
	FillingsUpdate:  mu: -0.148732870  nElectrons: 9.000000
	SubspaceRotationAdjust: set factor to 7.51
ElecMinimize: Iter: 128  F: -14.493803814216671  |grad|_K:  3.266e-06  alpha:  1.013e-01  linmin: -3.635e-06  t[s]:     96.73
ElecMinimize: 	Wrong curvature in test step, increasing alphaT to 3.040202e-01.
	FillingsUpdate:  mu: -0.155156810  nElectrons: 9.000000
	SubspaceRotationAdjust: set factor to 8.58
ElecMinimize: Iter: 129  F: -14.493830248713028  |grad|_K:  8.300e-06  alpha: -7.954e-03  linmin: -2.242e-02  t[s]:     97.21
ElecMinimize: 	Step increased F by 1.182703e-03, reducing alpha to 6.895890e-03.
	FillingsUpdate:  mu: -0.154883301  nElectrons: 9.000000
	SubspaceRotationAdjust: set factor to 9.63
ElecMinimize: Iter: 130  F: -14.493862222744434  |grad|_K:  8.901e-06  alpha:  6.896e-03  linmin: -2.362e-02  t[s]:     98.05
ElecMinimize: 	Predicted alpha/alphaT>3.000000, increasing alphaT to 2.068767e-02.
ElecMinimize: 	Predicted alpha/alphaT>3.000000, increasing alphaT to 6.206301e-02.
	FillingsUpdate:  mu: -0.154602682  nElectrons: 9.000000
	SubspaceRotationAdjust: set factor to 10.6
ElecMinimize: Iter: 131  F: -14.493898017038591  |grad|_K:  9.436e-06  alpha:  6.631e-03  linmin: -2.410e-02  t[s]:     98.95
ElecMinimize: 	Predicted alpha/alphaT>3.000000, increasing alphaT to 1.989416e-02.
ElecMinimize: 	Predicted alpha/alphaT>3.000000, increasing alphaT to 5.968248e-02.
	FillingsUpdate:  mu: -0.154343625  nElectrons: 9.000000
	SubspaceRotationAdjust: set factor to 11.2
ElecMinimize: Iter: 132  F: -14.493933577569294  |grad|_K:  9.840e-06  alpha:  5.792e-03  linmin: -2.317e-02  t[s]:     99.84
ElecMinimize: 	Predicted alpha/alphaT>3.000000, increasing alphaT to 1.737505e-02.
ElecMinimize: 	Predicted alpha/alphaT>3.000000, increasing alphaT to 5.212514e-02.
	FillingsUpdate:  mu: -0.154087529  nElectrons: 9.000000
	SubspaceRotationAdjust: set factor to 11.6
ElecMinimize: Iter: 133  F: -14.493970485766827  |grad|_K:  1.018e-05  alpha:  5.463e-03  linmin: -2.064e-02  t[s]:    100.75
ElecMinimize: 	Predicted alpha/alphaT>3.000000, increasing alphaT to 1.639024e-02.
ElecMinimize: 	Predicted alpha/alphaT>3.000000, increasing alphaT to 4.917072e-02.
	FillingsUpdate:  mu: -0.153843795  nElectrons: 9.000000
	SubspaceRotationAdjust: set factor to 11.7
ElecMinimize: Iter: 134  F: -14.494006031805791  |grad|_K:  1.048e-05  alpha:  4.866e-03  linmin: -1.794e-02  t[s]:    101.63
ElecMinimize: 	Predicted alpha/alphaT>3.000000, increasing alphaT to 1.459736e-02.
ElecMinimize: 	Predicted alpha/alphaT>3.000000, increasing alphaT to 4.379209e-02.
	FillingsUpdate:  mu: -0.153627863  nElectrons: 9.000000
	SubspaceRotationAdjust: set factor to 11.8
ElecMinimize: Iter: 135  F: -14.494036813771279  |grad|_K:  1.074e-05  alpha:  3.919e-03  linmin: -1.604e-02  t[s]:    102.51
ElecMinimize: 	Predicted alpha/alphaT>3.000000, increasing alphaT to 1.175572e-02.
ElecMinimize: 	Predicted alpha/alphaT>3.000000, increasing alphaT to 3.526715e-02.
	FillingsUpdate:  mu: -0.153528274  nElectrons: 9.000000
	SubspaceRotationAdjust: set factor to 12.1
ElecMinimize: Iter: 136  F: -14.494050444084259  |grad|_K:  1.085e-05  alpha:  1.612e-03  linmin: -1.528e-02  t[s]:    103.40
ElecMinimize: 	Predicted alpha/alphaT>3.000000, increasing alphaT to 4.834537e-03.
ElecMinimize: 	Predicted alpha/alphaT>3.000000, increasing alphaT to 1.450361e-02.
ElecMinimize: 	Predicted alpha/alphaT>3.000000, increasing alphaT to 4.351083e-02.
ElecMinimize: 	Step increased F by 8.335234e-03, reducing alpha to 1.122852e-02.
	FillingsUpdate:  mu: -0.152783661  nElectrons: 9.000000
	SubspaceRotationAdjust: set factor to 12.7
ElecMinimize: Iter: 137  F: -14.494146125174655  |grad|_K:  1.176e-05  alpha:  1.123e-02  linmin: -1.271e-02  t[s]:    104.59
ElecMinimize: 	Predicted alpha/alphaT>3.000000, increasing alphaT to 3.368557e-02.
	FillingsUpdate:  mu: -0.152666013  nElectrons: 9.000000
	SubspaceRotationAdjust: set factor to 14.5
ElecMinimize: Iter: 138  F: -14.494159683991407  |grad|_K:  1.193e-05  alpha:  1.374e-03  linmin: -1.372e-02  t[s]:    105.30
ElecMinimize: 	Predicted alpha/alphaT>3.000000, increasing alphaT to 4.123267e-03.
ElecMinimize: 	Predicted alpha/alphaT>3.000000, increasing alphaT to 1.236980e-02.
ElecMinimize: 	Predicted alpha/alphaT>3.000000, increasing alphaT to 3.710940e-02.
ElecMinimize: 	Step increased F by 4.333776e-03, reducing alpha to 7.794608e-03.
	FillingsUpdate:  mu: -0.151919749  nElectrons: 9.000000
	SubspaceRotationAdjust: set factor to 17.1
ElecMinimize: Iter: 139  F: -14.494237920748118  |grad|_K:  1.276e-05  alpha:  7.795e-03  linmin: -1.329e-02  t[s]:    106.50
	FillingsUpdate:  mu: -0.151886559  nElectrons: 9.000000
	SubspaceRotationAdjust: set factor to 21.4
ElecMinimize: Iter: 140  F: -14.494241071696580  |grad|_K:  1.304e-05  alpha:  2.763e-04  linmin: -1.602e-02  t[s]:    107.03
ElecMinimize: 	Predicted alpha/alphaT>3.000000, increasing alphaT to 8.290083e-04.
ElecMinimize: 	Predicted alpha/alphaT>3.000000, increasing alphaT to 2.487025e-03.
ElecMinimize: 	Predicted alpha/alphaT>3.000000, increasing alphaT to 7.461075e-03.
ElecMinimize: 	Step increased F by 2.613116e-03, reducing alpha to 6.188200e-03.
	FillingsUpdate:  mu: -0.151038095  nElectrons: 9.000000
	SubspaceRotationAdjust: set factor to 27.1
ElecMinimize: Iter: 141  F: -14.494314025977461  |grad|_K:  1.334e-05  alpha:  6.188e-03  linmin: -1.618e-02  t[s]:    108.21
	FillingsUpdate:  mu: -0.151009215  nElectrons: 9.000000
	SubspaceRotationAdjust: set factor to 34.9
ElecMinimize: Iter: 142  F: -14.494316292230264  |grad|_K:  1.379e-05  alpha:  1.859e-04  linmin: -1.690e-02  t[s]:    108.74
ElecMinimize: 	Predicted alpha/alphaT>3.000000, increasing alphaT to 5.578282e-04.
ElecMinimize: 	Predicted alpha/alphaT>3.000000, increasing alphaT to 1.673485e-03.
	FillingsUpdate:  mu: -0.151000381  nElectrons: 9.000000
	SubspaceRotationAdjust: set factor to 45.1
ElecMinimize: Iter: 143  F: -14.494316936451925  |grad|_K:  1.442e-05  alpha:  4.725e-05  linmin: -1.326e-02  t[s]:    109.62
ElecMinimize: 	Predicted alpha/alphaT>3.000000, increasing alphaT to 1.417449e-04.
ElecMinimize: 	Predicted alpha/alphaT>3.000000, increasing alphaT to 4.252346e-04.
ElecMinimize: 	Predicted alpha/alphaT>3.000000, increasing alphaT to 1.275704e-03.
	FillingsUpdate:  mu: -0.135200719  nElectrons: 9.000000
	SubspaceRotationAdjust: set factor to 25
ElecMinimize: Iter: 144  F: -14.494383753631775  |grad|_K:  5.465e-05  alpha:  3.532e-02  linmin:  1.808e-03  t[s]:    110.50
ElecMinimize: 	Bad step direction: g.d > 0.
ElecMinimize: 	Undoing step.
ElecMinimize: 	Step failed: resetting search direction.
	FillingsUpdate:  mu: -0.135200719  nElectrons: 9.000000
	SubspaceRotationAdjust: set factor to 15
ElecMinimize: Iter: 145  F: -14.494383753631789  |grad|_K:  4.226e-05  alpha:  0.000e+00
	FillingsUpdate:  mu: -0.148022524  nElectrons: 9.000000
	SubspaceRotationAdjust: set factor to 14
ElecMinimize: Iter: 146  F: -14.494581864784541  |grad|_K:  1.424e-05  alpha:  1.962e-02  linmin: -6.734e-04  t[s]:    111.37
ElecMinimize: 	Predicted alpha/alphaT>3.000000, increasing alphaT to 5.884835e-02.
ElecMinimize: 	Step increased F by 1.325390e-04, reducing alpha to 1.130951e-02.
	FillingsUpdate:  mu: -0.148114668  nElectrons: 9.000000
	SubspaceRotationAdjust: set factor to 14.5
ElecMinimize: Iter: 147  F: -14.494589926534729  |grad|_K:  1.341e-05  alpha:  1.131e-02  linmin: -1.794e-03  t[s]:    112.38
ElecMinimize: 	Predicted alpha/alphaT>3.000000, increasing alphaT to 3.392852e-02.
ElecMinimize: 	Step increased F by 1.548982e-04, reducing alpha to 9.130971e-03.
	FillingsUpdate:  mu: -0.148096720  nElectrons: 9.000000
	SubspaceRotationAdjust: set factor to 15.2
ElecMinimize: Iter: 148  F: -14.494600293467188  |grad|_K:  1.239e-05  alpha:  9.131e-03  linmin: -1.868e-03  t[s]:    113.40
ElecMinimize: 	Predicted alpha/alphaT>3.000000, increasing alphaT to 2.739291e-02.
ElecMinimize: 	Step increased F by 1.447856e-04, reducing alpha to 7.436648e-03.
	FillingsUpdate:  mu: -0.148010823  nElectrons: 9.000000
	SubspaceRotationAdjust: set factor to 16.1
ElecMinimize: Iter: 149  F: -14.494610377861340  |grad|_K:  1.139e-05  alpha:  7.437e-03  linmin: -1.981e-03  t[s]:    114.41
ElecMinimize: 	Predicted alpha/alphaT>3.000000, increasing alphaT to 2.230994e-02.
	FillingsUpdate:  mu: -0.145899413  nElectrons: 9.000000
	SubspaceRotationAdjust: set factor to 13.6
ElecMinimize: Iter: 150  F: -14.494653752405064  |grad|_K:  1.503e-05  alpha:  6.398e-02  linmin:  5.794e-04  t[s]:    115.12
	FillingsUpdate:  mu: -0.145895139  nElectrons: 9.000000
	SubspaceRotationAdjust: set factor to 15.3
ElecMinimize: Iter: 151  F: -14.494653768326643  |grad|_K:  1.373e-05  alpha:  7.931e-05  linmin: -4.816e-04  t[s]:    115.64
ElecMinimize: 	Predicted alpha/alphaT>3.000000, increasing alphaT to 2.379311e-04.
ElecMinimize: 	Predicted alpha/alphaT>3.000000, increasing alphaT to 7.137933e-04.
ElecMinimize: 	Predicted alpha/alphaT>3.000000, increasing alphaT to 2.141380e-03.
ElecMinimize: 	Step increased F by 1.197469e-04, reducing alpha to 6.254615e-03.
	FillingsUpdate:  mu: -0.146092173  nElectrons: 9.000000
	SubspaceRotationAdjust: set factor to 8.42
ElecMinimize: Iter: 152  F: -14.494659287637589  |grad|_K:  3.532e-05  alpha:  6.255e-03  linmin: -3.729e-03  t[s]:    116.83
	FillingsUpdate:  mu: -0.146809971  nElectrons: 9.000000
	SubspaceRotationAdjust: set factor to 9.8
ElecMinimize: Iter: 153  F: -14.494671176052515  |grad|_K:  1.402e-05  alpha:  3.512e-03  linmin: -1.809e-04  t[s]:    117.35
ElecMinimize: 	Predicted alpha/alphaT>3.000000, increasing alphaT to 1.053467e-02.
	FillingsUpdate:  mu: -0.146888301  nElectrons: 9.000000
	SubspaceRotationAdjust: set factor to 10.1
ElecMinimize: Iter: 154  F: -14.494681006486699  |grad|_K:  1.511e-05  alpha:  2.860e-02  linmin: -1.041e-05  t[s]:    118.06
	FillingsUpdate:  mu: -0.147034713  nElectrons: 9.000000
	SubspaceRotationAdjust: set factor to 10.1
ElecMinimize: Iter: 155  F: -14.494690218793922  |grad|_K:  1.417e-05  alpha:  2.419e-02  linmin: -1.752e-06  t[s]:    118.59
	FillingsUpdate:  mu: -0.147154386  nElectrons: 9.000000
	SubspaceRotationAdjust: set factor to 10.2
ElecMinimize: Iter: 156  F: -14.494697477274004  |grad|_K:  1.207e-05  alpha:  2.179e-02  linmin: -4.807e-08  t[s]:    119.12
	FillingsUpdate:  mu: -0.147188236  nElectrons: 9.000000
	SubspaceRotationAdjust: set factor to 10.6
ElecMinimize: Iter: 157  F: -14.494702558725288  |grad|_K:  1.016e-05  alpha:  2.104e-02  linmin:  1.149e-07  t[s]:    119.65
	FillingsUpdate:  mu: -0.147134783  nElectrons: 9.000000
	SubspaceRotationAdjust: set factor to 11.4
ElecMinimize: Iter: 158  F: -14.494706316792504  |grad|_K:  9.151e-06  alpha:  2.199e-02  linmin: -7.295e-08  t[s]:    120.18
	FillingsUpdate:  mu: -0.147005025  nElectrons: 9.000000
	SubspaceRotationAdjust: set factor to 12.1
ElecMinimize: Iter: 159  F: -14.494709690997771  |grad|_K:  9.220e-06  alpha:  2.432e-02  linmin: -8.023e-07  t[s]:    120.71
	FillingsUpdate:  mu: -0.146804077  nElectrons: 9.000000
	SubspaceRotationAdjust: set factor to 12.2
ElecMinimize: Iter: 160  F: -14.494713513461642  |grad|_K:  1.023e-05  alpha:  2.712e-02  linmin: -6.400e-07  t[s]:    121.24
	FillingsUpdate:  mu: -0.146559840  nElectrons: 9.000000
	SubspaceRotationAdjust: set factor to 12.2
ElecMinimize: Iter: 161  F: -14.494718512750232  |grad|_K:  1.176e-05  alpha:  2.882e-02  linmin:  7.121e-08  t[s]:    121.77
	FillingsUpdate:  mu: -0.146359194  nElectrons: 9.000000
	SubspaceRotationAdjust: set factor to 12.5
ElecMinimize: Iter: 162  F: -14.494724860187105  |grad|_K:  1.284e-05  alpha:  2.770e-02  linmin:  1.943e-06  t[s]:    122.30
	FillingsUpdate:  mu: -0.146311916  nElectrons: 9.000000
	SubspaceRotationAdjust: set factor to 13.9
ElecMinimize: Iter: 163  F: -14.494731520827100  |grad|_K:  1.249e-05  alpha:  2.443e-02  linmin:  2.281e-06  t[s]:    122.83
	FillingsUpdate:  mu: -0.146447723  nElectrons: 9.000000
	SubspaceRotationAdjust: set factor to 16.6
ElecMinimize: Iter: 164  F: -14.494737048477742  |grad|_K:  1.074e-05  alpha:  2.141e-02  linmin:  1.021e-07  t[s]:    123.37
	FillingsUpdate:  mu: -0.146695039  nElectrons: 9.000000
	SubspaceRotationAdjust: set factor to 19.9
ElecMinimize: Iter: 165  F: -14.494740694811464  |grad|_K:  8.598e-06  alpha:  1.909e-02  linmin: -1.689e-06  t[s]:    123.89
	FillingsUpdate:  mu: -0.146972258  nElectrons: 9.000000
	SubspaceRotationAdjust: set factor to 21.4
ElecMinimize: Iter: 166  F: -14.494742969301438  |grad|_K:  7.028e-06  alpha:  1.855e-02  linmin: -2.351e-06  t[s]:    124.43
	FillingsUpdate:  mu: -0.147240809  nElectrons: 9.000000
	SubspaceRotationAdjust: set factor to 21
ElecMinimize: Iter: 167  F: -14.494744670498100  |grad|_K:  6.588e-06  alpha:  2.069e-02  linmin: -1.057e-06  t[s]:    124.96
	FillingsUpdate:  mu: -0.147479953  nElectrons: 9.000000
	SubspaceRotationAdjust: set factor to 22.1
ElecMinimize: Iter: 168  F: -14.494746478094372  |grad|_K:  7.301e-06  alpha:  2.508e-02  linmin:  4.661e-07  t[s]:    125.49
	FillingsUpdate:  mu: -0.147642173  nElectrons: 9.000000
	SubspaceRotationAdjust: set factor to 25.4
ElecMinimize: Iter: 169  F: -14.494748892940075  |grad|_K:  8.566e-06  alpha:  2.737e-02  linmin:  1.659e-07  t[s]:    126.02
	FillingsUpdate:  mu: -0.147657358  nElectrons: 9.000000
	SubspaceRotationAdjust: set factor to 28.1
ElecMinimize: Iter: 170  F: -14.494752006379917  |grad|_K:  9.422e-06  alpha:  2.562e-02  linmin: -8.123e-07  t[s]:    126.55
	FillingsUpdate:  mu: -0.147566191  nElectrons: 9.000000
	SubspaceRotationAdjust: set factor to 28
ElecMinimize: Iter: 171  F: -14.494755419177276  |grad|_K:  9.612e-06  alpha:  2.320e-02  linmin: -6.098e-07  t[s]:    127.08
	FillingsUpdate:  mu: -0.147526478  nElectrons: 9.000000
	SubspaceRotationAdjust: set factor to 28.4
ElecMinimize: Iter: 172  F: -14.494758864367604  |grad|_K:  9.496e-06  alpha:  2.247e-02  linmin:  2.432e-06  t[s]:    127.60
	FillingsUpdate:  mu: -0.147526881  nElectrons: 9.000000
	SubspaceRotationAdjust: set factor to 32
ElecMinimize: Iter: 173  F: -14.494758884592267  |grad|_K:  9.498e-06  alpha:  6.811e-05  linmin: -1.163e-03  t[s]:    128.14
ElecMinimize: 	Predicted alpha/alphaT>3.000000, increasing alphaT to 2.043312e-04.
ElecMinimize: 	Predicted alpha/alphaT>3.000000, increasing alphaT to 6.129935e-04.
ElecMinimize: 	Predicted alpha/alphaT>3.000000, increasing alphaT to 1.838981e-03.
	FillingsUpdate:  mu: -0.147897843  nElectrons: 9.000000
	SubspaceRotationAdjust: set factor to 37.5
ElecMinimize: Iter: 174  F: -14.494766895767091  |grad|_K:  5.818e-06  alpha:  2.694e-02  linmin:  8.696e-06  t[s]:    129.03
	FillingsUpdate:  mu: -0.148066586  nElectrons: 9.000000
	SubspaceRotationAdjust: set factor to 38.7
ElecMinimize: Iter: 175  F: -14.494768053188560  |grad|_K:  4.587e-06  alpha:  2.074e-02  linmin: -8.606e-07  t[s]:    129.56
	FillingsUpdate:  mu: -0.148159937  nElectrons: 9.000000
	SubspaceRotationAdjust: set factor to 38.5
ElecMinimize: Iter: 176  F: -14.494768895710125  |grad|_K:  4.299e-06  alpha:  2.411e-02  linmin: -2.123e-06  t[s]:    130.08
	FillingsUpdate:  mu: -0.148145874  nElectrons: 9.000000
	SubspaceRotationAdjust: set factor to 41.6
ElecMinimize: Iter: 177  F: -14.494769755783532  |grad|_K:  4.423e-06  alpha:  2.796e-02  linmin: -4.344e-07  t[s]:    130.62
	FillingsUpdate:  mu: -0.148055393  nElectrons: 9.000000
	SubspaceRotationAdjust: set factor to 42.1
ElecMinimize: Iter: 178  F: -14.494770682739164  |grad|_K:  4.732e-06  alpha:  2.859e-02  linmin:  3.832e-08  t[s]:    131.15
	FillingsUpdate:  mu: -0.147990266  nElectrons: 9.000000
	SubspaceRotationAdjust: set factor to 42.4
ElecMinimize: Iter: 179  F: -14.494771812586146  |grad|_K:  5.382e-06  alpha:  3.049e-02  linmin:  3.739e-06  t[s]:    131.67
	FillingsUpdate:  mu: -0.148036205  nElectrons: 9.000000
	SubspaceRotationAdjust: set factor to 47.3
ElecMinimize: Iter: 180  F: -14.494773152721097  |grad|_K:  5.524e-06  alpha:  2.813e-02  linmin:  1.427e-06  t[s]:    132.20
	FillingsUpdate:  mu: -0.148119238  nElectrons: 9.000000
	SubspaceRotationAdjust: set factor to 49.1
ElecMinimize: Iter: 181  F: -14.494774310271955  |grad|_K:  4.818e-06  alpha:  2.295e-02  linmin: -1.359e-06  t[s]:    132.73
	FillingsUpdate:  mu: -0.148112327  nElectrons: 9.000000
	SubspaceRotationAdjust: set factor to 49.3
ElecMinimize: Iter: 182  F: -14.494775206534603  |grad|_K:  4.264e-06  alpha:  2.324e-02  linmin: -2.112e-06  t[s]:    133.26
	FillingsUpdate:  mu: -0.148011012  nElectrons: 9.000000
	SubspaceRotationAdjust: set factor to 53.5
ElecMinimize: Iter: 183  F: -14.494775910235221  |grad|_K:  3.640e-06  alpha:  2.325e-02  linmin: -1.485e-07  t[s]:    133.79
	FillingsUpdate:  mu: -0.147935372  nElectrons: 9.000000
	SubspaceRotationAdjust: set factor to 53.6
ElecMinimize: Iter: 184  F: -14.494776412791142  |grad|_K:  3.229e-06  alpha:  2.288e-02  linmin:  8.539e-07  t[s]:    134.31
	FillingsUpdate:  mu: -0.147944932  nElectrons: 9.000000
	SubspaceRotationAdjust: set factor to 54.7
ElecMinimize: Iter: 185  F: -14.494776855653280  |grad|_K:  3.279e-06  alpha:  2.571e-02  linmin:  2.570e-06  t[s]:    134.84
	FillingsUpdate:  mu: -0.147980084  nElectrons: 9.000000
	SubspaceRotationAdjust: set factor to 58.6
	SubspaceRotationAdjust: resetting CG because factor has changed by 7.43322
ElecMinimize: 	State modified externally: resetting search direction.
ElecMinimize: Iter: 186  F: -14.494777312633000  |grad|_K:  3.248e-06  alpha:  2.577e-02
ElecMinimize: 	Predicted alpha/alphaT>3.000000, increasing alphaT to 7.732369e-02.
	FillingsUpdate:  mu: -0.147952304  nElectrons: 9.000000
	SubspaceRotationAdjust: set factor to 60.9
ElecMinimize: Iter: 187  F: -14.494777605620088  |grad|_K:  2.992e-06  alpha:  8.784e-03  linmin: -6.624e-04  t[s]:    136.33
ElecMinimize: 	Predicted alpha/alphaT>3.000000, increasing alphaT to 2.635174e-02.
ElecMinimize: 	Step increased F by 1.243298e-05, reducing alpha to 6.817567e-03.
	FillingsUpdate:  mu: -0.147924275  nElectrons: 9.000000
	SubspaceRotationAdjust: set factor to 60.6
ElecMinimize: Iter: 188  F: -14.494777972066872  |grad|_K:  2.781e-06  alpha:  6.818e-03  linmin: -8.424e-04  t[s]:    137.34
ElecMinimize: 	Predicted alpha/alphaT>3.000000, increasing alphaT to 2.045270e-02.
ElecMinimize: 	Predicted alpha/alphaT>3.000000, increasing alphaT to 6.135810e-02.
	FillingsUpdate:  mu: -0.147890893  nElectrons: 9.000000
	SubspaceRotationAdjust: set factor to 61.1
ElecMinimize: Iter: 189  F: -14.494778622453241  |grad|_K:  2.558e-06  alpha:  1.016e-02  linmin: -1.317e-03  t[s]:    138.23
ElecMinimize: 	Predicted alpha/alphaT>3.000000, increasing alphaT to 3.048682e-02.
	FillingsUpdate:  mu: -0.147853402  nElectrons: 9.000000
	SubspaceRotationAdjust: set factor to 70.3
ElecMinimize: Iter: 190  F: -14.494780882461162  |grad|_K:  2.549e-06  alpha:  6.351e-02  linmin: -1.644e-06  t[s]:    138.93
	FillingsUpdate:  mu: -0.147853664  nElectrons: 9.000000
	SubspaceRotationAdjust: set factor to 90
ElecMinimize: Iter: 191  F: -14.494780885266531  |grad|_K:  2.596e-06  alpha:  1.306e-04  linmin: -5.038e-04  t[s]:    139.46
ElecMinimize: 	Predicted alpha/alphaT>3.000000, increasing alphaT to 3.918208e-04.
ElecMinimize: 	Predicted alpha/alphaT>3.000000, increasing alphaT to 1.175462e-03.
ElecMinimize: 	Predicted alpha/alphaT>3.000000, increasing alphaT to 3.526387e-03.
	FillingsUpdate:  mu: -0.147965356  nElectrons: 9.000000
	SubspaceRotationAdjust: set factor to 69
ElecMinimize: Iter: 192  F: -14.494781326757122  |grad|_K:  3.838e-06  alpha:  2.116e-02  linmin:  4.776e-05  t[s]:    140.34
	FillingsUpdate:  mu: -0.147965385  nElectrons: 9.000000
	SubspaceRotationAdjust: set factor to 62.6
ElecMinimize: Iter: 193  F: -14.494781327001055  |grad|_K:  3.553e-06  alpha:  6.476e-06  linmin: -3.568e-04  t[s]:    140.87
ElecMinimize: 	Wrong curvature in test step, increasing alphaT to 1.942850e-05.
	FillingsUpdate:  mu: -0.147965370  nElectrons: 9.000000
	SubspaceRotationAdjust: set factor to 59.4
ElecMinimize: Iter: 194  F: -14.494781327483187  |grad|_K:  3.461e-06  alpha: -1.295e-03  linmin: -7.292e-03  t[s]:    141.35
	FillingsUpdate:  mu: -0.147927389  nElectrons: 9.000000
	SubspaceRotationAdjust: set factor to 93.3
ElecMinimize: Iter: 195  F: -14.494781832278038  |grad|_K:  2.726e-06  alpha:  5.046e-03  linmin: -1.047e-03  t[s]:    141.88
ElecMinimize: 	Predicted alpha/alphaT>3.000000, increasing alphaT to 1.513776e-02.
	FillingsUpdate:  mu: -0.147735208  nElectrons: 9.000000
	SubspaceRotationAdjust: set factor to 50
ElecMinimize: Iter: 196  F: -14.494782856057670  |grad|_K:  6.575e-06  alpha:  2.484e-02  linmin:  5.401e-04  t[s]:    142.58
ElecMinimize: 	Bad step direction: g.d > 0.
ElecMinimize: 	Undoing step.
ElecMinimize: 	Step failed: resetting search direction.
	FillingsUpdate:  mu: -0.147735208  nElectrons: 9.000000
	SubspaceRotationAdjust: set factor to 28.3
ElecMinimize: Iter: 197  F: -14.494782856057627  |grad|_K:  4.948e-06  alpha:  0.000e+00
	FillingsUpdate:  mu: -0.147817916  nElectrons: 9.000000
	SubspaceRotationAdjust: set factor to 46
ElecMinimize: Iter: 198  F: -14.494783294739049  |grad|_K:  1.586e-06  alpha:  1.640e-02  linmin: -2.091e-04  t[s]:    143.45
ElecMinimize: 	Predicted alpha/alphaT>3.000000, increasing alphaT to 4.919151e-02.
	FillingsUpdate:  mu: -0.147940300  nElectrons: 9.000000
	SubspaceRotationAdjust: set factor to 27.3
ElecMinimize: Iter: 199  F: -14.494783716214316  |grad|_K:  2.438e-06  alpha:  8.894e-02  linmin:  6.334e-05  t[s]:    144.15
	FillingsUpdate:  mu: -0.147856612  nElectrons: 9.000000
	SubspaceRotationAdjust: set factor to 48.8
ElecMinimize: Iter: 200  F: -14.494784134554457  |grad|_K:  1.445e-06  alpha:  4.552e-02  linmin:  6.139e-06  t[s]:    144.68
	FillingsUpdate:  mu: -0.147694781  nElectrons: 9.000000
	SubspaceRotationAdjust: set factor to 35.7
ElecMinimize: Iter: 201  F: -14.494784441234055  |grad|_K:  2.333e-06  alpha:  8.627e-02  linmin: -3.568e-05  t[s]:    145.21
	FillingsUpdate:  mu: -0.147845974  nElectrons: 9.000000
	SubspaceRotationAdjust: set factor to 23.9
ElecMinimize: Iter: 202  F: -14.494785783384021  |grad|_K:  1.655e-06  alpha:  1.408e-01  linmin:  8.474e-06  t[s]:    145.74
	FillingsUpdate:  mu: -0.147576959  nElectrons: 9.000000
	SubspaceRotationAdjust: set factor to 14.5
ElecMinimize: Iter: 203  F: -14.494786036391837  |grad|_K:  1.497e-06  alpha:  5.537e-02  linmin: -3.838e-06  t[s]:    146.27
ElecMinimize: 	Predicted alpha/alphaT>3.000000, increasing alphaT to 1.661177e-01.
	FillingsUpdate:  mu: -0.147561365  nElectrons: 9.000000
	SubspaceRotationAdjust: set factor to 8.55
ElecMinimize: Iter: 204  F: -14.494786685071940  |grad|_K:  1.548e-06  alpha:  1.734e-01  linmin:  2.259e-07  t[s]:    146.97
	FillingsUpdate:  mu: -0.147646767  nElectrons: 9.000000
	SubspaceRotationAdjust: set factor to 11.1
ElecMinimize: Iter: 205  F: -14.494787023353334  |grad|_K:  6.760e-07  alpha:  8.529e-02  linmin:  5.964e-07  t[s]:    147.50
	FillingsUpdate:  mu: -0.147661601  nElectrons: 9.000000
	SubspaceRotationAdjust: set factor to 8.57
ElecMinimize: Iter: 206  F: -14.494787175734510  |grad|_K:  7.594e-07  alpha:  2.014e-01  linmin:  7.898e-07  t[s]:    148.03
	FillingsUpdate:  mu: -0.147655441  nElectrons: 9.000000
	SubspaceRotationAdjust: set factor to 9.48
ElecMinimize: Iter: 207  F: -14.494787326726584  |grad|_K:  5.349e-07  alpha:  1.581e-01  linmin:  1.323e-07  t[s]:    148.56
	FillingsUpdate:  mu: -0.147592302  nElectrons: 9.000000
	SubspaceRotationAdjust: set factor to 8.63
ElecMinimize: Iter: 208  F: -14.494787415199459  |grad|_K:  4.590e-07  alpha:  1.866e-01  linmin: -4.459e-07  t[s]:    149.08
	FillingsUpdate:  mu: -0.147595588  nElectrons: 9.000000
	SubspaceRotationAdjust: set factor to 8.79
ElecMinimize: Iter: 209  F: -14.494787475722838  |grad|_K:  3.301e-07  alpha:  1.733e-01  linmin: -1.938e-07  t[s]:    149.61
	FillingsUpdate:  mu: -0.147645307  nElectrons: 9.000000
	SubspaceRotationAdjust: set factor to 7.31
	SubspaceRotationAdjust: resetting CG because factor has changed by 0.124665
ElecMinimize: 	State modified externally: resetting search direction.
ElecMinimize: Iter: 210  F: -14.494787500077448  |grad|_K:  1.729e-07  alpha:  1.349e-01
	FillingsUpdate:  mu: -0.147618072  nElectrons: 9.000000
	SubspaceRotationAdjust: set factor to 12.1
ElecMinimize: Iter: 211  F: -14.494787508662231  |grad|_K:  6.819e-08  alpha:  1.732e-01  linmin: -1.845e-06  t[s]:    150.93
	FillingsUpdate:  mu: -0.147631304  nElectrons: 9.000000
	SubspaceRotationAdjust: set factor to 9.97
ElecMinimize: Iter: 212  F: -14.494787511644182  |grad|_K:  6.588e-08  alpha:  3.868e-01  linmin: -1.590e-06  t[s]:    151.47
	FillingsUpdate:  mu: -0.147611195  nElectrons: 9.000000
	SubspaceRotationAdjust: set factor to 7.11
ElecMinimize: Iter: 213  F: -14.494787513561535  |grad|_K:  7.349e-08  alpha:  2.667e-01  linmin:  6.971e-07  t[s]:    152.00
	FillingsUpdate:  mu: -0.147622313  nElectrons: 9.000000
	SubspaceRotationAdjust: set factor to 4.77
ElecMinimize: Iter: 214  F: -14.494787514975306  |grad|_K:  4.431e-08  alpha:  1.580e-01  linmin:  1.212e-06  t[s]:    152.53
ElecMinimize: Converged (|Delta F|<1.000000e-08 for 4 iters).
Setting wave functions to eigenvectors of Hamiltonian

# Ionic positions in lattice coordinates:
ion Cs   0.000000000000000   0.000000000000000   0.000000000000000 0

# Forces in Lattice coordinates:
force Cs  -0.000000000000000   0.000000000000000   0.000000000000000 0

# Energy components:
   Eewald =      -58.2194390333311631
       EH =      -50.0708203448287961
     Eloc =       79.1138287671129774
      Enl =        7.1163791689570655
   Epulay =       -0.0000000128079207
      Exc =       -4.8637973985247811
       KE =       12.4290613853807699
-------------------------------------
     Etot =      -14.4947874680418458
       TS =        0.0000000469334593
-------------------------------------
        F =      -14.4947875149753056

IonicMinimize: Iter:   0  F: -14.494787514975306  |grad|_K:  0.000e+00  t[s]:    152.60
IonicMinimize: Converged (|grad|_K<1.000000e-04).

#--- Lowdin population analysis ---
# oxidation-state Cs +2.650

End date and time: Sun Jan 16 16:33:12 2022  (Duration: 0-0:02:32.62)
Done!
