1.67
--------------------------------------------------------------------------
The library attempted to open the following supporting CUDA libraries,
but each of them failed.  CUDA-aware support is disabled.
libcuda.so.1: cannot open shared object file: No such file or directory
libcuda.dylib: cannot open shared object file: No such file or directory
/usr/lib64/libcuda.so.1: cannot open shared object file: No such file or directory
/usr/lib64/libcuda.dylib: cannot open shared object file: No such file or directory
If you are not interested in CUDA-aware support, then run with
--mca opal_warn_on_missing_libcuda 0 to suppress this message.  If you are interested
in CUDA-aware support, then try setting LD_LIBRARY_PATH to the location
of libcuda.so.1 to get passed this issue.
--------------------------------------------------------------------------
--------------------------------------------------------------------------
No OpenFabrics connection schemes reported that they were able to be
used on a specific port.  As such, the openib BTL (OpenFabrics
support) will be disabled for this port.

  Local host:           d-17-9-2
  Local device:         mlx5_1
  Local port:           1
  CPCs attempted:       rdmacm, udcm
--------------------------------------------------------------------------

*************** JDFTx 1.6.0 (git hash 42ebbcc2) ***************

Start date and time: Sun Jan 16 16:33:41 2022
Executable jdftx with command-line: -i Cesium.in
Running on hosts (process indices):  d-17-9-2 (0-18)
Divided in process groups (process indices):  0 (0)  1 (1)  2 (2)  3 (3)  4 (4)  5 (5)  6 (6)  7 (7)  8 (8)  9 (9)  10 (10)  11 (11)  12 (12)  13 (13)  14 (14)  15 (15)  16 (16)  17 (17)  18 (18)
Resource initialization completed at t[s]:      0.00
Run totals: 19 processes, 48 threads, 0 GPUs


Input parsed successfully to the following command list (including defaults):

basis kpoint-dependent
coords-type Lattice
core-overlap-check vector
coulomb-interaction Slab 001
davidson-band-ratio 1.1
dump End None
dump-name $INPUT.$VAR
elec-cutoff 20
elec-eigen-algo Davidson
elec-ex-corr gga-PBE
elec-smearing Fermi 1e-05
electronic-minimize  \
	dirUpdateScheme      FletcherReeves \
	linminMethod         DirUpdateRecommended \
	nIterations          10000 \
	history              15 \
	knormThreshold       0 \
	energyDiffThreshold  1e-08 \
	nEnergyDiff          4 \
	alphaTstart          1 \
	alphaTmin            1e-10 \
	updateTestStepSize   yes \
	alphaTreduceFactor   0.1 \
	alphaTincreaseFactor 3 \
	nAlphaAdjustMax      3 \
	wolfeEnergy          0.0001 \
	wolfeGradient        0.9 \
	fdTest               no
exchange-regularization WignerSeitzTruncated
fluid None
fluid-ex-corr (null) lda-PZ
fluid-gummel-loop 10 1.000000e-05
fluid-minimize  \
	dirUpdateScheme      PolakRibiere \
	linminMethod         DirUpdateRecommended \
	nIterations          100 \
	history              15 \
	knormThreshold       0 \
	energyDiffThreshold  0 \
	nEnergyDiff          2 \
	alphaTstart          1 \
	alphaTmin            1e-10 \
	updateTestStepSize   yes \
	alphaTreduceFactor   0.1 \
	alphaTincreaseFactor 3 \
	nAlphaAdjustMax      3 \
	wolfeEnergy          0.0001 \
	wolfeGradient        0.9 \
	fdTest               no
fluid-solvent H2O 55.338 ScalarEOS \
	epsBulk 78.4 \
	pMol 0.92466 \
	epsInf 1.77 \
	Pvap 1.06736e-10 \
	sigmaBulk 4.62e-05 \
	Rvdw 2.61727 \
	Res 1.42 \
	tauNuc 343133 \
	poleEl 15 7 1
forces-output-coords Positions
ion Cs   0.000000000000000   0.000000000000000   0.000000000000000 0
ion-species SG15/$ID_ONCV_PBE.upf
ion-width 0
ionic-minimize  \
	dirUpdateScheme      L-BFGS \
	linminMethod         DirUpdateRecommended \
	nIterations          0 \
	history              15 \
	knormThreshold       0.0001 \
	energyDiffThreshold  1e-06 \
	nEnergyDiff          2 \
	alphaTstart          1 \
	alphaTmin            1e-10 \
	updateTestStepSize   yes \
	alphaTreduceFactor   0.1 \
	alphaTincreaseFactor 3 \
	nAlphaAdjustMax      3 \
	wolfeEnergy          0.0001 \
	wolfeGradient        0.9 \
	fdTest               no
kpoint   0.000000000000   0.000000000000   0.000000000000  1.00000000000000
kpoint-folding 48 48 1 
latt-move-scale 1 1 1
latt-scale 1.67 1.67 1 
lattice  \
	   4.727486978767153   -2.363743489383575    0.000000000000000  \
	  -0.000000000000000    4.094123819672498    0.000000000000000  \
	   0.000000000000000    0.000000000000000   40.000000000000000 
lattice-minimize  \
	dirUpdateScheme      L-BFGS \
	linminMethod         DirUpdateRecommended \
	nIterations          0 \
	history              15 \
	knormThreshold       0 \
	energyDiffThreshold  1e-06 \
	nEnergyDiff          2 \
	alphaTstart          1 \
	alphaTmin            1e-10 \
	updateTestStepSize   yes \
	alphaTreduceFactor   0.1 \
	alphaTincreaseFactor 3 \
	nAlphaAdjustMax      3 \
	wolfeEnergy          0.0001 \
	wolfeGradient        0.9 \
	fdTest               no
lcao-params -1 1e-06 1e-05
pcm-variant GLSSA13
spintype no-spin
subspace-rotation-factor 1 yes
symmetries automatic
symmetry-threshold 0.0001



---------- Setting up symmetries ----------

Found 24 point-group symmetries of the bravais lattice
Found 24 space-group symmetries with basis
Applied RMS atom displacement 0 bohrs to make symmetries exact.

---------- Initializing the Grid ----------
R = 
[       7.8949     -3.94745            0  ]
[            0      6.83719            0  ]
[            0            0           40  ]
unit cell volume = 2159.16
G =
[   0.795853   0.459486         -0  ]
[          0   0.918972         -0  ]
[         -0         -0    0.15708  ]
Minimum fftbox size, Smin = [  32  32  164  ]
Chosen fftbox size, S = [  32  32  168  ]

---------- Exchange Correlation functional ----------
Initalized PBE GGA exchange.
Initalized PBE GGA correlation.

---------- Setting up pseudopotentials ----------
Width of ionic core gaussian charges (only for fluid interactions / plotting) set to 0

Reading pseudopotential file '/home/gridsan/aligho/DFT/build-Nov24/pseudopotentials/SG15/Cs_ONCV_PBE.upf':
  'Cs' pseudopotential, 'PBE' functional
  Generated using ONCVPSP code by D. R. Hamann
  Author: Martin Schlipf and Francois Gygi  Date: 150915.
  9 valence electrons, 3 orbitals, 6 projectors, 2414 radial grid points, with lMax = 2
  Transforming local potential to a uniform radial grid of dG=0.02 with 1440 points.
  Transforming nonlocal projectors to a uniform radial grid of dG=0.02 with 432 points.
    5S    l: 0   occupation:  2.0   eigenvalue: -0.982388
    5P    l: 1   occupation:  6.0   eigenvalue: -0.496786
    6S    l: 0   occupation:  1.0   eigenvalue: -0.076670
  Transforming atomic orbitals to a uniform radial grid of dG=0.02 with 432 points.
  Core radius for overlap checks: 2.06 bohrs.
  Reading pulay file /home/gridsan/aligho/DFT/build-Nov24/pseudopotentials/SG15/Cs_ONCV_PBE.pulay ... using dE_dnG = -1.008762e-04 computed for Ecut = 20.

Initialized 1 species with 1 total atoms.

Folded 1 k-points by 48x48x1 to 2304 k-points.

---------- Setting up k-points, bands, fillings ----------
Reduced to 217 k-points under symmetry. 
Computing the number of bands and number of electrons
Calculating initial fillings.
nElectrons:   9.000000   nBands: 6   nStates: 217

----- Setting up reduced wavefunction bases (one per k-point) -----
average nbasis = 9224.285 , ideal nbasis = 9224.084

---------- Setting up coulomb interaction ----------
Initialized slab truncation along lattice direction 001

---------- Setting up 2D ewald sum ----------
Optimum gaussian width for ewald sums = 4.382932 bohr.
Real space sums over 289 unit cells with max indices [  8  8  0  ]
Reciprocal space sums over 81 terms with max indices [  4  4  0  ]

---------- Allocating electronic variables ----------
Initializing wave functions:  linear combination of atomic orbitals
Note: number of bands (6) exceeds available atomic orbitals (5)
Cs pseudo-atom occupations:   s ( 2 1 )  p ( 6 )
	FillingsUpdate:  mu: -0.099672407  nElectrons: 9.000000
LCAOMinimize: Iter:   0  F: -20.1607326133611799  |grad|_K:  1.695e-05  alpha:  1.000e+00
[d-17-9-2:88807] 18 more processes have sent help message help-mpi-common-cuda.txt / dlopen failed
[d-17-9-2:88807] Set MCA parameter "orte_base_help_aggregate" to 0 to see all help / error messages
[d-17-9-2:88807] 18 more processes have sent help message help-mpi-btl-openib-cpc-base.txt / no cpcs for port
	FillingsUpdate:  mu: -0.099614014  nElectrons: 9.000000
LCAOMinimize: Iter:   1  F: -20.1607336973712741  |grad|_K:  3.794e-07  alpha:  9.672e-01  linmin: -3.526e-02  cgtest:  7.884e-01  t[s]:      5.62
LCAOMinimize: Encountered beta<0, resetting CG.
	FillingsUpdate:  mu: -0.099613102  nElectrons: 9.000000
LCAOMinimize: Iter:   2  F: -20.1607336979306844  |grad|_K:  1.236e-09  alpha:  9.954e-01  linmin: -3.959e-02  cgtest:  9.352e-01  t[s]:      7.51
LCAOMinimize: Encountered beta<0, resetting CG.
LCAOMinimize: 	Wrong curvature in test step, increasing alphaT to 2.986108e+00.
	FillingsUpdate:  mu: -0.099613100  nElectrons: 9.000000
LCAOMinimize: Iter:   3  F: -20.1607336979314269  |grad|_K:  7.861e-12  alpha: -8.081e-03  linmin: -6.741e-02  cgtest:  4.548e-01  t[s]:      9.40
LCAOMinimize: Encountered beta<0, resetting CG.
LCAOMinimize: Converged (|Delta F|<1.000000e-06 for 2 iters).


---- Citations for features of the code used in this run ----

   Software package:
      R. Sundararaman, K. Letchworth-Weaver, K.A. Schwarz, D. Gunceler, Y. Ozhabes and T.A. Arias, 'JDFTx: software for joint density-functional theory', SoftwareX 6, 278 (2017)

   gga-PBE exchange-correlation functional:
      J.P. Perdew, K. Burke and M. Ernzerhof, Phys. Rev. Lett. 77, 3865 (1996)

   Pseudopotentials:
      M Schlipf and F Gygi, Comput. Phys. Commun. 196, 36 (2015)

   Truncated Coulomb potentials:
      R. Sundararaman and T.A. Arias, Phys. Rev. B 87, 165122 (2013)

   Total energy minimization with Auxiliary Hamiltonian:
      C. Freysoldt, S. Boeck, and J. Neugebauer, Phys. Rev. B 79, 241103(R) (2009)

This list may not be complete. Please suggest additional citations or
report any other bugs at https://github.com/shankar1729/jdftx/issues

Initialization completed successfully at t[s]:      9.67


-------- Electronic minimization -----------
	FillingsUpdate:  mu: -0.099613100  nElectrons: 9.000000
ElecMinimize: Iter:   0  F: -20.160733697931427  |grad|_K:  1.714e-05  alpha:  1.000e+00
	FillingsUpdate:  mu: -0.097763430  nElectrons: 9.000000
	SubspaceRotationAdjust: set factor to 1
ElecMinimize: Iter:   1  F: -20.164953928255922  |grad|_K:  1.059e-05  alpha:  1.196e+00  linmin:  3.834e-05  t[s]:     14.01
	FillingsUpdate:  mu: -0.088810799  nElectrons: 9.000000
	SubspaceRotationAdjust: set factor to 0.738
ElecMinimize: Iter:   2  F: -20.167573129015810  |grad|_K:  1.328e-05  alpha:  2.236e+00  linmin:  1.807e-03  t[s]:     16.68
ElecMinimize: 	Step increased F by 2.192982e-05, reducing alpha to 7.658656e-04.
	FillingsUpdate:  mu: -0.088806536  nElectrons: 9.000000
	SubspaceRotationAdjust: set factor to 0.9
ElecMinimize: Iter:   3  F: -20.167573865657086  |grad|_K:  1.246e-05  alpha:  7.659e-04  linmin: -6.913e-04  t[s]:     21.16
ElecMinimize: 	Predicted alpha/alphaT>3.000000, increasing alphaT to 2.297597e-03.
ElecMinimize: 	Predicted alpha/alphaT>3.000000, increasing alphaT to 6.892790e-03.
	FillingsUpdate:  mu: -0.088800076  nElectrons: 9.000000
	SubspaceRotationAdjust: set factor to 0.72
ElecMinimize: Iter:   4  F: -20.167588577119542  |grad|_K:  1.868e-05  alpha:  6.171e-03  linmin:  6.979e-04  t[s]:     25.49
ElecMinimize: 	Wrong curvature in test step, increasing alphaT to 1.851402e-02.
	FillingsUpdate:  mu: -0.088820524  nElectrons: 9.000000
	SubspaceRotationAdjust: set factor to 0.865
ElecMinimize: Iter:   5  F: -20.167658978241359  |grad|_K:  1.215e-05  alpha: -2.585e-03  linmin: -7.189e-03  t[s]:     27.92
	FillingsUpdate:  mu: -0.090331852  nElectrons: 9.000000
	SubspaceRotationAdjust: set factor to 0.833
ElecMinimize: Iter:   6  F: -20.168919986127882  |grad|_K:  1.062e-05  alpha:  1.683e-01  linmin: -7.783e-03  t[s]:     30.57
	FillingsUpdate:  mu: -0.087986544  nElectrons: 9.000000
	SubspaceRotationAdjust: set factor to 0.923
ElecMinimize: Iter:   7  F: -20.169640010921629  |grad|_K:  7.417e-06  alpha:  1.585e-01  linmin: -4.008e-03  t[s]:     33.25
ElecMinimize: 	Predicted alpha/alphaT>3.000000, increasing alphaT to 4.755519e-01.
	FillingsUpdate:  mu: -0.084839902  nElectrons: 9.000000
	SubspaceRotationAdjust: set factor to 0.931
ElecMinimize: Iter:   8  F: -20.170237782358321  |grad|_K:  9.650e-06  alpha:  4.601e-01  linmin:  1.313e-04  t[s]:     36.76
	FillingsUpdate:  mu: -0.084007962  nElectrons: 9.000000
	SubspaceRotationAdjust: set factor to 0.952
ElecMinimize: Iter:   9  F: -20.170284162488809  |grad|_K:  1.005e-05  alpha:  4.744e-02  linmin: -1.406e-03  t[s]:     39.42
ElecMinimize: 	Predicted alpha/alphaT>3.000000, increasing alphaT to 1.423150e-01.
	FillingsUpdate:  mu: -0.082787119  nElectrons: 9.000000
	SubspaceRotationAdjust: set factor to 0.983
ElecMinimize: Iter:  10  F: -20.170693128368359  |grad|_K:  1.010e-05  alpha:  2.284e-01  linmin:  6.830e-04  t[s]:     42.95
	FillingsUpdate:  mu: -0.082781373  nElectrons: 9.000000
	SubspaceRotationAdjust: set factor to 1.08
ElecMinimize: Iter:  11  F: -20.170709474149238  |grad|_K:  1.006e-05  alpha:  9.012e-03  linmin: -2.504e-03  t[s]:     45.61
ElecMinimize: 	Predicted alpha/alphaT>3.000000, increasing alphaT to 2.703690e-02.
	FillingsUpdate:  mu: -0.082808951  nElectrons: 9.000000
	SubspaceRotationAdjust: set factor to 1.19
ElecMinimize: Iter:  12  F: -20.170725099214422  |grad|_K:  1.006e-05  alpha:  3.833e-03  linmin: -6.513e-03  t[s]:     49.07
ElecMinimize: 	Predicted alpha/alphaT>3.000000, increasing alphaT to 1.149837e-02.
ElecMinimize: 	Predicted alpha/alphaT>3.000000, increasing alphaT to 3.449512e-02.
	FillingsUpdate:  mu: -0.082916517  nElectrons: 9.000000
	SubspaceRotationAdjust: set factor to 1.33
ElecMinimize: Iter:  13  F: -20.170785876430667  |grad|_K:  9.897e-06  alpha:  9.639e-03  linmin: -9.790e-03  t[s]:     53.38
ElecMinimize: 	Predicted alpha/alphaT>3.000000, increasing alphaT to 2.891711e-02.
ElecMinimize: 	Predicted alpha/alphaT>3.000000, increasing alphaT to 8.675132e-02.
	FillingsUpdate:  mu: -0.080865474  nElectrons: 9.000000
	SubspaceRotationAdjust: set factor to 1.46
ElecMinimize: Iter:  14  F: -20.171577183795236  |grad|_K:  8.717e-06  alpha:  2.171e-01  linmin:  1.595e-03  t[s]:     57.65
	FillingsUpdate:  mu: -0.080789913  nElectrons: 9.000000
	SubspaceRotationAdjust: set factor to 1.64
ElecMinimize: Iter:  15  F: -20.171599084319425  |grad|_K:  8.894e-06  alpha:  2.376e-02  linmin: -2.101e-04  t[s]:     60.28
ElecMinimize: 	Predicted alpha/alphaT>3.000000, increasing alphaT to 7.127450e-02.
	FillingsUpdate:  mu: -0.079944205  nElectrons: 9.000000
	SubspaceRotationAdjust: set factor to 1.83
ElecMinimize: Iter:  16  F: -20.171685502983753  |grad|_K:  9.437e-06  alpha:  8.216e-02  linmin:  6.739e-05  t[s]:     63.75
	FillingsUpdate:  mu: -0.079191228  nElectrons: 9.000000
	SubspaceRotationAdjust: set factor to 2.11
ElecMinimize: Iter:  17  F: -20.171734486191749  |grad|_K:  9.782e-06  alpha:  4.733e-02  linmin:  6.270e-06  t[s]:     66.45
	FillingsUpdate:  mu: -0.078863478  nElectrons: 9.000000
	SubspaceRotationAdjust: set factor to 2.67
ElecMinimize: Iter:  18  F: -20.171785963146636  |grad|_K:  1.044e-05  alpha:  4.343e-02  linmin:  2.566e-04  t[s]:     69.15
	FillingsUpdate:  mu: -0.078651908  nElectrons: 9.000000
	SubspaceRotationAdjust: set factor to 2.75
ElecMinimize: Iter:  19  F: -20.171810024646977  |grad|_K:  1.151e-05  alpha:  1.568e-02  linmin: -3.409e-04  t[s]:     71.81
	FillingsUpdate:  mu: -0.078291893  nElectrons: 9.000000
	SubspaceRotationAdjust: set factor to 2.29
ElecMinimize: Iter:  20  F: -20.171844987587193  |grad|_K:  1.263e-05  alpha:  1.834e-02  linmin: -3.603e-04  t[s]:     74.50
	FillingsUpdate:  mu: -0.076967951  nElectrons: 9.000000
	SubspaceRotationAdjust: set factor to 1.7
ElecMinimize: Iter:  21  F: -20.171874332282808  |grad|_K:  1.367e-05  alpha:  2.375e-02  linmin:  1.892e-03  t[s]:     77.22
	FillingsUpdate:  mu: -0.076957878  nElectrons: 9.000000
	SubspaceRotationAdjust: set factor to 1.41
ElecMinimize: Iter:  22  F: -20.171874685688124  |grad|_K:  1.239e-05  alpha:  3.798e-04  linmin: -5.499e-04  t[s]:     79.90
ElecMinimize: 	Predicted alpha/alphaT>3.000000, increasing alphaT to 1.139478e-03.
ElecMinimize: 	Predicted alpha/alphaT>3.000000, increasing alphaT to 3.418435e-03.
	FillingsUpdate:  mu: -0.076946700  nElectrons: 9.000000
	SubspaceRotationAdjust: set factor to 1.27
ElecMinimize: Iter:  23  F: -20.171878172219945  |grad|_K:  1.174e-05  alpha:  7.866e-04  linmin: -3.194e-03  t[s]:     84.21
ElecMinimize: 	Predicted alpha/alphaT>3.000000, increasing alphaT to 2.359729e-03.
	FillingsUpdate:  mu: -0.076924236  nElectrons: 9.000000
	SubspaceRotationAdjust: set factor to 0.745
ElecMinimize: Iter:  24  F: -20.171883002887153  |grad|_K:  1.991e-05  alpha:  2.826e-03  linmin:  3.381e-03  t[s]:     87.72
ElecMinimize: 	Bad step direction: g.d > 0.
ElecMinimize: 	Undoing step.
ElecMinimize: 	Step failed: resetting search direction.
	FillingsUpdate:  mu: -0.076924236  nElectrons: 9.000000
	SubspaceRotationAdjust: set factor to 0.485
ElecMinimize: Iter:  25  F: -20.171883002887160  |grad|_K:  1.606e-05  alpha:  0.000e+00
ElecMinimize: 	Predicted alpha/alphaT>3.000000, increasing alphaT to 8.478139e-03.
	FillingsUpdate:  mu: -0.077035460  nElectrons: 9.000000
	SubspaceRotationAdjust: set factor to 0.739
ElecMinimize: Iter:  26  F: -20.171926471808870  |grad|_K:  9.076e-06  alpha:  1.227e-02  linmin: -3.426e-02  t[s]:     93.00
ElecMinimize: 	Predicted alpha/alphaT>3.000000, increasing alphaT to 3.682490e-02.
ElecMinimize: 	Predicted alpha/alphaT>3.000000, increasing alphaT to 1.104747e-01.
ElecMinimize: 	Predicted alpha/alphaT>3.000000, increasing alphaT to 3.314241e-01.
	FillingsUpdate:  mu: -0.079832857  nElectrons: 9.000000
	SubspaceRotationAdjust: set factor to 0.763
ElecMinimize: Iter:  27  F: -20.172755667622589  |grad|_K:  3.624e-06  alpha:  7.162e-01  linmin: -1.314e-03  t[s]:     97.32
ElecMinimize: 	Wrong curvature in test step, increasing alphaT to 2.148703e+00.
	FillingsUpdate:  mu: -0.078383270  nElectrons: 9.000000
	SubspaceRotationAdjust: set factor to 0.839
ElecMinimize: Iter:  28  F: -20.173003709553875  |grad|_K:  2.574e-06  alpha: -4.727e+00  linmin: -2.163e-02  t[s]:     99.76
	FillingsUpdate:  mu: -0.075839143  nElectrons: 9.000000
	SubspaceRotationAdjust: set factor to 0.803
ElecMinimize: Iter:  29  F: -20.173160621541054  |grad|_K:  3.383e-06  alpha:  1.542e+00  linmin:  3.431e-03  t[s]:    102.47
	FillingsUpdate:  mu: -0.075833744  nElectrons: 9.000000
	SubspaceRotationAdjust: set factor to 0.888
ElecMinimize: Iter:  30  F: -20.173161947657601  |grad|_K:  3.374e-06  alpha:  1.062e-02  linmin: -2.712e-03  t[s]:    105.16
ElecMinimize: 	Predicted alpha/alphaT>3.000000, increasing alphaT to 3.187127e-02.
ElecMinimize: 	Predicted alpha/alphaT>3.000000, increasing alphaT to 9.561381e-02.
ElecMinimize: 	Predicted alpha/alphaT>3.000000, increasing alphaT to 2.868414e-01.
ElecMinimize: 	Step increased F by 4.726689e-05, reducing alpha to 4.748650e-02.
	FillingsUpdate:  mu: -0.075872991  nElectrons: 9.000000
	SubspaceRotationAdjust: set factor to 0.992
ElecMinimize: Iter:  31  F: -20.173179777741705  |grad|_K:  3.203e-06  alpha:  4.749e-02  linmin: -7.633e-03  t[s]:    111.31
ElecMinimize: 	Predicted alpha/alphaT>3.000000, increasing alphaT to 1.424595e-01.
ElecMinimize: 	Step increased F by 1.376465e-05, reducing alpha to 4.037659e-02.
	FillingsUpdate:  mu: -0.075965942  nElectrons: 9.000000
	SubspaceRotationAdjust: set factor to 1.14
ElecMinimize: Iter:  32  F: -20.173201439080970  |grad|_K:  2.935e-06  alpha:  4.038e-02  linmin: -1.166e-02  t[s]:    116.57
ElecMinimize: 	Predicted alpha/alphaT>3.000000, increasing alphaT to 1.211298e-01.
ElecMinimize: 	Predicted alpha/alphaT>3.000000, increasing alphaT to 3.633893e-01.
	FillingsUpdate:  mu: -0.078614635  nElectrons: 9.000000
	SubspaceRotationAdjust: set factor to 1.28
ElecMinimize: Iter:  33  F: -20.173301820482752  |grad|_K:  1.935e-06  alpha:  3.046e-01  linmin:  1.716e-03  t[s]:    120.96
	FillingsUpdate:  mu: -0.079558506  nElectrons: 9.000000
	SubspaceRotationAdjust: set factor to 1.42
ElecMinimize: Iter:  34  F: -20.173310004392420  |grad|_K:  2.267e-06  alpha:  2.526e-01  linmin: -3.579e-04  t[s]:    123.63
	FillingsUpdate:  mu: -0.080131384  nElectrons: 9.000000
	SubspaceRotationAdjust: set factor to 1.55
ElecMinimize: Iter:  35  F: -20.173334079977622  |grad|_K:  2.555e-06  alpha:  3.674e-01  linmin:  6.881e-05  t[s]:    126.33
	FillingsUpdate:  mu: -0.080402462  nElectrons: 9.000000
	SubspaceRotationAdjust: set factor to 1.04
ElecMinimize: Iter:  36  F: -20.173348598693568  |grad|_K:  4.243e-06  alpha:  1.427e-01  linmin:  3.371e-03  t[s]:    129.01
ElecMinimize: 	Bad step direction: g.d > 0.
ElecMinimize: 	Undoing step.
ElecMinimize: 	Step failed: resetting search direction.
	FillingsUpdate:  mu: -0.080402462  nElectrons: 9.000000
	SubspaceRotationAdjust: set factor to 0.789
ElecMinimize: Iter:  37  F: -20.173348598693568  |grad|_K:  3.693e-06  alpha:  0.000e+00
	FillingsUpdate:  mu: -0.080236025  nElectrons: 9.000000
	SubspaceRotationAdjust: set factor to 0.988
ElecMinimize: Iter:  38  F: -20.173367031399295  |grad|_K:  1.999e-06  alpha:  1.263e-01  linmin: -2.050e-02  t[s]:    133.58
ElecMinimize: 	Predicted alpha/alphaT>3.000000, increasing alphaT to 3.788987e-01.
	FillingsUpdate:  mu: -0.079768717  nElectrons: 9.000000
	SubspaceRotationAdjust: set factor to 1.1
ElecMinimize: Iter:  39  F: -20.173410743833209  |grad|_K:  9.523e-07  alpha:  6.606e-01  linmin: -1.686e-03  t[s]:    137.14
ElecMinimize: 	Predicted alpha/alphaT>3.000000, increasing alphaT to 1.981855e+00.
	FillingsUpdate:  mu: -0.077736389  nElectrons: 9.000000
	SubspaceRotationAdjust: set factor to 1.03
ElecMinimize: Iter:  40  F: -20.173427715488192  |grad|_K:  1.046e-06  alpha:  1.621e+00  linmin: -4.814e-03  t[s]:    140.67
	FillingsUpdate:  mu: -0.080075591  nElectrons: 9.000000
	SubspaceRotationAdjust: set factor to 0.971
ElecMinimize: Iter:  41  F: -20.173454855521978  |grad|_K:  1.122e-06  alpha:  1.641e+00  linmin:  1.886e-03  t[s]:    143.42
	FillingsUpdate:  mu: -0.080483614  nElectrons: 9.000000
	SubspaceRotationAdjust: set factor to 1.1
ElecMinimize: Iter:  42  F: -20.173469386622084  |grad|_K:  1.016e-06  alpha:  1.272e+00  linmin: -2.157e-04  t[s]:    146.08
	FillingsUpdate:  mu: -0.079354896  nElectrons: 9.000000
	SubspaceRotationAdjust: set factor to 1.18
ElecMinimize: Iter:  43  F: -20.173480451410974  |grad|_K:  8.536e-07  alpha:  8.959e-01  linmin: -4.625e-04  t[s]:    148.79
	FillingsUpdate:  mu: -0.079137908  nElectrons: 9.000000
	SubspaceRotationAdjust: set factor to 1.5
ElecMinimize: Iter:  44  F: -20.173492516255045  |grad|_K:  9.136e-07  alpha:  1.272e+00  linmin: -7.541e-04  t[s]:    151.46
	FillingsUpdate:  mu: -0.079371701  nElectrons: 9.000000
	SubspaceRotationAdjust: set factor to 1.75
ElecMinimize: Iter:  45  F: -20.173499339863756  |grad|_K:  5.367e-07  alpha:  7.645e-01  linmin: -5.287e-04  t[s]:    154.16
	FillingsUpdate:  mu: -0.079955381  nElectrons: 9.000000
	SubspaceRotationAdjust: set factor to 1.67
ElecMinimize: Iter:  46  F: -20.173502207317963  |grad|_K:  4.577e-07  alpha:  8.627e-01  linmin:  2.618e-03  t[s]:    156.84
	FillingsUpdate:  mu: -0.079774969  nElectrons: 9.000000
	SubspaceRotationAdjust: set factor to 1.99
ElecMinimize: Iter:  47  F: -20.173502799352203  |grad|_K:  3.848e-07  alpha:  4.795e-01  linmin: -8.568e-06  t[s]:    159.51
	FillingsUpdate:  mu: -0.079393067  nElectrons: 9.000000
	SubspaceRotationAdjust: set factor to 1.18
ElecMinimize: Iter:  48  F: -20.173503855991328  |grad|_K:  5.377e-07  alpha:  6.732e-01  linmin:  2.030e-03  t[s]:    162.20
	FillingsUpdate:  mu: -0.079338348  nElectrons: 9.000000
	SubspaceRotationAdjust: set factor to 0.729
ElecMinimize: Iter:  49  F: -20.173503871801472  |grad|_K:  4.864e-07  alpha:  5.001e-02  linmin:  1.518e-04  t[s]:    164.90
ElecMinimize: 	Predicted alpha/alphaT>3.000000, increasing alphaT to 1.500328e-01.
	FillingsUpdate:  mu: -0.079373358  nElectrons: 9.000000
	SubspaceRotationAdjust: set factor to 1.17
ElecMinimize: Iter:  50  F: -20.173504385905172  |grad|_K:  2.552e-07  alpha:  1.820e-01  linmin: -2.710e-03  t[s]:    168.40
	FillingsUpdate:  mu: -0.079408769  nElectrons: 9.000000
	SubspaceRotationAdjust: set factor to 1.42
ElecMinimize: Iter:  51  F: -20.173505018518995  |grad|_K:  2.002e-07  alpha:  5.434e-01  linmin: -3.545e-03  t[s]:    171.08
	FillingsUpdate:  mu: -0.079598159  nElectrons: 9.000000
	SubspaceRotationAdjust: set factor to 1.09
ElecMinimize: Iter:  52  F: -20.173505596172983  |grad|_K:  2.491e-07  alpha:  9.432e-01  linmin:  1.037e-03  t[s]:    173.79
	FillingsUpdate:  mu: -0.079651713  nElectrons: 9.000000
	SubspaceRotationAdjust: set factor to 0.856
ElecMinimize: Iter:  53  F: -20.173505645033963  |grad|_K:  2.800e-07  alpha:  2.416e-01  linmin:  2.054e-04  t[s]:    176.46
	FillingsUpdate:  mu: -0.079532894  nElectrons: 9.000000
	SubspaceRotationAdjust: set factor to 0.838
ElecMinimize: Iter:  54  F: -20.173506078615553  |grad|_K:  2.522e-07  alpha:  5.127e-01  linmin:  3.881e-05  t[s]:    179.14
	FillingsUpdate:  mu: -0.079316912  nElectrons: 9.000000
	SubspaceRotationAdjust: set factor to 1.12
ElecMinimize: Iter:  55  F: -20.173506430245048  |grad|_K:  1.972e-07  alpha:  4.682e-01  linmin: -1.107e-04  t[s]:    181.87
	FillingsUpdate:  mu: -0.079185686  nElectrons: 9.000000
	SubspaceRotationAdjust: set factor to 1.34
ElecMinimize: Iter:  56  F: -20.173506706548618  |grad|_K:  1.529e-07  alpha:  5.687e-01  linmin: -3.398e-04  t[s]:    184.51
	FillingsUpdate:  mu: -0.079148227  nElectrons: 9.000000
	SubspaceRotationAdjust: set factor to 1.42
ElecMinimize: Iter:  57  F: -20.173506905780382  |grad|_K:  1.307e-07  alpha:  6.679e-01  linmin: -5.511e-05  t[s]:    187.19
	FillingsUpdate:  mu: -0.079178752  nElectrons: 9.000000
	SubspaceRotationAdjust: set factor to 1.57
ElecMinimize: Iter:  58  F: -20.173507046094944  |grad|_K:  1.150e-07  alpha:  6.786e-01  linmin: -2.857e-05  t[s]:    189.92
	FillingsUpdate:  mu: -0.079220907  nElectrons: 9.000000
	SubspaceRotationAdjust: set factor to 1.9
ElecMinimize: Iter:  59  F: -20.173507151184445  |grad|_K:  1.007e-07  alpha:  6.573e-01  linmin:  1.148e-04  t[s]:    192.66
	FillingsUpdate:  mu: -0.079220868  nElectrons: 9.000000
	SubspaceRotationAdjust: set factor to 2.19
ElecMinimize: Iter:  60  F: -20.173507219166854  |grad|_K:  8.517e-08  alpha:  5.685e-01  linmin:  2.266e-05  t[s]:    195.33
	FillingsUpdate:  mu: -0.079197119  nElectrons: 9.000000
	SubspaceRotationAdjust: set factor to 2.27
ElecMinimize: Iter:  61  F: -20.173507267636790  |grad|_K:  8.111e-08  alpha:  5.587e-01  linmin: -6.860e-05  t[s]:    198.01
	FillingsUpdate:  mu: -0.079201748  nElectrons: 9.000000
	SubspaceRotationAdjust: set factor to 2.71
ElecMinimize: Iter:  62  F: -20.173507318784022  |grad|_K:  7.550e-08  alpha:  6.359e-01  linmin: -7.218e-06  t[s]:    200.66
	FillingsUpdate:  mu: -0.079246193  nElectrons: 9.000000
	SubspaceRotationAdjust: set factor to 2.76
ElecMinimize: Iter:  63  F: -20.173507356616437  |grad|_K:  6.876e-08  alpha:  5.520e-01  linmin: -6.884e-06  t[s]:    203.37
	FillingsUpdate:  mu: -0.079300801  nElectrons: 9.000000
	SubspaceRotationAdjust: set factor to 2.81
ElecMinimize: Iter:  64  F: -20.173507391569700  |grad|_K:  7.413e-08  alpha:  6.172e-01  linmin:  9.556e-05  t[s]:    206.03
	FillingsUpdate:  mu: -0.079321924  nElectrons: 9.000000
	SubspaceRotationAdjust: set factor to 3.37
ElecMinimize: Iter:  65  F: -20.173507424657362  |grad|_K:  6.138e-08  alpha:  5.142e-01  linmin:  2.413e-06  t[s]:    208.69
	FillingsUpdate:  mu: -0.079323782  nElectrons: 9.000000
	SubspaceRotationAdjust: set factor to 3.38
ElecMinimize: Iter:  66  F: -20.173507443634673  |grad|_K:  4.822e-08  alpha:  4.217e-01  linmin: -2.294e-05  t[s]:    211.38
	FillingsUpdate:  mu: -0.079337014  nElectrons: 9.000000
	SubspaceRotationAdjust: set factor to 3.47
ElecMinimize: Iter:  67  F: -20.173507456925115  |grad|_K:  4.305e-08  alpha:  4.722e-01  linmin: -5.248e-06  t[s]:    214.07
	FillingsUpdate:  mu: -0.079351839  nElectrons: 9.000000
	SubspaceRotationAdjust: set factor to 3.81
ElecMinimize: Iter:  68  F: -20.173507467363258  |grad|_K:  3.660e-08  alpha:  4.685e-01  linmin:  1.023e-05  t[s]:    216.78
	FillingsUpdate:  mu: -0.079352049  nElectrons: 9.000000
	SubspaceRotationAdjust: set factor to 3.66
ElecMinimize: Iter:  69  F: -20.173507474627822  |grad|_K:  3.376e-08  alpha:  4.528e-01  linmin:  5.135e-06  t[s]:    219.49
	FillingsUpdate:  mu: -0.079347223  nElectrons: 9.000000
	SubspaceRotationAdjust: set factor to 3.91
ElecMinimize: Iter:  70  F: -20.173507481333420  |grad|_K:  3.207e-08  alpha:  4.902e-01  linmin: -3.609e-06  t[s]:    222.15
	FillingsUpdate:  mu: -0.079352862  nElectrons: 9.000000
	SubspaceRotationAdjust: set factor to 3.9
ElecMinimize: Iter:  71  F: -20.173507486975009  |grad|_K:  2.900e-08  alpha:  4.561e-01  linmin:  6.674e-08  t[s]:    224.85
	FillingsUpdate:  mu: -0.079360816  nElectrons: 9.000000
	SubspaceRotationAdjust: set factor to 3.92
ElecMinimize: Iter:  72  F: -20.173507491634055  |grad|_K:  2.662e-08  alpha:  4.613e-01  linmin:  3.010e-06  t[s]:    227.51
ElecMinimize: Converged (|Delta F|<1.000000e-08 for 4 iters).
Setting wave functions to eigenvectors of Hamiltonian

# Ionic positions in lattice coordinates:
ion Cs   0.000000000000000   0.000000000000000   0.000000000000000 0

# Forces in Lattice coordinates:
force Cs   0.000000000000000  -0.000000000000000   0.000000000000000 0

# Energy components:
   Eewald =      -21.6144025153684538
       EH =       -5.4465809016201669
     Eloc =        1.4062030538125132
      Enl =        3.4527073239965711
   Epulay =        0.0000000094080671
      Exc =       -3.1729662379464205
       KE =        5.2015318462577280
-------------------------------------
     Etot =      -20.1735074214601653
       TS =        0.0000000701738908
-------------------------------------
        F =      -20.1735074916340551

IonicMinimize: Iter:   0  F: -20.173507491634055  |grad|_K:  0.000e+00  t[s]:    227.87
IonicMinimize: Converged (|grad|_K<1.000000e-04).

#--- Lowdin population analysis ---
# oxidation-state Cs +0.134

End date and time: Sun Jan 16 16:37:29 2022  (Duration: 0-0:03:47.94)
Done!
