1.31
--------------------------------------------------------------------------
The library attempted to open the following supporting CUDA libraries,
but each of them failed.  CUDA-aware support is disabled.
libcuda.so.1: cannot open shared object file: No such file or directory
libcuda.dylib: cannot open shared object file: No such file or directory
/usr/lib64/libcuda.so.1: cannot open shared object file: No such file or directory
/usr/lib64/libcuda.dylib: cannot open shared object file: No such file or directory
If you are not interested in CUDA-aware support, then run with
--mca opal_warn_on_missing_libcuda 0 to suppress this message.  If you are interested
in CUDA-aware support, then try setting LD_LIBRARY_PATH to the location
of libcuda.so.1 to get passed this issue.
--------------------------------------------------------------------------
--------------------------------------------------------------------------
No OpenFabrics connection schemes reported that they were able to be
used on a specific port.  As such, the openib BTL (OpenFabrics
support) will be disabled for this port.

  Local host:           d-6-15-3
  Local device:         mlx5_1
  Local port:           1
  CPCs attempted:       rdmacm, udcm
--------------------------------------------------------------------------

*************** JDFTx 1.6.0 (git hash 42ebbcc2) ***************

Start date and time: Sun Jan 16 16:32:40 2022
Executable jdftx with command-line: -i Cesium.in
Running on hosts (process indices):  d-6-15-3 (0-18)
Divided in process groups (process indices):  0 (0)  1 (1)  2 (2)  3 (3)  4 (4)  5 (5)  6 (6)  7 (7)  8 (8)  9 (9)  10 (10)  11 (11)  12 (12)  13 (13)  14 (14)  15 (15)  16 (16)  17 (17)  18 (18)
Resource initialization completed at t[s]:      0.00
Run totals: 19 processes, 48 threads, 0 GPUs


Input parsed successfully to the following command list (including defaults):

basis kpoint-dependent
coords-type Lattice
core-overlap-check vector
coulomb-interaction Slab 001
davidson-band-ratio 1.1
dump End None
dump-name $INPUT.$VAR
elec-cutoff 20
elec-eigen-algo Davidson
elec-ex-corr gga-PBE
elec-smearing Fermi 1e-05
electronic-minimize  \
	dirUpdateScheme      FletcherReeves \
	linminMethod         DirUpdateRecommended \
	nIterations          10000 \
	history              15 \
	knormThreshold       0 \
	energyDiffThreshold  1e-08 \
	nEnergyDiff          4 \
	alphaTstart          1 \
	alphaTmin            1e-10 \
	updateTestStepSize   yes \
	alphaTreduceFactor   0.1 \
	alphaTincreaseFactor 3 \
	nAlphaAdjustMax      3 \
	wolfeEnergy          0.0001 \
	wolfeGradient        0.9 \
	fdTest               no
exchange-regularization WignerSeitzTruncated
fluid None
fluid-ex-corr (null) lda-PZ
fluid-gummel-loop 10 1.000000e-05
fluid-minimize  \
	dirUpdateScheme      PolakRibiere \
	linminMethod         DirUpdateRecommended \
	nIterations          100 \
	history              15 \
	knormThreshold       0 \
	energyDiffThreshold  0 \
	nEnergyDiff          2 \
	alphaTstart          1 \
	alphaTmin            1e-10 \
	updateTestStepSize   yes \
	alphaTreduceFactor   0.1 \
	alphaTincreaseFactor 3 \
	nAlphaAdjustMax      3 \
	wolfeEnergy          0.0001 \
	wolfeGradient        0.9 \
	fdTest               no
fluid-solvent H2O 55.338 ScalarEOS \
	epsBulk 78.4 \
	pMol 0.92466 \
	epsInf 1.77 \
	Pvap 1.06736e-10 \
	sigmaBulk 4.62e-05 \
	Rvdw 2.61727 \
	Res 1.42 \
	tauNuc 343133 \
	poleEl 15 7 1
forces-output-coords Positions
ion Cs   0.000000000000000   0.000000000000000   0.000000000000000 0
ion-species SG15/$ID_ONCV_PBE.upf
ion-width 0
ionic-minimize  \
	dirUpdateScheme      L-BFGS \
	linminMethod         DirUpdateRecommended \
	nIterations          0 \
	history              15 \
	knormThreshold       0.0001 \
	energyDiffThreshold  1e-06 \
	nEnergyDiff          2 \
	alphaTstart          1 \
	alphaTmin            1e-10 \
	updateTestStepSize   yes \
	alphaTreduceFactor   0.1 \
	alphaTincreaseFactor 3 \
	nAlphaAdjustMax      3 \
	wolfeEnergy          0.0001 \
	wolfeGradient        0.9 \
	fdTest               no
kpoint   0.000000000000   0.000000000000   0.000000000000  1.00000000000000
kpoint-folding 48 48 1 
latt-move-scale 1 1 1
latt-scale 1.31 1.31 1 
lattice  \
	   4.727486978767153   -2.363743489383574    0.000000000000000  \
	  -0.000000000000000    4.094123819672497    0.000000000000000  \
	   0.000000000000000    0.000000000000000   40.000000000000000 
lattice-minimize  \
	dirUpdateScheme      L-BFGS \
	linminMethod         DirUpdateRecommended \
	nIterations          0 \
	history              15 \
	knormThreshold       0 \
	energyDiffThreshold  1e-06 \
	nEnergyDiff          2 \
	alphaTstart          1 \
	alphaTmin            1e-10 \
	updateTestStepSize   yes \
	alphaTreduceFactor   0.1 \
	alphaTincreaseFactor 3 \
	nAlphaAdjustMax      3 \
	wolfeEnergy          0.0001 \
	wolfeGradient        0.9 \
	fdTest               no
lcao-params -1 1e-06 1e-05
pcm-variant GLSSA13
spintype no-spin
subspace-rotation-factor 1 yes
symmetries automatic
symmetry-threshold 0.0001



---------- Setting up symmetries ----------

Found 24 point-group symmetries of the bravais lattice
Found 24 space-group symmetries with basis
Applied RMS atom displacement 0 bohrs to make symmetries exact.

---------- Initializing the Grid ----------
R = 
[      6.19301      -3.0965            0  ]
[            0       5.3633            0  ]
[            0            0           40  ]
unit cell volume = 1328.6
G =
[    1.01456   0.585757         -0  ]
[          0    1.17151         -0  ]
[         -0         -0    0.15708  ]
Minimum fftbox size, Smin = [  28  28  164  ]
Chosen fftbox size, S = [  28  28  168  ]

---------- Exchange Correlation functional ----------
Initalized PBE GGA exchange.
Initalized PBE GGA correlation.

---------- Setting up pseudopotentials ----------
Width of ionic core gaussian charges (only for fluid interactions / plotting) set to 0

Reading pseudopotential file '/home/gridsan/aligho/DFT/build-Nov24/pseudopotentials/SG15/Cs_ONCV_PBE.upf':
  'Cs' pseudopotential, 'PBE' functional
  Generated using ONCVPSP code by D. R. Hamann
  Author: Martin Schlipf and Francois Gygi  Date: 150915.
  9 valence electrons, 3 orbitals, 6 projectors, 2414 radial grid points, with lMax = 2
  Transforming local potential to a uniform radial grid of dG=0.02 with 1572 points.
  Transforming nonlocal projectors to a uniform radial grid of dG=0.02 with 432 points.
    5S    l: 0   occupation:  2.0   eigenvalue: -0.982388
    5P    l: 1   occupation:  6.0   eigenvalue: -0.496786
    6S    l: 0   occupation:  1.0   eigenvalue: -0.076670
  Transforming atomic orbitals to a uniform radial grid of dG=0.02 with 432 points.
  Core radius for overlap checks: 2.06 bohrs.
  Reading pulay file /home/gridsan/aligho/DFT/build-Nov24/pseudopotentials/SG15/Cs_ONCV_PBE.pulay ... using dE_dnG = -1.008762e-04 computed for Ecut = 20.

Initialized 1 species with 1 total atoms.

Folded 1 k-points by 48x48x1 to 2304 k-points.

---------- Setting up k-points, bands, fillings ----------
Reduced to 217 k-points under symmetry. 
Computing the number of bands and number of electrons
Calculating initial fillings.
nElectrons:   9.000000   nBands: 6   nStates: 217

----- Setting up reduced wavefunction bases (one per k-point) -----
average nbasis = 5675.983 , ideal nbasis = 5675.876

---------- Setting up coulomb interaction ----------
Initialized slab truncation along lattice direction 001

---------- Setting up 2D ewald sum ----------
Optimum gaussian width for ewald sums = 3.438108 bohr.
Real space sums over 289 unit cells with max indices [  8  8  0  ]
Reciprocal space sums over 81 terms with max indices [  4  4  0  ]

---------- Allocating electronic variables ----------
Initializing wave functions:  linear combination of atomic orbitals
Note: number of bands (6) exceeds available atomic orbitals (5)
Cs pseudo-atom occupations:   s ( 2 1 )  p ( 6 )
	FillingsUpdate:  mu: -0.115470388  nElectrons: 9.000000
LCAOMinimize: Iter:   0  F: -20.0416311701441501  |grad|_K:  1.098e-04  alpha:  1.000e+00
[d-6-15-3:94022] 18 more processes have sent help message help-mpi-common-cuda.txt / dlopen failed
[d-6-15-3:94022] Set MCA parameter "orte_base_help_aggregate" to 0 to see all help / error messages
[d-6-15-3:94022] 18 more processes have sent help message help-mpi-btl-openib-cpc-base.txt / no cpcs for port
	FillingsUpdate:  mu: -0.114849378  nElectrons: 9.000000
LCAOMinimize: Iter:   1  F: -20.0416737137275440  |grad|_K:  6.740e-06  alpha:  9.148e-01  linmin: -2.479e-02  cgtest:  1.103e+00  t[s]:      4.92
LCAOMinimize: Encountered beta<0, resetting CG.
	FillingsUpdate:  mu: -0.114808941  nElectrons: 9.000000
LCAOMinimize: Iter:   2  F: -20.0416738908506176  |grad|_K:  1.256e-07  alpha:  9.999e-01  linmin:  5.030e-03  cgtest: -7.044e-01  t[s]:      6.70
	FillingsUpdate:  mu: -0.114808999  nElectrons: 9.000000
LCAOMinimize: Iter:   3  F: -20.0416738908773588  |grad|_K:  9.268e-08  alpha:  9.108e-01  linmin: -1.268e-05  cgtest:  7.468e-01  t[s]:      8.50
LCAOMinimize: Encountered beta<0, resetting CG.
LCAOMinimize: Converged (|Delta F|<1.000000e-06 for 2 iters).


---- Citations for features of the code used in this run ----

   Software package:
      R. Sundararaman, K. Letchworth-Weaver, K.A. Schwarz, D. Gunceler, Y. Ozhabes and T.A. Arias, 'JDFTx: software for joint density-functional theory', SoftwareX 6, 278 (2017)

   gga-PBE exchange-correlation functional:
      J.P. Perdew, K. Burke and M. Ernzerhof, Phys. Rev. Lett. 77, 3865 (1996)

   Pseudopotentials:
      M Schlipf and F Gygi, Comput. Phys. Commun. 196, 36 (2015)

   Truncated Coulomb potentials:
      R. Sundararaman and T.A. Arias, Phys. Rev. B 87, 165122 (2013)

   Total energy minimization with Auxiliary Hamiltonian:
      C. Freysoldt, S. Boeck, and J. Neugebauer, Phys. Rev. B 79, 241103(R) (2009)

This list may not be complete. Please suggest additional citations or
report any other bugs at https://github.com/shankar1729/jdftx/issues

Initialization completed successfully at t[s]:      8.69


-------- Electronic minimization -----------
	FillingsUpdate:  mu: -0.114808999  nElectrons: 9.000000
ElecMinimize: Iter:   0  F: -20.041673890877341  |grad|_K:  5.694e-05  alpha:  1.000e+00
	FillingsUpdate:  mu: -0.115319288  nElectrons: 9.000000
	SubspaceRotationAdjust: set factor to 1
ElecMinimize: Iter:   1  F: -20.067659697215834  |grad|_K:  3.267e-05  alpha:  1.084e+00  linmin:  9.617e-05  t[s]:     12.45
	FillingsUpdate:  mu: -0.127185418  nElectrons: 9.000000
	SubspaceRotationAdjust: set factor to 1.03
ElecMinimize: Iter:   2  F: -20.075850599210572  |grad|_K:  3.212e-05  alpha:  1.413e+00  linmin:  4.488e-04  t[s]:     14.74
ElecMinimize: 	Step increased F by 1.973260e-03, reducing alpha to 9.234845e-03.
	FillingsUpdate:  mu: -0.127312441  nElectrons: 9.000000
	SubspaceRotationAdjust: set factor to 1.12
ElecMinimize: Iter:   3  F: -20.075977826359065  |grad|_K:  3.144e-05  alpha:  9.235e-03  linmin: -6.942e-03  t[s]:     18.56
ElecMinimize: 	Wrong curvature in test step, increasing alphaT to 2.770453e-02.
	FillingsUpdate:  mu: -0.126299871  nElectrons: 9.000000
	SubspaceRotationAdjust: set factor to 1.17
ElecMinimize: Iter:   4  F: -20.076504891023994  |grad|_K:  3.079e-05  alpha: -6.811e-03  linmin: -7.958e-03  t[s]:     20.71
	FillingsUpdate:  mu: -0.123856170  nElectrons: 9.000000
	SubspaceRotationAdjust: set factor to 1.17
ElecMinimize: Iter:   5  F: -20.078606513775167  |grad|_K:  3.767e-05  alpha:  4.592e-02  linmin: -1.543e-02  t[s]:     23.04
	FillingsUpdate:  mu: -0.122659843  nElectrons: 9.000000
	SubspaceRotationAdjust: set factor to 1.33
ElecMinimize: Iter:   6  F: -20.081096558563043  |grad|_K:  2.404e-05  alpha:  3.856e-02  linmin: -1.062e-02  t[s]:     25.35
ElecMinimize: 	Wrong curvature in test step, increasing alphaT to 1.156682e-01.
	FillingsUpdate:  mu: -0.120728813  nElectrons: 9.000000
	SubspaceRotationAdjust: set factor to 1.55
ElecMinimize: Iter:   7  F: -20.083727718933904  |grad|_K:  2.337e-05  alpha: -1.690e-02  linmin: -1.101e-02  t[s]:     27.51
	FillingsUpdate:  mu: -0.120034718  nElectrons: 9.000000
	SubspaceRotationAdjust: set factor to 1.91
ElecMinimize: Iter:   8  F: -20.086757157321735  |grad|_K:  2.311e-05  alpha:  2.955e-02  linmin: -1.113e-02  t[s]:     29.86
ElecMinimize: 	Wrong curvature in test step, increasing alphaT to 8.865931e-02.
	FillingsUpdate:  mu: -0.119305741  nElectrons: 9.000000
	SubspaceRotationAdjust: set factor to 2.45
ElecMinimize: Iter:   9  F: -20.090217100670898  |grad|_K:  2.308e-05  alpha: -8.218e-03  linmin: -1.083e-02  t[s]:     32.02
	FillingsUpdate:  mu: -0.119092353  nElectrons: 9.000000
	SubspaceRotationAdjust: set factor to 3.19
ElecMinimize: Iter:  10  F: -20.090883517870484  |grad|_K:  2.366e-05  alpha:  1.409e-02  linmin: -1.020e-02  t[s]:     34.31
ElecMinimize: 	Wrong curvature in test step, increasing alphaT to 4.228202e-02.
	FillingsUpdate:  mu: -0.118863404  nElectrons: 9.000000
	SubspaceRotationAdjust: set factor to 4.29
ElecMinimize: Iter:  11  F: -20.091703229866084  |grad|_K:  2.430e-05  alpha: -2.055e-01  linmin: -9.541e-03  t[s]:     36.47
	FillingsUpdate:  mu: -0.118521052  nElectrons: 9.000000
	SubspaceRotationAdjust: set factor to 5.93
ElecMinimize: Iter:  12  F: -20.092786238424083  |grad|_K:  2.457e-05  alpha:  1.633e-02  linmin: -8.730e-03  t[s]:     38.75
ElecMinimize: 	Wrong curvature in test step, increasing alphaT to 4.897666e-02.
	FillingsUpdate:  mu: -0.117147621  nElectrons: 9.000000
	SubspaceRotationAdjust: set factor to 8.25
	SubspaceRotationAdjust: resetting CG because factor has changed by 8.24996
ElecMinimize: 	State modified externally: resetting search direction.
ElecMinimize: Iter:  13  F: -20.094149094185688  |grad|_K:  2.606e-05  alpha: -7.481e-02
	FillingsUpdate:  mu: -0.117183059  nElectrons: 9.000000
	SubspaceRotationAdjust: set factor to 11.1
ElecMinimize: Iter:  14  F: -20.094620010486384  |grad|_K:  2.373e-05  alpha:  4.762e-02  linmin: -5.590e-03  t[s]:     44.59
ElecMinimize: 	Predicted alpha/alphaT>3.000000, increasing alphaT to 1.428664e-01.
	FillingsUpdate:  mu: -0.123287481  nElectrons: 9.000000
	SubspaceRotationAdjust: set factor to 6.92
ElecMinimize: Iter:  15  F: -20.095679035552841  |grad|_K:  4.901e-05  alpha:  1.691e-01  linmin:  6.857e-03  t[s]:     47.57
ElecMinimize: 	Bad step direction: g.d > 0.
ElecMinimize: 	Undoing step.
ElecMinimize: 	Step failed: resetting search direction.
	FillingsUpdate:  mu: -0.123287481  nElectrons: 9.000000
	SubspaceRotationAdjust: set factor to 4.84
ElecMinimize: Iter:  16  F: -20.095679035552859  |grad|_K:  4.098e-05  alpha:  0.000e+00
	FillingsUpdate:  mu: -0.119116602  nElectrons: 9.000000
	SubspaceRotationAdjust: set factor to 3.33
ElecMinimize: Iter:  17  F: -20.097581478649367  |grad|_K:  1.851e-05  alpha:  1.566e-01  linmin: -2.127e-03  t[s]:     51.49
ElecMinimize: 	Predicted alpha/alphaT>3.000000, increasing alphaT to 4.698557e-01.
ElecMinimize: 	Predicted alpha/alphaT>3.000000, increasing alphaT to 1.409567e+00.
	FillingsUpdate:  mu: -0.103757157  nElectrons: 9.000000
	SubspaceRotationAdjust: set factor to 1.96
ElecMinimize: Iter:  18  F: -20.101813732618037  |grad|_K:  5.317e-05  alpha:  2.796e+00  linmin:  1.411e-02  t[s]:     55.15
	FillingsUpdate:  mu: -0.103120843  nElectrons: 9.000000
	SubspaceRotationAdjust: set factor to 1.56
ElecMinimize: Iter:  19  F: -20.102428095547225  |grad|_K:  3.373e-05  alpha:  2.992e-02  linmin: -8.426e-03  t[s]:     57.45
ElecMinimize: 	Wrong curvature in test step, increasing alphaT to 8.977000e-02.
	FillingsUpdate:  mu: -0.105697954  nElectrons: 9.000000
	SubspaceRotationAdjust: set factor to 1.79
ElecMinimize: Iter:  20  F: -20.104991290509588  |grad|_K:  2.650e-05  alpha: -6.336e-03  linmin: -8.590e-03  t[s]:     59.58
	FillingsUpdate:  mu: -0.106066602  nElectrons: 9.000000
	SubspaceRotationAdjust: set factor to 1.66
ElecMinimize: Iter:  21  F: -20.109881866238691  |grad|_K:  2.219e-05  alpha:  1.254e-01  linmin: -1.254e-02  t[s]:     61.87
ElecMinimize: 	Wrong curvature in test step, increasing alphaT to 3.763413e-01.
	FillingsUpdate:  mu: -0.102057769  nElectrons: 9.000000
	SubspaceRotationAdjust: set factor to 2.73
ElecMinimize: Iter:  22  F: -20.113551959111629  |grad|_K:  1.541e-05  alpha: -2.171e-01  linmin: -1.532e-02  t[s]:     64.02
	FillingsUpdate:  mu: -0.100474557  nElectrons: 9.000000
	SubspaceRotationAdjust: set factor to 2.79
ElecMinimize: Iter:  23  F: -20.114612516577889  |grad|_K:  1.365e-05  alpha:  1.039e-01  linmin: -6.871e-03  t[s]:     66.36
	FillingsUpdate:  mu: -0.100491382  nElectrons: 9.000000
	SubspaceRotationAdjust: set factor to 2.92
ElecMinimize: Iter:  24  F: -20.114740673694016  |grad|_K:  1.446e-05  alpha:  3.841e-02  linmin: -6.677e-03  t[s]:     68.66
	FillingsUpdate:  mu: -0.099714800  nElectrons: 9.000000
	SubspaceRotationAdjust: set factor to 2.04
ElecMinimize: Iter:  25  F: -20.114809875346438  |grad|_K:  2.594e-05  alpha:  2.314e-02  linmin:  9.840e-03  t[s]:     70.99
ElecMinimize: 	Bad step direction: g.d > 0.
ElecMinimize: 	Undoing step.
ElecMinimize: 	Step failed: resetting search direction.
	FillingsUpdate:  mu: -0.099714800  nElectrons: 9.000000
	SubspaceRotationAdjust: set factor to 1.6
ElecMinimize: Iter:  26  F: -20.114809875346431  |grad|_K:  2.296e-05  alpha:  0.000e+00
ElecMinimize: 	Predicted alpha/alphaT>3.000000, increasing alphaT to 6.941594e-02.
	FillingsUpdate:  mu: -0.100265167  nElectrons: 9.000000
	SubspaceRotationAdjust: set factor to 1.85
ElecMinimize: Iter:  27  F: -20.115171485880158  |grad|_K:  1.361e-05  alpha:  8.397e-02  linmin: -5.444e-02  t[s]:     75.58
ElecMinimize: 	Predicted alpha/alphaT>3.000000, increasing alphaT to 2.519007e-01.
ElecMinimize: 	Predicted alpha/alphaT>3.000000, increasing alphaT to 7.557020e-01.
	FillingsUpdate:  mu: -0.106226594  nElectrons: 9.000000
	SubspaceRotationAdjust: set factor to 1.53
ElecMinimize: Iter:  28  F: -20.116919954312689  |grad|_K:  1.455e-05  alpha:  1.064e+00  linmin: -7.438e-04  t[s]:     79.27
ElecMinimize: 	Predicted alpha/alphaT>3.000000, increasing alphaT to 3.192668e+00.
	FillingsUpdate:  mu: -0.101428799  nElectrons: 9.000000
	SubspaceRotationAdjust: set factor to 2.31
ElecMinimize: Iter:  29  F: -20.118951333145262  |grad|_K:  1.104e-05  alpha:  6.346e-01  linmin: -2.265e-02  t[s]:     82.24
ElecMinimize: 	Predicted alpha/alphaT>3.000000, increasing alphaT to 1.903856e+00.
	FillingsUpdate:  mu: -0.094439835  nElectrons: 9.000000
	SubspaceRotationAdjust: set factor to 3.16
ElecMinimize: Iter:  30  F: -20.120267963945150  |grad|_K:  1.016e-05  alpha:  3.882e-01  linmin: -3.439e-02  t[s]:     85.21
	FillingsUpdate:  mu: -0.095441673  nElectrons: 9.000000
	SubspaceRotationAdjust: set factor to 2.87
ElecMinimize: Iter:  31  F: -20.121014936864807  |grad|_K:  1.158e-05  alpha:  4.230e-01  linmin: -5.477e-03  t[s]:     87.51
	FillingsUpdate:  mu: -0.105772889  nElectrons: 9.000000
	SubspaceRotationAdjust: set factor to 3.05
ElecMinimize: Iter:  32  F: -20.121693391509140  |grad|_K:  1.484e-05  alpha:  4.036e-01  linmin: -7.396e-03  t[s]:     89.81
	FillingsUpdate:  mu: -0.089901126  nElectrons: 9.000000
	SubspaceRotationAdjust: set factor to 3.27
ElecMinimize: Iter:  33  F: -20.122185901649793  |grad|_K:  1.473e-05  alpha:  6.213e-01  linmin:  2.992e-02  t[s]:     92.09
ElecMinimize: 	Bad step direction: g.d > 0.
ElecMinimize: 	Undoing step.
ElecMinimize: 	Step failed: resetting search direction.
	FillingsUpdate:  mu: -0.089901126  nElectrons: 9.000000
	SubspaceRotationAdjust: set factor to 4.39
ElecMinimize: Iter:  34  F: -20.122185901649793  |grad|_K:  1.459e-05  alpha:  0.000e+00
	FillingsUpdate:  mu: -0.102455258  nElectrons: 9.000000
	SubspaceRotationAdjust: set factor to 5.62
ElecMinimize: Iter:  35  F: -20.123557899102249  |grad|_K:  1.203e-05  alpha:  1.535e-01  linmin: -1.534e-02  t[s]:     96.03
	FillingsUpdate:  mu: -0.113056658  nElectrons: 9.000000
	SubspaceRotationAdjust: set factor to 5.05
ElecMinimize: Iter:  36  F: -20.123953843312517  |grad|_K:  9.922e-06  alpha:  1.438e-01  linmin: -4.282e-03  t[s]:     98.33
ElecMinimize: 	Step increased F by 3.459704e-05, reducing alpha to 7.588501e-03.
ElecMinimize: 	Step increased F by 1.002801e-04, reducing alpha to 7.588501e-04.
	FillingsUpdate:  mu: -0.113042203  nElectrons: 9.000000
	SubspaceRotationAdjust: set factor to 6.02
ElecMinimize: Iter:  37  F: -20.123955776230808  |grad|_K:  9.508e-06  alpha:  7.589e-04  linmin: -3.513e-03  t[s]:    103.79
ElecMinimize: 	Wrong curvature in test step, increasing alphaT to 2.276550e-03.
	FillingsUpdate:  mu: -0.113017178  nElectrons: 9.000000
	SubspaceRotationAdjust: set factor to 7.6
ElecMinimize: Iter:  38  F: -20.123958593133651  |grad|_K:  1.029e-05  alpha: -5.295e-02  linmin: -3.401e-03  t[s]:    105.91
	FillingsUpdate:  mu: -0.094400809  nElectrons: 9.000000
	SubspaceRotationAdjust: set factor to 5.49
ElecMinimize: Iter:  39  F: -20.123979506659158  |grad|_K:  1.163e-05  alpha:  6.437e-02  linmin: -1.063e-03  t[s]:    108.21
ElecMinimize: 	Step increased F by 5.405269e-05, reducing alpha to 1.609257e-03.
ElecMinimize: 	Step increased F by 7.251214e-05, reducing alpha to 1.609257e-04.
	FillingsUpdate:  mu: -0.094393109  nElectrons: 9.000000
	SubspaceRotationAdjust: set factor to 3.57
ElecMinimize: Iter:  40  F: -20.123980040009556  |grad|_K:  1.341e-05  alpha:  1.609e-04  linmin: -2.737e-03  t[s]:    113.60
ElecMinimize: 	Predicted alpha/alphaT>3.000000, increasing alphaT to 4.827772e-04.
	FillingsUpdate:  mu: -0.094329993  nElectrons: 9.000000
	SubspaceRotationAdjust: set factor to 1.9
ElecMinimize: Iter:  41  F: -20.123981478475827  |grad|_K:  2.679e-05  alpha:  5.522e-04  linmin:  2.184e-03  t[s]:    116.58
ElecMinimize: 	Bad step direction: g.d > 0.
ElecMinimize: 	Undoing step.
ElecMinimize: 	Step failed: resetting search direction.
	FillingsUpdate:  mu: -0.094329993  nElectrons: 9.000000
	SubspaceRotationAdjust: set factor to 1.06
	SubspaceRotationAdjust: resetting CG because factor has changed by 0.128204
ElecMinimize: 	State modified externally: resetting search direction.
ElecMinimize: Iter:  42  F: -20.123981478475812  |grad|_K:  1.554e-05  alpha:  0.000e+00
	FillingsUpdate:  mu: -0.094374613  nElectrons: 9.000000
	SubspaceRotationAdjust: set factor to 1.01
ElecMinimize: Iter:  43  F: -20.123984787685743  |grad|_K:  9.326e-06  alpha:  1.524e-03  linmin: -8.867e-03  t[s]:    121.89
	FillingsUpdate:  mu: -0.094388311  nElectrons: 9.000000
	SubspaceRotationAdjust: set factor to 1.25
ElecMinimize: Iter:  44  F: -20.123988061566767  |grad|_K:  7.212e-06  alpha:  2.806e-03  linmin: -6.432e-03  t[s]:    124.17
ElecMinimize: 	Wrong curvature in test step, increasing alphaT to 8.416752e-03.
	FillingsUpdate:  mu: -0.094571484  nElectrons: 9.000000
	SubspaceRotationAdjust: set factor to 0.675
ElecMinimize: Iter:  45  F: -20.124000441308389  |grad|_K:  2.343e-05  alpha: -6.540e-04  linmin: -7.801e-03  t[s]:    126.31
ElecMinimize: 	Step increased F by 2.509447e-02, reducing alpha to 2.941242e-02.
	FillingsUpdate:  mu: -0.109812653  nElectrons: 9.000000
	SubspaceRotationAdjust: set factor to 0.631
ElecMinimize: Iter:  46  F: -20.124653856612202  |grad|_K:  5.972e-06  alpha:  2.941e-02  linmin: -3.956e-03  t[s]:    130.14
ElecMinimize: 	Predicted alpha/alphaT>3.000000, increasing alphaT to 8.823726e-02.
ElecMinimize: 	Predicted alpha/alphaT>3.000000, increasing alphaT to 2.647118e-01.
	FillingsUpdate:  mu: -0.112847772  nElectrons: 9.000000
	SubspaceRotationAdjust: set factor to 0.659
ElecMinimize: Iter:  47  F: -20.124935194866360  |grad|_K:  5.247e-06  alpha:  3.999e-01  linmin: -6.498e-03  t[s]:    133.82
	FillingsUpdate:  mu: -0.114051720  nElectrons: 9.000000
	SubspaceRotationAdjust: set factor to 0.438
ElecMinimize: Iter:  48  F: -20.124975599365641  |grad|_K:  1.237e-05  alpha:  1.185e+00  linmin:  6.902e-03  t[s]:    136.14
ElecMinimize: 	Bad step direction: g.d > 0.
ElecMinimize: 	Undoing step.
ElecMinimize: 	Step failed: resetting search direction.
	FillingsUpdate:  mu: -0.114051720  nElectrons: 9.000000
	SubspaceRotationAdjust: set factor to 0.327
ElecMinimize: Iter:  49  F: -20.124975599365637  |grad|_K:  1.069e-05  alpha:  0.000e+00
	FillingsUpdate:  mu: -0.097360042  nElectrons: 9.000000
	SubspaceRotationAdjust: set factor to 0.346
ElecMinimize: Iter:  50  F: -20.125753728236390  |grad|_K:  3.304e-06  alpha:  9.821e-01  linmin: -4.032e-03  t[s]:    140.02
	FillingsUpdate:  mu: -0.099933229  nElectrons: 9.000000
	SubspaceRotationAdjust: set factor to 0.362
ElecMinimize: Iter:  51  F: -20.125856828955332  |grad|_K:  2.033e-06  alpha:  1.185e+00  linmin:  4.902e-05  t[s]:    142.32
	FillingsUpdate:  mu: -0.099657393  nElectrons: 9.000000
	SubspaceRotationAdjust: set factor to 0.363
ElecMinimize: Iter:  52  F: -20.125907404817969  |grad|_K:  3.781e-06  alpha:  2.574e+00  linmin:  4.246e-03  t[s]:    144.60
	FillingsUpdate:  mu: -0.098577490  nElectrons: 9.000000
	SubspaceRotationAdjust: set factor to 0.369
ElecMinimize: Iter:  53  F: -20.125924078559489  |grad|_K:  3.059e-06  alpha:  2.364e-01  linmin: -6.223e-03  t[s]:    146.90
ElecMinimize: 	Wrong curvature in test step, increasing alphaT to 7.093167e-01.
	FillingsUpdate:  mu: -0.099058312  nElectrons: 9.000000
	SubspaceRotationAdjust: set factor to 0.392
ElecMinimize: Iter:  54  F: -20.125979920101674  |grad|_K:  1.941e-06  alpha: -5.071e-01  linmin: -3.418e-02  t[s]:    149.02
ElecMinimize: 	Wrong curvature in test step, increasing alphaT to 3.000000e+00.
	FillingsUpdate:  mu: -0.100214355  nElectrons: 9.000000
	SubspaceRotationAdjust: set factor to 0.397
ElecMinimize: Iter:  55  F: -20.126086335677503  |grad|_K:  4.201e-06  alpha: -7.342e+00  linmin: -2.431e-03  t[s]:    151.17
	FillingsUpdate:  mu: -0.101415392  nElectrons: 9.000000
	SubspaceRotationAdjust: set factor to 0.4
ElecMinimize: Iter:  56  F: -20.126096572875092  |grad|_K:  4.832e-06  alpha:  7.006e-02  linmin: -5.025e-03  t[s]:    153.50
ElecMinimize: 	Step increased F by 1.823282e-05, reducing alpha to 1.051111e-02.
	FillingsUpdate:  mu: -0.101336345  nElectrons: 9.000000
	SubspaceRotationAdjust: set factor to 0.416
ElecMinimize: Iter:  57  F: -20.126098897448028  |grad|_K:  4.910e-06  alpha:  1.051e-02  linmin: -9.050e-03  t[s]:    157.34
ElecMinimize: 	Predicted alpha/alphaT>3.000000, increasing alphaT to 3.153333e-02.
ElecMinimize: 	Predicted alpha/alphaT>3.000000, increasing alphaT to 9.460000e-02.
	FillingsUpdate:  mu: -0.101491543  nElectrons: 9.000000
	SubspaceRotationAdjust: set factor to 0.424
ElecMinimize: Iter:  58  F: -20.126138821552988  |grad|_K:  4.245e-06  alpha:  5.218e-02  linmin: -1.166e-02  t[s]:    161.00
	FillingsUpdate:  mu: -0.101452196  nElectrons: 9.000000
	SubspaceRotationAdjust: set factor to 0.527
ElecMinimize: Iter:  59  F: -20.126149326241602  |grad|_K:  4.505e-06  alpha:  1.648e-02  linmin:  5.678e-03  t[s]:    163.32
ElecMinimize: 	Step increased F by 1.423571e-08, reducing alpha to 1.267520e-05.
	FillingsUpdate:  mu: -0.101452164  nElectrons: 9.000000
	SubspaceRotationAdjust: set factor to 0.662
ElecMinimize: Iter:  60  F: -20.126149326513868  |grad|_K:  4.654e-06  alpha:  1.268e-05  linmin: -1.623e-04  t[s]:    167.16
ElecMinimize: 	Predicted alpha/alphaT>3.000000, increasing alphaT to 3.802560e-05.
ElecMinimize: 	Predicted alpha/alphaT>3.000000, increasing alphaT to 1.140768e-04.
	FillingsUpdate:  mu: -0.101451680  nElectrons: 9.000000
	SubspaceRotationAdjust: set factor to 0.798
ElecMinimize: Iter:  61  F: -20.126149350178132  |grad|_K:  5.117e-06  alpha:  1.474e-04  linmin:  4.159e-04  t[s]:    170.84
	FillingsUpdate:  mu: -0.101451234  nElectrons: 9.000000
	SubspaceRotationAdjust: set factor to 0.77
ElecMinimize: Iter:  62  F: -20.126149368742137  |grad|_K:  5.635e-06  alpha:  1.007e-04  linmin:  9.450e-06  t[s]:    173.15
	FillingsUpdate:  mu: -0.101450665  nElectrons: 9.000000
	SubspaceRotationAdjust: set factor to 0.679
ElecMinimize: Iter:  63  F: -20.126149391642166  |grad|_K:  5.931e-06  alpha:  9.754e-05  linmin:  1.176e-04  t[s]:    175.46
	FillingsUpdate:  mu: -0.101450029  nElectrons: 9.000000
	SubspaceRotationAdjust: set factor to 0.579
ElecMinimize: Iter:  64  F: -20.126149415044775  |grad|_K:  6.056e-06  alpha:  9.231e-05  linmin:  7.408e-05  t[s]:    177.76
	FillingsUpdate:  mu: -0.101449282  nElectrons: 9.000000
	SubspaceRotationAdjust: set factor to 0.487
ElecMinimize: Iter:  65  F: -20.126149441138185  |grad|_K:  6.100e-06  alpha:  9.848e-05  linmin:  6.849e-05  t[s]:    180.05
	FillingsUpdate:  mu: -0.101448415  nElectrons: 9.000000
	SubspaceRotationAdjust: set factor to 0.408
ElecMinimize: Iter:  66  F: -20.126149469940085  |grad|_K:  6.094e-06  alpha:  1.073e-04  linmin:  4.918e-05  t[s]:    182.34
	FillingsUpdate:  mu: -0.101447402  nElectrons: 9.000000
	SubspaceRotationAdjust: set factor to 0.343
ElecMinimize: Iter:  67  F: -20.126149502281962  |grad|_K:  6.062e-06  alpha:  1.203e-04  linmin:  3.582e-05  t[s]:    184.67
	FillingsUpdate:  mu: -0.101446221  nElectrons: 9.000000
	SubspaceRotationAdjust: set factor to 0.29
ElecMinimize: Iter:  68  F: -20.126149538668312  |grad|_K:  6.014e-06  alpha:  1.364e-04  linmin:  2.551e-05  t[s]:    186.95
	FillingsUpdate:  mu: -0.101444848  nElectrons: 9.000000
	SubspaceRotationAdjust: set factor to 0.246
ElecMinimize: Iter:  69  F: -20.126149579639065  |grad|_K:  5.957e-06  alpha:  1.556e-04  linmin:  1.853e-05  t[s]:    189.25
	FillingsUpdate:  mu: -0.101443258  nElectrons: 9.000000
	SubspaceRotationAdjust: set factor to 0.21
ElecMinimize: Iter:  70  F: -20.126149625634408  |grad|_K:  5.894e-06  alpha:  1.776e-04  linmin:  1.358e-05  t[s]:    191.59
	FillingsUpdate:  mu: -0.101441428  nElectrons: 9.000000
	SubspaceRotationAdjust: set factor to 0.18
ElecMinimize: Iter:  71  F: -20.126149677022799  |grad|_K:  5.825e-06  alpha:  2.023e-04  linmin:  1.033e-05  t[s]:    193.89
	FillingsUpdate:  mu: -0.101439333  nElectrons: 9.000000
	SubspaceRotationAdjust: set factor to 0.155
ElecMinimize: Iter:  72  F: -20.126149734078460  |grad|_K:  5.750e-06  alpha:  2.296e-04  linmin:  7.793e-06  t[s]:    196.17
	FillingsUpdate:  mu: -0.101436946  nElectrons: 9.000000
	SubspaceRotationAdjust: set factor to 0.135
	SubspaceRotationAdjust: resetting CG because factor has changed by 0.127186
ElecMinimize: 	State modified externally: resetting search direction.
ElecMinimize: Iter:  73  F: -20.126149797117545  |grad|_K:  5.447e-06  alpha:  2.599e-04
ElecMinimize: 	Predicted alpha/alphaT>3.000000, increasing alphaT to 7.797506e-04.
ElecMinimize: 	Predicted alpha/alphaT>3.000000, increasing alphaT to 2.339252e-03.
ElecMinimize: 	Predicted alpha/alphaT>3.000000, increasing alphaT to 7.017756e-03.
	FillingsUpdate:  mu: -0.101387968  nElectrons: 9.000000
	SubspaceRotationAdjust: set factor to 0.148
ElecMinimize: Iter:  74  F: -20.126169270365803  |grad|_K:  3.239e-06  alpha:  7.043e-02  linmin: -3.150e-01  t[s]:    203.55
ElecMinimize: 	Predicted alpha/alphaT>3.000000, increasing alphaT to 2.112863e-01.
	FillingsUpdate:  mu: -0.101195042  nElectrons: 9.000000
	SubspaceRotationAdjust: set factor to 0.152
ElecMinimize: Iter:  75  F: -20.126203058994545  |grad|_K:  1.286e-06  alpha:  2.948e-01  linmin: -9.675e-02  t[s]:    206.52
	FillingsUpdate:  mu: -0.100811988  nElectrons: 9.000000
	SubspaceRotationAdjust: set factor to 0.16
ElecMinimize: Iter:  76  F: -20.126214434352704  |grad|_K:  1.118e-06  alpha:  8.001e-01  linmin: -2.693e-03  t[s]:    208.83
ElecMinimize: 	Wrong curvature in test step, increasing alphaT to 2.400351e+00.
	FillingsUpdate:  mu: -0.100731877  nElectrons: 9.000000
	SubspaceRotationAdjust: set factor to 0.099
ElecMinimize: Iter:  77  F: -20.126237844746264  |grad|_K:  2.764e-06  alpha: -7.431e-01  linmin: -3.799e-02  t[s]:    210.97
ElecMinimize: 	Step increased F by 2.970288e-05, reducing alpha to 4.197079e-02.
	FillingsUpdate:  mu: -0.100703734  nElectrons: 9.000000
	SubspaceRotationAdjust: set factor to 0.0998
ElecMinimize: Iter:  78  F: -20.126246355324810  |grad|_K:  1.398e-06  alpha:  4.197e-02  linmin: -3.353e-03  t[s]:    214.82
ElecMinimize: 	Predicted alpha/alphaT>3.000000, increasing alphaT to 1.259124e-01.
ElecMinimize: 	Predicted alpha/alphaT>3.000000, increasing alphaT to 3.777371e-01.
	FillingsUpdate:  mu: -0.100511137  nElectrons: 9.000000
	SubspaceRotationAdjust: set factor to 0.1
ElecMinimize: Iter:  79  F: -20.126260314915214  |grad|_K:  1.179e-06  alpha:  8.943e-01  linmin:  1.284e-05  t[s]:    218.52
	FillingsUpdate:  mu: -0.100455311  nElectrons: 9.000000
	SubspaceRotationAdjust: set factor to 0.101
ElecMinimize: Iter:  80  F: -20.126267408740667  |grad|_K:  8.259e-07  alpha:  5.645e-01  linmin: -7.914e-03  t[s]:    220.83
	FillingsUpdate:  mu: -0.100216674  nElectrons: 9.000000
	SubspaceRotationAdjust: set factor to 0.12
ElecMinimize: Iter:  81  F: -20.126270670359535  |grad|_K:  8.060e-07  alpha:  6.371e-01  linmin:  8.322e-03  t[s]:    223.14
ElecMinimize: 	Bad step direction: g.d > 0.
ElecMinimize: 	Undoing step.
ElecMinimize: 	Step failed: resetting search direction.
	FillingsUpdate:  mu: -0.100216674  nElectrons: 9.000000
	SubspaceRotationAdjust: set factor to 0.159
ElecMinimize: Iter:  82  F: -20.126270670359556  |grad|_K:  8.295e-07  alpha:  0.000e+00
	FillingsUpdate:  mu: -0.100424560  nElectrons: 9.000000
	SubspaceRotationAdjust: set factor to 0.183
ElecMinimize: Iter:  83  F: -20.126274022818791  |grad|_K:  4.838e-07  alpha:  6.561e-01  linmin: -1.278e-02  t[s]:    227.02
	FillingsUpdate:  mu: -0.100507112  nElectrons: 9.000000
	SubspaceRotationAdjust: set factor to 0.211
ElecMinimize: Iter:  84  F: -20.126276251522913  |grad|_K:  3.727e-07  alpha:  1.067e+00  linmin: -1.748e-02  t[s]:    229.30
	FillingsUpdate:  mu: -0.100647977  nElectrons: 9.000000
	SubspaceRotationAdjust: set factor to 0.222
ElecMinimize: Iter:  85  F: -20.126277826691243  |grad|_K:  4.088e-07  alpha:  1.233e+00  linmin:  1.516e-03  t[s]:    231.61
	FillingsUpdate:  mu: -0.100779442  nElectrons: 9.000000
	SubspaceRotationAdjust: set factor to 0.232
ElecMinimize: Iter:  86  F: -20.126278929323245  |grad|_K:  2.670e-07  alpha:  9.557e-01  linmin:  4.450e-05  t[s]:    233.91
	FillingsUpdate:  mu: -0.100757413  nElectrons: 9.000000
	SubspaceRotationAdjust: set factor to 0.232
ElecMinimize: Iter:  87  F: -20.126279741102046  |grad|_K:  3.060e-07  alpha:  1.551e+00  linmin:  1.326e-04  t[s]:    236.21
	FillingsUpdate:  mu: -0.100755775  nElectrons: 9.000000
	SubspaceRotationAdjust: set factor to 0.233
ElecMinimize: Iter:  88  F: -20.126279783256074  |grad|_K:  2.982e-07  alpha:  3.124e-02  linmin: -8.853e-03  t[s]:    238.52
ElecMinimize: 	Predicted alpha/alphaT>3.000000, increasing alphaT to 9.373082e-02.
ElecMinimize: 	Predicted alpha/alphaT>3.000000, increasing alphaT to 2.811925e-01.
	FillingsUpdate:  mu: -0.100715486  nElectrons: 9.000000
	SubspaceRotationAdjust: set factor to 0.236
ElecMinimize: Iter:  89  F: -20.126280408798262  |grad|_K:  2.179e-07  alpha:  4.857e-01  linmin:  3.954e-05  t[s]:    242.17
	FillingsUpdate:  mu: -0.100643205  nElectrons: 9.000000
	SubspaceRotationAdjust: set factor to 0.241
ElecMinimize: Iter:  90  F: -20.126280744889890  |grad|_K:  2.494e-07  alpha:  9.632e-01  linmin:  3.179e-05  t[s]:    244.46
	FillingsUpdate:  mu: -0.100642229  nElectrons: 9.000000
	SubspaceRotationAdjust: set factor to 0.247
ElecMinimize: Iter:  91  F: -20.126280752658030  |grad|_K:  2.469e-07  alpha:  8.556e-03  linmin: -5.693e-03  t[s]:    246.77
ElecMinimize: 	Predicted alpha/alphaT>3.000000, increasing alphaT to 2.566887e-02.
ElecMinimize: 	Predicted alpha/alphaT>3.000000, increasing alphaT to 7.700661e-02.
ElecMinimize: 	Predicted alpha/alphaT>3.000000, increasing alphaT to 2.310198e-01.
	FillingsUpdate:  mu: -0.100600995  nElectrons: 9.000000
	SubspaceRotationAdjust: set factor to 0.278
ElecMinimize: Iter:  92  F: -20.126281041727569  |grad|_K:  1.199e-07  alpha:  3.241e-01  linmin:  8.286e-06  t[s]:    250.44
	FillingsUpdate:  mu: -0.100585919  nElectrons: 9.000000
	SubspaceRotationAdjust: set factor to 0.3
ElecMinimize: Iter:  93  F: -20.126281115096983  |grad|_K:  1.356e-07  alpha:  6.902e-01  linmin: -3.536e-06  t[s]:    252.72
	FillingsUpdate:  mu: -0.100577678  nElectrons: 9.000000
	SubspaceRotationAdjust: set factor to 0.309
ElecMinimize: Iter:  94  F: -20.126281217187778  |grad|_K:  1.402e-07  alpha:  7.504e-01  linmin: -1.192e-05  t[s]:    255.03
	FillingsUpdate:  mu: -0.100578835  nElectrons: 9.000000
	SubspaceRotationAdjust: set factor to 0.311
ElecMinimize: Iter:  95  F: -20.126281284478644  |grad|_K:  9.280e-08  alpha:  4.626e-01  linmin:  1.447e-06  t[s]:    257.34
	FillingsUpdate:  mu: -0.100581950  nElectrons: 9.000000
	SubspaceRotationAdjust: set factor to 0.312
ElecMinimize: Iter:  96  F: -20.126281315714543  |grad|_K:  7.584e-08  alpha:  4.906e-01  linmin: -2.694e-06  t[s]:    259.67
	FillingsUpdate:  mu: -0.100585205  nElectrons: 9.000000
	SubspaceRotationAdjust: set factor to 0.317
ElecMinimize: Iter:  97  F: -20.126281341029994  |grad|_K:  6.772e-08  alpha:  5.950e-01  linmin: -6.564e-07  t[s]:    261.97
	FillingsUpdate:  mu: -0.100588206  nElectrons: 9.000000
	SubspaceRotationAdjust: set factor to 0.33
ElecMinimize: Iter:  98  F: -20.126281359192220  |grad|_K:  5.533e-08  alpha:  5.356e-01  linmin: -6.764e-07  t[s]:    264.26
	FillingsUpdate:  mu: -0.100591694  nElectrons: 9.000000
	SubspaceRotationAdjust: set factor to 0.351
ElecMinimize: Iter:  99  F: -20.126281371492269  |grad|_K:  4.665e-08  alpha:  5.432e-01  linmin: -2.204e-07  t[s]:    266.56
	FillingsUpdate:  mu: -0.100595493  nElectrons: 9.000000
	SubspaceRotationAdjust: set factor to 0.378
ElecMinimize: Iter: 100  F: -20.126281380022000  |grad|_K:  3.659e-08  alpha:  5.301e-01  linmin:  3.035e-07  t[s]:    268.85
	FillingsUpdate:  mu: -0.100598330  nElectrons: 9.000000
	SubspaceRotationAdjust: set factor to 0.399
ElecMinimize: Iter: 101  F: -20.126281385062573  |grad|_K:  3.104e-08  alpha:  5.096e-01  linmin:  1.150e-06  t[s]:    271.14
	FillingsUpdate:  mu: -0.100600977  nElectrons: 9.000000
	SubspaceRotationAdjust: set factor to 0.404
ElecMinimize: Iter: 102  F: -20.126281389709487  |grad|_K:  3.032e-08  alpha:  6.527e-01  linmin:  3.431e-07  t[s]:    273.44
	FillingsUpdate:  mu: -0.100602735  nElectrons: 9.000000
	SubspaceRotationAdjust: set factor to 0.402
ElecMinimize: Iter: 103  F: -20.126281393139845  |grad|_K:  2.263e-08  alpha:  5.048e-01  linmin:  1.588e-08  t[s]:    275.72
ElecMinimize: Converged (|Delta F|<1.000000e-08 for 4 iters).
Setting wave functions to eigenvectors of Hamiltonian

# Ionic positions in lattice coordinates:
ion Cs   0.000000000000000   0.000000000000000   0.000000000000000 0

# Forces in Lattice coordinates:
force Cs   0.000000000000000   0.000000000000000   0.000000000000000 0

# Energy components:
   Eewald =      -27.5542383211185751
       EH =      -11.6546242704654954
     Eloc =       13.5257476873003988
      Enl =        3.4355882358539205
   Epulay =        0.0000000081403633
      Exc =       -3.2627058952891081
       KE =        5.3839511923213976
-------------------------------------
     Etot =      -20.1262813632570996
       TS =        0.0000000298827435
-------------------------------------
        F =      -20.1262813931398448

IonicMinimize: Iter:   0  F: -20.126281393139845  |grad|_K:  0.000e+00  t[s]:    275.94
IonicMinimize: Converged (|grad|_K<1.000000e-04).

#--- Lowdin population analysis ---
# oxidation-state Cs +0.684

End date and time: Sun Jan 16 16:37:16 2022  (Duration: 0-0:04:35.99)
Done!
