2.84
--------------------------------------------------------------------------
The library attempted to open the following supporting CUDA libraries,
but each of them failed.  CUDA-aware support is disabled.
libcuda.so.1: cannot open shared object file: No such file or directory
libcuda.dylib: cannot open shared object file: No such file or directory
/usr/lib64/libcuda.so.1: cannot open shared object file: No such file or directory
/usr/lib64/libcuda.dylib: cannot open shared object file: No such file or directory
If you are not interested in CUDA-aware support, then run with
--mca opal_warn_on_missing_libcuda 0 to suppress this message.  If you are interested
in CUDA-aware support, then try setting LD_LIBRARY_PATH to the location
of libcuda.so.1 to get passed this issue.
--------------------------------------------------------------------------
--------------------------------------------------------------------------
No OpenFabrics connection schemes reported that they were able to be
used on a specific port.  As such, the openib BTL (OpenFabrics
support) will be disabled for this port.

  Local host:           d-16-11-3
  Local device:         mlx5_1
  Local port:           1
  CPCs attempted:       rdmacm, udcm
--------------------------------------------------------------------------

*************** JDFTx 1.6.0 (git hash 42ebbcc2) ***************

Start date and time: Sun Jan 16 16:41:47 2022
Executable jdftx with command-line: -i Cesium.in
Running on hosts (process indices):  d-16-11-3 (0-18)
Divided in process groups (process indices):  0 (0)  1 (1)  2 (2)  3 (3)  4 (4)  5 (5)  6 (6)  7 (7)  8 (8)  9 (9)  10 (10)  11 (11)  12 (12)  13 (13)  14 (14)  15 (15)  16 (16)  17 (17)  18 (18)
Resource initialization completed at t[s]:      0.00
Run totals: 19 processes, 48 threads, 0 GPUs


Input parsed successfully to the following command list (including defaults):

basis kpoint-dependent
coords-type Lattice
core-overlap-check vector
coulomb-interaction Slab 001
davidson-band-ratio 1.1
dump End None
dump-name $INPUT.$VAR
elec-cutoff 20
elec-eigen-algo Davidson
elec-ex-corr gga-PBE
elec-smearing Fermi 1e-05
electronic-minimize  \
	dirUpdateScheme      FletcherReeves \
	linminMethod         DirUpdateRecommended \
	nIterations          10000 \
	history              15 \
	knormThreshold       0 \
	energyDiffThreshold  1e-08 \
	nEnergyDiff          4 \
	alphaTstart          1 \
	alphaTmin            1e-10 \
	updateTestStepSize   yes \
	alphaTreduceFactor   0.1 \
	alphaTincreaseFactor 3 \
	nAlphaAdjustMax      3 \
	wolfeEnergy          0.0001 \
	wolfeGradient        0.9 \
	fdTest               no
exchange-regularization WignerSeitzTruncated
fluid None
fluid-ex-corr (null) lda-PZ
fluid-gummel-loop 10 1.000000e-05
fluid-minimize  \
	dirUpdateScheme      PolakRibiere \
	linminMethod         DirUpdateRecommended \
	nIterations          100 \
	history              15 \
	knormThreshold       0 \
	energyDiffThreshold  0 \
	nEnergyDiff          2 \
	alphaTstart          1 \
	alphaTmin            1e-10 \
	updateTestStepSize   yes \
	alphaTreduceFactor   0.1 \
	alphaTincreaseFactor 3 \
	nAlphaAdjustMax      3 \
	wolfeEnergy          0.0001 \
	wolfeGradient        0.9 \
	fdTest               no
fluid-solvent H2O 55.338 ScalarEOS \
	epsBulk 78.4 \
	pMol 0.92466 \
	epsInf 1.77 \
	Pvap 1.06736e-10 \
	sigmaBulk 4.62e-05 \
	Rvdw 2.61727 \
	Res 1.42 \
	tauNuc 343133 \
	poleEl 15 7 1
forces-output-coords Positions
ion Cs   0.000000000000000   0.000000000000000   0.000000000000000 0
ion-species SG15/$ID_ONCV_PBE.upf
ion-width 0
ionic-minimize  \
	dirUpdateScheme      L-BFGS \
	linminMethod         DirUpdateRecommended \
	nIterations          0 \
	history              15 \
	knormThreshold       0.0001 \
	energyDiffThreshold  1e-06 \
	nEnergyDiff          2 \
	alphaTstart          1 \
	alphaTmin            1e-10 \
	updateTestStepSize   yes \
	alphaTreduceFactor   0.1 \
	alphaTincreaseFactor 3 \
	nAlphaAdjustMax      3 \
	wolfeEnergy          0.0001 \
	wolfeGradient        0.9 \
	fdTest               no
kpoint   0.000000000000   0.000000000000   0.000000000000  1.00000000000000
kpoint-folding 48 48 1 
latt-move-scale 1 1 1
latt-scale 2.84 2.84 1 
lattice  \
	   4.727486978767153   -2.363743489383575    0.000000000000000  \
	  -0.000000000000000    4.094123819672498    0.000000000000000  \
	   0.000000000000000    0.000000000000000   40.000000000000000 
lattice-minimize  \
	dirUpdateScheme      L-BFGS \
	linminMethod         DirUpdateRecommended \
	nIterations          0 \
	history              15 \
	knormThreshold       0 \
	energyDiffThreshold  1e-06 \
	nEnergyDiff          2 \
	alphaTstart          1 \
	alphaTmin            1e-10 \
	updateTestStepSize   yes \
	alphaTreduceFactor   0.1 \
	alphaTincreaseFactor 3 \
	nAlphaAdjustMax      3 \
	wolfeEnergy          0.0001 \
	wolfeGradient        0.9 \
	fdTest               no
lcao-params -1 1e-06 1e-05
pcm-variant GLSSA13
spintype no-spin
subspace-rotation-factor 1 yes
symmetries automatic
symmetry-threshold 0.0001



---------- Setting up symmetries ----------

Found 24 point-group symmetries of the bravais lattice
Found 24 space-group symmetries with basis
Applied RMS atom displacement 0 bohrs to make symmetries exact.

---------- Initializing the Grid ----------
R = 
[      13.4261     -6.71303            0  ]
[            0      11.6273            0  ]
[            0            0           40  ]
unit cell volume = 6244.36
G =
[   0.467984   0.270191         -0  ]
[          0   0.540382         -0  ]
[         -0         -0    0.15708  ]
Minimum fftbox size, Smin = [  56  56  164  ]
Chosen fftbox size, S = [  56  56  168  ]

---------- Exchange Correlation functional ----------
Initalized PBE GGA exchange.
Initalized PBE GGA correlation.

---------- Setting up pseudopotentials ----------
Width of ionic core gaussian charges (only for fluid interactions / plotting) set to 0

Reading pseudopotential file '/home/gridsan/aligho/DFT/build-Nov24/pseudopotentials/SG15/Cs_ONCV_PBE.upf':
  'Cs' pseudopotential, 'PBE' functional
  Generated using ONCVPSP code by D. R. Hamann
  Author: Martin Schlipf and Francois Gygi  Date: 150915.
  9 valence electrons, 3 orbitals, 6 projectors, 2414 radial grid points, with lMax = 2
  Transforming local potential to a uniform radial grid of dG=0.02 with 1473 points.
  Transforming nonlocal projectors to a uniform radial grid of dG=0.02 with 432 points.
    5S    l: 0   occupation:  2.0   eigenvalue: -0.982388
    5P    l: 1   occupation:  6.0   eigenvalue: -0.496786
    6S    l: 0   occupation:  1.0   eigenvalue: -0.076670
  Transforming atomic orbitals to a uniform radial grid of dG=0.02 with 432 points.
  Core radius for overlap checks: 2.06 bohrs.
  Reading pulay file /home/gridsan/aligho/DFT/build-Nov24/pseudopotentials/SG15/Cs_ONCV_PBE.pulay ... using dE_dnG = -1.008762e-04 computed for Ecut = 20.

Initialized 1 species with 1 total atoms.

Folded 1 k-points by 48x48x1 to 2304 k-points.

---------- Setting up k-points, bands, fillings ----------
Reduced to 217 k-points under symmetry. 
Computing the number of bands and number of electrons
Calculating initial fillings.
nElectrons:   9.000000   nBands: 6   nStates: 217

----- Setting up reduced wavefunction bases (one per k-point) -----
average nbasis = 26677.007 , ideal nbasis = 26676.385

---------- Setting up coulomb interaction ----------
Initialized slab truncation along lattice direction 001

---------- Setting up 2D ewald sum ----------
Optimum gaussian width for ewald sums = 7.453608 bohr.
Real space sums over 289 unit cells with max indices [  8  8  0  ]
Reciprocal space sums over 81 terms with max indices [  4  4  0  ]

---------- Allocating electronic variables ----------
Initializing wave functions:  linear combination of atomic orbitals
Note: number of bands (6) exceeds available atomic orbitals (5)
Cs pseudo-atom occupations:   s ( 2 1 )  p ( 6 )
[d-16-11-3:80997] 18 more processes have sent help message help-mpi-common-cuda.txt / dlopen failed
[d-16-11-3:80997] Set MCA parameter "orte_base_help_aggregate" to 0 to see all help / error messages
[d-16-11-3:80997] 18 more processes have sent help message help-mpi-btl-openib-cpc-base.txt / no cpcs for port
	FillingsUpdate:  mu: -0.079617069  nElectrons: 9.000000
LCAOMinimize: Iter:   0  F: -20.1775979946226656  |grad|_K:  7.127e-06  alpha:  1.000e+00
	FillingsUpdate:  mu: -0.079613039  nElectrons: 9.000000
LCAOMinimize: Iter:   1  F: -20.1775981902651047  |grad|_K:  4.598e-08  alpha:  9.861e-01  linmin: -2.635e-02  cgtest:  4.528e-01  t[s]:     16.69
LCAOMinimize: Encountered beta<0, resetting CG.
	FillingsUpdate:  mu: -0.079613039  nElectrons: 9.000000
LCAOMinimize: Iter:   2  F: -20.1775981902735246  |grad|_K:  1.271e-09  alpha:  1.028e+00  linmin:  7.649e-02  cgtest: -1.000e+00  t[s]:     22.89
LCAOMinimize: Converged (|Delta F|<1.000000e-06 for 2 iters).


---- Citations for features of the code used in this run ----

   Software package:
      R. Sundararaman, K. Letchworth-Weaver, K.A. Schwarz, D. Gunceler, Y. Ozhabes and T.A. Arias, 'JDFTx: software for joint density-functional theory', SoftwareX 6, 278 (2017)

   gga-PBE exchange-correlation functional:
      J.P. Perdew, K. Burke and M. Ernzerhof, Phys. Rev. Lett. 77, 3865 (1996)

   Pseudopotentials:
      M Schlipf and F Gygi, Comput. Phys. Commun. 196, 36 (2015)

   Truncated Coulomb potentials:
      R. Sundararaman and T.A. Arias, Phys. Rev. B 87, 165122 (2013)

   Total energy minimization with Auxiliary Hamiltonian:
      C. Freysoldt, S. Boeck, and J. Neugebauer, Phys. Rev. B 79, 241103(R) (2009)

This list may not be complete. Please suggest additional citations or
report any other bugs at https://github.com/shankar1729/jdftx/issues

Initialization completed successfully at t[s]:     23.60


-------- Electronic minimization -----------
	FillingsUpdate:  mu: -0.079613039  nElectrons: 9.000000
ElecMinimize: Iter:   0  F: -20.177598190273518  |grad|_K:  2.681e-06  alpha:  1.000e+00
ElecMinimize: 	Predicted alpha/alphaT>3.000000, increasing alphaT to 3.000000e+00.
	FillingsUpdate:  mu: -0.079591019  nElectrons: 9.000000
	SubspaceRotationAdjust: set factor to 1
ElecMinimize: Iter:   1  F: -20.178719921683463  |grad|_K:  4.357e-06  alpha:  4.497e+00  linmin:  1.274e-04  t[s]:     39.80
	FillingsUpdate:  mu: -0.079605058  nElectrons: 9.000000
	SubspaceRotationAdjust: set factor to 1.02
ElecMinimize: Iter:   2  F: -20.178754801702080  |grad|_K:  4.278e-06  alpha:  2.687e-02  linmin: -9.972e-04  t[s]:     48.35
ElecMinimize: 	Predicted alpha/alphaT>3.000000, increasing alphaT to 8.060179e-02.
ElecMinimize: 	Predicted alpha/alphaT>3.000000, increasing alphaT to 2.418054e-01.
ElecMinimize: 	Predicted alpha/alphaT>3.000000, increasing alphaT to 7.254161e-01.
	FillingsUpdate:  mu: -0.080106910  nElectrons: 9.000000
	SubspaceRotationAdjust: set factor to 0.824
ElecMinimize: Iter:   3  F: -20.179719240713016  |grad|_K:  2.747e-06  alpha:  7.910e-01  linmin:  2.096e-04  t[s]:     62.02
	FillingsUpdate:  mu: -0.080112693  nElectrons: 9.000000
	SubspaceRotationAdjust: set factor to 0.916
ElecMinimize: Iter:   4  F: -20.179778772084255  |grad|_K:  2.721e-06  alpha:  1.756e-01  linmin: -5.113e-04  t[s]:     70.52
ElecMinimize: 	Predicted alpha/alphaT>3.000000, increasing alphaT to 5.266869e-01.
	FillingsUpdate:  mu: -0.079955860  nElectrons: 9.000000
	SubspaceRotationAdjust: set factor to 0.652
ElecMinimize: Iter:   5  F: -20.179963804101121  |grad|_K:  3.859e-06  alpha:  6.912e-01  linmin:  1.756e-03  t[s]:     81.55
ElecMinimize: 	Bad step direction: g.d > 0.
ElecMinimize: 	Undoing step.
ElecMinimize: 	Step failed: resetting search direction.
	FillingsUpdate:  mu: -0.079955860  nElectrons: 9.000000
	SubspaceRotationAdjust: set factor to 0.511
ElecMinimize: Iter:   6  F: -20.179963804101110  |grad|_K:  3.416e-06  alpha:  0.000e+00
	FillingsUpdate:  mu: -0.080015134  nElectrons: 9.000000
	SubspaceRotationAdjust: set factor to 0.842
ElecMinimize: Iter:   7  F: -20.180227008561790  |grad|_K:  1.091e-06  alpha:  6.590e-01  linmin: -2.838e-03  t[s]:     95.84
	FillingsUpdate:  mu: -0.079980789  nElectrons: 9.000000
	SubspaceRotationAdjust: set factor to 0.781
ElecMinimize: Iter:   8  F: -20.180327410201038  |grad|_K:  8.865e-07  alpha:  1.849e+00  linmin: -2.130e-03  t[s]:    104.28
	FillingsUpdate:  mu: -0.079598616  nElectrons: 9.000000
	SubspaceRotationAdjust: set factor to 0.806
ElecMinimize: Iter:   9  F: -20.180432086384766  |grad|_K:  1.573e-06  alpha:  3.027e+00  linmin:  9.002e-05  t[s]:    112.74
	FillingsUpdate:  mu: -0.079598100  nElectrons: 9.000000
	SubspaceRotationAdjust: set factor to 0.882
ElecMinimize: Iter:  10  F: -20.180432801361054  |grad|_K:  1.569e-06  alpha:  4.510e-03  linmin: -9.011e-04  t[s]:    121.22
ElecMinimize: 	Predicted alpha/alphaT>3.000000, increasing alphaT to 1.352894e-02.
ElecMinimize: 	Predicted alpha/alphaT>3.000000, increasing alphaT to 4.058683e-02.
ElecMinimize: 	Predicted alpha/alphaT>3.000000, increasing alphaT to 1.217605e-01.
	FillingsUpdate:  mu: -0.079410798  nElectrons: 9.000000
	SubspaceRotationAdjust: set factor to 1
ElecMinimize: Iter:  11  F: -20.180509813726896  |grad|_K:  1.125e-06  alpha:  5.145e-01  linmin:  2.774e-04  t[s]:    134.85
	FillingsUpdate:  mu: -0.079106324  nElectrons: 9.000000
	SubspaceRotationAdjust: set factor to 1.27
ElecMinimize: Iter:  12  F: -20.180523668297813  |grad|_K:  1.321e-06  alpha:  4.887e-01  linmin:  2.302e-05  t[s]:    143.33
	FillingsUpdate:  mu: -0.078948150  nElectrons: 9.000000
	SubspaceRotationAdjust: set factor to 1.16
ElecMinimize: Iter:  13  F: -20.180546778762341  |grad|_K:  1.102e-06  alpha:  3.954e-01  linmin: -2.771e-05  t[s]:    151.76
	FillingsUpdate:  mu: -0.078917555  nElectrons: 9.000000
	SubspaceRotationAdjust: set factor to 1.1
ElecMinimize: Iter:  14  F: -20.180561414118316  |grad|_K:  7.798e-07  alpha:  3.486e-01  linmin: -2.351e-05  t[s]:    160.17
	FillingsUpdate:  mu: -0.078898520  nElectrons: 9.000000
	SubspaceRotationAdjust: set factor to 1.47
ElecMinimize: Iter:  15  F: -20.180571548566789  |grad|_K:  5.985e-07  alpha:  4.504e-01  linmin: -3.654e-05  t[s]:    168.64
	FillingsUpdate:  mu: -0.078898655  nElectrons: 9.000000
	SubspaceRotationAdjust: set factor to 1.71
ElecMinimize: Iter:  16  F: -20.180571592551157  |grad|_K:  6.132e-07  alpha:  1.619e-03  linmin: -3.700e-04  t[s]:    177.13
ElecMinimize: 	Predicted alpha/alphaT>3.000000, increasing alphaT to 4.857328e-03.
ElecMinimize: 	Predicted alpha/alphaT>3.000000, increasing alphaT to 1.457198e-02.
ElecMinimize: 	Predicted alpha/alphaT>3.000000, increasing alphaT to 4.371595e-02.
ElecMinimize: 	Step increased F by 2.025040e-03, reducing alpha to 3.457640e-02.
	FillingsUpdate:  mu: -0.078906956  nElectrons: 9.000000
	SubspaceRotationAdjust: set factor to 2.09
ElecMinimize: Iter:  17  F: -20.180573386263642  |grad|_K:  5.678e-07  alpha:  3.458e-02  linmin: -6.073e-04  t[s]:    196.45
ElecMinimize: 	Predicted alpha/alphaT>3.000000, increasing alphaT to 1.037292e-01.
	FillingsUpdate:  mu: -0.078963883  nElectrons: 9.000000
	SubspaceRotationAdjust: set factor to 1.7
ElecMinimize: Iter:  18  F: -20.180581749053900  |grad|_K:  4.865e-07  alpha:  2.589e-01  linmin:  2.737e-04  t[s]:    207.48
	FillingsUpdate:  mu: -0.078963884  nElectrons: 9.000000
	SubspaceRotationAdjust: set factor to 1.66
ElecMinimize: Iter:  19  F: -20.180581749167779  |grad|_K:  4.607e-07  alpha:  2.473e-05  linmin: -1.674e-04  t[s]:    215.94
ElecMinimize: 	Predicted alpha/alphaT>3.000000, increasing alphaT to 7.418085e-05.
ElecMinimize: 	Predicted alpha/alphaT>3.000000, increasing alphaT to 2.225425e-04.
ElecMinimize: 	Predicted alpha/alphaT>3.000000, increasing alphaT to 6.676276e-04.
ElecMinimize: 	Step increased F by 1.260507e-03, reducing alpha to 2.293201e-02.
ElecMinimize: 	Step increased F by 2.158341e-06, reducing alpha to 2.293201e-03.
	FillingsUpdate:  mu: -0.078963812  nElectrons: 9.000000
	SubspaceRotationAdjust: set factor to 1.68
ElecMinimize: Iter:  20  F: -20.180581792183865  |grad|_K:  4.531e-07  alpha:  2.293e-03  linmin: -1.091e-03  t[s]:    240.92
ElecMinimize: 	Predicted alpha/alphaT>3.000000, increasing alphaT to 6.879603e-03.
ElecMinimize: 	Predicted alpha/alphaT>3.000000, increasing alphaT to 2.063881e-02.
ElecMinimize: 	Predicted alpha/alphaT>3.000000, increasing alphaT to 6.191643e-02.
	FillingsUpdate:  mu: -0.078958739  nElectrons: 9.000000
	SubspaceRotationAdjust: set factor to 2.11
ElecMinimize: Iter:  21  F: -20.180583401108009  |grad|_K:  3.531e-07  alpha:  6.443e-02  linmin: -1.173e-03  t[s]:    254.62
ElecMinimize: 	Predicted alpha/alphaT>3.000000, increasing alphaT to 1.932979e-01.
ElecMinimize: 	Predicted alpha/alphaT>3.000000, increasing alphaT to 5.798936e-01.
	FillingsUpdate:  mu: -0.078888645  nElectrons: 9.000000
	SubspaceRotationAdjust: set factor to 1.98
ElecMinimize: Iter:  22  F: -20.180589584937653  |grad|_K:  4.288e-07  alpha:  5.381e-01  linmin:  1.319e-04  t[s]:    268.25
	FillingsUpdate:  mu: -0.078877401  nElectrons: 9.000000
	SubspaceRotationAdjust: set factor to 1.77
ElecMinimize: Iter:  23  F: -20.180589863476914  |grad|_K:  4.490e-07  alpha:  4.763e-02  linmin: -1.420e-04  t[s]:    276.65
ElecMinimize: 	Predicted alpha/alphaT>3.000000, increasing alphaT to 1.428873e-01.
	FillingsUpdate:  mu: -0.078836198  nElectrons: 9.000000
	SubspaceRotationAdjust: set factor to 1.42
ElecMinimize: Iter:  24  F: -20.180591305923052  |grad|_K:  4.523e-07  alpha:  1.641e-01  linmin:  4.698e-05  t[s]:    287.62
	FillingsUpdate:  mu: -0.078813708  nElectrons: 9.000000
	SubspaceRotationAdjust: set factor to 1.2
ElecMinimize: Iter:  25  F: -20.180592046630295  |grad|_K:  3.985e-07  alpha:  1.095e-01  linmin:  3.370e-07  t[s]:    296.04
	FillingsUpdate:  mu: -0.078803911  nElectrons: 9.000000
	SubspaceRotationAdjust: set factor to 1.16
ElecMinimize: Iter:  26  F: -20.180592713385469  |grad|_K:  3.359e-07  alpha:  1.205e-01  linmin: -3.092e-05  t[s]:    304.54
	FillingsUpdate:  mu: -0.078806679  nElectrons: 9.000000
	SubspaceRotationAdjust: set factor to 1.45
ElecMinimize: Iter:  27  F: -20.180593292383943  |grad|_K:  2.924e-07  alpha:  1.429e-01  linmin: -3.716e-05  t[s]:    312.99
	FillingsUpdate:  mu: -0.078820335  nElectrons: 9.000000
	SubspaceRotationAdjust: set factor to 1.92
ElecMinimize: Iter:  28  F: -20.180593829456352  |grad|_K:  2.676e-07  alpha:  1.714e-01  linmin: -2.445e-05  t[s]:    321.49
	FillingsUpdate:  mu: -0.078841781  nElectrons: 9.000000
	SubspaceRotationAdjust: set factor to 2.29
ElecMinimize: Iter:  29  F: -20.180594331532557  |grad|_K:  2.408e-07  alpha:  1.906e-01  linmin: -1.606e-05  t[s]:    329.89
	FillingsUpdate:  mu: -0.078863148  nElectrons: 9.000000
	SubspaceRotationAdjust: set factor to 2.67
ElecMinimize: Iter:  30  F: -20.180594767249662  |grad|_K:  2.182e-07  alpha:  2.064e-01  linmin: -1.396e-05  t[s]:    338.36
	FillingsUpdate:  mu: -0.078875968  nElectrons: 9.000000
	SubspaceRotationAdjust: set factor to 2.92
ElecMinimize: Iter:  31  F: -20.180595141396665  |grad|_K:  2.171e-07  alpha:  2.209e-01  linmin: -4.280e-07  t[s]:    346.84
	FillingsUpdate:  mu: -0.078875043  nElectrons: 9.000000
	SubspaceRotationAdjust: set factor to 3.49
ElecMinimize: Iter:  32  F: -20.180595492322663  |grad|_K:  2.238e-07  alpha:  2.140e-01  linmin:  1.249e-05  t[s]:    355.34
	FillingsUpdate:  mu: -0.078861399  nElectrons: 9.000000
	SubspaceRotationAdjust: set factor to 4.41
ElecMinimize: Iter:  33  F: -20.180595796382807  |grad|_K:  2.335e-07  alpha:  1.749e-01  linmin:  8.257e-06  t[s]:    363.76
	FillingsUpdate:  mu: -0.078842927  nElectrons: 9.000000
	SubspaceRotationAdjust: set factor to 4.43
ElecMinimize: Iter:  34  F: -20.180596057555743  |grad|_K:  2.530e-07  alpha:  1.389e-01  linmin:  5.780e-06  t[s]:    372.28
	FillingsUpdate:  mu: -0.078828047  nElectrons: 9.000000
	SubspaceRotationAdjust: set factor to 3.79
ElecMinimize: Iter:  35  F: -20.180596317391498  |grad|_K:  2.553e-07  alpha:  1.182e-01  linmin:  3.117e-06  t[s]:    380.75
	FillingsUpdate:  mu: -0.078825753  nElectrons: 9.000000
	SubspaceRotationAdjust: set factor to 3.43
ElecMinimize: Iter:  36  F: -20.180596571551010  |grad|_K:  2.284e-07  alpha:  1.127e-01  linmin: -1.814e-05  t[s]:    389.24
	FillingsUpdate:  mu: -0.078836548  nElectrons: 9.000000
	SubspaceRotationAdjust: set factor to 4.01
ElecMinimize: Iter:  37  F: -20.180596808901083  |grad|_K:  1.999e-07  alpha:  1.283e-01  linmin: -1.990e-05  t[s]:    397.71
	FillingsUpdate:  mu: -0.078854777  nElectrons: 9.000000
	SubspaceRotationAdjust: set factor to 5.04
ElecMinimize: Iter:  38  F: -20.180597030812130  |grad|_K:  1.909e-07  alpha:  1.541e-01  linmin: -1.053e-05  t[s]:    406.16
	FillingsUpdate:  mu: -0.078872089  nElectrons: 9.000000
	SubspaceRotationAdjust: set factor to 5.13
ElecMinimize: Iter:  39  F: -20.180597244811981  |grad|_K:  2.001e-07  alpha:  1.648e-01  linmin: -1.524e-06  t[s]:    414.61
	FillingsUpdate:  mu: -0.078877052  nElectrons: 9.000000
	SubspaceRotationAdjust: set factor to 4.18
ElecMinimize: Iter:  40  F: -20.180597450764179  |grad|_K:  1.991e-07  alpha:  1.468e-01  linmin:  1.111e-05  t[s]:    423.08
	FillingsUpdate:  mu: -0.078868691  nElectrons: 9.000000
	SubspaceRotationAdjust: set factor to 3.56
ElecMinimize: Iter:  41  F: -20.180597609390379  |grad|_K:  1.685e-07  alpha:  1.153e-01  linmin:  5.316e-06  t[s]:    431.53
	FillingsUpdate:  mu: -0.078858061  nElectrons: 9.000000
	SubspaceRotationAdjust: set factor to 3.58
ElecMinimize: Iter:  42  F: -20.180597719825080  |grad|_K:  1.413e-07  alpha:  1.134e-01  linmin:  7.561e-06  t[s]:    440.10
	FillingsUpdate:  mu: -0.078852262  nElectrons: 9.000000
	SubspaceRotationAdjust: set factor to 3.96
ElecMinimize: Iter:  43  F: -20.180597802519319  |grad|_K:  1.299e-07  alpha:  1.209e-01  linmin:  7.674e-07  t[s]:    448.58
	FillingsUpdate:  mu: -0.078853663  nElectrons: 9.000000
	SubspaceRotationAdjust: set factor to 4.03
ElecMinimize: Iter:  44  F: -20.180597879697221  |grad|_K:  1.308e-07  alpha:  1.315e-01  linmin: -1.080e-05  t[s]:    457.04
	FillingsUpdate:  mu: -0.078864021  nElectrons: 9.000000
	SubspaceRotationAdjust: set factor to 3.72
ElecMinimize: Iter:  45  F: -20.180597967002658  |grad|_K:  1.336e-07  alpha:  1.442e-01  linmin: -8.396e-06  t[s]:    465.46
	FillingsUpdate:  mu: -0.078881176  nElectrons: 9.000000
	SubspaceRotationAdjust: set factor to 3.52
ElecMinimize: Iter:  46  F: -20.180598064907262  |grad|_K:  1.287e-07  alpha:  1.539e-01  linmin: -5.309e-06  t[s]:    473.93
	FillingsUpdate:  mu: -0.078897073  nElectrons: 9.000000
	SubspaceRotationAdjust: set factor to 3.67
ElecMinimize: Iter:  47  F: -20.180598158097908  |grad|_K:  1.210e-07  alpha:  1.596e-01  linmin:  6.595e-07  t[s]:    482.50
	FillingsUpdate:  mu: -0.078905954  nElectrons: 9.000000
	SubspaceRotationAdjust: set factor to 3.92
ElecMinimize: Iter:  48  F: -20.180598239280616  |grad|_K:  1.179e-07  alpha:  1.596e-01  linmin:  8.143e-06  t[s]:    490.97
	FillingsUpdate:  mu: -0.078907173  nElectrons: 9.000000
	SubspaceRotationAdjust: set factor to 3.82
ElecMinimize: Iter:  49  F: -20.180598308481404  |grad|_K:  1.191e-07  alpha:  1.449e-01  linmin:  6.632e-06  t[s]:    499.43
	FillingsUpdate:  mu: -0.078904144  nElectrons: 9.000000
	SubspaceRotationAdjust: set factor to 3.39
ElecMinimize: Iter:  50  F: -20.180598371190598  |grad|_K:  1.183e-07  alpha:  1.292e-01  linmin:  5.325e-06  t[s]:    507.90
	FillingsUpdate:  mu: -0.078901566  nElectrons: 9.000000
	SubspaceRotationAdjust: set factor to 2.95
ElecMinimize: Iter:  51  F: -20.180598430079108  |grad|_K:  1.100e-07  alpha:  1.224e-01  linmin:  4.548e-06  t[s]:    516.36
	FillingsUpdate:  mu: -0.078903000  nElectrons: 9.000000
	SubspaceRotationAdjust: set factor to 2.71
ElecMinimize: Iter:  52  F: -20.180598482377796  |grad|_K:  9.702e-08  alpha:  1.248e-01  linmin: -5.406e-06  t[s]:    524.84
	FillingsUpdate:  mu: -0.078908967  nElectrons: 9.000000
	SubspaceRotationAdjust: set factor to 2.77
ElecMinimize: Iter:  53  F: -20.180598527751091  |grad|_K:  8.531e-08  alpha:  1.375e-01  linmin: -8.059e-06  t[s]:    533.34
	FillingsUpdate:  mu: -0.078918091  nElectrons: 9.000000
	SubspaceRotationAdjust: set factor to 3.17
ElecMinimize: Iter:  54  F: -20.180598567741502  |grad|_K:  7.798e-08  alpha:  1.553e-01  linmin: -7.148e-06  t[s]:    541.84
	FillingsUpdate:  mu: -0.078928067  nElectrons: 9.000000
	SubspaceRotationAdjust: set factor to 3.59
ElecMinimize: Iter:  55  F: -20.180598603693422  |grad|_K:  7.595e-08  alpha:  1.674e-01  linmin: -4.211e-06  t[s]:    550.32
	FillingsUpdate:  mu: -0.078936201  nElectrons: 9.000000
	SubspaceRotationAdjust: set factor to 3.6
ElecMinimize: Iter:  56  F: -20.180598637507529  |grad|_K:  7.732e-08  alpha:  1.674e-01  linmin:  1.211e-06  t[s]:    558.81
	FillingsUpdate:  mu: -0.078940098  nElectrons: 9.000000
	SubspaceRotationAdjust: set factor to 3.37
ElecMinimize: Iter:  57  F: -20.180598670125949  |grad|_K:  7.738e-08  alpha:  1.570e-01  linmin:  4.704e-06  t[s]:    567.26
	FillingsUpdate:  mu: -0.078939657  nElectrons: 9.000000
	SubspaceRotationAdjust: set factor to 3.2
ElecMinimize: Iter:  58  F: -20.180598700362388  |grad|_K:  7.532e-08  alpha:  1.464e-01  linmin:  4.177e-06  t[s]:    575.75
	FillingsUpdate:  mu: -0.078937263  nElectrons: 9.000000
	SubspaceRotationAdjust: set factor to 3.15
ElecMinimize: Iter:  59  F: -20.180598728345903  |grad|_K:  7.335e-08  alpha:  1.436e-01  linmin:  3.386e-06  t[s]:    584.19
	FillingsUpdate:  mu: -0.078935661  nElectrons: 9.000000
	SubspaceRotationAdjust: set factor to 3.12
ElecMinimize: Iter:  60  F: -20.180598755087157  |grad|_K:  7.176e-08  alpha:  1.441e-01  linmin:  1.324e-06  t[s]:    592.67
	FillingsUpdate:  mu: -0.078936750  nElectrons: 9.000000
	SubspaceRotationAdjust: set factor to 3
ElecMinimize: Iter:  61  F: -20.180598781093540  |grad|_K:  6.960e-08  alpha:  1.455e-01  linmin: -3.965e-06  t[s]:    601.17
	FillingsUpdate:  mu: -0.078940910  nElectrons: 9.000000
	SubspaceRotationAdjust: set factor to 2.87
ElecMinimize: Iter:  62  F: -20.180598806547174  |grad|_K:  6.569e-08  alpha:  1.502e-01  linmin: -4.343e-06  t[s]:    609.62
	FillingsUpdate:  mu: -0.078946803  nElectrons: 9.000000
	SubspaceRotationAdjust: set factor to 2.95
ElecMinimize: Iter:  63  F: -20.180598830423509  |grad|_K:  6.066e-08  alpha:  1.574e-01  linmin: -3.540e-06  t[s]:    618.20
	FillingsUpdate:  mu: -0.078952236  nElectrons: 9.000000
	SubspaceRotationAdjust: set factor to 3.24
ElecMinimize: Iter:  64  F: -20.180598851633125  |grad|_K:  5.720e-08  alpha:  1.646e-01  linmin: -1.936e-06  t[s]:    626.68
	FillingsUpdate:  mu: -0.078955557  nElectrons: 9.000000
	SubspaceRotationAdjust: set factor to 3.4
ElecMinimize: Iter:  65  F: -20.180598870504891  |grad|_K:  5.594e-08  alpha:  1.656e-01  linmin:  2.928e-06  t[s]:    635.10
	FillingsUpdate:  mu: -0.078955963  nElectrons: 9.000000
	SubspaceRotationAdjust: set factor to 3.23
ElecMinimize: Iter:  66  F: -20.180598887290419  |grad|_K:  5.433e-08  alpha:  1.548e-01  linmin:  3.460e-06  t[s]:    643.55
	FillingsUpdate:  mu: -0.078954082  nElectrons: 9.000000
	SubspaceRotationAdjust: set factor to 2.94
ElecMinimize: Iter:  67  F: -20.180598901740129  |grad|_K:  5.046e-08  alpha:  1.419e-01  linmin:  3.106e-06  t[s]:    651.98
	FillingsUpdate:  mu: -0.078951508  nElectrons: 9.000000
	SubspaceRotationAdjust: set factor to 2.82
ElecMinimize: Iter:  68  F: -20.180598913952576  |grad|_K:  4.561e-08  alpha:  1.390e-01  linmin:  2.736e-06  t[s]:    660.53
	FillingsUpdate:  mu: -0.078949554  nElectrons: 9.000000
	SubspaceRotationAdjust: set factor to 3
ElecMinimize: Iter:  69  F: -20.180598924464800  |grad|_K:  4.256e-08  alpha:  1.459e-01  linmin: -1.246e-06  t[s]:    668.97
	FillingsUpdate:  mu: -0.078948752  nElectrons: 9.000000
	SubspaceRotationAdjust: set factor to 3.26
ElecMinimize: Iter:  70  F: -20.180598934379297  |grad|_K:  4.265e-08  alpha:  1.573e-01  linmin: -3.501e-06  t[s]:    677.40
	FillingsUpdate:  mu: -0.078949146  nElectrons: 9.000000
	SubspaceRotationAdjust: set factor to 3.2
ElecMinimize: Iter:  71  F: -20.180598944892591  |grad|_K:  4.447e-08  alpha:  1.652e-01  linmin: -2.976e-06  t[s]:    685.84
	FillingsUpdate:  mu: -0.078950161  nElectrons: 9.000000
	SubspaceRotationAdjust: set factor to 2.88
ElecMinimize: Iter:  72  F: -20.180598956247398  |grad|_K:  4.435e-08  alpha:  1.639e-01  linmin: -1.837e-06  t[s]:    694.33
	FillingsUpdate:  mu: -0.078950545  nElectrons: 9.000000
	SubspaceRotationAdjust: set factor to 2.59
ElecMinimize: Iter:  73  F: -20.180598967130681  |grad|_K:  4.066e-08  alpha:  1.585e-01  linmin: -1.306e-07  t[s]:    702.85
	FillingsUpdate:  mu: -0.078949555  nElectrons: 9.000000
	SubspaceRotationAdjust: set factor to 2.57
ElecMinimize: Iter:  74  F: -20.180598976286138  |grad|_K:  3.581e-08  alpha:  1.594e-01  linmin:  2.876e-06  t[s]:    711.29
	FillingsUpdate:  mu: -0.078947389  nElectrons: 9.000000
	SubspaceRotationAdjust: set factor to 2.86
ElecMinimize: Iter:  75  F: -20.180598983592095  |grad|_K:  3.275e-08  alpha:  1.647e-01  linmin:  3.086e-06  t[s]:    719.70
	FillingsUpdate:  mu: -0.078944572  nElectrons: 9.000000
	SubspaceRotationAdjust: set factor to 3.06
ElecMinimize: Iter:  76  F: -20.180598989706269  |grad|_K:  3.200e-08  alpha:  1.653e-01  linmin:  2.435e-06  t[s]:    728.09
	FillingsUpdate:  mu: -0.078941631  nElectrons: 9.000000
	SubspaceRotationAdjust: set factor to 2.88
ElecMinimize: Iter:  77  F: -20.180598995308184  |grad|_K:  3.177e-08  alpha:  1.584e-01  linmin:  1.660e-06  t[s]:    736.51
ElecMinimize: Converged (|Delta F|<1.000000e-08 for 4 iters).
Setting wave functions to eigenvectors of Hamiltonian

# Ionic positions in lattice coordinates:
ion Cs   0.000000000000000   0.000000000000000   0.000000000000000 0

# Forces in Lattice coordinates:
force Cs   0.000000000000000   0.000000000000000   0.000000000000000 0

# Energy components:
   Eewald =      -12.7098775354455356
       EH =        3.3543523807993028
     Eloc =      -16.2466164687830705
      Enl =        3.4316017149684273
   Epulay =        0.0000000100400355
      Exc =       -3.1109444528780714
       KE =        5.1008854267400263
-------------------------------------
     Etot =      -20.1805989245588862
       TS =        0.0000000707492985
-------------------------------------
        F =      -20.1805989953081841

IonicMinimize: Iter:   0  F: -20.180598995308184  |grad|_K:  0.000e+00  t[s]:    737.47
IonicMinimize: Converged (|grad|_K<1.000000e-04).

#--- Lowdin population analysis ---
# oxidation-state Cs +0.042

End date and time: Sun Jan 16 16:54:05 2022  (Duration: 0-0:12:17.69)
Done!
