The alkali metal is Rb
scale=2
magnetization=0.98
--------------------------------------------------------------------------
The library attempted to open the following supporting CUDA libraries,
but each of them failed.  CUDA-aware support is disabled.
libcuda.so.1: cannot open shared object file: No such file or directory
libcuda.dylib: cannot open shared object file: No such file or directory
/usr/lib64/libcuda.so.1: cannot open shared object file: No such file or directory
/usr/lib64/libcuda.dylib: cannot open shared object file: No such file or directory
If you are not interested in CUDA-aware support, then run with
--mca opal_warn_on_missing_libcuda 0 to suppress this message.  If you are interested
in CUDA-aware support, then try setting LD_LIBRARY_PATH to the location
of libcuda.so.1 to get passed this issue.
--------------------------------------------------------------------------
--------------------------------------------------------------------------
No OpenFabrics connection schemes reported that they were able to be
used on a specific port.  As such, the openib BTL (OpenFabrics
support) will be disabled for this port.

  Local host:           d-16-6-2
  Local device:         mlx5_1
  Local port:           1
  CPCs attempted:       rdmacm, udcm
--------------------------------------------------------------------------

*************** JDFTx 1.6.0 (git hash 42ebbcc2) ***************

Start date and time: Sun Feb  6 12:59:54 2022
Executable jdftx with command-line: -i Alkali.in
Running on hosts (process indices):  d-16-6-2 (0-18)
Divided in process groups (process indices):  0 (0)  1 (1)  2 (2)  3 (3)  4 (4)  5 (5)  6 (6)  7 (7)  8 (8)  9 (9)  10 (10)  11 (11)  12 (12)  13 (13)  14 (14)  15 (15)  16 (16)  17 (17)  18 (18)
Resource initialization completed at t[s]:      0.00
Run totals: 19 processes, 48 threads, 0 GPUs


Input parsed successfully to the following command list (including defaults):

basis kpoint-dependent
coords-type Lattice
core-overlap-check vector
coulomb-interaction Slab 001
davidson-band-ratio 1.1
dump End None
dump-name $INPUT.$VAR
elec-cutoff 20
elec-eigen-algo Davidson
elec-ex-corr gga-PBE
elec-initial-magnetization 0.980000 yes
elec-smearing Fermi 1e-05
electronic-minimize  \
	dirUpdateScheme      FletcherReeves \
	linminMethod         DirUpdateRecommended \
	nIterations          100 \
	history              15 \
	knormThreshold       0 \
	energyDiffThreshold  1e-08 \
	nEnergyDiff          2 \
	alphaTstart          1 \
	alphaTmin            1e-10 \
	updateTestStepSize   yes \
	alphaTreduceFactor   0.1 \
	alphaTincreaseFactor 3 \
	nAlphaAdjustMax      3 \
	wolfeEnergy          0.0001 \
	wolfeGradient        0.9 \
	fdTest               no
electronic-scf  \
	nIterations	10000 \
	energyDiffThreshold	1e-08 \
	residualThreshold	1e-07 \
	mixFraction	0.5 \
	qMetric	0.8 \
	history	10 \
	nEigSteps	2 \
	eigDiffThreshold	1e-08 \
	mixedVariable	Density \
	qKerker	0.8 \
	qKappa	-1 \
	verbose	no \
	mixFractionMag	1.5
exchange-regularization WignerSeitzTruncated
fluid None
fluid-ex-corr (null) lda-PZ
fluid-gummel-loop 10 1.000000e-05
fluid-minimize  \
	dirUpdateScheme      PolakRibiere \
	linminMethod         DirUpdateRecommended \
	nIterations          100 \
	history              15 \
	knormThreshold       0 \
	energyDiffThreshold  0 \
	nEnergyDiff          2 \
	alphaTstart          1 \
	alphaTmin            1e-10 \
	updateTestStepSize   yes \
	alphaTreduceFactor   0.1 \
	alphaTincreaseFactor 3 \
	nAlphaAdjustMax      3 \
	wolfeEnergy          0.0001 \
	wolfeGradient        0.9 \
	fdTest               no
fluid-solvent H2O 55.338 ScalarEOS \
	epsBulk 78.4 \
	pMol 0.92466 \
	epsInf 1.77 \
	Pvap 1.06736e-10 \
	sigmaBulk 4.62e-05 \
	Rvdw 2.61727 \
	Res 1.42 \
	tauNuc 343133 \
	poleEl 15 7 1
forces-output-coords Positions
ion Rb   0.000000000000000   0.000000000000000   0.000000000000000 0
ion-species SG15/$ID_ONCV_PBE.upf
ion-width 0
ionic-minimize  \
	dirUpdateScheme      L-BFGS \
	linminMethod         DirUpdateRecommended \
	nIterations          0 \
	history              15 \
	knormThreshold       0.0001 \
	energyDiffThreshold  1e-06 \
	nEnergyDiff          2 \
	alphaTstart          1 \
	alphaTmin            1e-10 \
	updateTestStepSize   yes \
	alphaTreduceFactor   0.1 \
	alphaTincreaseFactor 3 \
	nAlphaAdjustMax      3 \
	wolfeEnergy          0.0001 \
	wolfeGradient        0.9 \
	fdTest               no
kpoint   0.000000000000   0.000000000000   0.000000000000  1.00000000000000
kpoint-folding 12 12 1 
latt-move-scale 1 1 1
latt-scale 2 2 1 
lattice  \
	   4.727486978767153   -2.363743489383575    0.000000000000000  \
	  -0.000000000000000    4.094123819672498    0.000000000000000  \
	   0.000000000000000    0.000000000000000   40.000000000000000 
lattice-minimize  \
	dirUpdateScheme      L-BFGS \
	linminMethod         DirUpdateRecommended \
	nIterations          0 \
	history              15 \
	knormThreshold       0 \
	energyDiffThreshold  1e-06 \
	nEnergyDiff          2 \
	alphaTstart          1 \
	alphaTmin            1e-10 \
	updateTestStepSize   yes \
	alphaTreduceFactor   0.1 \
	alphaTincreaseFactor 3 \
	nAlphaAdjustMax      3 \
	wolfeEnergy          0.0001 \
	wolfeGradient        0.9 \
	fdTest               no
lcao-params -1 1e-06 1e-05
pcm-variant GLSSA13
spintype z-spin
subspace-rotation-factor 1 yes
symmetries automatic
symmetry-threshold 0.0001



---------- Setting up symmetries ----------

Found 24 point-group symmetries of the bravais lattice
Found 24 space-group symmetries with basis
Applied RMS atom displacement 0 bohrs to make symmetries exact.

---------- Initializing the Grid ----------
R = 
[      9.45497     -4.72749            0  ]
[            0      8.18825            0  ]
[            0            0           40  ]
unit cell volume = 3096.79
G =
[   0.664538   0.383671         -0  ]
[          0   0.767342         -0  ]
[         -0         -0    0.15708  ]
Minimum fftbox size, Smin = [  40  40  164  ]
Chosen fftbox size, S = [  40  40  168  ]

---------- Exchange Correlation functional ----------
Initalized PBE GGA exchange.
Initalized PBE GGA correlation.

---------- Setting up pseudopotentials ----------
Width of ionic core gaussian charges (only for fluid interactions / plotting) set to 0

Reading pseudopotential file '/home/gridsan/aligho/DFT/build-Nov24/pseudopotentials/SG15/Rb_ONCV_PBE.upf':
  'Rb' pseudopotential, 'PBE' functional
  Generated using ONCVPSP code by D. R. Hamann
  Author: Martin Schlipf and Francois Gygi  Date: 150915.
  9 valence electrons, 3 orbitals, 6 projectors, 2308 radial grid points, with lMax = 2
  Transforming local potential to a uniform radial grid of dG=0.02 with 1489 points.
  Transforming nonlocal projectors to a uniform radial grid of dG=0.02 with 432 points.
    4S    l: 0   occupation:  2.0   eigenvalue: -1.172069
    4P    l: 1   occupation:  6.0   eigenvalue: -0.586674
    5S    l: 0   occupation:  1.0   eigenvalue: -0.082006
  Transforming atomic orbitals to a uniform radial grid of dG=0.02 with 432 points.
  Core radius for overlap checks: 2.60 bohrs.
  Reading pulay file /home/gridsan/aligho/DFT/build-Nov24/pseudopotentials/SG15/Rb_ONCV_PBE.pulay ... using dE_dnG = -1.360715e-05 computed for Ecut = 20.

Initialized 1 species with 1 total atoms.

Folded 1 k-points by 12x12x1 to 144 k-points.

---------- Setting up k-points, bands, fillings ----------
Reduced to 19 k-points under symmetry. 
Computing the number of bands and number of electrons
Calculating initial fillings.
nElectrons:   9.000000   nBands: 6   nStates: 38

----- Setting up reduced wavefunction bases (one per k-point) -----
average nbasis = 13230.521 , ideal nbasis = 13229.709

---------- Setting up coulomb interaction ----------
Initialized slab truncation along lattice direction 001

---------- Setting up 2D ewald sum ----------
Optimum gaussian width for ewald sums = 5.249020 bohr.
Real space sums over 289 unit cells with max indices [  8  8  0  ]
Reciprocal space sums over 81 terms with max indices [  4  4  0  ]

---------- Allocating electronic variables ----------
Initializing wave functions:  linear combination of atomic orbitals
Note: number of bands (6) exceeds available atomic orbitals (5)
Rb pseudo-atom occupations:   s ( 2 1 )  p ( 6 )
	FillingsUpdate:  mu: -0.085884769  nElectrons: 9.000000  magneticMoment: [ Abs: 0.98000  Tot: +0.98000 ]
LCAOMinimize: Iter:   0  F: -24.4282610594061396  |grad|_K:  2.449e-06  alpha:  1.000e+00
	FillingsUpdate:  mu: -0.085883871  nElectrons: 9.000000  magneticMoment: [ Abs: 0.98000  Tot: +0.98000 ]
LCAOMinimize: Iter:   1  F: -24.4282610634439692  |grad|_K:  2.254e-08  alpha:  9.843e-01  linmin: -1.704e-03  cgtest:  3.668e-02  t[s]:      4.51
LCAOMinimize: Encountered beta<0, resetting CG.
[d-16-6-2:46024] 18 more processes have sent help message help-mpi-common-cuda.txt / dlopen failed
[d-16-6-2:46024] Set MCA parameter "orte_base_help_aggregate" to 0 to see all help / error messages
[d-16-6-2:46024] 18 more processes have sent help message help-mpi-btl-openib-cpc-base.txt / no cpcs for port
	FillingsUpdate:  mu: -0.085883879  nElectrons: 9.000000  magneticMoment: [ Abs: 0.98000  Tot: +0.98000 ]
LCAOMinimize: Iter:   2  F: -24.4282610634441006  |grad|_K:  2.337e-09  alpha:  8.940e-01  linmin: -3.969e-02  cgtest:  9.970e-01  t[s]:      5.69
LCAOMinimize: Encountered beta<0, resetting CG.
LCAOMinimize: Converged (|Delta F|<1.000000e-06 for 2 iters).


---- Citations for features of the code used in this run ----

   Software package:
      R. Sundararaman, K. Letchworth-Weaver, K.A. Schwarz, D. Gunceler, Y. Ozhabes and T.A. Arias, 'JDFTx: software for joint density-functional theory', SoftwareX 6, 278 (2017)

   gga-PBE exchange-correlation functional:
      J.P. Perdew, K. Burke and M. Ernzerhof, Phys. Rev. Lett. 77, 3865 (1996)

   Pseudopotentials:
      M Schlipf and F Gygi, Comput. Phys. Commun. 196, 36 (2015)

   Truncated Coulomb potentials:
      R. Sundararaman and T.A. Arias, Phys. Rev. B 87, 165122 (2013)

This list may not be complete. Please suggest additional citations or
report any other bugs at https://github.com/shankar1729/jdftx/issues

Initialization completed successfully at t[s]:      5.77


-------- Electronic minimization -----------
Will mix electronic density at each iteration.
	FillingsUpdate:  mu: -0.085883879  nElectrons: 9.000000  magneticMoment: [ Abs: 0.98000  Tot: +0.98000 ]
	FillingsUpdate:  mu: -0.103199610  nElectrons: 9.000000  magneticMoment: [ Abs: 0.98000  Tot: +0.98000 ]
SCF: Cycle:  0   F: -24.439963283843653   dF: -1.170e-02   |Residual|: 1.839e-02   |deigs|: 1.787e-01  t[s]:      8.15
	FillingsUpdate:  mu: -0.106344480  nElectrons: 9.000000  magneticMoment: [ Abs: 0.98000  Tot: +0.98000 ]
SCF: Cycle:  1   F: -24.440703477473171   dF: -7.402e-04   |Residual|: 1.299e-02   |deigs|: 7.714e-03  t[s]:      9.94
	FillingsUpdate:  mu: -0.105756024  nElectrons: 9.000000  magneticMoment: [ Abs: 0.98371  Tot: +0.98000 ]
SCF: Cycle:  2   F: -24.440963177976293   dF: -2.597e-04   |Residual|: 7.951e-03   |deigs|: 3.012e-03  t[s]:     11.74
	FillingsUpdate:  mu: -0.105266059  nElectrons: 9.000000  magneticMoment: [ Abs: 0.98004  Tot: +0.98000 ]
SCF: Cycle:  3   F: -24.441103221962614   dF: -1.400e-04   |Residual|: 4.456e-03   |deigs|: 1.915e-03  t[s]:     13.55
	FillingsUpdate:  mu: -0.104868447  nElectrons: 9.000000  magneticMoment: [ Abs: 0.98017  Tot: +0.98000 ]
SCF: Cycle:  4   F: -24.441303142454956   dF: -1.999e-04   |Residual|: 2.653e-03   |deigs|: 2.510e-03  t[s]:     15.41
	FillingsUpdate:  mu: -0.105603237  nElectrons: 9.000000  magneticMoment: [ Abs: 0.98001  Tot: +0.98000 ]
SCF: Cycle:  5   F: -24.441224002067596   dF: +7.914e-05   |Residual|: 3.120e-03   |deigs|: 1.797e-03  t[s]:     17.28
	FillingsUpdate:  mu: -0.103567936  nElectrons: 9.000000  magneticMoment: [ Abs: 0.98249  Tot: +0.98000 ]
SCF: Cycle:  6   F: -24.441244245036767   dF: -2.024e-05   |Residual|: 2.566e-03   |deigs|: 1.960e-03  t[s]:     19.19
	FillingsUpdate:  mu: -0.102540272  nElectrons: 9.000000  magneticMoment: [ Abs: 0.98360  Tot: +0.98000 ]
SCF: Cycle:  7   F: -24.441255629068849   dF: -1.138e-05   |Residual|: 2.426e-03   |deigs|: 1.433e-03  t[s]:     21.15
	FillingsUpdate:  mu: -0.100216740  nElectrons: 9.000000  magneticMoment: [ Abs: 0.98315  Tot: +0.98000 ]
SCF: Cycle:  8   F: -24.441267663148615   dF: -1.203e-05   |Residual|: 1.480e-03   |deigs|: 2.698e-03  t[s]:     23.13
	FillingsUpdate:  mu: -0.099185575  nElectrons: 9.000000  magneticMoment: [ Abs: 0.98016  Tot: +0.98000 ]
SCF: Cycle:  9   F: -24.441390503274430   dF: -1.228e-04   |Residual|: 1.465e-03   |deigs|: 2.096e-03  t[s]:     25.08
	FillingsUpdate:  mu: -0.098893165  nElectrons: 9.000000  magneticMoment: [ Abs: 0.98005  Tot: +0.98000 ]
SCF: Cycle: 10   F: -24.441395763844607   dF: -5.261e-06   |Residual|: 9.912e-04   |deigs|: 9.847e-04  t[s]:     27.09
	FillingsUpdate:  mu: -0.099269315  nElectrons: 9.000000  magneticMoment: [ Abs: 0.98164  Tot: +0.98000 ]
SCF: Cycle: 11   F: -24.441406958869699   dF: -1.120e-05   |Residual|: 6.714e-04   |deigs|: 4.989e-04  t[s]:     29.05
	FillingsUpdate:  mu: -0.099795549  nElectrons: 9.000000  magneticMoment: [ Abs: 0.98075  Tot: +0.98000 ]
SCF: Cycle: 12   F: -24.441413830526514   dF: -6.872e-06   |Residual|: 5.061e-04   |deigs|: 6.427e-04  t[s]:     31.05
	FillingsUpdate:  mu: -0.100433378  nElectrons: 9.000000  magneticMoment: [ Abs: 0.98203  Tot: +0.98000 ]
SCF: Cycle: 13   F: -24.441412736002430   dF: +1.095e-06   |Residual|: 7.895e-04   |deigs|: 7.203e-04  t[s]:     33.01
	FillingsUpdate:  mu: -0.100512176  nElectrons: 9.000000  magneticMoment: [ Abs: 0.98250  Tot: +0.98000 ]
SCF: Cycle: 14   F: -24.441414899285050   dF: -2.163e-06   |Residual|: 9.813e-04   |deigs|: 5.095e-04  t[s]:     35.09
	FillingsUpdate:  mu: -0.099665659  nElectrons: 9.000000  magneticMoment: [ Abs: 0.98256  Tot: +0.98000 ]
SCF: Cycle: 15   F: -24.441418255238169   dF: -3.356e-06   |Residual|: 7.889e-04   |deigs|: 9.520e-04  t[s]:     37.06
	FillingsUpdate:  mu: -0.098677395  nElectrons: 9.000000  magneticMoment: [ Abs: 0.98344  Tot: +0.98000 ]
SCF: Cycle: 16   F: -24.441421664567322   dF: -3.409e-06   |Residual|: 5.158e-04   |deigs|: 1.226e-03  t[s]:     39.03
	FillingsUpdate:  mu: -0.097583945  nElectrons: 9.000000  magneticMoment: [ Abs: 0.98312  Tot: +0.98000 ]
SCF: Cycle: 17   F: -24.441423352654667   dF: -1.688e-06   |Residual|: 3.550e-04   |deigs|: 1.134e-03  t[s]:     41.00
	FillingsUpdate:  mu: -0.095955190  nElectrons: 9.000000  magneticMoment: [ Abs: 0.98114  Tot: +0.98000 ]
SCF: Cycle: 18   F: -24.441424866346978   dF: -1.514e-06   |Residual|: 1.605e-04   |deigs|: 1.649e-03  t[s]:     43.00
	FillingsUpdate:  mu: -0.095322997  nElectrons: 9.000000  magneticMoment: [ Abs: 0.98090  Tot: +0.98000 ]
SCF: Cycle: 19   F: -24.441425326021999   dF: -4.597e-07   |Residual|: 9.298e-05   |deigs|: 5.824e-04  t[s]:     44.96
	FillingsUpdate:  mu: -0.095183910  nElectrons: 9.000000  magneticMoment: [ Abs: 0.98084  Tot: +0.98000 ]
SCF: Cycle: 20   F: -24.441425553125718   dF: -2.271e-07   |Residual|: 6.282e-05   |deigs|: 2.129e-04  t[s]:     46.96
	FillingsUpdate:  mu: -0.095180706  nElectrons: 9.000000  magneticMoment: [ Abs: 0.98069  Tot: +0.98000 ]
SCF: Cycle: 21   F: -24.441425749046232   dF: -1.959e-07   |Residual|: 4.644e-05   |deigs|: 8.951e-05  t[s]:     49.12
	FillingsUpdate:  mu: -0.095284390  nElectrons: 9.000000  magneticMoment: [ Abs: 0.98049  Tot: +0.98000 ]
SCF: Cycle: 22   F: -24.441425957477826   dF: -2.084e-07   |Residual|: 3.213e-05   |deigs|: 1.342e-04  t[s]:     51.24
	FillingsUpdate:  mu: -0.095331988  nElectrons: 9.000000  magneticMoment: [ Abs: 0.98037  Tot: +0.98000 ]
SCF: Cycle: 23   F: -24.441425998546116   dF: -4.107e-08   |Residual|: 2.320e-05   |deigs|: 7.083e-05  t[s]:     53.22
	FillingsUpdate:  mu: -0.095381729  nElectrons: 9.000000  magneticMoment: [ Abs: 0.98024  Tot: +0.98000 ]
SCF: Cycle: 24   F: -24.441426019957923   dF: -2.141e-08   |Residual|: 1.863e-05   |deigs|: 5.996e-05  t[s]:     55.26
	FillingsUpdate:  mu: -0.095416961  nElectrons: 9.000000  magneticMoment: [ Abs: 0.98018  Tot: +0.98000 ]
SCF: Cycle: 25   F: -24.441426029853012   dF: -9.895e-09   |Residual|: 1.567e-05   |deigs|: 6.117e-05  t[s]:     57.25
	FillingsUpdate:  mu: -0.095409641  nElectrons: 9.000000  magneticMoment: [ Abs: 0.98010  Tot: +0.98000 ]
SCF: Cycle: 26   F: -24.441426038540559   dF: -8.688e-09   |Residual|: 1.245e-05   |deigs|: 3.523e-05  t[s]:     59.20
SCF: Converged (|Delta E|<1.000000e-08 for 2 iters).


# Ionic positions in lattice coordinates:
ion Rb   0.000000000000000   0.000000000000000   0.000000000000000 0

# Forces in Lattice coordinates:
force Rb   0.000000000000000   0.000000000000000   0.000000000000000 0

# Energy components:
   Eewald =      -18.0480261003326561
       EH =        1.6296610182989668
     Eloc =      -10.5409568527465662
      Enl =       -0.8016583950181145
   Epulay =        0.0000000035676145
      Exc =       -3.6832063843032468
       KE =        7.0027609122355337
-------------------------------------
     Etot =      -24.4414257982984715
       TS =        0.0000002402420859
-------------------------------------
        F =      -24.4414260385405591

IonicMinimize: Iter:   0  F: -24.441426038540559  |grad|_K:  0.000e+00  t[s]:     59.32
IonicMinimize: Converged (|grad|_K<1.000000e-04).

#--- Lowdin population analysis ---
# oxidation-state Rb +0.195
# magnetic-moments Rb +0.786

End date and time: Sun Feb  6 13:00:53 2022  (Duration: 0-0:00:59.34)
Done!
scale=3
magnetization=0.98
--------------------------------------------------------------------------
The library attempted to open the following supporting CUDA libraries,
but each of them failed.  CUDA-aware support is disabled.
libcuda.so.1: cannot open shared object file: No such file or directory
libcuda.dylib: cannot open shared object file: No such file or directory
/usr/lib64/libcuda.so.1: cannot open shared object file: No such file or directory
/usr/lib64/libcuda.dylib: cannot open shared object file: No such file or directory
If you are not interested in CUDA-aware support, then run with
--mca opal_warn_on_missing_libcuda 0 to suppress this message.  If you are interested
in CUDA-aware support, then try setting LD_LIBRARY_PATH to the location
of libcuda.so.1 to get passed this issue.
--------------------------------------------------------------------------
--------------------------------------------------------------------------
No OpenFabrics connection schemes reported that they were able to be
used on a specific port.  As such, the openib BTL (OpenFabrics
support) will be disabled for this port.

  Local host:           d-16-6-2
  Local device:         mlx5_1
  Local port:           1
  CPCs attempted:       rdmacm, udcm
--------------------------------------------------------------------------

*************** JDFTx 1.6.0 (git hash 42ebbcc2) ***************

Start date and time: Sun Feb  6 13:00:54 2022
Executable jdftx with command-line: -i Alkali.in
Running on hosts (process indices):  d-16-6-2 (0-18)
Divided in process groups (process indices):  0 (0)  1 (1)  2 (2)  3 (3)  4 (4)  5 (5)  6 (6)  7 (7)  8 (8)  9 (9)  10 (10)  11 (11)  12 (12)  13 (13)  14 (14)  15 (15)  16 (16)  17 (17)  18 (18)
Resource initialization completed at t[s]:      0.00
Run totals: 19 processes, 48 threads, 0 GPUs


Input parsed successfully to the following command list (including defaults):

basis kpoint-dependent
coords-type Lattice
core-overlap-check vector
coulomb-interaction Slab 001
davidson-band-ratio 1.1
dump End None
dump-name $INPUT.$VAR
elec-cutoff 20
elec-eigen-algo Davidson
elec-ex-corr gga-PBE
elec-initial-magnetization 0.980000 yes
elec-smearing Fermi 1e-05
electronic-minimize  \
	dirUpdateScheme      FletcherReeves \
	linminMethod         DirUpdateRecommended \
	nIterations          100 \
	history              15 \
	knormThreshold       0 \
	energyDiffThreshold  1e-08 \
	nEnergyDiff          2 \
	alphaTstart          1 \
	alphaTmin            1e-10 \
	updateTestStepSize   yes \
	alphaTreduceFactor   0.1 \
	alphaTincreaseFactor 3 \
	nAlphaAdjustMax      3 \
	wolfeEnergy          0.0001 \
	wolfeGradient        0.9 \
	fdTest               no
electronic-scf  \
	nIterations	10000 \
	energyDiffThreshold	1e-08 \
	residualThreshold	1e-07 \
	mixFraction	0.5 \
	qMetric	0.8 \
	history	10 \
	nEigSteps	2 \
	eigDiffThreshold	1e-08 \
	mixedVariable	Density \
	qKerker	0.8 \
	qKappa	-1 \
	verbose	no \
	mixFractionMag	1.5
exchange-regularization WignerSeitzTruncated
fluid None
fluid-ex-corr (null) lda-PZ
fluid-gummel-loop 10 1.000000e-05
fluid-minimize  \
	dirUpdateScheme      PolakRibiere \
	linminMethod         DirUpdateRecommended \
	nIterations          100 \
	history              15 \
	knormThreshold       0 \
	energyDiffThreshold  0 \
	nEnergyDiff          2 \
	alphaTstart          1 \
	alphaTmin            1e-10 \
	updateTestStepSize   yes \
	alphaTreduceFactor   0.1 \
	alphaTincreaseFactor 3 \
	nAlphaAdjustMax      3 \
	wolfeEnergy          0.0001 \
	wolfeGradient        0.9 \
	fdTest               no
fluid-solvent H2O 55.338 ScalarEOS \
	epsBulk 78.4 \
	pMol 0.92466 \
	epsInf 1.77 \
	Pvap 1.06736e-10 \
	sigmaBulk 4.62e-05 \
	Rvdw 2.61727 \
	Res 1.42 \
	tauNuc 343133 \
	poleEl 15 7 1
forces-output-coords Positions
ion Rb   0.000000000000000   0.000000000000000   0.000000000000000 0
ion-species SG15/$ID_ONCV_PBE.upf
ion-width 0
ionic-minimize  \
	dirUpdateScheme      L-BFGS \
	linminMethod         DirUpdateRecommended \
	nIterations          0 \
	history              15 \
	knormThreshold       0.0001 \
	energyDiffThreshold  1e-06 \
	nEnergyDiff          2 \
	alphaTstart          1 \
	alphaTmin            1e-10 \
	updateTestStepSize   yes \
	alphaTreduceFactor   0.1 \
	alphaTincreaseFactor 3 \
	nAlphaAdjustMax      3 \
	wolfeEnergy          0.0001 \
	wolfeGradient        0.9 \
	fdTest               no
kpoint   0.000000000000   0.000000000000   0.000000000000  1.00000000000000
kpoint-folding 12 12 1 
latt-move-scale 1 1 1
latt-scale 3 3 1 
lattice  \
	   4.727486978767153   -2.363743489383575    0.000000000000000  \
	  -0.000000000000000    4.094123819672498    0.000000000000000  \
	   0.000000000000000    0.000000000000000   40.000000000000000 
lattice-minimize  \
	dirUpdateScheme      L-BFGS \
	linminMethod         DirUpdateRecommended \
	nIterations          0 \
	history              15 \
	knormThreshold       0 \
	energyDiffThreshold  1e-06 \
	nEnergyDiff          2 \
	alphaTstart          1 \
	alphaTmin            1e-10 \
	updateTestStepSize   yes \
	alphaTreduceFactor   0.1 \
	alphaTincreaseFactor 3 \
	nAlphaAdjustMax      3 \
	wolfeEnergy          0.0001 \
	wolfeGradient        0.9 \
	fdTest               no
lcao-params -1 1e-06 1e-05
pcm-variant GLSSA13
spintype z-spin
subspace-rotation-factor 1 yes
symmetries automatic
symmetry-threshold 0.0001



---------- Setting up symmetries ----------

Found 24 point-group symmetries of the bravais lattice
Found 24 space-group symmetries with basis
Applied RMS atom displacement 0 bohrs to make symmetries exact.

---------- Initializing the Grid ----------
R = 
[      14.1825     -7.09123            0  ]
[            0      12.2824            0  ]
[            0            0           40  ]
unit cell volume = 6967.77
G =
[   0.443025   0.255781         -0  ]
[          0   0.511561         -0  ]
[         -0         -0    0.15708  ]
Minimum fftbox size, Smin = [  60  60  164  ]
Chosen fftbox size, S = [  60  60  168  ]

---------- Exchange Correlation functional ----------
Initalized PBE GGA exchange.
Initalized PBE GGA correlation.

---------- Setting up pseudopotentials ----------
Width of ionic core gaussian charges (only for fluid interactions / plotting) set to 0

Reading pseudopotential file '/home/gridsan/aligho/DFT/build-Nov24/pseudopotentials/SG15/Rb_ONCV_PBE.upf':
  'Rb' pseudopotential, 'PBE' functional
  Generated using ONCVPSP code by D. R. Hamann
  Author: Martin Schlipf and Francois Gygi  Date: 150915.
  9 valence electrons, 3 orbitals, 6 projectors, 2308 radial grid points, with lMax = 2
  Transforming local potential to a uniform radial grid of dG=0.02 with 1489 points.
  Transforming nonlocal projectors to a uniform radial grid of dG=0.02 with 432 points.
    4S    l: 0   occupation:  2.0   eigenvalue: -1.172069
    4P    l: 1   occupation:  6.0   eigenvalue: -0.586674
    5S    l: 0   occupation:  1.0   eigenvalue: -0.082006
  Transforming atomic orbitals to a uniform radial grid of dG=0.02 with 432 points.
  Core radius for overlap checks: 2.60 bohrs.
  Reading pulay file /home/gridsan/aligho/DFT/build-Nov24/pseudopotentials/SG15/Rb_ONCV_PBE.pulay ... using dE_dnG = -1.360715e-05 computed for Ecut = 20.

Initialized 1 species with 1 total atoms.

Folded 1 k-points by 12x12x1 to 144 k-points.

---------- Setting up k-points, bands, fillings ----------
Reduced to 19 k-points under symmetry. 
Computing the number of bands and number of electrons
Calculating initial fillings.
nElectrons:   9.000000   nBands: 6   nStates: 38

----- Setting up reduced wavefunction bases (one per k-point) -----
average nbasis = 29766.104 , ideal nbasis = 29766.845

---------- Setting up coulomb interaction ----------
Initialized slab truncation along lattice direction 001

---------- Setting up 2D ewald sum ----------
Optimum gaussian width for ewald sums = 7.873530 bohr.
Real space sums over 289 unit cells with max indices [  8  8  0  ]
Reciprocal space sums over 81 terms with max indices [  4  4  0  ]

---------- Allocating electronic variables ----------
Initializing wave functions:  linear combination of atomic orbitals
Note: number of bands (6) exceeds available atomic orbitals (5)
Rb pseudo-atom occupations:   s ( 2 1 )  p ( 6 )
[d-16-6-2:10271] 18 more processes have sent help message help-mpi-common-cuda.txt / dlopen failed
[d-16-6-2:10271] Set MCA parameter "orte_base_help_aggregate" to 0 to see all help / error messages
[d-16-6-2:10271] 18 more processes have sent help message help-mpi-btl-openib-cpc-base.txt / no cpcs for port
	FillingsUpdate:  mu: -0.081766491  nElectrons: 9.000000  magneticMoment: [ Abs: 0.98000  Tot: +0.98000 ]
LCAOMinimize: Iter:   0  F: -24.4340444673599286  |grad|_K:  1.196e-06  alpha:  1.000e+00
	FillingsUpdate:  mu: -0.081766392  nElectrons: 9.000000  magneticMoment: [ Abs: 0.98000  Tot: +0.98000 ]
LCAOMinimize: Iter:   1  F: -24.4340444683366371  |grad|_K:  5.701e-09  alpha:  9.988e-01  linmin:  1.089e-03  cgtest: -2.106e-02  t[s]:      8.73
LCAOMinimize: 	Wrong curvature in test step, increasing alphaT to 2.996305e+00.
	FillingsUpdate:  mu: -0.081766394  nElectrons: 9.000000  magneticMoment: [ Abs: 0.98000  Tot: +0.98000 ]
LCAOMinimize: Iter:   2  F: -24.4340444683367615  |grad|_K:  1.288e-10  alpha: -2.712e-01  linmin:  1.923e-02  cgtest: -3.367e-01  t[s]:     11.03
LCAOMinimize: Converged (|Delta F|<1.000000e-06 for 2 iters).


---- Citations for features of the code used in this run ----

   Software package:
      R. Sundararaman, K. Letchworth-Weaver, K.A. Schwarz, D. Gunceler, Y. Ozhabes and T.A. Arias, 'JDFTx: software for joint density-functional theory', SoftwareX 6, 278 (2017)

   gga-PBE exchange-correlation functional:
      J.P. Perdew, K. Burke and M. Ernzerhof, Phys. Rev. Lett. 77, 3865 (1996)

   Pseudopotentials:
      M Schlipf and F Gygi, Comput. Phys. Commun. 196, 36 (2015)

   Truncated Coulomb potentials:
      R. Sundararaman and T.A. Arias, Phys. Rev. B 87, 165122 (2013)

This list may not be complete. Please suggest additional citations or
report any other bugs at https://github.com/shankar1729/jdftx/issues

Initialization completed successfully at t[s]:     11.19


-------- Electronic minimization -----------
Will mix electronic density at each iteration.
	FillingsUpdate:  mu: -0.081766394  nElectrons: 9.000000  magneticMoment: [ Abs: 0.98000  Tot: +0.98000 ]
	FillingsUpdate:  mu: -0.082394302  nElectrons: 9.000000  magneticMoment: [ Abs: 0.98000  Tot: +0.98000 ]
SCF: Cycle:  0   F: -24.435194489915968   dF: -1.150e-03   |Residual|: 3.423e-03   |deigs|: 1.723e-01  t[s]:     15.81
	FillingsUpdate:  mu: -0.081350095  nElectrons: 9.000000  magneticMoment: [ Abs: 0.98348  Tot: +0.98000 ]
SCF: Cycle:  1   F: -24.435241713724064   dF: -4.722e-05   |Residual|: 2.138e-03   |deigs|: 4.732e-03  t[s]:     19.48
	FillingsUpdate:  mu: -0.081539537  nElectrons: 9.000000  magneticMoment: [ Abs: 0.98492  Tot: +0.98000 ]
SCF: Cycle:  2   F: -24.435274244254728   dF: -3.253e-05   |Residual|: 1.744e-03   |deigs|: 2.486e-03  t[s]:     23.21
	FillingsUpdate:  mu: -0.081878081  nElectrons: 9.000000  magneticMoment: [ Abs: 0.98621  Tot: +0.98000 ]
SCF: Cycle:  3   F: -24.435303552065076   dF: -2.931e-05   |Residual|: 1.378e-03   |deigs|: 1.978e-03  t[s]:     26.99
	FillingsUpdate:  mu: -0.082336908  nElectrons: 9.000000  magneticMoment: [ Abs: 0.98488  Tot: +0.98000 ]
SCF: Cycle:  4   F: -24.435326013661303   dF: -2.246e-05   |Residual|: 9.703e-04   |deigs|: 1.900e-03  t[s]:     30.85
	FillingsUpdate:  mu: -0.082539114  nElectrons: 9.000000  magneticMoment: [ Abs: 0.98525  Tot: +0.98000 ]
SCF: Cycle:  5   F: -24.435335516479682   dF: -9.503e-06   |Residual|: 5.062e-04   |deigs|: 9.068e-04  t[s]:     34.77
	FillingsUpdate:  mu: -0.082550404  nElectrons: 9.000000  magneticMoment: [ Abs: 0.98498  Tot: +0.98000 ]
SCF: Cycle:  6   F: -24.435339512216288   dF: -3.996e-06   |Residual|: 3.556e-04   |deigs|: 1.331e-03  t[s]:     38.80
	FillingsUpdate:  mu: -0.082535228  nElectrons: 9.000000  magneticMoment: [ Abs: 0.98522  Tot: +0.98000 ]
SCF: Cycle:  7   F: -24.435341818088592   dF: -2.306e-06   |Residual|: 2.902e-04   |deigs|: 9.595e-04  t[s]:     42.83
	FillingsUpdate:  mu: -0.082230546  nElectrons: 9.000000  magneticMoment: [ Abs: 0.98526  Tot: +0.98000 ]
SCF: Cycle:  8   F: -24.435342826162099   dF: -1.008e-06   |Residual|: 2.279e-04   |deigs|: 4.586e-04  t[s]:     46.92
	FillingsUpdate:  mu: -0.081934025  nElectrons: 9.000000  magneticMoment: [ Abs: 0.98543  Tot: +0.98000 ]
SCF: Cycle:  9   F: -24.435343445288488   dF: -6.191e-07   |Residual|: 2.051e-04   |deigs|: 4.300e-04  t[s]:     51.10
	FillingsUpdate:  mu: -0.081873825  nElectrons: 9.000000  magneticMoment: [ Abs: 0.98520  Tot: +0.98000 ]
SCF: Cycle: 10   F: -24.435343468122817   dF: -2.283e-08   |Residual|: 1.704e-04   |deigs|: 3.440e-04  t[s]:     55.37
	FillingsUpdate:  mu: -0.081919668  nElectrons: 9.000000  magneticMoment: [ Abs: 0.98597  Tot: +0.98000 ]
SCF: Cycle: 11   F: -24.435343051664006   dF: +4.165e-07   |Residual|: 1.478e-04   |deigs|: 2.460e-04  t[s]:     59.59
	FillingsUpdate:  mu: -0.082133989  nElectrons: 9.000000  magneticMoment: [ Abs: 0.98543  Tot: +0.98000 ]
SCF: Cycle: 12   F: -24.435344224296614   dF: -1.173e-06   |Residual|: 1.087e-04   |deigs|: 3.457e-04  t[s]:     63.81
	FillingsUpdate:  mu: -0.082109488  nElectrons: 9.000000  magneticMoment: [ Abs: 0.98587  Tot: +0.98000 ]
SCF: Cycle: 13   F: -24.435345210825687   dF: -9.865e-07   |Residual|: 1.131e-04   |deigs|: 3.063e-04  t[s]:     67.96
	FillingsUpdate:  mu: -0.081997646  nElectrons: 9.000000  magneticMoment: [ Abs: 0.98609  Tot: +0.98000 ]
SCF: Cycle: 14   F: -24.435345280895007   dF: -7.007e-08   |Residual|: 1.123e-04   |deigs|: 1.742e-04  t[s]:     72.17
	FillingsUpdate:  mu: -0.081729830  nElectrons: 9.000000  magneticMoment: [ Abs: 0.98606  Tot: +0.98000 ]
SCF: Cycle: 15   F: -24.435345225820171   dF: +5.507e-08   |Residual|: 9.739e-05   |deigs|: 2.392e-04  t[s]:     76.40
	FillingsUpdate:  mu: -0.081463140  nElectrons: 9.000000  magneticMoment: [ Abs: 0.98569  Tot: +0.98000 ]
SCF: Cycle: 16   F: -24.435345616217813   dF: -3.904e-07   |Residual|: 7.760e-05   |deigs|: 2.542e-04  t[s]:     80.61
	FillingsUpdate:  mu: -0.081367276  nElectrons: 9.000000  magneticMoment: [ Abs: 0.98546  Tot: +0.98000 ]
SCF: Cycle: 17   F: -24.435345854842328   dF: -2.386e-07   |Residual|: 6.119e-05   |deigs|: 1.995e-04  t[s]:     84.77
	FillingsUpdate:  mu: -0.081291996  nElectrons: 9.000000  magneticMoment: [ Abs: 0.98538  Tot: +0.98000 ]
SCF: Cycle: 18   F: -24.435346042389096   dF: -1.875e-07   |Residual|: 4.318e-05   |deigs|: 1.324e-04  t[s]:     88.95
	FillingsUpdate:  mu: -0.081340214  nElectrons: 9.000000  magneticMoment: [ Abs: 0.98524  Tot: +0.98000 ]
SCF: Cycle: 19   F: -24.435346096228511   dF: -5.384e-08   |Residual|: 3.614e-05   |deigs|: 4.243e-05  t[s]:     93.00
	FillingsUpdate:  mu: -0.081363027  nElectrons: 9.000000  magneticMoment: [ Abs: 0.98516  Tot: +0.98000 ]
SCF: Cycle: 20   F: -24.435346123910886   dF: -2.768e-08   |Residual|: 2.806e-05   |deigs|: 2.626e-05  t[s]:     97.17
	FillingsUpdate:  mu: -0.081395981  nElectrons: 9.000000  magneticMoment: [ Abs: 0.98522  Tot: +0.98000 ]
SCF: Cycle: 21   F: -24.435346154171125   dF: -3.026e-08   |Residual|: 2.052e-05   |deigs|: 2.855e-05  t[s]:    101.34
	FillingsUpdate:  mu: -0.081402631  nElectrons: 9.000000  magneticMoment: [ Abs: 0.98523  Tot: +0.98000 ]
SCF: Cycle: 22   F: -24.435346194200523   dF: -4.003e-08   |Residual|: 1.231e-05   |deigs|: 2.824e-05  t[s]:    105.57
	FillingsUpdate:  mu: -0.081415416  nElectrons: 9.000000  magneticMoment: [ Abs: 0.98519  Tot: +0.98000 ]
SCF: Cycle: 23   F: -24.435346197269048   dF: -3.069e-09   |Residual|: 8.091e-06   |deigs|: 2.400e-05  t[s]:    109.71
	FillingsUpdate:  mu: -0.081427802  nElectrons: 9.000000  magneticMoment: [ Abs: 0.98513  Tot: +0.98000 ]
SCF: Cycle: 24   F: -24.435346193790089   dF: +3.479e-09   |Residual|: 5.913e-06   |deigs|: 2.298e-05  t[s]:    113.93
	FillingsUpdate:  mu: -0.081438695  nElectrons: 9.000000  magneticMoment: [ Abs: 0.98510  Tot: +0.98000 ]
SCF: Cycle: 25   F: -24.435346202932418   dF: -9.142e-09   |Residual|: 4.649e-06   |deigs|: 4.301e-05  t[s]:    118.21
	FillingsUpdate:  mu: -0.081452453  nElectrons: 9.000000  magneticMoment: [ Abs: 0.98508  Tot: +0.98000 ]
SCF: Cycle: 26   F: -24.435346204750189   dF: -1.818e-09   |Residual|: 3.804e-06   |deigs|: 3.253e-05  t[s]:    122.43
SCF: Converged (|Delta E|<1.000000e-08 for 2 iters).


# Ionic positions in lattice coordinates:
ion Rb   0.000000000000000   0.000000000000000   0.000000000000000 0

# Forces in Lattice coordinates:
force Rb  -0.000000000000000  -0.000000000000000   0.000000000000000 0

# Energy components:
   Eewald =      -12.0320174002217755
       EH =        7.5406815883496270
     Eloc =      -22.4570263232022533
      Enl =       -0.7944608072706555
   Epulay =       -0.0000000014467880
      Exc =       -3.6551913670063629
       KE =        6.9626682976431216
-------------------------------------
     Etot =      -24.4353460131550904
       TS =        0.0000001915950980
-------------------------------------
        F =      -24.4353462047501893

IonicMinimize: Iter:   0  F: -24.435346204750189  |grad|_K:  0.000e+00  t[s]:    122.68
IonicMinimize: Converged (|grad|_K<1.000000e-04).

#--- Lowdin population analysis ---
# oxidation-state Rb +0.027
# magnetic-moments Rb +0.953

End date and time: Sun Feb  6 13:02:57 2022  (Duration: 0-0:02:02.74)
Done!
scale=4
magnetization=0.98
--------------------------------------------------------------------------
The library attempted to open the following supporting CUDA libraries,
but each of them failed.  CUDA-aware support is disabled.
libcuda.so.1: cannot open shared object file: No such file or directory
libcuda.dylib: cannot open shared object file: No such file or directory
/usr/lib64/libcuda.so.1: cannot open shared object file: No such file or directory
/usr/lib64/libcuda.dylib: cannot open shared object file: No such file or directory
If you are not interested in CUDA-aware support, then run with
--mca opal_warn_on_missing_libcuda 0 to suppress this message.  If you are interested
in CUDA-aware support, then try setting LD_LIBRARY_PATH to the location
of libcuda.so.1 to get passed this issue.
--------------------------------------------------------------------------
--------------------------------------------------------------------------
No OpenFabrics connection schemes reported that they were able to be
used on a specific port.  As such, the openib BTL (OpenFabrics
support) will be disabled for this port.

  Local host:           d-16-6-2
  Local device:         mlx5_1
  Local port:           1
  CPCs attempted:       rdmacm, udcm
--------------------------------------------------------------------------

*************** JDFTx 1.6.0 (git hash 42ebbcc2) ***************

Start date and time: Sun Feb  6 13:02:58 2022
Executable jdftx with command-line: -i Alkali.in
Running on hosts (process indices):  d-16-6-2 (0-18)
Divided in process groups (process indices):  0 (0)  1 (1)  2 (2)  3 (3)  4 (4)  5 (5)  6 (6)  7 (7)  8 (8)  9 (9)  10 (10)  11 (11)  12 (12)  13 (13)  14 (14)  15 (15)  16 (16)  17 (17)  18 (18)
Resource initialization completed at t[s]:      0.00
Run totals: 19 processes, 48 threads, 0 GPUs


Input parsed successfully to the following command list (including defaults):

basis kpoint-dependent
coords-type Lattice
core-overlap-check vector
coulomb-interaction Slab 001
davidson-band-ratio 1.1
dump End None
dump-name $INPUT.$VAR
elec-cutoff 20
elec-eigen-algo Davidson
elec-ex-corr gga-PBE
elec-initial-magnetization 0.980000 yes
elec-smearing Fermi 1e-05
electronic-minimize  \
	dirUpdateScheme      FletcherReeves \
	linminMethod         DirUpdateRecommended \
	nIterations          100 \
	history              15 \
	knormThreshold       0 \
	energyDiffThreshold  1e-08 \
	nEnergyDiff          2 \
	alphaTstart          1 \
	alphaTmin            1e-10 \
	updateTestStepSize   yes \
	alphaTreduceFactor   0.1 \
	alphaTincreaseFactor 3 \
	nAlphaAdjustMax      3 \
	wolfeEnergy          0.0001 \
	wolfeGradient        0.9 \
	fdTest               no
electronic-scf  \
	nIterations	10000 \
	energyDiffThreshold	1e-08 \
	residualThreshold	1e-07 \
	mixFraction	0.5 \
	qMetric	0.8 \
	history	10 \
	nEigSteps	2 \
	eigDiffThreshold	1e-08 \
	mixedVariable	Density \
	qKerker	0.8 \
	qKappa	-1 \
	verbose	no \
	mixFractionMag	1.5
exchange-regularization WignerSeitzTruncated
fluid None
fluid-ex-corr (null) lda-PZ
fluid-gummel-loop 10 1.000000e-05
fluid-minimize  \
	dirUpdateScheme      PolakRibiere \
	linminMethod         DirUpdateRecommended \
	nIterations          100 \
	history              15 \
	knormThreshold       0 \
	energyDiffThreshold  0 \
	nEnergyDiff          2 \
	alphaTstart          1 \
	alphaTmin            1e-10 \
	updateTestStepSize   yes \
	alphaTreduceFactor   0.1 \
	alphaTincreaseFactor 3 \
	nAlphaAdjustMax      3 \
	wolfeEnergy          0.0001 \
	wolfeGradient        0.9 \
	fdTest               no
fluid-solvent H2O 55.338 ScalarEOS \
	epsBulk 78.4 \
	pMol 0.92466 \
	epsInf 1.77 \
	Pvap 1.06736e-10 \
	sigmaBulk 4.62e-05 \
	Rvdw 2.61727 \
	Res 1.42 \
	tauNuc 343133 \
	poleEl 15 7 1
forces-output-coords Positions
ion Rb   0.000000000000000   0.000000000000000   0.000000000000000 0
ion-species SG15/$ID_ONCV_PBE.upf
ion-width 0
ionic-minimize  \
	dirUpdateScheme      L-BFGS \
	linminMethod         DirUpdateRecommended \
	nIterations          0 \
	history              15 \
	knormThreshold       0.0001 \
	energyDiffThreshold  1e-06 \
	nEnergyDiff          2 \
	alphaTstart          1 \
	alphaTmin            1e-10 \
	updateTestStepSize   yes \
	alphaTreduceFactor   0.1 \
	alphaTincreaseFactor 3 \
	nAlphaAdjustMax      3 \
	wolfeEnergy          0.0001 \
	wolfeGradient        0.9 \
	fdTest               no
kpoint   0.000000000000   0.000000000000   0.000000000000  1.00000000000000
kpoint-folding 12 12 1 
latt-move-scale 1 1 1
latt-scale 4 4 1 
lattice  \
	   4.727486978767153   -2.363743489383575    0.000000000000000  \
	  -0.000000000000000    4.094123819672498    0.000000000000000  \
	   0.000000000000000    0.000000000000000   40.000000000000000 
lattice-minimize  \
	dirUpdateScheme      L-BFGS \
	linminMethod         DirUpdateRecommended \
	nIterations          0 \
	history              15 \
	knormThreshold       0 \
	energyDiffThreshold  1e-06 \
	nEnergyDiff          2 \
	alphaTstart          1 \
	alphaTmin            1e-10 \
	updateTestStepSize   yes \
	alphaTreduceFactor   0.1 \
	alphaTincreaseFactor 3 \
	nAlphaAdjustMax      3 \
	wolfeEnergy          0.0001 \
	wolfeGradient        0.9 \
	fdTest               no
lcao-params -1 1e-06 1e-05
pcm-variant GLSSA13
spintype z-spin
subspace-rotation-factor 1 yes
symmetries automatic
symmetry-threshold 0.0001



---------- Setting up symmetries ----------

Found 24 point-group symmetries of the bravais lattice
Found 24 space-group symmetries with basis
Applied RMS atom displacement 0 bohrs to make symmetries exact.

---------- Initializing the Grid ----------
R = 
[      18.9099     -9.45497            0  ]
[            0      16.3765            0  ]
[            0            0           40  ]
unit cell volume = 12387.1
G =
[   0.332269   0.191835         -0  ]
[          0   0.383671         -0  ]
[         -0         -0    0.15708  ]
Minimum fftbox size, Smin = [  80  80  164  ]
Chosen fftbox size, S = [  80  80  168  ]

---------- Exchange Correlation functional ----------
Initalized PBE GGA exchange.
Initalized PBE GGA correlation.

---------- Setting up pseudopotentials ----------
Width of ionic core gaussian charges (only for fluid interactions / plotting) set to 0

Reading pseudopotential file '/home/gridsan/aligho/DFT/build-Nov24/pseudopotentials/SG15/Rb_ONCV_PBE.upf':
  'Rb' pseudopotential, 'PBE' functional
  Generated using ONCVPSP code by D. R. Hamann
  Author: Martin Schlipf and Francois Gygi  Date: 150915.
  9 valence electrons, 3 orbitals, 6 projectors, 2308 radial grid points, with lMax = 2
  Transforming local potential to a uniform radial grid of dG=0.02 with 1489 points.
  Transforming nonlocal projectors to a uniform radial grid of dG=0.02 with 432 points.
    4S    l: 0   occupation:  2.0   eigenvalue: -1.172069
    4P    l: 1   occupation:  6.0   eigenvalue: -0.586674
    5S    l: 0   occupation:  1.0   eigenvalue: -0.082006
  Transforming atomic orbitals to a uniform radial grid of dG=0.02 with 432 points.
  Core radius for overlap checks: 2.60 bohrs.
  Reading pulay file /home/gridsan/aligho/DFT/build-Nov24/pseudopotentials/SG15/Rb_ONCV_PBE.pulay ... using dE_dnG = -1.360715e-05 computed for Ecut = 20.

Initialized 1 species with 1 total atoms.

Folded 1 k-points by 12x12x1 to 144 k-points.

---------- Setting up k-points, bands, fillings ----------
Reduced to 19 k-points under symmetry. 
Computing the number of bands and number of electrons
Calculating initial fillings.
nElectrons:   9.000000   nBands: 6   nStates: 38

----- Setting up reduced wavefunction bases (one per k-point) -----
average nbasis = 52924.021 , ideal nbasis = 52918.836

---------- Setting up coulomb interaction ----------
Initialized slab truncation along lattice direction 001

---------- Setting up 2D ewald sum ----------
Optimum gaussian width for ewald sums = 10.498040 bohr.
Real space sums over 289 unit cells with max indices [  8  8  0  ]
Reciprocal space sums over 81 terms with max indices [  4  4  0  ]

---------- Allocating electronic variables ----------
Initializing wave functions:  linear combination of atomic orbitals
Note: number of bands (6) exceeds available atomic orbitals (5)
Rb pseudo-atom occupations:   s ( 2 1 )  p ( 6 )
[d-16-6-2:04734] 18 more processes have sent help message help-mpi-common-cuda.txt / dlopen failed
[d-16-6-2:04734] Set MCA parameter "orte_base_help_aggregate" to 0 to see all help / error messages
[d-16-6-2:04734] 18 more processes have sent help message help-mpi-btl-openib-cpc-base.txt / no cpcs for port
	FillingsUpdate:  mu: -0.078200341  nElectrons: 9.000000  magneticMoment: [ Abs: 0.98000  Tot: +0.98000 ]
LCAOMinimize: Iter:   0  F: -24.4338971293822880  |grad|_K:  1.464e-07  alpha:  1.000e+00
	FillingsUpdate:  mu: -0.078200323  nElectrons: 9.000000  magneticMoment: [ Abs: 0.98000  Tot: +0.98000 ]
LCAOMinimize: Iter:   1  F: -24.4338971293970495  |grad|_K:  1.887e-09  alpha:  1.012e+00  linmin:  9.524e-03  cgtest: -9.814e-01  t[s]:     14.75
LCAOMinimize: 	Wrong curvature in test step, increasing alphaT to 3.036489e+00.
	FillingsUpdate:  mu: -0.078200323  nElectrons: 9.000000  magneticMoment: [ Abs: 0.98000  Tot: +0.98000 ]
LCAOMinimize: Iter:   2  F: -24.4338971293971490  |grad|_K:  1.876e-09  alpha: -5.895e-04  linmin:  1.847e-03  cgtest:  9.809e-01  t[s]:     18.63
LCAOMinimize: Converged (|Delta F|<1.000000e-06 for 2 iters).


---- Citations for features of the code used in this run ----

   Software package:
      R. Sundararaman, K. Letchworth-Weaver, K.A. Schwarz, D. Gunceler, Y. Ozhabes and T.A. Arias, 'JDFTx: software for joint density-functional theory', SoftwareX 6, 278 (2017)

   gga-PBE exchange-correlation functional:
      J.P. Perdew, K. Burke and M. Ernzerhof, Phys. Rev. Lett. 77, 3865 (1996)

   Pseudopotentials:
      M Schlipf and F Gygi, Comput. Phys. Commun. 196, 36 (2015)

   Truncated Coulomb potentials:
      R. Sundararaman and T.A. Arias, Phys. Rev. B 87, 165122 (2013)

This list may not be complete. Please suggest additional citations or
report any other bugs at https://github.com/shankar1729/jdftx/issues

Initialization completed successfully at t[s]:     18.88


-------- Electronic minimization -----------
Will mix electronic density at each iteration.
	FillingsUpdate:  mu: -0.078200323  nElectrons: 9.000000  magneticMoment: [ Abs: 0.98000  Tot: +0.98000 ]
	FillingsUpdate:  mu: -0.078541295  nElectrons: 9.000000  magneticMoment: [ Abs: 0.98000  Tot: +0.98000 ]
SCF: Cycle:  0   F: -24.434053192711282   dF: -1.561e-04   |Residual|: 2.380e-03   |deigs|: 1.622e-01  t[s]:     26.89
	FillingsUpdate:  mu: -0.078880823  nElectrons: 9.000000  magneticMoment: [ Abs: 0.98641  Tot: +0.98000 ]
SCF: Cycle:  1   F: -24.434056382852990   dF: -3.190e-06   |Residual|: 6.258e-04   |deigs|: 1.363e-02  t[s]:     33.22
	FillingsUpdate:  mu: -0.078713084  nElectrons: 9.000000  magneticMoment: [ Abs: 0.98604  Tot: +0.98000 ]
SCF: Cycle:  2   F: -24.434057179596696   dF: -7.967e-07   |Residual|: 4.370e-04   |deigs|: 3.840e-03  t[s]:     39.58
	FillingsUpdate:  mu: -0.078456439  nElectrons: 9.000000  magneticMoment: [ Abs: 0.98691  Tot: +0.98000 ]
SCF: Cycle:  3   F: -24.434057609812999   dF: -4.302e-07   |Residual|: 3.431e-04   |deigs|: 1.502e-03  t[s]:     46.12
	FillingsUpdate:  mu: -0.076892974  nElectrons: 9.000000  magneticMoment: [ Abs: 0.98669  Tot: +0.98000 ]
SCF: Cycle:  4   F: -24.434055791500018   dF: +1.818e-06   |Residual|: 1.934e-04   |deigs|: 1.329e-03  t[s]:     52.78
	FillingsUpdate:  mu: -0.076722966  nElectrons: 9.000000  magneticMoment: [ Abs: 0.98646  Tot: +0.98000 ]
SCF: Cycle:  5   F: -24.434056785355327   dF: -9.939e-07   |Residual|: 1.408e-04   |deigs|: 3.446e-04  t[s]:     59.51
	FillingsUpdate:  mu: -0.077079278  nElectrons: 9.000000  magneticMoment: [ Abs: 0.98647  Tot: +0.98000 ]
SCF: Cycle:  6   F: -24.434057696537174   dF: -9.112e-07   |Residual|: 9.955e-05   |deigs|: 2.883e-04  t[s]:     66.37
	FillingsUpdate:  mu: -0.077204943  nElectrons: 9.000000  magneticMoment: [ Abs: 0.98660  Tot: +0.98000 ]
SCF: Cycle:  7   F: -24.434058244834080   dF: -5.483e-07   |Residual|: 7.376e-05   |deigs|: 1.908e-04  t[s]:     73.44
	FillingsUpdate:  mu: -0.077251381  nElectrons: 9.000000  magneticMoment: [ Abs: 0.98648  Tot: +0.98000 ]
SCF: Cycle:  8   F: -24.434058343842182   dF: -9.901e-08   |Residual|: 5.725e-05   |deigs|: 1.558e-04  t[s]:     80.44
	FillingsUpdate:  mu: -0.077307037  nElectrons: 9.000000  magneticMoment: [ Abs: 0.98654  Tot: +0.98000 ]
SCF: Cycle:  9   F: -24.434058211775714   dF: +1.321e-07   |Residual|: 4.353e-05   |deigs|: 2.369e-04  t[s]:     87.60
	FillingsUpdate:  mu: -0.077360055  nElectrons: 9.000000  magneticMoment: [ Abs: 0.98657  Tot: +0.98000 ]
SCF: Cycle: 10   F: -24.434058212370928   dF: -5.952e-10   |Residual|: 4.193e-05   |deigs|: 1.291e-04  t[s]:     94.86
	FillingsUpdate:  mu: -0.077419596  nElectrons: 9.000000  magneticMoment: [ Abs: 0.98661  Tot: +0.98000 ]
SCF: Cycle: 11   F: -24.434058259390927   dF: -4.702e-08   |Residual|: 3.809e-05   |deigs|: 1.704e-04  t[s]:    102.18
	FillingsUpdate:  mu: -0.077457027  nElectrons: 9.000000  magneticMoment: [ Abs: 0.98674  Tot: +0.98000 ]
SCF: Cycle: 12   F: -24.434058509113555   dF: -2.497e-07   |Residual|: 3.011e-05   |deigs|: 3.047e-04  t[s]:    109.42
	FillingsUpdate:  mu: -0.077409325  nElectrons: 9.000000  magneticMoment: [ Abs: 0.98663  Tot: +0.98000 ]
SCF: Cycle: 13   F: -24.434058535439785   dF: -2.633e-08   |Residual|: 2.670e-05   |deigs|: 6.841e-05  t[s]:    116.55
	FillingsUpdate:  mu: -0.077368628  nElectrons: 9.000000  magneticMoment: [ Abs: 0.98665  Tot: +0.98000 ]
SCF: Cycle: 14   F: -24.434058527912125   dF: +7.528e-09   |Residual|: 2.342e-05   |deigs|: 7.749e-05  t[s]:    123.86
	FillingsUpdate:  mu: -0.077272907  nElectrons: 9.000000  magneticMoment: [ Abs: 0.98666  Tot: +0.98000 ]
SCF: Cycle: 15   F: -24.434058518318420   dF: +9.594e-09   |Residual|: 2.228e-05   |deigs|: 7.983e-05  t[s]:    131.19
	FillingsUpdate:  mu: -0.077221480  nElectrons: 9.000000  magneticMoment: [ Abs: 0.98666  Tot: +0.98000 ]
SCF: Cycle: 16   F: -24.434058555515641   dF: -3.720e-08   |Residual|: 2.139e-05   |deigs|: 6.646e-05  t[s]:    138.51
	FillingsUpdate:  mu: -0.077327201  nElectrons: 9.000000  magneticMoment: [ Abs: 0.98669  Tot: +0.98000 ]
SCF: Cycle: 17   F: -24.434058597410299   dF: -4.189e-08   |Residual|: 1.600e-05   |deigs|: 1.494e-04  t[s]:    145.71
	FillingsUpdate:  mu: -0.077359607  nElectrons: 9.000000  magneticMoment: [ Abs: 0.98666  Tot: +0.98000 ]
SCF: Cycle: 18   F: -24.434058632571073   dF: -3.516e-08   |Residual|: 1.106e-05   |deigs|: 7.603e-05  t[s]:    152.92
	FillingsUpdate:  mu: -0.077360628  nElectrons: 9.000000  magneticMoment: [ Abs: 0.98660  Tot: +0.98000 ]
SCF: Cycle: 19   F: -24.434058635133344   dF: -2.562e-09   |Residual|: 8.518e-06   |deigs|: 2.869e-05  t[s]:    160.03
	FillingsUpdate:  mu: -0.077358484  nElectrons: 9.000000  magneticMoment: [ Abs: 0.98658  Tot: +0.98000 ]
SCF: Cycle: 20   F: -24.434058628494746   dF: +6.639e-09   |Residual|: 6.701e-06   |deigs|: 2.081e-05  t[s]:    167.33
	FillingsUpdate:  mu: -0.077357293  nElectrons: 9.000000  magneticMoment: [ Abs: 0.98653  Tot: +0.98000 ]
SCF: Cycle: 21   F: -24.434058650255690   dF: -2.176e-08   |Residual|: 5.217e-06   |deigs|: 2.318e-05  t[s]:    174.67
	FillingsUpdate:  mu: -0.077362162  nElectrons: 9.000000  magneticMoment: [ Abs: 0.98652  Tot: +0.98000 ]
SCF: Cycle: 22   F: -24.434058649402644   dF: +8.530e-10   |Residual|: 3.409e-06   |deigs|: 1.357e-05  t[s]:    181.68
	FillingsUpdate:  mu: -0.077358580  nElectrons: 9.000000  magneticMoment: [ Abs: 0.98651  Tot: +0.98000 ]
SCF: Cycle: 23   F: -24.434058658230533   dF: -8.828e-09   |Residual|: 2.022e-06   |deigs|: 9.666e-06  t[s]:    189.00
	FillingsUpdate:  mu: -0.077361069  nElectrons: 9.000000  magneticMoment: [ Abs: 0.98651  Tot: +0.98000 ]
SCF: Cycle: 24   F: -24.434058658653473   dF: -4.229e-10   |Residual|: 1.435e-06   |deigs|: 5.482e-06  t[s]:    196.02
SCF: Converged (|Delta E|<1.000000e-08 for 2 iters).


# Ionic positions in lattice coordinates:
ion Rb   0.000000000000000   0.000000000000000   0.000000000000000 0

# Forces in Lattice coordinates:
force Rb   0.000000000000000  -0.000000000000000   0.000000000000000 0

# Energy components:
   Eewald =       -9.0240130501663280
       EH =       10.5588074614594127
     Eloc =      -28.4858033308146616
      Enl =       -0.7917983570479977
   Epulay =        0.0000000056959385
      Exc =       -3.6563139549264916
       KE =        6.9650627587425804
-------------------------------------
     Etot =      -24.4340584670575502
       TS =        0.0000001915959230
-------------------------------------
        F =      -24.4340586586534734

IonicMinimize: Iter:   0  F: -24.434058658653473  |grad|_K:  0.000e+00  t[s]:    196.43
IonicMinimize: Converged (|grad|_K<1.000000e-04).

#--- Lowdin population analysis ---
# oxidation-state Rb +0.001
# magnetic-moments Rb +0.979

End date and time: Sun Feb  6 13:06:14 2022  (Duration: 0-0:03:16.49)
Done!
