The alkali metal is Rb
scale=2
magnetization=-0.94
--------------------------------------------------------------------------
The library attempted to open the following supporting CUDA libraries,
but each of them failed.  CUDA-aware support is disabled.
libcuda.so.1: cannot open shared object file: No such file or directory
libcuda.dylib: cannot open shared object file: No such file or directory
/usr/lib64/libcuda.so.1: cannot open shared object file: No such file or directory
/usr/lib64/libcuda.dylib: cannot open shared object file: No such file or directory
If you are not interested in CUDA-aware support, then run with
--mca opal_warn_on_missing_libcuda 0 to suppress this message.  If you are interested
in CUDA-aware support, then try setting LD_LIBRARY_PATH to the location
of libcuda.so.1 to get passed this issue.
--------------------------------------------------------------------------
--------------------------------------------------------------------------
No OpenFabrics connection schemes reported that they were able to be
used on a specific port.  As such, the openib BTL (OpenFabrics
support) will be disabled for this port.

  Local host:           d-4-6-3
  Local device:         mlx5_1
  Local port:           1
  CPCs attempted:       rdmacm, udcm
--------------------------------------------------------------------------
[d-4-6-3:51043] [[13883,0],0] ORTE_ERROR_LOG: Out of resource in file util/show_help.c at line 507

*************** JDFTx 1.6.0 (git hash 42ebbcc2) ***************

Start date and time: Sun Feb  6 12:34:52 2022
Executable jdftx with command-line: -i Alkali.in
Running on hosts (process indices):  d-4-6-3 (0-18)
Divided in process groups (process indices):  0 (0)  1 (1)  2 (2)  3 (3)  4 (4)  5 (5)  6 (6)  7 (7)  8 (8)  9 (9)  10 (10)  11 (11)  12 (12)  13 (13)  14 (14)  15 (15)  16 (16)  17 (17)  18 (18)
Resource initialization completed at t[s]:      0.00
Run totals: 19 processes, 48 threads, 0 GPUs


Input parsed successfully to the following command list (including defaults):

basis kpoint-dependent
coords-type Lattice
core-overlap-check vector
coulomb-interaction Slab 001
davidson-band-ratio 1.1
dump End None
dump-name $INPUT.$VAR
elec-cutoff 20
elec-eigen-algo Davidson
elec-ex-corr gga-PBE
elec-initial-magnetization -0.940000 yes
elec-smearing Fermi 1e-05
electronic-minimize  \
	dirUpdateScheme      FletcherReeves \
	linminMethod         DirUpdateRecommended \
	nIterations          100 \
	history              15 \
	knormThreshold       0 \
	energyDiffThreshold  1e-08 \
	nEnergyDiff          2 \
	alphaTstart          1 \
	alphaTmin            1e-10 \
	updateTestStepSize   yes \
	alphaTreduceFactor   0.1 \
	alphaTincreaseFactor 3 \
	nAlphaAdjustMax      3 \
	wolfeEnergy          0.0001 \
	wolfeGradient        0.9 \
	fdTest               no
electronic-scf  \
	nIterations	10000 \
	energyDiffThreshold	1e-08 \
	residualThreshold	1e-07 \
	mixFraction	0.5 \
	qMetric	0.8 \
	history	10 \
	nEigSteps	2 \
	eigDiffThreshold	1e-08 \
	mixedVariable	Density \
	qKerker	0.8 \
	qKappa	-1 \
	verbose	no \
	mixFractionMag	1.5
exchange-regularization WignerSeitzTruncated
fluid None
fluid-ex-corr (null) lda-PZ
fluid-gummel-loop 10 1.000000e-05
fluid-minimize  \
	dirUpdateScheme      PolakRibiere \
	linminMethod         DirUpdateRecommended \
	nIterations          100 \
	history              15 \
	knormThreshold       0 \
	energyDiffThreshold  0 \
	nEnergyDiff          2 \
	alphaTstart          1 \
	alphaTmin            1e-10 \
	updateTestStepSize   yes \
	alphaTreduceFactor   0.1 \
	alphaTincreaseFactor 3 \
	nAlphaAdjustMax      3 \
	wolfeEnergy          0.0001 \
	wolfeGradient        0.9 \
	fdTest               no
fluid-solvent H2O 55.338 ScalarEOS \
	epsBulk 78.4 \
	pMol 0.92466 \
	epsInf 1.77 \
	Pvap 1.06736e-10 \
	sigmaBulk 4.62e-05 \
	Rvdw 2.61727 \
	Res 1.42 \
	tauNuc 343133 \
	poleEl 15 7 1
forces-output-coords Positions
ion Rb   0.000000000000000   0.000000000000000   0.000000000000000 0
ion-species SG15/$ID_ONCV_PBE.upf
ion-width 0
ionic-minimize  \
	dirUpdateScheme      L-BFGS \
	linminMethod         DirUpdateRecommended \
	nIterations          0 \
	history              15 \
	knormThreshold       0.0001 \
	energyDiffThreshold  1e-06 \
	nEnergyDiff          2 \
	alphaTstart          1 \
	alphaTmin            1e-10 \
	updateTestStepSize   yes \
	alphaTreduceFactor   0.1 \
	alphaTincreaseFactor 3 \
	nAlphaAdjustMax      3 \
	wolfeEnergy          0.0001 \
	wolfeGradient        0.9 \
	fdTest               no
kpoint   0.000000000000   0.000000000000   0.000000000000  1.00000000000000
kpoint-folding 12 12 1 
latt-move-scale 1 1 1
latt-scale 2 2 1 
lattice  \
	   4.727486978767153   -2.363743489383575    0.000000000000000  \
	  -0.000000000000000    4.094123819672498    0.000000000000000  \
	   0.000000000000000    0.000000000000000   40.000000000000000 
lattice-minimize  \
	dirUpdateScheme      L-BFGS \
	linminMethod         DirUpdateRecommended \
	nIterations          0 \
	history              15 \
	knormThreshold       0 \
	energyDiffThreshold  1e-06 \
	nEnergyDiff          2 \
	alphaTstart          1 \
	alphaTmin            1e-10 \
	updateTestStepSize   yes \
	alphaTreduceFactor   0.1 \
	alphaTincreaseFactor 3 \
	nAlphaAdjustMax      3 \
	wolfeEnergy          0.0001 \
	wolfeGradient        0.9 \
	fdTest               no
lcao-params -1 1e-06 1e-05
pcm-variant GLSSA13
spintype z-spin
subspace-rotation-factor 1 yes
symmetries automatic
symmetry-threshold 0.0001



---------- Setting up symmetries ----------

Found 24 point-group symmetries of the bravais lattice
Found 24 space-group symmetries with basis
Applied RMS atom displacement 0 bohrs to make symmetries exact.

---------- Initializing the Grid ----------
R = 
[      9.45497     -4.72749            0  ]
[            0      8.18825            0  ]
[            0            0           40  ]
unit cell volume = 3096.79
G =
[   0.664538   0.383671         -0  ]
[          0   0.767342         -0  ]
[         -0         -0    0.15708  ]
Minimum fftbox size, Smin = [  40  40  164  ]
Chosen fftbox size, S = [  40  40  168  ]

---------- Exchange Correlation functional ----------
Initalized PBE GGA exchange.
Initalized PBE GGA correlation.

---------- Setting up pseudopotentials ----------
Width of ionic core gaussian charges (only for fluid interactions / plotting) set to 0

Reading pseudopotential file '/home/gridsan/aligho/DFT/build-Nov24/pseudopotentials/SG15/Rb_ONCV_PBE.upf':
  'Rb' pseudopotential, 'PBE' functional
  Generated using ONCVPSP code by D. R. Hamann
  Author: Martin Schlipf and Francois Gygi  Date: 150915.
  9 valence electrons, 3 orbitals, 6 projectors, 2308 radial grid points, with lMax = 2
  Transforming local potential to a uniform radial grid of dG=0.02 with 1489 points.
  Transforming nonlocal projectors to a uniform radial grid of dG=0.02 with 432 points.
    4S    l: 0   occupation:  2.0   eigenvalue: -1.172069
    4P    l: 1   occupation:  6.0   eigenvalue: -0.586674
    5S    l: 0   occupation:  1.0   eigenvalue: -0.082006
  Transforming atomic orbitals to a uniform radial grid of dG=0.02 with 432 points.
  Core radius for overlap checks: 2.60 bohrs.
  Reading pulay file /home/gridsan/aligho/DFT/build-Nov24/pseudopotentials/SG15/Rb_ONCV_PBE.pulay ... using dE_dnG = -1.360715e-05 computed for Ecut = 20.

Initialized 1 species with 1 total atoms.

Folded 1 k-points by 12x12x1 to 144 k-points.

---------- Setting up k-points, bands, fillings ----------
Reduced to 19 k-points under symmetry. 
Computing the number of bands and number of electrons
Calculating initial fillings.
nElectrons:   9.000000   nBands: 6   nStates: 38

----- Setting up reduced wavefunction bases (one per k-point) -----
average nbasis = 13230.521 , ideal nbasis = 13229.709

---------- Setting up coulomb interaction ----------
Initialized slab truncation along lattice direction 001

---------- Setting up 2D ewald sum ----------
Optimum gaussian width for ewald sums = 5.249020 bohr.
Real space sums over 289 unit cells with max indices [  8  8  0  ]
Reciprocal space sums over 81 terms with max indices [  4  4  0  ]

---------- Allocating electronic variables ----------
Initializing wave functions:  linear combination of atomic orbitals
Note: number of bands (6) exceeds available atomic orbitals (5)
Rb pseudo-atom occupations:   s ( 2 1 )  p ( 6 )
	FillingsUpdate:  mu: -0.092975666  nElectrons: 9.000000  magneticMoment: [ Abs: 0.94000  Tot: -0.94000 ]
LCAOMinimize: Iter:   0  F: -24.4300799807011302  |grad|_K:  6.236e-06  alpha:  1.000e+00
	FillingsUpdate:  mu: -0.092974011  nElectrons: 9.000000  magneticMoment: [ Abs: 0.94000  Tot: -0.94000 ]
LCAOMinimize: Iter:   1  F: -24.4300800068661985  |grad|_K:  6.061e-08  alpha:  9.837e-01  linmin: -6.396e-03  cgtest:  1.242e-01  t[s]:      4.57
LCAOMinimize: Encountered beta<0, resetting CG.
[d-4-6-3:51043] 18 more processes have sent help message help-mpi-common-cuda.txt / dlopen failed
[d-4-6-3:51043] Set MCA parameter "orte_base_help_aggregate" to 0 to see all help / error messages
[d-4-6-3:51043] 17 more processes have sent help message help-mpi-btl-openib-cpc-base.txt / no cpcs for port
	FillingsUpdate:  mu: -0.092974033  nElectrons: 9.000000  magneticMoment: [ Abs: 0.94000  Tot: -0.94000 ]
LCAOMinimize: Iter:   2  F: -24.4300800068683373  |grad|_K:  4.941e-09  alpha:  9.161e-01  linmin: -5.777e-02  cgtest:  9.956e-01  t[s]:      5.81
LCAOMinimize: Encountered beta<0, resetting CG.
LCAOMinimize: Converged (|Delta F|<1.000000e-06 for 2 iters).


---- Citations for features of the code used in this run ----

   Software package:
      R. Sundararaman, K. Letchworth-Weaver, K.A. Schwarz, D. Gunceler, Y. Ozhabes and T.A. Arias, 'JDFTx: software for joint density-functional theory', SoftwareX 6, 278 (2017)

   gga-PBE exchange-correlation functional:
      J.P. Perdew, K. Burke and M. Ernzerhof, Phys. Rev. Lett. 77, 3865 (1996)

   Pseudopotentials:
      M Schlipf and F Gygi, Comput. Phys. Commun. 196, 36 (2015)

   Truncated Coulomb potentials:
      R. Sundararaman and T.A. Arias, Phys. Rev. B 87, 165122 (2013)

This list may not be complete. Please suggest additional citations or
report any other bugs at https://github.com/shankar1729/jdftx/issues

Initialization completed successfully at t[s]:      5.90


-------- Electronic minimization -----------
Will mix electronic density at each iteration.
	FillingsUpdate:  mu: -0.092974033  nElectrons: 9.000000  magneticMoment: [ Abs: 0.94000  Tot: -0.94000 ]
	FillingsUpdate:  mu: -0.108596602  nElectrons: 9.000000  magneticMoment: [ Abs: 0.94000  Tot: -0.94000 ]
SCF: Cycle:  0   F: -24.441293941210898   dF: -1.121e-02   |Residual|: 1.760e-02   |deigs|: 1.777e-01  t[s]:      8.29
	FillingsUpdate:  mu: -0.107700989  nElectrons: 9.000000  magneticMoment: [ Abs: 0.94000  Tot: -0.94000 ]
SCF: Cycle:  1   F: -24.441958438345289   dF: -6.645e-04   |Residual|: 1.244e-02   |deigs|: 7.470e-03  t[s]:     10.21
	FillingsUpdate:  mu: -0.106781069  nElectrons: 9.000000  magneticMoment: [ Abs: 0.94335  Tot: -0.94000 ]
SCF: Cycle:  2   F: -24.442203067943232   dF: -2.446e-04   |Residual|: 7.553e-03   |deigs|: 3.639e-03  t[s]:     12.04
	FillingsUpdate:  mu: -0.108168851  nElectrons: 9.000000  magneticMoment: [ Abs: 0.94008  Tot: -0.94000 ]
SCF: Cycle:  3   F: -24.442404130298669   dF: -2.011e-04   |Residual|: 3.852e-03   |deigs|: 2.665e-03  t[s]:     13.92
	FillingsUpdate:  mu: -0.105688472  nElectrons: 9.000000  magneticMoment: [ Abs: 0.94009  Tot: -0.94000 ]
SCF: Cycle:  4   F: -24.442469893953898   dF: -6.576e-05   |Residual|: 2.295e-03   |deigs|: 1.991e-03  t[s]:     15.85
	FillingsUpdate:  mu: -0.103821879  nElectrons: 9.000000  magneticMoment: [ Abs: 0.94016  Tot: -0.94000 ]
SCF: Cycle:  5   F: -24.442501420826872   dF: -3.153e-05   |Residual|: 1.867e-03   |deigs|: 1.991e-03  t[s]:     17.81
	FillingsUpdate:  mu: -0.101972133  nElectrons: 9.000000  magneticMoment: [ Abs: 0.94184  Tot: -0.94000 ]
SCF: Cycle:  6   F: -24.442480695296840   dF: +2.073e-05   |Residual|: 1.750e-03   |deigs|: 2.081e-03  t[s]:     19.76
	FillingsUpdate:  mu: -0.101180343  nElectrons: 9.000000  magneticMoment: [ Abs: 0.94156  Tot: -0.94000 ]
SCF: Cycle:  7   F: -24.442459212161687   dF: +2.148e-05   |Residual|: 1.809e-03   |deigs|: 2.005e-03  t[s]:     21.73
	FillingsUpdate:  mu: -0.104303092  nElectrons: 9.000000  magneticMoment: [ Abs: 0.94415  Tot: -0.94000 ]
SCF: Cycle:  8   F: -24.442461317339195   dF: -2.105e-06   |Residual|: 3.096e-03   |deigs|: 3.909e-03  t[s]:     23.77
	FillingsUpdate:  mu: -0.100737488  nElectrons: 9.000000  magneticMoment: [ Abs: 0.94148  Tot: -0.94000 ]
SCF: Cycle:  9   F: -24.442463779611618   dF: -2.462e-06   |Residual|: 1.569e-03   |deigs|: 5.169e-03  t[s]:     25.79
	FillingsUpdate:  mu: -0.098417990  nElectrons: 9.000000  magneticMoment: [ Abs: 0.94070  Tot: -0.94000 ]
SCF: Cycle: 10   F: -24.442473498052124   dF: -9.718e-06   |Residual|: 1.067e-03   |deigs|: 2.165e-03  t[s]:     27.82
	FillingsUpdate:  mu: -0.097565462  nElectrons: 9.000000  magneticMoment: [ Abs: 0.94323  Tot: -0.94000 ]
SCF: Cycle: 11   F: -24.442585800089056   dF: -1.123e-04   |Residual|: 1.296e-03   |deigs|: 1.558e-03  t[s]:     29.89
	FillingsUpdate:  mu: -0.100692317  nElectrons: 9.000000  magneticMoment: [ Abs: 0.94442  Tot: -0.94000 ]
SCF: Cycle: 12   F: -24.442613656827721   dF: -2.786e-05   |Residual|: 7.890e-04   |deigs|: 3.407e-03  t[s]:     31.94
	FillingsUpdate:  mu: -0.101348831  nElectrons: 9.000000  magneticMoment: [ Abs: 0.94534  Tot: -0.94000 ]
SCF: Cycle: 13   F: -24.442614072158865   dF: -4.153e-07   |Residual|: 1.379e-03   |deigs|: 8.266e-04  t[s]:     33.98
	FillingsUpdate:  mu: -0.100677378  nElectrons: 9.000000  magneticMoment: [ Abs: 0.94329  Tot: -0.94000 ]
SCF: Cycle: 14   F: -24.442617785258825   dF: -3.713e-06   |Residual|: 1.202e-03   |deigs|: 8.094e-04  t[s]:     36.07
	FillingsUpdate:  mu: -0.099922766  nElectrons: 9.000000  magneticMoment: [ Abs: 0.94246  Tot: -0.94000 ]
SCF: Cycle: 15   F: -24.442621057294598   dF: -3.272e-06   |Residual|: 9.335e-04   |deigs|: 9.076e-04  t[s]:     38.08
	FillingsUpdate:  mu: -0.099189636  nElectrons: 9.000000  magneticMoment: [ Abs: 0.94264  Tot: -0.94000 ]
SCF: Cycle: 16   F: -24.442623374182073   dF: -2.317e-06   |Residual|: 7.497e-04   |deigs|: 9.337e-04  t[s]:     40.09
	FillingsUpdate:  mu: -0.098348831  nElectrons: 9.000000  magneticMoment: [ Abs: 0.94216  Tot: -0.94000 ]
SCF: Cycle: 17   F: -24.442625272894308   dF: -1.899e-06   |Residual|: 6.151e-04   |deigs|: 1.008e-03  t[s]:     42.15
	FillingsUpdate:  mu: -0.096047492  nElectrons: 9.000000  magneticMoment: [ Abs: 0.94161  Tot: -0.94000 ]
SCF: Cycle: 18   F: -24.442627895688787   dF: -2.623e-06   |Residual|: 2.604e-04   |deigs|: 2.494e-03  t[s]:     44.31
	FillingsUpdate:  mu: -0.094325326  nElectrons: 9.000000  magneticMoment: [ Abs: 0.94059  Tot: -0.94000 ]
SCF: Cycle: 19   F: -24.442629329048959   dF: -1.433e-06   |Residual|: 3.254e-04   |deigs|: 1.660e-03  t[s]:     46.35
	FillingsUpdate:  mu: -0.094446912  nElectrons: 9.000000  magneticMoment: [ Abs: 0.94093  Tot: -0.94000 ]
SCF: Cycle: 20   F: -24.442629768979739   dF: -4.399e-07   |Residual|: 2.209e-04   |deigs|: 4.437e-04  t[s]:     48.40
	FillingsUpdate:  mu: -0.094666830  nElectrons: 9.000000  magneticMoment: [ Abs: 0.94076  Tot: -0.94000 ]
SCF: Cycle: 21   F: -24.442630304906363   dF: -5.359e-07   |Residual|: 1.256e-04   |deigs|: 3.382e-04  t[s]:     50.47
	FillingsUpdate:  mu: -0.094885515  nElectrons: 9.000000  magneticMoment: [ Abs: 0.94055  Tot: -0.94000 ]
SCF: Cycle: 22   F: -24.442630689716065   dF: -3.848e-07   |Residual|: 5.284e-05   |deigs|: 2.340e-04  t[s]:     52.53
	FillingsUpdate:  mu: -0.094861746  nElectrons: 9.000000  magneticMoment: [ Abs: 0.94057  Tot: -0.94000 ]
SCF: Cycle: 23   F: -24.442630821425229   dF: -1.317e-07   |Residual|: 3.508e-05   |deigs|: 5.740e-05  t[s]:     54.57
	FillingsUpdate:  mu: -0.094889760  nElectrons: 9.000000  magneticMoment: [ Abs: 0.94056  Tot: -0.94000 ]
SCF: Cycle: 24   F: -24.442630875853578   dF: -5.443e-08   |Residual|: 2.529e-05   |deigs|: 4.852e-05  t[s]:     56.68
	FillingsUpdate:  mu: -0.094923835  nElectrons: 9.000000  magneticMoment: [ Abs: 0.94043  Tot: -0.94000 ]
SCF: Cycle: 25   F: -24.442630906017861   dF: -3.016e-08   |Residual|: 2.062e-05   |deigs|: 5.394e-05  t[s]:     58.80
	FillingsUpdate:  mu: -0.094950210  nElectrons: 9.000000  magneticMoment: [ Abs: 0.94022  Tot: -0.94000 ]
SCF: Cycle: 26   F: -24.442630928177149   dF: -2.216e-08   |Residual|: 1.934e-05   |deigs|: 4.322e-05  t[s]:     60.87
	FillingsUpdate:  mu: -0.094907450  nElectrons: 9.000000  magneticMoment: [ Abs: 0.94009  Tot: -0.94000 ]
SCF: Cycle: 27   F: -24.442630931424727   dF: -3.248e-09   |Residual|: 1.493e-05   |deigs|: 5.004e-05  t[s]:     62.98
	FillingsUpdate:  mu: -0.094900367  nElectrons: 9.000000  magneticMoment: [ Abs: 0.94008  Tot: -0.94000 ]
SCF: Cycle: 28   F: -24.442630939082019   dF: -7.657e-09   |Residual|: 1.121e-05   |deigs|: 2.067e-05  t[s]:     65.04
SCF: Converged (|Delta E|<1.000000e-08 for 2 iters).


# Ionic positions in lattice coordinates:
ion Rb   0.000000000000000   0.000000000000000   0.000000000000000 0

# Forces in Lattice coordinates:
force Rb   0.000000000000000   0.000000000000000   0.000000000000000 0

# Energy components:
   Eewald =      -18.0480261003326561
       EH =        1.6254689570123806
     Eloc =      -10.5366305055420124
      Enl =       -0.8011499011587603
   Epulay =        0.0000000035676145
      Exc =       -3.6825278834964212
       KE =        7.0002352687855147
-------------------------------------
     Etot =      -24.4426301611643382
       TS =        0.0000007779176789
-------------------------------------
        F =      -24.4426309390820187

IonicMinimize: Iter:   0  F: -24.442630939082019  |grad|_K:  0.000e+00  t[s]:     65.16
IonicMinimize: Converged (|grad|_K<1.000000e-04).

#--- Lowdin population analysis ---
# oxidation-state Rb +0.182
# magnetic-moments Rb -0.760

End date and time: Sun Feb  6 12:35:57 2022  (Duration: 0-0:01:05.19)
Done!
scale=3
magnetization=-0.94
--------------------------------------------------------------------------
The library attempted to open the following supporting CUDA libraries,
but each of them failed.  CUDA-aware support is disabled.
libcuda.so.1: cannot open shared object file: No such file or directory
libcuda.dylib: cannot open shared object file: No such file or directory
/usr/lib64/libcuda.so.1: cannot open shared object file: No such file or directory
/usr/lib64/libcuda.dylib: cannot open shared object file: No such file or directory
If you are not interested in CUDA-aware support, then run with
--mca opal_warn_on_missing_libcuda 0 to suppress this message.  If you are interested
in CUDA-aware support, then try setting LD_LIBRARY_PATH to the location
of libcuda.so.1 to get passed this issue.
--------------------------------------------------------------------------
--------------------------------------------------------------------------
No OpenFabrics connection schemes reported that they were able to be
used on a specific port.  As such, the openib BTL (OpenFabrics
support) will be disabled for this port.

  Local host:           d-4-6-3
  Local device:         mlx5_1
  Local port:           1
  CPCs attempted:       rdmacm, udcm
--------------------------------------------------------------------------

*************** JDFTx 1.6.0 (git hash 42ebbcc2) ***************

Start date and time: Sun Feb  6 12:35:58 2022
Executable jdftx with command-line: -i Alkali.in
Running on hosts (process indices):  d-4-6-3 (0-18)
Divided in process groups (process indices):  0 (0)  1 (1)  2 (2)  3 (3)  4 (4)  5 (5)  6 (6)  7 (7)  8 (8)  9 (9)  10 (10)  11 (11)  12 (12)  13 (13)  14 (14)  15 (15)  16 (16)  17 (17)  18 (18)
Resource initialization completed at t[s]:      0.00
Run totals: 19 processes, 48 threads, 0 GPUs


Input parsed successfully to the following command list (including defaults):

basis kpoint-dependent
coords-type Lattice
core-overlap-check vector
coulomb-interaction Slab 001
davidson-band-ratio 1.1
dump End None
dump-name $INPUT.$VAR
elec-cutoff 20
elec-eigen-algo Davidson
elec-ex-corr gga-PBE
elec-initial-magnetization -0.940000 yes
elec-smearing Fermi 1e-05
electronic-minimize  \
	dirUpdateScheme      FletcherReeves \
	linminMethod         DirUpdateRecommended \
	nIterations          100 \
	history              15 \
	knormThreshold       0 \
	energyDiffThreshold  1e-08 \
	nEnergyDiff          2 \
	alphaTstart          1 \
	alphaTmin            1e-10 \
	updateTestStepSize   yes \
	alphaTreduceFactor   0.1 \
	alphaTincreaseFactor 3 \
	nAlphaAdjustMax      3 \
	wolfeEnergy          0.0001 \
	wolfeGradient        0.9 \
	fdTest               no
electronic-scf  \
	nIterations	10000 \
	energyDiffThreshold	1e-08 \
	residualThreshold	1e-07 \
	mixFraction	0.5 \
	qMetric	0.8 \
	history	10 \
	nEigSteps	2 \
	eigDiffThreshold	1e-08 \
	mixedVariable	Density \
	qKerker	0.8 \
	qKappa	-1 \
	verbose	no \
	mixFractionMag	1.5
exchange-regularization WignerSeitzTruncated
fluid None
fluid-ex-corr (null) lda-PZ
fluid-gummel-loop 10 1.000000e-05
fluid-minimize  \
	dirUpdateScheme      PolakRibiere \
	linminMethod         DirUpdateRecommended \
	nIterations          100 \
	history              15 \
	knormThreshold       0 \
	energyDiffThreshold  0 \
	nEnergyDiff          2 \
	alphaTstart          1 \
	alphaTmin            1e-10 \
	updateTestStepSize   yes \
	alphaTreduceFactor   0.1 \
	alphaTincreaseFactor 3 \
	nAlphaAdjustMax      3 \
	wolfeEnergy          0.0001 \
	wolfeGradient        0.9 \
	fdTest               no
fluid-solvent H2O 55.338 ScalarEOS \
	epsBulk 78.4 \
	pMol 0.92466 \
	epsInf 1.77 \
	Pvap 1.06736e-10 \
	sigmaBulk 4.62e-05 \
	Rvdw 2.61727 \
	Res 1.42 \
	tauNuc 343133 \
	poleEl 15 7 1
forces-output-coords Positions
ion Rb   0.000000000000000   0.000000000000000   0.000000000000000 0
ion-species SG15/$ID_ONCV_PBE.upf
ion-width 0
ionic-minimize  \
	dirUpdateScheme      L-BFGS \
	linminMethod         DirUpdateRecommended \
	nIterations          0 \
	history              15 \
	knormThreshold       0.0001 \
	energyDiffThreshold  1e-06 \
	nEnergyDiff          2 \
	alphaTstart          1 \
	alphaTmin            1e-10 \
	updateTestStepSize   yes \
	alphaTreduceFactor   0.1 \
	alphaTincreaseFactor 3 \
	nAlphaAdjustMax      3 \
	wolfeEnergy          0.0001 \
	wolfeGradient        0.9 \
	fdTest               no
kpoint   0.000000000000   0.000000000000   0.000000000000  1.00000000000000
kpoint-folding 12 12 1 
latt-move-scale 1 1 1
latt-scale 3 3 1 
lattice  \
	   4.727486978767153   -2.363743489383575    0.000000000000000  \
	  -0.000000000000000    4.094123819672498    0.000000000000000  \
	   0.000000000000000    0.000000000000000   40.000000000000000 
lattice-minimize  \
	dirUpdateScheme      L-BFGS \
	linminMethod         DirUpdateRecommended \
	nIterations          0 \
	history              15 \
	knormThreshold       0 \
	energyDiffThreshold  1e-06 \
	nEnergyDiff          2 \
	alphaTstart          1 \
	alphaTmin            1e-10 \
	updateTestStepSize   yes \
	alphaTreduceFactor   0.1 \
	alphaTincreaseFactor 3 \
	nAlphaAdjustMax      3 \
	wolfeEnergy          0.0001 \
	wolfeGradient        0.9 \
	fdTest               no
lcao-params -1 1e-06 1e-05
pcm-variant GLSSA13
spintype z-spin
subspace-rotation-factor 1 yes
symmetries automatic
symmetry-threshold 0.0001



---------- Setting up symmetries ----------

Found 24 point-group symmetries of the bravais lattice
Found 24 space-group symmetries with basis
Applied RMS atom displacement 0 bohrs to make symmetries exact.

---------- Initializing the Grid ----------
R = 
[      14.1825     -7.09123            0  ]
[            0      12.2824            0  ]
[            0            0           40  ]
unit cell volume = 6967.77
G =
[   0.443025   0.255781         -0  ]
[          0   0.511561         -0  ]
[         -0         -0    0.15708  ]
Minimum fftbox size, Smin = [  60  60  164  ]
Chosen fftbox size, S = [  60  60  168  ]

---------- Exchange Correlation functional ----------
Initalized PBE GGA exchange.
Initalized PBE GGA correlation.

---------- Setting up pseudopotentials ----------
Width of ionic core gaussian charges (only for fluid interactions / plotting) set to 0

Reading pseudopotential file '/home/gridsan/aligho/DFT/build-Nov24/pseudopotentials/SG15/Rb_ONCV_PBE.upf':
  'Rb' pseudopotential, 'PBE' functional
  Generated using ONCVPSP code by D. R. Hamann
  Author: Martin Schlipf and Francois Gygi  Date: 150915.
  9 valence electrons, 3 orbitals, 6 projectors, 2308 radial grid points, with lMax = 2
  Transforming local potential to a uniform radial grid of dG=0.02 with 1489 points.
  Transforming nonlocal projectors to a uniform radial grid of dG=0.02 with 432 points.
    4S    l: 0   occupation:  2.0   eigenvalue: -1.172069
    4P    l: 1   occupation:  6.0   eigenvalue: -0.586674
    5S    l: 0   occupation:  1.0   eigenvalue: -0.082006
  Transforming atomic orbitals to a uniform radial grid of dG=0.02 with 432 points.
  Core radius for overlap checks: 2.60 bohrs.
  Reading pulay file /home/gridsan/aligho/DFT/build-Nov24/pseudopotentials/SG15/Rb_ONCV_PBE.pulay ... using dE_dnG = -1.360715e-05 computed for Ecut = 20.

Initialized 1 species with 1 total atoms.

Folded 1 k-points by 12x12x1 to 144 k-points.

---------- Setting up k-points, bands, fillings ----------
Reduced to 19 k-points under symmetry. 
Computing the number of bands and number of electrons
Calculating initial fillings.
nElectrons:   9.000000   nBands: 6   nStates: 38

----- Setting up reduced wavefunction bases (one per k-point) -----
average nbasis = 29766.104 , ideal nbasis = 29766.845

---------- Setting up coulomb interaction ----------
Initialized slab truncation along lattice direction 001

---------- Setting up 2D ewald sum ----------
Optimum gaussian width for ewald sums = 7.873530 bohr.
Real space sums over 289 unit cells with max indices [  8  8  0  ]
Reciprocal space sums over 81 terms with max indices [  4  4  0  ]

---------- Allocating electronic variables ----------
Initializing wave functions:  linear combination of atomic orbitals
Note: number of bands (6) exceeds available atomic orbitals (5)
Rb pseudo-atom occupations:   s ( 2 1 )  p ( 6 )
[d-4-6-3:42296] 18 more processes have sent help message help-mpi-common-cuda.txt / dlopen failed
[d-4-6-3:42296] Set MCA parameter "orte_base_help_aggregate" to 0 to see all help / error messages
[d-4-6-3:42296] 18 more processes have sent help message help-mpi-btl-openib-cpc-base.txt / no cpcs for port
	FillingsUpdate:  mu: -0.084481798  nElectrons: 9.000000  magneticMoment: [ Abs: 0.94000  Tot: -0.94000 ]
LCAOMinimize: Iter:   0  F: -24.4341659507270883  |grad|_K:  3.130e-06  alpha:  1.000e+00
	FillingsUpdate:  mu: -0.084481620  nElectrons: 9.000000  magneticMoment: [ Abs: 0.94000  Tot: -0.94000 ]
LCAOMinimize: Iter:   1  F: -24.4341659574124890  |grad|_K:  1.799e-08  alpha:  9.975e-01  linmin: -4.335e-04  cgtest:  6.526e-03  t[s]:      8.92
LCAOMinimize: Encountered beta<0, resetting CG.
LCAOMinimize: 	Wrong curvature in test step, increasing alphaT to 2.992382e+00.
	FillingsUpdate:  mu: -0.084481625  nElectrons: 9.000000  magneticMoment: [ Abs: 0.94000  Tot: -0.94000 ]
LCAOMinimize: Iter:   2  F: -24.4341659574129366  |grad|_K:  1.483e-10  alpha: -3.100e+01  linmin:  8.131e-02  cgtest: -7.003e-01  t[s]:     11.33
LCAOMinimize: Converged (|Delta F|<1.000000e-06 for 2 iters).


---- Citations for features of the code used in this run ----

   Software package:
      R. Sundararaman, K. Letchworth-Weaver, K.A. Schwarz, D. Gunceler, Y. Ozhabes and T.A. Arias, 'JDFTx: software for joint density-functional theory', SoftwareX 6, 278 (2017)

   gga-PBE exchange-correlation functional:
      J.P. Perdew, K. Burke and M. Ernzerhof, Phys. Rev. Lett. 77, 3865 (1996)

   Pseudopotentials:
      M Schlipf and F Gygi, Comput. Phys. Commun. 196, 36 (2015)

   Truncated Coulomb potentials:
      R. Sundararaman and T.A. Arias, Phys. Rev. B 87, 165122 (2013)

This list may not be complete. Please suggest additional citations or
report any other bugs at https://github.com/shankar1729/jdftx/issues

Initialization completed successfully at t[s]:     11.49


-------- Electronic minimization -----------
Will mix electronic density at each iteration.
	FillingsUpdate:  mu: -0.084481625  nElectrons: 9.000000  magneticMoment: [ Abs: 0.94000  Tot: -0.94000 ]
	FillingsUpdate:  mu: -0.085244750  nElectrons: 9.000000  magneticMoment: [ Abs: 0.94000  Tot: -0.94000 ]
SCF: Cycle:  0   F: -24.435375456084124   dF: -1.209e-03   |Residual|: 3.498e-03   |deigs|: 1.728e-01  t[s]:     16.30
	FillingsUpdate:  mu: -0.085349972  nElectrons: 9.000000  magneticMoment: [ Abs: 0.94289  Tot: -0.94000 ]
SCF: Cycle:  1   F: -24.435424250706955   dF: -4.879e-05   |Residual|: 2.271e-03   |deigs|: 4.743e-03  t[s]:     20.10
	FillingsUpdate:  mu: -0.084721774  nElectrons: 9.000000  magneticMoment: [ Abs: 0.94461  Tot: -0.94000 ]
SCF: Cycle:  2   F: -24.435449633523419   dF: -2.538e-05   |Residual|: 1.762e-03   |deigs|: 2.408e-03  t[s]:     23.88
	FillingsUpdate:  mu: -0.084759673  nElectrons: 9.000000  magneticMoment: [ Abs: 0.94591  Tot: -0.94000 ]
SCF: Cycle:  3   F: -24.435481278255097   dF: -3.164e-05   |Residual|: 1.347e-03   |deigs|: 2.789e-03  t[s]:     27.91
	FillingsUpdate:  mu: -0.085156347  nElectrons: 9.000000  magneticMoment: [ Abs: 0.94456  Tot: -0.94000 ]
SCF: Cycle:  4   F: -24.435507620358145   dF: -2.634e-05   |Residual|: 9.439e-04   |deigs|: 1.669e-03  t[s]:     31.85
	FillingsUpdate:  mu: -0.086250913  nElectrons: 9.000000  magneticMoment: [ Abs: 0.94488  Tot: -0.94000 ]
SCF: Cycle:  5   F: -24.435525904919135   dF: -1.828e-05   |Residual|: 5.431e-04   |deigs|: 1.741e-03  t[s]:     35.91
	FillingsUpdate:  mu: -0.086117238  nElectrons: 9.000000  magneticMoment: [ Abs: 0.94447  Tot: -0.94000 ]
SCF: Cycle:  6   F: -24.435532309165680   dF: -6.404e-06   |Residual|: 3.743e-04   |deigs|: 9.448e-04  t[s]:     39.94
	FillingsUpdate:  mu: -0.085997643  nElectrons: 9.000000  magneticMoment: [ Abs: 0.94473  Tot: -0.94000 ]
SCF: Cycle:  7   F: -24.435533912872177   dF: -1.604e-06   |Residual|: 2.919e-04   |deigs|: 2.038e-04  t[s]:     44.07
	FillingsUpdate:  mu: -0.085515665  nElectrons: 9.000000  magneticMoment: [ Abs: 0.94510  Tot: -0.94000 ]
SCF: Cycle:  8   F: -24.435536047209066   dF: -2.134e-06   |Residual|: 2.214e-04   |deigs|: 5.219e-04  t[s]:     48.22
	FillingsUpdate:  mu: -0.085208070  nElectrons: 9.000000  magneticMoment: [ Abs: 0.94532  Tot: -0.94000 ]
SCF: Cycle:  9   F: -24.435535321048825   dF: +7.262e-07   |Residual|: 2.149e-04   |deigs|: 4.118e-04  t[s]:     52.51
	FillingsUpdate:  mu: -0.085161414  nElectrons: 9.000000  magneticMoment: [ Abs: 0.94495  Tot: -0.94000 ]
SCF: Cycle: 10   F: -24.435536027376749   dF: -7.063e-07   |Residual|: 1.674e-04   |deigs|: 3.255e-04  t[s]:     56.81
	FillingsUpdate:  mu: -0.085105348  nElectrons: 9.000000  magneticMoment: [ Abs: 0.94602  Tot: -0.94000 ]
SCF: Cycle: 11   F: -24.435535959078489   dF: +6.830e-08   |Residual|: 1.452e-04   |deigs|: 3.196e-04  t[s]:     61.15
	FillingsUpdate:  mu: -0.085220782  nElectrons: 9.000000  magneticMoment: [ Abs: 0.94535  Tot: -0.94000 ]
SCF: Cycle: 12   F: -24.435537828875884   dF: -1.870e-06   |Residual|: 1.178e-04   |deigs|: 2.739e-04  t[s]:     65.48
	FillingsUpdate:  mu: -0.085063746  nElectrons: 9.000000  magneticMoment: [ Abs: 0.94542  Tot: -0.94000 ]
SCF: Cycle: 13   F: -24.435538624253965   dF: -7.954e-07   |Residual|: 1.180e-04   |deigs|: 2.593e-04  t[s]:     69.66
	FillingsUpdate:  mu: -0.084789146  nElectrons: 9.000000  magneticMoment: [ Abs: 0.94557  Tot: -0.94000 ]
SCF: Cycle: 14   F: -24.435538377427179   dF: +2.468e-07   |Residual|: 1.169e-04   |deigs|: 2.541e-04  t[s]:     73.96
	FillingsUpdate:  mu: -0.084577555  nElectrons: 9.000000  magneticMoment: [ Abs: 0.94536  Tot: -0.94000 ]
SCF: Cycle: 15   F: -24.435538367993310   dF: +9.434e-09   |Residual|: 1.060e-04   |deigs|: 2.236e-04  t[s]:     78.20
	FillingsUpdate:  mu: -0.084320786  nElectrons: 9.000000  magneticMoment: [ Abs: 0.94512  Tot: -0.94000 ]
SCF: Cycle: 16   F: -24.435538870466836   dF: -5.025e-07   |Residual|: 8.257e-05   |deigs|: 2.538e-04  t[s]:     82.55
	FillingsUpdate:  mu: -0.084309626  nElectrons: 9.000000  magneticMoment: [ Abs: 0.94485  Tot: -0.94000 ]
SCF: Cycle: 17   F: -24.435539149413664   dF: -2.789e-07   |Residual|: 6.936e-05   |deigs|: 1.713e-04  t[s]:     86.77
	FillingsUpdate:  mu: -0.084220083  nElectrons: 9.000000  magneticMoment: [ Abs: 0.94472  Tot: -0.94000 ]
SCF: Cycle: 18   F: -24.435539492820652   dF: -3.434e-07   |Residual|: 5.138e-05   |deigs|: 1.007e-04  t[s]:     91.01
	FillingsUpdate:  mu: -0.084212749  nElectrons: 9.000000  magneticMoment: [ Abs: 0.94465  Tot: -0.94000 ]
SCF: Cycle: 19   F: -24.435539627048151   dF: -1.342e-07   |Residual|: 3.433e-05   |deigs|: 4.795e-05  t[s]:     95.25
	FillingsUpdate:  mu: -0.084228594  nElectrons: 9.000000  magneticMoment: [ Abs: 0.94460  Tot: -0.94000 ]
SCF: Cycle: 20   F: -24.435539823731659   dF: -1.967e-07   |Residual|: 2.479e-05   |deigs|: 6.071e-05  t[s]:     99.48
	FillingsUpdate:  mu: -0.084258264  nElectrons: 9.000000  magneticMoment: [ Abs: 0.94459  Tot: -0.94000 ]
SCF: Cycle: 21   F: -24.435539870954834   dF: -4.722e-08   |Residual|: 1.678e-05   |deigs|: 4.635e-05  t[s]:    103.67
	FillingsUpdate:  mu: -0.084261489  nElectrons: 9.000000  magneticMoment: [ Abs: 0.94463  Tot: -0.94000 ]
SCF: Cycle: 22   F: -24.435539863975706   dF: +6.979e-09   |Residual|: 1.052e-05   |deigs|: 2.007e-05  t[s]:    107.92
	FillingsUpdate:  mu: -0.084264686  nElectrons: 9.000000  magneticMoment: [ Abs: 0.94467  Tot: -0.94000 ]
SCF: Cycle: 23   F: -24.435539884943132   dF: -2.097e-08   |Residual|: 7.690e-06   |deigs|: 2.165e-05  t[s]:    112.22
	FillingsUpdate:  mu: -0.084269252  nElectrons: 9.000000  magneticMoment: [ Abs: 0.94467  Tot: -0.94000 ]
SCF: Cycle: 24   F: -24.435539887451938   dF: -2.509e-09   |Residual|: 5.433e-06   |deigs|: 2.360e-05  t[s]:    116.47
	FillingsUpdate:  mu: -0.084273760  nElectrons: 9.000000  magneticMoment: [ Abs: 0.94464  Tot: -0.94000 ]
SCF: Cycle: 25   F: -24.435539898230708   dF: -1.078e-08   |Residual|: 4.113e-06   |deigs|: 2.471e-05  t[s]:    120.78
	FillingsUpdate:  mu: -0.084274604  nElectrons: 9.000000  magneticMoment: [ Abs: 0.94462  Tot: -0.94000 ]
SCF: Cycle: 26   F: -24.435539899039487   dF: -8.088e-10   |Residual|: 3.448e-06   |deigs|: 2.513e-05  t[s]:    124.90
	FillingsUpdate:  mu: -0.084275498  nElectrons: 9.000000  magneticMoment: [ Abs: 0.94459  Tot: -0.94000 ]
SCF: Cycle: 27   F: -24.435539901211101   dF: -2.172e-09   |Residual|: 2.486e-06   |deigs|: 2.601e-05  t[s]:    129.16
SCF: Converged (|Delta E|<1.000000e-08 for 2 iters).


# Ionic positions in lattice coordinates:
ion Rb   0.000000000000000   0.000000000000000   0.000000000000000 0

# Forces in Lattice coordinates:
force Rb   0.000000000000000   0.000000000000000   0.000000000000000 0

# Energy components:
   Eewald =      -12.0320174002217755
       EH =        7.5349726227346601
     Eloc =      -22.4505594965789861
      Enl =       -0.7948519847831070
   Epulay =       -0.0000000014467880
      Exc =       -3.6542159042241744
       KE =        6.9611329589291717
-------------------------------------
     Etot =      -24.4355392055909988
       TS =        0.0000006956201006
-------------------------------------
        F =      -24.4355399012111008

IonicMinimize: Iter:   0  F: -24.435539901211101  |grad|_K:  0.000e+00  t[s]:    129.44
IonicMinimize: Converged (|grad|_K<1.000000e-04).

#--- Lowdin population analysis ---
# oxidation-state Rb +0.029
# magnetic-moments Rb -0.911

End date and time: Sun Feb  6 12:38:07 2022  (Duration: 0-0:02:09.48)
Done!
scale=4
magnetization=-0.94
--------------------------------------------------------------------------
The library attempted to open the following supporting CUDA libraries,
but each of them failed.  CUDA-aware support is disabled.
libcuda.so.1: cannot open shared object file: No such file or directory
libcuda.dylib: cannot open shared object file: No such file or directory
/usr/lib64/libcuda.so.1: cannot open shared object file: No such file or directory
/usr/lib64/libcuda.dylib: cannot open shared object file: No such file or directory
If you are not interested in CUDA-aware support, then run with
--mca opal_warn_on_missing_libcuda 0 to suppress this message.  If you are interested
in CUDA-aware support, then try setting LD_LIBRARY_PATH to the location
of libcuda.so.1 to get passed this issue.
--------------------------------------------------------------------------
--------------------------------------------------------------------------
No OpenFabrics connection schemes reported that they were able to be
used on a specific port.  As such, the openib BTL (OpenFabrics
support) will be disabled for this port.

  Local host:           d-4-6-3
  Local device:         mlx5_1
  Local port:           1
  CPCs attempted:       rdmacm, udcm
--------------------------------------------------------------------------

*************** JDFTx 1.6.0 (git hash 42ebbcc2) ***************

Start date and time: Sun Feb  6 12:38:08 2022
Executable jdftx with command-line: -i Alkali.in
Running on hosts (process indices):  d-4-6-3 (0-18)
Divided in process groups (process indices):  0 (0)  1 (1)  2 (2)  3 (3)  4 (4)  5 (5)  6 (6)  7 (7)  8 (8)  9 (9)  10 (10)  11 (11)  12 (12)  13 (13)  14 (14)  15 (15)  16 (16)  17 (17)  18 (18)
Resource initialization completed at t[s]:      0.00
Run totals: 19 processes, 48 threads, 0 GPUs


Input parsed successfully to the following command list (including defaults):

basis kpoint-dependent
coords-type Lattice
core-overlap-check vector
coulomb-interaction Slab 001
davidson-band-ratio 1.1
dump End None
dump-name $INPUT.$VAR
elec-cutoff 20
elec-eigen-algo Davidson
elec-ex-corr gga-PBE
elec-initial-magnetization -0.940000 yes
elec-smearing Fermi 1e-05
electronic-minimize  \
	dirUpdateScheme      FletcherReeves \
	linminMethod         DirUpdateRecommended \
	nIterations          100 \
	history              15 \
	knormThreshold       0 \
	energyDiffThreshold  1e-08 \
	nEnergyDiff          2 \
	alphaTstart          1 \
	alphaTmin            1e-10 \
	updateTestStepSize   yes \
	alphaTreduceFactor   0.1 \
	alphaTincreaseFactor 3 \
	nAlphaAdjustMax      3 \
	wolfeEnergy          0.0001 \
	wolfeGradient        0.9 \
	fdTest               no
electronic-scf  \
	nIterations	10000 \
	energyDiffThreshold	1e-08 \
	residualThreshold	1e-07 \
	mixFraction	0.5 \
	qMetric	0.8 \
	history	10 \
	nEigSteps	2 \
	eigDiffThreshold	1e-08 \
	mixedVariable	Density \
	qKerker	0.8 \
	qKappa	-1 \
	verbose	no \
	mixFractionMag	1.5
exchange-regularization WignerSeitzTruncated
fluid None
fluid-ex-corr (null) lda-PZ
fluid-gummel-loop 10 1.000000e-05
fluid-minimize  \
	dirUpdateScheme      PolakRibiere \
	linminMethod         DirUpdateRecommended \
	nIterations          100 \
	history              15 \
	knormThreshold       0 \
	energyDiffThreshold  0 \
	nEnergyDiff          2 \
	alphaTstart          1 \
	alphaTmin            1e-10 \
	updateTestStepSize   yes \
	alphaTreduceFactor   0.1 \
	alphaTincreaseFactor 3 \
	nAlphaAdjustMax      3 \
	wolfeEnergy          0.0001 \
	wolfeGradient        0.9 \
	fdTest               no
fluid-solvent H2O 55.338 ScalarEOS \
	epsBulk 78.4 \
	pMol 0.92466 \
	epsInf 1.77 \
	Pvap 1.06736e-10 \
	sigmaBulk 4.62e-05 \
	Rvdw 2.61727 \
	Res 1.42 \
	tauNuc 343133 \
	poleEl 15 7 1
forces-output-coords Positions
ion Rb   0.000000000000000   0.000000000000000   0.000000000000000 0
ion-species SG15/$ID_ONCV_PBE.upf
ion-width 0
ionic-minimize  \
	dirUpdateScheme      L-BFGS \
	linminMethod         DirUpdateRecommended \
	nIterations          0 \
	history              15 \
	knormThreshold       0.0001 \
	energyDiffThreshold  1e-06 \
	nEnergyDiff          2 \
	alphaTstart          1 \
	alphaTmin            1e-10 \
	updateTestStepSize   yes \
	alphaTreduceFactor   0.1 \
	alphaTincreaseFactor 3 \
	nAlphaAdjustMax      3 \
	wolfeEnergy          0.0001 \
	wolfeGradient        0.9 \
	fdTest               no
kpoint   0.000000000000   0.000000000000   0.000000000000  1.00000000000000
kpoint-folding 12 12 1 
latt-move-scale 1 1 1
latt-scale 4 4 1 
lattice  \
	   4.727486978767153   -2.363743489383575    0.000000000000000  \
	  -0.000000000000000    4.094123819672498    0.000000000000000  \
	   0.000000000000000    0.000000000000000   40.000000000000000 
lattice-minimize  \
	dirUpdateScheme      L-BFGS \
	linminMethod         DirUpdateRecommended \
	nIterations          0 \
	history              15 \
	knormThreshold       0 \
	energyDiffThreshold  1e-06 \
	nEnergyDiff          2 \
	alphaTstart          1 \
	alphaTmin            1e-10 \
	updateTestStepSize   yes \
	alphaTreduceFactor   0.1 \
	alphaTincreaseFactor 3 \
	nAlphaAdjustMax      3 \
	wolfeEnergy          0.0001 \
	wolfeGradient        0.9 \
	fdTest               no
lcao-params -1 1e-06 1e-05
pcm-variant GLSSA13
spintype z-spin
subspace-rotation-factor 1 yes
symmetries automatic
symmetry-threshold 0.0001



---------- Setting up symmetries ----------

Found 24 point-group symmetries of the bravais lattice
Found 24 space-group symmetries with basis
Applied RMS atom displacement 0 bohrs to make symmetries exact.

---------- Initializing the Grid ----------
R = 
[      18.9099     -9.45497            0  ]
[            0      16.3765            0  ]
[            0            0           40  ]
unit cell volume = 12387.1
G =
[   0.332269   0.191835         -0  ]
[          0   0.383671         -0  ]
[         -0         -0    0.15708  ]
Minimum fftbox size, Smin = [  80  80  164  ]
Chosen fftbox size, S = [  80  80  168  ]

---------- Exchange Correlation functional ----------
Initalized PBE GGA exchange.
Initalized PBE GGA correlation.

---------- Setting up pseudopotentials ----------
Width of ionic core gaussian charges (only for fluid interactions / plotting) set to 0

Reading pseudopotential file '/home/gridsan/aligho/DFT/build-Nov24/pseudopotentials/SG15/Rb_ONCV_PBE.upf':
  'Rb' pseudopotential, 'PBE' functional
  Generated using ONCVPSP code by D. R. Hamann
  Author: Martin Schlipf and Francois Gygi  Date: 150915.
  9 valence electrons, 3 orbitals, 6 projectors, 2308 radial grid points, with lMax = 2
  Transforming local potential to a uniform radial grid of dG=0.02 with 1489 points.
  Transforming nonlocal projectors to a uniform radial grid of dG=0.02 with 432 points.
    4S    l: 0   occupation:  2.0   eigenvalue: -1.172069
    4P    l: 1   occupation:  6.0   eigenvalue: -0.586674
    5S    l: 0   occupation:  1.0   eigenvalue: -0.082006
  Transforming atomic orbitals to a uniform radial grid of dG=0.02 with 432 points.
  Core radius for overlap checks: 2.60 bohrs.
  Reading pulay file /home/gridsan/aligho/DFT/build-Nov24/pseudopotentials/SG15/Rb_ONCV_PBE.pulay ... using dE_dnG = -1.360715e-05 computed for Ecut = 20.

Initialized 1 species with 1 total atoms.

Folded 1 k-points by 12x12x1 to 144 k-points.

---------- Setting up k-points, bands, fillings ----------
Reduced to 19 k-points under symmetry. 
Computing the number of bands and number of electrons
Calculating initial fillings.
nElectrons:   9.000000   nBands: 6   nStates: 38

----- Setting up reduced wavefunction bases (one per k-point) -----
average nbasis = 52924.021 , ideal nbasis = 52918.836

---------- Setting up coulomb interaction ----------
Initialized slab truncation along lattice direction 001

---------- Setting up 2D ewald sum ----------
Optimum gaussian width for ewald sums = 10.498040 bohr.
Real space sums over 289 unit cells with max indices [  8  8  0  ]
Reciprocal space sums over 81 terms with max indices [  4  4  0  ]

---------- Allocating electronic variables ----------
Initializing wave functions:  linear combination of atomic orbitals
Note: number of bands (6) exceeds available atomic orbitals (5)
Rb pseudo-atom occupations:   s ( 2 1 )  p ( 6 )
[d-4-6-3:47485] 18 more processes have sent help message help-mpi-common-cuda.txt / dlopen failed
[d-4-6-3:47485] Set MCA parameter "orte_base_help_aggregate" to 0 to see all help / error messages
[d-4-6-3:47485] 18 more processes have sent help message help-mpi-btl-openib-cpc-base.txt / no cpcs for port
	FillingsUpdate:  mu: -0.080484412  nElectrons: 9.000000  magneticMoment: [ Abs: 0.94000  Tot: -0.94000 ]
LCAOMinimize: Iter:   0  F: -24.4335412958400902  |grad|_K:  6.641e-07  alpha:  1.000e+00
	FillingsUpdate:  mu: -0.080484279  nElectrons: 9.000000  magneticMoment: [ Abs: 0.94000  Tot: -0.94000 ]
LCAOMinimize: Iter:   1  F: -24.4335412961404614  |grad|_K:  3.851e-09  alpha:  9.959e-01  linmin:  1.154e-02  cgtest: -2.478e-01  t[s]:     15.08
LCAOMinimize: 	Step increased F by 1.421085e-13, reducing alpha to 8.847428e-03.
LCAOMinimize: 	Step increased F by 7.815970e-14, reducing alpha to 8.847428e-04.
LCAOMinimize: 	Step increased F by 3.552714e-15, reducing alpha to 8.847428e-05.
LCAOMinimize: 	Step failed to reduce F after 3 attempts. Quitting step.
LCAOMinimize: 	Undoing step.
LCAOMinimize: 	Step failed: resetting search direction.
	FillingsUpdate:  mu: -0.080484279  nElectrons: 9.000000  magneticMoment: [ Abs: 0.94000  Tot: -0.94000 ]
LCAOMinimize: Iter:   2  F: -24.4335412961403868  |grad|_K:  3.848e-09  alpha:  8.847e-05
LCAOMinimize: 	Step increased F by 7.105427e-14, reducing alpha to 5.049214e-03.
	FillingsUpdate:  mu: -0.080484279  nElectrons: 9.000000  magneticMoment: [ Abs: 0.94000  Tot: -0.94000 ]
LCAOMinimize: Iter:   3  F: -24.4335412961404543  |grad|_K:  3.828e-09  alpha:  5.049e-03  linmin: -5.705e-02  cgtest:  1.000e+00  t[s]:     32.60
LCAOMinimize: Encountered beta<0, resetting CG.
LCAOMinimize: 	Step increased F by 8.881784e-14, reducing alpha to 1.160349e-07.
LCAOMinimize: 	Step increased F by 7.105427e-14, reducing alpha to 1.160349e-08.
LCAOMinimize: 	Step increased F by 4.973799e-14, reducing alpha to 1.160349e-09.
LCAOMinimize: 	Step failed to reduce F after 3 attempts. Quitting step.
LCAOMinimize: 	Undoing step.
LCAOMinimize: 	Step failed along negative gradient direction.
LCAOMinimize: Probably at roundoff error limit. (Stopping)


---- Citations for features of the code used in this run ----

   Software package:
      R. Sundararaman, K. Letchworth-Weaver, K.A. Schwarz, D. Gunceler, Y. Ozhabes and T.A. Arias, 'JDFTx: software for joint density-functional theory', SoftwareX 6, 278 (2017)

   gga-PBE exchange-correlation functional:
      J.P. Perdew, K. Burke and M. Ernzerhof, Phys. Rev. Lett. 77, 3865 (1996)

   Pseudopotentials:
      M Schlipf and F Gygi, Comput. Phys. Commun. 196, 36 (2015)

   Truncated Coulomb potentials:
      R. Sundararaman and T.A. Arias, Phys. Rev. B 87, 165122 (2013)

This list may not be complete. Please suggest additional citations or
report any other bugs at https://github.com/shankar1729/jdftx/issues

Initialization completed successfully at t[s]:     43.92


-------- Electronic minimization -----------
Will mix electronic density at each iteration.
	FillingsUpdate:  mu: -0.080484279  nElectrons: 9.000000  magneticMoment: [ Abs: 0.94000  Tot: -0.94000 ]
	FillingsUpdate:  mu: -0.080676140  nElectrons: 9.000000  magneticMoment: [ Abs: 0.94000  Tot: -0.94000 ]
SCF: Cycle:  0   F: -24.433686557026629   dF: -1.453e-04   |Residual|: 2.234e-03   |deigs|: 1.639e-01  t[s]:     52.05
	FillingsUpdate:  mu: -0.080705462  nElectrons: 9.000000  magneticMoment: [ Abs: 0.94584  Tot: -0.94000 ]
SCF: Cycle:  1   F: -24.433689629498868   dF: -3.072e-06   |Residual|: 5.734e-04   |deigs|: 1.351e-02  t[s]:     58.49
	FillingsUpdate:  mu: -0.080592732  nElectrons: 9.000000  magneticMoment: [ Abs: 0.94558  Tot: -0.94000 ]
SCF: Cycle:  2   F: -24.433690394055620   dF: -7.646e-07   |Residual|: 3.942e-04   |deigs|: 2.258e-03  t[s]:     64.98
	FillingsUpdate:  mu: -0.080461198  nElectrons: 9.000000  magneticMoment: [ Abs: 0.94638  Tot: -0.94000 ]
SCF: Cycle:  3   F: -24.433690789213514   dF: -3.952e-07   |Residual|: 3.107e-04   |deigs|: 1.380e-03  t[s]:     71.67
	FillingsUpdate:  mu: -0.080195469  nElectrons: 9.000000  magneticMoment: [ Abs: 0.94623  Tot: -0.94000 ]
SCF: Cycle:  4   F: -24.433690704989790   dF: +8.422e-08   |Residual|: 1.818e-04   |deigs|: 6.392e-04  t[s]:     78.45
	FillingsUpdate:  mu: -0.080009636  nElectrons: 9.000000  magneticMoment: [ Abs: 0.94605  Tot: -0.94000 ]
SCF: Cycle:  5   F: -24.433690919697433   dF: -2.147e-07   |Residual|: 1.289e-04   |deigs|: 6.320e-04  t[s]:     85.35
	FillingsUpdate:  mu: -0.079954636  nElectrons: 9.000000  magneticMoment: [ Abs: 0.94602  Tot: -0.94000 ]
SCF: Cycle:  6   F: -24.433691237089807   dF: -3.174e-07   |Residual|: 9.479e-05   |deigs|: 2.266e-04  t[s]:     92.41
	FillingsUpdate:  mu: -0.079939566  nElectrons: 9.000000  magneticMoment: [ Abs: 0.94614  Tot: -0.94000 ]
SCF: Cycle:  7   F: -24.433691386523456   dF: -1.494e-07   |Residual|: 6.742e-05   |deigs|: 1.675e-04  t[s]:     99.51
	FillingsUpdate:  mu: -0.079923424  nElectrons: 9.000000  magneticMoment: [ Abs: 0.94608  Tot: -0.94000 ]
SCF: Cycle:  8   F: -24.433691438733259   dF: -5.221e-08   |Residual|: 5.740e-05   |deigs|: 1.328e-04  t[s]:    106.73
	FillingsUpdate:  mu: -0.079878581  nElectrons: 9.000000  magneticMoment: [ Abs: 0.94610  Tot: -0.94000 ]
SCF: Cycle:  9   F: -24.433691447113166   dF: -8.380e-09   |Residual|: 4.261e-05   |deigs|: 1.533e-04  t[s]:    114.08
	FillingsUpdate:  mu: -0.079845262  nElectrons: 9.000000  magneticMoment: [ Abs: 0.94614  Tot: -0.94000 ]
SCF: Cycle: 10   F: -24.433691364716179   dF: +8.240e-08   |Residual|: 4.149e-05   |deigs|: 1.011e-04  t[s]:    121.54
	FillingsUpdate:  mu: -0.079817597  nElectrons: 9.000000  magneticMoment: [ Abs: 0.94618  Tot: -0.94000 ]
SCF: Cycle: 11   F: -24.433691098763695   dF: +2.660e-07   |Residual|: 3.607e-05   |deigs|: 6.409e-05  t[s]:    129.01
	FillingsUpdate:  mu: -0.079814566  nElectrons: 9.000000  magneticMoment: [ Abs: 0.94634  Tot: -0.94000 ]
SCF: Cycle: 12   F: -24.433691250133691   dF: -1.514e-07   |Residual|: 2.819e-05   |deigs|: 7.181e-05  t[s]:    136.23
	FillingsUpdate:  mu: -0.079767894  nElectrons: 9.000000  magneticMoment: [ Abs: 0.94627  Tot: -0.94000 ]
SCF: Cycle: 13   F: -24.433691236862508   dF: +1.327e-08   |Residual|: 2.631e-05   |deigs|: 6.084e-05  t[s]:    143.64
	FillingsUpdate:  mu: -0.079727941  nElectrons: 9.000000  magneticMoment: [ Abs: 0.94625  Tot: -0.94000 ]
SCF: Cycle: 14   F: -24.433691292538523   dF: -5.568e-08   |Residual|: 2.469e-05   |deigs|: 5.692e-05  t[s]:    151.02
	FillingsUpdate:  mu: -0.079699900  nElectrons: 9.000000  magneticMoment: [ Abs: 0.94620  Tot: -0.94000 ]
SCF: Cycle: 15   F: -24.433691352367340   dF: -5.983e-08   |Residual|: 2.383e-05   |deigs|: 5.740e-05  t[s]:    158.42
	FillingsUpdate:  mu: -0.079694397  nElectrons: 9.000000  magneticMoment: [ Abs: 0.94614  Tot: -0.94000 ]
SCF: Cycle: 16   F: -24.433691352493838   dF: -1.265e-10   |Residual|: 2.046e-05   |deigs|: 5.570e-05  t[s]:    165.78
	FillingsUpdate:  mu: -0.079685578  nElectrons: 9.000000  magneticMoment: [ Abs: 0.94619  Tot: -0.94000 ]
SCF: Cycle: 17   F: -24.433691554253912   dF: -2.018e-07   |Residual|: 1.331e-05   |deigs|: 7.280e-05  t[s]:    173.14
	FillingsUpdate:  mu: -0.079681732  nElectrons: 9.000000  magneticMoment: [ Abs: 0.94615  Tot: -0.94000 ]
SCF: Cycle: 18   F: -24.433691583349024   dF: -2.910e-08   |Residual|: 1.099e-05   |deigs|: 4.493e-05  t[s]:    180.25
	FillingsUpdate:  mu: -0.079680828  nElectrons: 9.000000  magneticMoment: [ Abs: 0.94612  Tot: -0.94000 ]
SCF: Cycle: 19   F: -24.433691579859087   dF: +3.490e-09   |Residual|: 8.490e-06   |deigs|: 4.196e-05  t[s]:    187.49
	FillingsUpdate:  mu: -0.079678072  nElectrons: 9.000000  magneticMoment: [ Abs: 0.94610  Tot: -0.94000 ]
SCF: Cycle: 20   F: -24.433691594458949   dF: -1.460e-08   |Residual|: 6.153e-06   |deigs|: 3.668e-05  t[s]:    194.95
	FillingsUpdate:  mu: -0.079676542  nElectrons: 9.000000  magneticMoment: [ Abs: 0.94608  Tot: -0.94000 ]
SCF: Cycle: 21   F: -24.433691607777373   dF: -1.332e-08   |Residual|: 4.700e-06   |deigs|: 2.895e-05  t[s]:    202.33
	FillingsUpdate:  mu: -0.079673906  nElectrons: 9.000000  magneticMoment: [ Abs: 0.94608  Tot: -0.94000 ]
SCF: Cycle: 22   F: -24.433691618841838   dF: -1.106e-08   |Residual|: 3.301e-06   |deigs|: 2.163e-05  t[s]:    209.57
	FillingsUpdate:  mu: -0.079672690  nElectrons: 9.000000  magneticMoment: [ Abs: 0.94608  Tot: -0.94000 ]
SCF: Cycle: 23   F: -24.433691616560338   dF: +2.281e-09   |Residual|: 2.242e-06   |deigs|: 1.593e-05  t[s]:    216.91
	FillingsUpdate:  mu: -0.079671492  nElectrons: 9.000000  magneticMoment: [ Abs: 0.94608  Tot: -0.94000 ]
SCF: Cycle: 24   F: -24.433691634876674   dF: -1.832e-08   |Residual|: 1.473e-06   |deigs|: 1.201e-05  t[s]:    224.23
	FillingsUpdate:  mu: -0.079671768  nElectrons: 9.000000  magneticMoment: [ Abs: 0.94608  Tot: -0.94000 ]
SCF: Cycle: 25   F: -24.433691637020274   dF: -2.144e-09   |Residual|: 1.042e-06   |deigs|: 8.501e-06  t[s]:    231.07
	FillingsUpdate:  mu: -0.079672435  nElectrons: 9.000000  magneticMoment: [ Abs: 0.94608  Tot: -0.94000 ]
SCF: Cycle: 26   F: -24.433691644445055   dF: -7.425e-09   |Residual|: 6.384e-07   |deigs|: 6.404e-06  t[s]:    238.14
SCF: Converged (|Delta E|<1.000000e-08 for 2 iters).


# Ionic positions in lattice coordinates:
ion Rb   0.000000000000000   0.000000000000000   0.000000000000000 0

# Forces in Lattice coordinates:
force Rb   0.000000000000000  -0.000000000000000   0.000000000000000 0

# Energy components:
   Eewald =       -9.0240130501663280
       EH =       10.5557699430694161
     Eloc =      -28.4824919948530244
      Enl =       -0.7918894168696478
   Epulay =        0.0000000056959385
      Exc =       -3.6555153780715410
       KE =        6.9644489423704989
-------------------------------------
     Etot =      -24.4336909488246903
       TS =        0.0000006956203650
-------------------------------------
        F =      -24.4336916444450551

IonicMinimize: Iter:   0  F: -24.433691644445055  |grad|_K:  0.000e+00  t[s]:    238.55
IonicMinimize: Converged (|grad|_K<1.000000e-04).

#--- Lowdin population analysis ---
# oxidation-state Rb +0.001
# magnetic-moments Rb -0.939

End date and time: Sun Feb  6 12:42:07 2022  (Duration: 0-0:03:58.61)
Done!
