The alkali metal is Rb
scale=2
magnetization=0.34
--------------------------------------------------------------------------
The library attempted to open the following supporting CUDA libraries,
but each of them failed.  CUDA-aware support is disabled.
libcuda.so.1: cannot open shared object file: No such file or directory
libcuda.dylib: cannot open shared object file: No such file or directory
/usr/lib64/libcuda.so.1: cannot open shared object file: No such file or directory
/usr/lib64/libcuda.dylib: cannot open shared object file: No such file or directory
If you are not interested in CUDA-aware support, then run with
--mca opal_warn_on_missing_libcuda 0 to suppress this message.  If you are interested
in CUDA-aware support, then try setting LD_LIBRARY_PATH to the location
of libcuda.so.1 to get passed this issue.
--------------------------------------------------------------------------
--------------------------------------------------------------------------
No OpenFabrics connection schemes reported that they were able to be
used on a specific port.  As such, the openib BTL (OpenFabrics
support) will be disabled for this port.

  Local host:           d-18-7-1
  Local device:         mlx5_1
  Local port:           1
  CPCs attempted:       rdmacm, udcm
--------------------------------------------------------------------------

*************** JDFTx 1.6.0 (git hash 42ebbcc2) ***************

Start date and time: Sun Feb  6 12:48:06 2022
Executable jdftx with command-line: -i Alkali.in
Running on hosts (process indices):  d-18-7-1 (0-18)
Divided in process groups (process indices):  0 (0)  1 (1)  2 (2)  3 (3)  4 (4)  5 (5)  6 (6)  7 (7)  8 (8)  9 (9)  10 (10)  11 (11)  12 (12)  13 (13)  14 (14)  15 (15)  16 (16)  17 (17)  18 (18)
Resource initialization completed at t[s]:      0.00
Run totals: 19 processes, 48 threads, 0 GPUs


Input parsed successfully to the following command list (including defaults):

basis kpoint-dependent
coords-type Lattice
core-overlap-check vector
coulomb-interaction Slab 001
davidson-band-ratio 1.1
dump End None
dump-name $INPUT.$VAR
elec-cutoff 20
elec-eigen-algo Davidson
elec-ex-corr gga-PBE
elec-initial-magnetization 0.340000 yes
elec-smearing Fermi 1e-05
electronic-minimize  \
	dirUpdateScheme      FletcherReeves \
	linminMethod         DirUpdateRecommended \
	nIterations          100 \
	history              15 \
	knormThreshold       0 \
	energyDiffThreshold  1e-08 \
	nEnergyDiff          2 \
	alphaTstart          1 \
	alphaTmin            1e-10 \
	updateTestStepSize   yes \
	alphaTreduceFactor   0.1 \
	alphaTincreaseFactor 3 \
	nAlphaAdjustMax      3 \
	wolfeEnergy          0.0001 \
	wolfeGradient        0.9 \
	fdTest               no
electronic-scf  \
	nIterations	10000 \
	energyDiffThreshold	1e-08 \
	residualThreshold	1e-07 \
	mixFraction	0.5 \
	qMetric	0.8 \
	history	10 \
	nEigSteps	2 \
	eigDiffThreshold	1e-08 \
	mixedVariable	Density \
	qKerker	0.8 \
	qKappa	-1 \
	verbose	no \
	mixFractionMag	1.5
exchange-regularization WignerSeitzTruncated
fluid None
fluid-ex-corr (null) lda-PZ
fluid-gummel-loop 10 1.000000e-05
fluid-minimize  \
	dirUpdateScheme      PolakRibiere \
	linminMethod         DirUpdateRecommended \
	nIterations          100 \
	history              15 \
	knormThreshold       0 \
	energyDiffThreshold  0 \
	nEnergyDiff          2 \
	alphaTstart          1 \
	alphaTmin            1e-10 \
	updateTestStepSize   yes \
	alphaTreduceFactor   0.1 \
	alphaTincreaseFactor 3 \
	nAlphaAdjustMax      3 \
	wolfeEnergy          0.0001 \
	wolfeGradient        0.9 \
	fdTest               no
fluid-solvent H2O 55.338 ScalarEOS \
	epsBulk 78.4 \
	pMol 0.92466 \
	epsInf 1.77 \
	Pvap 1.06736e-10 \
	sigmaBulk 4.62e-05 \
	Rvdw 2.61727 \
	Res 1.42 \
	tauNuc 343133 \
	poleEl 15 7 1
forces-output-coords Positions
ion Rb   0.000000000000000   0.000000000000000   0.000000000000000 0
ion-species SG15/$ID_ONCV_PBE.upf
ion-width 0
ionic-minimize  \
	dirUpdateScheme      L-BFGS \
	linminMethod         DirUpdateRecommended \
	nIterations          0 \
	history              15 \
	knormThreshold       0.0001 \
	energyDiffThreshold  1e-06 \
	nEnergyDiff          2 \
	alphaTstart          1 \
	alphaTmin            1e-10 \
	updateTestStepSize   yes \
	alphaTreduceFactor   0.1 \
	alphaTincreaseFactor 3 \
	nAlphaAdjustMax      3 \
	wolfeEnergy          0.0001 \
	wolfeGradient        0.9 \
	fdTest               no
kpoint   0.000000000000   0.000000000000   0.000000000000  1.00000000000000
kpoint-folding 12 12 1 
latt-move-scale 1 1 1
latt-scale 2 2 1 
lattice  \
	   4.727486978767153   -2.363743489383575    0.000000000000000  \
	  -0.000000000000000    4.094123819672498    0.000000000000000  \
	   0.000000000000000    0.000000000000000   40.000000000000000 
lattice-minimize  \
	dirUpdateScheme      L-BFGS \
	linminMethod         DirUpdateRecommended \
	nIterations          0 \
	history              15 \
	knormThreshold       0 \
	energyDiffThreshold  1e-06 \
	nEnergyDiff          2 \
	alphaTstart          1 \
	alphaTmin            1e-10 \
	updateTestStepSize   yes \
	alphaTreduceFactor   0.1 \
	alphaTincreaseFactor 3 \
	nAlphaAdjustMax      3 \
	wolfeEnergy          0.0001 \
	wolfeGradient        0.9 \
	fdTest               no
lcao-params -1 1e-06 1e-05
pcm-variant GLSSA13
spintype z-spin
subspace-rotation-factor 1 yes
symmetries automatic
symmetry-threshold 0.0001



---------- Setting up symmetries ----------

Found 24 point-group symmetries of the bravais lattice
Found 24 space-group symmetries with basis
Applied RMS atom displacement 0 bohrs to make symmetries exact.

---------- Initializing the Grid ----------
R = 
[      9.45497     -4.72749            0  ]
[            0      8.18825            0  ]
[            0            0           40  ]
unit cell volume = 3096.79
G =
[   0.664538   0.383671         -0  ]
[          0   0.767342         -0  ]
[         -0         -0    0.15708  ]
Minimum fftbox size, Smin = [  40  40  164  ]
Chosen fftbox size, S = [  40  40  168  ]

---------- Exchange Correlation functional ----------
Initalized PBE GGA exchange.
Initalized PBE GGA correlation.

---------- Setting up pseudopotentials ----------
Width of ionic core gaussian charges (only for fluid interactions / plotting) set to 0

Reading pseudopotential file '/home/gridsan/aligho/DFT/build-Nov24/pseudopotentials/SG15/Rb_ONCV_PBE.upf':
  'Rb' pseudopotential, 'PBE' functional
  Generated using ONCVPSP code by D. R. Hamann
  Author: Martin Schlipf and Francois Gygi  Date: 150915.
  9 valence electrons, 3 orbitals, 6 projectors, 2308 radial grid points, with lMax = 2
  Transforming local potential to a uniform radial grid of dG=0.02 with 1489 points.
  Transforming nonlocal projectors to a uniform radial grid of dG=0.02 with 432 points.
    4S    l: 0   occupation:  2.0   eigenvalue: -1.172069
    4P    l: 1   occupation:  6.0   eigenvalue: -0.586674
    5S    l: 0   occupation:  1.0   eigenvalue: -0.082006
  Transforming atomic orbitals to a uniform radial grid of dG=0.02 with 432 points.
  Core radius for overlap checks: 2.60 bohrs.
  Reading pulay file /home/gridsan/aligho/DFT/build-Nov24/pseudopotentials/SG15/Rb_ONCV_PBE.pulay ... using dE_dnG = -1.360715e-05 computed for Ecut = 20.

Initialized 1 species with 1 total atoms.

Folded 1 k-points by 12x12x1 to 144 k-points.

---------- Setting up k-points, bands, fillings ----------
Reduced to 19 k-points under symmetry. 
Computing the number of bands and number of electrons
Calculating initial fillings.
nElectrons:   9.000000   nBands: 6   nStates: 38

----- Setting up reduced wavefunction bases (one per k-point) -----
average nbasis = 13230.521 , ideal nbasis = 13229.709

---------- Setting up coulomb interaction ----------
Initialized slab truncation along lattice direction 001

---------- Setting up 2D ewald sum ----------
Optimum gaussian width for ewald sums = 5.249020 bohr.
Real space sums over 289 unit cells with max indices [  8  8  0  ]
Reciprocal space sums over 81 terms with max indices [  4  4  0  ]

---------- Allocating electronic variables ----------
Initializing wave functions:  linear combination of atomic orbitals
Note: number of bands (6) exceeds available atomic orbitals (5)
Rb pseudo-atom occupations:   s ( 2 1 )  p ( 6 )
	FillingsUpdate:  mu: -0.092166665  nElectrons: 9.000000  magneticMoment: [ Abs: 0.34000  Tot: +0.34000 ]
LCAOMinimize: Iter:   0  F: -24.4476400622669487  |grad|_K:  3.858e-05  alpha:  1.000e+00
	FillingsUpdate:  mu: -0.092153559  nElectrons: 9.000000  magneticMoment: [ Abs: 0.34000  Tot: +0.34000 ]
LCAOMinimize: Iter:   1  F: -24.4476410569869387  |grad|_K:  4.160e-07  alpha:  9.772e-01  linmin: -3.372e-02  cgtest:  4.121e-01  t[s]:      4.72
LCAOMinimize: Encountered beta<0, resetting CG.
[d-18-7-1:02388] 18 more processes have sent help message help-mpi-common-cuda.txt / dlopen failed
[d-18-7-1:02388] Set MCA parameter "orte_base_help_aggregate" to 0 to see all help / error messages
[d-18-7-1:02388] 18 more processes have sent help message help-mpi-btl-openib-cpc-base.txt / no cpcs for port
	FillingsUpdate:  mu: -0.092153641  nElectrons: 9.000000  magneticMoment: [ Abs: 0.34000  Tot: +0.34000 ]
LCAOMinimize: Iter:   2  F: -24.4476410571061855  |grad|_K:  2.922e-09  alpha:  1.008e+00  linmin:  1.421e-01  cgtest: -9.827e-01  t[s]:      5.92
LCAOMinimize: Converged (|Delta F|<1.000000e-06 for 2 iters).


---- Citations for features of the code used in this run ----

   Software package:
      R. Sundararaman, K. Letchworth-Weaver, K.A. Schwarz, D. Gunceler, Y. Ozhabes and T.A. Arias, 'JDFTx: software for joint density-functional theory', SoftwareX 6, 278 (2017)

   gga-PBE exchange-correlation functional:
      J.P. Perdew, K. Burke and M. Ernzerhof, Phys. Rev. Lett. 77, 3865 (1996)

   Pseudopotentials:
      M Schlipf and F Gygi, Comput. Phys. Commun. 196, 36 (2015)

   Truncated Coulomb potentials:
      R. Sundararaman and T.A. Arias, Phys. Rev. B 87, 165122 (2013)

This list may not be complete. Please suggest additional citations or
report any other bugs at https://github.com/shankar1729/jdftx/issues

Initialization completed successfully at t[s]:      6.02


-------- Electronic minimization -----------
Will mix electronic density at each iteration.
	FillingsUpdate:  mu: -0.092153641  nElectrons: 9.000000  magneticMoment: [ Abs: 0.34000  Tot: +0.34000 ]
	FillingsUpdate:  mu: -0.103005655  nElectrons: 9.000000  magneticMoment: [ Abs: 0.34000  Tot: +0.34000 ]
SCF: Cycle:  0   F: -24.452947985905066   dF: -5.307e-03   |Residual|: 9.956e-03   |deigs|: 1.793e-01  t[s]:      8.56
	FillingsUpdate:  mu: -0.102711067  nElectrons: 9.000000  magneticMoment: [ Abs: 0.34000  Tot: +0.34000 ]
SCF: Cycle:  1   F: -24.453155707711407   dF: -2.077e-04   |Residual|: 7.467e-03   |deigs|: 6.722e-03  t[s]:     10.47
	FillingsUpdate:  mu: -0.101211018  nElectrons: 9.000000  magneticMoment: [ Abs: 0.34308  Tot: +0.34000 ]
SCF: Cycle:  2   F: -24.453254480124937   dF: -9.877e-05   |Residual|: 3.958e-03   |deigs|: 2.435e-03  t[s]:     12.42
	FillingsUpdate:  mu: -0.100091541  nElectrons: 9.000000  magneticMoment: [ Abs: 0.34008  Tot: +0.34000 ]
SCF: Cycle:  3   F: -24.453309799250224   dF: -5.532e-05   |Residual|: 2.531e-03   |deigs|: 2.103e-03  t[s]:     14.37
	FillingsUpdate:  mu: -0.098406669  nElectrons: 9.000000  magneticMoment: [ Abs: 0.34001  Tot: +0.34000 ]
SCF: Cycle:  4   F: -24.453344663347298   dF: -3.486e-05   |Residual|: 2.007e-03   |deigs|: 2.154e-03  t[s]:     16.30
	FillingsUpdate:  mu: -0.097060110  nElectrons: 9.000000  magneticMoment: [ Abs: 0.34160  Tot: +0.34000 ]
SCF: Cycle:  5   F: -24.453363088055180   dF: -1.842e-05   |Residual|: 1.466e-03   |deigs|: 3.706e-03  t[s]:     18.35
	FillingsUpdate:  mu: -0.094647849  nElectrons: 9.000000  magneticMoment: [ Abs: 0.34644  Tot: +0.34000 ]
SCF: Cycle:  6   F: -24.453363742574410   dF: -6.545e-07   |Residual|: 1.065e-03   |deigs|: 3.156e-03  t[s]:     20.46
	FillingsUpdate:  mu: -0.093096134  nElectrons: 9.000000  magneticMoment: [ Abs: 0.34532  Tot: +0.34000 ]
SCF: Cycle:  7   F: -24.453380586462799   dF: -1.684e-05   |Residual|: 9.994e-04   |deigs|: 2.092e-03  t[s]:     22.52
	FillingsUpdate:  mu: -0.093053614  nElectrons: 9.000000  magneticMoment: [ Abs: 0.34121  Tot: +0.34000 ]
SCF: Cycle:  8   F: -24.453389871056626   dF: -9.285e-06   |Residual|: 8.086e-04   |deigs|: 2.128e-03  t[s]:     24.62
	FillingsUpdate:  mu: -0.091611462  nElectrons: 9.000000  magneticMoment: [ Abs: 0.34288  Tot: +0.34000 ]
SCF: Cycle:  9   F: -24.453392142179847   dF: -2.271e-06   |Residual|: 6.587e-04   |deigs|: 1.451e-03  t[s]:     26.72
	FillingsUpdate:  mu: -0.090340930  nElectrons: 9.000000  magneticMoment: [ Abs: 0.34374  Tot: +0.34000 ]
SCF: Cycle: 10   F: -24.453389310096416   dF: +2.832e-06   |Residual|: 5.785e-04   |deigs|: 1.364e-03  t[s]:     28.83
	FillingsUpdate:  mu: -0.089159153  nElectrons: 9.000000  magneticMoment: [ Abs: 0.34268  Tot: +0.34000 ]
SCF: Cycle: 11   F: -24.453395137034441   dF: -5.827e-06   |Residual|: 5.125e-04   |deigs|: 1.239e-03  t[s]:     30.93
	FillingsUpdate:  mu: -0.087790497  nElectrons: 9.000000  magneticMoment: [ Abs: 0.34314  Tot: +0.34000 ]
SCF: Cycle: 12   F: -24.453407687570351   dF: -1.255e-05   |Residual|: 4.672e-04   |deigs|: 1.332e-03  t[s]:     33.04
	FillingsUpdate:  mu: -0.086558394  nElectrons: 9.000000  magneticMoment: [ Abs: 0.34285  Tot: +0.34000 ]
SCF: Cycle: 13   F: -24.453412311917017   dF: -4.624e-06   |Residual|: 4.302e-04   |deigs|: 1.272e-03  t[s]:     35.11
	FillingsUpdate:  mu: -0.085200361  nElectrons: 9.000000  magneticMoment: [ Abs: 0.34070  Tot: +0.34000 ]
SCF: Cycle: 14   F: -24.453416644723870   dF: -4.333e-06   |Residual|: 3.652e-04   |deigs|: 1.407e-03  t[s]:     37.30
	FillingsUpdate:  mu: -0.084483555  nElectrons: 9.000000  magneticMoment: [ Abs: 0.34060  Tot: +0.34000 ]
SCF: Cycle: 15   F: -24.453419228640012   dF: -2.584e-06   |Residual|: 2.569e-04   |deigs|: 7.623e-04  t[s]:     39.38
	FillingsUpdate:  mu: -0.084101721  nElectrons: 9.000000  magneticMoment: [ Abs: 0.34070  Tot: +0.34000 ]
SCF: Cycle: 16   F: -24.453420470620411   dF: -1.242e-06   |Residual|: 1.732e-04   |deigs|: 1.491e-03  t[s]:     41.50
	FillingsUpdate:  mu: -0.084046916  nElectrons: 9.000000  magneticMoment: [ Abs: 0.34003  Tot: +0.34000 ]
SCF: Cycle: 17   F: -24.453420966225153   dF: -4.956e-07   |Residual|: 1.029e-04   |deigs|: 3.283e-04  t[s]:     43.59
	FillingsUpdate:  mu: -0.084035170  nElectrons: 9.000000  magneticMoment: [ Abs: 0.34016  Tot: +0.34000 ]
SCF: Cycle: 18   F: -24.453421177268186   dF: -2.110e-07   |Residual|: 6.626e-05   |deigs|: 7.314e-04  t[s]:     45.71
	FillingsUpdate:  mu: -0.084024271  nElectrons: 9.000000  magneticMoment: [ Abs: 0.34013  Tot: +0.34000 ]
SCF: Cycle: 19   F: -24.453421237094709   dF: -5.983e-08   |Residual|: 3.616e-05   |deigs|: 2.299e-04  t[s]:     47.76
	FillingsUpdate:  mu: -0.084018915  nElectrons: 9.000000  magneticMoment: [ Abs: 0.34012  Tot: +0.34000 ]
SCF: Cycle: 20   F: -24.453421294634872   dF: -5.754e-08   |Residual|: 1.873e-05   |deigs|: 7.223e-05  t[s]:     49.86
	FillingsUpdate:  mu: -0.084025562  nElectrons: 9.000000  magneticMoment: [ Abs: 0.34015  Tot: +0.34000 ]
SCF: Cycle: 21   F: -24.453421305397416   dF: -1.076e-08   |Residual|: 1.105e-05   |deigs|: 4.963e-05  t[s]:     51.91
	FillingsUpdate:  mu: -0.084017598  nElectrons: 9.000000  magneticMoment: [ Abs: 0.34015  Tot: +0.34000 ]
SCF: Cycle: 22   F: -24.453421312655948   dF: -7.259e-09   |Residual|: 7.288e-06   |deigs|: 3.506e-05  t[s]:     54.07
	FillingsUpdate:  mu: -0.084013238  nElectrons: 9.000000  magneticMoment: [ Abs: 0.34015  Tot: +0.34000 ]
SCF: Cycle: 23   F: -24.453421315376385   dF: -2.720e-09   |Residual|: 4.816e-06   |deigs|: 2.894e-05  t[s]:     56.18
SCF: Converged (|Delta E|<1.000000e-08 for 2 iters).


# Ionic positions in lattice coordinates:
ion Rb   0.000000000000000   0.000000000000000   0.000000000000000 0

# Forces in Lattice coordinates:
force Rb  -0.000000000000000  -0.000000000000000   0.000000000000000 0

# Energy components:
   Eewald =      -18.0480261003326561
       EH =        1.6505392547587112
     Eloc =      -10.5621706164687197
      Enl =       -0.7962934391737704
   Epulay =        0.0000000035676145
      Exc =       -3.6769790008664414
       KE =        6.9795092579615829
-------------------------------------
     Etot =      -24.4534206405536807
       TS =        0.0000006748227032
-------------------------------------
        F =      -24.4534213153763851

IonicMinimize: Iter:   0  F: -24.453421315376385  |grad|_K:  0.000e+00  t[s]:     56.31
IonicMinimize: Converged (|grad|_K<1.000000e-04).

#--- Lowdin population analysis ---
# oxidation-state Rb +0.047
# magnetic-moments Rb +0.305

End date and time: Sun Feb  6 12:49:02 2022  (Duration: 0-0:00:56.33)
Done!
scale=3
magnetization=0.34
--------------------------------------------------------------------------
The library attempted to open the following supporting CUDA libraries,
but each of them failed.  CUDA-aware support is disabled.
libcuda.so.1: cannot open shared object file: No such file or directory
libcuda.dylib: cannot open shared object file: No such file or directory
/usr/lib64/libcuda.so.1: cannot open shared object file: No such file or directory
/usr/lib64/libcuda.dylib: cannot open shared object file: No such file or directory
If you are not interested in CUDA-aware support, then run with
--mca opal_warn_on_missing_libcuda 0 to suppress this message.  If you are interested
in CUDA-aware support, then try setting LD_LIBRARY_PATH to the location
of libcuda.so.1 to get passed this issue.
--------------------------------------------------------------------------
--------------------------------------------------------------------------
No OpenFabrics connection schemes reported that they were able to be
used on a specific port.  As such, the openib BTL (OpenFabrics
support) will be disabled for this port.

  Local host:           d-18-7-1
  Local device:         mlx5_1
  Local port:           1
  CPCs attempted:       rdmacm, udcm
--------------------------------------------------------------------------

*************** JDFTx 1.6.0 (git hash 42ebbcc2) ***************

Start date and time: Sun Feb  6 12:49:03 2022
Executable jdftx with command-line: -i Alkali.in
Running on hosts (process indices):  d-18-7-1 (0-18)
Divided in process groups (process indices):  0 (0)  1 (1)  2 (2)  3 (3)  4 (4)  5 (5)  6 (6)  7 (7)  8 (8)  9 (9)  10 (10)  11 (11)  12 (12)  13 (13)  14 (14)  15 (15)  16 (16)  17 (17)  18 (18)
Resource initialization completed at t[s]:      0.00
Run totals: 19 processes, 48 threads, 0 GPUs


Input parsed successfully to the following command list (including defaults):

basis kpoint-dependent
coords-type Lattice
core-overlap-check vector
coulomb-interaction Slab 001
davidson-band-ratio 1.1
dump End None
dump-name $INPUT.$VAR
elec-cutoff 20
elec-eigen-algo Davidson
elec-ex-corr gga-PBE
elec-initial-magnetization 0.340000 yes
elec-smearing Fermi 1e-05
electronic-minimize  \
	dirUpdateScheme      FletcherReeves \
	linminMethod         DirUpdateRecommended \
	nIterations          100 \
	history              15 \
	knormThreshold       0 \
	energyDiffThreshold  1e-08 \
	nEnergyDiff          2 \
	alphaTstart          1 \
	alphaTmin            1e-10 \
	updateTestStepSize   yes \
	alphaTreduceFactor   0.1 \
	alphaTincreaseFactor 3 \
	nAlphaAdjustMax      3 \
	wolfeEnergy          0.0001 \
	wolfeGradient        0.9 \
	fdTest               no
electronic-scf  \
	nIterations	10000 \
	energyDiffThreshold	1e-08 \
	residualThreshold	1e-07 \
	mixFraction	0.5 \
	qMetric	0.8 \
	history	10 \
	nEigSteps	2 \
	eigDiffThreshold	1e-08 \
	mixedVariable	Density \
	qKerker	0.8 \
	qKappa	-1 \
	verbose	no \
	mixFractionMag	1.5
exchange-regularization WignerSeitzTruncated
fluid None
fluid-ex-corr (null) lda-PZ
fluid-gummel-loop 10 1.000000e-05
fluid-minimize  \
	dirUpdateScheme      PolakRibiere \
	linminMethod         DirUpdateRecommended \
	nIterations          100 \
	history              15 \
	knormThreshold       0 \
	energyDiffThreshold  0 \
	nEnergyDiff          2 \
	alphaTstart          1 \
	alphaTmin            1e-10 \
	updateTestStepSize   yes \
	alphaTreduceFactor   0.1 \
	alphaTincreaseFactor 3 \
	nAlphaAdjustMax      3 \
	wolfeEnergy          0.0001 \
	wolfeGradient        0.9 \
	fdTest               no
fluid-solvent H2O 55.338 ScalarEOS \
	epsBulk 78.4 \
	pMol 0.92466 \
	epsInf 1.77 \
	Pvap 1.06736e-10 \
	sigmaBulk 4.62e-05 \
	Rvdw 2.61727 \
	Res 1.42 \
	tauNuc 343133 \
	poleEl 15 7 1
forces-output-coords Positions
ion Rb   0.000000000000000   0.000000000000000   0.000000000000000 0
ion-species SG15/$ID_ONCV_PBE.upf
ion-width 0
ionic-minimize  \
	dirUpdateScheme      L-BFGS \
	linminMethod         DirUpdateRecommended \
	nIterations          0 \
	history              15 \
	knormThreshold       0.0001 \
	energyDiffThreshold  1e-06 \
	nEnergyDiff          2 \
	alphaTstart          1 \
	alphaTmin            1e-10 \
	updateTestStepSize   yes \
	alphaTreduceFactor   0.1 \
	alphaTincreaseFactor 3 \
	nAlphaAdjustMax      3 \
	wolfeEnergy          0.0001 \
	wolfeGradient        0.9 \
	fdTest               no
kpoint   0.000000000000   0.000000000000   0.000000000000  1.00000000000000
kpoint-folding 12 12 1 
latt-move-scale 1 1 1
latt-scale 3 3 1 
lattice  \
	   4.727486978767153   -2.363743489383575    0.000000000000000  \
	  -0.000000000000000    4.094123819672498    0.000000000000000  \
	   0.000000000000000    0.000000000000000   40.000000000000000 
lattice-minimize  \
	dirUpdateScheme      L-BFGS \
	linminMethod         DirUpdateRecommended \
	nIterations          0 \
	history              15 \
	knormThreshold       0 \
	energyDiffThreshold  1e-06 \
	nEnergyDiff          2 \
	alphaTstart          1 \
	alphaTmin            1e-10 \
	updateTestStepSize   yes \
	alphaTreduceFactor   0.1 \
	alphaTincreaseFactor 3 \
	nAlphaAdjustMax      3 \
	wolfeEnergy          0.0001 \
	wolfeGradient        0.9 \
	fdTest               no
lcao-params -1 1e-06 1e-05
pcm-variant GLSSA13
spintype z-spin
subspace-rotation-factor 1 yes
symmetries automatic
symmetry-threshold 0.0001



---------- Setting up symmetries ----------

Found 24 point-group symmetries of the bravais lattice
Found 24 space-group symmetries with basis
Applied RMS atom displacement 0 bohrs to make symmetries exact.

---------- Initializing the Grid ----------
R = 
[      14.1825     -7.09123            0  ]
[            0      12.2824            0  ]
[            0            0           40  ]
unit cell volume = 6967.77
G =
[   0.443025   0.255781         -0  ]
[          0   0.511561         -0  ]
[         -0         -0    0.15708  ]
Minimum fftbox size, Smin = [  60  60  164  ]
Chosen fftbox size, S = [  60  60  168  ]

---------- Exchange Correlation functional ----------
Initalized PBE GGA exchange.
Initalized PBE GGA correlation.

---------- Setting up pseudopotentials ----------
Width of ionic core gaussian charges (only for fluid interactions / plotting) set to 0

Reading pseudopotential file '/home/gridsan/aligho/DFT/build-Nov24/pseudopotentials/SG15/Rb_ONCV_PBE.upf':
  'Rb' pseudopotential, 'PBE' functional
  Generated using ONCVPSP code by D. R. Hamann
  Author: Martin Schlipf and Francois Gygi  Date: 150915.
  9 valence electrons, 3 orbitals, 6 projectors, 2308 radial grid points, with lMax = 2
  Transforming local potential to a uniform radial grid of dG=0.02 with 1489 points.
  Transforming nonlocal projectors to a uniform radial grid of dG=0.02 with 432 points.
    4S    l: 0   occupation:  2.0   eigenvalue: -1.172069
    4P    l: 1   occupation:  6.0   eigenvalue: -0.586674
    5S    l: 0   occupation:  1.0   eigenvalue: -0.082006
  Transforming atomic orbitals to a uniform radial grid of dG=0.02 with 432 points.
  Core radius for overlap checks: 2.60 bohrs.
  Reading pulay file /home/gridsan/aligho/DFT/build-Nov24/pseudopotentials/SG15/Rb_ONCV_PBE.pulay ... using dE_dnG = -1.360715e-05 computed for Ecut = 20.

Initialized 1 species with 1 total atoms.

Folded 1 k-points by 12x12x1 to 144 k-points.

---------- Setting up k-points, bands, fillings ----------
Reduced to 19 k-points under symmetry. 
Computing the number of bands and number of electrons
Calculating initial fillings.
nElectrons:   9.000000   nBands: 6   nStates: 38

----- Setting up reduced wavefunction bases (one per k-point) -----
average nbasis = 29766.104 , ideal nbasis = 29766.845

---------- Setting up coulomb interaction ----------
Initialized slab truncation along lattice direction 001

---------- Setting up 2D ewald sum ----------
Optimum gaussian width for ewald sums = 7.873530 bohr.
Real space sums over 289 unit cells with max indices [  8  8  0  ]
Reciprocal space sums over 81 terms with max indices [  4  4  0  ]

---------- Allocating electronic variables ----------
Initializing wave functions:  linear combination of atomic orbitals
Note: number of bands (6) exceeds available atomic orbitals (5)
Rb pseudo-atom occupations:   s ( 2 1 )  p ( 6 )
[d-18-7-1:25440] 18 more processes have sent help message help-mpi-common-cuda.txt / dlopen failed
[d-18-7-1:25440] Set MCA parameter "orte_base_help_aggregate" to 0 to see all help / error messages
[d-18-7-1:25440] 18 more processes have sent help message help-mpi-btl-openib-cpc-base.txt / no cpcs for port
	FillingsUpdate:  mu: -0.083654547  nElectrons: 9.000000  magneticMoment: [ Abs: 0.34000  Tot: +0.34000 ]
LCAOMinimize: Iter:   0  F: -24.4364301218950182  |grad|_K:  1.936e-05  alpha:  1.000e+00
	FillingsUpdate:  mu: -0.083650530  nElectrons: 9.000000  magneticMoment: [ Abs: 0.34000  Tot: +0.34000 ]
LCAOMinimize: Iter:   1  F: -24.4364303745816720  |grad|_K:  1.491e-07  alpha:  9.859e-01  linmin: -1.866e-02  cgtest:  4.481e-01  t[s]:      9.06
LCAOMinimize: Encountered beta<0, resetting CG.
	FillingsUpdate:  mu: -0.083650532  nElectrons: 9.000000  magneticMoment: [ Abs: 0.34000  Tot: +0.34000 ]
LCAOMinimize: Iter:   2  F: -24.4364303745969913  |grad|_K:  1.635e-09  alpha:  9.897e-01  linmin: -4.862e-02  cgtest:  9.921e-01  t[s]:     11.46
LCAOMinimize: Encountered beta<0, resetting CG.
LCAOMinimize: Converged (|Delta F|<1.000000e-06 for 2 iters).


---- Citations for features of the code used in this run ----

   Software package:
      R. Sundararaman, K. Letchworth-Weaver, K.A. Schwarz, D. Gunceler, Y. Ozhabes and T.A. Arias, 'JDFTx: software for joint density-functional theory', SoftwareX 6, 278 (2017)

   gga-PBE exchange-correlation functional:
      J.P. Perdew, K. Burke and M. Ernzerhof, Phys. Rev. Lett. 77, 3865 (1996)

   Pseudopotentials:
      M Schlipf and F Gygi, Comput. Phys. Commun. 196, 36 (2015)

   Truncated Coulomb potentials:
      R. Sundararaman and T.A. Arias, Phys. Rev. B 87, 165122 (2013)

This list may not be complete. Please suggest additional citations or
report any other bugs at https://github.com/shankar1729/jdftx/issues

Initialization completed successfully at t[s]:     11.63


-------- Electronic minimization -----------
Will mix electronic density at each iteration.
	FillingsUpdate:  mu: -0.083650532  nElectrons: 9.000000  magneticMoment: [ Abs: 0.34000  Tot: +0.34000 ]
	FillingsUpdate:  mu: -0.085735853  nElectrons: 9.000000  magneticMoment: [ Abs: 0.34000  Tot: +0.34000 ]
SCF: Cycle:  0   F: -24.438128561894011   dF: -1.698e-03   |Residual|: 3.866e-03   |deigs|: 1.737e-01  t[s]:     16.55
	FillingsUpdate:  mu: -0.085915940  nElectrons: 9.000000  magneticMoment: [ Abs: 0.34018  Tot: +0.34000 ]
SCF: Cycle:  1   F: -24.438178037561155   dF: -4.948e-05   |Residual|: 3.265e-03   |deigs|: 4.566e-03  t[s]:     20.33
	FillingsUpdate:  mu: -0.086235957  nElectrons: 9.000000  magneticMoment: [ Abs: 0.34196  Tot: +0.34000 ]
SCF: Cycle:  2   F: -24.438213904524378   dF: -3.587e-05   |Residual|: 2.050e-03   |deigs|: 2.575e-03  t[s]:     24.19
	FillingsUpdate:  mu: -0.086447315  nElectrons: 9.000000  magneticMoment: [ Abs: 0.34227  Tot: +0.34000 ]
SCF: Cycle:  3   F: -24.438228719696237   dF: -1.482e-05   |Residual|: 1.214e-03   |deigs|: 1.810e-03  t[s]:     28.17
	FillingsUpdate:  mu: -0.086440631  nElectrons: 9.000000  magneticMoment: [ Abs: 0.34053  Tot: +0.34000 ]
SCF: Cycle:  4   F: -24.438236599581586   dF: -7.880e-06   |Residual|: 6.572e-04   |deigs|: 2.416e-03  t[s]:     32.19
	FillingsUpdate:  mu: -0.086419544  nElectrons: 9.000000  magneticMoment: [ Abs: 0.34115  Tot: +0.34000 ]
SCF: Cycle:  5   F: -24.438241005298057   dF: -4.406e-06   |Residual|: 4.721e-04   |deigs|: 2.133e-03  t[s]:     36.24
	FillingsUpdate:  mu: -0.086277585  nElectrons: 9.000000  magneticMoment: [ Abs: 0.34109  Tot: +0.34000 ]
SCF: Cycle:  6   F: -24.438243267258507   dF: -2.262e-06   |Residual|: 3.509e-04   |deigs|: 9.179e-04  t[s]:     40.39
	FillingsUpdate:  mu: -0.086058280  nElectrons: 9.000000  magneticMoment: [ Abs: 0.34131  Tot: +0.34000 ]
SCF: Cycle:  7   F: -24.438243700780067   dF: -4.335e-07   |Residual|: 2.823e-04   |deigs|: 9.354e-04  t[s]:     44.56
	FillingsUpdate:  mu: -0.085803517  nElectrons: 9.000000  magneticMoment: [ Abs: 0.34221  Tot: +0.34000 ]
SCF: Cycle:  8   F: -24.438243816336673   dF: -1.156e-07   |Residual|: 2.320e-04   |deigs|: 3.330e-04  t[s]:     48.83
	FillingsUpdate:  mu: -0.085493536  nElectrons: 9.000000  magneticMoment: [ Abs: 0.34211  Tot: +0.34000 ]
SCF: Cycle:  9   F: -24.438242873744205   dF: +9.426e-07   |Residual|: 2.059e-04   |deigs|: 3.650e-04  t[s]:     53.19
	FillingsUpdate:  mu: -0.085225012  nElectrons: 9.000000  magneticMoment: [ Abs: 0.34197  Tot: +0.34000 ]
SCF: Cycle: 10   F: -24.438243233787993   dF: -3.600e-07   |Residual|: 1.863e-04   |deigs|: 3.686e-04  t[s]:     57.60
	FillingsUpdate:  mu: -0.085120358  nElectrons: 9.000000  magneticMoment: [ Abs: 0.34193  Tot: +0.34000 ]
SCF: Cycle: 11   F: -24.438244106381660   dF: -8.726e-07   |Residual|: 1.436e-04   |deigs|: 4.179e-04  t[s]:     62.05
	FillingsUpdate:  mu: -0.084895325  nElectrons: 9.000000  magneticMoment: [ Abs: 0.34210  Tot: +0.34000 ]
SCF: Cycle: 12   F: -24.438244421624333   dF: -3.152e-07   |Residual|: 1.340e-04   |deigs|: 3.558e-04  t[s]:     66.49
	FillingsUpdate:  mu: -0.084462001  nElectrons: 9.000000  magneticMoment: [ Abs: 0.34164  Tot: +0.34000 ]
SCF: Cycle: 13   F: -24.438243666678517   dF: +7.549e-07   |Residual|: 1.340e-04   |deigs|: 4.722e-04  t[s]:     70.95
	FillingsUpdate:  mu: -0.084326034  nElectrons: 9.000000  magneticMoment: [ Abs: 0.34138  Tot: +0.34000 ]
SCF: Cycle: 14   F: -24.438243987558639   dF: -3.209e-07   |Residual|: 1.221e-04   |deigs|: 3.680e-04  t[s]:     75.35
	FillingsUpdate:  mu: -0.084244290  nElectrons: 9.000000  magneticMoment: [ Abs: 0.34162  Tot: +0.34000 ]
SCF: Cycle: 15   F: -24.438244947371935   dF: -9.598e-07   |Residual|: 1.002e-04   |deigs|: 2.659e-04  t[s]:     79.76
	FillingsUpdate:  mu: -0.084013834  nElectrons: 9.000000  magneticMoment: [ Abs: 0.34128  Tot: +0.34000 ]
SCF: Cycle: 16   F: -24.438245502869002   dF: -5.555e-07   |Residual|: 7.274e-05   |deigs|: 2.665e-04  t[s]:     84.07
	FillingsUpdate:  mu: -0.083856457  nElectrons: 9.000000  magneticMoment: [ Abs: 0.34113  Tot: +0.34000 ]
SCF: Cycle: 17   F: -24.438245644328443   dF: -1.415e-07   |Residual|: 4.802e-05   |deigs|: 2.868e-04  t[s]:     88.43
	FillingsUpdate:  mu: -0.083870789  nElectrons: 9.000000  magneticMoment: [ Abs: 0.34112  Tot: +0.34000 ]
SCF: Cycle: 18   F: -24.438245751142535   dF: -1.068e-07   |Residual|: 3.115e-05   |deigs|: 1.410e-04  t[s]:     92.79
	FillingsUpdate:  mu: -0.083895305  nElectrons: 9.000000  magneticMoment: [ Abs: 0.34113  Tot: +0.34000 ]
SCF: Cycle: 19   F: -24.438245805935615   dF: -5.479e-08   |Residual|: 1.887e-05   |deigs|: 5.782e-05  t[s]:     97.22
	FillingsUpdate:  mu: -0.083888096  nElectrons: 9.000000  magneticMoment: [ Abs: 0.34112  Tot: +0.34000 ]
SCF: Cycle: 20   F: -24.438245817232900   dF: -1.130e-08   |Residual|: 1.243e-05   |deigs|: 2.263e-05  t[s]:    101.56
	FillingsUpdate:  mu: -0.083895714  nElectrons: 9.000000  magneticMoment: [ Abs: 0.34114  Tot: +0.34000 ]
SCF: Cycle: 21   F: -24.438245833069399   dF: -1.584e-08   |Residual|: 5.998e-06   |deigs|: 1.717e-05  t[s]:    105.94
	FillingsUpdate:  mu: -0.083899427  nElectrons: 9.000000  magneticMoment: [ Abs: 0.34114  Tot: +0.34000 ]
SCF: Cycle: 22   F: -24.438245835596039   dF: -2.527e-09   |Residual|: 4.061e-06   |deigs|: 9.726e-06  t[s]:    110.19
	FillingsUpdate:  mu: -0.083899991  nElectrons: 9.000000  magneticMoment: [ Abs: 0.34114  Tot: +0.34000 ]
SCF: Cycle: 23   F: -24.438245836611355   dF: -1.015e-09   |Residual|: 3.001e-06   |deigs|: 5.552e-06  t[s]:    114.60
SCF: Converged (|Delta E|<1.000000e-08 for 2 iters).


# Ionic positions in lattice coordinates:
ion Rb   0.000000000000000   0.000000000000000   0.000000000000000 0

# Forces in Lattice coordinates:
force Rb   0.000000000000000   0.000000000000000   0.000000000000000 0

# Energy components:
   Eewald =      -12.0320174002217755
       EH =        7.4908762297556128
     Eloc =      -22.4012199551682940
      Enl =       -0.7976497039705084
   Epulay =       -0.0000000014467880
      Exc =       -3.6473505134009998
       KE =        6.9491161826641008
-------------------------------------
     Etot =      -24.4382451617886503
       TS =        0.0000006748227032
-------------------------------------
        F =      -24.4382458366113546

IonicMinimize: Iter:   0  F: -24.438245836611355  |grad|_K:  0.000e+00  t[s]:    114.89
IonicMinimize: Converged (|grad|_K<1.000000e-04).

#--- Lowdin population analysis ---
# oxidation-state Rb +0.032
# magnetic-moments Rb +0.320

End date and time: Sun Feb  6 12:50:58 2022  (Duration: 0-0:01:54.93)
Done!
scale=4
magnetization=0.34
--------------------------------------------------------------------------
The library attempted to open the following supporting CUDA libraries,
but each of them failed.  CUDA-aware support is disabled.
libcuda.so.1: cannot open shared object file: No such file or directory
libcuda.dylib: cannot open shared object file: No such file or directory
/usr/lib64/libcuda.so.1: cannot open shared object file: No such file or directory
/usr/lib64/libcuda.dylib: cannot open shared object file: No such file or directory
If you are not interested in CUDA-aware support, then run with
--mca opal_warn_on_missing_libcuda 0 to suppress this message.  If you are interested
in CUDA-aware support, then try setting LD_LIBRARY_PATH to the location
of libcuda.so.1 to get passed this issue.
--------------------------------------------------------------------------
--------------------------------------------------------------------------
No OpenFabrics connection schemes reported that they were able to be
used on a specific port.  As such, the openib BTL (OpenFabrics
support) will be disabled for this port.

  Local host:           d-18-7-1
  Local device:         mlx5_1
  Local port:           1
  CPCs attempted:       rdmacm, udcm
--------------------------------------------------------------------------

*************** JDFTx 1.6.0 (git hash 42ebbcc2) ***************

Start date and time: Sun Feb  6 12:50:59 2022
Executable jdftx with command-line: -i Alkali.in
Running on hosts (process indices):  d-18-7-1 (0-18)
Divided in process groups (process indices):  0 (0)  1 (1)  2 (2)  3 (3)  4 (4)  5 (5)  6 (6)  7 (7)  8 (8)  9 (9)  10 (10)  11 (11)  12 (12)  13 (13)  14 (14)  15 (15)  16 (16)  17 (17)  18 (18)
Resource initialization completed at t[s]:      0.00
Run totals: 19 processes, 48 threads, 0 GPUs


Input parsed successfully to the following command list (including defaults):

basis kpoint-dependent
coords-type Lattice
core-overlap-check vector
coulomb-interaction Slab 001
davidson-band-ratio 1.1
dump End None
dump-name $INPUT.$VAR
elec-cutoff 20
elec-eigen-algo Davidson
elec-ex-corr gga-PBE
elec-initial-magnetization 0.340000 yes
elec-smearing Fermi 1e-05
electronic-minimize  \
	dirUpdateScheme      FletcherReeves \
	linminMethod         DirUpdateRecommended \
	nIterations          100 \
	history              15 \
	knormThreshold       0 \
	energyDiffThreshold  1e-08 \
	nEnergyDiff          2 \
	alphaTstart          1 \
	alphaTmin            1e-10 \
	updateTestStepSize   yes \
	alphaTreduceFactor   0.1 \
	alphaTincreaseFactor 3 \
	nAlphaAdjustMax      3 \
	wolfeEnergy          0.0001 \
	wolfeGradient        0.9 \
	fdTest               no
electronic-scf  \
	nIterations	10000 \
	energyDiffThreshold	1e-08 \
	residualThreshold	1e-07 \
	mixFraction	0.5 \
	qMetric	0.8 \
	history	10 \
	nEigSteps	2 \
	eigDiffThreshold	1e-08 \
	mixedVariable	Density \
	qKerker	0.8 \
	qKappa	-1 \
	verbose	no \
	mixFractionMag	1.5
exchange-regularization WignerSeitzTruncated
fluid None
fluid-ex-corr (null) lda-PZ
fluid-gummel-loop 10 1.000000e-05
fluid-minimize  \
	dirUpdateScheme      PolakRibiere \
	linminMethod         DirUpdateRecommended \
	nIterations          100 \
	history              15 \
	knormThreshold       0 \
	energyDiffThreshold  0 \
	nEnergyDiff          2 \
	alphaTstart          1 \
	alphaTmin            1e-10 \
	updateTestStepSize   yes \
	alphaTreduceFactor   0.1 \
	alphaTincreaseFactor 3 \
	nAlphaAdjustMax      3 \
	wolfeEnergy          0.0001 \
	wolfeGradient        0.9 \
	fdTest               no
fluid-solvent H2O 55.338 ScalarEOS \
	epsBulk 78.4 \
	pMol 0.92466 \
	epsInf 1.77 \
	Pvap 1.06736e-10 \
	sigmaBulk 4.62e-05 \
	Rvdw 2.61727 \
	Res 1.42 \
	tauNuc 343133 \
	poleEl 15 7 1
forces-output-coords Positions
ion Rb   0.000000000000000   0.000000000000000   0.000000000000000 0
ion-species SG15/$ID_ONCV_PBE.upf
ion-width 0
ionic-minimize  \
	dirUpdateScheme      L-BFGS \
	linminMethod         DirUpdateRecommended \
	nIterations          0 \
	history              15 \
	knormThreshold       0.0001 \
	energyDiffThreshold  1e-06 \
	nEnergyDiff          2 \
	alphaTstart          1 \
	alphaTmin            1e-10 \
	updateTestStepSize   yes \
	alphaTreduceFactor   0.1 \
	alphaTincreaseFactor 3 \
	nAlphaAdjustMax      3 \
	wolfeEnergy          0.0001 \
	wolfeGradient        0.9 \
	fdTest               no
kpoint   0.000000000000   0.000000000000   0.000000000000  1.00000000000000
kpoint-folding 12 12 1 
latt-move-scale 1 1 1
latt-scale 4 4 1 
lattice  \
	   4.727486978767153   -2.363743489383575    0.000000000000000  \
	  -0.000000000000000    4.094123819672498    0.000000000000000  \
	   0.000000000000000    0.000000000000000   40.000000000000000 
lattice-minimize  \
	dirUpdateScheme      L-BFGS \
	linminMethod         DirUpdateRecommended \
	nIterations          0 \
	history              15 \
	knormThreshold       0 \
	energyDiffThreshold  1e-06 \
	nEnergyDiff          2 \
	alphaTstart          1 \
	alphaTmin            1e-10 \
	updateTestStepSize   yes \
	alphaTreduceFactor   0.1 \
	alphaTincreaseFactor 3 \
	nAlphaAdjustMax      3 \
	wolfeEnergy          0.0001 \
	wolfeGradient        0.9 \
	fdTest               no
lcao-params -1 1e-06 1e-05
pcm-variant GLSSA13
spintype z-spin
subspace-rotation-factor 1 yes
symmetries automatic
symmetry-threshold 0.0001



---------- Setting up symmetries ----------

Found 24 point-group symmetries of the bravais lattice
Found 24 space-group symmetries with basis
Applied RMS atom displacement 0 bohrs to make symmetries exact.

---------- Initializing the Grid ----------
R = 
[      18.9099     -9.45497            0  ]
[            0      16.3765            0  ]
[            0            0           40  ]
unit cell volume = 12387.1
G =
[   0.332269   0.191835         -0  ]
[          0   0.383671         -0  ]
[         -0         -0    0.15708  ]
Minimum fftbox size, Smin = [  80  80  164  ]
Chosen fftbox size, S = [  80  80  168  ]

---------- Exchange Correlation functional ----------
Initalized PBE GGA exchange.
Initalized PBE GGA correlation.

---------- Setting up pseudopotentials ----------
Width of ionic core gaussian charges (only for fluid interactions / plotting) set to 0

Reading pseudopotential file '/home/gridsan/aligho/DFT/build-Nov24/pseudopotentials/SG15/Rb_ONCV_PBE.upf':
  'Rb' pseudopotential, 'PBE' functional
  Generated using ONCVPSP code by D. R. Hamann
  Author: Martin Schlipf and Francois Gygi  Date: 150915.
  9 valence electrons, 3 orbitals, 6 projectors, 2308 radial grid points, with lMax = 2
  Transforming local potential to a uniform radial grid of dG=0.02 with 1489 points.
  Transforming nonlocal projectors to a uniform radial grid of dG=0.02 with 432 points.
    4S    l: 0   occupation:  2.0   eigenvalue: -1.172069
    4P    l: 1   occupation:  6.0   eigenvalue: -0.586674
    5S    l: 0   occupation:  1.0   eigenvalue: -0.082006
  Transforming atomic orbitals to a uniform radial grid of dG=0.02 with 432 points.
  Core radius for overlap checks: 2.60 bohrs.
  Reading pulay file /home/gridsan/aligho/DFT/build-Nov24/pseudopotentials/SG15/Rb_ONCV_PBE.pulay ... using dE_dnG = -1.360715e-05 computed for Ecut = 20.

Initialized 1 species with 1 total atoms.

Folded 1 k-points by 12x12x1 to 144 k-points.

---------- Setting up k-points, bands, fillings ----------
Reduced to 19 k-points under symmetry. 
Computing the number of bands and number of electrons
Calculating initial fillings.
nElectrons:   9.000000   nBands: 6   nStates: 38

----- Setting up reduced wavefunction bases (one per k-point) -----
average nbasis = 52924.021 , ideal nbasis = 52918.836

---------- Setting up coulomb interaction ----------
Initialized slab truncation along lattice direction 001

---------- Setting up 2D ewald sum ----------
Optimum gaussian width for ewald sums = 10.498040 bohr.
Real space sums over 289 unit cells with max indices [  8  8  0  ]
Reciprocal space sums over 81 terms with max indices [  4  4  0  ]

---------- Allocating electronic variables ----------
Initializing wave functions:  linear combination of atomic orbitals
Note: number of bands (6) exceeds available atomic orbitals (5)
Rb pseudo-atom occupations:   s ( 2 1 )  p ( 6 )
[d-18-7-1:74163] 18 more processes have sent help message help-mpi-common-cuda.txt / dlopen failed
[d-18-7-1:74163] Set MCA parameter "orte_base_help_aggregate" to 0 to see all help / error messages
[d-18-7-1:74163] 18 more processes have sent help message help-mpi-btl-openib-cpc-base.txt / no cpcs for port
	FillingsUpdate:  mu: -0.082601547  nElectrons: 9.000000  magneticMoment: [ Abs: 0.34000  Tot: +0.34000 ]
LCAOMinimize: Iter:   0  F: -24.4309317627745877  |grad|_K:  4.824e-06  alpha:  1.000e+00
	FillingsUpdate:  mu: -0.082600504  nElectrons: 9.000000  magneticMoment: [ Abs: 0.34000  Tot: +0.34000 ]
LCAOMinimize: Iter:   1  F: -24.4309317784960776  |grad|_K:  2.513e-08  alpha:  9.877e-01  linmin: -1.704e-03  cgtest:  2.459e-01  t[s]:     15.44
LCAOMinimize: Encountered beta<0, resetting CG.
	FillingsUpdate:  mu: -0.082600503  nElectrons: 9.000000  magneticMoment: [ Abs: 0.34000  Tot: +0.34000 ]
LCAOMinimize: Iter:   2  F: -24.4309317784962552  |grad|_K:  1.516e-08  alpha:  1.603e+00  linmin:  5.298e-03  cgtest: -1.000e+00  t[s]:     19.52
LCAOMinimize: Converged (|Delta F|<1.000000e-06 for 2 iters).


---- Citations for features of the code used in this run ----

   Software package:
      R. Sundararaman, K. Letchworth-Weaver, K.A. Schwarz, D. Gunceler, Y. Ozhabes and T.A. Arias, 'JDFTx: software for joint density-functional theory', SoftwareX 6, 278 (2017)

   gga-PBE exchange-correlation functional:
      J.P. Perdew, K. Burke and M. Ernzerhof, Phys. Rev. Lett. 77, 3865 (1996)

   Pseudopotentials:
      M Schlipf and F Gygi, Comput. Phys. Commun. 196, 36 (2015)

   Truncated Coulomb potentials:
      R. Sundararaman and T.A. Arias, Phys. Rev. B 87, 165122 (2013)

This list may not be complete. Please suggest additional citations or
report any other bugs at https://github.com/shankar1729/jdftx/issues

Initialization completed successfully at t[s]:     19.79


-------- Electronic minimization -----------
Will mix electronic density at each iteration.
	FillingsUpdate:  mu: -0.082600503  nElectrons: 9.000000  magneticMoment: [ Abs: 0.34000  Tot: +0.34000 ]
	FillingsUpdate:  mu: -0.082698970  nElectrons: 9.000000  magneticMoment: [ Abs: 0.34000  Tot: +0.34000 ]
SCF: Cycle:  0   F: -24.431040663315525   dF: -1.089e-04   |Residual|: 9.333e-04   |deigs|: 1.751e-01  t[s]:     28.02
	FillingsUpdate:  mu: -0.082728595  nElectrons: 9.000000  magneticMoment: [ Abs: 0.34153  Tot: +0.34000 ]
SCF: Cycle:  1   F: -24.431042452823508   dF: -1.790e-06   |Residual|: 4.549e-04   |deigs|: 4.587e-03  t[s]:     34.61
	FillingsUpdate:  mu: -0.082761542  nElectrons: 9.000000  magneticMoment: [ Abs: 0.34165  Tot: +0.34000 ]
SCF: Cycle:  2   F: -24.431043009978438   dF: -5.572e-07   |Residual|: 3.560e-04   |deigs|: 1.427e-03  t[s]:     41.32
	FillingsUpdate:  mu: -0.082813508  nElectrons: 9.000000  magneticMoment: [ Abs: 0.34217  Tot: +0.34000 ]
SCF: Cycle:  3   F: -24.431043413695612   dF: -4.037e-07   |Residual|: 2.657e-04   |deigs|: 7.725e-04  t[s]:     48.10
	FillingsUpdate:  mu: -0.082882998  nElectrons: 9.000000  magneticMoment: [ Abs: 0.34202  Tot: +0.34000 ]
SCF: Cycle:  4   F: -24.431043998727890   dF: -5.850e-07   |Residual|: 1.767e-04   |deigs|: 4.625e-04  t[s]:     55.03
	FillingsUpdate:  mu: -0.082940613  nElectrons: 9.000000  magneticMoment: [ Abs: 0.34222  Tot: +0.34000 ]
SCF: Cycle:  5   F: -24.431044378463440   dF: -3.797e-07   |Residual|: 1.154e-04   |deigs|: 5.961e-04  t[s]:     62.06
	FillingsUpdate:  mu: -0.082946377  nElectrons: 9.000000  magneticMoment: [ Abs: 0.34218  Tot: +0.34000 ]
SCF: Cycle:  6   F: -24.431044588477555   dF: -2.100e-07   |Residual|: 7.583e-05   |deigs|: 7.081e-04  t[s]:     69.17
	FillingsUpdate:  mu: -0.082944335  nElectrons: 9.000000  magneticMoment: [ Abs: 0.34211  Tot: +0.34000 ]
SCF: Cycle:  7   F: -24.431044719116059   dF: -1.306e-07   |Residual|: 5.512e-05   |deigs|: 6.286e-04  t[s]:     76.42
	FillingsUpdate:  mu: -0.082929274  nElectrons: 9.000000  magneticMoment: [ Abs: 0.34206  Tot: +0.34000 ]
SCF: Cycle:  8   F: -24.431044786850652   dF: -6.773e-08   |Residual|: 4.270e-05   |deigs|: 5.199e-04  t[s]:     83.82
	FillingsUpdate:  mu: -0.082900880  nElectrons: 9.000000  magneticMoment: [ Abs: 0.34196  Tot: +0.34000 ]
SCF: Cycle:  9   F: -24.431044821550667   dF: -3.470e-08   |Residual|: 3.213e-05   |deigs|: 1.400e-04  t[s]:     91.36
	FillingsUpdate:  mu: -0.082879470  nElectrons: 9.000000  magneticMoment: [ Abs: 0.34198  Tot: +0.34000 ]
SCF: Cycle: 10   F: -24.431044820393478   dF: +1.157e-09   |Residual|: 2.927e-05   |deigs|: 5.646e-05  t[s]:     98.96
	FillingsUpdate:  mu: -0.082857097  nElectrons: 9.000000  magneticMoment: [ Abs: 0.34210  Tot: +0.34000 ]
SCF: Cycle: 11   F: -24.431044798345482   dF: +2.205e-08   |Residual|: 2.703e-05   |deigs|: 6.162e-05  t[s]:    106.54
	FillingsUpdate:  mu: -0.082823478  nElectrons: 9.000000  magneticMoment: [ Abs: 0.34211  Tot: +0.34000 ]
SCF: Cycle: 12   F: -24.431044717681907   dF: +8.066e-08   |Residual|: 2.430e-05   |deigs|: 9.966e-05  t[s]:    114.16
	FillingsUpdate:  mu: -0.082794064  nElectrons: 9.000000  magneticMoment: [ Abs: 0.34207  Tot: +0.34000 ]
SCF: Cycle: 13   F: -24.431044750174507   dF: -3.249e-08   |Residual|: 2.179e-05   |deigs|: 1.135e-04  t[s]:    121.74
	FillingsUpdate:  mu: -0.082771138  nElectrons: 9.000000  magneticMoment: [ Abs: 0.34208  Tot: +0.34000 ]
SCF: Cycle: 14   F: -24.431044741052713   dF: +9.122e-09   |Residual|: 2.010e-05   |deigs|: 9.025e-05  t[s]:    129.34
	FillingsUpdate:  mu: -0.082753616  nElectrons: 9.000000  magneticMoment: [ Abs: 0.34206  Tot: +0.34000 ]
SCF: Cycle: 15   F: -24.431044785282207   dF: -4.423e-08   |Residual|: 1.748e-05   |deigs|: 5.715e-05  t[s]:    136.91
	FillingsUpdate:  mu: -0.082728567  nElectrons: 9.000000  magneticMoment: [ Abs: 0.34204  Tot: +0.34000 ]
SCF: Cycle: 16   F: -24.431044812319378   dF: -2.704e-08   |Residual|: 1.688e-05   |deigs|: 3.883e-05  t[s]:    144.45
	FillingsUpdate:  mu: -0.082709242  nElectrons: 9.000000  magneticMoment: [ Abs: 0.34201  Tot: +0.34000 ]
SCF: Cycle: 17   F: -24.431044751547407   dF: +6.077e-08   |Residual|: 1.459e-05   |deigs|: 2.410e-05  t[s]:    151.95
	FillingsUpdate:  mu: -0.082703235  nElectrons: 9.000000  magneticMoment: [ Abs: 0.34195  Tot: +0.34000 ]
SCF: Cycle: 18   F: -24.431044809266748   dF: -5.772e-08   |Residual|: 1.143e-05   |deigs|: 1.049e-05  t[s]:    159.28
	FillingsUpdate:  mu: -0.082698011  nElectrons: 9.000000  magneticMoment: [ Abs: 0.34195  Tot: +0.34000 ]
SCF: Cycle: 19   F: -24.431044838397550   dF: -2.913e-08   |Residual|: 8.531e-06   |deigs|: 8.099e-06  t[s]:    166.34
	FillingsUpdate:  mu: -0.082689718  nElectrons: 9.000000  magneticMoment: [ Abs: 0.34198  Tot: +0.34000 ]
SCF: Cycle: 20   F: -24.431044858670372   dF: -2.027e-08   |Residual|: 5.629e-06   |deigs|: 1.035e-05  t[s]:    173.86
	FillingsUpdate:  mu: -0.082688569  nElectrons: 9.000000  magneticMoment: [ Abs: 0.34197  Tot: +0.34000 ]
SCF: Cycle: 21   F: -24.431044877284226   dF: -1.861e-08   |Residual|: 4.113e-06   |deigs|: 6.341e-06  t[s]:    180.87
	FillingsUpdate:  mu: -0.082687949  nElectrons: 9.000000  magneticMoment: [ Abs: 0.34196  Tot: +0.34000 ]
SCF: Cycle: 22   F: -24.431044878050699   dF: -7.665e-10   |Residual|: 3.075e-06   |deigs|: 9.271e-06  t[s]:    187.88
	FillingsUpdate:  mu: -0.082688159  nElectrons: 9.000000  magneticMoment: [ Abs: 0.34197  Tot: +0.34000 ]
SCF: Cycle: 23   F: -24.431044882045892   dF: -3.995e-09   |Residual|: 1.999e-06   |deigs|: 1.216e-05  t[s]:    195.43
SCF: Converged (|Delta E|<1.000000e-08 for 2 iters).


# Ionic positions in lattice coordinates:
ion Rb   0.000000000000000   0.000000000000000   0.000000000000000 0

# Forces in Lattice coordinates:
force Rb  -0.000000000000000   0.000000000000000   0.000000000000000 0

# Energy components:
   Eewald =       -9.0240130501663280
       EH =       10.5216853951125522
     Eloc =      -28.4457822809500982
      Enl =       -0.7930630391879869
   Epulay =        0.0000000056959385
      Exc =       -3.6484016626366733
       KE =        6.9585311441787301
-------------------------------------
     Etot =      -24.4310434879538647
       TS =        0.0000013940920260
-------------------------------------
        F =      -24.4310448820458923

IonicMinimize: Iter:   0  F: -24.431044882045892  |grad|_K:  0.000e+00  t[s]:    195.85
IonicMinimize: Converged (|grad|_K<1.000000e-04).

#--- Lowdin population analysis ---
# oxidation-state Rb +0.002
# magnetic-moments Rb +0.340

End date and time: Sun Feb  6 12:54:15 2022  (Duration: 0-0:03:15.93)
Done!
