The alkali metal is Rb
scale=2
magnetization=0.78
--------------------------------------------------------------------------
The library attempted to open the following supporting CUDA libraries,
but each of them failed.  CUDA-aware support is disabled.
libcuda.so.1: cannot open shared object file: No such file or directory
libcuda.dylib: cannot open shared object file: No such file or directory
/usr/lib64/libcuda.so.1: cannot open shared object file: No such file or directory
/usr/lib64/libcuda.dylib: cannot open shared object file: No such file or directory
If you are not interested in CUDA-aware support, then run with
--mca opal_warn_on_missing_libcuda 0 to suppress this message.  If you are interested
in CUDA-aware support, then try setting LD_LIBRARY_PATH to the location
of libcuda.so.1 to get passed this issue.
--------------------------------------------------------------------------
--------------------------------------------------------------------------
No OpenFabrics connection schemes reported that they were able to be
used on a specific port.  As such, the openib BTL (OpenFabrics
support) will be disabled for this port.

  Local host:           d-17-10-1
  Local device:         mlx5_1
  Local port:           1
  CPCs attempted:       rdmacm, udcm
--------------------------------------------------------------------------

*************** JDFTx 1.6.0 (git hash 42ebbcc2) ***************

Start date and time: Sun Feb  6 12:54:16 2022
Executable jdftx with command-line: -i Alkali.in
Running on hosts (process indices):  d-17-10-1 (0-18)
Divided in process groups (process indices):  0 (0)  1 (1)  2 (2)  3 (3)  4 (4)  5 (5)  6 (6)  7 (7)  8 (8)  9 (9)  10 (10)  11 (11)  12 (12)  13 (13)  14 (14)  15 (15)  16 (16)  17 (17)  18 (18)
Resource initialization completed at t[s]:      0.00
Run totals: 19 processes, 48 threads, 0 GPUs


Input parsed successfully to the following command list (including defaults):

basis kpoint-dependent
coords-type Lattice
core-overlap-check vector
coulomb-interaction Slab 001
davidson-band-ratio 1.1
dump End None
dump-name $INPUT.$VAR
elec-cutoff 20
elec-eigen-algo Davidson
elec-ex-corr gga-PBE
elec-initial-magnetization 0.780000 yes
elec-smearing Fermi 1e-05
electronic-minimize  \
	dirUpdateScheme      FletcherReeves \
	linminMethod         DirUpdateRecommended \
	nIterations          100 \
	history              15 \
	knormThreshold       0 \
	energyDiffThreshold  1e-08 \
	nEnergyDiff          2 \
	alphaTstart          1 \
	alphaTmin            1e-10 \
	updateTestStepSize   yes \
	alphaTreduceFactor   0.1 \
	alphaTincreaseFactor 3 \
	nAlphaAdjustMax      3 \
	wolfeEnergy          0.0001 \
	wolfeGradient        0.9 \
	fdTest               no
electronic-scf  \
	nIterations	10000 \
	energyDiffThreshold	1e-08 \
	residualThreshold	1e-07 \
	mixFraction	0.5 \
	qMetric	0.8 \
	history	10 \
	nEigSteps	2 \
	eigDiffThreshold	1e-08 \
	mixedVariable	Density \
	qKerker	0.8 \
	qKappa	-1 \
	verbose	no \
	mixFractionMag	1.5
exchange-regularization WignerSeitzTruncated
fluid None
fluid-ex-corr (null) lda-PZ
fluid-gummel-loop 10 1.000000e-05
fluid-minimize  \
	dirUpdateScheme      PolakRibiere \
	linminMethod         DirUpdateRecommended \
	nIterations          100 \
	history              15 \
	knormThreshold       0 \
	energyDiffThreshold  0 \
	nEnergyDiff          2 \
	alphaTstart          1 \
	alphaTmin            1e-10 \
	updateTestStepSize   yes \
	alphaTreduceFactor   0.1 \
	alphaTincreaseFactor 3 \
	nAlphaAdjustMax      3 \
	wolfeEnergy          0.0001 \
	wolfeGradient        0.9 \
	fdTest               no
fluid-solvent H2O 55.338 ScalarEOS \
	epsBulk 78.4 \
	pMol 0.92466 \
	epsInf 1.77 \
	Pvap 1.06736e-10 \
	sigmaBulk 4.62e-05 \
	Rvdw 2.61727 \
	Res 1.42 \
	tauNuc 343133 \
	poleEl 15 7 1
forces-output-coords Positions
ion Rb   0.000000000000000   0.000000000000000   0.000000000000000 0
ion-species SG15/$ID_ONCV_PBE.upf
ion-width 0
ionic-minimize  \
	dirUpdateScheme      L-BFGS \
	linminMethod         DirUpdateRecommended \
	nIterations          0 \
	history              15 \
	knormThreshold       0.0001 \
	energyDiffThreshold  1e-06 \
	nEnergyDiff          2 \
	alphaTstart          1 \
	alphaTmin            1e-10 \
	updateTestStepSize   yes \
	alphaTreduceFactor   0.1 \
	alphaTincreaseFactor 3 \
	nAlphaAdjustMax      3 \
	wolfeEnergy          0.0001 \
	wolfeGradient        0.9 \
	fdTest               no
kpoint   0.000000000000   0.000000000000   0.000000000000  1.00000000000000
kpoint-folding 12 12 1 
latt-move-scale 1 1 1
latt-scale 2 2 1 
lattice  \
	   4.727486978767153   -2.363743489383575    0.000000000000000  \
	  -0.000000000000000    4.094123819672498    0.000000000000000  \
	   0.000000000000000    0.000000000000000   40.000000000000000 
lattice-minimize  \
	dirUpdateScheme      L-BFGS \
	linminMethod         DirUpdateRecommended \
	nIterations          0 \
	history              15 \
	knormThreshold       0 \
	energyDiffThreshold  1e-06 \
	nEnergyDiff          2 \
	alphaTstart          1 \
	alphaTmin            1e-10 \
	updateTestStepSize   yes \
	alphaTreduceFactor   0.1 \
	alphaTincreaseFactor 3 \
	nAlphaAdjustMax      3 \
	wolfeEnergy          0.0001 \
	wolfeGradient        0.9 \
	fdTest               no
lcao-params -1 1e-06 1e-05
pcm-variant GLSSA13
spintype z-spin
subspace-rotation-factor 1 yes
symmetries automatic
symmetry-threshold 0.0001



---------- Setting up symmetries ----------

Found 24 point-group symmetries of the bravais lattice
Found 24 space-group symmetries with basis
Applied RMS atom displacement 0 bohrs to make symmetries exact.

---------- Initializing the Grid ----------
R = 
[      9.45497     -4.72749            0  ]
[            0      8.18825            0  ]
[            0            0           40  ]
unit cell volume = 3096.79
G =
[   0.664538   0.383671         -0  ]
[          0   0.767342         -0  ]
[         -0         -0    0.15708  ]
Minimum fftbox size, Smin = [  40  40  164  ]
Chosen fftbox size, S = [  40  40  168  ]

---------- Exchange Correlation functional ----------
Initalized PBE GGA exchange.
Initalized PBE GGA correlation.

---------- Setting up pseudopotentials ----------
Width of ionic core gaussian charges (only for fluid interactions / plotting) set to 0

Reading pseudopotential file '/home/gridsan/aligho/DFT/build-Nov24/pseudopotentials/SG15/Rb_ONCV_PBE.upf':
  'Rb' pseudopotential, 'PBE' functional
  Generated using ONCVPSP code by D. R. Hamann
  Author: Martin Schlipf and Francois Gygi  Date: 150915.
  9 valence electrons, 3 orbitals, 6 projectors, 2308 radial grid points, with lMax = 2
  Transforming local potential to a uniform radial grid of dG=0.02 with 1489 points.
  Transforming nonlocal projectors to a uniform radial grid of dG=0.02 with 432 points.
    4S    l: 0   occupation:  2.0   eigenvalue: -1.172069
    4P    l: 1   occupation:  6.0   eigenvalue: -0.586674
    5S    l: 0   occupation:  1.0   eigenvalue: -0.082006
  Transforming atomic orbitals to a uniform radial grid of dG=0.02 with 432 points.
  Core radius for overlap checks: 2.60 bohrs.
  Reading pulay file /home/gridsan/aligho/DFT/build-Nov24/pseudopotentials/SG15/Rb_ONCV_PBE.pulay ... using dE_dnG = -1.360715e-05 computed for Ecut = 20.

Initialized 1 species with 1 total atoms.

Folded 1 k-points by 12x12x1 to 144 k-points.

---------- Setting up k-points, bands, fillings ----------
Reduced to 19 k-points under symmetry. 
Computing the number of bands and number of electrons
Calculating initial fillings.
nElectrons:   9.000000   nBands: 6   nStates: 38

----- Setting up reduced wavefunction bases (one per k-point) -----
average nbasis = 13230.521 , ideal nbasis = 13229.709

---------- Setting up coulomb interaction ----------
Initialized slab truncation along lattice direction 001

---------- Setting up 2D ewald sum ----------
Optimum gaussian width for ewald sums = 5.249020 bohr.
Real space sums over 289 unit cells with max indices [  8  8  0  ]
Reciprocal space sums over 81 terms with max indices [  4  4  0  ]

---------- Allocating electronic variables ----------
Initializing wave functions:  linear combination of atomic orbitals
Note: number of bands (6) exceeds available atomic orbitals (5)
Rb pseudo-atom occupations:   s ( 2 1 )  p ( 6 )
	FillingsUpdate:  mu: -0.092643090  nElectrons: 9.000000  magneticMoment: [ Abs: 0.78000  Tot: +0.78000 ]
LCAOMinimize: Iter:   0  F: -24.4366815570393072  |grad|_K:  1.728e-05  alpha:  1.000e+00
	FillingsUpdate:  mu: -0.092637227  nElectrons: 9.000000  magneticMoment: [ Abs: 0.78000  Tot: +0.78000 ]
[d-17-10-1:21240] 18 more processes have sent help message help-mpi-common-cuda.txt / dlopen failed
LCAOMinimize: Iter:   1  F: -24.4366817574261681  |grad|_K:  1.772e-07  alpha:  9.813e-01  linmin: -1.413e-02  cgtest:  2.128e-01  t[s]:      4.67
LCAOMinimize: Encountered beta<0, resetting CG.
[d-17-10-1:21240] Set MCA parameter "orte_base_help_aggregate" to 0 to see all help / error messages
[d-17-10-1:21240] 18 more processes have sent help message help-mpi-btl-openib-cpc-base.txt / no cpcs for port
	FillingsUpdate:  mu: -0.092637273  nElectrons: 9.000000  magneticMoment: [ Abs: 0.78000  Tot: +0.78000 ]
LCAOMinimize: Iter:   2  F: -24.4366817574473529  |grad|_K:  3.406e-09  alpha:  9.816e-01  linmin: -1.318e-01  cgtest:  9.411e-01  t[s]:      5.88
LCAOMinimize: Encountered beta<0, resetting CG.
LCAOMinimize: Converged (|Delta F|<1.000000e-06 for 2 iters).


---- Citations for features of the code used in this run ----

   Software package:
      R. Sundararaman, K. Letchworth-Weaver, K.A. Schwarz, D. Gunceler, Y. Ozhabes and T.A. Arias, 'JDFTx: software for joint density-functional theory', SoftwareX 6, 278 (2017)

   gga-PBE exchange-correlation functional:
      J.P. Perdew, K. Burke and M. Ernzerhof, Phys. Rev. Lett. 77, 3865 (1996)

   Pseudopotentials:
      M Schlipf and F Gygi, Comput. Phys. Commun. 196, 36 (2015)

   Truncated Coulomb potentials:
      R. Sundararaman and T.A. Arias, Phys. Rev. B 87, 165122 (2013)

This list may not be complete. Please suggest additional citations or
report any other bugs at https://github.com/shankar1729/jdftx/issues

Initialization completed successfully at t[s]:      5.97


-------- Electronic minimization -----------
Will mix electronic density at each iteration.
	FillingsUpdate:  mu: -0.092637273  nElectrons: 9.000000  magneticMoment: [ Abs: 0.78000  Tot: +0.78000 ]
	FillingsUpdate:  mu: -0.103531015  nElectrons: 9.000000  magneticMoment: [ Abs: 0.78000  Tot: +0.78000 ]
SCF: Cycle:  0   F: -24.445853056845781   dF: -9.171e-03   |Residual|: 1.486e-02   |deigs|: 1.775e-01  t[s]:      8.47
	FillingsUpdate:  mu: -0.107611292  nElectrons: 9.000000  magneticMoment: [ Abs: 0.78000  Tot: +0.78000 ]
SCF: Cycle:  1   F: -24.446311209071510   dF: -4.582e-04   |Residual|: 1.060e-02   |deigs|: 8.417e-03  t[s]:     10.34
	FillingsUpdate:  mu: -0.107080827  nElectrons: 9.000000  magneticMoment: [ Abs: 0.78233  Tot: +0.78000 ]
SCF: Cycle:  2   F: -24.446613846986580   dF: -3.026e-04   |Residual|: 5.852e-03   |deigs|: 2.511e-03  t[s]:     12.24
	FillingsUpdate:  mu: -0.103531690  nElectrons: 9.000000  magneticMoment: [ Abs: 0.78000  Tot: +0.78000 ]
SCF: Cycle:  3   F: -24.446745780861953   dF: -1.319e-04   |Residual|: 3.190e-03   |deigs|: 3.004e-03  t[s]:     14.18
	FillingsUpdate:  mu: -0.101844675  nElectrons: 9.000000  magneticMoment: [ Abs: 0.78003  Tot: +0.78000 ]
SCF: Cycle:  4   F: -24.446799690407303   dF: -5.391e-05   |Residual|: 1.982e-03   |deigs|: 1.583e-03  t[s]:     16.12
	FillingsUpdate:  mu: -0.100729682  nElectrons: 9.000000  magneticMoment: [ Abs: 0.78008  Tot: +0.78000 ]
SCF: Cycle:  5   F: -24.446822116017096   dF: -2.243e-05   |Residual|: 1.696e-03   |deigs|: 3.184e-03  t[s]:     18.05
	FillingsUpdate:  mu: -0.098102822  nElectrons: 9.000000  magneticMoment: [ Abs: 0.78050  Tot: +0.78000 ]
SCF: Cycle:  6   F: -24.446830598381748   dF: -8.482e-06   |Residual|: 1.243e-03   |deigs|: 3.038e-03  t[s]:     20.01
	FillingsUpdate:  mu: -0.096108109  nElectrons: 9.000000  magneticMoment: [ Abs: 0.78237  Tot: +0.78000 ]
SCF: Cycle:  7   F: -24.446834518413830   dF: -3.920e-06   |Residual|: 9.399e-04   |deigs|: 2.366e-03  t[s]:     21.99
	FillingsUpdate:  mu: -0.095335910  nElectrons: 9.000000  magneticMoment: [ Abs: 0.78004  Tot: +0.78000 ]
SCF: Cycle:  8   F: -24.446851949253862   dF: -1.743e-05   |Residual|: 8.028e-04   |deigs|: 2.173e-03  t[s]:     24.00
	FillingsUpdate:  mu: -0.094966087  nElectrons: 9.000000  magneticMoment: [ Abs: 0.78101  Tot: +0.78000 ]
SCF: Cycle:  9   F: -24.446861308530956   dF: -9.359e-06   |Residual|: 6.534e-04   |deigs|: 1.087e-03  t[s]:     26.02
	FillingsUpdate:  mu: -0.094165292  nElectrons: 9.000000  magneticMoment: [ Abs: 0.78197  Tot: +0.78000 ]
SCF: Cycle: 10   F: -24.446859599775280   dF: +1.709e-06   |Residual|: 5.178e-04   |deigs|: 8.225e-04  t[s]:     28.14
	FillingsUpdate:  mu: -0.093215731  nElectrons: 9.000000  magneticMoment: [ Abs: 0.78224  Tot: +0.78000 ]
SCF: Cycle: 11   F: -24.446864850440654   dF: -5.251e-06   |Residual|: 5.003e-04   |deigs|: 1.113e-03  t[s]:     30.17
	FillingsUpdate:  mu: -0.092706638  nElectrons: 9.000000  magneticMoment: [ Abs: 0.78328  Tot: +0.78000 ]
SCF: Cycle: 12   F: -24.446868941508313   dF: -4.091e-06   |Residual|: 4.163e-04   |deigs|: 6.178e-04  t[s]:     32.28
	FillingsUpdate:  mu: -0.091576662  nElectrons: 9.000000  magneticMoment: [ Abs: 0.78344  Tot: +0.78000 ]
SCF: Cycle: 13   F: -24.446872289159867   dF: -3.348e-06   |Residual|: 3.917e-04   |deigs|: 1.282e-03  t[s]:     34.30
	FillingsUpdate:  mu: -0.090206100  nElectrons: 9.000000  magneticMoment: [ Abs: 0.78206  Tot: +0.78000 ]
SCF: Cycle: 14   F: -24.446875225363929   dF: -2.936e-06   |Residual|: 3.723e-04   |deigs|: 1.591e-03  t[s]:     36.39
	FillingsUpdate:  mu: -0.089638581  nElectrons: 9.000000  magneticMoment: [ Abs: 0.78146  Tot: +0.78000 ]
SCF: Cycle: 15   F: -24.446877243624318   dF: -2.018e-06   |Residual|: 3.143e-04   |deigs|: 7.207e-04  t[s]:     38.45
	FillingsUpdate:  mu: -0.089160632  nElectrons: 9.000000  magneticMoment: [ Abs: 0.78064  Tot: +0.78000 ]
SCF: Cycle: 16   F: -24.446880415653776   dF: -3.172e-06   |Residual|: 2.022e-04   |deigs|: 7.324e-04  t[s]:     40.55
	FillingsUpdate:  mu: -0.089019132  nElectrons: 9.000000  magneticMoment: [ Abs: 0.78029  Tot: +0.78000 ]
SCF: Cycle: 17   F: -24.446881444846248   dF: -1.029e-06   |Residual|: 1.476e-04   |deigs|: 5.504e-04  t[s]:     42.55
	FillingsUpdate:  mu: -0.088924693  nElectrons: 9.000000  magneticMoment: [ Abs: 0.78067  Tot: +0.78000 ]
SCF: Cycle: 18   F: -24.446881985593244   dF: -5.407e-07   |Residual|: 9.141e-05   |deigs|: 3.448e-04  t[s]:     44.56
	FillingsUpdate:  mu: -0.088948306  nElectrons: 9.000000  magneticMoment: [ Abs: 0.78065  Tot: +0.78000 ]
SCF: Cycle: 19   F: -24.446882285545506   dF: -3.000e-07   |Residual|: 5.437e-05   |deigs|: 2.797e-04  t[s]:     46.62
	FillingsUpdate:  mu: -0.088997461  nElectrons: 9.000000  magneticMoment: [ Abs: 0.78041  Tot: +0.78000 ]
SCF: Cycle: 20   F: -24.446882441378779   dF: -1.558e-07   |Residual|: 4.118e-05   |deigs|: 1.069e-04  t[s]:     48.72
	FillingsUpdate:  mu: -0.089082458  nElectrons: 9.000000  magneticMoment: [ Abs: 0.78033  Tot: +0.78000 ]
SCF: Cycle: 21   F: -24.446882544305240   dF: -1.029e-07   |Residual|: 2.984e-05   |deigs|: 1.137e-04  t[s]:     50.79
	FillingsUpdate:  mu: -0.089123866  nElectrons: 9.000000  magneticMoment: [ Abs: 0.78040  Tot: +0.78000 ]
SCF: Cycle: 22   F: -24.446882584925945   dF: -4.062e-08   |Residual|: 2.375e-05   |deigs|: 5.978e-05  t[s]:     52.93
	FillingsUpdate:  mu: -0.089073814  nElectrons: 9.000000  magneticMoment: [ Abs: 0.78038  Tot: +0.78000 ]
SCF: Cycle: 23   F: -24.446882608236706   dF: -2.331e-08   |Residual|: 1.791e-05   |deigs|: 1.357e-04  t[s]:     54.94
	FillingsUpdate:  mu: -0.089039754  nElectrons: 9.000000  magneticMoment: [ Abs: 0.78040  Tot: +0.78000 ]
SCF: Cycle: 24   F: -24.446882633078232   dF: -2.484e-08   |Residual|: 1.662e-05   |deigs|: 8.300e-05  t[s]:     56.97
	FillingsUpdate:  mu: -0.089009686  nElectrons: 9.000000  magneticMoment: [ Abs: 0.78031  Tot: +0.78000 ]
SCF: Cycle: 25   F: -24.446882635727295   dF: -2.649e-09   |Residual|: 1.285e-05   |deigs|: 3.927e-05  t[s]:     59.03
	FillingsUpdate:  mu: -0.089003810  nElectrons: 9.000000  magneticMoment: [ Abs: 0.78017  Tot: +0.78000 ]
SCF: Cycle: 26   F: -24.446882637794715   dF: -2.067e-09   |Residual|: 9.280e-06   |deigs|: 2.176e-05  t[s]:     61.08
SCF: Converged (|Delta E|<1.000000e-08 for 2 iters).


# Ionic positions in lattice coordinates:
ion Rb   0.000000000000000   0.000000000000000   0.000000000000000 0

# Forces in Lattice coordinates:
force Rb  -0.000000000000000   0.000000000000000   0.000000000000000 0

# Energy components:
   Eewald =      -18.0480261003326561
       EH =        1.6386710154547357
     Eloc =      -10.5499718437209733
      Enl =       -0.7990520814630484
   Epulay =        0.0000000035676145
      Exc =       -3.6809001545153350
       KE =        6.9923970996518507
-------------------------------------
     Etot =      -24.4468820613578117
       TS =        0.0000005764369028
-------------------------------------
        F =      -24.4468826377947153

IonicMinimize: Iter:   0  F: -24.446882637794715  |grad|_K:  0.000e+00  t[s]:     61.20
IonicMinimize: Converged (|grad|_K<1.000000e-04).

#--- Lowdin population analysis ---
# oxidation-state Rb +0.124
# magnetic-moments Rb +0.660

End date and time: Sun Feb  6 12:55:17 2022  (Duration: 0-0:01:01.23)
Done!
scale=3
magnetization=0.78
--------------------------------------------------------------------------
The library attempted to open the following supporting CUDA libraries,
but each of them failed.  CUDA-aware support is disabled.
libcuda.so.1: cannot open shared object file: No such file or directory
libcuda.dylib: cannot open shared object file: No such file or directory
/usr/lib64/libcuda.so.1: cannot open shared object file: No such file or directory
/usr/lib64/libcuda.dylib: cannot open shared object file: No such file or directory
If you are not interested in CUDA-aware support, then run with
--mca opal_warn_on_missing_libcuda 0 to suppress this message.  If you are interested
in CUDA-aware support, then try setting LD_LIBRARY_PATH to the location
of libcuda.so.1 to get passed this issue.
--------------------------------------------------------------------------
--------------------------------------------------------------------------
No OpenFabrics connection schemes reported that they were able to be
used on a specific port.  As such, the openib BTL (OpenFabrics
support) will be disabled for this port.

  Local host:           d-17-10-1
  Local device:         mlx5_1
  Local port:           1
  CPCs attempted:       rdmacm, udcm
--------------------------------------------------------------------------

*************** JDFTx 1.6.0 (git hash 42ebbcc2) ***************

Start date and time: Sun Feb  6 12:55:18 2022
Executable jdftx with command-line: -i Alkali.in
Running on hosts (process indices):  d-17-10-1 (0-18)
Divided in process groups (process indices):  0 (0)  1 (1)  2 (2)  3 (3)  4 (4)  5 (5)  6 (6)  7 (7)  8 (8)  9 (9)  10 (10)  11 (11)  12 (12)  13 (13)  14 (14)  15 (15)  16 (16)  17 (17)  18 (18)
Resource initialization completed at t[s]:      0.00
Run totals: 19 processes, 48 threads, 0 GPUs


Input parsed successfully to the following command list (including defaults):

basis kpoint-dependent
coords-type Lattice
core-overlap-check vector
coulomb-interaction Slab 001
davidson-band-ratio 1.1
dump End None
dump-name $INPUT.$VAR
elec-cutoff 20
elec-eigen-algo Davidson
elec-ex-corr gga-PBE
elec-initial-magnetization 0.780000 yes
elec-smearing Fermi 1e-05
electronic-minimize  \
	dirUpdateScheme      FletcherReeves \
	linminMethod         DirUpdateRecommended \
	nIterations          100 \
	history              15 \
	knormThreshold       0 \
	energyDiffThreshold  1e-08 \
	nEnergyDiff          2 \
	alphaTstart          1 \
	alphaTmin            1e-10 \
	updateTestStepSize   yes \
	alphaTreduceFactor   0.1 \
	alphaTincreaseFactor 3 \
	nAlphaAdjustMax      3 \
	wolfeEnergy          0.0001 \
	wolfeGradient        0.9 \
	fdTest               no
electronic-scf  \
	nIterations	10000 \
	energyDiffThreshold	1e-08 \
	residualThreshold	1e-07 \
	mixFraction	0.5 \
	qMetric	0.8 \
	history	10 \
	nEigSteps	2 \
	eigDiffThreshold	1e-08 \
	mixedVariable	Density \
	qKerker	0.8 \
	qKappa	-1 \
	verbose	no \
	mixFractionMag	1.5
exchange-regularization WignerSeitzTruncated
fluid None
fluid-ex-corr (null) lda-PZ
fluid-gummel-loop 10 1.000000e-05
fluid-minimize  \
	dirUpdateScheme      PolakRibiere \
	linminMethod         DirUpdateRecommended \
	nIterations          100 \
	history              15 \
	knormThreshold       0 \
	energyDiffThreshold  0 \
	nEnergyDiff          2 \
	alphaTstart          1 \
	alphaTmin            1e-10 \
	updateTestStepSize   yes \
	alphaTreduceFactor   0.1 \
	alphaTincreaseFactor 3 \
	nAlphaAdjustMax      3 \
	wolfeEnergy          0.0001 \
	wolfeGradient        0.9 \
	fdTest               no
fluid-solvent H2O 55.338 ScalarEOS \
	epsBulk 78.4 \
	pMol 0.92466 \
	epsInf 1.77 \
	Pvap 1.06736e-10 \
	sigmaBulk 4.62e-05 \
	Rvdw 2.61727 \
	Res 1.42 \
	tauNuc 343133 \
	poleEl 15 7 1
forces-output-coords Positions
ion Rb   0.000000000000000   0.000000000000000   0.000000000000000 0
ion-species SG15/$ID_ONCV_PBE.upf
ion-width 0
ionic-minimize  \
	dirUpdateScheme      L-BFGS \
	linminMethod         DirUpdateRecommended \
	nIterations          0 \
	history              15 \
	knormThreshold       0.0001 \
	energyDiffThreshold  1e-06 \
	nEnergyDiff          2 \
	alphaTstart          1 \
	alphaTmin            1e-10 \
	updateTestStepSize   yes \
	alphaTreduceFactor   0.1 \
	alphaTincreaseFactor 3 \
	nAlphaAdjustMax      3 \
	wolfeEnergy          0.0001 \
	wolfeGradient        0.9 \
	fdTest               no
kpoint   0.000000000000   0.000000000000   0.000000000000  1.00000000000000
kpoint-folding 12 12 1 
latt-move-scale 1 1 1
latt-scale 3 3 1 
lattice  \
	   4.727486978767153   -2.363743489383575    0.000000000000000  \
	  -0.000000000000000    4.094123819672498    0.000000000000000  \
	   0.000000000000000    0.000000000000000   40.000000000000000 
lattice-minimize  \
	dirUpdateScheme      L-BFGS \
	linminMethod         DirUpdateRecommended \
	nIterations          0 \
	history              15 \
	knormThreshold       0 \
	energyDiffThreshold  1e-06 \
	nEnergyDiff          2 \
	alphaTstart          1 \
	alphaTmin            1e-10 \
	updateTestStepSize   yes \
	alphaTreduceFactor   0.1 \
	alphaTincreaseFactor 3 \
	nAlphaAdjustMax      3 \
	wolfeEnergy          0.0001 \
	wolfeGradient        0.9 \
	fdTest               no
lcao-params -1 1e-06 1e-05
pcm-variant GLSSA13
spintype z-spin
subspace-rotation-factor 1 yes
symmetries automatic
symmetry-threshold 0.0001



---------- Setting up symmetries ----------

Found 24 point-group symmetries of the bravais lattice
Found 24 space-group symmetries with basis
Applied RMS atom displacement 0 bohrs to make symmetries exact.

---------- Initializing the Grid ----------
R = 
[      14.1825     -7.09123            0  ]
[            0      12.2824            0  ]
[            0            0           40  ]
unit cell volume = 6967.77
G =
[   0.443025   0.255781         -0  ]
[          0   0.511561         -0  ]
[         -0         -0    0.15708  ]
Minimum fftbox size, Smin = [  60  60  164  ]
Chosen fftbox size, S = [  60  60  168  ]

---------- Exchange Correlation functional ----------
Initalized PBE GGA exchange.
Initalized PBE GGA correlation.

---------- Setting up pseudopotentials ----------
Width of ionic core gaussian charges (only for fluid interactions / plotting) set to 0

Reading pseudopotential file '/home/gridsan/aligho/DFT/build-Nov24/pseudopotentials/SG15/Rb_ONCV_PBE.upf':
  'Rb' pseudopotential, 'PBE' functional
  Generated using ONCVPSP code by D. R. Hamann
  Author: Martin Schlipf and Francois Gygi  Date: 150915.
  9 valence electrons, 3 orbitals, 6 projectors, 2308 radial grid points, with lMax = 2
  Transforming local potential to a uniform radial grid of dG=0.02 with 1489 points.
  Transforming nonlocal projectors to a uniform radial grid of dG=0.02 with 432 points.
    4S    l: 0   occupation:  2.0   eigenvalue: -1.172069
    4P    l: 1   occupation:  6.0   eigenvalue: -0.586674
    5S    l: 0   occupation:  1.0   eigenvalue: -0.082006
  Transforming atomic orbitals to a uniform radial grid of dG=0.02 with 432 points.
  Core radius for overlap checks: 2.60 bohrs.
  Reading pulay file /home/gridsan/aligho/DFT/build-Nov24/pseudopotentials/SG15/Rb_ONCV_PBE.pulay ... using dE_dnG = -1.360715e-05 computed for Ecut = 20.

Initialized 1 species with 1 total atoms.

Folded 1 k-points by 12x12x1 to 144 k-points.

---------- Setting up k-points, bands, fillings ----------
Reduced to 19 k-points under symmetry. 
Computing the number of bands and number of electrons
Calculating initial fillings.
nElectrons:   9.000000   nBands: 6   nStates: 38

----- Setting up reduced wavefunction bases (one per k-point) -----
average nbasis = 29766.104 , ideal nbasis = 29766.845

---------- Setting up coulomb interaction ----------
Initialized slab truncation along lattice direction 001

---------- Setting up 2D ewald sum ----------
Optimum gaussian width for ewald sums = 7.873530 bohr.
Real space sums over 289 unit cells with max indices [  8  8  0  ]
Reciprocal space sums over 81 terms with max indices [  4  4  0  ]

---------- Allocating electronic variables ----------
Initializing wave functions:  linear combination of atomic orbitals
Note: number of bands (6) exceeds available atomic orbitals (5)
Rb pseudo-atom occupations:   s ( 2 1 )  p ( 6 )
[d-17-10-1:84463] 18 more processes have sent help message help-mpi-common-cuda.txt / dlopen failed
[d-17-10-1:84463] Set MCA parameter "orte_base_help_aggregate" to 0 to see all help / error messages
[d-17-10-1:84463] 18 more processes have sent help message help-mpi-btl-openib-cpc-base.txt / no cpcs for port
	FillingsUpdate:  mu: -0.085775582  nElectrons: 9.000000  magneticMoment: [ Abs: 0.78000  Tot: +0.78000 ]
LCAOMinimize: Iter:   0  F: -24.4349153742200755  |grad|_K:  8.632e-06  alpha:  1.000e+00
	FillingsUpdate:  mu: -0.085773899  nElectrons: 9.000000  magneticMoment: [ Abs: 0.78000  Tot: +0.78000 ]
LCAOMinimize: Iter:   1  F: -24.4349154247475688  |grad|_K:  6.021e-08  alpha:  9.913e-01  linmin: -7.093e-03  cgtest:  1.594e-01  t[s]:      8.76
LCAOMinimize: Encountered beta<0, resetting CG.
	FillingsUpdate:  mu: -0.085773905  nElectrons: 9.000000  magneticMoment: [ Abs: 0.78000  Tot: +0.78000 ]
LCAOMinimize: Iter:   2  F: -24.4349154247497253  |grad|_K:  4.414e-09  alpha:  9.244e-01  linmin: -1.083e-01  cgtest:  9.969e-01  t[s]:     11.12
LCAOMinimize: Encountered beta<0, resetting CG.
LCAOMinimize: Converged (|Delta F|<1.000000e-06 for 2 iters).


---- Citations for features of the code used in this run ----

   Software package:
      R. Sundararaman, K. Letchworth-Weaver, K.A. Schwarz, D. Gunceler, Y. Ozhabes and T.A. Arias, 'JDFTx: software for joint density-functional theory', SoftwareX 6, 278 (2017)

   gga-PBE exchange-correlation functional:
      J.P. Perdew, K. Burke and M. Ernzerhof, Phys. Rev. Lett. 77, 3865 (1996)

   Pseudopotentials:
      M Schlipf and F Gygi, Comput. Phys. Commun. 196, 36 (2015)

   Truncated Coulomb potentials:
      R. Sundararaman and T.A. Arias, Phys. Rev. B 87, 165122 (2013)

This list may not be complete. Please suggest additional citations or
report any other bugs at https://github.com/shankar1729/jdftx/issues

Initialization completed successfully at t[s]:     11.28


-------- Electronic minimization -----------
Will mix electronic density at each iteration.
	FillingsUpdate:  mu: -0.085773905  nElectrons: 9.000000  magneticMoment: [ Abs: 0.78000  Tot: +0.78000 ]
	FillingsUpdate:  mu: -0.086599837  nElectrons: 9.000000  magneticMoment: [ Abs: 0.78000  Tot: +0.78000 ]
SCF: Cycle:  0   F: -24.436323730187308   dF: -1.408e-03   |Residual|: 3.822e-03   |deigs|: 1.734e-01  t[s]:     16.10
	FillingsUpdate:  mu: -0.086849912  nElectrons: 9.000000  magneticMoment: [ Abs: 0.78144  Tot: +0.78000 ]
SCF: Cycle:  1   F: -24.436386575233207   dF: -6.285e-05   |Residual|: 2.819e-03   |deigs|: 5.040e-03  t[s]:     19.78
	FillingsUpdate:  mu: -0.087117583  nElectrons: 9.000000  magneticMoment: [ Abs: 0.78347  Tot: +0.78000 ]
SCF: Cycle:  2   F: -24.436426194709433   dF: -3.962e-05   |Residual|: 2.169e-03   |deigs|: 1.795e-03  t[s]:     23.55
	FillingsUpdate:  mu: -0.087460089  nElectrons: 9.000000  magneticMoment: [ Abs: 0.78447  Tot: +0.78000 ]
SCF: Cycle:  3   F: -24.436460080080728   dF: -3.389e-05   |Residual|: 1.609e-03   |deigs|: 2.766e-03  t[s]:     27.48
	FillingsUpdate:  mu: -0.087382394  nElectrons: 9.000000  magneticMoment: [ Abs: 0.78283  Tot: +0.78000 ]
SCF: Cycle:  4   F: -24.436481144890831   dF: -2.106e-05   |Residual|: 9.058e-04   |deigs|: 1.899e-03  t[s]:     31.37
	FillingsUpdate:  mu: -0.087319892  nElectrons: 9.000000  magneticMoment: [ Abs: 0.78347  Tot: +0.78000 ]
SCF: Cycle:  5   F: -24.436487798334486   dF: -6.653e-06   |Residual|: 5.210e-04   |deigs|: 1.329e-03  t[s]:     35.37
	FillingsUpdate:  mu: -0.087246316  nElectrons: 9.000000  magneticMoment: [ Abs: 0.78308  Tot: +0.78000 ]
SCF: Cycle:  6   F: -24.436491773734797   dF: -3.975e-06   |Residual|: 3.862e-04   |deigs|: 1.313e-03  t[s]:     39.40
	FillingsUpdate:  mu: -0.087063660  nElectrons: 9.000000  magneticMoment: [ Abs: 0.78342  Tot: +0.78000 ]
SCF: Cycle:  7   F: -24.436493728814984   dF: -1.955e-06   |Residual|: 2.927e-04   |deigs|: 8.142e-04  t[s]:     43.47
	FillingsUpdate:  mu: -0.086750826  nElectrons: 9.000000  magneticMoment: [ Abs: 0.78406  Tot: +0.78000 ]
SCF: Cycle:  8   F: -24.436493427237824   dF: +3.016e-07   |Residual|: 2.472e-04   |deigs|: 4.113e-04  t[s]:     47.58
	FillingsUpdate:  mu: -0.086375818  nElectrons: 9.000000  magneticMoment: [ Abs: 0.78444  Tot: +0.78000 ]
SCF: Cycle:  9   F: -24.436492770880609   dF: +6.564e-07   |Residual|: 2.248e-04   |deigs|: 4.627e-04  t[s]:     51.84
	FillingsUpdate:  mu: -0.086171038  nElectrons: 9.000000  magneticMoment: [ Abs: 0.78383  Tot: +0.78000 ]
SCF: Cycle: 10   F: -24.436493844235851   dF: -1.073e-06   |Residual|: 1.933e-04   |deigs|: 2.160e-04  t[s]:     56.18
	FillingsUpdate:  mu: -0.086143349  nElectrons: 9.000000  magneticMoment: [ Abs: 0.78421  Tot: +0.78000 ]
SCF: Cycle: 11   F: -24.436495460149843   dF: -1.616e-06   |Residual|: 1.390e-04   |deigs|: 2.391e-04  t[s]:     60.55
	FillingsUpdate:  mu: -0.085929258  nElectrons: 9.000000  magneticMoment: [ Abs: 0.78459  Tot: +0.78000 ]
SCF: Cycle: 12   F: -24.436495711531435   dF: -2.514e-07   |Residual|: 1.318e-04   |deigs|: 2.594e-04  t[s]:     64.81
	FillingsUpdate:  mu: -0.085615611  nElectrons: 9.000000  magneticMoment: [ Abs: 0.78454  Tot: +0.78000 ]
SCF: Cycle: 13   F: -24.436495687134101   dF: +2.440e-08   |Residual|: 1.312e-04   |deigs|: 3.453e-04  t[s]:     69.19
	FillingsUpdate:  mu: -0.085378078  nElectrons: 9.000000  magneticMoment: [ Abs: 0.78433  Tot: +0.78000 ]
SCF: Cycle: 14   F: -24.436495527213705   dF: +1.599e-07   |Residual|: 1.213e-04   |deigs|: 3.847e-04  t[s]:     73.51
	FillingsUpdate:  mu: -0.085267545  nElectrons: 9.000000  magneticMoment: [ Abs: 0.78428  Tot: +0.78000 ]
SCF: Cycle: 15   F: -24.436496266821781   dF: -7.396e-07   |Residual|: 1.007e-04   |deigs|: 3.680e-04  t[s]:     77.77
	FillingsUpdate:  mu: -0.085064516  nElectrons: 9.000000  magneticMoment: [ Abs: 0.78349  Tot: +0.78000 ]
SCF: Cycle: 16   F: -24.436496855022437   dF: -5.882e-07   |Residual|: 8.187e-05   |deigs|: 2.562e-04  t[s]:     82.09
	FillingsUpdate:  mu: -0.084946187  nElectrons: 9.000000  magneticMoment: [ Abs: 0.78325  Tot: +0.78000 ]
SCF: Cycle: 17   F: -24.436497024596317   dF: -1.696e-07   |Residual|: 6.346e-05   |deigs|: 1.350e-04  t[s]:     86.42
	FillingsUpdate:  mu: -0.084932293  nElectrons: 9.000000  magneticMoment: [ Abs: 0.78328  Tot: +0.78000 ]
SCF: Cycle: 18   F: -24.436497100815490   dF: -7.622e-08   |Residual|: 4.323e-05   |deigs|: 5.527e-05  t[s]:     90.74
	FillingsUpdate:  mu: -0.084919539  nElectrons: 9.000000  magneticMoment: [ Abs: 0.78330  Tot: +0.78000 ]
SCF: Cycle: 19   F: -24.436497325811288   dF: -2.250e-07   |Residual|: 2.535e-05   |deigs|: 4.690e-05  t[s]:     95.01
	FillingsUpdate:  mu: -0.084909128  nElectrons: 9.000000  magneticMoment: [ Abs: 0.78331  Tot: +0.78000 ]
SCF: Cycle: 20   F: -24.436497362056116   dF: -3.624e-08   |Residual|: 1.577e-05   |deigs|: 2.991e-05  t[s]:     99.16
	FillingsUpdate:  mu: -0.084913356  nElectrons: 9.000000  magneticMoment: [ Abs: 0.78332  Tot: +0.78000 ]
SCF: Cycle: 21   F: -24.436497389486089   dF: -2.743e-08   |Residual|: 9.848e-06   |deigs|: 1.692e-05  t[s]:    103.42
	FillingsUpdate:  mu: -0.084913060  nElectrons: 9.000000  magneticMoment: [ Abs: 0.78332  Tot: +0.78000 ]
SCF: Cycle: 22   F: -24.436497398615217   dF: -9.129e-09   |Residual|: 6.476e-06   |deigs|: 9.706e-06  t[s]:    107.69
	FillingsUpdate:  mu: -0.084915931  nElectrons: 9.000000  magneticMoment: [ Abs: 0.78333  Tot: +0.78000 ]
SCF: Cycle: 23   F: -24.436497404304244   dF: -5.689e-09   |Residual|: 4.445e-06   |deigs|: 7.546e-06  t[s]:    112.00
SCF: Converged (|Delta E|<1.000000e-08 for 2 iters).


# Ionic positions in lattice coordinates:
ion Rb   0.000000000000000   0.000000000000000   0.000000000000000 0

# Forces in Lattice coordinates:
force Rb   0.000000000000000   0.000000000000000   0.000000000000000 0

# Energy components:
   Eewald =      -12.0320174002217755
       EH =        7.5173013044254908
     Eloc =      -22.4306762012913232
      Enl =       -0.7960643794876929
   Epulay =       -0.0000000014467880
      Exc =       -3.6514143280756999
       KE =        6.9563741468484865
-------------------------------------
     Etot =      -24.4364968592493028
       TS =        0.0000005450549413
-------------------------------------
        F =      -24.4364974043042444

IonicMinimize: Iter:   0  F: -24.436497404304244  |grad|_K:  0.000e+00  t[s]:    112.26
IonicMinimize: Converged (|grad|_K<1.000000e-04).

#--- Lowdin population analysis ---
# oxidation-state Rb +0.033
# magnetic-moments Rb +0.749

End date and time: Sun Feb  6 12:57:10 2022  (Duration: 0-0:01:52.31)
Done!
scale=4
magnetization=0.78
--------------------------------------------------------------------------
The library attempted to open the following supporting CUDA libraries,
but each of them failed.  CUDA-aware support is disabled.
libcuda.so.1: cannot open shared object file: No such file or directory
libcuda.dylib: cannot open shared object file: No such file or directory
/usr/lib64/libcuda.so.1: cannot open shared object file: No such file or directory
/usr/lib64/libcuda.dylib: cannot open shared object file: No such file or directory
If you are not interested in CUDA-aware support, then run with
--mca opal_warn_on_missing_libcuda 0 to suppress this message.  If you are interested
in CUDA-aware support, then try setting LD_LIBRARY_PATH to the location
of libcuda.so.1 to get passed this issue.
--------------------------------------------------------------------------
--------------------------------------------------------------------------
No OpenFabrics connection schemes reported that they were able to be
used on a specific port.  As such, the openib BTL (OpenFabrics
support) will be disabled for this port.

  Local host:           d-17-10-1
  Local device:         mlx5_1
  Local port:           1
  CPCs attempted:       rdmacm, udcm
--------------------------------------------------------------------------

*************** JDFTx 1.6.0 (git hash 42ebbcc2) ***************

Start date and time: Sun Feb  6 12:57:11 2022
Executable jdftx with command-line: -i Alkali.in
Running on hosts (process indices):  d-17-10-1 (0-18)
Divided in process groups (process indices):  0 (0)  1 (1)  2 (2)  3 (3)  4 (4)  5 (5)  6 (6)  7 (7)  8 (8)  9 (9)  10 (10)  11 (11)  12 (12)  13 (13)  14 (14)  15 (15)  16 (16)  17 (17)  18 (18)
Resource initialization completed at t[s]:      0.00
Run totals: 19 processes, 48 threads, 0 GPUs


Input parsed successfully to the following command list (including defaults):

basis kpoint-dependent
coords-type Lattice
core-overlap-check vector
coulomb-interaction Slab 001
davidson-band-ratio 1.1
dump End None
dump-name $INPUT.$VAR
elec-cutoff 20
elec-eigen-algo Davidson
elec-ex-corr gga-PBE
elec-initial-magnetization 0.780000 yes
elec-smearing Fermi 1e-05
electronic-minimize  \
	dirUpdateScheme      FletcherReeves \
	linminMethod         DirUpdateRecommended \
	nIterations          100 \
	history              15 \
	knormThreshold       0 \
	energyDiffThreshold  1e-08 \
	nEnergyDiff          2 \
	alphaTstart          1 \
	alphaTmin            1e-10 \
	updateTestStepSize   yes \
	alphaTreduceFactor   0.1 \
	alphaTincreaseFactor 3 \
	nAlphaAdjustMax      3 \
	wolfeEnergy          0.0001 \
	wolfeGradient        0.9 \
	fdTest               no
electronic-scf  \
	nIterations	10000 \
	energyDiffThreshold	1e-08 \
	residualThreshold	1e-07 \
	mixFraction	0.5 \
	qMetric	0.8 \
	history	10 \
	nEigSteps	2 \
	eigDiffThreshold	1e-08 \
	mixedVariable	Density \
	qKerker	0.8 \
	qKappa	-1 \
	verbose	no \
	mixFractionMag	1.5
exchange-regularization WignerSeitzTruncated
fluid None
fluid-ex-corr (null) lda-PZ
fluid-gummel-loop 10 1.000000e-05
fluid-minimize  \
	dirUpdateScheme      PolakRibiere \
	linminMethod         DirUpdateRecommended \
	nIterations          100 \
	history              15 \
	knormThreshold       0 \
	energyDiffThreshold  0 \
	nEnergyDiff          2 \
	alphaTstart          1 \
	alphaTmin            1e-10 \
	updateTestStepSize   yes \
	alphaTreduceFactor   0.1 \
	alphaTincreaseFactor 3 \
	nAlphaAdjustMax      3 \
	wolfeEnergy          0.0001 \
	wolfeGradient        0.9 \
	fdTest               no
fluid-solvent H2O 55.338 ScalarEOS \
	epsBulk 78.4 \
	pMol 0.92466 \
	epsInf 1.77 \
	Pvap 1.06736e-10 \
	sigmaBulk 4.62e-05 \
	Rvdw 2.61727 \
	Res 1.42 \
	tauNuc 343133 \
	poleEl 15 7 1
forces-output-coords Positions
ion Rb   0.000000000000000   0.000000000000000   0.000000000000000 0
ion-species SG15/$ID_ONCV_PBE.upf
ion-width 0
ionic-minimize  \
	dirUpdateScheme      L-BFGS \
	linminMethod         DirUpdateRecommended \
	nIterations          0 \
	history              15 \
	knormThreshold       0.0001 \
	energyDiffThreshold  1e-06 \
	nEnergyDiff          2 \
	alphaTstart          1 \
	alphaTmin            1e-10 \
	updateTestStepSize   yes \
	alphaTreduceFactor   0.1 \
	alphaTincreaseFactor 3 \
	nAlphaAdjustMax      3 \
	wolfeEnergy          0.0001 \
	wolfeGradient        0.9 \
	fdTest               no
kpoint   0.000000000000   0.000000000000   0.000000000000  1.00000000000000
kpoint-folding 12 12 1 
latt-move-scale 1 1 1
latt-scale 4 4 1 
lattice  \
	   4.727486978767153   -2.363743489383575    0.000000000000000  \
	  -0.000000000000000    4.094123819672498    0.000000000000000  \
	   0.000000000000000    0.000000000000000   40.000000000000000 
lattice-minimize  \
	dirUpdateScheme      L-BFGS \
	linminMethod         DirUpdateRecommended \
	nIterations          0 \
	history              15 \
	knormThreshold       0 \
	energyDiffThreshold  1e-06 \
	nEnergyDiff          2 \
	alphaTstart          1 \
	alphaTmin            1e-10 \
	updateTestStepSize   yes \
	alphaTreduceFactor   0.1 \
	alphaTincreaseFactor 3 \
	nAlphaAdjustMax      3 \
	wolfeEnergy          0.0001 \
	wolfeGradient        0.9 \
	fdTest               no
lcao-params -1 1e-06 1e-05
pcm-variant GLSSA13
spintype z-spin
subspace-rotation-factor 1 yes
symmetries automatic
symmetry-threshold 0.0001



---------- Setting up symmetries ----------

Found 24 point-group symmetries of the bravais lattice
Found 24 space-group symmetries with basis
Applied RMS atom displacement 0 bohrs to make symmetries exact.

---------- Initializing the Grid ----------
R = 
[      18.9099     -9.45497            0  ]
[            0      16.3765            0  ]
[            0            0           40  ]
unit cell volume = 12387.1
G =
[   0.332269   0.191835         -0  ]
[          0   0.383671         -0  ]
[         -0         -0    0.15708  ]
Minimum fftbox size, Smin = [  80  80  164  ]
Chosen fftbox size, S = [  80  80  168  ]

---------- Exchange Correlation functional ----------
Initalized PBE GGA exchange.
Initalized PBE GGA correlation.

---------- Setting up pseudopotentials ----------
Width of ionic core gaussian charges (only for fluid interactions / plotting) set to 0

Reading pseudopotential file '/home/gridsan/aligho/DFT/build-Nov24/pseudopotentials/SG15/Rb_ONCV_PBE.upf':
  'Rb' pseudopotential, 'PBE' functional
  Generated using ONCVPSP code by D. R. Hamann
  Author: Martin Schlipf and Francois Gygi  Date: 150915.
  9 valence electrons, 3 orbitals, 6 projectors, 2308 radial grid points, with lMax = 2
  Transforming local potential to a uniform radial grid of dG=0.02 with 1489 points.
  Transforming nonlocal projectors to a uniform radial grid of dG=0.02 with 432 points.
    4S    l: 0   occupation:  2.0   eigenvalue: -1.172069
    4P    l: 1   occupation:  6.0   eigenvalue: -0.586674
    5S    l: 0   occupation:  1.0   eigenvalue: -0.082006
  Transforming atomic orbitals to a uniform radial grid of dG=0.02 with 432 points.
  Core radius for overlap checks: 2.60 bohrs.
  Reading pulay file /home/gridsan/aligho/DFT/build-Nov24/pseudopotentials/SG15/Rb_ONCV_PBE.pulay ... using dE_dnG = -1.360715e-05 computed for Ecut = 20.

Initialized 1 species with 1 total atoms.

Folded 1 k-points by 12x12x1 to 144 k-points.

---------- Setting up k-points, bands, fillings ----------
Reduced to 19 k-points under symmetry. 
Computing the number of bands and number of electrons
Calculating initial fillings.
nElectrons:   9.000000   nBands: 6   nStates: 38

----- Setting up reduced wavefunction bases (one per k-point) -----
average nbasis = 52924.021 , ideal nbasis = 52918.836

---------- Setting up coulomb interaction ----------
Initialized slab truncation along lattice direction 001

---------- Setting up 2D ewald sum ----------
Optimum gaussian width for ewald sums = 10.498040 bohr.
Real space sums over 289 unit cells with max indices [  8  8  0  ]
Reciprocal space sums over 81 terms with max indices [  4  4  0  ]

---------- Allocating electronic variables ----------
Initializing wave functions:  linear combination of atomic orbitals
Note: number of bands (6) exceeds available atomic orbitals (5)
Rb pseudo-atom occupations:   s ( 2 1 )  p ( 6 )
[d-17-10-1:37092] 18 more processes have sent help message help-mpi-common-cuda.txt / dlopen failed
[d-17-10-1:37092] Set MCA parameter "orte_base_help_aggregate" to 0 to see all help / error messages
[d-17-10-1:37092] 18 more processes have sent help message help-mpi-btl-openib-cpc-base.txt / no cpcs for port
	FillingsUpdate:  mu: -0.082530151  nElectrons: 9.000000  magneticMoment: [ Abs: 0.78000  Tot: +0.78000 ]
LCAOMinimize: Iter:   0  F: -24.4325538947262615  |grad|_K:  2.233e-06  alpha:  1.000e+00
	FillingsUpdate:  mu: -0.082529655  nElectrons: 9.000000  magneticMoment: [ Abs: 0.78000  Tot: +0.78000 ]
LCAOMinimize: Iter:   1  F: -24.4325538981049100  |grad|_K:  1.187e-08  alpha:  9.906e-01  linmin: -3.349e-03  cgtest:  9.435e-02  t[s]:     15.08
LCAOMinimize: Encountered beta<0, resetting CG.
LCAOMinimize: 	Wrong curvature in test step, increasing alphaT to 2.971840e+00.
	FillingsUpdate:  mu: -0.082529656  nElectrons: 9.000000  magneticMoment: [ Abs: 0.78000  Tot: +0.78000 ]
LCAOMinimize: Iter:   2  F: -24.4325538981052155  |grad|_K:  1.056e-10  alpha: -8.314e-01  linmin: -3.900e-02  cgtest:  8.538e-01  t[s]:     19.04
LCAOMinimize: Encountered beta<0, resetting CG.
LCAOMinimize: Converged (|Delta F|<1.000000e-06 for 2 iters).


---- Citations for features of the code used in this run ----

   Software package:
      R. Sundararaman, K. Letchworth-Weaver, K.A. Schwarz, D. Gunceler, Y. Ozhabes and T.A. Arias, 'JDFTx: software for joint density-functional theory', SoftwareX 6, 278 (2017)

   gga-PBE exchange-correlation functional:
      J.P. Perdew, K. Burke and M. Ernzerhof, Phys. Rev. Lett. 77, 3865 (1996)

   Pseudopotentials:
      M Schlipf and F Gygi, Comput. Phys. Commun. 196, 36 (2015)

   Truncated Coulomb potentials:
      R. Sundararaman and T.A. Arias, Phys. Rev. B 87, 165122 (2013)

This list may not be complete. Please suggest additional citations or
report any other bugs at https://github.com/shankar1729/jdftx/issues

Initialization completed successfully at t[s]:     19.30


-------- Electronic minimization -----------
Will mix electronic density at each iteration.
	FillingsUpdate:  mu: -0.082529656  nElectrons: 9.000000  magneticMoment: [ Abs: 0.78000  Tot: +0.78000 ]
	FillingsUpdate:  mu: -0.082634120  nElectrons: 9.000000  magneticMoment: [ Abs: 0.78000  Tot: +0.78000 ]
SCF: Cycle:  0   F: -24.432668653286790   dF: -1.148e-04   |Residual|: 1.783e-03   |deigs|: 1.689e-01  t[s]:     27.48
	FillingsUpdate:  mu: -0.082621085  nElectrons: 9.000000  magneticMoment: [ Abs: 0.78428  Tot: +0.78000 ]
SCF: Cycle:  1   F: -24.432671050119566   dF: -2.397e-06   |Residual|: 4.267e-04   |deigs|: 1.017e-02  t[s]:     33.94
	FillingsUpdate:  mu: -0.082587069  nElectrons: 9.000000  magneticMoment: [ Abs: 0.78427  Tot: +0.78000 ]
SCF: Cycle:  2   F: -24.432671631675547   dF: -5.816e-07   |Residual|: 2.559e-04   |deigs|: 1.509e-03  t[s]:     40.54
	FillingsUpdate:  mu: -0.082559493  nElectrons: 9.000000  magneticMoment: [ Abs: 0.78488  Tot: +0.78000 ]
SCF: Cycle:  3   F: -24.432671955981839   dF: -3.243e-07   |Residual|: 1.942e-04   |deigs|: 7.321e-04  t[s]:     47.16
	FillingsUpdate:  mu: -0.082487479  nElectrons: 9.000000  magneticMoment: [ Abs: 0.78485  Tot: +0.78000 ]
SCF: Cycle:  4   F: -24.432672212417653   dF: -2.564e-07   |Residual|: 1.382e-04   |deigs|: 7.036e-04  t[s]:     53.92
	FillingsUpdate:  mu: -0.082383099  nElectrons: 9.000000  magneticMoment: [ Abs: 0.78485  Tot: +0.78000 ]
SCF: Cycle:  5   F: -24.432672317102668   dF: -1.047e-07   |Residual|: 9.029e-05   |deigs|: 6.405e-04  t[s]:     60.78
	FillingsUpdate:  mu: -0.082329744  nElectrons: 9.000000  magneticMoment: [ Abs: 0.78476  Tot: +0.78000 ]
SCF: Cycle:  6   F: -24.432672391645369   dF: -7.454e-08   |Residual|: 7.157e-05   |deigs|: 2.797e-04  t[s]:     67.76
	FillingsUpdate:  mu: -0.082309291  nElectrons: 9.000000  magneticMoment: [ Abs: 0.78480  Tot: +0.78000 ]
SCF: Cycle:  7   F: -24.432672448345418   dF: -5.670e-08   |Residual|: 5.697e-05   |deigs|: 2.146e-04  t[s]:     74.92
	FillingsUpdate:  mu: -0.082284744  nElectrons: 9.000000  magneticMoment: [ Abs: 0.78479  Tot: +0.78000 ]
SCF: Cycle:  8   F: -24.432672494882858   dF: -4.654e-08   |Residual|: 4.839e-05   |deigs|: 1.565e-04  t[s]:     82.14
	FillingsUpdate:  mu: -0.082255576  nElectrons: 9.000000  magneticMoment: [ Abs: 0.78479  Tot: +0.78000 ]
SCF: Cycle:  9   F: -24.432672497415791   dF: -2.533e-09   |Residual|: 4.116e-05   |deigs|: 1.543e-04  t[s]:     89.39
	FillingsUpdate:  mu: -0.082232962  nElectrons: 9.000000  magneticMoment: [ Abs: 0.78482  Tot: +0.78000 ]
SCF: Cycle: 10   F: -24.432672441218070   dF: +5.620e-08   |Residual|: 3.526e-05   |deigs|: 1.409e-04  t[s]:     96.82
	FillingsUpdate:  mu: -0.082200697  nElectrons: 9.000000  magneticMoment: [ Abs: 0.78489  Tot: +0.78000 ]
SCF: Cycle: 11   F: -24.432672387595659   dF: +5.362e-08   |Residual|: 3.017e-05   |deigs|: 1.119e-04  t[s]:    104.24
	FillingsUpdate:  mu: -0.082178185  nElectrons: 9.000000  magneticMoment: [ Abs: 0.78501  Tot: +0.78000 ]
SCF: Cycle: 12   F: -24.432672002849870   dF: +3.847e-07   |Residual|: 2.766e-05   |deigs|: 9.729e-05  t[s]:    111.72
	FillingsUpdate:  mu: -0.082186458  nElectrons: 9.000000  magneticMoment: [ Abs: 0.78494  Tot: +0.78000 ]
SCF: Cycle: 13   F: -24.432672354164943   dF: -3.513e-07   |Residual|: 2.766e-05   |deigs|: 3.620e-05  t[s]:    119.06
	FillingsUpdate:  mu: -0.082138069  nElectrons: 9.000000  magneticMoment: [ Abs: 0.78499  Tot: +0.78000 ]
SCF: Cycle: 14   F: -24.432672529177825   dF: -1.750e-07   |Residual|: 2.262e-05   |deigs|: 5.469e-05  t[s]:    126.10
	FillingsUpdate:  mu: -0.082096772  nElectrons: 9.000000  magneticMoment: [ Abs: 0.78496  Tot: +0.78000 ]
SCF: Cycle: 15   F: -24.432672323688049   dF: +2.055e-07   |Residual|: 2.304e-05   |deigs|: 5.171e-05  t[s]:    133.31
	FillingsUpdate:  mu: -0.082063118  nElectrons: 9.000000  magneticMoment: [ Abs: 0.78485  Tot: +0.78000 ]
SCF: Cycle: 16   F: -24.432672440434043   dF: -1.167e-07   |Residual|: 1.985e-05   |deigs|: 4.232e-05  t[s]:    140.64
	FillingsUpdate:  mu: -0.082047381  nElectrons: 9.000000  magneticMoment: [ Abs: 0.78486  Tot: +0.78000 ]
SCF: Cycle: 17   F: -24.432672441632477   dF: -1.198e-09   |Residual|: 1.208e-05   |deigs|: 3.304e-05  t[s]:    148.01
	FillingsUpdate:  mu: -0.082040111  nElectrons: 9.000000  magneticMoment: [ Abs: 0.78482  Tot: +0.78000 ]
SCF: Cycle: 18   F: -24.432672530556143   dF: -8.892e-08   |Residual|: 8.106e-06   |deigs|: 3.254e-05  t[s]:    155.39
	FillingsUpdate:  mu: -0.082031626  nElectrons: 9.000000  magneticMoment: [ Abs: 0.78480  Tot: +0.78000 ]
SCF: Cycle: 19   F: -24.432672590142943   dF: -5.959e-08   |Residual|: 4.911e-06   |deigs|: 3.540e-05  t[s]:    162.20
	FillingsUpdate:  mu: -0.082027315  nElectrons: 9.000000  magneticMoment: [ Abs: 0.78480  Tot: +0.78000 ]
SCF: Cycle: 20   F: -24.432672595451852   dF: -5.309e-09   |Residual|: 3.606e-06   |deigs|: 3.649e-05  t[s]:    168.96
	FillingsUpdate:  mu: -0.082026705  nElectrons: 9.000000  magneticMoment: [ Abs: 0.78479  Tot: +0.78000 ]
SCF: Cycle: 21   F: -24.432672602461079   dF: -7.009e-09   |Residual|: 2.833e-06   |deigs|: 3.522e-05  t[s]:    176.31
SCF: Converged (|Delta E|<1.000000e-08 for 2 iters).


# Ionic positions in lattice coordinates:
ion Rb   0.000000000000000   0.000000000000000   0.000000000000000 0

# Forces in Lattice coordinates:
force Rb  -0.000000000000000  -0.000000000000000   0.000000000000000 0

# Energy components:
   Eewald =       -9.0240130501663280
       EH =       10.5442214646764718
     Eloc =      -28.4700333688809835
      Enl =       -0.7923137866724690
   Epulay =        0.0000000056959385
      Exc =       -3.6529334816595509
       KE =        6.9624001596015326
-------------------------------------
     Etot =      -24.4326720574053908
       TS =        0.0000005450556890
-------------------------------------
        F =      -24.4326726024610785

IonicMinimize: Iter:   0  F: -24.432672602461079  |grad|_K:  0.000e+00  t[s]:    176.72
IonicMinimize: Converged (|grad|_K<1.000000e-04).

#--- Lowdin population analysis ---
# oxidation-state Rb +0.001
# magnetic-moments Rb +0.779

End date and time: Sun Feb  6 13:00:08 2022  (Duration: 0-0:02:56.79)
Done!
