The alkali metal is Rb
scale=2
magnetization=0.16
--------------------------------------------------------------------------
The library attempted to open the following supporting CUDA libraries,
but each of them failed.  CUDA-aware support is disabled.
libcuda.so.1: cannot open shared object file: No such file or directory
libcuda.dylib: cannot open shared object file: No such file or directory
/usr/lib64/libcuda.so.1: cannot open shared object file: No such file or directory
/usr/lib64/libcuda.dylib: cannot open shared object file: No such file or directory
If you are not interested in CUDA-aware support, then run with
--mca opal_warn_on_missing_libcuda 0 to suppress this message.  If you are interested
in CUDA-aware support, then try setting LD_LIBRARY_PATH to the location
of libcuda.so.1 to get passed this issue.
--------------------------------------------------------------------------
--------------------------------------------------------------------------
No OpenFabrics connection schemes reported that they were able to be
used on a specific port.  As such, the openib BTL (OpenFabrics
support) will be disabled for this port.

  Local host:           d-17-6-4
  Local device:         mlx5_1
  Local port:           1
  CPCs attempted:       rdmacm, udcm
--------------------------------------------------------------------------

*************** JDFTx 1.6.0 (git hash 42ebbcc2) ***************

Start date and time: Sun Feb  6 12:47:35 2022
Executable jdftx with command-line: -i Alkali.in
Running on hosts (process indices):  d-17-6-4 (0-18)
Divided in process groups (process indices):  0 (0)  1 (1)  2 (2)  3 (3)  4 (4)  5 (5)  6 (6)  7 (7)  8 (8)  9 (9)  10 (10)  11 (11)  12 (12)  13 (13)  14 (14)  15 (15)  16 (16)  17 (17)  18 (18)
Resource initialization completed at t[s]:      0.00
Run totals: 19 processes, 48 threads, 0 GPUs


Input parsed successfully to the following command list (including defaults):

basis kpoint-dependent
coords-type Lattice
core-overlap-check vector
coulomb-interaction Slab 001
davidson-band-ratio 1.1
dump End None
dump-name $INPUT.$VAR
elec-cutoff 20
elec-eigen-algo Davidson
elec-ex-corr gga-PBE
elec-initial-magnetization 0.160000 yes
elec-smearing Fermi 1e-05
electronic-minimize  \
	dirUpdateScheme      FletcherReeves \
	linminMethod         DirUpdateRecommended \
	nIterations          100 \
	history              15 \
	knormThreshold       0 \
	energyDiffThreshold  1e-08 \
	nEnergyDiff          2 \
	alphaTstart          1 \
	alphaTmin            1e-10 \
	updateTestStepSize   yes \
	alphaTreduceFactor   0.1 \
	alphaTincreaseFactor 3 \
	nAlphaAdjustMax      3 \
	wolfeEnergy          0.0001 \
	wolfeGradient        0.9 \
	fdTest               no
electronic-scf  \
	nIterations	10000 \
	energyDiffThreshold	1e-08 \
	residualThreshold	1e-07 \
	mixFraction	0.5 \
	qMetric	0.8 \
	history	10 \
	nEigSteps	2 \
	eigDiffThreshold	1e-08 \
	mixedVariable	Density \
	qKerker	0.8 \
	qKappa	-1 \
	verbose	no \
	mixFractionMag	1.5
exchange-regularization WignerSeitzTruncated
fluid None
fluid-ex-corr (null) lda-PZ
fluid-gummel-loop 10 1.000000e-05
fluid-minimize  \
	dirUpdateScheme      PolakRibiere \
	linminMethod         DirUpdateRecommended \
	nIterations          100 \
	history              15 \
	knormThreshold       0 \
	energyDiffThreshold  0 \
	nEnergyDiff          2 \
	alphaTstart          1 \
	alphaTmin            1e-10 \
	updateTestStepSize   yes \
	alphaTreduceFactor   0.1 \
	alphaTincreaseFactor 3 \
	nAlphaAdjustMax      3 \
	wolfeEnergy          0.0001 \
	wolfeGradient        0.9 \
	fdTest               no
fluid-solvent H2O 55.338 ScalarEOS \
	epsBulk 78.4 \
	pMol 0.92466 \
	epsInf 1.77 \
	Pvap 1.06736e-10 \
	sigmaBulk 4.62e-05 \
	Rvdw 2.61727 \
	Res 1.42 \
	tauNuc 343133 \
	poleEl 15 7 1
forces-output-coords Positions
ion Rb   0.000000000000000   0.000000000000000   0.000000000000000 0
ion-species SG15/$ID_ONCV_PBE.upf
ion-width 0
ionic-minimize  \
	dirUpdateScheme      L-BFGS \
	linminMethod         DirUpdateRecommended \
	nIterations          0 \
	history              15 \
	knormThreshold       0.0001 \
	energyDiffThreshold  1e-06 \
	nEnergyDiff          2 \
	alphaTstart          1 \
	alphaTmin            1e-10 \
	updateTestStepSize   yes \
	alphaTreduceFactor   0.1 \
	alphaTincreaseFactor 3 \
	nAlphaAdjustMax      3 \
	wolfeEnergy          0.0001 \
	wolfeGradient        0.9 \
	fdTest               no
kpoint   0.000000000000   0.000000000000   0.000000000000  1.00000000000000
kpoint-folding 12 12 1 
latt-move-scale 1 1 1
latt-scale 2 2 1 
lattice  \
	   4.727486978767153   -2.363743489383575    0.000000000000000  \
	  -0.000000000000000    4.094123819672498    0.000000000000000  \
	   0.000000000000000    0.000000000000000   40.000000000000000 
lattice-minimize  \
	dirUpdateScheme      L-BFGS \
	linminMethod         DirUpdateRecommended \
	nIterations          0 \
	history              15 \
	knormThreshold       0 \
	energyDiffThreshold  1e-06 \
	nEnergyDiff          2 \
	alphaTstart          1 \
	alphaTmin            1e-10 \
	updateTestStepSize   yes \
	alphaTreduceFactor   0.1 \
	alphaTincreaseFactor 3 \
	nAlphaAdjustMax      3 \
	wolfeEnergy          0.0001 \
	wolfeGradient        0.9 \
	fdTest               no
lcao-params -1 1e-06 1e-05
pcm-variant GLSSA13
spintype z-spin
subspace-rotation-factor 1 yes
symmetries automatic
symmetry-threshold 0.0001



---------- Setting up symmetries ----------

Found 24 point-group symmetries of the bravais lattice
Found 24 space-group symmetries with basis
Applied RMS atom displacement 0 bohrs to make symmetries exact.

---------- Initializing the Grid ----------
R = 
[      9.45497     -4.72749            0  ]
[            0      8.18825            0  ]
[            0            0           40  ]
unit cell volume = 3096.79
G =
[   0.664538   0.383671         -0  ]
[          0   0.767342         -0  ]
[         -0         -0    0.15708  ]
Minimum fftbox size, Smin = [  40  40  164  ]
Chosen fftbox size, S = [  40  40  168  ]

---------- Exchange Correlation functional ----------
Initalized PBE GGA exchange.
Initalized PBE GGA correlation.

---------- Setting up pseudopotentials ----------
Width of ionic core gaussian charges (only for fluid interactions / plotting) set to 0

Reading pseudopotential file '/home/gridsan/aligho/DFT/build-Nov24/pseudopotentials/SG15/Rb_ONCV_PBE.upf':
  'Rb' pseudopotential, 'PBE' functional
  Generated using ONCVPSP code by D. R. Hamann
  Author: Martin Schlipf and Francois Gygi  Date: 150915.
  9 valence electrons, 3 orbitals, 6 projectors, 2308 radial grid points, with lMax = 2
  Transforming local potential to a uniform radial grid of dG=0.02 with 1489 points.
  Transforming nonlocal projectors to a uniform radial grid of dG=0.02 with 432 points.
    4S    l: 0   occupation:  2.0   eigenvalue: -1.172069
    4P    l: 1   occupation:  6.0   eigenvalue: -0.586674
    5S    l: 0   occupation:  1.0   eigenvalue: -0.082006
  Transforming atomic orbitals to a uniform radial grid of dG=0.02 with 432 points.
  Core radius for overlap checks: 2.60 bohrs.
  Reading pulay file /home/gridsan/aligho/DFT/build-Nov24/pseudopotentials/SG15/Rb_ONCV_PBE.pulay ... using dE_dnG = -1.360715e-05 computed for Ecut = 20.

Initialized 1 species with 1 total atoms.

Folded 1 k-points by 12x12x1 to 144 k-points.

---------- Setting up k-points, bands, fillings ----------
Reduced to 19 k-points under symmetry. 
Computing the number of bands and number of electrons
Calculating initial fillings.
nElectrons:   9.000000   nBands: 6   nStates: 38

----- Setting up reduced wavefunction bases (one per k-point) -----
average nbasis = 13230.521 , ideal nbasis = 13229.709

---------- Setting up coulomb interaction ----------
Initialized slab truncation along lattice direction 001

---------- Setting up 2D ewald sum ----------
Optimum gaussian width for ewald sums = 5.249020 bohr.
Real space sums over 289 unit cells with max indices [  8  8  0  ]
Reciprocal space sums over 81 terms with max indices [  4  4  0  ]

---------- Allocating electronic variables ----------
Initializing wave functions:  linear combination of atomic orbitals
Note: number of bands (6) exceeds available atomic orbitals (5)
Rb pseudo-atom occupations:   s ( 2 1 )  p ( 6 )
	FillingsUpdate:  mu: -0.098786714  nElectrons: 9.000000  magneticMoment: [ Abs: 0.16000  Tot: +0.16000 ]
LCAOMinimize: Iter:   0  F: -24.4502216826384569  |grad|_K:  4.417e-05  alpha:  1.000e+00
	FillingsUpdate:  mu: -0.098773224  nElectrons: 9.000000  magneticMoment: [ Abs: 0.16000  Tot: +0.16000 ]
LCAOMinimize: Iter:   1  F: -24.4502229857020872  |grad|_K:  5.024e-07  alpha:  9.767e-01  linmin: -3.653e-02  cgtest:  4.454e-01  t[s]:      4.58
LCAOMinimize: Encountered beta<0, resetting CG.
[d-17-6-4:67114] 18 more processes have sent help message help-mpi-common-cuda.txt / dlopen failed
[d-17-6-4:67114] Set MCA parameter "orte_base_help_aggregate" to 0 to see all help / error messages
[d-17-6-4:67114] 18 more processes have sent help message help-mpi-btl-openib-cpc-base.txt / no cpcs for port
	FillingsUpdate:  mu: -0.098773335  nElectrons: 9.000000  magneticMoment: [ Abs: 0.16000  Tot: +0.16000 ]
LCAOMinimize: Iter:   2  F: -24.4502229858754596  |grad|_K:  1.378e-09  alpha:  1.004e+00  linmin:  1.798e-01  cgtest: -9.511e-01  t[s]:      5.75
	FillingsUpdate:  mu: -0.098773335  nElectrons: 9.000000  magneticMoment: [ Abs: 0.16000  Tot: +0.16000 ]
LCAOMinimize: Iter:   3  F: -24.4502229858754987  |grad|_K:  1.377e-09  alpha:  6.858e-03  linmin: -4.924e-03  cgtest:  1.000e+00  t[s]:      7.00
LCAOMinimize: Encountered beta<0, resetting CG.
LCAOMinimize: Converged (|Delta F|<1.000000e-06 for 2 iters).


---- Citations for features of the code used in this run ----

   Software package:
      R. Sundararaman, K. Letchworth-Weaver, K.A. Schwarz, D. Gunceler, Y. Ozhabes and T.A. Arias, 'JDFTx: software for joint density-functional theory', SoftwareX 6, 278 (2017)

   gga-PBE exchange-correlation functional:
      J.P. Perdew, K. Burke and M. Ernzerhof, Phys. Rev. Lett. 77, 3865 (1996)

   Pseudopotentials:
      M Schlipf and F Gygi, Comput. Phys. Commun. 196, 36 (2015)

   Truncated Coulomb potentials:
      R. Sundararaman and T.A. Arias, Phys. Rev. B 87, 165122 (2013)

This list may not be complete. Please suggest additional citations or
report any other bugs at https://github.com/shankar1729/jdftx/issues

Initialization completed successfully at t[s]:      7.09


-------- Electronic minimization -----------
Will mix electronic density at each iteration.
	FillingsUpdate:  mu: -0.098773335  nElectrons: 9.000000  magneticMoment: [ Abs: 0.16000  Tot: +0.16000 ]
	FillingsUpdate:  mu: -0.106584404  nElectrons: 9.000000  magneticMoment: [ Abs: 0.16000  Tot: +0.16000 ]
SCF: Cycle:  0   F: -24.454463281335492   dF: -4.240e-03   |Residual|: 8.750e-03   |deigs|: 1.791e-01  t[s]:      9.45
	FillingsUpdate:  mu: -0.106358627  nElectrons: 9.000000  magneticMoment: [ Abs: 0.16000  Tot: +0.16000 ]
SCF: Cycle:  1   F: -24.454618088273637   dF: -1.548e-04   |Residual|: 6.938e-03   |deigs|: 6.702e-03  t[s]:     11.27
	FillingsUpdate:  mu: -0.104188177  nElectrons: 9.000000  magneticMoment: [ Abs: 0.16361  Tot: +0.16000 ]
SCF: Cycle:  2   F: -24.454712591240124   dF: -9.450e-05   |Residual|: 3.078e-03   |deigs|: 2.629e-03  t[s]:     13.09
	FillingsUpdate:  mu: -0.103199333  nElectrons: 9.000000  magneticMoment: [ Abs: 0.16000  Tot: +0.16000 ]
SCF: Cycle:  3   F: -24.454764757668734   dF: -5.217e-05   |Residual|: 2.112e-03   |deigs|: 2.550e-03  t[s]:     14.93
	FillingsUpdate:  mu: -0.101682805  nElectrons: 9.000000  magneticMoment: [ Abs: 0.16009  Tot: +0.16000 ]
SCF: Cycle:  4   F: -24.454791709966422   dF: -2.695e-05   |Residual|: 1.806e-03   |deigs|: 3.925e-03  t[s]:     16.86
	FillingsUpdate:  mu: -0.099766146  nElectrons: 9.000000  magneticMoment: [ Abs: 0.16227  Tot: +0.16000 ]
SCF: Cycle:  5   F: -24.454806054575016   dF: -1.434e-05   |Residual|: 1.344e-03   |deigs|: 2.939e-03  t[s]:     18.77
	FillingsUpdate:  mu: -0.097746267  nElectrons: 9.000000  magneticMoment: [ Abs: 0.16396  Tot: +0.16000 ]
SCF: Cycle:  6   F: -24.454811857841516   dF: -5.803e-06   |Residual|: 1.012e-03   |deigs|: 3.243e-03  t[s]:     20.67
	FillingsUpdate:  mu: -0.096909392  nElectrons: 9.000000  magneticMoment: [ Abs: 0.16240  Tot: +0.16000 ]
SCF: Cycle:  7   F: -24.454828050464585   dF: -1.619e-05   |Residual|: 8.743e-04   |deigs|: 1.129e-03  t[s]:     22.74
	FillingsUpdate:  mu: -0.096227546  nElectrons: 9.000000  magneticMoment: [ Abs: 0.16105  Tot: +0.16000 ]
SCF: Cycle:  8   F: -24.454837745810980   dF: -9.695e-06   |Residual|: 7.063e-04   |deigs|: 5.177e-04  t[s]:     24.77
	FillingsUpdate:  mu: -0.094794772  nElectrons: 9.000000  magneticMoment: [ Abs: 0.16207  Tot: +0.16000 ]
SCF: Cycle:  9   F: -24.454831284134602   dF: +6.462e-06   |Residual|: 6.126e-04   |deigs|: 1.532e-03  t[s]:     26.74
	FillingsUpdate:  mu: -0.093265482  nElectrons: 9.000000  magneticMoment: [ Abs: 0.16220  Tot: +0.16000 ]
SCF: Cycle: 10   F: -24.454830174982401   dF: +1.109e-06   |Residual|: 5.723e-04   |deigs|: 1.680e-03  t[s]:     28.78
	FillingsUpdate:  mu: -0.092451179  nElectrons: 9.000000  magneticMoment: [ Abs: 0.16103  Tot: +0.16000 ]
SCF: Cycle: 11   F: -24.454841067400451   dF: -1.089e-05   |Residual|: 4.895e-04   |deigs|: 8.146e-04  t[s]:     30.81
	FillingsUpdate:  mu: -0.091360293  nElectrons: 9.000000  magneticMoment: [ Abs: 0.16184  Tot: +0.16000 ]
SCF: Cycle: 12   F: -24.454851455705906   dF: -1.039e-05   |Residual|: 4.878e-04   |deigs|: 9.890e-04  t[s]:     32.85
	FillingsUpdate:  mu: -0.089938417  nElectrons: 9.000000  magneticMoment: [ Abs: 0.16139  Tot: +0.16000 ]
SCF: Cycle: 13   F: -24.454854926940580   dF: -3.471e-06   |Residual|: 4.333e-04   |deigs|: 1.522e-03  t[s]:     34.72
	FillingsUpdate:  mu: -0.089131120  nElectrons: 9.000000  magneticMoment: [ Abs: 0.16051  Tot: +0.16000 ]
SCF: Cycle: 14   F: -24.454858155208104   dF: -3.228e-06   |Residual|: 3.698e-04   |deigs|: 8.529e-04  t[s]:     36.81
	FillingsUpdate:  mu: -0.088415764  nElectrons: 9.000000  magneticMoment: [ Abs: 0.16049  Tot: +0.16000 ]
SCF: Cycle: 15   F: -24.454860970871373   dF: -2.816e-06   |Residual|: 2.384e-04   |deigs|: 7.885e-04  t[s]:     38.81
	FillingsUpdate:  mu: -0.088032125  nElectrons: 9.000000  magneticMoment: [ Abs: 0.16032  Tot: +0.16000 ]
SCF: Cycle: 16   F: -24.454861951943187   dF: -9.811e-07   |Residual|: 1.593e-04   |deigs|: 1.159e-03  t[s]:     40.82
	FillingsUpdate:  mu: -0.087872328  nElectrons: 9.000000  magneticMoment: [ Abs: 0.16002  Tot: +0.16000 ]
SCF: Cycle: 17   F: -24.454862199798338   dF: -2.479e-07   |Residual|: 9.811e-05   |deigs|: 5.547e-04  t[s]:     42.84
	FillingsUpdate:  mu: -0.087878296  nElectrons: 9.000000  magneticMoment: [ Abs: 0.16012  Tot: +0.16000 ]
SCF: Cycle: 18   F: -24.454862311069672   dF: -1.113e-07   |Residual|: 5.621e-05   |deigs|: 3.217e-04  t[s]:     44.89
	FillingsUpdate:  mu: -0.087882684  nElectrons: 9.000000  magneticMoment: [ Abs: 0.16010  Tot: +0.16000 ]
SCF: Cycle: 19   F: -24.454862358316138   dF: -4.725e-08   |Residual|: 2.669e-05   |deigs|: 4.385e-04  t[s]:     46.99
	FillingsUpdate:  mu: -0.087907258  nElectrons: 9.000000  magneticMoment: [ Abs: 0.16007  Tot: +0.16000 ]
SCF: Cycle: 20   F: -24.454862371724893   dF: -1.341e-08   |Residual|: 1.720e-05   |deigs|: 1.851e-04  t[s]:     49.00
	FillingsUpdate:  mu: -0.087896926  nElectrons: 9.000000  magneticMoment: [ Abs: 0.16004  Tot: +0.16000 ]
SCF: Cycle: 21   F: -24.454862380290759   dF: -8.566e-09   |Residual|: 9.235e-06   |deigs|: 1.168e-04  t[s]:     51.08
	FillingsUpdate:  mu: -0.087886257  nElectrons: 9.000000  magneticMoment: [ Abs: 0.16006  Tot: +0.16000 ]
SCF: Cycle: 22   F: -24.454862383814824   dF: -3.524e-09   |Residual|: 4.364e-06   |deigs|: 6.750e-05  t[s]:     53.08
SCF: Converged (|Delta E|<1.000000e-08 for 2 iters).


# Ionic positions in lattice coordinates:
ion Rb   0.000000000000000   0.000000000000000   0.000000000000000 0

# Forces in Lattice coordinates:
force Rb  -0.000000000000000   0.000000000000000   0.000000000000000 0

# Energy components:
   Eewald =      -18.0480261003326561
       EH =        1.6456518589365623
     Eloc =      -10.5572141868038543
      Enl =       -0.7957068946477537
   Epulay =        0.0000000035676145
      Exc =       -3.6759170646747554
       KE =        6.9763504342173377
-------------------------------------
     Etot =      -24.4548619497375057
       TS =        0.0000004340773189
-------------------------------------
        F =      -24.4548623838148238

IonicMinimize: Iter:   0  F: -24.454862383814824  |grad|_K:  0.000e+00  t[s]:     53.19
IonicMinimize: Converged (|grad|_K<1.000000e-04).

#--- Lowdin population analysis ---
# oxidation-state Rb +0.034
# magnetic-moments Rb +0.145

End date and time: Sun Feb  6 12:48:29 2022  (Duration: 0-0:00:53.22)
Done!
scale=3
magnetization=0.16
--------------------------------------------------------------------------
The library attempted to open the following supporting CUDA libraries,
but each of them failed.  CUDA-aware support is disabled.
libcuda.so.1: cannot open shared object file: No such file or directory
libcuda.dylib: cannot open shared object file: No such file or directory
/usr/lib64/libcuda.so.1: cannot open shared object file: No such file or directory
/usr/lib64/libcuda.dylib: cannot open shared object file: No such file or directory
If you are not interested in CUDA-aware support, then run with
--mca opal_warn_on_missing_libcuda 0 to suppress this message.  If you are interested
in CUDA-aware support, then try setting LD_LIBRARY_PATH to the location
of libcuda.so.1 to get passed this issue.
--------------------------------------------------------------------------
--------------------------------------------------------------------------
No OpenFabrics connection schemes reported that they were able to be
used on a specific port.  As such, the openib BTL (OpenFabrics
support) will be disabled for this port.

  Local host:           d-17-6-4
  Local device:         mlx5_1
  Local port:           1
  CPCs attempted:       rdmacm, udcm
--------------------------------------------------------------------------

*************** JDFTx 1.6.0 (git hash 42ebbcc2) ***************

Start date and time: Sun Feb  6 12:48:30 2022
Executable jdftx with command-line: -i Alkali.in
Running on hosts (process indices):  d-17-6-4 (0-18)
Divided in process groups (process indices):  0 (0)  1 (1)  2 (2)  3 (3)  4 (4)  5 (5)  6 (6)  7 (7)  8 (8)  9 (9)  10 (10)  11 (11)  12 (12)  13 (13)  14 (14)  15 (15)  16 (16)  17 (17)  18 (18)
Resource initialization completed at t[s]:      0.00
Run totals: 19 processes, 48 threads, 0 GPUs


Input parsed successfully to the following command list (including defaults):

basis kpoint-dependent
coords-type Lattice
core-overlap-check vector
coulomb-interaction Slab 001
davidson-band-ratio 1.1
dump End None
dump-name $INPUT.$VAR
elec-cutoff 20
elec-eigen-algo Davidson
elec-ex-corr gga-PBE
elec-initial-magnetization 0.160000 yes
elec-smearing Fermi 1e-05
electronic-minimize  \
	dirUpdateScheme      FletcherReeves \
	linminMethod         DirUpdateRecommended \
	nIterations          100 \
	history              15 \
	knormThreshold       0 \
	energyDiffThreshold  1e-08 \
	nEnergyDiff          2 \
	alphaTstart          1 \
	alphaTmin            1e-10 \
	updateTestStepSize   yes \
	alphaTreduceFactor   0.1 \
	alphaTincreaseFactor 3 \
	nAlphaAdjustMax      3 \
	wolfeEnergy          0.0001 \
	wolfeGradient        0.9 \
	fdTest               no
electronic-scf  \
	nIterations	10000 \
	energyDiffThreshold	1e-08 \
	residualThreshold	1e-07 \
	mixFraction	0.5 \
	qMetric	0.8 \
	history	10 \
	nEigSteps	2 \
	eigDiffThreshold	1e-08 \
	mixedVariable	Density \
	qKerker	0.8 \
	qKappa	-1 \
	verbose	no \
	mixFractionMag	1.5
exchange-regularization WignerSeitzTruncated
fluid None
fluid-ex-corr (null) lda-PZ
fluid-gummel-loop 10 1.000000e-05
fluid-minimize  \
	dirUpdateScheme      PolakRibiere \
	linminMethod         DirUpdateRecommended \
	nIterations          100 \
	history              15 \
	knormThreshold       0 \
	energyDiffThreshold  0 \
	nEnergyDiff          2 \
	alphaTstart          1 \
	alphaTmin            1e-10 \
	updateTestStepSize   yes \
	alphaTreduceFactor   0.1 \
	alphaTincreaseFactor 3 \
	nAlphaAdjustMax      3 \
	wolfeEnergy          0.0001 \
	wolfeGradient        0.9 \
	fdTest               no
fluid-solvent H2O 55.338 ScalarEOS \
	epsBulk 78.4 \
	pMol 0.92466 \
	epsInf 1.77 \
	Pvap 1.06736e-10 \
	sigmaBulk 4.62e-05 \
	Rvdw 2.61727 \
	Res 1.42 \
	tauNuc 343133 \
	poleEl 15 7 1
forces-output-coords Positions
ion Rb   0.000000000000000   0.000000000000000   0.000000000000000 0
ion-species SG15/$ID_ONCV_PBE.upf
ion-width 0
ionic-minimize  \
	dirUpdateScheme      L-BFGS \
	linminMethod         DirUpdateRecommended \
	nIterations          0 \
	history              15 \
	knormThreshold       0.0001 \
	energyDiffThreshold  1e-06 \
	nEnergyDiff          2 \
	alphaTstart          1 \
	alphaTmin            1e-10 \
	updateTestStepSize   yes \
	alphaTreduceFactor   0.1 \
	alphaTincreaseFactor 3 \
	nAlphaAdjustMax      3 \
	wolfeEnergy          0.0001 \
	wolfeGradient        0.9 \
	fdTest               no
kpoint   0.000000000000   0.000000000000   0.000000000000  1.00000000000000
kpoint-folding 12 12 1 
latt-move-scale 1 1 1
latt-scale 3 3 1 
lattice  \
	   4.727486978767153   -2.363743489383575    0.000000000000000  \
	  -0.000000000000000    4.094123819672498    0.000000000000000  \
	   0.000000000000000    0.000000000000000   40.000000000000000 
lattice-minimize  \
	dirUpdateScheme      L-BFGS \
	linminMethod         DirUpdateRecommended \
	nIterations          0 \
	history              15 \
	knormThreshold       0 \
	energyDiffThreshold  1e-06 \
	nEnergyDiff          2 \
	alphaTstart          1 \
	alphaTmin            1e-10 \
	updateTestStepSize   yes \
	alphaTreduceFactor   0.1 \
	alphaTincreaseFactor 3 \
	nAlphaAdjustMax      3 \
	wolfeEnergy          0.0001 \
	wolfeGradient        0.9 \
	fdTest               no
lcao-params -1 1e-06 1e-05
pcm-variant GLSSA13
spintype z-spin
subspace-rotation-factor 1 yes
symmetries automatic
symmetry-threshold 0.0001



---------- Setting up symmetries ----------

Found 24 point-group symmetries of the bravais lattice
Found 24 space-group symmetries with basis
Applied RMS atom displacement 0 bohrs to make symmetries exact.

---------- Initializing the Grid ----------
R = 
[      14.1825     -7.09123            0  ]
[            0      12.2824            0  ]
[            0            0           40  ]
unit cell volume = 6967.77
G =
[   0.443025   0.255781         -0  ]
[          0   0.511561         -0  ]
[         -0         -0    0.15708  ]
Minimum fftbox size, Smin = [  60  60  164  ]
Chosen fftbox size, S = [  60  60  168  ]

---------- Exchange Correlation functional ----------
Initalized PBE GGA exchange.
Initalized PBE GGA correlation.

---------- Setting up pseudopotentials ----------
Width of ionic core gaussian charges (only for fluid interactions / plotting) set to 0

Reading pseudopotential file '/home/gridsan/aligho/DFT/build-Nov24/pseudopotentials/SG15/Rb_ONCV_PBE.upf':
  'Rb' pseudopotential, 'PBE' functional
  Generated using ONCVPSP code by D. R. Hamann
  Author: Martin Schlipf and Francois Gygi  Date: 150915.
  9 valence electrons, 3 orbitals, 6 projectors, 2308 radial grid points, with lMax = 2
  Transforming local potential to a uniform radial grid of dG=0.02 with 1489 points.
  Transforming nonlocal projectors to a uniform radial grid of dG=0.02 with 432 points.
    4S    l: 0   occupation:  2.0   eigenvalue: -1.172069
    4P    l: 1   occupation:  6.0   eigenvalue: -0.586674
    5S    l: 0   occupation:  1.0   eigenvalue: -0.082006
  Transforming atomic orbitals to a uniform radial grid of dG=0.02 with 432 points.
  Core radius for overlap checks: 2.60 bohrs.
  Reading pulay file /home/gridsan/aligho/DFT/build-Nov24/pseudopotentials/SG15/Rb_ONCV_PBE.pulay ... using dE_dnG = -1.360715e-05 computed for Ecut = 20.

Initialized 1 species with 1 total atoms.

Folded 1 k-points by 12x12x1 to 144 k-points.

---------- Setting up k-points, bands, fillings ----------
Reduced to 19 k-points under symmetry. 
Computing the number of bands and number of electrons
Calculating initial fillings.
nElectrons:   9.000000   nBands: 6   nStates: 38

----- Setting up reduced wavefunction bases (one per k-point) -----
average nbasis = 29766.104 , ideal nbasis = 29766.845

---------- Setting up coulomb interaction ----------
Initialized slab truncation along lattice direction 001

---------- Setting up 2D ewald sum ----------
Optimum gaussian width for ewald sums = 7.873530 bohr.
Real space sums over 289 unit cells with max indices [  8  8  0  ]
Reciprocal space sums over 81 terms with max indices [  4  4  0  ]

---------- Allocating electronic variables ----------
Initializing wave functions:  linear combination of atomic orbitals
Note: number of bands (6) exceeds available atomic orbitals (5)
Rb pseudo-atom occupations:   s ( 2 1 )  p ( 6 )
[d-17-6-4:81560] 18 more processes have sent help message help-mpi-common-cuda.txt / dlopen failed
[d-17-6-4:81560] Set MCA parameter "orte_base_help_aggregate" to 0 to see all help / error messages
[d-17-6-4:81560] 18 more processes have sent help message help-mpi-btl-openib-cpc-base.txt / no cpcs for port
	FillingsUpdate:  mu: -0.084730008  nElectrons: 9.000000  magneticMoment: [ Abs: 0.16000  Tot: +0.16000 ]
LCAOMinimize: Iter:   0  F: -24.4368567034820003  |grad|_K:  2.178e-05  alpha:  1.000e+00
	FillingsUpdate:  mu: -0.084725185  nElectrons: 9.000000  magneticMoment: [ Abs: 0.16000  Tot: +0.16000 ]
LCAOMinimize: Iter:   1  F: -24.4368570230177120  |grad|_K:  1.733e-07  alpha:  9.848e-01  linmin: -1.997e-02  cgtest:  5.084e-01  t[s]:      8.75
LCAOMinimize: Encountered beta<0, resetting CG.
	FillingsUpdate:  mu: -0.084725179  nElectrons: 9.000000  magneticMoment: [ Abs: 0.16000  Tot: +0.16000 ]
LCAOMinimize: Iter:   2  F: -24.4368570230383035  |grad|_K:  9.530e-11  alpha:  1.001e+00  linmin: -1.168e-02  cgtest:  2.694e-01  t[s]:     11.10
LCAOMinimize: Encountered beta<0, resetting CG.
LCAOMinimize: Converged (|Delta F|<1.000000e-06 for 2 iters).


---- Citations for features of the code used in this run ----

   Software package:
      R. Sundararaman, K. Letchworth-Weaver, K.A. Schwarz, D. Gunceler, Y. Ozhabes and T.A. Arias, 'JDFTx: software for joint density-functional theory', SoftwareX 6, 278 (2017)

   gga-PBE exchange-correlation functional:
      J.P. Perdew, K. Burke and M. Ernzerhof, Phys. Rev. Lett. 77, 3865 (1996)

   Pseudopotentials:
      M Schlipf and F Gygi, Comput. Phys. Commun. 196, 36 (2015)

   Truncated Coulomb potentials:
      R. Sundararaman and T.A. Arias, Phys. Rev. B 87, 165122 (2013)

This list may not be complete. Please suggest additional citations or
report any other bugs at https://github.com/shankar1729/jdftx/issues

Initialization completed successfully at t[s]:     11.26


-------- Electronic minimization -----------
Will mix electronic density at each iteration.
	FillingsUpdate:  mu: -0.084725179  nElectrons: 9.000000  magneticMoment: [ Abs: 0.16000  Tot: +0.16000 ]
	FillingsUpdate:  mu: -0.087022925  nElectrons: 9.000000  magneticMoment: [ Abs: 0.16000  Tot: +0.16000 ]
SCF: Cycle:  0   F: -24.438612818057340   dF: -1.756e-03   |Residual|: 3.769e-03   |deigs|: 1.738e-01  t[s]:     16.03
	FillingsUpdate:  mu: -0.087257959  nElectrons: 9.000000  magneticMoment: [ Abs: 0.16005  Tot: +0.16000 ]
SCF: Cycle:  1   F: -24.438649350165825   dF: -3.653e-05   |Residual|: 3.274e-03   |deigs|: 4.572e-03  t[s]:     19.79
	FillingsUpdate:  mu: -0.087828403  nElectrons: 9.000000  magneticMoment: [ Abs: 0.16215  Tot: +0.16000 ]
SCF: Cycle:  2   F: -24.438682877608830   dF: -3.353e-05   |Residual|: 1.579e-03   |deigs|: 2.769e-03  t[s]:     23.57
	FillingsUpdate:  mu: -0.087955261  nElectrons: 9.000000  magneticMoment: [ Abs: 0.16096  Tot: +0.16000 ]
SCF: Cycle:  3   F: -24.438694125575207   dF: -1.125e-05   |Residual|: 9.574e-04   |deigs|: 2.298e-03  t[s]:     27.40
	FillingsUpdate:  mu: -0.087863146  nElectrons: 9.000000  magneticMoment: [ Abs: 0.16017  Tot: +0.16000 ]
SCF: Cycle:  4   F: -24.438699580660089   dF: -5.455e-06   |Residual|: 5.847e-04   |deigs|: 2.779e-03  t[s]:     31.27
	FillingsUpdate:  mu: -0.087795381  nElectrons: 9.000000  magneticMoment: [ Abs: 0.16051  Tot: +0.16000 ]
SCF: Cycle:  5   F: -24.438702089610494   dF: -2.509e-06   |Residual|: 4.473e-04   |deigs|: 1.308e-03  t[s]:     35.18
	FillingsUpdate:  mu: -0.087588031  nElectrons: 9.000000  magneticMoment: [ Abs: 0.16037  Tot: +0.16000 ]
SCF: Cycle:  6   F: -24.438703470696748   dF: -1.381e-06   |Residual|: 3.407e-04   |deigs|: 8.728e-04  t[s]:     39.18
	FillingsUpdate:  mu: -0.087297282  nElectrons: 9.000000  magneticMoment: [ Abs: 0.16090  Tot: +0.16000 ]
SCF: Cycle:  7   F: -24.438703799658544   dF: -3.290e-07   |Residual|: 2.976e-04   |deigs|: 5.524e-04  t[s]:     43.30
	FillingsUpdate:  mu: -0.087032910  nElectrons: 9.000000  magneticMoment: [ Abs: 0.16131  Tot: +0.16000 ]
SCF: Cycle:  8   F: -24.438703556725589   dF: +2.429e-07   |Residual|: 2.289e-04   |deigs|: 2.628e-04  t[s]:     47.42
	FillingsUpdate:  mu: -0.086784438  nElectrons: 9.000000  magneticMoment: [ Abs: 0.16100  Tot: +0.16000 ]
SCF: Cycle:  9   F: -24.438703112360951   dF: +4.444e-07   |Residual|: 2.086e-04   |deigs|: 4.806e-04  t[s]:     51.64
	FillingsUpdate:  mu: -0.086550580  nElectrons: 9.000000  magneticMoment: [ Abs: 0.16114  Tot: +0.16000 ]
SCF: Cycle: 10   F: -24.438703807731567   dF: -6.954e-07   |Residual|: 1.856e-04   |deigs|: 3.474e-04  t[s]:     55.96
	FillingsUpdate:  mu: -0.086315343  nElectrons: 9.000000  magneticMoment: [ Abs: 0.16115  Tot: +0.16000 ]
SCF: Cycle: 11   F: -24.438703965291925   dF: -1.576e-07   |Residual|: 1.476e-04   |deigs|: 2.164e-04  t[s]:     60.19
	FillingsUpdate:  mu: -0.086105518  nElectrons: 9.000000  magneticMoment: [ Abs: 0.16118  Tot: +0.16000 ]
SCF: Cycle: 12   F: -24.438703934500655   dF: +3.079e-08   |Residual|: 1.337e-04   |deigs|: 2.424e-04  t[s]:     64.46
	FillingsUpdate:  mu: -0.085793017  nElectrons: 9.000000  magneticMoment: [ Abs: 0.16063  Tot: +0.16000 ]
SCF: Cycle: 13   F: -24.438703410147944   dF: +5.244e-07   |Residual|: 1.325e-04   |deigs|: 3.363e-04  t[s]:     68.68
	FillingsUpdate:  mu: -0.085587124  nElectrons: 9.000000  magneticMoment: [ Abs: 0.16075  Tot: +0.16000 ]
SCF: Cycle: 14   F: -24.438703835637117   dF: -4.255e-07   |Residual|: 1.190e-04   |deigs|: 3.058e-04  t[s]:     72.85
	FillingsUpdate:  mu: -0.085425409  nElectrons: 9.000000  magneticMoment: [ Abs: 0.16092  Tot: +0.16000 ]
SCF: Cycle: 15   F: -24.438704971805745   dF: -1.136e-06   |Residual|: 8.918e-05   |deigs|: 3.028e-04  t[s]:     77.14
	FillingsUpdate:  mu: -0.085313937  nElectrons: 9.000000  magneticMoment: [ Abs: 0.16058  Tot: +0.16000 ]
SCF: Cycle: 16   F: -24.438705326436153   dF: -3.546e-07   |Residual|: 6.514e-05   |deigs|: 1.492e-04  t[s]:     81.35
	FillingsUpdate:  mu: -0.085213815  nElectrons: 9.000000  magneticMoment: [ Abs: 0.16052  Tot: +0.16000 ]
SCF: Cycle: 17   F: -24.438705459325607   dF: -1.329e-07   |Residual|: 3.827e-05   |deigs|: 1.534e-04  t[s]:     85.48
	FillingsUpdate:  mu: -0.085217290  nElectrons: 9.000000  magneticMoment: [ Abs: 0.16050  Tot: +0.16000 ]
SCF: Cycle: 18   F: -24.438705510224825   dF: -5.090e-08   |Residual|: 2.589e-05   |deigs|: 1.520e-04  t[s]:     89.65
	FillingsUpdate:  mu: -0.085234195  nElectrons: 9.000000  magneticMoment: [ Abs: 0.16049  Tot: +0.16000 ]
SCF: Cycle: 19   F: -24.438705537886879   dF: -2.766e-08   |Residual|: 1.570e-05   |deigs|: 9.022e-05  t[s]:     94.01
	FillingsUpdate:  mu: -0.085242753  nElectrons: 9.000000  magneticMoment: [ Abs: 0.16050  Tot: +0.16000 ]
SCF: Cycle: 20   F: -24.438705550741400   dF: -1.285e-08   |Residual|: 9.708e-06   |deigs|: 3.768e-05  t[s]:     98.28
	FillingsUpdate:  mu: -0.085241500  nElectrons: 9.000000  magneticMoment: [ Abs: 0.16050  Tot: +0.16000 ]
SCF: Cycle: 21   F: -24.438705555539840   dF: -4.798e-09   |Residual|: 6.153e-06   |deigs|: 1.579e-05  t[s]:    102.47
	FillingsUpdate:  mu: -0.085242272  nElectrons: 9.000000  magneticMoment: [ Abs: 0.16051  Tot: +0.16000 ]
SCF: Cycle: 22   F: -24.438705557893755   dF: -2.354e-09   |Residual|: 3.890e-06   |deigs|: 8.669e-06  t[s]:    106.71
SCF: Converged (|Delta E|<1.000000e-08 for 2 iters).


# Ionic positions in lattice coordinates:
ion Rb   0.000000000000000   0.000000000000000   0.000000000000000 0

# Forces in Lattice coordinates:
force Rb  -0.000000000000000  -0.000000000000000   0.000000000000000 0

# Energy components:
   Eewald =      -12.0320174002217755
       EH =        7.4861860789455932
     Eloc =      -22.3959824385766524
      Enl =       -0.7979158468419842
   Epulay =       -0.0000000014467880
      Exc =       -3.6466417321731646
       KE =        6.9476662164983374
-------------------------------------
     Etot =      -24.4387051238164368
       TS =        0.0000004340773189
-------------------------------------
        F =      -24.4387055578937549

IonicMinimize: Iter:   0  F: -24.438705557893755  |grad|_K:  0.000e+00  t[s]:    106.97
IonicMinimize: Converged (|grad|_K<1.000000e-04).

#--- Lowdin population analysis ---
# oxidation-state Rb +0.030
# magnetic-moments Rb +0.150

End date and time: Sun Feb  6 12:50:17 2022  (Duration: 0-0:01:47.02)
Done!
scale=4
magnetization=0.16
--------------------------------------------------------------------------
The library attempted to open the following supporting CUDA libraries,
but each of them failed.  CUDA-aware support is disabled.
libcuda.so.1: cannot open shared object file: No such file or directory
libcuda.dylib: cannot open shared object file: No such file or directory
/usr/lib64/libcuda.so.1: cannot open shared object file: No such file or directory
/usr/lib64/libcuda.dylib: cannot open shared object file: No such file or directory
If you are not interested in CUDA-aware support, then run with
--mca opal_warn_on_missing_libcuda 0 to suppress this message.  If you are interested
in CUDA-aware support, then try setting LD_LIBRARY_PATH to the location
of libcuda.so.1 to get passed this issue.
--------------------------------------------------------------------------
--------------------------------------------------------------------------
No OpenFabrics connection schemes reported that they were able to be
used on a specific port.  As such, the openib BTL (OpenFabrics
support) will be disabled for this port.

  Local host:           d-17-6-4
  Local device:         mlx5_1
  Local port:           1
  CPCs attempted:       rdmacm, udcm
--------------------------------------------------------------------------

*************** JDFTx 1.6.0 (git hash 42ebbcc2) ***************

Start date and time: Sun Feb  6 12:50:18 2022
Executable jdftx with command-line: -i Alkali.in
Running on hosts (process indices):  d-17-6-4 (0-18)
Divided in process groups (process indices):  0 (0)  1 (1)  2 (2)  3 (3)  4 (4)  5 (5)  6 (6)  7 (7)  8 (8)  9 (9)  10 (10)  11 (11)  12 (12)  13 (13)  14 (14)  15 (15)  16 (16)  17 (17)  18 (18)
Resource initialization completed at t[s]:      0.00
Run totals: 19 processes, 48 threads, 0 GPUs


Input parsed successfully to the following command list (including defaults):

basis kpoint-dependent
coords-type Lattice
core-overlap-check vector
coulomb-interaction Slab 001
davidson-band-ratio 1.1
dump End None
dump-name $INPUT.$VAR
elec-cutoff 20
elec-eigen-algo Davidson
elec-ex-corr gga-PBE
elec-initial-magnetization 0.160000 yes
elec-smearing Fermi 1e-05
electronic-minimize  \
	dirUpdateScheme      FletcherReeves \
	linminMethod         DirUpdateRecommended \
	nIterations          100 \
	history              15 \
	knormThreshold       0 \
	energyDiffThreshold  1e-08 \
	nEnergyDiff          2 \
	alphaTstart          1 \
	alphaTmin            1e-10 \
	updateTestStepSize   yes \
	alphaTreduceFactor   0.1 \
	alphaTincreaseFactor 3 \
	nAlphaAdjustMax      3 \
	wolfeEnergy          0.0001 \
	wolfeGradient        0.9 \
	fdTest               no
electronic-scf  \
	nIterations	10000 \
	energyDiffThreshold	1e-08 \
	residualThreshold	1e-07 \
	mixFraction	0.5 \
	qMetric	0.8 \
	history	10 \
	nEigSteps	2 \
	eigDiffThreshold	1e-08 \
	mixedVariable	Density \
	qKerker	0.8 \
	qKappa	-1 \
	verbose	no \
	mixFractionMag	1.5
exchange-regularization WignerSeitzTruncated
fluid None
fluid-ex-corr (null) lda-PZ
fluid-gummel-loop 10 1.000000e-05
fluid-minimize  \
	dirUpdateScheme      PolakRibiere \
	linminMethod         DirUpdateRecommended \
	nIterations          100 \
	history              15 \
	knormThreshold       0 \
	energyDiffThreshold  0 \
	nEnergyDiff          2 \
	alphaTstart          1 \
	alphaTmin            1e-10 \
	updateTestStepSize   yes \
	alphaTreduceFactor   0.1 \
	alphaTincreaseFactor 3 \
	nAlphaAdjustMax      3 \
	wolfeEnergy          0.0001 \
	wolfeGradient        0.9 \
	fdTest               no
fluid-solvent H2O 55.338 ScalarEOS \
	epsBulk 78.4 \
	pMol 0.92466 \
	epsInf 1.77 \
	Pvap 1.06736e-10 \
	sigmaBulk 4.62e-05 \
	Rvdw 2.61727 \
	Res 1.42 \
	tauNuc 343133 \
	poleEl 15 7 1
forces-output-coords Positions
ion Rb   0.000000000000000   0.000000000000000   0.000000000000000 0
ion-species SG15/$ID_ONCV_PBE.upf
ion-width 0
ionic-minimize  \
	dirUpdateScheme      L-BFGS \
	linminMethod         DirUpdateRecommended \
	nIterations          0 \
	history              15 \
	knormThreshold       0.0001 \
	energyDiffThreshold  1e-06 \
	nEnergyDiff          2 \
	alphaTstart          1 \
	alphaTmin            1e-10 \
	updateTestStepSize   yes \
	alphaTreduceFactor   0.1 \
	alphaTincreaseFactor 3 \
	nAlphaAdjustMax      3 \
	wolfeEnergy          0.0001 \
	wolfeGradient        0.9 \
	fdTest               no
kpoint   0.000000000000   0.000000000000   0.000000000000  1.00000000000000
kpoint-folding 12 12 1 
latt-move-scale 1 1 1
latt-scale 4 4 1 
lattice  \
	   4.727486978767153   -2.363743489383575    0.000000000000000  \
	  -0.000000000000000    4.094123819672498    0.000000000000000  \
	   0.000000000000000    0.000000000000000   40.000000000000000 
lattice-minimize  \
	dirUpdateScheme      L-BFGS \
	linminMethod         DirUpdateRecommended \
	nIterations          0 \
	history              15 \
	knormThreshold       0 \
	energyDiffThreshold  1e-06 \
	nEnergyDiff          2 \
	alphaTstart          1 \
	alphaTmin            1e-10 \
	updateTestStepSize   yes \
	alphaTreduceFactor   0.1 \
	alphaTincreaseFactor 3 \
	nAlphaAdjustMax      3 \
	wolfeEnergy          0.0001 \
	wolfeGradient        0.9 \
	fdTest               no
lcao-params -1 1e-06 1e-05
pcm-variant GLSSA13
spintype z-spin
subspace-rotation-factor 1 yes
symmetries automatic
symmetry-threshold 0.0001



---------- Setting up symmetries ----------

Found 24 point-group symmetries of the bravais lattice
Found 24 space-group symmetries with basis
Applied RMS atom displacement 0 bohrs to make symmetries exact.

---------- Initializing the Grid ----------
R = 
[      18.9099     -9.45497            0  ]
[            0      16.3765            0  ]
[            0            0           40  ]
unit cell volume = 12387.1
G =
[   0.332269   0.191835         -0  ]
[          0   0.383671         -0  ]
[         -0         -0    0.15708  ]
Minimum fftbox size, Smin = [  80  80  164  ]
Chosen fftbox size, S = [  80  80  168  ]

---------- Exchange Correlation functional ----------
Initalized PBE GGA exchange.
Initalized PBE GGA correlation.

---------- Setting up pseudopotentials ----------
Width of ionic core gaussian charges (only for fluid interactions / plotting) set to 0

Reading pseudopotential file '/home/gridsan/aligho/DFT/build-Nov24/pseudopotentials/SG15/Rb_ONCV_PBE.upf':
  'Rb' pseudopotential, 'PBE' functional
  Generated using ONCVPSP code by D. R. Hamann
  Author: Martin Schlipf and Francois Gygi  Date: 150915.
  9 valence electrons, 3 orbitals, 6 projectors, 2308 radial grid points, with lMax = 2
  Transforming local potential to a uniform radial grid of dG=0.02 with 1489 points.
  Transforming nonlocal projectors to a uniform radial grid of dG=0.02 with 432 points.
    4S    l: 0   occupation:  2.0   eigenvalue: -1.172069
    4P    l: 1   occupation:  6.0   eigenvalue: -0.586674
    5S    l: 0   occupation:  1.0   eigenvalue: -0.082006
  Transforming atomic orbitals to a uniform radial grid of dG=0.02 with 432 points.
  Core radius for overlap checks: 2.60 bohrs.
  Reading pulay file /home/gridsan/aligho/DFT/build-Nov24/pseudopotentials/SG15/Rb_ONCV_PBE.pulay ... using dE_dnG = -1.360715e-05 computed for Ecut = 20.

Initialized 1 species with 1 total atoms.

Folded 1 k-points by 12x12x1 to 144 k-points.

---------- Setting up k-points, bands, fillings ----------
Reduced to 19 k-points under symmetry. 
Computing the number of bands and number of electrons
Calculating initial fillings.
nElectrons:   9.000000   nBands: 6   nStates: 38

----- Setting up reduced wavefunction bases (one per k-point) -----
average nbasis = 52924.021 , ideal nbasis = 52918.836

---------- Setting up coulomb interaction ----------
Initialized slab truncation along lattice direction 001

---------- Setting up 2D ewald sum ----------
Optimum gaussian width for ewald sums = 10.498040 bohr.
Real space sums over 289 unit cells with max indices [  8  8  0  ]
Reciprocal space sums over 81 terms with max indices [  4  4  0  ]

---------- Allocating electronic variables ----------
Initializing wave functions:  linear combination of atomic orbitals
Note: number of bands (6) exceeds available atomic orbitals (5)
Rb pseudo-atom occupations:   s ( 2 1 )  p ( 6 )
[d-17-6-4:17703] 18 more processes have sent help message help-mpi-common-cuda.txt / dlopen failed
[d-17-6-4:17703] Set MCA parameter "orte_base_help_aggregate" to 0 to see all help / error messages
[d-17-6-4:17703] 18 more processes have sent help message help-mpi-btl-openib-cpc-base.txt / no cpcs for port
	FillingsUpdate:  mu: -0.082784784  nElectrons: 9.000000  magneticMoment: [ Abs: 0.16000  Tot: +0.16000 ]
LCAOMinimize: Iter:   0  F: -24.4306494960032659  |grad|_K:  5.299e-06  alpha:  1.000e+00
	FillingsUpdate:  mu: -0.082783658  nElectrons: 9.000000  magneticMoment: [ Abs: 0.16000  Tot: +0.16000 ]
LCAOMinimize: Iter:   1  F: -24.4306495149598923  |grad|_K:  2.641e-08  alpha:  9.870e-01  linmin: -8.556e-03  cgtest:  2.924e-01  t[s]:     15.05
LCAOMinimize: Encountered beta<0, resetting CG.
	FillingsUpdate:  mu: -0.082783658  nElectrons: 9.000000  magneticMoment: [ Abs: 0.16000  Tot: +0.16000 ]
LCAOMinimize: Iter:   2  F: -24.4306495149603222  |grad|_K:  6.215e-09  alpha:  7.649e-01  linmin: -1.926e-02  cgtest:  1.000e+00  t[s]:     19.07
LCAOMinimize: Encountered beta<0, resetting CG.
LCAOMinimize: Converged (|Delta F|<1.000000e-06 for 2 iters).


---- Citations for features of the code used in this run ----

   Software package:
      R. Sundararaman, K. Letchworth-Weaver, K.A. Schwarz, D. Gunceler, Y. Ozhabes and T.A. Arias, 'JDFTx: software for joint density-functional theory', SoftwareX 6, 278 (2017)

   gga-PBE exchange-correlation functional:
      J.P. Perdew, K. Burke and M. Ernzerhof, Phys. Rev. Lett. 77, 3865 (1996)

   Pseudopotentials:
      M Schlipf and F Gygi, Comput. Phys. Commun. 196, 36 (2015)

   Truncated Coulomb potentials:
      R. Sundararaman and T.A. Arias, Phys. Rev. B 87, 165122 (2013)

This list may not be complete. Please suggest additional citations or
report any other bugs at https://github.com/shankar1729/jdftx/issues

Initialization completed successfully at t[s]:     19.33


-------- Electronic minimization -----------
Will mix electronic density at each iteration.
	FillingsUpdate:  mu: -0.082783658  nElectrons: 9.000000  magneticMoment: [ Abs: 0.16000  Tot: +0.16000 ]
	FillingsUpdate:  mu: -0.082892565  nElectrons: 9.000000  magneticMoment: [ Abs: 0.16000  Tot: +0.16000 ]
SCF: Cycle:  0   F: -24.430767888253776   dF: -1.184e-04   |Residual|: 7.280e-04   |deigs|: 1.755e-01  t[s]:     27.48
	FillingsUpdate:  mu: -0.082933532  nElectrons: 9.000000  magneticMoment: [ Abs: 0.16072  Tot: +0.16000 ]
SCF: Cycle:  1   F: -24.430769904084972   dF: -2.016e-06   |Residual|: 5.249e-04   |deigs|: 4.294e-03  t[s]:     33.92
	FillingsUpdate:  mu: -0.082992904  nElectrons: 9.000000  magneticMoment: [ Abs: 0.16074  Tot: +0.16000 ]
SCF: Cycle:  2   F: -24.430770581497868   dF: -6.774e-07   |Residual|: 4.134e-04   |deigs|: 1.129e-03  t[s]:     40.40
	FillingsUpdate:  mu: -0.083106409  nElectrons: 9.000000  magneticMoment: [ Abs: 0.16127  Tot: +0.16000 ]
SCF: Cycle:  3   F: -24.430771327247044   dF: -7.457e-07   |Residual|: 2.774e-04   |deigs|: 1.103e-03  t[s]:     47.03
	FillingsUpdate:  mu: -0.083205190  nElectrons: 9.000000  magneticMoment: [ Abs: 0.16097  Tot: +0.16000 ]
SCF: Cycle:  4   F: -24.430772071918774   dF: -7.447e-07   |Residual|: 1.798e-04   |deigs|: 4.030e-04  t[s]:     53.76
	FillingsUpdate:  mu: -0.083255410  nElectrons: 9.000000  magneticMoment: [ Abs: 0.16117  Tot: +0.16000 ]
SCF: Cycle:  5   F: -24.430772491043005   dF: -4.191e-07   |Residual|: 1.266e-04   |deigs|: 6.883e-04  t[s]:     60.56
	FillingsUpdate:  mu: -0.083256891  nElectrons: 9.000000  magneticMoment: [ Abs: 0.16110  Tot: +0.16000 ]
SCF: Cycle:  6   F: -24.430772768613323   dF: -2.776e-07   |Residual|: 7.872e-05   |deigs|: 8.366e-04  t[s]:     67.51
	FillingsUpdate:  mu: -0.083247052  nElectrons: 9.000000  magneticMoment: [ Abs: 0.16102  Tot: +0.16000 ]
SCF: Cycle:  7   F: -24.430772901704216   dF: -1.331e-07   |Residual|: 5.914e-05   |deigs|: 5.699e-04  t[s]:     74.55
	FillingsUpdate:  mu: -0.083228797  nElectrons: 9.000000  magneticMoment: [ Abs: 0.16098  Tot: +0.16000 ]
SCF: Cycle:  8   F: -24.430772974287301   dF: -7.258e-08   |Residual|: 4.328e-05   |deigs|: 3.390e-04  t[s]:     81.68
	FillingsUpdate:  mu: -0.083203891  nElectrons: 9.000000  magneticMoment: [ Abs: 0.16091  Tot: +0.16000 ]
SCF: Cycle:  9   F: -24.430772997386370   dF: -2.310e-08   |Residual|: 3.275e-05   |deigs|: 7.687e-05  t[s]:     88.94
	FillingsUpdate:  mu: -0.083186266  nElectrons: 9.000000  magneticMoment: [ Abs: 0.16095  Tot: +0.16000 ]
SCF: Cycle: 10   F: -24.430772997815520   dF: -4.292e-10   |Residual|: 2.980e-05   |deigs|: 4.626e-05  t[s]:     96.32
	FillingsUpdate:  mu: -0.083162616  nElectrons: 9.000000  magneticMoment: [ Abs: 0.16103  Tot: +0.16000 ]
SCF: Cycle: 11   F: -24.430772977635883   dF: +2.018e-08   |Residual|: 2.664e-05   |deigs|: 2.707e-05  t[s]:    103.77
	FillingsUpdate:  mu: -0.083133291  nElectrons: 9.000000  magneticMoment: [ Abs: 0.16100  Tot: +0.16000 ]
SCF: Cycle: 12   F: -24.430772949560573   dF: +2.808e-08   |Residual|: 2.444e-05   |deigs|: 3.478e-05  t[s]:    111.24
	FillingsUpdate:  mu: -0.083108856  nElectrons: 9.000000  magneticMoment: [ Abs: 0.16097  Tot: +0.16000 ]
SCF: Cycle: 13   F: -24.430772958223415   dF: -8.663e-09   |Residual|: 2.156e-05   |deigs|: 4.424e-05  t[s]:    118.64
	FillingsUpdate:  mu: -0.083083052  nElectrons: 9.000000  magneticMoment: [ Abs: 0.16099  Tot: +0.16000 ]
SCF: Cycle: 14   F: -24.430772923882383   dF: +3.434e-08   |Residual|: 2.034e-05   |deigs|: 7.919e-05  t[s]:    126.05
	FillingsUpdate:  mu: -0.083063156  nElectrons: 9.000000  magneticMoment: [ Abs: 0.16095  Tot: +0.16000 ]
SCF: Cycle: 15   F: -24.430772962234322   dF: -3.835e-08   |Residual|: 1.816e-05   |deigs|: 1.148e-04  t[s]:    133.42
	FillingsUpdate:  mu: -0.083036472  nElectrons: 9.000000  magneticMoment: [ Abs: 0.16096  Tot: +0.16000 ]
SCF: Cycle: 16   F: -24.430772969446664   dF: -7.212e-09   |Residual|: 1.600e-05   |deigs|: 1.038e-04  t[s]:    140.58
	FillingsUpdate:  mu: -0.083014103  nElectrons: 9.000000  magneticMoment: [ Abs: 0.16094  Tot: +0.16000 ]
SCF: Cycle: 17   F: -24.430772933337813   dF: +3.611e-08   |Residual|: 1.438e-05   |deigs|: 7.293e-05  t[s]:    148.07
	FillingsUpdate:  mu: -0.083010581  nElectrons: 9.000000  magneticMoment: [ Abs: 0.16091  Tot: +0.16000 ]
SCF: Cycle: 18   F: -24.430772994709386   dF: -6.137e-08   |Residual|: 1.156e-05   |deigs|: 3.874e-05  t[s]:    154.94
	FillingsUpdate:  mu: -0.083006153  nElectrons: 9.000000  magneticMoment: [ Abs: 0.16092  Tot: +0.16000 ]
SCF: Cycle: 19   F: -24.430773001674904   dF: -6.966e-09   |Residual|: 8.781e-06   |deigs|: 2.005e-05  t[s]:    161.75
	FillingsUpdate:  mu: -0.082999670  nElectrons: 9.000000  magneticMoment: [ Abs: 0.16092  Tot: +0.16000 ]
SCF: Cycle: 20   F: -24.430773036902195   dF: -3.523e-08   |Residual|: 6.272e-06   |deigs|: 1.120e-05  t[s]:    169.12
	FillingsUpdate:  mu: -0.082998024  nElectrons: 9.000000  magneticMoment: [ Abs: 0.16092  Tot: +0.16000 ]
SCF: Cycle: 21   F: -24.430773046169200   dF: -9.267e-09   |Residual|: 4.812e-06   |deigs|: 5.541e-06  t[s]:    175.92
	FillingsUpdate:  mu: -0.082997048  nElectrons: 9.000000  magneticMoment: [ Abs: 0.16092  Tot: +0.16000 ]
SCF: Cycle: 22   F: -24.430773042549511   dF: +3.620e-09   |Residual|: 3.732e-06   |deigs|: 5.158e-06  t[s]:    182.78
	FillingsUpdate:  mu: -0.082996439  nElectrons: 9.000000  magneticMoment: [ Abs: 0.16092  Tot: +0.16000 ]
SCF: Cycle: 23   F: -24.430773049932228   dF: -7.383e-09   |Residual|: 2.419e-06   |deigs|: 7.239e-06  t[s]:    189.91
	FillingsUpdate:  mu: -0.082996443  nElectrons: 9.000000  magneticMoment: [ Abs: 0.16091  Tot: +0.16000 ]
SCF: Cycle: 24   F: -24.430773051354571   dF: -1.422e-09   |Residual|: 1.681e-06   |deigs|: 1.028e-05  t[s]:    196.67
SCF: Converged (|Delta E|<1.000000e-08 for 2 iters).


# Ionic positions in lattice coordinates:
ion Rb   0.000000000000000   0.000000000000000   0.000000000000000 0

# Forces in Lattice coordinates:
force Rb   0.000000000000000  -0.000000000000000   0.000000000000000 0

# Energy components:
   Eewald =       -9.0240130501663280
       EH =       10.5166869491338737
     Eloc =      -28.4404014145658337
      Enl =       -0.7932298212360335
   Epulay =        0.0000000056959385
      Exc =       -3.6475011351116979
       KE =        6.9576858489728295
-------------------------------------
     Etot =      -24.4307726172772490
       TS =        0.0000004340773206
-------------------------------------
        F =      -24.4307730513545707

IonicMinimize: Iter:   0  F: -24.430773051354571  |grad|_K:  0.000e+00  t[s]:    197.08
IonicMinimize: Converged (|grad|_K<1.000000e-04).

#--- Lowdin population analysis ---
# oxidation-state Rb +0.002
# magnetic-moments Rb +0.160

End date and time: Sun Feb  6 12:53:35 2022  (Duration: 0-0:03:17.14)
Done!
