The alkali metal is Rb
scale=2
magnetization=0.9
--------------------------------------------------------------------------
The library attempted to open the following supporting CUDA libraries,
but each of them failed.  CUDA-aware support is disabled.
libcuda.so.1: cannot open shared object file: No such file or directory
libcuda.dylib: cannot open shared object file: No such file or directory
/usr/lib64/libcuda.so.1: cannot open shared object file: No such file or directory
/usr/lib64/libcuda.dylib: cannot open shared object file: No such file or directory
If you are not interested in CUDA-aware support, then run with
--mca opal_warn_on_missing_libcuda 0 to suppress this message.  If you are interested
in CUDA-aware support, then try setting LD_LIBRARY_PATH to the location
of libcuda.so.1 to get passed this issue.
--------------------------------------------------------------------------
--------------------------------------------------------------------------
No OpenFabrics connection schemes reported that they were able to be
used on a specific port.  As such, the openib BTL (OpenFabrics
support) will be disabled for this port.

  Local host:           d-4-6-1
  Local device:         mlx5_1
  Local port:           1
  CPCs attempted:       rdmacm, udcm
--------------------------------------------------------------------------

*************** JDFTx 1.6.0 (git hash 42ebbcc2) ***************

Start date and time: Sun Feb  6 12:58:52 2022
Executable jdftx with command-line: -i Alkali.in
Running on hosts (process indices):  d-4-6-1 (0-18)
Divided in process groups (process indices):  0 (0)  1 (1)  2 (2)  3 (3)  4 (4)  5 (5)  6 (6)  7 (7)  8 (8)  9 (9)  10 (10)  11 (11)  12 (12)  13 (13)  14 (14)  15 (15)  16 (16)  17 (17)  18 (18)
Resource initialization completed at t[s]:      0.00
Run totals: 19 processes, 48 threads, 0 GPUs


Input parsed successfully to the following command list (including defaults):

basis kpoint-dependent
coords-type Lattice
core-overlap-check vector
coulomb-interaction Slab 001
davidson-band-ratio 1.1
dump End None
dump-name $INPUT.$VAR
elec-cutoff 20
elec-eigen-algo Davidson
elec-ex-corr gga-PBE
elec-initial-magnetization 0.900000 yes
elec-smearing Fermi 1e-05
electronic-minimize  \
	dirUpdateScheme      FletcherReeves \
	linminMethod         DirUpdateRecommended \
	nIterations          100 \
	history              15 \
	knormThreshold       0 \
	energyDiffThreshold  1e-08 \
	nEnergyDiff          2 \
	alphaTstart          1 \
	alphaTmin            1e-10 \
	updateTestStepSize   yes \
	alphaTreduceFactor   0.1 \
	alphaTincreaseFactor 3 \
	nAlphaAdjustMax      3 \
	wolfeEnergy          0.0001 \
	wolfeGradient        0.9 \
	fdTest               no
electronic-scf  \
	nIterations	10000 \
	energyDiffThreshold	1e-08 \
	residualThreshold	1e-07 \
	mixFraction	0.5 \
	qMetric	0.8 \
	history	10 \
	nEigSteps	2 \
	eigDiffThreshold	1e-08 \
	mixedVariable	Density \
	qKerker	0.8 \
	qKappa	-1 \
	verbose	no \
	mixFractionMag	1.5
exchange-regularization WignerSeitzTruncated
fluid None
fluid-ex-corr (null) lda-PZ
fluid-gummel-loop 10 1.000000e-05
fluid-minimize  \
	dirUpdateScheme      PolakRibiere \
	linminMethod         DirUpdateRecommended \
	nIterations          100 \
	history              15 \
	knormThreshold       0 \
	energyDiffThreshold  0 \
	nEnergyDiff          2 \
	alphaTstart          1 \
	alphaTmin            1e-10 \
	updateTestStepSize   yes \
	alphaTreduceFactor   0.1 \
	alphaTincreaseFactor 3 \
	nAlphaAdjustMax      3 \
	wolfeEnergy          0.0001 \
	wolfeGradient        0.9 \
	fdTest               no
fluid-solvent H2O 55.338 ScalarEOS \
	epsBulk 78.4 \
	pMol 0.92466 \
	epsInf 1.77 \
	Pvap 1.06736e-10 \
	sigmaBulk 4.62e-05 \
	Rvdw 2.61727 \
	Res 1.42 \
	tauNuc 343133 \
	poleEl 15 7 1
forces-output-coords Positions
ion Rb   0.000000000000000   0.000000000000000   0.000000000000000 0
ion-species SG15/$ID_ONCV_PBE.upf
ion-width 0
ionic-minimize  \
	dirUpdateScheme      L-BFGS \
	linminMethod         DirUpdateRecommended \
	nIterations          0 \
	history              15 \
	knormThreshold       0.0001 \
	energyDiffThreshold  1e-06 \
	nEnergyDiff          2 \
	alphaTstart          1 \
	alphaTmin            1e-10 \
	updateTestStepSize   yes \
	alphaTreduceFactor   0.1 \
	alphaTincreaseFactor 3 \
	nAlphaAdjustMax      3 \
	wolfeEnergy          0.0001 \
	wolfeGradient        0.9 \
	fdTest               no
kpoint   0.000000000000   0.000000000000   0.000000000000  1.00000000000000
kpoint-folding 12 12 1 
latt-move-scale 1 1 1
latt-scale 2 2 1 
lattice  \
	   4.727486978767153   -2.363743489383575    0.000000000000000  \
	  -0.000000000000000    4.094123819672498    0.000000000000000  \
	   0.000000000000000    0.000000000000000   40.000000000000000 
lattice-minimize  \
	dirUpdateScheme      L-BFGS \
	linminMethod         DirUpdateRecommended \
	nIterations          0 \
	history              15 \
	knormThreshold       0 \
	energyDiffThreshold  1e-06 \
	nEnergyDiff          2 \
	alphaTstart          1 \
	alphaTmin            1e-10 \
	updateTestStepSize   yes \
	alphaTreduceFactor   0.1 \
	alphaTincreaseFactor 3 \
	nAlphaAdjustMax      3 \
	wolfeEnergy          0.0001 \
	wolfeGradient        0.9 \
	fdTest               no
lcao-params -1 1e-06 1e-05
pcm-variant GLSSA13
spintype z-spin
subspace-rotation-factor 1 yes
symmetries automatic
symmetry-threshold 0.0001



---------- Setting up symmetries ----------

Found 24 point-group symmetries of the bravais lattice
Found 24 space-group symmetries with basis
Applied RMS atom displacement 0 bohrs to make symmetries exact.

---------- Initializing the Grid ----------
R = 
[      9.45497     -4.72749            0  ]
[            0      8.18825            0  ]
[            0            0           40  ]
unit cell volume = 3096.79
G =
[   0.664538   0.383671         -0  ]
[          0   0.767342         -0  ]
[         -0         -0    0.15708  ]
Minimum fftbox size, Smin = [  40  40  164  ]
Chosen fftbox size, S = [  40  40  168  ]

---------- Exchange Correlation functional ----------
Initalized PBE GGA exchange.
Initalized PBE GGA correlation.

---------- Setting up pseudopotentials ----------
Width of ionic core gaussian charges (only for fluid interactions / plotting) set to 0

Reading pseudopotential file '/home/gridsan/aligho/DFT/build-Nov24/pseudopotentials/SG15/Rb_ONCV_PBE.upf':
  'Rb' pseudopotential, 'PBE' functional
  Generated using ONCVPSP code by D. R. Hamann
  Author: Martin Schlipf and Francois Gygi  Date: 150915.
  9 valence electrons, 3 orbitals, 6 projectors, 2308 radial grid points, with lMax = 2
  Transforming local potential to a uniform radial grid of dG=0.02 with 1489 points.
  Transforming nonlocal projectors to a uniform radial grid of dG=0.02 with 432 points.
    4S    l: 0   occupation:  2.0   eigenvalue: -1.172069
    4P    l: 1   occupation:  6.0   eigenvalue: -0.586674
    5S    l: 0   occupation:  1.0   eigenvalue: -0.082006
  Transforming atomic orbitals to a uniform radial grid of dG=0.02 with 432 points.
  Core radius for overlap checks: 2.60 bohrs.
  Reading pulay file /home/gridsan/aligho/DFT/build-Nov24/pseudopotentials/SG15/Rb_ONCV_PBE.pulay ... using dE_dnG = -1.360715e-05 computed for Ecut = 20.

Initialized 1 species with 1 total atoms.

Folded 1 k-points by 12x12x1 to 144 k-points.

---------- Setting up k-points, bands, fillings ----------
Reduced to 19 k-points under symmetry. 
Computing the number of bands and number of electrons
Calculating initial fillings.
nElectrons:   9.000000   nBands: 6   nStates: 38

----- Setting up reduced wavefunction bases (one per k-point) -----
average nbasis = 13230.521 , ideal nbasis = 13229.709

---------- Setting up coulomb interaction ----------
Initialized slab truncation along lattice direction 001

---------- Setting up 2D ewald sum ----------
Optimum gaussian width for ewald sums = 5.249020 bohr.
Real space sums over 289 unit cells with max indices [  8  8  0  ]
Reciprocal space sums over 81 terms with max indices [  4  4  0  ]

---------- Allocating electronic variables ----------
Initializing wave functions:  linear combination of atomic orbitals
Note: number of bands (6) exceeds available atomic orbitals (5)
Rb pseudo-atom occupations:   s ( 2 1 )  p ( 6 )
	FillingsUpdate:  mu: -0.090113113  nElectrons: 9.000000  magneticMoment: [ Abs: 0.90000  Tot: +0.90000 ]
LCAOMinimize: Iter:   0  F: -24.4318420566164924  |grad|_K:  9.117e-06  alpha:  1.000e+00
	FillingsUpdate:  mu: -0.090110139  nElectrons: 9.000000  magneticMoment: [ Abs: 0.90000  Tot: +0.90000 ]
LCAOMinimize: Iter:   1  F: -24.4318421124917329  |grad|_K:  9.208e-08  alpha:  9.828e-01  linmin: -8.267e-03  cgtest:  1.681e-01  t[s]:      4.62
LCAOMinimize: Encountered beta<0, resetting CG.
[d-4-6-1:09674] 18 more processes have sent help message help-mpi-common-cuda.txt / dlopen failed
[d-4-6-1:09674] Set MCA parameter "orte_base_help_aggregate" to 0 to see all help / error messages
[d-4-6-1:09674] 18 more processes have sent help message help-mpi-btl-openib-cpc-base.txt / no cpcs for port
	FillingsUpdate:  mu: -0.090110167  nElectrons: 9.000000  magneticMoment: [ Abs: 0.90000  Tot: +0.90000 ]
LCAOMinimize: Iter:   2  F: -24.4318421124974563  |grad|_K:  1.709e-09  alpha:  1.015e+00  linmin:  6.629e-02  cgtest: -9.035e-01  t[s]:      5.84
LCAOMinimize: Converged (|Delta F|<1.000000e-06 for 2 iters).


---- Citations for features of the code used in this run ----

   Software package:
      R. Sundararaman, K. Letchworth-Weaver, K.A. Schwarz, D. Gunceler, Y. Ozhabes and T.A. Arias, 'JDFTx: software for joint density-functional theory', SoftwareX 6, 278 (2017)

   gga-PBE exchange-correlation functional:
      J.P. Perdew, K. Burke and M. Ernzerhof, Phys. Rev. Lett. 77, 3865 (1996)

   Pseudopotentials:
      M Schlipf and F Gygi, Comput. Phys. Commun. 196, 36 (2015)

   Truncated Coulomb potentials:
      R. Sundararaman and T.A. Arias, Phys. Rev. B 87, 165122 (2013)

This list may not be complete. Please suggest additional citations or
report any other bugs at https://github.com/shankar1729/jdftx/issues

Initialization completed successfully at t[s]:      5.93


-------- Electronic minimization -----------
Will mix electronic density at each iteration.
	FillingsUpdate:  mu: -0.090110167  nElectrons: 9.000000  magneticMoment: [ Abs: 0.90000  Tot: +0.90000 ]
	FillingsUpdate:  mu: -0.105250753  nElectrons: 9.000000  magneticMoment: [ Abs: 0.90000  Tot: +0.90000 ]
SCF: Cycle:  0   F: -24.442521533343335   dF: -1.068e-02   |Residual|: 1.688e-02   |deigs|: 1.776e-01  t[s]:      8.42
	FillingsUpdate:  mu: -0.106950844  nElectrons: 9.000000  magneticMoment: [ Abs: 0.90000  Tot: +0.90000 ]
SCF: Cycle:  1   F: -24.443180538525883   dF: -6.590e-04   |Residual|: 1.209e-02   |deigs|: 7.801e-03  t[s]:     10.33
	FillingsUpdate:  mu: -0.106171856  nElectrons: 9.000000  magneticMoment: [ Abs: 0.90304  Tot: +0.90000 ]
SCF: Cycle:  2   F: -24.443412808948967   dF: -2.323e-04   |Residual|: 7.327e-03   |deigs|: 2.449e-03  t[s]:     12.21
	FillingsUpdate:  mu: -0.107412764  nElectrons: 9.000000  magneticMoment: [ Abs: 0.90010  Tot: +0.90000 ]
SCF: Cycle:  3   F: -24.443514747119018   dF: -1.019e-04   |Residual|: 4.208e-03   |deigs|: 2.515e-03  t[s]:     14.08
	FillingsUpdate:  mu: -0.102352243  nElectrons: 9.000000  magneticMoment: [ Abs: 0.90024  Tot: +0.90000 ]
SCF: Cycle:  4   F: -24.443698679181718   dF: -1.839e-04   |Residual|: 2.778e-03   |deigs|: 3.773e-03  t[s]:     16.11
	FillingsUpdate:  mu: -0.104176853  nElectrons: 9.000000  magneticMoment: [ Abs: 0.90000  Tot: +0.90000 ]
SCF: Cycle:  5   F: -24.443622028122022   dF: +7.665e-05   |Residual|: 3.546e-03   |deigs|: 3.075e-03  t[s]:     18.04
	FillingsUpdate:  mu: -0.102141961  nElectrons: 9.000000  magneticMoment: [ Abs: 0.90156  Tot: +0.90000 ]
SCF: Cycle:  6   F: -24.443636229423632   dF: -1.420e-05   |Residual|: 2.883e-03   |deigs|: 1.886e-03  t[s]:     20.04
	FillingsUpdate:  mu: -0.101236764  nElectrons: 9.000000  magneticMoment: [ Abs: 0.90285  Tot: +0.90000 ]
SCF: Cycle:  7   F: -24.443647414459825   dF: -1.119e-05   |Residual|: 2.772e-03   |deigs|: 1.361e-03  t[s]:     22.02
	FillingsUpdate:  mu: -0.098776014  nElectrons: 9.000000  magneticMoment: [ Abs: 0.90171  Tot: +0.90000 ]
SCF: Cycle:  8   F: -24.443653639434515   dF: -6.225e-06   |Residual|: 1.815e-03   |deigs|: 2.844e-03  t[s]:     24.02
	FillingsUpdate:  mu: -0.097019733  nElectrons: 9.000000  magneticMoment: [ Abs: 0.90013  Tot: +0.90000 ]
SCF: Cycle:  9   F: -24.443664303547173   dF: -1.066e-05   |Residual|: 1.447e-03   |deigs|: 2.001e-03  t[s]:     26.05
	FillingsUpdate:  mu: -0.095480278  nElectrons: 9.000000  magneticMoment: [ Abs: 0.90059  Tot: +0.90000 ]
SCF: Cycle: 10   F: -24.443777867475436   dF: -1.136e-04   |Residual|: 1.483e-03   |deigs|: 1.537e-03  t[s]:     28.19
	FillingsUpdate:  mu: -0.096817515  nElectrons: 9.000000  magneticMoment: [ Abs: 0.90032  Tot: +0.90000 ]
SCF: Cycle: 11   F: -24.443674915285314   dF: +1.030e-04   |Residual|: 1.739e-03   |deigs|: 1.633e-03  t[s]:     30.33
	FillingsUpdate:  mu: -0.095653596  nElectrons: 9.000000  magneticMoment: [ Abs: 0.90102  Tot: +0.90000 ]
SCF: Cycle: 12   F: -24.443792171394723   dF: -1.173e-04   |Residual|: 7.119e-04   |deigs|: 1.146e-03  t[s]:     32.47
	FillingsUpdate:  mu: -0.096518150  nElectrons: 9.000000  magneticMoment: [ Abs: 0.90390  Tot: +0.90000 ]
SCF: Cycle: 13   F: -24.443792852485057   dF: -6.811e-07   |Residual|: 6.303e-04   |deigs|: 1.119e-03  t[s]:     34.54
	FillingsUpdate:  mu: -0.096740481  nElectrons: 9.000000  magneticMoment: [ Abs: 0.90548  Tot: +0.90000 ]
SCF: Cycle: 14   F: -24.443796373233472   dF: -3.521e-06   |Residual|: 9.730e-04   |deigs|: 3.960e-04  t[s]:     36.71
	FillingsUpdate:  mu: -0.096824065  nElectrons: 9.000000  magneticMoment: [ Abs: 0.90268  Tot: +0.90000 ]
SCF: Cycle: 15   F: -24.443800355361674   dF: -3.982e-06   |Residual|: 1.285e-03   |deigs|: 2.439e-04  t[s]:     38.78
	FillingsUpdate:  mu: -0.096389621  nElectrons: 9.000000  magneticMoment: [ Abs: 0.90199  Tot: +0.90000 ]
SCF: Cycle: 16   F: -24.443802687312964   dF: -2.332e-06   |Residual|: 1.281e-03   |deigs|: 4.767e-04  t[s]:     40.84
	FillingsUpdate:  mu: -0.095765299  nElectrons: 9.000000  magneticMoment: [ Abs: 0.90258  Tot: +0.90000 ]
SCF: Cycle: 17   F: -24.443804478449575   dF: -1.791e-06   |Residual|: 1.129e-03   |deigs|: 7.120e-04  t[s]:     42.97
	FillingsUpdate:  mu: -0.094264689  nElectrons: 9.000000  magneticMoment: [ Abs: 0.90280  Tot: +0.90000 ]
SCF: Cycle: 18   F: -24.443807037004948   dF: -2.559e-06   |Residual|: 6.915e-04   |deigs|: 1.594e-03  t[s]:     45.02
	FillingsUpdate:  mu: -0.092999522  nElectrons: 9.000000  magneticMoment: [ Abs: 0.90258  Tot: +0.90000 ]
SCF: Cycle: 19   F: -24.443807958354572   dF: -9.213e-07   |Residual|: 3.275e-04   |deigs|: 1.393e-03  t[s]:     47.09
	FillingsUpdate:  mu: -0.092086006  nElectrons: 9.000000  magneticMoment: [ Abs: 0.90182  Tot: +0.90000 ]
SCF: Cycle: 20   F: -24.443808284046810   dF: -3.257e-07   |Residual|: 1.207e-04   |deigs|: 1.003e-03  t[s]:     49.14
	FillingsUpdate:  mu: -0.091604260  nElectrons: 9.000000  magneticMoment: [ Abs: 0.90094  Tot: +0.90000 ]
SCF: Cycle: 21   F: -24.443808701691186   dF: -4.176e-07   |Residual|: 6.990e-05   |deigs|: 5.079e-04  t[s]:     51.21
	FillingsUpdate:  mu: -0.091791428  nElectrons: 9.000000  magneticMoment: [ Abs: 0.90055  Tot: +0.90000 ]
SCF: Cycle: 22   F: -24.443808949539520   dF: -2.478e-07   |Residual|: 3.861e-05   |deigs|: 2.524e-04  t[s]:     53.30
	FillingsUpdate:  mu: -0.091828345  nElectrons: 9.000000  magneticMoment: [ Abs: 0.90021  Tot: +0.90000 ]
SCF: Cycle: 23   F: -24.443809075616098   dF: -1.261e-07   |Residual|: 2.152e-05   |deigs|: 1.291e-04  t[s]:     55.42
	FillingsUpdate:  mu: -0.091825577  nElectrons: 9.000000  magneticMoment: [ Abs: 0.90010  Tot: +0.90000 ]
SCF: Cycle: 24   F: -24.443809111519453   dF: -3.590e-08   |Residual|: 1.056e-05   |deigs|: 4.325e-05  t[s]:     57.54
	FillingsUpdate:  mu: -0.091826913  nElectrons: 9.000000  magneticMoment: [ Abs: 0.90009  Tot: +0.90000 ]
SCF: Cycle: 25   F: -24.443809120741118   dF: -9.222e-09   |Residual|: 6.614e-06   |deigs|: 4.016e-05  t[s]:     59.58
	FillingsUpdate:  mu: -0.091829700  nElectrons: 9.000000  magneticMoment: [ Abs: 0.90008  Tot: +0.90000 ]
SCF: Cycle: 26   F: -24.443809128243004   dF: -7.502e-09   |Residual|: 5.157e-06   |deigs|: 4.008e-05  t[s]:     61.72
SCF: Converged (|Delta E|<1.000000e-08 for 2 iters).


# Ionic positions in lattice coordinates:
ion Rb   0.000000000000000   0.000000000000000   0.000000000000000 0

# Forces in Lattice coordinates:
force Rb  -0.000000000000000  -0.000000000000000   0.000000000000000 0

# Energy components:
   Eewald =      -18.0480261003326561
       EH =        1.6217550318032965
     Eloc =      -10.5328102284566700
      Enl =       -0.8006366463409764
   Epulay =        0.0000000035676145
      Exc =       -3.6818653885912065
       KE =        6.9977748381608400
-------------------------------------
     Etot =      -24.4438084901897561
       TS =        0.0000006380532459
-------------------------------------
        F =      -24.4438091282430037

IonicMinimize: Iter:   0  F: -24.443809128243004  |grad|_K:  0.000e+00  t[s]:     61.84
IonicMinimize: Converged (|grad|_K<1.000000e-04).

#--- Lowdin population analysis ---
# oxidation-state Rb +0.170
# magnetic-moments Rb +0.733

End date and time: Sun Feb  6 12:59:54 2022  (Duration: 0-0:01:01.86)
Done!
scale=3
magnetization=0.9
--------------------------------------------------------------------------
The library attempted to open the following supporting CUDA libraries,
but each of them failed.  CUDA-aware support is disabled.
libcuda.so.1: cannot open shared object file: No such file or directory
libcuda.dylib: cannot open shared object file: No such file or directory
/usr/lib64/libcuda.so.1: cannot open shared object file: No such file or directory
/usr/lib64/libcuda.dylib: cannot open shared object file: No such file or directory
If you are not interested in CUDA-aware support, then run with
--mca opal_warn_on_missing_libcuda 0 to suppress this message.  If you are interested
in CUDA-aware support, then try setting LD_LIBRARY_PATH to the location
of libcuda.so.1 to get passed this issue.
--------------------------------------------------------------------------
--------------------------------------------------------------------------
No OpenFabrics connection schemes reported that they were able to be
used on a specific port.  As such, the openib BTL (OpenFabrics
support) will be disabled for this port.

  Local host:           d-4-6-1
  Local device:         mlx5_1
  Local port:           1
  CPCs attempted:       rdmacm, udcm
--------------------------------------------------------------------------

*************** JDFTx 1.6.0 (git hash 42ebbcc2) ***************

Start date and time: Sun Feb  6 12:59:55 2022
Executable jdftx with command-line: -i Alkali.in
Running on hosts (process indices):  d-4-6-1 (0-18)
Divided in process groups (process indices):  0 (0)  1 (1)  2 (2)  3 (3)  4 (4)  5 (5)  6 (6)  7 (7)  8 (8)  9 (9)  10 (10)  11 (11)  12 (12)  13 (13)  14 (14)  15 (15)  16 (16)  17 (17)  18 (18)
Resource initialization completed at t[s]:      0.00
Run totals: 19 processes, 48 threads, 0 GPUs


Input parsed successfully to the following command list (including defaults):

basis kpoint-dependent
coords-type Lattice
core-overlap-check vector
coulomb-interaction Slab 001
davidson-band-ratio 1.1
dump End None
dump-name $INPUT.$VAR
elec-cutoff 20
elec-eigen-algo Davidson
elec-ex-corr gga-PBE
elec-initial-magnetization 0.900000 yes
elec-smearing Fermi 1e-05
electronic-minimize  \
	dirUpdateScheme      FletcherReeves \
	linminMethod         DirUpdateRecommended \
	nIterations          100 \
	history              15 \
	knormThreshold       0 \
	energyDiffThreshold  1e-08 \
	nEnergyDiff          2 \
	alphaTstart          1 \
	alphaTmin            1e-10 \
	updateTestStepSize   yes \
	alphaTreduceFactor   0.1 \
	alphaTincreaseFactor 3 \
	nAlphaAdjustMax      3 \
	wolfeEnergy          0.0001 \
	wolfeGradient        0.9 \
	fdTest               no
electronic-scf  \
	nIterations	10000 \
	energyDiffThreshold	1e-08 \
	residualThreshold	1e-07 \
	mixFraction	0.5 \
	qMetric	0.8 \
	history	10 \
	nEigSteps	2 \
	eigDiffThreshold	1e-08 \
	mixedVariable	Density \
	qKerker	0.8 \
	qKappa	-1 \
	verbose	no \
	mixFractionMag	1.5
exchange-regularization WignerSeitzTruncated
fluid None
fluid-ex-corr (null) lda-PZ
fluid-gummel-loop 10 1.000000e-05
fluid-minimize  \
	dirUpdateScheme      PolakRibiere \
	linminMethod         DirUpdateRecommended \
	nIterations          100 \
	history              15 \
	knormThreshold       0 \
	energyDiffThreshold  0 \
	nEnergyDiff          2 \
	alphaTstart          1 \
	alphaTmin            1e-10 \
	updateTestStepSize   yes \
	alphaTreduceFactor   0.1 \
	alphaTincreaseFactor 3 \
	nAlphaAdjustMax      3 \
	wolfeEnergy          0.0001 \
	wolfeGradient        0.9 \
	fdTest               no
fluid-solvent H2O 55.338 ScalarEOS \
	epsBulk 78.4 \
	pMol 0.92466 \
	epsInf 1.77 \
	Pvap 1.06736e-10 \
	sigmaBulk 4.62e-05 \
	Rvdw 2.61727 \
	Res 1.42 \
	tauNuc 343133 \
	poleEl 15 7 1
forces-output-coords Positions
ion Rb   0.000000000000000   0.000000000000000   0.000000000000000 0
ion-species SG15/$ID_ONCV_PBE.upf
ion-width 0
ionic-minimize  \
	dirUpdateScheme      L-BFGS \
	linminMethod         DirUpdateRecommended \
	nIterations          0 \
	history              15 \
	knormThreshold       0.0001 \
	energyDiffThreshold  1e-06 \
	nEnergyDiff          2 \
	alphaTstart          1 \
	alphaTmin            1e-10 \
	updateTestStepSize   yes \
	alphaTreduceFactor   0.1 \
	alphaTincreaseFactor 3 \
	nAlphaAdjustMax      3 \
	wolfeEnergy          0.0001 \
	wolfeGradient        0.9 \
	fdTest               no
kpoint   0.000000000000   0.000000000000   0.000000000000  1.00000000000000
kpoint-folding 12 12 1 
latt-move-scale 1 1 1
latt-scale 3 3 1 
lattice  \
	   4.727486978767153   -2.363743489383575    0.000000000000000  \
	  -0.000000000000000    4.094123819672498    0.000000000000000  \
	   0.000000000000000    0.000000000000000   40.000000000000000 
lattice-minimize  \
	dirUpdateScheme      L-BFGS \
	linminMethod         DirUpdateRecommended \
	nIterations          0 \
	history              15 \
	knormThreshold       0 \
	energyDiffThreshold  1e-06 \
	nEnergyDiff          2 \
	alphaTstart          1 \
	alphaTmin            1e-10 \
	updateTestStepSize   yes \
	alphaTreduceFactor   0.1 \
	alphaTincreaseFactor 3 \
	nAlphaAdjustMax      3 \
	wolfeEnergy          0.0001 \
	wolfeGradient        0.9 \
	fdTest               no
lcao-params -1 1e-06 1e-05
pcm-variant GLSSA13
spintype z-spin
subspace-rotation-factor 1 yes
symmetries automatic
symmetry-threshold 0.0001



---------- Setting up symmetries ----------

Found 24 point-group symmetries of the bravais lattice
Found 24 space-group symmetries with basis
Applied RMS atom displacement 0 bohrs to make symmetries exact.

---------- Initializing the Grid ----------
R = 
[      14.1825     -7.09123            0  ]
[            0      12.2824            0  ]
[            0            0           40  ]
unit cell volume = 6967.77
G =
[   0.443025   0.255781         -0  ]
[          0   0.511561         -0  ]
[         -0         -0    0.15708  ]
Minimum fftbox size, Smin = [  60  60  164  ]
Chosen fftbox size, S = [  60  60  168  ]

---------- Exchange Correlation functional ----------
Initalized PBE GGA exchange.
Initalized PBE GGA correlation.

---------- Setting up pseudopotentials ----------
Width of ionic core gaussian charges (only for fluid interactions / plotting) set to 0

Reading pseudopotential file '/home/gridsan/aligho/DFT/build-Nov24/pseudopotentials/SG15/Rb_ONCV_PBE.upf':
  'Rb' pseudopotential, 'PBE' functional
  Generated using ONCVPSP code by D. R. Hamann
  Author: Martin Schlipf and Francois Gygi  Date: 150915.
  9 valence electrons, 3 orbitals, 6 projectors, 2308 radial grid points, with lMax = 2
  Transforming local potential to a uniform radial grid of dG=0.02 with 1489 points.
  Transforming nonlocal projectors to a uniform radial grid of dG=0.02 with 432 points.
    4S    l: 0   occupation:  2.0   eigenvalue: -1.172069
    4P    l: 1   occupation:  6.0   eigenvalue: -0.586674
    5S    l: 0   occupation:  1.0   eigenvalue: -0.082006
  Transforming atomic orbitals to a uniform radial grid of dG=0.02 with 432 points.
  Core radius for overlap checks: 2.60 bohrs.
  Reading pulay file /home/gridsan/aligho/DFT/build-Nov24/pseudopotentials/SG15/Rb_ONCV_PBE.pulay ... using dE_dnG = -1.360715e-05 computed for Ecut = 20.

Initialized 1 species with 1 total atoms.

Folded 1 k-points by 12x12x1 to 144 k-points.

---------- Setting up k-points, bands, fillings ----------
Reduced to 19 k-points under symmetry. 
Computing the number of bands and number of electrons
Calculating initial fillings.
nElectrons:   9.000000   nBands: 6   nStates: 38

----- Setting up reduced wavefunction bases (one per k-point) -----
average nbasis = 29766.104 , ideal nbasis = 29766.845

---------- Setting up coulomb interaction ----------
Initialized slab truncation along lattice direction 001

---------- Setting up 2D ewald sum ----------
Optimum gaussian width for ewald sums = 7.873530 bohr.
Real space sums over 289 unit cells with max indices [  8  8  0  ]
Reciprocal space sums over 81 terms with max indices [  4  4  0  ]

---------- Allocating electronic variables ----------
Initializing wave functions:  linear combination of atomic orbitals
Note: number of bands (6) exceeds available atomic orbitals (5)
Rb pseudo-atom occupations:   s ( 2 1 )  p ( 6 )
[d-4-6-1:71542] 18 more processes have sent help message help-mpi-common-cuda.txt / dlopen failed
[d-4-6-1:71542] Set MCA parameter "orte_base_help_aggregate" to 0 to see all help / error messages
[d-4-6-1:71542] 18 more processes have sent help message help-mpi-btl-openib-cpc-base.txt / no cpcs for port
	FillingsUpdate:  mu: -0.084452147  nElectrons: 9.000000  magneticMoment: [ Abs: 0.90000  Tot: +0.90000 ]
LCAOMinimize: Iter:   0  F: -24.4343417706506649  |grad|_K:  5.182e-06  alpha:  1.000e+00
	FillingsUpdate:  mu: -0.084451305  nElectrons: 9.000000  magneticMoment: [ Abs: 0.90000  Tot: +0.90000 ]
LCAOMinimize: Iter:   1  F: -24.4343417889337609  |grad|_K:  3.126e-08  alpha:  9.955e-01  linmin: -3.639e-03  cgtest:  5.969e-02  t[s]:      8.89
LCAOMinimize: Encountered beta<0, resetting CG.
	FillingsUpdate:  mu: -0.084451310  nElectrons: 9.000000  magneticMoment: [ Abs: 0.90000  Tot: +0.90000 ]
LCAOMinimize: Iter:   2  F: -24.4343417889343080  |grad|_K:  2.489e-09  alpha:  9.140e-01  linmin: -1.221e-01  cgtest:  9.973e-01  t[s]:     11.33
LCAOMinimize: Encountered beta<0, resetting CG.
LCAOMinimize: Converged (|Delta F|<1.000000e-06 for 2 iters).


---- Citations for features of the code used in this run ----

   Software package:
      R. Sundararaman, K. Letchworth-Weaver, K.A. Schwarz, D. Gunceler, Y. Ozhabes and T.A. Arias, 'JDFTx: software for joint density-functional theory', SoftwareX 6, 278 (2017)

   gga-PBE exchange-correlation functional:
      J.P. Perdew, K. Burke and M. Ernzerhof, Phys. Rev. Lett. 77, 3865 (1996)

   Pseudopotentials:
      M Schlipf and F Gygi, Comput. Phys. Commun. 196, 36 (2015)

   Truncated Coulomb potentials:
      R. Sundararaman and T.A. Arias, Phys. Rev. B 87, 165122 (2013)

This list may not be complete. Please suggest additional citations or
report any other bugs at https://github.com/shankar1729/jdftx/issues

Initialization completed successfully at t[s]:     11.50


-------- Electronic minimization -----------
Will mix electronic density at each iteration.
	FillingsUpdate:  mu: -0.084451310  nElectrons: 9.000000  magneticMoment: [ Abs: 0.90000  Tot: +0.90000 ]
	FillingsUpdate:  mu: -0.085249728  nElectrons: 9.000000  magneticMoment: [ Abs: 0.90000  Tot: +0.90000 ]
SCF: Cycle:  0   F: -24.435605898110023   dF: -1.264e-03   |Residual|: 3.584e-03   |deigs|: 1.730e-01  t[s]:     16.35
	FillingsUpdate:  mu: -0.085605445  nElectrons: 9.000000  magneticMoment: [ Abs: 0.90243  Tot: +0.90000 ]
SCF: Cycle:  1   F: -24.435659794030204   dF: -5.390e-05   |Residual|: 2.426e-03   |deigs|: 5.151e-03  t[s]:     20.08
	FillingsUpdate:  mu: -0.086121031  nElectrons: 9.000000  magneticMoment: [ Abs: 0.90430  Tot: +0.90000 ]
SCF: Cycle:  2   F: -24.435691457344198   dF: -3.166e-05   |Residual|: 1.899e-03   |deigs|: 2.366e-03  t[s]:     23.90
	FillingsUpdate:  mu: -0.086134630  nElectrons: 9.000000  magneticMoment: [ Abs: 0.90546  Tot: +0.90000 ]
SCF: Cycle:  3   F: -24.435721946749979   dF: -3.049e-05   |Residual|: 1.426e-03   |deigs|: 2.227e-03  t[s]:     27.74
	FillingsUpdate:  mu: -0.086568056  nElectrons: 9.000000  magneticMoment: [ Abs: 0.90386  Tot: +0.90000 ]
SCF: Cycle:  4   F: -24.435751084208032   dF: -2.914e-05   |Residual|: 9.375e-04   |deigs|: 2.127e-03  t[s]:     31.67
	FillingsUpdate:  mu: -0.086399340  nElectrons: 9.000000  magneticMoment: [ Abs: 0.90440  Tot: +0.90000 ]
SCF: Cycle:  5   F: -24.435764444853216   dF: -1.336e-05   |Residual|: 5.179e-04   |deigs|: 9.545e-04  t[s]:     35.63
	FillingsUpdate:  mu: -0.086124291  nElectrons: 9.000000  magneticMoment: [ Abs: 0.90401  Tot: +0.90000 ]
SCF: Cycle:  6   F: -24.435769651546874   dF: -5.207e-06   |Residual|: 3.705e-04   |deigs|: 1.225e-03  t[s]:     39.73
	FillingsUpdate:  mu: -0.085994724  nElectrons: 9.000000  magneticMoment: [ Abs: 0.90434  Tot: +0.90000 ]
SCF: Cycle:  7   F: -24.435772049611863   dF: -2.398e-06   |Residual|: 2.855e-04   |deigs|: 8.955e-04  t[s]:     43.84
	FillingsUpdate:  mu: -0.085504150  nElectrons: 9.000000  magneticMoment: [ Abs: 0.90477  Tot: +0.90000 ]
SCF: Cycle:  8   F: -24.435772544435135   dF: -4.948e-07   |Residual|: 2.311e-04   |deigs|: 6.108e-04  t[s]:     48.05
	FillingsUpdate:  mu: -0.085183010  nElectrons: 9.000000  magneticMoment: [ Abs: 0.90497  Tot: +0.90000 ]
SCF: Cycle:  9   F: -24.435771206496995   dF: +1.338e-06   |Residual|: 2.237e-04   |deigs|: 4.603e-04  t[s]:     52.34
	FillingsUpdate:  mu: -0.085055239  nElectrons: 9.000000  magneticMoment: [ Abs: 0.90458  Tot: +0.90000 ]
SCF: Cycle: 10   F: -24.435772511262751   dF: -1.305e-06   |Residual|: 1.778e-04   |deigs|: 2.641e-04  t[s]:     56.70
	FillingsUpdate:  mu: -0.085017600  nElectrons: 9.000000  magneticMoment: [ Abs: 0.90548  Tot: +0.90000 ]
SCF: Cycle: 11   F: -24.435773319036976   dF: -8.078e-07   |Residual|: 1.390e-04   |deigs|: 2.470e-04  t[s]:     61.05
	FillingsUpdate:  mu: -0.084985326  nElectrons: 9.000000  magneticMoment: [ Abs: 0.90519  Tot: +0.90000 ]
SCF: Cycle: 12   F: -24.435774705083752   dF: -1.386e-06   |Residual|: 1.238e-04   |deigs|: 1.417e-04  t[s]:     65.32
	FillingsUpdate:  mu: -0.084730366  nElectrons: 9.000000  magneticMoment: [ Abs: 0.90535  Tot: +0.90000 ]
SCF: Cycle: 13   F: -24.435774971044737   dF: -2.660e-07   |Residual|: 1.232e-04   |deigs|: 2.548e-04  t[s]:     69.57
	FillingsUpdate:  mu: -0.084469926  nElectrons: 9.000000  magneticMoment: [ Abs: 0.90530  Tot: +0.90000 ]
SCF: Cycle: 14   F: -24.435774627967493   dF: +3.431e-07   |Residual|: 1.147e-04   |deigs|: 2.790e-04  t[s]:     73.87
	FillingsUpdate:  mu: -0.084279972  nElectrons: 9.000000  magneticMoment: [ Abs: 0.90507  Tot: +0.90000 ]
SCF: Cycle: 15   F: -24.435774893601355   dF: -2.656e-07   |Residual|: 1.019e-04   |deigs|: 3.449e-04  t[s]:     78.26
	FillingsUpdate:  mu: -0.084137486  nElectrons: 9.000000  magneticMoment: [ Abs: 0.90456  Tot: +0.90000 ]
SCF: Cycle: 16   F: -24.435775409157099   dF: -5.156e-07   |Residual|: 8.043e-05   |deigs|: 2.784e-04  t[s]:     82.63
	FillingsUpdate:  mu: -0.084057043  nElectrons: 9.000000  magneticMoment: [ Abs: 0.90425  Tot: +0.90000 ]
SCF: Cycle: 17   F: -24.435775817506581   dF: -4.083e-07   |Residual|: 6.431e-05   |deigs|: 1.147e-04  t[s]:     86.91
	FillingsUpdate:  mu: -0.084037743  nElectrons: 9.000000  magneticMoment: [ Abs: 0.90420  Tot: +0.90000 ]
SCF: Cycle: 18   F: -24.435775872138525   dF: -5.463e-08   |Residual|: 4.277e-05   |deigs|: 4.400e-05  t[s]:     91.21
	FillingsUpdate:  mu: -0.083980166  nElectrons: 9.000000  magneticMoment: [ Abs: 0.90427  Tot: +0.90000 ]
SCF: Cycle: 19   F: -24.435776198600635   dF: -3.265e-07   |Residual|: 2.816e-05   |deigs|: 6.350e-05  t[s]:     95.54
	FillingsUpdate:  mu: -0.083994135  nElectrons: 9.000000  magneticMoment: [ Abs: 0.90423  Tot: +0.90000 ]
SCF: Cycle: 20   F: -24.435776295109793   dF: -9.651e-08   |Residual|: 2.013e-05   |deigs|: 6.098e-05  t[s]:     99.74
	FillingsUpdate:  mu: -0.084008212  nElectrons: 9.000000  magneticMoment: [ Abs: 0.90424  Tot: +0.90000 ]
SCF: Cycle: 21   F: -24.435776345622322   dF: -5.051e-08   |Residual|: 1.263e-05   |deigs|: 6.489e-05  t[s]:    104.06
	FillingsUpdate:  mu: -0.084002183  nElectrons: 9.000000  magneticMoment: [ Abs: 0.90425  Tot: +0.90000 ]
SCF: Cycle: 22   F: -24.435776354149851   dF: -8.528e-09   |Residual|: 7.461e-06   |deigs|: 6.482e-05  t[s]:    108.43
	FillingsUpdate:  mu: -0.084006978  nElectrons: 9.000000  magneticMoment: [ Abs: 0.90427  Tot: +0.90000 ]
SCF: Cycle: 23   F: -24.435776368405296   dF: -1.426e-08   |Residual|: 5.643e-06   |deigs|: 6.411e-05  t[s]:    112.74
	FillingsUpdate:  mu: -0.084010632  nElectrons: 9.000000  magneticMoment: [ Abs: 0.90429  Tot: +0.90000 ]
SCF: Cycle: 24   F: -24.435776369001438   dF: -5.961e-10   |Residual|: 4.760e-06   |deigs|: 5.640e-05  t[s]:    117.00
	FillingsUpdate:  mu: -0.084017266  nElectrons: 9.000000  magneticMoment: [ Abs: 0.90426  Tot: +0.90000 ]
SCF: Cycle: 25   F: -24.435776374457841   dF: -5.456e-09   |Residual|: 3.543e-06   |deigs|: 4.271e-05  t[s]:    121.39
SCF: Converged (|Delta E|<1.000000e-08 for 2 iters).


# Ionic positions in lattice coordinates:
ion Rb   0.000000000000000   0.000000000000000   0.000000000000000 0

# Forces in Lattice coordinates:
force Rb   0.000000000000000   0.000000000000000   0.000000000000000 0

# Energy components:
   Eewald =      -12.0320174002217755
       EH =        7.5299799154862512
     Eloc =      -22.4449290831607904
      Enl =       -0.7951973560874308
   Epulay =       -0.0000000014467880
      Exc =       -3.6534012124490141
       KE =        6.9597893945084905
-------------------------------------
     Etot =      -24.4357757433710603
       TS =        0.0000006310867818
-------------------------------------
        F =      -24.4357763744578413

IonicMinimize: Iter:   0  F: -24.435776374457841  |grad|_K:  0.000e+00  t[s]:    121.67
IonicMinimize: Converged (|grad|_K<1.000000e-04).

#--- Lowdin population analysis ---
# oxidation-state Rb +0.031
# magnetic-moments Rb +0.870

End date and time: Sun Feb  6 13:01:57 2022  (Duration: 0-0:02:01.72)
Done!
scale=4
magnetization=0.9
--------------------------------------------------------------------------
The library attempted to open the following supporting CUDA libraries,
but each of them failed.  CUDA-aware support is disabled.
libcuda.so.1: cannot open shared object file: No such file or directory
libcuda.dylib: cannot open shared object file: No such file or directory
/usr/lib64/libcuda.so.1: cannot open shared object file: No such file or directory
/usr/lib64/libcuda.dylib: cannot open shared object file: No such file or directory
If you are not interested in CUDA-aware support, then run with
--mca opal_warn_on_missing_libcuda 0 to suppress this message.  If you are interested
in CUDA-aware support, then try setting LD_LIBRARY_PATH to the location
of libcuda.so.1 to get passed this issue.
--------------------------------------------------------------------------
--------------------------------------------------------------------------
No OpenFabrics connection schemes reported that they were able to be
used on a specific port.  As such, the openib BTL (OpenFabrics
support) will be disabled for this port.

  Local host:           d-4-6-1
  Local device:         mlx5_1
  Local port:           1
  CPCs attempted:       rdmacm, udcm
--------------------------------------------------------------------------

*************** JDFTx 1.6.0 (git hash 42ebbcc2) ***************

Start date and time: Sun Feb  6 13:01:58 2022
Executable jdftx with command-line: -i Alkali.in
Running on hosts (process indices):  d-4-6-1 (0-18)
Divided in process groups (process indices):  0 (0)  1 (1)  2 (2)  3 (3)  4 (4)  5 (5)  6 (6)  7 (7)  8 (8)  9 (9)  10 (10)  11 (11)  12 (12)  13 (13)  14 (14)  15 (15)  16 (16)  17 (17)  18 (18)
Resource initialization completed at t[s]:      0.00
Run totals: 19 processes, 48 threads, 0 GPUs


Input parsed successfully to the following command list (including defaults):

basis kpoint-dependent
coords-type Lattice
core-overlap-check vector
coulomb-interaction Slab 001
davidson-band-ratio 1.1
dump End None
dump-name $INPUT.$VAR
elec-cutoff 20
elec-eigen-algo Davidson
elec-ex-corr gga-PBE
elec-initial-magnetization 0.900000 yes
elec-smearing Fermi 1e-05
electronic-minimize  \
	dirUpdateScheme      FletcherReeves \
	linminMethod         DirUpdateRecommended \
	nIterations          100 \
	history              15 \
	knormThreshold       0 \
	energyDiffThreshold  1e-08 \
	nEnergyDiff          2 \
	alphaTstart          1 \
	alphaTmin            1e-10 \
	updateTestStepSize   yes \
	alphaTreduceFactor   0.1 \
	alphaTincreaseFactor 3 \
	nAlphaAdjustMax      3 \
	wolfeEnergy          0.0001 \
	wolfeGradient        0.9 \
	fdTest               no
electronic-scf  \
	nIterations	10000 \
	energyDiffThreshold	1e-08 \
	residualThreshold	1e-07 \
	mixFraction	0.5 \
	qMetric	0.8 \
	history	10 \
	nEigSteps	2 \
	eigDiffThreshold	1e-08 \
	mixedVariable	Density \
	qKerker	0.8 \
	qKappa	-1 \
	verbose	no \
	mixFractionMag	1.5
exchange-regularization WignerSeitzTruncated
fluid None
fluid-ex-corr (null) lda-PZ
fluid-gummel-loop 10 1.000000e-05
fluid-minimize  \
	dirUpdateScheme      PolakRibiere \
	linminMethod         DirUpdateRecommended \
	nIterations          100 \
	history              15 \
	knormThreshold       0 \
	energyDiffThreshold  0 \
	nEnergyDiff          2 \
	alphaTstart          1 \
	alphaTmin            1e-10 \
	updateTestStepSize   yes \
	alphaTreduceFactor   0.1 \
	alphaTincreaseFactor 3 \
	nAlphaAdjustMax      3 \
	wolfeEnergy          0.0001 \
	wolfeGradient        0.9 \
	fdTest               no
fluid-solvent H2O 55.338 ScalarEOS \
	epsBulk 78.4 \
	pMol 0.92466 \
	epsInf 1.77 \
	Pvap 1.06736e-10 \
	sigmaBulk 4.62e-05 \
	Rvdw 2.61727 \
	Res 1.42 \
	tauNuc 343133 \
	poleEl 15 7 1
forces-output-coords Positions
ion Rb   0.000000000000000   0.000000000000000   0.000000000000000 0
ion-species SG15/$ID_ONCV_PBE.upf
ion-width 0
ionic-minimize  \
	dirUpdateScheme      L-BFGS \
	linminMethod         DirUpdateRecommended \
	nIterations          0 \
	history              15 \
	knormThreshold       0.0001 \
	energyDiffThreshold  1e-06 \
	nEnergyDiff          2 \
	alphaTstart          1 \
	alphaTmin            1e-10 \
	updateTestStepSize   yes \
	alphaTreduceFactor   0.1 \
	alphaTincreaseFactor 3 \
	nAlphaAdjustMax      3 \
	wolfeEnergy          0.0001 \
	wolfeGradient        0.9 \
	fdTest               no
kpoint   0.000000000000   0.000000000000   0.000000000000  1.00000000000000
kpoint-folding 12 12 1 
latt-move-scale 1 1 1
latt-scale 4 4 1 
lattice  \
	   4.727486978767153   -2.363743489383575    0.000000000000000  \
	  -0.000000000000000    4.094123819672498    0.000000000000000  \
	   0.000000000000000    0.000000000000000   40.000000000000000 
lattice-minimize  \
	dirUpdateScheme      L-BFGS \
	linminMethod         DirUpdateRecommended \
	nIterations          0 \
	history              15 \
	knormThreshold       0 \
	energyDiffThreshold  1e-06 \
	nEnergyDiff          2 \
	alphaTstart          1 \
	alphaTmin            1e-10 \
	updateTestStepSize   yes \
	alphaTreduceFactor   0.1 \
	alphaTincreaseFactor 3 \
	nAlphaAdjustMax      3 \
	wolfeEnergy          0.0001 \
	wolfeGradient        0.9 \
	fdTest               no
lcao-params -1 1e-06 1e-05
pcm-variant GLSSA13
spintype z-spin
subspace-rotation-factor 1 yes
symmetries automatic
symmetry-threshold 0.0001



---------- Setting up symmetries ----------

Found 24 point-group symmetries of the bravais lattice
Found 24 space-group symmetries with basis
Applied RMS atom displacement 0 bohrs to make symmetries exact.

---------- Initializing the Grid ----------
R = 
[      18.9099     -9.45497            0  ]
[            0      16.3765            0  ]
[            0            0           40  ]
unit cell volume = 12387.1
G =
[   0.332269   0.191835         -0  ]
[          0   0.383671         -0  ]
[         -0         -0    0.15708  ]
Minimum fftbox size, Smin = [  80  80  164  ]
Chosen fftbox size, S = [  80  80  168  ]

---------- Exchange Correlation functional ----------
Initalized PBE GGA exchange.
Initalized PBE GGA correlation.

---------- Setting up pseudopotentials ----------
Width of ionic core gaussian charges (only for fluid interactions / plotting) set to 0

Reading pseudopotential file '/home/gridsan/aligho/DFT/build-Nov24/pseudopotentials/SG15/Rb_ONCV_PBE.upf':
  'Rb' pseudopotential, 'PBE' functional
  Generated using ONCVPSP code by D. R. Hamann
  Author: Martin Schlipf and Francois Gygi  Date: 150915.
  9 valence electrons, 3 orbitals, 6 projectors, 2308 radial grid points, with lMax = 2
  Transforming local potential to a uniform radial grid of dG=0.02 with 1489 points.
  Transforming nonlocal projectors to a uniform radial grid of dG=0.02 with 432 points.
    4S    l: 0   occupation:  2.0   eigenvalue: -1.172069
    4P    l: 1   occupation:  6.0   eigenvalue: -0.586674
    5S    l: 0   occupation:  1.0   eigenvalue: -0.082006
  Transforming atomic orbitals to a uniform radial grid of dG=0.02 with 432 points.
  Core radius for overlap checks: 2.60 bohrs.
  Reading pulay file /home/gridsan/aligho/DFT/build-Nov24/pseudopotentials/SG15/Rb_ONCV_PBE.pulay ... using dE_dnG = -1.360715e-05 computed for Ecut = 20.

Initialized 1 species with 1 total atoms.

Folded 1 k-points by 12x12x1 to 144 k-points.

---------- Setting up k-points, bands, fillings ----------
Reduced to 19 k-points under symmetry. 
Computing the number of bands and number of electrons
Calculating initial fillings.
nElectrons:   9.000000   nBands: 6   nStates: 38

----- Setting up reduced wavefunction bases (one per k-point) -----
average nbasis = 52924.021 , ideal nbasis = 52918.836

---------- Setting up coulomb interaction ----------
Initialized slab truncation along lattice direction 001

---------- Setting up 2D ewald sum ----------
Optimum gaussian width for ewald sums = 10.498040 bohr.
Real space sums over 289 unit cells with max indices [  8  8  0  ]
Reciprocal space sums over 81 terms with max indices [  4  4  0  ]

---------- Allocating electronic variables ----------
Initializing wave functions:  linear combination of atomic orbitals
Note: number of bands (6) exceeds available atomic orbitals (5)
Rb pseudo-atom occupations:   s ( 2 1 )  p ( 6 )
[d-4-6-1:50405] 18 more processes have sent help message help-mpi-common-cuda.txt / dlopen failed
[d-4-6-1:50405] Set MCA parameter "orte_base_help_aggregate" to 0 to see all help / error messages
[d-4-6-1:50405] 18 more processes have sent help message help-mpi-btl-openib-cpc-base.txt / no cpcs for port
	FillingsUpdate:  mu: -0.081313552  nElectrons: 9.000000  magneticMoment: [ Abs: 0.90000  Tot: +0.90000 ]
LCAOMinimize: Iter:   0  F: -24.4332526803834824  |grad|_K:  1.084e-06  alpha:  1.000e+00
	FillingsUpdate:  mu: -0.081313304  nElectrons: 9.000000  magneticMoment: [ Abs: 0.90000  Tot: +0.90000 ]
LCAOMinimize: Iter:   1  F: -24.4332526811805586  |grad|_K:  5.903e-09  alpha:  9.926e-01  linmin: -3.931e-04  cgtest:  9.109e-03  t[s]:     15.18
LCAOMinimize: Encountered beta<0, resetting CG.
LCAOMinimize: 	Step increased F by 1.776357e-14, reducing alpha to 1.836243e-02.
LCAOMinimize: 	Step increased F by 6.394885e-14, reducing alpha to 1.836243e-03.
LCAOMinimize: 	Step increased F by 4.973799e-14, reducing alpha to 1.836243e-04.
LCAOMinimize: 	Step failed to reduce F after 3 attempts. Quitting step.
LCAOMinimize: 	Undoing step.
LCAOMinimize: 	Step failed along negative gradient direction.
LCAOMinimize: Probably at roundoff error limit. (Stopping)


---- Citations for features of the code used in this run ----

   Software package:
      R. Sundararaman, K. Letchworth-Weaver, K.A. Schwarz, D. Gunceler, Y. Ozhabes and T.A. Arias, 'JDFTx: software for joint density-functional theory', SoftwareX 6, 278 (2017)

   gga-PBE exchange-correlation functional:
      J.P. Perdew, K. Burke and M. Ernzerhof, Phys. Rev. Lett. 77, 3865 (1996)

   Pseudopotentials:
      M Schlipf and F Gygi, Comput. Phys. Commun. 196, 36 (2015)

   Truncated Coulomb potentials:
      R. Sundararaman and T.A. Arias, Phys. Rev. B 87, 165122 (2013)

This list may not be complete. Please suggest additional citations or
report any other bugs at https://github.com/shankar1729/jdftx/issues

Initialization completed successfully at t[s]:     26.54


-------- Electronic minimization -----------
Will mix electronic density at each iteration.
	FillingsUpdate:  mu: -0.081313304  nElectrons: 9.000000  magneticMoment: [ Abs: 0.90000  Tot: +0.90000 ]
	FillingsUpdate:  mu: -0.081466430  nElectrons: 9.000000  magneticMoment: [ Abs: 0.90000  Tot: +0.90000 ]
SCF: Cycle:  0   F: -24.433388015487981   dF: -1.353e-04   |Residual|: 2.108e-03   |deigs|: 1.654e-01  t[s]:     34.84
	FillingsUpdate:  mu: -0.081445843  nElectrons: 9.000000  magneticMoment: [ Abs: 0.90539  Tot: +0.90000 ]
SCF: Cycle:  1   F: -24.433390919581331   dF: -2.904e-06   |Residual|: 5.280e-04   |deigs|: 1.250e-02  t[s]:     41.35
	FillingsUpdate:  mu: -0.081370866  nElectrons: 9.000000  magneticMoment: [ Abs: 0.90521  Tot: +0.90000 ]
SCF: Cycle:  2   F: -24.433391630788211   dF: -7.112e-07   |Residual|: 3.530e-04   |deigs|: 2.236e-03  t[s]:     47.88
	FillingsUpdate:  mu: -0.081291150  nElectrons: 9.000000  magneticMoment: [ Abs: 0.90595  Tot: +0.90000 ]
SCF: Cycle:  3   F: -24.433391994417434   dF: -3.636e-07   |Residual|: 2.779e-04   |deigs|: 8.799e-04  t[s]:     54.63
	FillingsUpdate:  mu: -0.081102597  nElectrons: 9.000000  magneticMoment: [ Abs: 0.90585  Tot: +0.90000 ]
SCF: Cycle:  4   F: -24.433392121906781   dF: -1.275e-07   |Residual|: 1.703e-04   |deigs|: 7.166e-04  t[s]:     61.46
	FillingsUpdate:  mu: -0.080930844  nElectrons: 9.000000  magneticMoment: [ Abs: 0.90573  Tot: +0.90000 ]
SCF: Cycle:  5   F: -24.433392250761099   dF: -1.289e-07   |Residual|: 1.181e-04   |deigs|: 4.492e-04  t[s]:     68.34
	FillingsUpdate:  mu: -0.080890629  nElectrons: 9.000000  magneticMoment: [ Abs: 0.90566  Tot: +0.90000 ]
SCF: Cycle:  6   F: -24.433392448507959   dF: -1.977e-07   |Residual|: 8.817e-05   |deigs|: 1.899e-04  t[s]:     75.35
	FillingsUpdate:  mu: -0.080874631  nElectrons: 9.000000  magneticMoment: [ Abs: 0.90576  Tot: +0.90000 ]
SCF: Cycle:  7   F: -24.433392564690649   dF: -1.162e-07   |Residual|: 6.385e-05   |deigs|: 2.293e-04  t[s]:     82.51
	FillingsUpdate:  mu: -0.080860702  nElectrons: 9.000000  magneticMoment: [ Abs: 0.90572  Tot: +0.90000 ]
SCF: Cycle:  8   F: -24.433392595616699   dF: -3.093e-08   |Residual|: 5.465e-05   |deigs|: 1.907e-04  t[s]:     89.85
	FillingsUpdate:  mu: -0.080827039  nElectrons: 9.000000  magneticMoment: [ Abs: 0.90573  Tot: +0.90000 ]
SCF: Cycle:  9   F: -24.433392496702076   dF: +9.891e-08   |Residual|: 4.319e-05   |deigs|: 1.387e-04  t[s]:     97.18
	FillingsUpdate:  mu: -0.080807776  nElectrons: 9.000000  magneticMoment: [ Abs: 0.90578  Tot: +0.90000 ]
SCF: Cycle: 10   F: -24.433392416490193   dF: +8.021e-08   |Residual|: 3.963e-05   |deigs|: 1.159e-04  t[s]:    104.71
	FillingsUpdate:  mu: -0.080758475  nElectrons: 9.000000  magneticMoment: [ Abs: 0.90583  Tot: +0.90000 ]
SCF: Cycle: 11   F: -24.433392079981207   dF: +3.365e-07   |Residual|: 3.487e-05   |deigs|: 1.024e-04  t[s]:    112.21
	FillingsUpdate:  mu: -0.080738941  nElectrons: 9.000000  magneticMoment: [ Abs: 0.90600  Tot: +0.90000 ]
SCF: Cycle: 12   F: -24.433392305088123   dF: -2.251e-07   |Residual|: 2.857e-05   |deigs|: 4.399e-05  t[s]:    119.46
	FillingsUpdate:  mu: -0.080721687  nElectrons: 9.000000  magneticMoment: [ Abs: 0.90594  Tot: +0.90000 ]
SCF: Cycle: 13   F: -24.433392312793931   dF: -7.706e-09   |Residual|: 2.553e-05   |deigs|: 4.195e-05  t[s]:    126.95
	FillingsUpdate:  mu: -0.080671341  nElectrons: 9.000000  magneticMoment: [ Abs: 0.90591  Tot: +0.90000 ]
SCF: Cycle: 14   F: -24.433392436542345   dF: -1.237e-07   |Residual|: 2.480e-05   |deigs|: 5.849e-05  t[s]:    134.43
	FillingsUpdate:  mu: -0.080638276  nElectrons: 9.000000  magneticMoment: [ Abs: 0.90584  Tot: +0.90000 ]
SCF: Cycle: 15   F: -24.433392469040427   dF: -3.250e-08   |Residual|: 2.394e-05   |deigs|: 5.160e-05  t[s]:    141.81
	FillingsUpdate:  mu: -0.080626162  nElectrons: 9.000000  magneticMoment: [ Abs: 0.90574  Tot: +0.90000 ]
SCF: Cycle: 16   F: -24.433392448549924   dF: +2.049e-08   |Residual|: 2.153e-05   |deigs|: 4.904e-05  t[s]:    149.26
	FillingsUpdate:  mu: -0.080607974  nElectrons: 9.000000  magneticMoment: [ Abs: 0.90579  Tot: +0.90000 ]
SCF: Cycle: 17   F: -24.433392545034046   dF: -9.648e-08   |Residual|: 1.401e-05   |deigs|: 4.994e-05  t[s]:    156.71
	FillingsUpdate:  mu: -0.080600145  nElectrons: 9.000000  magneticMoment: [ Abs: 0.90577  Tot: +0.90000 ]
SCF: Cycle: 18   F: -24.433392680321326   dF: -1.353e-07   |Residual|: 1.046e-05   |deigs|: 4.279e-05  t[s]:    163.94
	FillingsUpdate:  mu: -0.080598107  nElectrons: 9.000000  magneticMoment: [ Abs: 0.90574  Tot: +0.90000 ]
SCF: Cycle: 19   F: -24.433392693226143   dF: -1.290e-08   |Residual|: 8.161e-06   |deigs|: 3.867e-05  t[s]:    171.02
	FillingsUpdate:  mu: -0.080594120  nElectrons: 9.000000  magneticMoment: [ Abs: 0.90575  Tot: +0.90000 ]
SCF: Cycle: 20   F: -24.433392695205516   dF: -1.979e-09   |Residual|: 5.719e-06   |deigs|: 3.418e-05  t[s]:    178.47
	FillingsUpdate:  mu: -0.080593588  nElectrons: 9.000000  magneticMoment: [ Abs: 0.90573  Tot: +0.90000 ]
SCF: Cycle: 21   F: -24.433392717782727   dF: -2.258e-08   |Residual|: 4.356e-06   |deigs|: 3.113e-05  t[s]:    185.96
	FillingsUpdate:  mu: -0.080592519  nElectrons: 9.000000  magneticMoment: [ Abs: 0.90572  Tot: +0.90000 ]
SCF: Cycle: 22   F: -24.433392744463902   dF: -2.668e-08   |Residual|: 3.220e-06   |deigs|: 2.700e-05  t[s]:    193.01
	FillingsUpdate:  mu: -0.080591320  nElectrons: 9.000000  magneticMoment: [ Abs: 0.90572  Tot: +0.90000 ]
SCF: Cycle: 23   F: -24.433392743082109   dF: +1.382e-09   |Residual|: 2.387e-06   |deigs|: 2.514e-05  t[s]:    200.15
	FillingsUpdate:  mu: -0.080590265  nElectrons: 9.000000  magneticMoment: [ Abs: 0.90572  Tot: +0.90000 ]
SCF: Cycle: 24   F: -24.433392748959925   dF: -5.878e-09   |Residual|: 1.560e-06   |deigs|: 2.315e-05  t[s]:    207.60
	FillingsUpdate:  mu: -0.080589219  nElectrons: 9.000000  magneticMoment: [ Abs: 0.90572  Tot: +0.90000 ]
SCF: Cycle: 25   F: -24.433392750791050   dF: -1.831e-09   |Residual|: 1.110e-06   |deigs|: 2.074e-05  t[s]:    214.54
SCF: Converged (|Delta E|<1.000000e-08 for 2 iters).


# Ionic positions in lattice coordinates:
ion Rb   0.000000000000000   0.000000000000000   0.000000000000000 0

# Forces in Lattice coordinates:
force Rb   0.000000000000000   0.000000000000000   0.000000000000000 0

# Energy components:
   Eewald =       -9.0240130501663280
       EH =       10.5527131015352378
     Eloc =      -28.4791850320147688
      Enl =       -0.7919995372027591
   Epulay =        0.0000000056959385
      Exc =       -3.6547955354299657
       KE =        6.9638879278786447
-------------------------------------
     Etot =      -24.4333921197040027
       TS =        0.0000006310870458
-------------------------------------
        F =      -24.4333927507910502

IonicMinimize: Iter:   0  F: -24.433392750791050  |grad|_K:  0.000e+00  t[s]:    214.96
IonicMinimize: Converged (|grad|_K<1.000000e-04).

#--- Lowdin population analysis ---
# oxidation-state Rb +0.001
# magnetic-moments Rb +0.899

End date and time: Sun Feb  6 13:05:33 2022  (Duration: 0-0:03:35.02)
Done!
