The alkali metal is Rb
scale=2
magnetization=0.82
--------------------------------------------------------------------------
The library attempted to open the following supporting CUDA libraries,
but each of them failed.  CUDA-aware support is disabled.
libcuda.so.1: cannot open shared object file: No such file or directory
libcuda.dylib: cannot open shared object file: No such file or directory
/usr/lib64/libcuda.so.1: cannot open shared object file: No such file or directory
/usr/lib64/libcuda.dylib: cannot open shared object file: No such file or directory
If you are not interested in CUDA-aware support, then run with
--mca opal_warn_on_missing_libcuda 0 to suppress this message.  If you are interested
in CUDA-aware support, then try setting LD_LIBRARY_PATH to the location
of libcuda.so.1 to get passed this issue.
--------------------------------------------------------------------------
--------------------------------------------------------------------------
No OpenFabrics connection schemes reported that they were able to be
used on a specific port.  As such, the openib BTL (OpenFabrics
support) will be disabled for this port.

  Local host:           d-17-11-3
  Local device:         mlx5_1
  Local port:           1
  CPCs attempted:       rdmacm, udcm
--------------------------------------------------------------------------

*************** JDFTx 1.6.0 (git hash 42ebbcc2) ***************

Start date and time: Sun Feb  6 12:54:46 2022
Executable jdftx with command-line: -i Alkali.in
Running on hosts (process indices):  d-17-11-3 (0-18)
Divided in process groups (process indices):  0 (0)  1 (1)  2 (2)  3 (3)  4 (4)  5 (5)  6 (6)  7 (7)  8 (8)  9 (9)  10 (10)  11 (11)  12 (12)  13 (13)  14 (14)  15 (15)  16 (16)  17 (17)  18 (18)
Resource initialization completed at t[s]:      0.00
Run totals: 19 processes, 48 threads, 0 GPUs


Input parsed successfully to the following command list (including defaults):

basis kpoint-dependent
coords-type Lattice
core-overlap-check vector
coulomb-interaction Slab 001
davidson-band-ratio 1.1
dump End None
dump-name $INPUT.$VAR
elec-cutoff 20
elec-eigen-algo Davidson
elec-ex-corr gga-PBE
elec-initial-magnetization 0.820000 yes
elec-smearing Fermi 1e-05
electronic-minimize  \
	dirUpdateScheme      FletcherReeves \
	linminMethod         DirUpdateRecommended \
	nIterations          100 \
	history              15 \
	knormThreshold       0 \
	energyDiffThreshold  1e-08 \
	nEnergyDiff          2 \
	alphaTstart          1 \
	alphaTmin            1e-10 \
	updateTestStepSize   yes \
	alphaTreduceFactor   0.1 \
	alphaTincreaseFactor 3 \
	nAlphaAdjustMax      3 \
	wolfeEnergy          0.0001 \
	wolfeGradient        0.9 \
	fdTest               no
electronic-scf  \
	nIterations	10000 \
	energyDiffThreshold	1e-08 \
	residualThreshold	1e-07 \
	mixFraction	0.5 \
	qMetric	0.8 \
	history	10 \
	nEigSteps	2 \
	eigDiffThreshold	1e-08 \
	mixedVariable	Density \
	qKerker	0.8 \
	qKappa	-1 \
	verbose	no \
	mixFractionMag	1.5
exchange-regularization WignerSeitzTruncated
fluid None
fluid-ex-corr (null) lda-PZ
fluid-gummel-loop 10 1.000000e-05
fluid-minimize  \
	dirUpdateScheme      PolakRibiere \
	linminMethod         DirUpdateRecommended \
	nIterations          100 \
	history              15 \
	knormThreshold       0 \
	energyDiffThreshold  0 \
	nEnergyDiff          2 \
	alphaTstart          1 \
	alphaTmin            1e-10 \
	updateTestStepSize   yes \
	alphaTreduceFactor   0.1 \
	alphaTincreaseFactor 3 \
	nAlphaAdjustMax      3 \
	wolfeEnergy          0.0001 \
	wolfeGradient        0.9 \
	fdTest               no
fluid-solvent H2O 55.338 ScalarEOS \
	epsBulk 78.4 \
	pMol 0.92466 \
	epsInf 1.77 \
	Pvap 1.06736e-10 \
	sigmaBulk 4.62e-05 \
	Rvdw 2.61727 \
	Res 1.42 \
	tauNuc 343133 \
	poleEl 15 7 1
forces-output-coords Positions
ion Rb   0.000000000000000   0.000000000000000   0.000000000000000 0
ion-species SG15/$ID_ONCV_PBE.upf
ion-width 0
ionic-minimize  \
	dirUpdateScheme      L-BFGS \
	linminMethod         DirUpdateRecommended \
	nIterations          0 \
	history              15 \
	knormThreshold       0.0001 \
	energyDiffThreshold  1e-06 \
	nEnergyDiff          2 \
	alphaTstart          1 \
	alphaTmin            1e-10 \
	updateTestStepSize   yes \
	alphaTreduceFactor   0.1 \
	alphaTincreaseFactor 3 \
	nAlphaAdjustMax      3 \
	wolfeEnergy          0.0001 \
	wolfeGradient        0.9 \
	fdTest               no
kpoint   0.000000000000   0.000000000000   0.000000000000  1.00000000000000
kpoint-folding 12 12 1 
latt-move-scale 1 1 1
latt-scale 2 2 1 
lattice  \
	   4.727486978767153   -2.363743489383575    0.000000000000000  \
	  -0.000000000000000    4.094123819672498    0.000000000000000  \
	   0.000000000000000    0.000000000000000   40.000000000000000 
lattice-minimize  \
	dirUpdateScheme      L-BFGS \
	linminMethod         DirUpdateRecommended \
	nIterations          0 \
	history              15 \
	knormThreshold       0 \
	energyDiffThreshold  1e-06 \
	nEnergyDiff          2 \
	alphaTstart          1 \
	alphaTmin            1e-10 \
	updateTestStepSize   yes \
	alphaTreduceFactor   0.1 \
	alphaTincreaseFactor 3 \
	nAlphaAdjustMax      3 \
	wolfeEnergy          0.0001 \
	wolfeGradient        0.9 \
	fdTest               no
lcao-params -1 1e-06 1e-05
pcm-variant GLSSA13
spintype z-spin
subspace-rotation-factor 1 yes
symmetries automatic
symmetry-threshold 0.0001



---------- Setting up symmetries ----------

Found 24 point-group symmetries of the bravais lattice
Found 24 space-group symmetries with basis
Applied RMS atom displacement 0 bohrs to make symmetries exact.

---------- Initializing the Grid ----------
R = 
[      9.45497     -4.72749            0  ]
[            0      8.18825            0  ]
[            0            0           40  ]
unit cell volume = 3096.79
G =
[   0.664538   0.383671         -0  ]
[          0   0.767342         -0  ]
[         -0         -0    0.15708  ]
Minimum fftbox size, Smin = [  40  40  164  ]
Chosen fftbox size, S = [  40  40  168  ]

---------- Exchange Correlation functional ----------
Initalized PBE GGA exchange.
Initalized PBE GGA correlation.

---------- Setting up pseudopotentials ----------
Width of ionic core gaussian charges (only for fluid interactions / plotting) set to 0

Reading pseudopotential file '/home/gridsan/aligho/DFT/build-Nov24/pseudopotentials/SG15/Rb_ONCV_PBE.upf':
  'Rb' pseudopotential, 'PBE' functional
  Generated using ONCVPSP code by D. R. Hamann
  Author: Martin Schlipf and Francois Gygi  Date: 150915.
  9 valence electrons, 3 orbitals, 6 projectors, 2308 radial grid points, with lMax = 2
  Transforming local potential to a uniform radial grid of dG=0.02 with 1489 points.
  Transforming nonlocal projectors to a uniform radial grid of dG=0.02 with 432 points.
    4S    l: 0   occupation:  2.0   eigenvalue: -1.172069
    4P    l: 1   occupation:  6.0   eigenvalue: -0.586674
    5S    l: 0   occupation:  1.0   eigenvalue: -0.082006
  Transforming atomic orbitals to a uniform radial grid of dG=0.02 with 432 points.
  Core radius for overlap checks: 2.60 bohrs.
  Reading pulay file /home/gridsan/aligho/DFT/build-Nov24/pseudopotentials/SG15/Rb_ONCV_PBE.pulay ... using dE_dnG = -1.360715e-05 computed for Ecut = 20.

Initialized 1 species with 1 total atoms.

Folded 1 k-points by 12x12x1 to 144 k-points.

---------- Setting up k-points, bands, fillings ----------
Reduced to 19 k-points under symmetry. 
Computing the number of bands and number of electrons
Calculating initial fillings.
nElectrons:   9.000000   nBands: 6   nStates: 38

----- Setting up reduced wavefunction bases (one per k-point) -----
average nbasis = 13230.521 , ideal nbasis = 13229.709

---------- Setting up coulomb interaction ----------
Initialized slab truncation along lattice direction 001

---------- Setting up 2D ewald sum ----------
Optimum gaussian width for ewald sums = 5.249020 bohr.
Real space sums over 289 unit cells with max indices [  8  8  0  ]
Reciprocal space sums over 81 terms with max indices [  4  4  0  ]

---------- Allocating electronic variables ----------
Initializing wave functions:  linear combination of atomic orbitals
Note: number of bands (6) exceeds available atomic orbitals (5)
Rb pseudo-atom occupations:   s ( 2 1 )  p ( 6 )
	FillingsUpdate:  mu: -0.089627281  nElectrons: 9.000000  magneticMoment: [ Abs: 0.82000  Tot: +0.82000 ]
LCAOMinimize: Iter:   0  F: -24.4351692653920232  |grad|_K:  1.466e-05  alpha:  1.000e+00
	FillingsUpdate:  mu: -0.089622080  nElectrons: 9.000000  magneticMoment: [ Abs: 0.82000  Tot: +0.82000 ]
LCAOMinimize: Iter:   1  F: -24.4351694096136391  |grad|_K:  1.497e-07  alpha:  9.817e-01  linmin: -1.200e-02  cgtest:  1.983e-01  t[s]:      4.65
LCAOMinimize: Encountered beta<0, resetting CG.
[d-17-11-3:64628] 18 more processes have sent help message help-mpi-common-cuda.txt / dlopen failed
[d-17-11-3:64628] Set MCA parameter "orte_base_help_aggregate" to 0 to see all help / error messages
[d-17-11-3:64628] 18 more processes have sent help message help-mpi-btl-openib-cpc-base.txt / no cpcs for port
	FillingsUpdate:  mu: -0.089622116  nElectrons: 9.000000  magneticMoment: [ Abs: 0.82000  Tot: +0.82000 ]
LCAOMinimize: Iter:   2  F: -24.4351694096288270  |grad|_K:  3.472e-09  alpha:  9.774e-01  linmin: -1.076e-01  cgtest:  9.560e-01  t[s]:      5.87
LCAOMinimize: Encountered beta<0, resetting CG.
LCAOMinimize: Converged (|Delta F|<1.000000e-06 for 2 iters).


---- Citations for features of the code used in this run ----

   Software package:
      R. Sundararaman, K. Letchworth-Weaver, K.A. Schwarz, D. Gunceler, Y. Ozhabes and T.A. Arias, 'JDFTx: software for joint density-functional theory', SoftwareX 6, 278 (2017)

   gga-PBE exchange-correlation functional:
      J.P. Perdew, K. Burke and M. Ernzerhof, Phys. Rev. Lett. 77, 3865 (1996)

   Pseudopotentials:
      M Schlipf and F Gygi, Comput. Phys. Commun. 196, 36 (2015)

   Truncated Coulomb potentials:
      R. Sundararaman and T.A. Arias, Phys. Rev. B 87, 165122 (2013)

This list may not be complete. Please suggest additional citations or
report any other bugs at https://github.com/shankar1729/jdftx/issues

Initialization completed successfully at t[s]:      5.97


-------- Electronic minimization -----------
Will mix electronic density at each iteration.
	FillingsUpdate:  mu: -0.089622116  nElectrons: 9.000000  magneticMoment: [ Abs: 0.82000  Tot: +0.82000 ]
	FillingsUpdate:  mu: -0.104684643  nElectrons: 9.000000  magneticMoment: [ Abs: 0.82000  Tot: +0.82000 ]
SCF: Cycle:  0   F: -24.444773324154848   dF: -9.604e-03   |Residual|: 1.545e-02   |deigs|: 1.774e-01  t[s]:      8.49
	FillingsUpdate:  mu: -0.109237518  nElectrons: 9.000000  magneticMoment: [ Abs: 0.82000  Tot: +0.82000 ]
SCF: Cycle:  1   F: -24.445293373841668   dF: -5.200e-04   |Residual|: 1.108e-02   |deigs|: 8.606e-03  t[s]:     10.38
	FillingsUpdate:  mu: -0.108410562  nElectrons: 9.000000  magneticMoment: [ Abs: 0.82246  Tot: +0.82000 ]
SCF: Cycle:  2   F: -24.445581293527233   dF: -2.879e-04   |Residual|: 6.298e-03   |deigs|: 2.451e-03  t[s]:     12.30
	FillingsUpdate:  mu: -0.104704958  nElectrons: 9.000000  magneticMoment: [ Abs: 0.82000  Tot: +0.82000 ]
SCF: Cycle:  3   F: -24.445797692615454   dF: -2.164e-04   |Residual|: 2.746e-03   |deigs|: 2.667e-03  t[s]:     14.24
	FillingsUpdate:  mu: -0.103039896  nElectrons: 9.000000  magneticMoment: [ Abs: 0.82002  Tot: +0.82000 ]
SCF: Cycle:  4   F: -24.445857352962836   dF: -5.966e-05   |Residual|: 1.690e-03   |deigs|: 2.582e-03  t[s]:     16.18
	FillingsUpdate:  mu: -0.102172900  nElectrons: 9.000000  magneticMoment: [ Abs: 0.82006  Tot: +0.82000 ]
SCF: Cycle:  5   F: -24.445883254886724   dF: -2.590e-05   |Residual|: 1.422e-03   |deigs|: 2.832e-03  t[s]:     18.13
	FillingsUpdate:  mu: -0.101215974  nElectrons: 9.000000  magneticMoment: [ Abs: 0.82006  Tot: +0.82000 ]
SCF: Cycle:  6   F: -24.445898640681484   dF: -1.539e-05   |Residual|: 1.202e-03   |deigs|: 2.264e-03  t[s]:     20.21
	FillingsUpdate:  mu: -0.098891414  nElectrons: 9.000000  magneticMoment: [ Abs: 0.82317  Tot: +0.82000 ]
SCF: Cycle:  7   F: -24.445896991015044   dF: +1.650e-06   |Residual|: 8.074e-04   |deigs|: 2.946e-03  t[s]:     22.34
	FillingsUpdate:  mu: -0.097965035  nElectrons: 9.000000  magneticMoment: [ Abs: 0.82183  Tot: +0.82000 ]
SCF: Cycle:  8   F: -24.445904604416590   dF: -7.613e-06   |Residual|: 7.062e-04   |deigs|: 1.331e-03  t[s]:     24.52
	FillingsUpdate:  mu: -0.096988213  nElectrons: 9.000000  magneticMoment: [ Abs: 0.82094  Tot: +0.82000 ]
SCF: Cycle:  9   F: -24.445915387390439   dF: -1.078e-05   |Residual|: 5.908e-04   |deigs|: 1.251e-03  t[s]:     26.60
	FillingsUpdate:  mu: -0.096930156  nElectrons: 9.000000  magneticMoment: [ Abs: 0.82141  Tot: +0.82000 ]
SCF: Cycle: 10   F: -24.445920217364030   dF: -4.830e-06   |Residual|: 4.351e-04   |deigs|: 3.308e-04  t[s]:     28.75
	FillingsUpdate:  mu: -0.096086611  nElectrons: 9.000000  magneticMoment: [ Abs: 0.82146  Tot: +0.82000 ]
SCF: Cycle: 11   F: -24.445923531031895   dF: -3.314e-06   |Residual|: 4.147e-04   |deigs|: 7.944e-04  t[s]:     30.90
	FillingsUpdate:  mu: -0.095300869  nElectrons: 9.000000  magneticMoment: [ Abs: 0.82139  Tot: +0.82000 ]
SCF: Cycle: 12   F: -24.445924476679185   dF: -9.456e-07   |Residual|: 3.965e-04   |deigs|: 8.362e-04  t[s]:     33.01
	FillingsUpdate:  mu: -0.094235198  nElectrons: 9.000000  magneticMoment: [ Abs: 0.82307  Tot: +0.82000 ]
SCF: Cycle: 13   F: -24.445927413925027   dF: -2.937e-06   |Residual|: 3.480e-04   |deigs|: 1.120e-03  t[s]:     35.16
	FillingsUpdate:  mu: -0.093219850  nElectrons: 9.000000  magneticMoment: [ Abs: 0.82159  Tot: +0.82000 ]
SCF: Cycle: 14   F: -24.445931327305978   dF: -3.913e-06   |Residual|: 3.138e-04   |deigs|: 1.094e-03  t[s]:     37.28
	FillingsUpdate:  mu: -0.092583522  nElectrons: 9.000000  magneticMoment: [ Abs: 0.82128  Tot: +0.82000 ]
SCF: Cycle: 15   F: -24.445932621882566   dF: -1.295e-06   |Residual|: 2.768e-04   |deigs|: 6.764e-04  t[s]:     39.36
	FillingsUpdate:  mu: -0.091664257  nElectrons: 9.000000  magneticMoment: [ Abs: 0.82102  Tot: +0.82000 ]
SCF: Cycle: 16   F: -24.445934721653060   dF: -2.100e-06   |Residual|: 1.906e-04   |deigs|: 9.226e-04  t[s]:     41.48
	FillingsUpdate:  mu: -0.091353291  nElectrons: 9.000000  magneticMoment: [ Abs: 0.82032  Tot: +0.82000 ]
SCF: Cycle: 17   F: -24.445935991356244   dF: -1.270e-06   |Residual|: 1.421e-04   |deigs|: 4.800e-04  t[s]:     43.57
	FillingsUpdate:  mu: -0.091348628  nElectrons: 9.000000  magneticMoment: [ Abs: 0.82021  Tot: +0.82000 ]
SCF: Cycle: 18   F: -24.445936554019710   dF: -5.627e-07   |Residual|: 1.021e-04   |deigs|: 2.947e-04  t[s]:     45.75
	FillingsUpdate:  mu: -0.091341798  nElectrons: 9.000000  magneticMoment: [ Abs: 0.82033  Tot: +0.82000 ]
SCF: Cycle: 19   F: -24.445936868321702   dF: -3.143e-07   |Residual|: 6.162e-05   |deigs|: 1.363e-04  t[s]:     47.87
	FillingsUpdate:  mu: -0.091369876  nElectrons: 9.000000  magneticMoment: [ Abs: 0.82031  Tot: +0.82000 ]
SCF: Cycle: 20   F: -24.445937025194954   dF: -1.569e-07   |Residual|: 4.316e-05   |deigs|: 9.161e-05  t[s]:     49.97
	FillingsUpdate:  mu: -0.091432132  nElectrons: 9.000000  magneticMoment: [ Abs: 0.82035  Tot: +0.82000 ]
SCF: Cycle: 21   F: -24.445937100906761   dF: -7.571e-08   |Residual|: 3.142e-05   |deigs|: 9.850e-05  t[s]:     52.09
	FillingsUpdate:  mu: -0.091508620  nElectrons: 9.000000  magneticMoment: [ Abs: 0.82038  Tot: +0.82000 ]
SCF: Cycle: 22   F: -24.445937142614131   dF: -4.171e-08   |Residual|: 2.452e-05   |deigs|: 9.694e-05  t[s]:     54.23
	FillingsUpdate:  mu: -0.091513670  nElectrons: 9.000000  magneticMoment: [ Abs: 0.82033  Tot: +0.82000 ]
SCF: Cycle: 23   F: -24.445937164671996   dF: -2.206e-08   |Residual|: 1.886e-05   |deigs|: 1.058e-04  t[s]:     56.33
	FillingsUpdate:  mu: -0.091472331  nElectrons: 9.000000  magneticMoment: [ Abs: 0.82028  Tot: +0.82000 ]
SCF: Cycle: 24   F: -24.445937170050811   dF: -5.379e-09   |Residual|: 1.410e-05   |deigs|: 7.775e-05  t[s]:     58.49
	FillingsUpdate:  mu: -0.091472173  nElectrons: 9.000000  magneticMoment: [ Abs: 0.82023  Tot: +0.82000 ]
SCF: Cycle: 25   F: -24.445937181286261   dF: -1.124e-08   |Residual|: 1.471e-05   |deigs|: 2.914e-05  t[s]:     60.66
	FillingsUpdate:  mu: -0.091446250  nElectrons: 9.000000  magneticMoment: [ Abs: 0.82019  Tot: +0.82000 ]
SCF: Cycle: 26   F: -24.445937182581758   dF: -1.295e-09   |Residual|: 1.117e-05   |deigs|: 1.296e-04  t[s]:     62.74
	FillingsUpdate:  mu: -0.091443077  nElectrons: 9.000000  magneticMoment: [ Abs: 0.82011  Tot: +0.82000 ]
SCF: Cycle: 27   F: -24.445937187727534   dF: -5.146e-09   |Residual|: 7.131e-06   |deigs|: 4.218e-05  t[s]:     64.89
SCF: Converged (|Delta E|<1.000000e-08 for 2 iters).


# Ionic positions in lattice coordinates:
ion Rb   0.000000000000000   0.000000000000000   0.000000000000000 0

# Forces in Lattice coordinates:
force Rb   0.000000000000000  -0.000000000000000   0.000000000000000 0

# Energy components:
   Eewald =      -18.0480261003326561
       EH =        1.6135386353681802
     Eloc =      -10.5244293060324878
      Enl =       -0.7996437797179513
   Epulay =        0.0000000035676145
      Exc =       -3.6805171670716454
       KE =        6.9931405599063270
-------------------------------------
     Etot =      -24.4459371543126203
       TS =        0.0000000334149149
-------------------------------------
        F =      -24.4459371877275338

IonicMinimize: Iter:   0  F: -24.445937187727534  |grad|_K:  0.000e+00  t[s]:     65.02
IonicMinimize: Converged (|grad|_K<1.000000e-04).

#--- Lowdin population analysis ---
# oxidation-state Rb +0.145
# magnetic-moments Rb +0.679

End date and time: Sun Feb  6 12:55:51 2022  (Duration: 0-0:01:05.04)
Done!
scale=3
magnetization=0.82
--------------------------------------------------------------------------
The library attempted to open the following supporting CUDA libraries,
but each of them failed.  CUDA-aware support is disabled.
libcuda.so.1: cannot open shared object file: No such file or directory
libcuda.dylib: cannot open shared object file: No such file or directory
/usr/lib64/libcuda.so.1: cannot open shared object file: No such file or directory
/usr/lib64/libcuda.dylib: cannot open shared object file: No such file or directory
If you are not interested in CUDA-aware support, then run with
--mca opal_warn_on_missing_libcuda 0 to suppress this message.  If you are interested
in CUDA-aware support, then try setting LD_LIBRARY_PATH to the location
of libcuda.so.1 to get passed this issue.
--------------------------------------------------------------------------
--------------------------------------------------------------------------
No OpenFabrics connection schemes reported that they were able to be
used on a specific port.  As such, the openib BTL (OpenFabrics
support) will be disabled for this port.

  Local host:           d-17-11-3
  Local device:         mlx5_1
  Local port:           1
  CPCs attempted:       rdmacm, udcm
--------------------------------------------------------------------------

*************** JDFTx 1.6.0 (git hash 42ebbcc2) ***************

Start date and time: Sun Feb  6 12:55:52 2022
Executable jdftx with command-line: -i Alkali.in
Running on hosts (process indices):  d-17-11-3 (0-18)
Divided in process groups (process indices):  0 (0)  1 (1)  2 (2)  3 (3)  4 (4)  5 (5)  6 (6)  7 (7)  8 (8)  9 (9)  10 (10)  11 (11)  12 (12)  13 (13)  14 (14)  15 (15)  16 (16)  17 (17)  18 (18)
Resource initialization completed at t[s]:      0.00
Run totals: 19 processes, 48 threads, 0 GPUs


Input parsed successfully to the following command list (including defaults):

basis kpoint-dependent
coords-type Lattice
core-overlap-check vector
coulomb-interaction Slab 001
davidson-band-ratio 1.1
dump End None
dump-name $INPUT.$VAR
elec-cutoff 20
elec-eigen-algo Davidson
elec-ex-corr gga-PBE
elec-initial-magnetization 0.820000 yes
elec-smearing Fermi 1e-05
electronic-minimize  \
	dirUpdateScheme      FletcherReeves \
	linminMethod         DirUpdateRecommended \
	nIterations          100 \
	history              15 \
	knormThreshold       0 \
	energyDiffThreshold  1e-08 \
	nEnergyDiff          2 \
	alphaTstart          1 \
	alphaTmin            1e-10 \
	updateTestStepSize   yes \
	alphaTreduceFactor   0.1 \
	alphaTincreaseFactor 3 \
	nAlphaAdjustMax      3 \
	wolfeEnergy          0.0001 \
	wolfeGradient        0.9 \
	fdTest               no
electronic-scf  \
	nIterations	10000 \
	energyDiffThreshold	1e-08 \
	residualThreshold	1e-07 \
	mixFraction	0.5 \
	qMetric	0.8 \
	history	10 \
	nEigSteps	2 \
	eigDiffThreshold	1e-08 \
	mixedVariable	Density \
	qKerker	0.8 \
	qKappa	-1 \
	verbose	no \
	mixFractionMag	1.5
exchange-regularization WignerSeitzTruncated
fluid None
fluid-ex-corr (null) lda-PZ
fluid-gummel-loop 10 1.000000e-05
fluid-minimize  \
	dirUpdateScheme      PolakRibiere \
	linminMethod         DirUpdateRecommended \
	nIterations          100 \
	history              15 \
	knormThreshold       0 \
	energyDiffThreshold  0 \
	nEnergyDiff          2 \
	alphaTstart          1 \
	alphaTmin            1e-10 \
	updateTestStepSize   yes \
	alphaTreduceFactor   0.1 \
	alphaTincreaseFactor 3 \
	nAlphaAdjustMax      3 \
	wolfeEnergy          0.0001 \
	wolfeGradient        0.9 \
	fdTest               no
fluid-solvent H2O 55.338 ScalarEOS \
	epsBulk 78.4 \
	pMol 0.92466 \
	epsInf 1.77 \
	Pvap 1.06736e-10 \
	sigmaBulk 4.62e-05 \
	Rvdw 2.61727 \
	Res 1.42 \
	tauNuc 343133 \
	poleEl 15 7 1
forces-output-coords Positions
ion Rb   0.000000000000000   0.000000000000000   0.000000000000000 0
ion-species SG15/$ID_ONCV_PBE.upf
ion-width 0
ionic-minimize  \
	dirUpdateScheme      L-BFGS \
	linminMethod         DirUpdateRecommended \
	nIterations          0 \
	history              15 \
	knormThreshold       0.0001 \
	energyDiffThreshold  1e-06 \
	nEnergyDiff          2 \
	alphaTstart          1 \
	alphaTmin            1e-10 \
	updateTestStepSize   yes \
	alphaTreduceFactor   0.1 \
	alphaTincreaseFactor 3 \
	nAlphaAdjustMax      3 \
	wolfeEnergy          0.0001 \
	wolfeGradient        0.9 \
	fdTest               no
kpoint   0.000000000000   0.000000000000   0.000000000000  1.00000000000000
kpoint-folding 12 12 1 
latt-move-scale 1 1 1
latt-scale 3 3 1 
lattice  \
	   4.727486978767153   -2.363743489383575    0.000000000000000  \
	  -0.000000000000000    4.094123819672498    0.000000000000000  \
	   0.000000000000000    0.000000000000000   40.000000000000000 
lattice-minimize  \
	dirUpdateScheme      L-BFGS \
	linminMethod         DirUpdateRecommended \
	nIterations          0 \
	history              15 \
	knormThreshold       0 \
	energyDiffThreshold  1e-06 \
	nEnergyDiff          2 \
	alphaTstart          1 \
	alphaTmin            1e-10 \
	updateTestStepSize   yes \
	alphaTreduceFactor   0.1 \
	alphaTincreaseFactor 3 \
	nAlphaAdjustMax      3 \
	wolfeEnergy          0.0001 \
	wolfeGradient        0.9 \
	fdTest               no
lcao-params -1 1e-06 1e-05
pcm-variant GLSSA13
spintype z-spin
subspace-rotation-factor 1 yes
symmetries automatic
symmetry-threshold 0.0001



---------- Setting up symmetries ----------

Found 24 point-group symmetries of the bravais lattice
Found 24 space-group symmetries with basis
Applied RMS atom displacement 0 bohrs to make symmetries exact.

---------- Initializing the Grid ----------
R = 
[      14.1825     -7.09123            0  ]
[            0      12.2824            0  ]
[            0            0           40  ]
unit cell volume = 6967.77
G =
[   0.443025   0.255781         -0  ]
[          0   0.511561         -0  ]
[         -0         -0    0.15708  ]
Minimum fftbox size, Smin = [  60  60  164  ]
Chosen fftbox size, S = [  60  60  168  ]

---------- Exchange Correlation functional ----------
Initalized PBE GGA exchange.
Initalized PBE GGA correlation.

---------- Setting up pseudopotentials ----------
Width of ionic core gaussian charges (only for fluid interactions / plotting) set to 0

Reading pseudopotential file '/home/gridsan/aligho/DFT/build-Nov24/pseudopotentials/SG15/Rb_ONCV_PBE.upf':
  'Rb' pseudopotential, 'PBE' functional
  Generated using ONCVPSP code by D. R. Hamann
  Author: Martin Schlipf and Francois Gygi  Date: 150915.
  9 valence electrons, 3 orbitals, 6 projectors, 2308 radial grid points, with lMax = 2
  Transforming local potential to a uniform radial grid of dG=0.02 with 1489 points.
  Transforming nonlocal projectors to a uniform radial grid of dG=0.02 with 432 points.
    4S    l: 0   occupation:  2.0   eigenvalue: -1.172069
    4P    l: 1   occupation:  6.0   eigenvalue: -0.586674
    5S    l: 0   occupation:  1.0   eigenvalue: -0.082006
  Transforming atomic orbitals to a uniform radial grid of dG=0.02 with 432 points.
  Core radius for overlap checks: 2.60 bohrs.
  Reading pulay file /home/gridsan/aligho/DFT/build-Nov24/pseudopotentials/SG15/Rb_ONCV_PBE.pulay ... using dE_dnG = -1.360715e-05 computed for Ecut = 20.

Initialized 1 species with 1 total atoms.

Folded 1 k-points by 12x12x1 to 144 k-points.

---------- Setting up k-points, bands, fillings ----------
Reduced to 19 k-points under symmetry. 
Computing the number of bands and number of electrons
Calculating initial fillings.
nElectrons:   9.000000   nBands: 6   nStates: 38

----- Setting up reduced wavefunction bases (one per k-point) -----
average nbasis = 29766.104 , ideal nbasis = 29766.845

---------- Setting up coulomb interaction ----------
Initialized slab truncation along lattice direction 001

---------- Setting up 2D ewald sum ----------
Optimum gaussian width for ewald sums = 7.873530 bohr.
Real space sums over 289 unit cells with max indices [  8  8  0  ]
Reciprocal space sums over 81 terms with max indices [  4  4  0  ]

---------- Allocating electronic variables ----------
Initializing wave functions:  linear combination of atomic orbitals
Note: number of bands (6) exceeds available atomic orbitals (5)
Rb pseudo-atom occupations:   s ( 2 1 )  p ( 6 )
[d-17-11-3:44188] 18 more processes have sent help message help-mpi-common-cuda.txt / dlopen failed
[d-17-11-3:44188] Set MCA parameter "orte_base_help_aggregate" to 0 to see all help / error messages
[d-17-11-3:44188] 18 more processes have sent help message help-mpi-btl-openib-cpc-base.txt / no cpcs for port
	FillingsUpdate:  mu: -0.085349636  nElectrons: 9.000000  magneticMoment: [ Abs: 0.82000  Tot: +0.82000 ]
LCAOMinimize: Iter:   0  F: -24.4347234664205395  |grad|_K:  7.432e-06  alpha:  1.000e+00
	FillingsUpdate:  mu: -0.085348188  nElectrons: 9.000000  magneticMoment: [ Abs: 0.82000  Tot: +0.82000 ]
LCAOMinimize: Iter:   1  F: -24.4347235039178940  |grad|_K:  5.104e-08  alpha:  9.924e-01  linmin: -5.772e-03  cgtest:  1.258e-01  t[s]:      8.92
LCAOMinimize: Encountered beta<0, resetting CG.
	FillingsUpdate:  mu: -0.085348193  nElectrons: 9.000000  magneticMoment: [ Abs: 0.82000  Tot: +0.82000 ]
LCAOMinimize: Iter:   2  F: -24.4347235039193684  |grad|_K:  9.619e-09  alpha:  8.085e-01  linmin: -1.379e-01  cgtest:  9.996e-01  t[s]:     11.36
LCAOMinimize: Encountered beta<0, resetting CG.
LCAOMinimize: Converged (|Delta F|<1.000000e-06 for 2 iters).


---- Citations for features of the code used in this run ----

   Software package:
      R. Sundararaman, K. Letchworth-Weaver, K.A. Schwarz, D. Gunceler, Y. Ozhabes and T.A. Arias, 'JDFTx: software for joint density-functional theory', SoftwareX 6, 278 (2017)

   gga-PBE exchange-correlation functional:
      J.P. Perdew, K. Burke and M. Ernzerhof, Phys. Rev. Lett. 77, 3865 (1996)

   Pseudopotentials:
      M Schlipf and F Gygi, Comput. Phys. Commun. 196, 36 (2015)

   Truncated Coulomb potentials:
      R. Sundararaman and T.A. Arias, Phys. Rev. B 87, 165122 (2013)

This list may not be complete. Please suggest additional citations or
report any other bugs at https://github.com/shankar1729/jdftx/issues

Initialization completed successfully at t[s]:     11.52


-------- Electronic minimization -----------
Will mix electronic density at each iteration.
	FillingsUpdate:  mu: -0.085348193  nElectrons: 9.000000  magneticMoment: [ Abs: 0.82000  Tot: +0.82000 ]
	FillingsUpdate:  mu: -0.086132298  nElectrons: 9.000000  magneticMoment: [ Abs: 0.82000  Tot: +0.82000 ]
SCF: Cycle:  0   F: -24.436087228452550   dF: -1.364e-03   |Residual|: 3.750e-03   |deigs|: 1.733e-01  t[s]:     16.35
	FillingsUpdate:  mu: -0.086427156  nElectrons: 9.000000  magneticMoment: [ Abs: 0.82172  Tot: +0.82000 ]
SCF: Cycle:  1   F: -24.436148312756583   dF: -6.108e-05   |Residual|: 2.703e-03   |deigs|: 5.071e-03  t[s]:     20.14
	FillingsUpdate:  mu: -0.086793098  nElectrons: 9.000000  magneticMoment: [ Abs: 0.82372  Tot: +0.82000 ]
SCF: Cycle:  2   F: -24.436186123217361   dF: -3.781e-05   |Residual|: 2.099e-03   |deigs|: 1.956e-03  t[s]:     24.00
	FillingsUpdate:  mu: -0.087180052  nElectrons: 9.000000  magneticMoment: [ Abs: 0.82478  Tot: +0.82000 ]
SCF: Cycle:  3   F: -24.436219560015168   dF: -3.344e-05   |Residual|: 1.581e-03   |deigs|: 2.624e-03  t[s]:     27.92
	FillingsUpdate:  mu: -0.087045162  nElectrons: 9.000000  magneticMoment: [ Abs: 0.82317  Tot: +0.82000 ]
SCF: Cycle:  4   F: -24.436244008765563   dF: -2.445e-05   |Residual|: 9.189e-04   |deigs|: 1.915e-03  t[s]:     31.91
	FillingsUpdate:  mu: -0.086905618  nElectrons: 9.000000  magneticMoment: [ Abs: 0.82376  Tot: +0.82000 ]
SCF: Cycle:  5   F: -24.436251949389913   dF: -7.941e-06   |Residual|: 5.182e-04   |deigs|: 1.416e-03  t[s]:     35.95
	FillingsUpdate:  mu: -0.086812115  nElectrons: 9.000000  magneticMoment: [ Abs: 0.82337  Tot: +0.82000 ]
SCF: Cycle:  6   F: -24.436256069806269   dF: -4.120e-06   |Residual|: 3.841e-04   |deigs|: 1.258e-03  t[s]:     40.05
	FillingsUpdate:  mu: -0.086622678  nElectrons: 9.000000  magneticMoment: [ Abs: 0.82368  Tot: +0.82000 ]
SCF: Cycle:  7   F: -24.436258098410253   dF: -2.029e-06   |Residual|: 2.886e-04   |deigs|: 7.784e-04  t[s]:     44.23
	FillingsUpdate:  mu: -0.086265088  nElectrons: 9.000000  magneticMoment: [ Abs: 0.82432  Tot: +0.82000 ]
SCF: Cycle:  8   F: -24.436257914056252   dF: +1.844e-07   |Residual|: 2.433e-04   |deigs|: 4.627e-04  t[s]:     48.50
	FillingsUpdate:  mu: -0.085907513  nElectrons: 9.000000  magneticMoment: [ Abs: 0.82458  Tot: +0.82000 ]
SCF: Cycle:  9   F: -24.436256995967629   dF: +9.181e-07   |Residual|: 2.255e-04   |deigs|: 5.437e-04  t[s]:     52.89
	FillingsUpdate:  mu: -0.085726630  nElectrons: 9.000000  magneticMoment: [ Abs: 0.82395  Tot: +0.82000 ]
SCF: Cycle: 10   F: -24.436258474759352   dF: -1.479e-06   |Residual|: 1.896e-04   |deigs|: 3.008e-04  t[s]:     57.28
	FillingsUpdate:  mu: -0.085694542  nElectrons: 9.000000  magneticMoment: [ Abs: 0.82459  Tot: +0.82000 ]
SCF: Cycle: 11   F: -24.436259795988313   dF: -1.321e-06   |Residual|: 1.370e-04   |deigs|: 1.959e-04  t[s]:     61.65
	FillingsUpdate:  mu: -0.085503527  nElectrons: 9.000000  magneticMoment: [ Abs: 0.82483  Tot: +0.82000 ]
SCF: Cycle: 12   F: -24.436260273345876   dF: -4.774e-07   |Residual|: 1.293e-04   |deigs|: 2.209e-04  t[s]:     65.98
	FillingsUpdate:  mu: -0.085223739  nElectrons: 9.000000  magneticMoment: [ Abs: 0.82478  Tot: +0.82000 ]
SCF: Cycle: 13   F: -24.436260325379276   dF: -5.203e-08   |Residual|: 1.289e-04   |deigs|: 2.792e-04  t[s]:     70.43
	FillingsUpdate:  mu: -0.084951670  nElectrons: 9.000000  magneticMoment: [ Abs: 0.82469  Tot: +0.82000 ]
SCF: Cycle: 14   F: -24.436260109030986   dF: +2.163e-07   |Residual|: 1.198e-04   |deigs|: 3.173e-04  t[s]:     74.87
	FillingsUpdate:  mu: -0.084826252  nElectrons: 9.000000  magneticMoment: [ Abs: 0.82457  Tot: +0.82000 ]
SCF: Cycle: 15   F: -24.436260755191160   dF: -6.462e-07   |Residual|: 9.998e-05   |deigs|: 2.051e-04  t[s]:     79.26
	FillingsUpdate:  mu: -0.084666638  nElectrons: 9.000000  magneticMoment: [ Abs: 0.82379  Tot: +0.82000 ]
SCF: Cycle: 16   F: -24.436261320290154   dF: -5.651e-07   |Residual|: 7.868e-05   |deigs|: 2.305e-04  t[s]:     83.64
	FillingsUpdate:  mu: -0.084526114  nElectrons: 9.000000  magneticMoment: [ Abs: 0.82356  Tot: +0.82000 ]
SCF: Cycle: 17   F: -24.436261634961564   dF: -3.147e-07   |Residual|: 5.796e-05   |deigs|: 1.739e-04  t[s]:     87.95
	FillingsUpdate:  mu: -0.084532070  nElectrons: 9.000000  magneticMoment: [ Abs: 0.82359  Tot: +0.82000 ]
SCF: Cycle: 18   F: -24.436261676749304   dF: -4.179e-08   |Residual|: 3.974e-05   |deigs|: 1.266e-04  t[s]:     92.41
	FillingsUpdate:  mu: -0.084518348  nElectrons: 9.000000  magneticMoment: [ Abs: 0.82359  Tot: +0.82000 ]
SCF: Cycle: 19   F: -24.436261856510651   dF: -1.798e-07   |Residual|: 2.275e-05   |deigs|: 1.117e-04  t[s]:     96.77
	FillingsUpdate:  mu: -0.084513217  nElectrons: 9.000000  magneticMoment: [ Abs: 0.82360  Tot: +0.82000 ]
SCF: Cycle: 20   F: -24.436261901654920   dF: -4.514e-08   |Residual|: 1.609e-05   |deigs|: 1.253e-04  t[s]:    101.04
	FillingsUpdate:  mu: -0.084520097  nElectrons: 9.000000  magneticMoment: [ Abs: 0.82361  Tot: +0.82000 ]
SCF: Cycle: 21   F: -24.436261917691265   dF: -1.604e-08   |Residual|: 1.001e-05   |deigs|: 8.325e-05  t[s]:    105.41
	FillingsUpdate:  mu: -0.084516571  nElectrons: 9.000000  magneticMoment: [ Abs: 0.82360  Tot: +0.82000 ]
SCF: Cycle: 22   F: -24.436261928079897   dF: -1.039e-08   |Residual|: 6.497e-06   |deigs|: 4.216e-05  t[s]:    109.80
	FillingsUpdate:  mu: -0.084518816  nElectrons: 9.000000  magneticMoment: [ Abs: 0.82362  Tot: +0.82000 ]
SCF: Cycle: 23   F: -24.436261934930226   dF: -6.850e-09   |Residual|: 4.288e-06   |deigs|: 2.468e-05  t[s]:    114.20
	FillingsUpdate:  mu: -0.084522601  nElectrons: 9.000000  magneticMoment: [ Abs: 0.82363  Tot: +0.82000 ]
SCF: Cycle: 24   F: -24.436261936279681   dF: -1.349e-09   |Residual|: 3.548e-06   |deigs|: 1.590e-05  t[s]:    118.53
SCF: Converged (|Delta E|<1.000000e-08 for 2 iters).


# Ionic positions in lattice coordinates:
ion Rb   0.000000000000000   0.000000000000000   0.000000000000000 0

# Forces in Lattice coordinates:
force Rb  -0.000000000000000  -0.000000000000000   0.000000000000000 0

# Energy components:
   Eewald =      -12.0320174002217755
       EH =        7.5212086964778138
     Eloc =      -22.4350619384188192
      Enl =       -0.7958008160082236
   Epulay =       -0.0000000014467880
      Exc =       -3.6520175567751871
       KE =        6.9574273424311528
-------------------------------------
     Etot =      -24.4362616739618304
       TS =        0.0000002623178494
-------------------------------------
        F =      -24.4362619362796814

IonicMinimize: Iter:   0  F: -24.436261936279681  |grad|_K:  0.000e+00  t[s]:    118.79
IonicMinimize: Converged (|grad|_K<1.000000e-04).

#--- Lowdin population analysis ---
# oxidation-state Rb +0.033
# magnetic-moments Rb +0.789

End date and time: Sun Feb  6 12:57:51 2022  (Duration: 0-0:01:58.84)
Done!
scale=4
magnetization=0.82
--------------------------------------------------------------------------
The library attempted to open the following supporting CUDA libraries,
but each of them failed.  CUDA-aware support is disabled.
libcuda.so.1: cannot open shared object file: No such file or directory
libcuda.dylib: cannot open shared object file: No such file or directory
/usr/lib64/libcuda.so.1: cannot open shared object file: No such file or directory
/usr/lib64/libcuda.dylib: cannot open shared object file: No such file or directory
If you are not interested in CUDA-aware support, then run with
--mca opal_warn_on_missing_libcuda 0 to suppress this message.  If you are interested
in CUDA-aware support, then try setting LD_LIBRARY_PATH to the location
of libcuda.so.1 to get passed this issue.
--------------------------------------------------------------------------
--------------------------------------------------------------------------
No OpenFabrics connection schemes reported that they were able to be
used on a specific port.  As such, the openib BTL (OpenFabrics
support) will be disabled for this port.

  Local host:           d-17-11-3
  Local device:         mlx5_1
  Local port:           1
  CPCs attempted:       rdmacm, udcm
--------------------------------------------------------------------------

*************** JDFTx 1.6.0 (git hash 42ebbcc2) ***************

Start date and time: Sun Feb  6 12:57:52 2022
Executable jdftx with command-line: -i Alkali.in
Running on hosts (process indices):  d-17-11-3 (0-18)
Divided in process groups (process indices):  0 (0)  1 (1)  2 (2)  3 (3)  4 (4)  5 (5)  6 (6)  7 (7)  8 (8)  9 (9)  10 (10)  11 (11)  12 (12)  13 (13)  14 (14)  15 (15)  16 (16)  17 (17)  18 (18)
Resource initialization completed at t[s]:      0.00
Run totals: 19 processes, 48 threads, 0 GPUs


Input parsed successfully to the following command list (including defaults):

basis kpoint-dependent
coords-type Lattice
core-overlap-check vector
coulomb-interaction Slab 001
davidson-band-ratio 1.1
dump End None
dump-name $INPUT.$VAR
elec-cutoff 20
elec-eigen-algo Davidson
elec-ex-corr gga-PBE
elec-initial-magnetization 0.820000 yes
elec-smearing Fermi 1e-05
electronic-minimize  \
	dirUpdateScheme      FletcherReeves \
	linminMethod         DirUpdateRecommended \
	nIterations          100 \
	history              15 \
	knormThreshold       0 \
	energyDiffThreshold  1e-08 \
	nEnergyDiff          2 \
	alphaTstart          1 \
	alphaTmin            1e-10 \
	updateTestStepSize   yes \
	alphaTreduceFactor   0.1 \
	alphaTincreaseFactor 3 \
	nAlphaAdjustMax      3 \
	wolfeEnergy          0.0001 \
	wolfeGradient        0.9 \
	fdTest               no
electronic-scf  \
	nIterations	10000 \
	energyDiffThreshold	1e-08 \
	residualThreshold	1e-07 \
	mixFraction	0.5 \
	qMetric	0.8 \
	history	10 \
	nEigSteps	2 \
	eigDiffThreshold	1e-08 \
	mixedVariable	Density \
	qKerker	0.8 \
	qKappa	-1 \
	verbose	no \
	mixFractionMag	1.5
exchange-regularization WignerSeitzTruncated
fluid None
fluid-ex-corr (null) lda-PZ
fluid-gummel-loop 10 1.000000e-05
fluid-minimize  \
	dirUpdateScheme      PolakRibiere \
	linminMethod         DirUpdateRecommended \
	nIterations          100 \
	history              15 \
	knormThreshold       0 \
	energyDiffThreshold  0 \
	nEnergyDiff          2 \
	alphaTstart          1 \
	alphaTmin            1e-10 \
	updateTestStepSize   yes \
	alphaTreduceFactor   0.1 \
	alphaTincreaseFactor 3 \
	nAlphaAdjustMax      3 \
	wolfeEnergy          0.0001 \
	wolfeGradient        0.9 \
	fdTest               no
fluid-solvent H2O 55.338 ScalarEOS \
	epsBulk 78.4 \
	pMol 0.92466 \
	epsInf 1.77 \
	Pvap 1.06736e-10 \
	sigmaBulk 4.62e-05 \
	Rvdw 2.61727 \
	Res 1.42 \
	tauNuc 343133 \
	poleEl 15 7 1
forces-output-coords Positions
ion Rb   0.000000000000000   0.000000000000000   0.000000000000000 0
ion-species SG15/$ID_ONCV_PBE.upf
ion-width 0
ionic-minimize  \
	dirUpdateScheme      L-BFGS \
	linminMethod         DirUpdateRecommended \
	nIterations          0 \
	history              15 \
	knormThreshold       0.0001 \
	energyDiffThreshold  1e-06 \
	nEnergyDiff          2 \
	alphaTstart          1 \
	alphaTmin            1e-10 \
	updateTestStepSize   yes \
	alphaTreduceFactor   0.1 \
	alphaTincreaseFactor 3 \
	nAlphaAdjustMax      3 \
	wolfeEnergy          0.0001 \
	wolfeGradient        0.9 \
	fdTest               no
kpoint   0.000000000000   0.000000000000   0.000000000000  1.00000000000000
kpoint-folding 12 12 1 
latt-move-scale 1 1 1
latt-scale 4 4 1 
lattice  \
	   4.727486978767153   -2.363743489383575    0.000000000000000  \
	  -0.000000000000000    4.094123819672498    0.000000000000000  \
	   0.000000000000000    0.000000000000000   40.000000000000000 
lattice-minimize  \
	dirUpdateScheme      L-BFGS \
	linminMethod         DirUpdateRecommended \
	nIterations          0 \
	history              15 \
	knormThreshold       0 \
	energyDiffThreshold  1e-06 \
	nEnergyDiff          2 \
	alphaTstart          1 \
	alphaTmin            1e-10 \
	updateTestStepSize   yes \
	alphaTreduceFactor   0.1 \
	alphaTincreaseFactor 3 \
	nAlphaAdjustMax      3 \
	wolfeEnergy          0.0001 \
	wolfeGradient        0.9 \
	fdTest               no
lcao-params -1 1e-06 1e-05
pcm-variant GLSSA13
spintype z-spin
subspace-rotation-factor 1 yes
symmetries automatic
symmetry-threshold 0.0001



---------- Setting up symmetries ----------

Found 24 point-group symmetries of the bravais lattice
Found 24 space-group symmetries with basis
Applied RMS atom displacement 0 bohrs to make symmetries exact.

---------- Initializing the Grid ----------
R = 
[      18.9099     -9.45497            0  ]
[            0      16.3765            0  ]
[            0            0           40  ]
unit cell volume = 12387.1
G =
[   0.332269   0.191835         -0  ]
[          0   0.383671         -0  ]
[         -0         -0    0.15708  ]
Minimum fftbox size, Smin = [  80  80  164  ]
Chosen fftbox size, S = [  80  80  168  ]

---------- Exchange Correlation functional ----------
Initalized PBE GGA exchange.
Initalized PBE GGA correlation.

---------- Setting up pseudopotentials ----------
Width of ionic core gaussian charges (only for fluid interactions / plotting) set to 0

Reading pseudopotential file '/home/gridsan/aligho/DFT/build-Nov24/pseudopotentials/SG15/Rb_ONCV_PBE.upf':
  'Rb' pseudopotential, 'PBE' functional
  Generated using ONCVPSP code by D. R. Hamann
  Author: Martin Schlipf and Francois Gygi  Date: 150915.
  9 valence electrons, 3 orbitals, 6 projectors, 2308 radial grid points, with lMax = 2
  Transforming local potential to a uniform radial grid of dG=0.02 with 1489 points.
  Transforming nonlocal projectors to a uniform radial grid of dG=0.02 with 432 points.
    4S    l: 0   occupation:  2.0   eigenvalue: -1.172069
    4P    l: 1   occupation:  6.0   eigenvalue: -0.586674
    5S    l: 0   occupation:  1.0   eigenvalue: -0.082006
  Transforming atomic orbitals to a uniform radial grid of dG=0.02 with 432 points.
  Core radius for overlap checks: 2.60 bohrs.
  Reading pulay file /home/gridsan/aligho/DFT/build-Nov24/pseudopotentials/SG15/Rb_ONCV_PBE.pulay ... using dE_dnG = -1.360715e-05 computed for Ecut = 20.

Initialized 1 species with 1 total atoms.

Folded 1 k-points by 12x12x1 to 144 k-points.

---------- Setting up k-points, bands, fillings ----------
Reduced to 19 k-points under symmetry. 
Computing the number of bands and number of electrons
Calculating initial fillings.
nElectrons:   9.000000   nBands: 6   nStates: 38

----- Setting up reduced wavefunction bases (one per k-point) -----
average nbasis = 52924.021 , ideal nbasis = 52918.836

---------- Setting up coulomb interaction ----------
Initialized slab truncation along lattice direction 001

---------- Setting up 2D ewald sum ----------
Optimum gaussian width for ewald sums = 10.498040 bohr.
Real space sums over 289 unit cells with max indices [  8  8  0  ]
Reciprocal space sums over 81 terms with max indices [  4  4  0  ]

---------- Allocating electronic variables ----------
Initializing wave functions:  linear combination of atomic orbitals
Note: number of bands (6) exceeds available atomic orbitals (5)
Rb pseudo-atom occupations:   s ( 2 1 )  p ( 6 )
[d-17-11-3:10374] 18 more processes have sent help message help-mpi-common-cuda.txt / dlopen failed
[d-17-11-3:10374] Set MCA parameter "orte_base_help_aggregate" to 0 to see all help / error messages
[d-17-11-3:10374] 18 more processes have sent help message help-mpi-btl-openib-cpc-base.txt / no cpcs for port
	FillingsUpdate:  mu: -0.082289146  nElectrons: 9.000000  magneticMoment: [ Abs: 0.82000  Tot: +0.82000 ]
LCAOMinimize: Iter:   0  F: -24.4327667173104714  |grad|_K:  1.889e-06  alpha:  1.000e+00
	FillingsUpdate:  mu: -0.082288731  nElectrons: 9.000000  magneticMoment: [ Abs: 0.82000  Tot: +0.82000 ]
LCAOMinimize: Iter:   1  F: -24.4327667197296350  |grad|_K:  1.024e-08  alpha:  9.914e-01  linmin: -1.917e-03  cgtest:  5.121e-02  t[s]:     15.46
LCAOMinimize: Encountered beta<0, resetting CG.
	FillingsUpdate:  mu: -0.082288731  nElectrons: 9.000000  magneticMoment: [ Abs: 0.82000  Tot: +0.82000 ]
LCAOMinimize: Iter:   2  F: -24.4327667197296954  |grad|_K:  4.064e-09  alpha:  6.018e-01  linmin: -5.904e-02  cgtest:  1.000e+00  t[s]:     19.53
LCAOMinimize: Encountered beta<0, resetting CG.
LCAOMinimize: Converged (|Delta F|<1.000000e-06 for 2 iters).


---- Citations for features of the code used in this run ----

   Software package:
      R. Sundararaman, K. Letchworth-Weaver, K.A. Schwarz, D. Gunceler, Y. Ozhabes and T.A. Arias, 'JDFTx: software for joint density-functional theory', SoftwareX 6, 278 (2017)

   gga-PBE exchange-correlation functional:
      J.P. Perdew, K. Burke and M. Ernzerhof, Phys. Rev. Lett. 77, 3865 (1996)

   Pseudopotentials:
      M Schlipf and F Gygi, Comput. Phys. Commun. 196, 36 (2015)

   Truncated Coulomb potentials:
      R. Sundararaman and T.A. Arias, Phys. Rev. B 87, 165122 (2013)

This list may not be complete. Please suggest additional citations or
report any other bugs at https://github.com/shankar1729/jdftx/issues

Initialization completed successfully at t[s]:     19.80


-------- Electronic minimization -----------
Will mix electronic density at each iteration.
	FillingsUpdate:  mu: -0.082288731  nElectrons: 9.000000  magneticMoment: [ Abs: 0.82000  Tot: +0.82000 ]
	FillingsUpdate:  mu: -0.082399184  nElectrons: 9.000000  magneticMoment: [ Abs: 0.82000  Tot: +0.82000 ]
SCF: Cycle:  0   F: -24.432887082916576   dF: -1.204e-04   |Residual|: 1.884e-03   |deigs|: 1.678e-01  t[s]:     28.18
	FillingsUpdate:  mu: -0.082379891  nElectrons: 9.000000  magneticMoment: [ Abs: 0.82462  Tot: +0.82000 ]
SCF: Cycle:  1   F: -24.432889628776291   dF: -2.546e-06   |Residual|: 4.544e-04   |deigs|: 1.094e-02  t[s]:     34.77
	FillingsUpdate:  mu: -0.082336715  nElectrons: 9.000000  magneticMoment: [ Abs: 0.82456  Tot: +0.82000 ]
SCF: Cycle:  2   F: -24.432890246074802   dF: -6.173e-07   |Residual|: 2.829e-04   |deigs|: 1.664e-03  t[s]:     41.44
	FillingsUpdate:  mu: -0.082298418  nElectrons: 9.000000  magneticMoment: [ Abs: 0.82521  Tot: +0.82000 ]
SCF: Cycle:  3   F: -24.432890583064122   dF: -3.370e-07   |Residual|: 2.182e-04   |deigs|: 9.609e-04  t[s]:     48.17
	FillingsUpdate:  mu: -0.082200520  nElectrons: 9.000000  magneticMoment: [ Abs: 0.82517  Tot: +0.82000 ]
SCF: Cycle:  4   F: -24.432890831098739   dF: -2.480e-07   |Residual|: 1.487e-04   |deigs|: 6.992e-04  t[s]:     55.10
	FillingsUpdate:  mu: -0.082067280  nElectrons: 9.000000  magneticMoment: [ Abs: 0.82514  Tot: +0.82000 ]
SCF: Cycle:  5   F: -24.432890923955988   dF: -9.286e-08   |Residual|: 9.699e-05   |deigs|: 5.342e-04  t[s]:     62.08
	FillingsUpdate:  mu: -0.082019800  nElectrons: 9.000000  magneticMoment: [ Abs: 0.82505  Tot: +0.82000 ]
SCF: Cycle:  6   F: -24.432891021292392   dF: -9.734e-08   |Residual|: 7.682e-05   |deigs|: 2.395e-04  t[s]:     69.30
	FillingsUpdate:  mu: -0.082002502  nElectrons: 9.000000  magneticMoment: [ Abs: 0.82510  Tot: +0.82000 ]
SCF: Cycle:  7   F: -24.432891089317611   dF: -6.803e-08   |Residual|: 5.868e-05   |deigs|: 2.071e-04  t[s]:     76.55
	FillingsUpdate:  mu: -0.081977487  nElectrons: 9.000000  magneticMoment: [ Abs: 0.82509  Tot: +0.82000 ]
SCF: Cycle:  8   F: -24.432891136944640   dF: -4.763e-08   |Residual|: 4.959e-05   |deigs|: 1.595e-04  t[s]:     83.92
	FillingsUpdate:  mu: -0.081953223  nElectrons: 9.000000  magneticMoment: [ Abs: 0.82508  Tot: +0.82000 ]
SCF: Cycle:  9   F: -24.432891097637079   dF: +3.931e-08   |Residual|: 4.310e-05   |deigs|: 1.384e-04  t[s]:     91.39
	FillingsUpdate:  mu: -0.081925807  nElectrons: 9.000000  magneticMoment: [ Abs: 0.82512  Tot: +0.82000 ]
SCF: Cycle: 10   F: -24.432891029271861   dF: +6.837e-08   |Residual|: 3.683e-05   |deigs|: 1.300e-04  t[s]:     98.97
	FillingsUpdate:  mu: -0.081889155  nElectrons: 9.000000  magneticMoment: [ Abs: 0.82521  Tot: +0.82000 ]
SCF: Cycle: 11   F: -24.432890992237628   dF: +3.703e-08   |Residual|: 3.165e-05   |deigs|: 1.125e-04  t[s]:    106.56
	FillingsUpdate:  mu: -0.081865653  nElectrons: 9.000000  magneticMoment: [ Abs: 0.82534  Tot: +0.82000 ]
SCF: Cycle: 12   F: -24.432890595289976   dF: +3.969e-07   |Residual|: 2.934e-05   |deigs|: 9.026e-05  t[s]:    114.16
	FillingsUpdate:  mu: -0.081868812  nElectrons: 9.000000  magneticMoment: [ Abs: 0.82526  Tot: +0.82000 ]
SCF: Cycle: 13   F: -24.432890908857448   dF: -3.136e-07   |Residual|: 2.783e-05   |deigs|: 3.945e-05  t[s]:    121.68
	FillingsUpdate:  mu: -0.081820412  nElectrons: 9.000000  magneticMoment: [ Abs: 0.82527  Tot: +0.82000 ]
SCF: Cycle: 14   F: -24.432891144276351   dF: -2.354e-07   |Residual|: 2.354e-05   |deigs|: 5.544e-05  t[s]:    128.99
	FillingsUpdate:  mu: -0.081788128  nElectrons: 9.000000  magneticMoment: [ Abs: 0.82524  Tot: +0.82000 ]
SCF: Cycle: 15   F: -24.432890928604355   dF: +2.157e-07   |Residual|: 2.336e-05   |deigs|: 4.495e-05  t[s]:    136.44
	FillingsUpdate:  mu: -0.081751256  nElectrons: 9.000000  magneticMoment: [ Abs: 0.82513  Tot: +0.82000 ]
SCF: Cycle: 16   F: -24.432891028363787   dF: -9.976e-08   |Residual|: 2.110e-05   |deigs|: 4.680e-05  t[s]:    143.93
	FillingsUpdate:  mu: -0.081737589  nElectrons: 9.000000  magneticMoment: [ Abs: 0.82515  Tot: +0.82000 ]
SCF: Cycle: 17   F: -24.432891020669192   dF: +7.695e-09   |Residual|: 1.305e-05   |deigs|: 3.327e-05  t[s]:    151.43
	FillingsUpdate:  mu: -0.081729011  nElectrons: 9.000000  magneticMoment: [ Abs: 0.82512  Tot: +0.82000 ]
SCF: Cycle: 18   F: -24.432891144906517   dF: -1.242e-07   |Residual|: 9.349e-06   |deigs|: 3.308e-05  t[s]:    159.08
	FillingsUpdate:  mu: -0.081720096  nElectrons: 9.000000  magneticMoment: [ Abs: 0.82510  Tot: +0.82000 ]
SCF: Cycle: 19   F: -24.432891230102832   dF: -8.520e-08   |Residual|: 6.118e-06   |deigs|: 3.568e-05  t[s]:    165.99
	FillingsUpdate:  mu: -0.081713701  nElectrons: 9.000000  magneticMoment: [ Abs: 0.82510  Tot: +0.82000 ]
SCF: Cycle: 20   F: -24.432891232540836   dF: -2.438e-09   |Residual|: 4.528e-06   |deigs|: 3.734e-05  t[s]:    172.89
	FillingsUpdate:  mu: -0.081713234  nElectrons: 9.000000  magneticMoment: [ Abs: 0.82509  Tot: +0.82000 ]
SCF: Cycle: 21   F: -24.432891243313708   dF: -1.077e-08   |Residual|: 3.615e-06   |deigs|: 3.686e-05  t[s]:    180.53
	FillingsUpdate:  mu: -0.081713613  nElectrons: 9.000000  magneticMoment: [ Abs: 0.82508  Tot: +0.82000 ]
SCF: Cycle: 22   F: -24.432891244339043   dF: -1.025e-09   |Residual|: 2.380e-06   |deigs|: 3.519e-05  t[s]:    187.90
	FillingsUpdate:  mu: -0.081712528  nElectrons: 9.000000  magneticMoment: [ Abs: 0.82509  Tot: +0.82000 ]
SCF: Cycle: 23   F: -24.432891249771735   dF: -5.433e-09   |Residual|: 1.772e-06   |deigs|: 3.187e-05  t[s]:    195.27
SCF: Converged (|Delta E|<1.000000e-08 for 2 iters).


# Ionic positions in lattice coordinates:
ion Rb   0.000000000000000   0.000000000000000   0.000000000000000 0

# Forces in Lattice coordinates:
force Rb   0.000000000000000  -0.000000000000000   0.000000000000000 0

# Energy components:
   Eewald =       -9.0240130501663280
       EH =       10.5469422615900434
     Eloc =      -28.4729632334189375
      Enl =       -0.7922144539021199
   Epulay =        0.0000000056959385
      Exc =       -3.6535165826756462
       KE =        6.9628740654253303
-------------------------------------
     Etot =      -24.4328909874517208
       TS =        0.0000002623200129
-------------------------------------
        F =      -24.4328912497717354

IonicMinimize: Iter:   0  F: -24.432891249771735  |grad|_K:  0.000e+00  t[s]:    195.70
IonicMinimize: Converged (|grad|_K<1.000000e-04).

#--- Lowdin population analysis ---
# oxidation-state Rb +0.001
# magnetic-moments Rb +0.819

End date and time: Sun Feb  6 13:01:08 2022  (Duration: 0-0:03:15.76)
Done!
