The alkali metal is Rb
scale=2
magnetization=0.12
--------------------------------------------------------------------------
The library attempted to open the following supporting CUDA libraries,
but each of them failed.  CUDA-aware support is disabled.
libcuda.so.1: cannot open shared object file: No such file or directory
libcuda.dylib: cannot open shared object file: No such file or directory
/usr/lib64/libcuda.so.1: cannot open shared object file: No such file or directory
/usr/lib64/libcuda.dylib: cannot open shared object file: No such file or directory
If you are not interested in CUDA-aware support, then run with
--mca opal_warn_on_missing_libcuda 0 to suppress this message.  If you are interested
in CUDA-aware support, then try setting LD_LIBRARY_PATH to the location
of libcuda.so.1 to get passed this issue.
--------------------------------------------------------------------------
--------------------------------------------------------------------------
No OpenFabrics connection schemes reported that they were able to be
used on a specific port.  As such, the openib BTL (OpenFabrics
support) will be disabled for this port.

  Local host:           d-16-13-1
  Local device:         mlx5_1
  Local port:           1
  CPCs attempted:       rdmacm, udcm
--------------------------------------------------------------------------

*************** JDFTx 1.6.0 (git hash 42ebbcc2) ***************

Start date and time: Sun Feb  6 12:47:35 2022
Executable jdftx with command-line: -i Alkali.in
Running on hosts (process indices):  d-16-13-1 (0-18)
Divided in process groups (process indices):  0 (0)  1 (1)  2 (2)  3 (3)  4 (4)  5 (5)  6 (6)  7 (7)  8 (8)  9 (9)  10 (10)  11 (11)  12 (12)  13 (13)  14 (14)  15 (15)  16 (16)  17 (17)  18 (18)
Resource initialization completed at t[s]:      0.00
Run totals: 19 processes, 48 threads, 0 GPUs


Input parsed successfully to the following command list (including defaults):

basis kpoint-dependent
coords-type Lattice
core-overlap-check vector
coulomb-interaction Slab 001
davidson-band-ratio 1.1
dump End None
dump-name $INPUT.$VAR
elec-cutoff 20
elec-eigen-algo Davidson
elec-ex-corr gga-PBE
elec-initial-magnetization 0.120000 yes
elec-smearing Fermi 1e-05
electronic-minimize  \
	dirUpdateScheme      FletcherReeves \
	linminMethod         DirUpdateRecommended \
	nIterations          100 \
	history              15 \
	knormThreshold       0 \
	energyDiffThreshold  1e-08 \
	nEnergyDiff          2 \
	alphaTstart          1 \
	alphaTmin            1e-10 \
	updateTestStepSize   yes \
	alphaTreduceFactor   0.1 \
	alphaTincreaseFactor 3 \
	nAlphaAdjustMax      3 \
	wolfeEnergy          0.0001 \
	wolfeGradient        0.9 \
	fdTest               no
electronic-scf  \
	nIterations	10000 \
	energyDiffThreshold	1e-08 \
	residualThreshold	1e-07 \
	mixFraction	0.5 \
	qMetric	0.8 \
	history	10 \
	nEigSteps	2 \
	eigDiffThreshold	1e-08 \
	mixedVariable	Density \
	qKerker	0.8 \
	qKappa	-1 \
	verbose	no \
	mixFractionMag	1.5
exchange-regularization WignerSeitzTruncated
fluid None
fluid-ex-corr (null) lda-PZ
fluid-gummel-loop 10 1.000000e-05
fluid-minimize  \
	dirUpdateScheme      PolakRibiere \
	linminMethod         DirUpdateRecommended \
	nIterations          100 \
	history              15 \
	knormThreshold       0 \
	energyDiffThreshold  0 \
	nEnergyDiff          2 \
	alphaTstart          1 \
	alphaTmin            1e-10 \
	updateTestStepSize   yes \
	alphaTreduceFactor   0.1 \
	alphaTincreaseFactor 3 \
	nAlphaAdjustMax      3 \
	wolfeEnergy          0.0001 \
	wolfeGradient        0.9 \
	fdTest               no
fluid-solvent H2O 55.338 ScalarEOS \
	epsBulk 78.4 \
	pMol 0.92466 \
	epsInf 1.77 \
	Pvap 1.06736e-10 \
	sigmaBulk 4.62e-05 \
	Rvdw 2.61727 \
	Res 1.42 \
	tauNuc 343133 \
	poleEl 15 7 1
forces-output-coords Positions
ion Rb   0.000000000000000   0.000000000000000   0.000000000000000 0
ion-species SG15/$ID_ONCV_PBE.upf
ion-width 0
ionic-minimize  \
	dirUpdateScheme      L-BFGS \
	linminMethod         DirUpdateRecommended \
	nIterations          0 \
	history              15 \
	knormThreshold       0.0001 \
	energyDiffThreshold  1e-06 \
	nEnergyDiff          2 \
	alphaTstart          1 \
	alphaTmin            1e-10 \
	updateTestStepSize   yes \
	alphaTreduceFactor   0.1 \
	alphaTincreaseFactor 3 \
	nAlphaAdjustMax      3 \
	wolfeEnergy          0.0001 \
	wolfeGradient        0.9 \
	fdTest               no
kpoint   0.000000000000   0.000000000000   0.000000000000  1.00000000000000
kpoint-folding 12 12 1 
latt-move-scale 1 1 1
latt-scale 2 2 1 
lattice  \
	   4.727486978767153   -2.363743489383575    0.000000000000000  \
	  -0.000000000000000    4.094123819672498    0.000000000000000  \
	   0.000000000000000    0.000000000000000   40.000000000000000 
lattice-minimize  \
	dirUpdateScheme      L-BFGS \
	linminMethod         DirUpdateRecommended \
	nIterations          0 \
	history              15 \
	knormThreshold       0 \
	energyDiffThreshold  1e-06 \
	nEnergyDiff          2 \
	alphaTstart          1 \
	alphaTmin            1e-10 \
	updateTestStepSize   yes \
	alphaTreduceFactor   0.1 \
	alphaTincreaseFactor 3 \
	nAlphaAdjustMax      3 \
	wolfeEnergy          0.0001 \
	wolfeGradient        0.9 \
	fdTest               no
lcao-params -1 1e-06 1e-05
pcm-variant GLSSA13
spintype z-spin
subspace-rotation-factor 1 yes
symmetries automatic
symmetry-threshold 0.0001



---------- Setting up symmetries ----------

Found 24 point-group symmetries of the bravais lattice
Found 24 space-group symmetries with basis
Applied RMS atom displacement 0 bohrs to make symmetries exact.

---------- Initializing the Grid ----------
R = 
[      9.45497     -4.72749            0  ]
[            0      8.18825            0  ]
[            0            0           40  ]
unit cell volume = 3096.79
G =
[   0.664538   0.383671         -0  ]
[          0   0.767342         -0  ]
[         -0         -0    0.15708  ]
Minimum fftbox size, Smin = [  40  40  164  ]
Chosen fftbox size, S = [  40  40  168  ]

---------- Exchange Correlation functional ----------
Initalized PBE GGA exchange.
Initalized PBE GGA correlation.

---------- Setting up pseudopotentials ----------
Width of ionic core gaussian charges (only for fluid interactions / plotting) set to 0

Reading pseudopotential file '/home/gridsan/aligho/DFT/build-Nov24/pseudopotentials/SG15/Rb_ONCV_PBE.upf':
  'Rb' pseudopotential, 'PBE' functional
  Generated using ONCVPSP code by D. R. Hamann
  Author: Martin Schlipf and Francois Gygi  Date: 150915.
  9 valence electrons, 3 orbitals, 6 projectors, 2308 radial grid points, with lMax = 2
  Transforming local potential to a uniform radial grid of dG=0.02 with 1489 points.
  Transforming nonlocal projectors to a uniform radial grid of dG=0.02 with 432 points.
    4S    l: 0   occupation:  2.0   eigenvalue: -1.172069
    4P    l: 1   occupation:  6.0   eigenvalue: -0.586674
    5S    l: 0   occupation:  1.0   eigenvalue: -0.082006
  Transforming atomic orbitals to a uniform radial grid of dG=0.02 with 432 points.
  Core radius for overlap checks: 2.60 bohrs.
  Reading pulay file /home/gridsan/aligho/DFT/build-Nov24/pseudopotentials/SG15/Rb_ONCV_PBE.pulay ... using dE_dnG = -1.360715e-05 computed for Ecut = 20.

Initialized 1 species with 1 total atoms.

Folded 1 k-points by 12x12x1 to 144 k-points.

---------- Setting up k-points, bands, fillings ----------
Reduced to 19 k-points under symmetry. 
Computing the number of bands and number of electrons
Calculating initial fillings.
nElectrons:   9.000000   nBands: 6   nStates: 38

----- Setting up reduced wavefunction bases (one per k-point) -----
average nbasis = 13230.521 , ideal nbasis = 13229.709

---------- Setting up coulomb interaction ----------
Initialized slab truncation along lattice direction 001

---------- Setting up 2D ewald sum ----------
Optimum gaussian width for ewald sums = 5.249020 bohr.
Real space sums over 289 unit cells with max indices [  8  8  0  ]
Reciprocal space sums over 81 terms with max indices [  4  4  0  ]

---------- Allocating electronic variables ----------
Initializing wave functions:  linear combination of atomic orbitals
Note: number of bands (6) exceeds available atomic orbitals (5)
Rb pseudo-atom occupations:   s ( 2 1 )  p ( 6 )
	FillingsUpdate:  mu: -0.094168342  nElectrons: 9.000000  magneticMoment: [ Abs: 0.12000  Tot: +0.12000 ]
LCAOMinimize: Iter:   0  F: -24.4503104166771017  |grad|_K:  4.439e-05  alpha:  1.000e+00
	FillingsUpdate:  mu: -0.094154275  nElectrons: 9.000000  magneticMoment: [ Abs: 0.12000  Tot: +0.12000 ]
LCAOMinimize: Iter:   1  F: -24.4503117324323860  |grad|_K:  5.036e-07  alpha:  9.766e-01  linmin: -3.667e-02  cgtest:  4.503e-01  t[s]:      4.64
LCAOMinimize: Encountered beta<0, resetting CG.
[d-16-13-1:24388] 18 more processes have sent help message help-mpi-common-cuda.txt / dlopen failed
[d-16-13-1:24388] Set MCA parameter "orte_base_help_aggregate" to 0 to see all help / error messages
[d-16-13-1:24388] 18 more processes have sent help message help-mpi-btl-openib-cpc-base.txt / no cpcs for port
	FillingsUpdate:  mu: -0.094154380  nElectrons: 9.000000  magneticMoment: [ Abs: 0.12000  Tot: +0.12000 ]
LCAOMinimize: Iter:   2  F: -24.4503117326063979  |grad|_K:  1.073e-09  alpha:  1.003e+00  linmin:  1.817e-01  cgtest: -9.527e-01  t[s]:      5.85
LCAOMinimize: 	Wrong curvature in test step, increasing alphaT to 3.009402e+00.
	FillingsUpdate:  mu: -0.094154380  nElectrons: 9.000000  magneticMoment: [ Abs: 0.12000  Tot: +0.12000 ]
LCAOMinimize: Iter:   3  F: -24.4503117326065755  |grad|_K:  1.024e-09  alpha: -4.043e-04  linmin:  1.751e-04  cgtest:  9.508e-01  t[s]:      7.04
LCAOMinimize: Converged (|Delta F|<1.000000e-06 for 2 iters).


---- Citations for features of the code used in this run ----

   Software package:
      R. Sundararaman, K. Letchworth-Weaver, K.A. Schwarz, D. Gunceler, Y. Ozhabes and T.A. Arias, 'JDFTx: software for joint density-functional theory', SoftwareX 6, 278 (2017)

   gga-PBE exchange-correlation functional:
      J.P. Perdew, K. Burke and M. Ernzerhof, Phys. Rev. Lett. 77, 3865 (1996)

   Pseudopotentials:
      M Schlipf and F Gygi, Comput. Phys. Commun. 196, 36 (2015)

   Truncated Coulomb potentials:
      R. Sundararaman and T.A. Arias, Phys. Rev. B 87, 165122 (2013)

This list may not be complete. Please suggest additional citations or
report any other bugs at https://github.com/shankar1729/jdftx/issues

Initialization completed successfully at t[s]:      7.13


-------- Electronic minimization -----------
Will mix electronic density at each iteration.
	FillingsUpdate:  mu: -0.094154380  nElectrons: 9.000000  magneticMoment: [ Abs: 0.12000  Tot: +0.12000 ]
	FillingsUpdate:  mu: -0.103089168  nElectrons: 9.000000  magneticMoment: [ Abs: 0.12000  Tot: +0.12000 ]
SCF: Cycle:  0   F: -24.454486653339494   dF: -4.175e-03   |Residual|: 8.629e-03   |deigs|: 1.791e-01  t[s]:      9.63
	FillingsUpdate:  mu: -0.102866590  nElectrons: 9.000000  magneticMoment: [ Abs: 0.12000  Tot: +0.12000 ]
SCF: Cycle:  1   F: -24.454634881161873   dF: -1.482e-04   |Residual|: 6.902e-03   |deigs|: 6.428e-03  t[s]:     11.48
	FillingsUpdate:  mu: -0.100486290  nElectrons: 9.000000  magneticMoment: [ Abs: 0.12348  Tot: +0.12000 ]
SCF: Cycle:  2   F: -24.454728948948460   dF: -9.407e-05   |Residual|: 2.983e-03   |deigs|: 3.043e-03  t[s]:     13.36
	FillingsUpdate:  mu: -0.099623897  nElectrons: 9.000000  magneticMoment: [ Abs: 0.12000  Tot: +0.12000 ]
SCF: Cycle:  3   F: -24.454782003549500   dF: -5.305e-05   |Residual|: 2.047e-03   |deigs|: 3.111e-03  t[s]:     15.23
	FillingsUpdate:  mu: -0.098127548  nElectrons: 9.000000  magneticMoment: [ Abs: 0.12019  Tot: +0.12000 ]
SCF: Cycle:  4   F: -24.454807529304322   dF: -2.553e-05   |Residual|: 1.762e-03   |deigs|: 3.757e-03  t[s]:     17.12
	FillingsUpdate:  mu: -0.096142857  nElectrons: 9.000000  magneticMoment: [ Abs: 0.12192  Tot: +0.12000 ]
SCF: Cycle:  5   F: -24.454820151477492   dF: -1.262e-05   |Residual|: 1.342e-03   |deigs|: 3.264e-03  t[s]:     19.04
	FillingsUpdate:  mu: -0.094144057  nElectrons: 9.000000  magneticMoment: [ Abs: 0.12311  Tot: +0.12000 ]
SCF: Cycle:  6   F: -24.454828583722268   dF: -8.432e-06   |Residual|: 1.011e-03   |deigs|: 2.649e-03  t[s]:     21.05
	FillingsUpdate:  mu: -0.093509767  nElectrons: 9.000000  magneticMoment: [ Abs: 0.12155  Tot: +0.12000 ]
SCF: Cycle:  7   F: -24.454843795812433   dF: -1.521e-05   |Residual|: 8.440e-04   |deigs|: 6.867e-04  t[s]:     23.02
	FillingsUpdate:  mu: -0.092547708  nElectrons: 9.000000  magneticMoment: [ Abs: 0.12101  Tot: +0.12000 ]
SCF: Cycle:  8   F: -24.454852051193463   dF: -8.255e-06   |Residual|: 7.004e-04   |deigs|: 8.320e-04  t[s]:     25.08
	FillingsUpdate:  mu: -0.091096155  nElectrons: 9.000000  magneticMoment: [ Abs: 0.12161  Tot: +0.12000 ]
SCF: Cycle:  9   F: -24.454843455099745   dF: +8.596e-06   |Residual|: 6.016e-04   |deigs|: 1.582e-03  t[s]:     27.23
	FillingsUpdate:  mu: -0.089588526  nElectrons: 9.000000  magneticMoment: [ Abs: 0.12165  Tot: +0.12000 ]
SCF: Cycle: 10   F: -24.454845380411218   dF: -1.925e-06   |Residual|: 5.701e-04   |deigs|: 1.714e-03  t[s]:     29.28
	FillingsUpdate:  mu: -0.089003140  nElectrons: 9.000000  magneticMoment: [ Abs: 0.12060  Tot: +0.12000 ]
SCF: Cycle: 11   F: -24.454857381682107   dF: -1.200e-05   |Residual|: 4.957e-04   |deigs|: 5.182e-04  t[s]:     31.38
	FillingsUpdate:  mu: -0.087792722  nElectrons: 9.000000  magneticMoment: [ Abs: 0.12177  Tot: +0.12000 ]
SCF: Cycle: 12   F: -24.454865800384233   dF: -8.419e-06   |Residual|: 4.762e-04   |deigs|: 1.146e-03  t[s]:     33.44
	FillingsUpdate:  mu: -0.086309797  nElectrons: 9.000000  magneticMoment: [ Abs: 0.12133  Tot: +0.12000 ]
SCF: Cycle: 13   F: -24.454869698018236   dF: -3.898e-06   |Residual|: 4.130e-04   |deigs|: 1.600e-03  t[s]:     35.44
	FillingsUpdate:  mu: -0.085603763  nElectrons: 9.000000  magneticMoment: [ Abs: 0.12053  Tot: +0.12000 ]
SCF: Cycle: 14   F: -24.454872881642451   dF: -3.184e-06   |Residual|: 3.427e-04   |deigs|: 7.493e-04  t[s]:     37.47
	FillingsUpdate:  mu: -0.085005677  nElectrons: 9.000000  magneticMoment: [ Abs: 0.12035  Tot: +0.12000 ]
SCF: Cycle: 15   F: -24.454875166959678   dF: -2.285e-06   |Residual|: 2.439e-04   |deigs|: 6.439e-04  t[s]:     39.52
	FillingsUpdate:  mu: -0.084568434  nElectrons: 9.000000  magneticMoment: [ Abs: 0.12027  Tot: +0.12000 ]
SCF: Cycle: 16   F: -24.454875884901821   dF: -7.179e-07   |Residual|: 1.622e-04   |deigs|: 1.091e-03  t[s]:     41.64
	FillingsUpdate:  mu: -0.084469753  nElectrons: 9.000000  magneticMoment: [ Abs: 0.12006  Tot: +0.12000 ]
SCF: Cycle: 17   F: -24.454876230038884   dF: -3.451e-07   |Residual|: 8.484e-05   |deigs|: 5.297e-04  t[s]:     43.67
	FillingsUpdate:  mu: -0.084464908  nElectrons: 9.000000  magneticMoment: [ Abs: 0.12010  Tot: +0.12000 ]
SCF: Cycle: 18   F: -24.454876306168632   dF: -7.613e-08   |Residual|: 4.835e-05   |deigs|: 5.224e-04  t[s]:     45.74
	FillingsUpdate:  mu: -0.084478607  nElectrons: 9.000000  magneticMoment: [ Abs: 0.12008  Tot: +0.12000 ]
SCF: Cycle: 19   F: -24.454876339432989   dF: -3.326e-08   |Residual|: 2.740e-05   |deigs|: 1.689e-04  t[s]:     47.84
	FillingsUpdate:  mu: -0.084490093  nElectrons: 9.000000  magneticMoment: [ Abs: 0.12005  Tot: +0.12000 ]
SCF: Cycle: 20   F: -24.454876352784311   dF: -1.335e-08   |Residual|: 1.566e-05   |deigs|: 1.008e-04  t[s]:     49.90
	FillingsUpdate:  mu: -0.084473175  nElectrons: 9.000000  magneticMoment: [ Abs: 0.12006  Tot: +0.12000 ]
SCF: Cycle: 21   F: -24.454876360368239   dF: -7.584e-09   |Residual|: 7.310e-06   |deigs|: 6.706e-05  t[s]:     51.97
	FillingsUpdate:  mu: -0.084470131  nElectrons: 9.000000  magneticMoment: [ Abs: 0.12006  Tot: +0.12000 ]
SCF: Cycle: 22   F: -24.454876363701331   dF: -3.333e-09   |Residual|: 3.629e-06   |deigs|: 5.029e-05  t[s]:     54.02
SCF: Converged (|Delta E|<1.000000e-08 for 2 iters).


# Ionic positions in lattice coordinates:
ion Rb   0.000000000000000   0.000000000000000   0.000000000000000 0

# Forces in Lattice coordinates:
force Rb   0.000000000000000   0.000000000000000   0.000000000000000 0

# Energy components:
   Eewald =      -18.0480261003326561
       EH =        1.6449543892401386
     Eloc =      -10.5565217667605022
      Enl =       -0.7956769260483298
   Epulay =        0.0000000035676145
      Exc =       -3.6757936152581783
       KE =        6.9761886111060569
-------------------------------------
     Etot =      -24.4548754044858576
       TS =        0.0000009592154742
-------------------------------------
        F =      -24.4548763637013309

IonicMinimize: Iter:   0  F: -24.454876363701331  |grad|_K:  0.000e+00  t[s]:     54.14
IonicMinimize: Converged (|grad|_K<1.000000e-04).

#--- Lowdin population analysis ---
# oxidation-state Rb +0.033
# magnetic-moments Rb +0.109

End date and time: Sun Feb  6 12:48:29 2022  (Duration: 0-0:00:54.17)
Done!
scale=3
magnetization=0.12
--------------------------------------------------------------------------
The library attempted to open the following supporting CUDA libraries,
but each of them failed.  CUDA-aware support is disabled.
libcuda.so.1: cannot open shared object file: No such file or directory
libcuda.dylib: cannot open shared object file: No such file or directory
/usr/lib64/libcuda.so.1: cannot open shared object file: No such file or directory
/usr/lib64/libcuda.dylib: cannot open shared object file: No such file or directory
If you are not interested in CUDA-aware support, then run with
--mca opal_warn_on_missing_libcuda 0 to suppress this message.  If you are interested
in CUDA-aware support, then try setting LD_LIBRARY_PATH to the location
of libcuda.so.1 to get passed this issue.
--------------------------------------------------------------------------
--------------------------------------------------------------------------
No OpenFabrics connection schemes reported that they were able to be
used on a specific port.  As such, the openib BTL (OpenFabrics
support) will be disabled for this port.

  Local host:           d-16-13-1
  Local device:         mlx5_1
  Local port:           1
  CPCs attempted:       rdmacm, udcm
--------------------------------------------------------------------------

*************** JDFTx 1.6.0 (git hash 42ebbcc2) ***************

Start date and time: Sun Feb  6 12:48:30 2022
Executable jdftx with command-line: -i Alkali.in
Running on hosts (process indices):  d-16-13-1 (0-18)
Divided in process groups (process indices):  0 (0)  1 (1)  2 (2)  3 (3)  4 (4)  5 (5)  6 (6)  7 (7)  8 (8)  9 (9)  10 (10)  11 (11)  12 (12)  13 (13)  14 (14)  15 (15)  16 (16)  17 (17)  18 (18)
Resource initialization completed at t[s]:      0.00
Run totals: 19 processes, 48 threads, 0 GPUs


Input parsed successfully to the following command list (including defaults):

basis kpoint-dependent
coords-type Lattice
core-overlap-check vector
coulomb-interaction Slab 001
davidson-band-ratio 1.1
dump End None
dump-name $INPUT.$VAR
elec-cutoff 20
elec-eigen-algo Davidson
elec-ex-corr gga-PBE
elec-initial-magnetization 0.120000 yes
elec-smearing Fermi 1e-05
electronic-minimize  \
	dirUpdateScheme      FletcherReeves \
	linminMethod         DirUpdateRecommended \
	nIterations          100 \
	history              15 \
	knormThreshold       0 \
	energyDiffThreshold  1e-08 \
	nEnergyDiff          2 \
	alphaTstart          1 \
	alphaTmin            1e-10 \
	updateTestStepSize   yes \
	alphaTreduceFactor   0.1 \
	alphaTincreaseFactor 3 \
	nAlphaAdjustMax      3 \
	wolfeEnergy          0.0001 \
	wolfeGradient        0.9 \
	fdTest               no
electronic-scf  \
	nIterations	10000 \
	energyDiffThreshold	1e-08 \
	residualThreshold	1e-07 \
	mixFraction	0.5 \
	qMetric	0.8 \
	history	10 \
	nEigSteps	2 \
	eigDiffThreshold	1e-08 \
	mixedVariable	Density \
	qKerker	0.8 \
	qKappa	-1 \
	verbose	no \
	mixFractionMag	1.5
exchange-regularization WignerSeitzTruncated
fluid None
fluid-ex-corr (null) lda-PZ
fluid-gummel-loop 10 1.000000e-05
fluid-minimize  \
	dirUpdateScheme      PolakRibiere \
	linminMethod         DirUpdateRecommended \
	nIterations          100 \
	history              15 \
	knormThreshold       0 \
	energyDiffThreshold  0 \
	nEnergyDiff          2 \
	alphaTstart          1 \
	alphaTmin            1e-10 \
	updateTestStepSize   yes \
	alphaTreduceFactor   0.1 \
	alphaTincreaseFactor 3 \
	nAlphaAdjustMax      3 \
	wolfeEnergy          0.0001 \
	wolfeGradient        0.9 \
	fdTest               no
fluid-solvent H2O 55.338 ScalarEOS \
	epsBulk 78.4 \
	pMol 0.92466 \
	epsInf 1.77 \
	Pvap 1.06736e-10 \
	sigmaBulk 4.62e-05 \
	Rvdw 2.61727 \
	Res 1.42 \
	tauNuc 343133 \
	poleEl 15 7 1
forces-output-coords Positions
ion Rb   0.000000000000000   0.000000000000000   0.000000000000000 0
ion-species SG15/$ID_ONCV_PBE.upf
ion-width 0
ionic-minimize  \
	dirUpdateScheme      L-BFGS \
	linminMethod         DirUpdateRecommended \
	nIterations          0 \
	history              15 \
	knormThreshold       0.0001 \
	energyDiffThreshold  1e-06 \
	nEnergyDiff          2 \
	alphaTstart          1 \
	alphaTmin            1e-10 \
	updateTestStepSize   yes \
	alphaTreduceFactor   0.1 \
	alphaTincreaseFactor 3 \
	nAlphaAdjustMax      3 \
	wolfeEnergy          0.0001 \
	wolfeGradient        0.9 \
	fdTest               no
kpoint   0.000000000000   0.000000000000   0.000000000000  1.00000000000000
kpoint-folding 12 12 1 
latt-move-scale 1 1 1
latt-scale 3 3 1 
lattice  \
	   4.727486978767153   -2.363743489383575    0.000000000000000  \
	  -0.000000000000000    4.094123819672498    0.000000000000000  \
	   0.000000000000000    0.000000000000000   40.000000000000000 
lattice-minimize  \
	dirUpdateScheme      L-BFGS \
	linminMethod         DirUpdateRecommended \
	nIterations          0 \
	history              15 \
	knormThreshold       0 \
	energyDiffThreshold  1e-06 \
	nEnergyDiff          2 \
	alphaTstart          1 \
	alphaTmin            1e-10 \
	updateTestStepSize   yes \
	alphaTreduceFactor   0.1 \
	alphaTincreaseFactor 3 \
	nAlphaAdjustMax      3 \
	wolfeEnergy          0.0001 \
	wolfeGradient        0.9 \
	fdTest               no
lcao-params -1 1e-06 1e-05
pcm-variant GLSSA13
spintype z-spin
subspace-rotation-factor 1 yes
symmetries automatic
symmetry-threshold 0.0001



---------- Setting up symmetries ----------

Found 24 point-group symmetries of the bravais lattice
Found 24 space-group symmetries with basis
Applied RMS atom displacement 0 bohrs to make symmetries exact.

---------- Initializing the Grid ----------
R = 
[      14.1825     -7.09123            0  ]
[            0      12.2824            0  ]
[            0            0           40  ]
unit cell volume = 6967.77
G =
[   0.443025   0.255781         -0  ]
[          0   0.511561         -0  ]
[         -0         -0    0.15708  ]
Minimum fftbox size, Smin = [  60  60  164  ]
Chosen fftbox size, S = [  60  60  168  ]

---------- Exchange Correlation functional ----------
Initalized PBE GGA exchange.
Initalized PBE GGA correlation.

---------- Setting up pseudopotentials ----------
Width of ionic core gaussian charges (only for fluid interactions / plotting) set to 0

Reading pseudopotential file '/home/gridsan/aligho/DFT/build-Nov24/pseudopotentials/SG15/Rb_ONCV_PBE.upf':
  'Rb' pseudopotential, 'PBE' functional
  Generated using ONCVPSP code by D. R. Hamann
  Author: Martin Schlipf and Francois Gygi  Date: 150915.
  9 valence electrons, 3 orbitals, 6 projectors, 2308 radial grid points, with lMax = 2
  Transforming local potential to a uniform radial grid of dG=0.02 with 1489 points.
  Transforming nonlocal projectors to a uniform radial grid of dG=0.02 with 432 points.
    4S    l: 0   occupation:  2.0   eigenvalue: -1.172069
    4P    l: 1   occupation:  6.0   eigenvalue: -0.586674
    5S    l: 0   occupation:  1.0   eigenvalue: -0.082006
  Transforming atomic orbitals to a uniform radial grid of dG=0.02 with 432 points.
  Core radius for overlap checks: 2.60 bohrs.
  Reading pulay file /home/gridsan/aligho/DFT/build-Nov24/pseudopotentials/SG15/Rb_ONCV_PBE.pulay ... using dE_dnG = -1.360715e-05 computed for Ecut = 20.

Initialized 1 species with 1 total atoms.

Folded 1 k-points by 12x12x1 to 144 k-points.

---------- Setting up k-points, bands, fillings ----------
Reduced to 19 k-points under symmetry. 
Computing the number of bands and number of electrons
Calculating initial fillings.
nElectrons:   9.000000   nBands: 6   nStates: 38

----- Setting up reduced wavefunction bases (one per k-point) -----
average nbasis = 29766.104 , ideal nbasis = 29766.845

---------- Setting up coulomb interaction ----------
Initialized slab truncation along lattice direction 001

---------- Setting up 2D ewald sum ----------
Optimum gaussian width for ewald sums = 7.873530 bohr.
Real space sums over 289 unit cells with max indices [  8  8  0  ]
Reciprocal space sums over 81 terms with max indices [  4  4  0  ]

---------- Allocating electronic variables ----------
Initializing wave functions:  linear combination of atomic orbitals
Note: number of bands (6) exceeds available atomic orbitals (5)
Rb pseudo-atom occupations:   s ( 2 1 )  p ( 6 )
[d-16-13-1:37935] 18 more processes have sent help message help-mpi-common-cuda.txt / dlopen failed
[d-16-13-1:37935] Set MCA parameter "orte_base_help_aggregate" to 0 to see all help / error messages
[d-16-13-1:37935] 18 more processes have sent help message help-mpi-btl-openib-cpc-base.txt / no cpcs for port
	FillingsUpdate:  mu: -0.083327489  nElectrons: 9.000000  magneticMoment: [ Abs: 0.12000  Tot: +0.12000 ]
LCAOMinimize: Iter:   0  F: -24.4368489558308291  |grad|_K:  2.187e-05  alpha:  1.000e+00
	FillingsUpdate:  mu: -0.083322564  nElectrons: 9.000000  magneticMoment: [ Abs: 0.12000  Tot: +0.12000 ]
LCAOMinimize: Iter:   1  F: -24.4368492780468785  |grad|_K:  1.741e-07  alpha:  9.847e-01  linmin: -2.009e-02  cgtest:  5.128e-01  t[s]:      8.83
LCAOMinimize: Encountered beta<0, resetting CG.
	FillingsUpdate:  mu: -0.083322557  nElectrons: 9.000000  magneticMoment: [ Abs: 0.12000  Tot: +0.12000 ]
LCAOMinimize: Iter:   2  F: -24.4368492780675339  |grad|_K:  1.652e-09  alpha:  1.010e+00  linmin:  4.194e-02  cgtest: -9.981e-01  t[s]:     11.21
LCAOMinimize: Converged (|Delta F|<1.000000e-06 for 2 iters).


---- Citations for features of the code used in this run ----

   Software package:
      R. Sundararaman, K. Letchworth-Weaver, K.A. Schwarz, D. Gunceler, Y. Ozhabes and T.A. Arias, 'JDFTx: software for joint density-functional theory', SoftwareX 6, 278 (2017)

   gga-PBE exchange-correlation functional:
      J.P. Perdew, K. Burke and M. Ernzerhof, Phys. Rev. Lett. 77, 3865 (1996)

   Pseudopotentials:
      M Schlipf and F Gygi, Comput. Phys. Commun. 196, 36 (2015)

   Truncated Coulomb potentials:
      R. Sundararaman and T.A. Arias, Phys. Rev. B 87, 165122 (2013)

This list may not be complete. Please suggest additional citations or
report any other bugs at https://github.com/shankar1729/jdftx/issues

Initialization completed successfully at t[s]:     11.37


-------- Electronic minimization -----------
Will mix electronic density at each iteration.
	FillingsUpdate:  mu: -0.083322557  nElectrons: 9.000000  magneticMoment: [ Abs: 0.12000  Tot: +0.12000 ]
	FillingsUpdate:  mu: -0.085760814  nElectrons: 9.000000  magneticMoment: [ Abs: 0.12000  Tot: +0.12000 ]
SCF: Cycle:  0   F: -24.438611990943375   dF: -1.763e-03   |Residual|: 3.742e-03   |deigs|: 1.738e-01  t[s]:     16.16
	FillingsUpdate:  mu: -0.085996853  nElectrons: 9.000000  magneticMoment: [ Abs: 0.12004  Tot: +0.12000 ]
SCF: Cycle:  1   F: -24.438647238169455   dF: -3.525e-05   |Residual|: 3.272e-03   |deigs|: 4.572e-03  t[s]:     19.94
	FillingsUpdate:  mu: -0.086633037  nElectrons: 9.000000  magneticMoment: [ Abs: 0.12211  Tot: +0.12000 ]
SCF: Cycle:  2   F: -24.438681391760102   dF: -3.415e-05   |Residual|: 1.438e-03   |deigs|: 2.907e-03  t[s]:     23.72
	FillingsUpdate:  mu: -0.086688238  nElectrons: 9.000000  magneticMoment: [ Abs: 0.12066  Tot: +0.12000 ]
SCF: Cycle:  3   F: -24.438691496630351   dF: -1.010e-05   |Residual|: 9.058e-04   |deigs|: 2.374e-03  t[s]:     27.59
	FillingsUpdate:  mu: -0.086590391  nElectrons: 9.000000  magneticMoment: [ Abs: 0.12012  Tot: +0.12000 ]
SCF: Cycle:  4   F: -24.438696544677047   dF: -5.048e-06   |Residual|: 5.766e-04   |deigs|: 2.504e-03  t[s]:     31.53
	FillingsUpdate:  mu: -0.086518635  nElectrons: 9.000000  magneticMoment: [ Abs: 0.12037  Tot: +0.12000 ]
SCF: Cycle:  5   F: -24.438698798610634   dF: -2.254e-06   |Residual|: 4.432e-04   |deigs|: 1.066e-03  t[s]:     35.52
	FillingsUpdate:  mu: -0.086290442  nElectrons: 9.000000  magneticMoment: [ Abs: 0.12020  Tot: +0.12000 ]
SCF: Cycle:  6   F: -24.438700079833641   dF: -1.281e-06   |Residual|: 3.385e-04   |deigs|: 1.158e-03  t[s]:     39.57
	FillingsUpdate:  mu: -0.085985096  nElectrons: 9.000000  magneticMoment: [ Abs: 0.12067  Tot: +0.12000 ]
SCF: Cycle:  7   F: -24.438700335917691   dF: -2.561e-07   |Residual|: 2.933e-04   |deigs|: 6.028e-04  t[s]:     43.72
	FillingsUpdate:  mu: -0.085715945  nElectrons: 9.000000  magneticMoment: [ Abs: 0.12096  Tot: +0.12000 ]
SCF: Cycle:  8   F: -24.438700022915654   dF: +3.130e-07   |Residual|: 2.293e-04   |deigs|: 2.710e-04  t[s]:     47.86
	FillingsUpdate:  mu: -0.085481796  nElectrons: 9.000000  magneticMoment: [ Abs: 0.12065  Tot: +0.12000 ]
SCF: Cycle:  9   F: -24.438699833085050   dF: +1.898e-07   |Residual|: 2.071e-04   |deigs|: 5.226e-04  t[s]:     52.08
	FillingsUpdate:  mu: -0.085243530  nElectrons: 9.000000  magneticMoment: [ Abs: 0.12096  Tot: +0.12000 ]
SCF: Cycle: 10   F: -24.438700444698053   dF: -6.116e-07   |Residual|: 1.761e-04   |deigs|: 3.468e-04  t[s]:     56.33
	FillingsUpdate:  mu: -0.084993097  nElectrons: 9.000000  magneticMoment: [ Abs: 0.12092  Tot: +0.12000 ]
SCF: Cycle: 11   F: -24.438700432384586   dF: +1.231e-08   |Residual|: 1.441e-04   |deigs|: 4.611e-04  t[s]:     60.60
	FillingsUpdate:  mu: -0.084749100  nElectrons: 9.000000  magneticMoment: [ Abs: 0.12084  Tot: +0.12000 ]
SCF: Cycle: 12   F: -24.438700212067328   dF: +2.203e-07   |Residual|: 1.337e-04   |deigs|: 2.715e-04  t[s]:     64.90
	FillingsUpdate:  mu: -0.084497945  nElectrons: 9.000000  magneticMoment: [ Abs: 0.12051  Tot: +0.12000 ]
SCF: Cycle: 13   F: -24.438699932542452   dF: +2.795e-07   |Residual|: 1.321e-04   |deigs|: 4.588e-04  t[s]:     69.13
	FillingsUpdate:  mu: -0.084278034  nElectrons: 9.000000  magneticMoment: [ Abs: 0.12055  Tot: +0.12000 ]
SCF: Cycle: 14   F: -24.438700570306363   dF: -6.378e-07   |Residual|: 1.136e-04   |deigs|: 2.409e-04  t[s]:     73.39
	FillingsUpdate:  mu: -0.084100007  nElectrons: 9.000000  magneticMoment: [ Abs: 0.12070  Tot: +0.12000 ]
SCF: Cycle: 15   F: -24.438701543505982   dF: -9.732e-07   |Residual|: 8.602e-05   |deigs|: 2.071e-04  t[s]:     77.66
	FillingsUpdate:  mu: -0.084014613  nElectrons: 9.000000  magneticMoment: [ Abs: 0.12046  Tot: +0.12000 ]
SCF: Cycle: 16   F: -24.438701825255791   dF: -2.817e-07   |Residual|: 6.102e-05   |deigs|: 9.857e-05  t[s]:     81.87
	FillingsUpdate:  mu: -0.083949661  nElectrons: 9.000000  magneticMoment: [ Abs: 0.12039  Tot: +0.12000 ]
SCF: Cycle: 17   F: -24.438701943026143   dF: -1.178e-07   |Residual|: 3.524e-05   |deigs|: 9.650e-05  t[s]:     86.11
	FillingsUpdate:  mu: -0.083947159  nElectrons: 9.000000  magneticMoment: [ Abs: 0.12039  Tot: +0.12000 ]
SCF: Cycle: 18   F: -24.438701992615041   dF: -4.959e-08   |Residual|: 2.315e-05   |deigs|: 1.751e-04  t[s]:     90.37
	FillingsUpdate:  mu: -0.083955464  nElectrons: 9.000000  magneticMoment: [ Abs: 0.12037  Tot: +0.12000 ]
SCF: Cycle: 19   F: -24.438702015376354   dF: -2.276e-08   |Residual|: 1.479e-05   |deigs|: 1.136e-04  t[s]:     94.61
	FillingsUpdate:  mu: -0.083965328  nElectrons: 9.000000  magneticMoment: [ Abs: 0.12038  Tot: +0.12000 ]
SCF: Cycle: 20   F: -24.438702028671454   dF: -1.330e-08   |Residual|: 7.751e-06   |deigs|: 4.280e-05  t[s]:     98.85
	FillingsUpdate:  mu: -0.083965296  nElectrons: 9.000000  magneticMoment: [ Abs: 0.12038  Tot: +0.12000 ]
SCF: Cycle: 21   F: -24.438702032185876   dF: -3.514e-09   |Residual|: 5.847e-06   |deigs|: 2.136e-05  t[s]:    102.98
	FillingsUpdate:  mu: -0.083966764  nElectrons: 9.000000  magneticMoment: [ Abs: 0.12037  Tot: +0.12000 ]
SCF: Cycle: 22   F: -24.438702034191468   dF: -2.006e-09   |Residual|: 3.550e-06   |deigs|: 1.368e-05  t[s]:    107.19
SCF: Converged (|Delta E|<1.000000e-08 for 2 iters).


# Ionic positions in lattice coordinates:
ion Rb   0.000000000000000   0.000000000000000   0.000000000000000 0

# Forces in Lattice coordinates:
force Rb   0.000000000000000   0.000000000000000   0.000000000000000 0

# Energy components:
   Eewald =      -12.0320174002217755
       EH =        7.4858177431883988
     Eloc =      -22.3955838345797531
      Enl =       -0.7979287030205551
   Epulay =       -0.0000000014467880
      Exc =       -3.6465738878523086
       KE =        6.9475850089567874
-------------------------------------
     Etot =      -24.4387010749759952
       TS =        0.0000009592154742
-------------------------------------
        F =      -24.4387020341914685

IonicMinimize: Iter:   0  F: -24.438702034191468  |grad|_K:  0.000e+00  t[s]:    107.45
IonicMinimize: Converged (|grad|_K<1.000000e-04).

#--- Lowdin population analysis ---
# oxidation-state Rb +0.030
# magnetic-moments Rb +0.112

End date and time: Sun Feb  6 12:50:18 2022  (Duration: 0-0:01:47.50)
Done!
scale=4
magnetization=0.12
--------------------------------------------------------------------------
The library attempted to open the following supporting CUDA libraries,
but each of them failed.  CUDA-aware support is disabled.
libcuda.so.1: cannot open shared object file: No such file or directory
libcuda.dylib: cannot open shared object file: No such file or directory
/usr/lib64/libcuda.so.1: cannot open shared object file: No such file or directory
/usr/lib64/libcuda.dylib: cannot open shared object file: No such file or directory
If you are not interested in CUDA-aware support, then run with
--mca opal_warn_on_missing_libcuda 0 to suppress this message.  If you are interested
in CUDA-aware support, then try setting LD_LIBRARY_PATH to the location
of libcuda.so.1 to get passed this issue.
--------------------------------------------------------------------------
--------------------------------------------------------------------------
No OpenFabrics connection schemes reported that they were able to be
used on a specific port.  As such, the openib BTL (OpenFabrics
support) will be disabled for this port.

  Local host:           d-16-13-1
  Local device:         mlx5_1
  Local port:           1
  CPCs attempted:       rdmacm, udcm
--------------------------------------------------------------------------

*************** JDFTx 1.6.0 (git hash 42ebbcc2) ***************

Start date and time: Sun Feb  6 12:50:19 2022
Executable jdftx with command-line: -i Alkali.in
Running on hosts (process indices):  d-16-13-1 (0-18)
Divided in process groups (process indices):  0 (0)  1 (1)  2 (2)  3 (3)  4 (4)  5 (5)  6 (6)  7 (7)  8 (8)  9 (9)  10 (10)  11 (11)  12 (12)  13 (13)  14 (14)  15 (15)  16 (16)  17 (17)  18 (18)
Resource initialization completed at t[s]:      0.00
Run totals: 19 processes, 48 threads, 0 GPUs


Input parsed successfully to the following command list (including defaults):

basis kpoint-dependent
coords-type Lattice
core-overlap-check vector
coulomb-interaction Slab 001
davidson-band-ratio 1.1
dump End None
dump-name $INPUT.$VAR
elec-cutoff 20
elec-eigen-algo Davidson
elec-ex-corr gga-PBE
elec-initial-magnetization 0.120000 yes
elec-smearing Fermi 1e-05
electronic-minimize  \
	dirUpdateScheme      FletcherReeves \
	linminMethod         DirUpdateRecommended \
	nIterations          100 \
	history              15 \
	knormThreshold       0 \
	energyDiffThreshold  1e-08 \
	nEnergyDiff          2 \
	alphaTstart          1 \
	alphaTmin            1e-10 \
	updateTestStepSize   yes \
	alphaTreduceFactor   0.1 \
	alphaTincreaseFactor 3 \
	nAlphaAdjustMax      3 \
	wolfeEnergy          0.0001 \
	wolfeGradient        0.9 \
	fdTest               no
electronic-scf  \
	nIterations	10000 \
	energyDiffThreshold	1e-08 \
	residualThreshold	1e-07 \
	mixFraction	0.5 \
	qMetric	0.8 \
	history	10 \
	nEigSteps	2 \
	eigDiffThreshold	1e-08 \
	mixedVariable	Density \
	qKerker	0.8 \
	qKappa	-1 \
	verbose	no \
	mixFractionMag	1.5
exchange-regularization WignerSeitzTruncated
fluid None
fluid-ex-corr (null) lda-PZ
fluid-gummel-loop 10 1.000000e-05
fluid-minimize  \
	dirUpdateScheme      PolakRibiere \
	linminMethod         DirUpdateRecommended \
	nIterations          100 \
	history              15 \
	knormThreshold       0 \
	energyDiffThreshold  0 \
	nEnergyDiff          2 \
	alphaTstart          1 \
	alphaTmin            1e-10 \
	updateTestStepSize   yes \
	alphaTreduceFactor   0.1 \
	alphaTincreaseFactor 3 \
	nAlphaAdjustMax      3 \
	wolfeEnergy          0.0001 \
	wolfeGradient        0.9 \
	fdTest               no
fluid-solvent H2O 55.338 ScalarEOS \
	epsBulk 78.4 \
	pMol 0.92466 \
	epsInf 1.77 \
	Pvap 1.06736e-10 \
	sigmaBulk 4.62e-05 \
	Rvdw 2.61727 \
	Res 1.42 \
	tauNuc 343133 \
	poleEl 15 7 1
forces-output-coords Positions
ion Rb   0.000000000000000   0.000000000000000   0.000000000000000 0
ion-species SG15/$ID_ONCV_PBE.upf
ion-width 0
ionic-minimize  \
	dirUpdateScheme      L-BFGS \
	linminMethod         DirUpdateRecommended \
	nIterations          0 \
	history              15 \
	knormThreshold       0.0001 \
	energyDiffThreshold  1e-06 \
	nEnergyDiff          2 \
	alphaTstart          1 \
	alphaTmin            1e-10 \
	updateTestStepSize   yes \
	alphaTreduceFactor   0.1 \
	alphaTincreaseFactor 3 \
	nAlphaAdjustMax      3 \
	wolfeEnergy          0.0001 \
	wolfeGradient        0.9 \
	fdTest               no
kpoint   0.000000000000   0.000000000000   0.000000000000  1.00000000000000
kpoint-folding 12 12 1 
latt-move-scale 1 1 1
latt-scale 4 4 1 
lattice  \
	   4.727486978767153   -2.363743489383575    0.000000000000000  \
	  -0.000000000000000    4.094123819672498    0.000000000000000  \
	   0.000000000000000    0.000000000000000   40.000000000000000 
lattice-minimize  \
	dirUpdateScheme      L-BFGS \
	linminMethod         DirUpdateRecommended \
	nIterations          0 \
	history              15 \
	knormThreshold       0 \
	energyDiffThreshold  1e-06 \
	nEnergyDiff          2 \
	alphaTstart          1 \
	alphaTmin            1e-10 \
	updateTestStepSize   yes \
	alphaTreduceFactor   0.1 \
	alphaTincreaseFactor 3 \
	nAlphaAdjustMax      3 \
	wolfeEnergy          0.0001 \
	wolfeGradient        0.9 \
	fdTest               no
lcao-params -1 1e-06 1e-05
pcm-variant GLSSA13
spintype z-spin
subspace-rotation-factor 1 yes
symmetries automatic
symmetry-threshold 0.0001



---------- Setting up symmetries ----------

Found 24 point-group symmetries of the bravais lattice
Found 24 space-group symmetries with basis
Applied RMS atom displacement 0 bohrs to make symmetries exact.

---------- Initializing the Grid ----------
R = 
[      18.9099     -9.45497            0  ]
[            0      16.3765            0  ]
[            0            0           40  ]
unit cell volume = 12387.1
G =
[   0.332269   0.191835         -0  ]
[          0   0.383671         -0  ]
[         -0         -0    0.15708  ]
Minimum fftbox size, Smin = [  80  80  164  ]
Chosen fftbox size, S = [  80  80  168  ]

---------- Exchange Correlation functional ----------
Initalized PBE GGA exchange.
Initalized PBE GGA correlation.

---------- Setting up pseudopotentials ----------
Width of ionic core gaussian charges (only for fluid interactions / plotting) set to 0

Reading pseudopotential file '/home/gridsan/aligho/DFT/build-Nov24/pseudopotentials/SG15/Rb_ONCV_PBE.upf':
  'Rb' pseudopotential, 'PBE' functional
  Generated using ONCVPSP code by D. R. Hamann
  Author: Martin Schlipf and Francois Gygi  Date: 150915.
  9 valence electrons, 3 orbitals, 6 projectors, 2308 radial grid points, with lMax = 2
  Transforming local potential to a uniform radial grid of dG=0.02 with 1489 points.
  Transforming nonlocal projectors to a uniform radial grid of dG=0.02 with 432 points.
    4S    l: 0   occupation:  2.0   eigenvalue: -1.172069
    4P    l: 1   occupation:  6.0   eigenvalue: -0.586674
    5S    l: 0   occupation:  1.0   eigenvalue: -0.082006
  Transforming atomic orbitals to a uniform radial grid of dG=0.02 with 432 points.
  Core radius for overlap checks: 2.60 bohrs.
  Reading pulay file /home/gridsan/aligho/DFT/build-Nov24/pseudopotentials/SG15/Rb_ONCV_PBE.pulay ... using dE_dnG = -1.360715e-05 computed for Ecut = 20.

Initialized 1 species with 1 total atoms.

Folded 1 k-points by 12x12x1 to 144 k-points.

---------- Setting up k-points, bands, fillings ----------
Reduced to 19 k-points under symmetry. 
Computing the number of bands and number of electrons
Calculating initial fillings.
nElectrons:   9.000000   nBands: 6   nStates: 38

----- Setting up reduced wavefunction bases (one per k-point) -----
average nbasis = 52924.021 , ideal nbasis = 52918.836

---------- Setting up coulomb interaction ----------
Initialized slab truncation along lattice direction 001

---------- Setting up 2D ewald sum ----------
Optimum gaussian width for ewald sums = 10.498040 bohr.
Real space sums over 289 unit cells with max indices [  8  8  0  ]
Reciprocal space sums over 81 terms with max indices [  4  4  0  ]

---------- Allocating electronic variables ----------
Initializing wave functions:  linear combination of atomic orbitals
Note: number of bands (6) exceeds available atomic orbitals (5)
Rb pseudo-atom occupations:   s ( 2 1 )  p ( 6 )
[d-16-13-1:70100] 18 more processes have sent help message help-mpi-common-cuda.txt / dlopen failed
[d-16-13-1:70100] Set MCA parameter "orte_base_help_aggregate" to 0 to see all help / error messages
[d-16-13-1:70100] 18 more processes have sent help message help-mpi-btl-openib-cpc-base.txt / no cpcs for port
	FillingsUpdate:  mu: -0.082567202  nElectrons: 9.000000  magneticMoment: [ Abs: 0.12000  Tot: +0.12000 ]
LCAOMinimize: Iter:   0  F: -24.4306046410927351  |grad|_K:  5.317e-06  alpha:  1.000e+00
	FillingsUpdate:  mu: -0.082566058  nElectrons: 9.000000  magneticMoment: [ Abs: 0.12000  Tot: +0.12000 ]
LCAOMinimize: Iter:   1  F: -24.4306046601724134  |grad|_K:  2.631e-08  alpha:  9.869e-01  linmin: -8.896e-03  cgtest:  3.021e-01  t[s]:     15.15
LCAOMinimize: Encountered beta<0, resetting CG.
	FillingsUpdate:  mu: -0.082566057  nElectrons: 9.000000  magneticMoment: [ Abs: 0.12000  Tot: +0.12000 ]
LCAOMinimize: Iter:   2  F: -24.4306046601729001  |grad|_K:  3.246e-09  alpha:  8.769e-01  linmin: -1.893e-02  cgtest:  1.000e+00  t[s]:     19.14
LCAOMinimize: Encountered beta<0, resetting CG.
LCAOMinimize: Converged (|Delta F|<1.000000e-06 for 2 iters).


---- Citations for features of the code used in this run ----

   Software package:
      R. Sundararaman, K. Letchworth-Weaver, K.A. Schwarz, D. Gunceler, Y. Ozhabes and T.A. Arias, 'JDFTx: software for joint density-functional theory', SoftwareX 6, 278 (2017)

   gga-PBE exchange-correlation functional:
      J.P. Perdew, K. Burke and M. Ernzerhof, Phys. Rev. Lett. 77, 3865 (1996)

   Pseudopotentials:
      M Schlipf and F Gygi, Comput. Phys. Commun. 196, 36 (2015)

   Truncated Coulomb potentials:
      R. Sundararaman and T.A. Arias, Phys. Rev. B 87, 165122 (2013)

This list may not be complete. Please suggest additional citations or
report any other bugs at https://github.com/shankar1729/jdftx/issues

Initialization completed successfully at t[s]:     19.41


-------- Electronic minimization -----------
Will mix electronic density at each iteration.
	FillingsUpdate:  mu: -0.082566057  nElectrons: 9.000000  magneticMoment: [ Abs: 0.12000  Tot: +0.12000 ]
	FillingsUpdate:  mu: -0.082671220  nElectrons: 9.000000  magneticMoment: [ Abs: 0.12000  Tot: +0.12000 ]
SCF: Cycle:  0   F: -24.430724019875065   dF: -1.194e-04   |Residual|: 6.965e-04   |deigs|: 1.756e-01  t[s]:     27.56
	FillingsUpdate:  mu: -0.082714131  nElectrons: 9.000000  magneticMoment: [ Abs: 0.12053  Tot: +0.12000 ]
SCF: Cycle:  1   F: -24.430725954947267   dF: -1.935e-06   |Residual|: 5.312e-04   |deigs|: 4.232e-03  t[s]:     33.99
	FillingsUpdate:  mu: -0.082785025  nElectrons: 9.000000  magneticMoment: [ Abs: 0.12057  Tot: +0.12000 ]
SCF: Cycle:  2   F: -24.430726694332222   dF: -7.394e-07   |Residual|: 4.057e-04   |deigs|: 1.084e-03  t[s]:     40.63
	FillingsUpdate:  mu: -0.082906386  nElectrons: 9.000000  magneticMoment: [ Abs: 0.12100  Tot: +0.12000 ]
SCF: Cycle:  3   F: -24.430727516097956   dF: -8.218e-07   |Residual|: 2.702e-04   |deigs|: 1.183e-03  t[s]:     47.23
	FillingsUpdate:  mu: -0.083004096  nElectrons: 9.000000  magneticMoment: [ Abs: 0.12071  Tot: +0.12000 ]
SCF: Cycle:  4   F: -24.430728253036953   dF: -7.369e-07   |Residual|: 1.730e-04   |deigs|: 3.734e-04  t[s]:     54.04
	FillingsUpdate:  mu: -0.083043602  nElectrons: 9.000000  magneticMoment: [ Abs: 0.12092  Tot: +0.12000 ]
SCF: Cycle:  5   F: -24.430728641950402   dF: -3.889e-07   |Residual|: 1.267e-04   |deigs|: 4.241e-04  t[s]:     60.94
	FillingsUpdate:  mu: -0.083044150  nElectrons: 9.000000  magneticMoment: [ Abs: 0.12083  Tot: +0.12000 ]
SCF: Cycle:  6   F: -24.430728930852574   dF: -2.889e-07   |Residual|: 7.678e-05   |deigs|: 8.909e-04  t[s]:     67.96
	FillingsUpdate:  mu: -0.083030857  nElectrons: 9.000000  magneticMoment: [ Abs: 0.12076  Tot: +0.12000 ]
SCF: Cycle:  7   F: -24.430729050330008   dF: -1.195e-07   |Residual|: 5.875e-05   |deigs|: 7.100e-04  t[s]:     75.04
	FillingsUpdate:  mu: -0.083009016  nElectrons: 9.000000  magneticMoment: [ Abs: 0.12074  Tot: +0.12000 ]
SCF: Cycle:  8   F: -24.430729120552087   dF: -7.022e-08   |Residual|: 4.076e-05   |deigs|: 2.698e-04  t[s]:     82.33
	FillingsUpdate:  mu: -0.082987459  nElectrons: 9.000000  magneticMoment: [ Abs: 0.12068  Tot: +0.12000 ]
SCF: Cycle:  9   F: -24.430729139037680   dF: -1.849e-08   |Residual|: 3.296e-05   |deigs|: 5.236e-05  t[s]:     89.62
	FillingsUpdate:  mu: -0.082968346  nElectrons: 9.000000  magneticMoment: [ Abs: 0.12073  Tot: +0.12000 ]
SCF: Cycle: 10   F: -24.430729137959027   dF: +1.079e-09   |Residual|: 2.913e-05   |deigs|: 3.733e-05  t[s]:     97.03
	FillingsUpdate:  mu: -0.082943491  nElectrons: 9.000000  magneticMoment: [ Abs: 0.12079  Tot: +0.12000 ]
SCF: Cycle: 11   F: -24.430729118509483   dF: +1.945e-08   |Residual|: 2.658e-05   |deigs|: 3.004e-05  t[s]:    104.45
	FillingsUpdate:  mu: -0.082916803  nElectrons: 9.000000  magneticMoment: [ Abs: 0.12074  Tot: +0.12000 ]
SCF: Cycle: 12   F: -24.430729095981945   dF: +2.253e-08   |Residual|: 2.399e-05   |deigs|: 4.268e-05  t[s]:    111.82
	FillingsUpdate:  mu: -0.082891623  nElectrons: 9.000000  magneticMoment: [ Abs: 0.12074  Tot: +0.12000 ]
SCF: Cycle: 13   F: -24.430729101820781   dF: -5.839e-09   |Residual|: 2.106e-05   |deigs|: 7.089e-05  t[s]:    119.19
	FillingsUpdate:  mu: -0.082869341  nElectrons: 9.000000  magneticMoment: [ Abs: 0.12074  Tot: +0.12000 ]
SCF: Cycle: 14   F: -24.430729069857588   dF: +3.196e-08   |Residual|: 2.058e-05   |deigs|: 1.025e-04  t[s]:    126.64
	FillingsUpdate:  mu: -0.082846034  nElectrons: 9.000000  magneticMoment: [ Abs: 0.12073  Tot: +0.12000 ]
SCF: Cycle: 15   F: -24.430729096129344   dF: -2.627e-08   |Residual|: 1.774e-05   |deigs|: 1.135e-04  t[s]:    134.05
	FillingsUpdate:  mu: -0.082820189  nElectrons: 9.000000  magneticMoment: [ Abs: 0.12074  Tot: +0.12000 ]
SCF: Cycle: 16   F: -24.430729109723071   dF: -1.359e-08   |Residual|: 1.555e-05   |deigs|: 8.008e-05  t[s]:    141.47
	FillingsUpdate:  mu: -0.082800799  nElectrons: 9.000000  magneticMoment: [ Abs: 0.12070  Tot: +0.12000 ]
SCF: Cycle: 17   F: -24.430729073891801   dF: +3.583e-08   |Residual|: 1.421e-05   |deigs|: 4.690e-05  t[s]:    148.89
	FillingsUpdate:  mu: -0.082794996  nElectrons: 9.000000  magneticMoment: [ Abs: 0.12068  Tot: +0.12000 ]
SCF: Cycle: 18   F: -24.430729140994949   dF: -6.710e-08   |Residual|: 1.140e-05   |deigs|: 2.232e-05  t[s]:    156.05
	FillingsUpdate:  mu: -0.082790715  nElectrons: 9.000000  magneticMoment: [ Abs: 0.12069  Tot: +0.12000 ]
SCF: Cycle: 19   F: -24.430729140227442   dF: +7.675e-10   |Residual|: 8.801e-06   |deigs|: 1.153e-05  t[s]:    162.81
	FillingsUpdate:  mu: -0.082785160  nElectrons: 9.000000  magneticMoment: [ Abs: 0.12069  Tot: +0.12000 ]
SCF: Cycle: 20   F: -24.430729176647944   dF: -3.642e-08   |Residual|: 6.299e-06   |deigs|: 7.690e-06  t[s]:    170.22
	FillingsUpdate:  mu: -0.082783064  nElectrons: 9.000000  magneticMoment: [ Abs: 0.12069  Tot: +0.12000 ]
SCF: Cycle: 21   F: -24.430729185583228   dF: -8.935e-09   |Residual|: 4.764e-06   |deigs|: 4.598e-06  t[s]:    177.01
	FillingsUpdate:  mu: -0.082782175  nElectrons: 9.000000  magneticMoment: [ Abs: 0.12069  Tot: +0.12000 ]
SCF: Cycle: 22   F: -24.430729180820190   dF: +4.763e-09   |Residual|: 3.706e-06   |deigs|: 5.014e-06  t[s]:    183.93
	FillingsUpdate:  mu: -0.082781368  nElectrons: 9.000000  magneticMoment: [ Abs: 0.12068  Tot: +0.12000 ]
SCF: Cycle: 23   F: -24.430729188261445   dF: -7.441e-09   |Residual|: 2.351e-06   |deigs|: 6.843e-06  t[s]:    190.97
	FillingsUpdate:  mu: -0.082781285  nElectrons: 9.000000  magneticMoment: [ Abs: 0.12069  Tot: +0.12000 ]
SCF: Cycle: 24   F: -24.430729190077727   dF: -1.816e-09   |Residual|: 1.677e-06   |deigs|: 9.159e-06  t[s]:    197.71
SCF: Converged (|Delta E|<1.000000e-08 for 2 iters).


# Ionic positions in lattice coordinates:
ion Rb   0.000000000000000   0.000000000000000   0.000000000000000 0

# Forces in Lattice coordinates:
force Rb   0.000000000000000  -0.000000000000000   0.000000000000000 0

# Energy components:
   Eewald =       -9.0240130501663280
       EH =       10.5162491161777609
     Eloc =      -28.4399307409602002
      Enl =       -0.7932423076341684
   Epulay =        0.0000000056959385
      Exc =       -3.6474086919747331
       KE =        6.9576174379994900
-------------------------------------
     Etot =      -24.4307282308622433
       TS =        0.0000009592154826
-------------------------------------
        F =      -24.4307291900777273

IonicMinimize: Iter:   0  F: -24.430729190077727  |grad|_K:  0.000e+00  t[s]:    198.13
IonicMinimize: Converged (|grad|_K<1.000000e-04).

#--- Lowdin population analysis ---
# oxidation-state Rb +0.002
# magnetic-moments Rb +0.120

End date and time: Sun Feb  6 12:53:37 2022  (Duration: 0-0:03:18.20)
Done!
