The alkali metal is Rb
scale=2
magnetization=-0.16
--------------------------------------------------------------------------
The library attempted to open the following supporting CUDA libraries,
but each of them failed.  CUDA-aware support is disabled.
libcuda.so.1: cannot open shared object file: No such file or directory
libcuda.dylib: cannot open shared object file: No such file or directory
/usr/lib64/libcuda.so.1: cannot open shared object file: No such file or directory
/usr/lib64/libcuda.dylib: cannot open shared object file: No such file or directory
If you are not interested in CUDA-aware support, then run with
--mca opal_warn_on_missing_libcuda 0 to suppress this message.  If you are interested
in CUDA-aware support, then try setting LD_LIBRARY_PATH to the location
of libcuda.so.1 to get passed this issue.
--------------------------------------------------------------------------
--------------------------------------------------------------------------
No OpenFabrics connection schemes reported that they were able to be
used on a specific port.  As such, the openib BTL (OpenFabrics
support) will be disabled for this port.

  Local host:           d-4-7-2
  Local device:         mlx5_1
  Local port:           1
  CPCs attempted:       rdmacm, udcm
--------------------------------------------------------------------------

*************** JDFTx 1.6.0 (git hash 42ebbcc2) ***************

Start date and time: Sun Feb  6 12:41:58 2022
Executable jdftx with command-line: -i Alkali.in
Running on hosts (process indices):  d-4-7-2 (0-18)
Divided in process groups (process indices):  0 (0)  1 (1)  2 (2)  3 (3)  4 (4)  5 (5)  6 (6)  7 (7)  8 (8)  9 (9)  10 (10)  11 (11)  12 (12)  13 (13)  14 (14)  15 (15)  16 (16)  17 (17)  18 (18)
Resource initialization completed at t[s]:      0.00
Run totals: 19 processes, 48 threads, 0 GPUs


Input parsed successfully to the following command list (including defaults):

basis kpoint-dependent
coords-type Lattice
core-overlap-check vector
coulomb-interaction Slab 001
davidson-band-ratio 1.1
dump End None
dump-name $INPUT.$VAR
elec-cutoff 20
elec-eigen-algo Davidson
elec-ex-corr gga-PBE
elec-initial-magnetization -0.160000 yes
elec-smearing Fermi 1e-05
electronic-minimize  \
	dirUpdateScheme      FletcherReeves \
	linminMethod         DirUpdateRecommended \
	nIterations          100 \
	history              15 \
	knormThreshold       0 \
	energyDiffThreshold  1e-08 \
	nEnergyDiff          2 \
	alphaTstart          1 \
	alphaTmin            1e-10 \
	updateTestStepSize   yes \
	alphaTreduceFactor   0.1 \
	alphaTincreaseFactor 3 \
	nAlphaAdjustMax      3 \
	wolfeEnergy          0.0001 \
	wolfeGradient        0.9 \
	fdTest               no
electronic-scf  \
	nIterations	10000 \
	energyDiffThreshold	1e-08 \
	residualThreshold	1e-07 \
	mixFraction	0.5 \
	qMetric	0.8 \
	history	10 \
	nEigSteps	2 \
	eigDiffThreshold	1e-08 \
	mixedVariable	Density \
	qKerker	0.8 \
	qKappa	-1 \
	verbose	no \
	mixFractionMag	1.5
exchange-regularization WignerSeitzTruncated
fluid None
fluid-ex-corr (null) lda-PZ
fluid-gummel-loop 10 1.000000e-05
fluid-minimize  \
	dirUpdateScheme      PolakRibiere \
	linminMethod         DirUpdateRecommended \
	nIterations          100 \
	history              15 \
	knormThreshold       0 \
	energyDiffThreshold  0 \
	nEnergyDiff          2 \
	alphaTstart          1 \
	alphaTmin            1e-10 \
	updateTestStepSize   yes \
	alphaTreduceFactor   0.1 \
	alphaTincreaseFactor 3 \
	nAlphaAdjustMax      3 \
	wolfeEnergy          0.0001 \
	wolfeGradient        0.9 \
	fdTest               no
fluid-solvent H2O 55.338 ScalarEOS \
	epsBulk 78.4 \
	pMol 0.92466 \
	epsInf 1.77 \
	Pvap 1.06736e-10 \
	sigmaBulk 4.62e-05 \
	Rvdw 2.61727 \
	Res 1.42 \
	tauNuc 343133 \
	poleEl 15 7 1
forces-output-coords Positions
ion Rb   0.000000000000000   0.000000000000000   0.000000000000000 0
ion-species SG15/$ID_ONCV_PBE.upf
ion-width 0
ionic-minimize  \
	dirUpdateScheme      L-BFGS \
	linminMethod         DirUpdateRecommended \
	nIterations          0 \
	history              15 \
	knormThreshold       0.0001 \
	energyDiffThreshold  1e-06 \
	nEnergyDiff          2 \
	alphaTstart          1 \
	alphaTmin            1e-10 \
	updateTestStepSize   yes \
	alphaTreduceFactor   0.1 \
	alphaTincreaseFactor 3 \
	nAlphaAdjustMax      3 \
	wolfeEnergy          0.0001 \
	wolfeGradient        0.9 \
	fdTest               no
kpoint   0.000000000000   0.000000000000   0.000000000000  1.00000000000000
kpoint-folding 12 12 1 
latt-move-scale 1 1 1
latt-scale 2 2 1 
lattice  \
	   4.727486978767153   -2.363743489383575    0.000000000000000  \
	  -0.000000000000000    4.094123819672498    0.000000000000000  \
	   0.000000000000000    0.000000000000000   40.000000000000000 
lattice-minimize  \
	dirUpdateScheme      L-BFGS \
	linminMethod         DirUpdateRecommended \
	nIterations          0 \
	history              15 \
	knormThreshold       0 \
	energyDiffThreshold  1e-06 \
	nEnergyDiff          2 \
	alphaTstart          1 \
	alphaTmin            1e-10 \
	updateTestStepSize   yes \
	alphaTreduceFactor   0.1 \
	alphaTincreaseFactor 3 \
	nAlphaAdjustMax      3 \
	wolfeEnergy          0.0001 \
	wolfeGradient        0.9 \
	fdTest               no
lcao-params -1 1e-06 1e-05
pcm-variant GLSSA13
spintype z-spin
subspace-rotation-factor 1 yes
symmetries automatic
symmetry-threshold 0.0001



---------- Setting up symmetries ----------

Found 24 point-group symmetries of the bravais lattice
Found 24 space-group symmetries with basis
Applied RMS atom displacement 0 bohrs to make symmetries exact.

---------- Initializing the Grid ----------
R = 
[      9.45497     -4.72749            0  ]
[            0      8.18825            0  ]
[            0            0           40  ]
unit cell volume = 3096.79
G =
[   0.664538   0.383671         -0  ]
[          0   0.767342         -0  ]
[         -0         -0    0.15708  ]
Minimum fftbox size, Smin = [  40  40  164  ]
Chosen fftbox size, S = [  40  40  168  ]

---------- Exchange Correlation functional ----------
Initalized PBE GGA exchange.
Initalized PBE GGA correlation.

---------- Setting up pseudopotentials ----------
Width of ionic core gaussian charges (only for fluid interactions / plotting) set to 0

Reading pseudopotential file '/home/gridsan/aligho/DFT/build-Nov24/pseudopotentials/SG15/Rb_ONCV_PBE.upf':
  'Rb' pseudopotential, 'PBE' functional
  Generated using ONCVPSP code by D. R. Hamann
  Author: Martin Schlipf and Francois Gygi  Date: 150915.
  9 valence electrons, 3 orbitals, 6 projectors, 2308 radial grid points, with lMax = 2
  Transforming local potential to a uniform radial grid of dG=0.02 with 1489 points.
  Transforming nonlocal projectors to a uniform radial grid of dG=0.02 with 432 points.
    4S    l: 0   occupation:  2.0   eigenvalue: -1.172069
    4P    l: 1   occupation:  6.0   eigenvalue: -0.586674
    5S    l: 0   occupation:  1.0   eigenvalue: -0.082006
  Transforming atomic orbitals to a uniform radial grid of dG=0.02 with 432 points.
  Core radius for overlap checks: 2.60 bohrs.
  Reading pulay file /home/gridsan/aligho/DFT/build-Nov24/pseudopotentials/SG15/Rb_ONCV_PBE.pulay ... using dE_dnG = -1.360715e-05 computed for Ecut = 20.

Initialized 1 species with 1 total atoms.

Folded 1 k-points by 12x12x1 to 144 k-points.

---------- Setting up k-points, bands, fillings ----------
Reduced to 19 k-points under symmetry. 
Computing the number of bands and number of electrons
Calculating initial fillings.
nElectrons:   9.000000   nBands: 6   nStates: 38

----- Setting up reduced wavefunction bases (one per k-point) -----
average nbasis = 13230.521 , ideal nbasis = 13229.709

---------- Setting up coulomb interaction ----------
Initialized slab truncation along lattice direction 001

---------- Setting up 2D ewald sum ----------
Optimum gaussian width for ewald sums = 5.249020 bohr.
Real space sums over 289 unit cells with max indices [  8  8  0  ]
Reciprocal space sums over 81 terms with max indices [  4  4  0  ]

---------- Allocating electronic variables ----------
Initializing wave functions:  linear combination of atomic orbitals
Note: number of bands (6) exceeds available atomic orbitals (5)
Rb pseudo-atom occupations:   s ( 2 1 )  p ( 6 )
	FillingsUpdate:  mu: -0.098761931  nElectrons: 9.000000  magneticMoment: [ Abs: 0.16000  Tot: -0.16000 ]
LCAOMinimize: Iter:   0  F: -24.4502183236181629  |grad|_K:  4.331e-05  alpha:  1.000e+00
	FillingsUpdate:  mu: -0.098746446  nElectrons: 9.000000  magneticMoment: [ Abs: 0.16000  Tot: -0.16000 ]
LCAOMinimize: Iter:   1  F: -24.4502195745333708  |grad|_K:  4.529e-07  alpha:  9.755e-01  linmin: -4.100e-02  cgtest:  4.908e-01  t[s]:      4.61
LCAOMinimize: Encountered beta<0, resetting CG.
[d-4-7-2:56004] 18 more processes have sent help message help-mpi-common-cuda.txt / dlopen failed
[d-4-7-2:56004] Set MCA parameter "orte_base_help_aggregate" to 0 to see all help / error messages
[d-4-7-2:56004] 18 more processes have sent help message help-mpi-btl-openib-cpc-base.txt / no cpcs for port
	FillingsUpdate:  mu: -0.098746481  nElectrons: 9.000000  magneticMoment: [ Abs: 0.16000  Tot: -0.16000 ]
LCAOMinimize: Iter:   2  F: -24.4502195746737385  |grad|_K:  1.751e-09  alpha:  9.975e-01  linmin: -1.310e-01  cgtest:  8.287e-01  t[s]:      5.82
LCAOMinimize: Encountered beta<0, resetting CG.
LCAOMinimize: 	Step increased F by 2.486900e-14, reducing alpha to 4.977738e-04.
	FillingsUpdate:  mu: -0.098746481  nElectrons: 9.000000  magneticMoment: [ Abs: 0.16000  Tot: -0.16000 ]
LCAOMinimize: Iter:   3  F: -24.4502195746738487  |grad|_K:  1.750e-09  alpha:  4.978e-04  linmin: -6.297e-02  cgtest:  1.000e+00  t[s]:      7.89
LCAOMinimize: Encountered beta<0, resetting CG.
LCAOMinimize: Converged (|Delta F|<1.000000e-06 for 2 iters).


---- Citations for features of the code used in this run ----

   Software package:
      R. Sundararaman, K. Letchworth-Weaver, K.A. Schwarz, D. Gunceler, Y. Ozhabes and T.A. Arias, 'JDFTx: software for joint density-functional theory', SoftwareX 6, 278 (2017)

   gga-PBE exchange-correlation functional:
      J.P. Perdew, K. Burke and M. Ernzerhof, Phys. Rev. Lett. 77, 3865 (1996)

   Pseudopotentials:
      M Schlipf and F Gygi, Comput. Phys. Commun. 196, 36 (2015)

   Truncated Coulomb potentials:
      R. Sundararaman and T.A. Arias, Phys. Rev. B 87, 165122 (2013)

This list may not be complete. Please suggest additional citations or
report any other bugs at https://github.com/shankar1729/jdftx/issues

Initialization completed successfully at t[s]:      7.99


-------- Electronic minimization -----------
Will mix electronic density at each iteration.
	FillingsUpdate:  mu: -0.098746481  nElectrons: 9.000000  magneticMoment: [ Abs: 0.16000  Tot: -0.16000 ]
	FillingsUpdate:  mu: -0.106635143  nElectrons: 9.000000  magneticMoment: [ Abs: 0.16000  Tot: -0.16000 ]
SCF: Cycle:  0   F: -24.454470687729501   dF: -4.251e-03   |Residual|: 8.747e-03   |deigs|: 1.791e-01  t[s]:     10.44
	FillingsUpdate:  mu: -0.106404600  nElectrons: 9.000000  magneticMoment: [ Abs: 0.16000  Tot: -0.16000 ]
SCF: Cycle:  1   F: -24.454626780860263   dF: -1.561e-04   |Residual|: 6.931e-03   |deigs|: 6.425e-03  t[s]:     12.25
	FillingsUpdate:  mu: -0.104199672  nElectrons: 9.000000  magneticMoment: [ Abs: 0.16354  Tot: -0.16000 ]
SCF: Cycle:  2   F: -24.454718984821316   dF: -9.220e-05   |Residual|: 3.064e-03   |deigs|: 2.725e-03  t[s]:     14.15
	FillingsUpdate:  mu: -0.103244865  nElectrons: 9.000000  magneticMoment: [ Abs: 0.16000  Tot: -0.16000 ]
SCF: Cycle:  3   F: -24.454768621826400   dF: -4.964e-05   |Residual|: 2.104e-03   |deigs|: 3.230e-03  t[s]:     16.02
	FillingsUpdate:  mu: -0.101689516  nElectrons: 9.000000  magneticMoment: [ Abs: 0.16005  Tot: -0.16000 ]
SCF: Cycle:  4   F: -24.454794928186065   dF: -2.631e-05   |Residual|: 1.816e-03   |deigs|: 3.979e-03  t[s]:     18.02
	FillingsUpdate:  mu: -0.099830438  nElectrons: 9.000000  magneticMoment: [ Abs: 0.16213  Tot: -0.16000 ]
SCF: Cycle:  5   F: -24.454807810830459   dF: -1.288e-05   |Residual|: 1.326e-03   |deigs|: 2.695e-03  t[s]:     19.96
	FillingsUpdate:  mu: -0.097782993  nElectrons: 9.000000  magneticMoment: [ Abs: 0.16356  Tot: -0.16000 ]
SCF: Cycle:  6   F: -24.454813046859556   dF: -5.236e-06   |Residual|: 1.009e-03   |deigs|: 2.585e-03  t[s]:     21.97
	FillingsUpdate:  mu: -0.096918893  nElectrons: 9.000000  magneticMoment: [ Abs: 0.16220  Tot: -0.16000 ]
SCF: Cycle:  7   F: -24.454829764305845   dF: -1.672e-05   |Residual|: 8.859e-04   |deigs|: 9.390e-04  t[s]:     24.03
	FillingsUpdate:  mu: -0.096370750  nElectrons: 9.000000  magneticMoment: [ Abs: 0.16100  Tot: -0.16000 ]
SCF: Cycle:  8   F: -24.454837055087228   dF: -7.291e-06   |Residual|: 7.685e-04   |deigs|: 4.348e-04  t[s]:     26.00
	FillingsUpdate:  mu: -0.094891273  nElectrons: 9.000000  magneticMoment: [ Abs: 0.16183  Tot: -0.16000 ]
SCF: Cycle:  9   F: -24.454830938480622   dF: +6.117e-06   |Residual|: 6.295e-04   |deigs|: 1.626e-03  t[s]:     28.02
	FillingsUpdate:  mu: -0.093392904  nElectrons: 9.000000  magneticMoment: [ Abs: 0.16204  Tot: -0.16000 ]
SCF: Cycle: 10   F: -24.454830361018903   dF: +5.775e-07   |Residual|: 5.760e-04   |deigs|: 1.655e-03  t[s]:     30.04
	FillingsUpdate:  mu: -0.092559098  nElectrons: 9.000000  magneticMoment: [ Abs: 0.16128  Tot: -0.16000 ]
SCF: Cycle: 11   F: -24.454841051013837   dF: -1.069e-05   |Residual|: 4.933e-04   |deigs|: 8.697e-04  t[s]:     32.13
	FillingsUpdate:  mu: -0.091374721  nElectrons: 9.000000  magneticMoment: [ Abs: 0.16142  Tot: -0.16000 ]
SCF: Cycle: 12   F: -24.454851270718411   dF: -1.022e-05   |Residual|: 4.870e-04   |deigs|: 1.114e-03  t[s]:     34.19
	FillingsUpdate:  mu: -0.089855320  nElectrons: 9.000000  magneticMoment: [ Abs: 0.16086  Tot: -0.16000 ]
SCF: Cycle: 13   F: -24.454855178209261   dF: -3.907e-06   |Residual|: 4.327e-04   |deigs|: 1.620e-03  t[s]:     36.17
	FillingsUpdate:  mu: -0.088806184  nElectrons: 9.000000  magneticMoment: [ Abs: 0.16043  Tot: -0.16000 ]
SCF: Cycle: 14   F: -24.454858628231829   dF: -3.450e-06   |Residual|: 3.699e-04   |deigs|: 1.111e-03  t[s]:     38.25
	FillingsUpdate:  mu: -0.088376424  nElectrons: 9.000000  magneticMoment: [ Abs: 0.16073  Tot: -0.16000 ]
SCF: Cycle: 15   F: -24.454860973059095   dF: -2.345e-06   |Residual|: 2.433e-04   |deigs|: 4.630e-04  t[s]:     40.30
	FillingsUpdate:  mu: -0.087972559  nElectrons: 9.000000  magneticMoment: [ Abs: 0.16046  Tot: -0.16000 ]
SCF: Cycle: 16   F: -24.454861912203611   dF: -9.391e-07   |Residual|: 1.593e-04   |deigs|: 5.470e-04  t[s]:     42.32
	FillingsUpdate:  mu: -0.087852740  nElectrons: 9.000000  magneticMoment: [ Abs: 0.16016  Tot: -0.16000 ]
SCF: Cycle: 17   F: -24.454862234622492   dF: -3.224e-07   |Residual|: 8.590e-05   |deigs|: 5.278e-04  t[s]:     44.35
	FillingsUpdate:  mu: -0.087906604  nElectrons: 9.000000  magneticMoment: [ Abs: 0.16017  Tot: -0.16000 ]
SCF: Cycle: 18   F: -24.454862315386194   dF: -8.076e-08   |Residual|: 5.126e-05   |deigs|: 5.165e-04  t[s]:     46.39
	FillingsUpdate:  mu: -0.087890162  nElectrons: 9.000000  magneticMoment: [ Abs: 0.16008  Tot: -0.16000 ]
SCF: Cycle: 19   F: -24.454862358988059   dF: -4.360e-08   |Residual|: 2.852e-05   |deigs|: 2.289e-04  t[s]:     48.46
	FillingsUpdate:  mu: -0.087911356  nElectrons: 9.000000  magneticMoment: [ Abs: 0.16005  Tot: -0.16000 ]
SCF: Cycle: 20   F: -24.454862372536226   dF: -1.355e-08   |Residual|: 1.624e-05   |deigs|: 1.736e-04  t[s]:     50.50
	FillingsUpdate:  mu: -0.087894905  nElectrons: 9.000000  magneticMoment: [ Abs: 0.16006  Tot: -0.16000 ]
SCF: Cycle: 21   F: -24.454862382322947   dF: -9.787e-09   |Residual|: 7.559e-06   |deigs|: 1.861e-04  t[s]:     52.56
	FillingsUpdate:  mu: -0.087888907  nElectrons: 9.000000  magneticMoment: [ Abs: 0.16007  Tot: -0.16000 ]
SCF: Cycle: 22   F: -24.454862384354858   dF: -2.032e-09   |Residual|: 4.394e-06   |deigs|: 1.771e-04  t[s]:     54.66
SCF: Converged (|Delta E|<1.000000e-08 for 2 iters).


# Ionic positions in lattice coordinates:
ion Rb   0.000000000000000   0.000000000000000   0.000000000000000 0

# Forces in Lattice coordinates:
force Rb   0.000000000000000  -0.000000000000000   0.000000000000000 0

# Energy components:
   Eewald =      -18.0480261003326561
       EH =        1.6456337888003834
     Eloc =      -10.5571943087254372
      Enl =       -0.7957066824050903
   Epulay =        0.0000000035676145
      Exc =       -3.6759159524007101
       KE =        6.9763473012183557
-------------------------------------
     Etot =      -24.4548619502775395
       TS =        0.0000004340773189
-------------------------------------
        F =      -24.4548623843548576

IonicMinimize: Iter:   0  F: -24.454862384354858  |grad|_K:  0.000e+00  t[s]:     54.78
IonicMinimize: Converged (|grad|_K<1.000000e-04).

#--- Lowdin population analysis ---
# oxidation-state Rb +0.034
# magnetic-moments Rb -0.145

End date and time: Sun Feb  6 12:42:53 2022  (Duration: 0-0:00:54.80)
Done!
scale=3
magnetization=-0.16
--------------------------------------------------------------------------
The library attempted to open the following supporting CUDA libraries,
but each of them failed.  CUDA-aware support is disabled.
libcuda.so.1: cannot open shared object file: No such file or directory
libcuda.dylib: cannot open shared object file: No such file or directory
/usr/lib64/libcuda.so.1: cannot open shared object file: No such file or directory
/usr/lib64/libcuda.dylib: cannot open shared object file: No such file or directory
If you are not interested in CUDA-aware support, then run with
--mca opal_warn_on_missing_libcuda 0 to suppress this message.  If you are interested
in CUDA-aware support, then try setting LD_LIBRARY_PATH to the location
of libcuda.so.1 to get passed this issue.
--------------------------------------------------------------------------
--------------------------------------------------------------------------
No OpenFabrics connection schemes reported that they were able to be
used on a specific port.  As such, the openib BTL (OpenFabrics
support) will be disabled for this port.

  Local host:           d-4-7-2
  Local device:         mlx5_1
  Local port:           1
  CPCs attempted:       rdmacm, udcm
--------------------------------------------------------------------------

*************** JDFTx 1.6.0 (git hash 42ebbcc2) ***************

Start date and time: Sun Feb  6 12:42:54 2022
Executable jdftx with command-line: -i Alkali.in
Running on hosts (process indices):  d-4-7-2 (0-18)
Divided in process groups (process indices):  0 (0)  1 (1)  2 (2)  3 (3)  4 (4)  5 (5)  6 (6)  7 (7)  8 (8)  9 (9)  10 (10)  11 (11)  12 (12)  13 (13)  14 (14)  15 (15)  16 (16)  17 (17)  18 (18)
Resource initialization completed at t[s]:      0.00
Run totals: 19 processes, 48 threads, 0 GPUs


Input parsed successfully to the following command list (including defaults):

basis kpoint-dependent
coords-type Lattice
core-overlap-check vector
coulomb-interaction Slab 001
davidson-band-ratio 1.1
dump End None
dump-name $INPUT.$VAR
elec-cutoff 20
elec-eigen-algo Davidson
elec-ex-corr gga-PBE
elec-initial-magnetization -0.160000 yes
elec-smearing Fermi 1e-05
electronic-minimize  \
	dirUpdateScheme      FletcherReeves \
	linminMethod         DirUpdateRecommended \
	nIterations          100 \
	history              15 \
	knormThreshold       0 \
	energyDiffThreshold  1e-08 \
	nEnergyDiff          2 \
	alphaTstart          1 \
	alphaTmin            1e-10 \
	updateTestStepSize   yes \
	alphaTreduceFactor   0.1 \
	alphaTincreaseFactor 3 \
	nAlphaAdjustMax      3 \
	wolfeEnergy          0.0001 \
	wolfeGradient        0.9 \
	fdTest               no
electronic-scf  \
	nIterations	10000 \
	energyDiffThreshold	1e-08 \
	residualThreshold	1e-07 \
	mixFraction	0.5 \
	qMetric	0.8 \
	history	10 \
	nEigSteps	2 \
	eigDiffThreshold	1e-08 \
	mixedVariable	Density \
	qKerker	0.8 \
	qKappa	-1 \
	verbose	no \
	mixFractionMag	1.5
exchange-regularization WignerSeitzTruncated
fluid None
fluid-ex-corr (null) lda-PZ
fluid-gummel-loop 10 1.000000e-05
fluid-minimize  \
	dirUpdateScheme      PolakRibiere \
	linminMethod         DirUpdateRecommended \
	nIterations          100 \
	history              15 \
	knormThreshold       0 \
	energyDiffThreshold  0 \
	nEnergyDiff          2 \
	alphaTstart          1 \
	alphaTmin            1e-10 \
	updateTestStepSize   yes \
	alphaTreduceFactor   0.1 \
	alphaTincreaseFactor 3 \
	nAlphaAdjustMax      3 \
	wolfeEnergy          0.0001 \
	wolfeGradient        0.9 \
	fdTest               no
fluid-solvent H2O 55.338 ScalarEOS \
	epsBulk 78.4 \
	pMol 0.92466 \
	epsInf 1.77 \
	Pvap 1.06736e-10 \
	sigmaBulk 4.62e-05 \
	Rvdw 2.61727 \
	Res 1.42 \
	tauNuc 343133 \
	poleEl 15 7 1
forces-output-coords Positions
ion Rb   0.000000000000000   0.000000000000000   0.000000000000000 0
ion-species SG15/$ID_ONCV_PBE.upf
ion-width 0
ionic-minimize  \
	dirUpdateScheme      L-BFGS \
	linminMethod         DirUpdateRecommended \
	nIterations          0 \
	history              15 \
	knormThreshold       0.0001 \
	energyDiffThreshold  1e-06 \
	nEnergyDiff          2 \
	alphaTstart          1 \
	alphaTmin            1e-10 \
	updateTestStepSize   yes \
	alphaTreduceFactor   0.1 \
	alphaTincreaseFactor 3 \
	nAlphaAdjustMax      3 \
	wolfeEnergy          0.0001 \
	wolfeGradient        0.9 \
	fdTest               no
kpoint   0.000000000000   0.000000000000   0.000000000000  1.00000000000000
kpoint-folding 12 12 1 
latt-move-scale 1 1 1
latt-scale 3 3 1 
lattice  \
	   4.727486978767153   -2.363743489383575    0.000000000000000  \
	  -0.000000000000000    4.094123819672498    0.000000000000000  \
	   0.000000000000000    0.000000000000000   40.000000000000000 
lattice-minimize  \
	dirUpdateScheme      L-BFGS \
	linminMethod         DirUpdateRecommended \
	nIterations          0 \
	history              15 \
	knormThreshold       0 \
	energyDiffThreshold  1e-06 \
	nEnergyDiff          2 \
	alphaTstart          1 \
	alphaTmin            1e-10 \
	updateTestStepSize   yes \
	alphaTreduceFactor   0.1 \
	alphaTincreaseFactor 3 \
	nAlphaAdjustMax      3 \
	wolfeEnergy          0.0001 \
	wolfeGradient        0.9 \
	fdTest               no
lcao-params -1 1e-06 1e-05
pcm-variant GLSSA13
spintype z-spin
subspace-rotation-factor 1 yes
symmetries automatic
symmetry-threshold 0.0001



---------- Setting up symmetries ----------

Found 24 point-group symmetries of the bravais lattice
Found 24 space-group symmetries with basis
Applied RMS atom displacement 0 bohrs to make symmetries exact.

---------- Initializing the Grid ----------
R = 
[      14.1825     -7.09123            0  ]
[            0      12.2824            0  ]
[            0            0           40  ]
unit cell volume = 6967.77
G =
[   0.443025   0.255781         -0  ]
[          0   0.511561         -0  ]
[         -0         -0    0.15708  ]
Minimum fftbox size, Smin = [  60  60  164  ]
Chosen fftbox size, S = [  60  60  168  ]

---------- Exchange Correlation functional ----------
Initalized PBE GGA exchange.
Initalized PBE GGA correlation.

---------- Setting up pseudopotentials ----------
Width of ionic core gaussian charges (only for fluid interactions / plotting) set to 0

Reading pseudopotential file '/home/gridsan/aligho/DFT/build-Nov24/pseudopotentials/SG15/Rb_ONCV_PBE.upf':
  'Rb' pseudopotential, 'PBE' functional
  Generated using ONCVPSP code by D. R. Hamann
  Author: Martin Schlipf and Francois Gygi  Date: 150915.
  9 valence electrons, 3 orbitals, 6 projectors, 2308 radial grid points, with lMax = 2
  Transforming local potential to a uniform radial grid of dG=0.02 with 1489 points.
  Transforming nonlocal projectors to a uniform radial grid of dG=0.02 with 432 points.
    4S    l: 0   occupation:  2.0   eigenvalue: -1.172069
    4P    l: 1   occupation:  6.0   eigenvalue: -0.586674
    5S    l: 0   occupation:  1.0   eigenvalue: -0.082006
  Transforming atomic orbitals to a uniform radial grid of dG=0.02 with 432 points.
  Core radius for overlap checks: 2.60 bohrs.
  Reading pulay file /home/gridsan/aligho/DFT/build-Nov24/pseudopotentials/SG15/Rb_ONCV_PBE.pulay ... using dE_dnG = -1.360715e-05 computed for Ecut = 20.

Initialized 1 species with 1 total atoms.

Folded 1 k-points by 12x12x1 to 144 k-points.

---------- Setting up k-points, bands, fillings ----------
Reduced to 19 k-points under symmetry. 
Computing the number of bands and number of electrons
Calculating initial fillings.
nElectrons:   9.000000   nBands: 6   nStates: 38

----- Setting up reduced wavefunction bases (one per k-point) -----
average nbasis = 29766.104 , ideal nbasis = 29766.845

---------- Setting up coulomb interaction ----------
Initialized slab truncation along lattice direction 001

---------- Setting up 2D ewald sum ----------
Optimum gaussian width for ewald sums = 7.873530 bohr.
Real space sums over 289 unit cells with max indices [  8  8  0  ]
Reciprocal space sums over 81 terms with max indices [  4  4  0  ]

---------- Allocating electronic variables ----------
Initializing wave functions:  linear combination of atomic orbitals
Note: number of bands (6) exceeds available atomic orbitals (5)
Rb pseudo-atom occupations:   s ( 2 1 )  p ( 6 )
[d-4-7-2:72739] 18 more processes have sent help message help-mpi-common-cuda.txt / dlopen failed
[d-4-7-2:72739] Set MCA parameter "orte_base_help_aggregate" to 0 to see all help / error messages
[d-4-7-2:72739] 18 more processes have sent help message help-mpi-btl-openib-cpc-base.txt / no cpcs for port
	FillingsUpdate:  mu: -0.084733541  nElectrons: 9.000000  magneticMoment: [ Abs: 0.16000  Tot: -0.16000 ]
LCAOMinimize: Iter:   0  F: -24.4368573512276903  |grad|_K:  2.208e-05  alpha:  1.000e+00
	FillingsUpdate:  mu: -0.084728788  nElectrons: 9.000000  magneticMoment: [ Abs: 0.16000  Tot: -0.16000 ]
LCAOMinimize: Iter:   1  F: -24.4368576796682540  |grad|_K:  1.796e-07  alpha:  9.853e-01  linmin: -1.930e-02  cgtest:  4.846e-01  t[s]:      8.80
LCAOMinimize: Encountered beta<0, resetting CG.
	FillingsUpdate:  mu: -0.084728785  nElectrons: 9.000000  magneticMoment: [ Abs: 0.16000  Tot: -0.16000 ]
LCAOMinimize: Iter:   2  F: -24.4368576796901529  |grad|_K:  9.638e-10  alpha:  1.006e+00  linmin:  4.788e-02  cgtest: -9.819e-01  t[s]:     11.17
LCAOMinimize: Converged (|Delta F|<1.000000e-06 for 2 iters).


---- Citations for features of the code used in this run ----

   Software package:
      R. Sundararaman, K. Letchworth-Weaver, K.A. Schwarz, D. Gunceler, Y. Ozhabes and T.A. Arias, 'JDFTx: software for joint density-functional theory', SoftwareX 6, 278 (2017)

   gga-PBE exchange-correlation functional:
      J.P. Perdew, K. Burke and M. Ernzerhof, Phys. Rev. Lett. 77, 3865 (1996)

   Pseudopotentials:
      M Schlipf and F Gygi, Comput. Phys. Commun. 196, 36 (2015)

   Truncated Coulomb potentials:
      R. Sundararaman and T.A. Arias, Phys. Rev. B 87, 165122 (2013)

This list may not be complete. Please suggest additional citations or
report any other bugs at https://github.com/shankar1729/jdftx/issues

Initialization completed successfully at t[s]:     11.34


-------- Electronic minimization -----------
Will mix electronic density at each iteration.
	FillingsUpdate:  mu: -0.084728785  nElectrons: 9.000000  magneticMoment: [ Abs: 0.16000  Tot: -0.16000 ]
	FillingsUpdate:  mu: -0.087025417  nElectrons: 9.000000  magneticMoment: [ Abs: 0.16000  Tot: -0.16000 ]
SCF: Cycle:  0   F: -24.438612426703717   dF: -1.755e-03   |Residual|: 3.767e-03   |deigs|: 1.737e-01  t[s]:     16.06
	FillingsUpdate:  mu: -0.087259024  nElectrons: 9.000000  magneticMoment: [ Abs: 0.16005  Tot: -0.16000 ]
SCF: Cycle:  1   F: -24.438649149355399   dF: -3.672e-05   |Residual|: 3.273e-03   |deigs|: 4.658e-03  t[s]:     19.77
	FillingsUpdate:  mu: -0.087831469  nElectrons: 9.000000  magneticMoment: [ Abs: 0.16215  Tot: -0.16000 ]
SCF: Cycle:  2   F: -24.438682792525857   dF: -3.364e-05   |Residual|: 1.571e-03   |deigs|: 2.448e-03  t[s]:     23.53
	FillingsUpdate:  mu: -0.087955962  nElectrons: 9.000000  magneticMoment: [ Abs: 0.16094  Tot: -0.16000 ]
SCF: Cycle:  3   F: -24.438694246340066   dF: -1.145e-05   |Residual|: 9.621e-04   |deigs|: 2.638e-03  t[s]:     27.37
	FillingsUpdate:  mu: -0.087862821  nElectrons: 9.000000  magneticMoment: [ Abs: 0.16018  Tot: -0.16000 ]
SCF: Cycle:  4   F: -24.438699524418663   dF: -5.278e-06   |Residual|: 5.845e-04   |deigs|: 2.465e-03  t[s]:     31.28
	FillingsUpdate:  mu: -0.087799124  nElectrons: 9.000000  magneticMoment: [ Abs: 0.16050  Tot: -0.16000 ]
SCF: Cycle:  5   F: -24.438702087349238   dF: -2.563e-06   |Residual|: 4.454e-04   |deigs|: 1.267e-03  t[s]:     35.27
	FillingsUpdate:  mu: -0.087579527  nElectrons: 9.000000  magneticMoment: [ Abs: 0.16038  Tot: -0.16000 ]
SCF: Cycle:  6   F: -24.438703412953881   dF: -1.326e-06   |Residual|: 3.397e-04   |deigs|: 8.331e-04  t[s]:     39.28
	FillingsUpdate:  mu: -0.087283021  nElectrons: 9.000000  magneticMoment: [ Abs: 0.16091  Tot: -0.16000 ]
SCF: Cycle:  7   F: -24.438703714555242   dF: -3.016e-07   |Residual|: 2.977e-04   |deigs|: 7.278e-04  t[s]:     43.42
	FillingsUpdate:  mu: -0.087019602  nElectrons: 9.000000  magneticMoment: [ Abs: 0.16129  Tot: -0.16000 ]
SCF: Cycle:  8   F: -24.438703451525988   dF: +2.630e-07   |Residual|: 2.306e-04   |deigs|: 6.850e-04  t[s]:     47.60
	FillingsUpdate:  mu: -0.086776417  nElectrons: 9.000000  magneticMoment: [ Abs: 0.16092  Tot: -0.16000 ]
SCF: Cycle:  9   F: -24.438703126001311   dF: +3.255e-07   |Residual|: 2.080e-04   |deigs|: 3.441e-04  t[s]:     51.91
	FillingsUpdate:  mu: -0.086551485  nElectrons: 9.000000  magneticMoment: [ Abs: 0.16111  Tot: -0.16000 ]
SCF: Cycle: 10   F: -24.438703873018344   dF: -7.470e-07   |Residual|: 1.815e-04   |deigs|: 4.663e-04  t[s]:     56.20
	FillingsUpdate:  mu: -0.086299257  nElectrons: 9.000000  magneticMoment: [ Abs: 0.16116  Tot: -0.16000 ]
SCF: Cycle: 11   F: -24.438703942236870   dF: -6.922e-08   |Residual|: 1.457e-04   |deigs|: 3.836e-04  t[s]:     60.46
	FillingsUpdate:  mu: -0.086072741  nElectrons: 9.000000  magneticMoment: [ Abs: 0.16112  Tot: -0.16000 ]
SCF: Cycle: 12   F: -24.438703831265538   dF: +1.110e-07   |Residual|: 1.349e-04   |deigs|: 4.065e-04  t[s]:     64.73
	FillingsUpdate:  mu: -0.085785493  nElectrons: 9.000000  magneticMoment: [ Abs: 0.16065  Tot: -0.16000 ]
SCF: Cycle: 13   F: -24.438703389476721   dF: +4.418e-07   |Residual|: 1.327e-04   |deigs|: 3.203e-04  t[s]:     69.00
	FillingsUpdate:  mu: -0.085578667  nElectrons: 9.000000  magneticMoment: [ Abs: 0.16075  Tot: -0.16000 ]
SCF: Cycle: 14   F: -24.438703935281506   dF: -5.458e-07   |Residual|: 1.174e-04   |deigs|: 2.430e-04  t[s]:     73.27
	FillingsUpdate:  mu: -0.085411189  nElectrons: 9.000000  magneticMoment: [ Abs: 0.16082  Tot: -0.16000 ]
SCF: Cycle: 15   F: -24.438705010982922   dF: -1.076e-06   |Residual|: 8.776e-05   |deigs|: 2.093e-04  t[s]:     77.53
	FillingsUpdate:  mu: -0.085300028  nElectrons: 9.000000  magneticMoment: [ Abs: 0.16054  Tot: -0.16000 ]
SCF: Cycle: 16   F: -24.438705337359661   dF: -3.264e-07   |Residual|: 6.350e-05   |deigs|: 1.363e-04  t[s]:     81.75
	FillingsUpdate:  mu: -0.085215187  nElectrons: 9.000000  magneticMoment: [ Abs: 0.16052  Tot: -0.16000 ]
SCF: Cycle: 17   F: -24.438705464036151   dF: -1.267e-07   |Residual|: 3.655e-05   |deigs|: 1.152e-04  t[s]:     85.89
	FillingsUpdate:  mu: -0.085219052  nElectrons: 9.000000  magneticMoment: [ Abs: 0.16051  Tot: -0.16000 ]
SCF: Cycle: 18   F: -24.438705511127889   dF: -4.709e-08   |Residual|: 2.472e-05   |deigs|: 1.099e-04  t[s]:     90.16
	FillingsUpdate:  mu: -0.085233147  nElectrons: 9.000000  magneticMoment: [ Abs: 0.16049  Tot: -0.16000 ]
SCF: Cycle: 19   F: -24.438705538948486   dF: -2.782e-08   |Residual|: 1.501e-05   |deigs|: 3.035e-05  t[s]:     94.36
	FillingsUpdate:  mu: -0.085242348  nElectrons: 9.000000  magneticMoment: [ Abs: 0.16050  Tot: -0.16000 ]
SCF: Cycle: 20   F: -24.438705551154484   dF: -1.221e-08   |Residual|: 9.066e-06   |deigs|: 1.658e-05  t[s]:     98.65
	FillingsUpdate:  mu: -0.085242303  nElectrons: 9.000000  magneticMoment: [ Abs: 0.16050  Tot: -0.16000 ]
SCF: Cycle: 21   F: -24.438705555390055   dF: -4.236e-09   |Residual|: 6.431e-06   |deigs|: 8.903e-06  t[s]:    102.82
	FillingsUpdate:  mu: -0.085242941  nElectrons: 9.000000  magneticMoment: [ Abs: 0.16050  Tot: -0.16000 ]
SCF: Cycle: 22   F: -24.438705557894007   dF: -2.504e-09   |Residual|: 4.022e-06   |deigs|: 5.632e-06  t[s]:    107.03
SCF: Converged (|Delta E|<1.000000e-08 for 2 iters).


# Ionic positions in lattice coordinates:
ion Rb   0.000000000000000   0.000000000000000   0.000000000000000 0

# Forces in Lattice coordinates:
force Rb  -0.000000000000000  -0.000000000000000   0.000000000000000 0

# Energy components:
   Eewald =      -12.0320174002217755
       EH =        7.4861825622005442
     Eloc =      -22.3959788704511951
      Enl =       -0.7979158908616504
   Epulay =       -0.0000000014467880
      Exc =       -3.6466415991860135
       KE =        6.9476660761501918
-------------------------------------
     Etot =      -24.4387051238166890
       TS =        0.0000004340773189
-------------------------------------
        F =      -24.4387055578940071

IonicMinimize: Iter:   0  F: -24.438705557894007  |grad|_K:  0.000e+00  t[s]:    107.29
IonicMinimize: Converged (|grad|_K<1.000000e-04).

#--- Lowdin population analysis ---
# oxidation-state Rb +0.030
# magnetic-moments Rb -0.150

End date and time: Sun Feb  6 12:44:41 2022  (Duration: 0-0:01:47.33)
Done!
scale=4
magnetization=-0.16
--------------------------------------------------------------------------
The library attempted to open the following supporting CUDA libraries,
but each of them failed.  CUDA-aware support is disabled.
libcuda.so.1: cannot open shared object file: No such file or directory
libcuda.dylib: cannot open shared object file: No such file or directory
/usr/lib64/libcuda.so.1: cannot open shared object file: No such file or directory
/usr/lib64/libcuda.dylib: cannot open shared object file: No such file or directory
If you are not interested in CUDA-aware support, then run with
--mca opal_warn_on_missing_libcuda 0 to suppress this message.  If you are interested
in CUDA-aware support, then try setting LD_LIBRARY_PATH to the location
of libcuda.so.1 to get passed this issue.
--------------------------------------------------------------------------
--------------------------------------------------------------------------
No OpenFabrics connection schemes reported that they were able to be
used on a specific port.  As such, the openib BTL (OpenFabrics
support) will be disabled for this port.

  Local host:           d-4-7-2
  Local device:         mlx5_1
  Local port:           1
  CPCs attempted:       rdmacm, udcm
--------------------------------------------------------------------------

*************** JDFTx 1.6.0 (git hash 42ebbcc2) ***************

Start date and time: Sun Feb  6 12:44:42 2022
Executable jdftx with command-line: -i Alkali.in
Running on hosts (process indices):  d-4-7-2 (0-18)
Divided in process groups (process indices):  0 (0)  1 (1)  2 (2)  3 (3)  4 (4)  5 (5)  6 (6)  7 (7)  8 (8)  9 (9)  10 (10)  11 (11)  12 (12)  13 (13)  14 (14)  15 (15)  16 (16)  17 (17)  18 (18)
Resource initialization completed at t[s]:      0.00
Run totals: 19 processes, 48 threads, 0 GPUs


Input parsed successfully to the following command list (including defaults):

basis kpoint-dependent
coords-type Lattice
core-overlap-check vector
coulomb-interaction Slab 001
davidson-band-ratio 1.1
dump End None
dump-name $INPUT.$VAR
elec-cutoff 20
elec-eigen-algo Davidson
elec-ex-corr gga-PBE
elec-initial-magnetization -0.160000 yes
elec-smearing Fermi 1e-05
electronic-minimize  \
	dirUpdateScheme      FletcherReeves \
	linminMethod         DirUpdateRecommended \
	nIterations          100 \
	history              15 \
	knormThreshold       0 \
	energyDiffThreshold  1e-08 \
	nEnergyDiff          2 \
	alphaTstart          1 \
	alphaTmin            1e-10 \
	updateTestStepSize   yes \
	alphaTreduceFactor   0.1 \
	alphaTincreaseFactor 3 \
	nAlphaAdjustMax      3 \
	wolfeEnergy          0.0001 \
	wolfeGradient        0.9 \
	fdTest               no
electronic-scf  \
	nIterations	10000 \
	energyDiffThreshold	1e-08 \
	residualThreshold	1e-07 \
	mixFraction	0.5 \
	qMetric	0.8 \
	history	10 \
	nEigSteps	2 \
	eigDiffThreshold	1e-08 \
	mixedVariable	Density \
	qKerker	0.8 \
	qKappa	-1 \
	verbose	no \
	mixFractionMag	1.5
exchange-regularization WignerSeitzTruncated
fluid None
fluid-ex-corr (null) lda-PZ
fluid-gummel-loop 10 1.000000e-05
fluid-minimize  \
	dirUpdateScheme      PolakRibiere \
	linminMethod         DirUpdateRecommended \
	nIterations          100 \
	history              15 \
	knormThreshold       0 \
	energyDiffThreshold  0 \
	nEnergyDiff          2 \
	alphaTstart          1 \
	alphaTmin            1e-10 \
	updateTestStepSize   yes \
	alphaTreduceFactor   0.1 \
	alphaTincreaseFactor 3 \
	nAlphaAdjustMax      3 \
	wolfeEnergy          0.0001 \
	wolfeGradient        0.9 \
	fdTest               no
fluid-solvent H2O 55.338 ScalarEOS \
	epsBulk 78.4 \
	pMol 0.92466 \
	epsInf 1.77 \
	Pvap 1.06736e-10 \
	sigmaBulk 4.62e-05 \
	Rvdw 2.61727 \
	Res 1.42 \
	tauNuc 343133 \
	poleEl 15 7 1
forces-output-coords Positions
ion Rb   0.000000000000000   0.000000000000000   0.000000000000000 0
ion-species SG15/$ID_ONCV_PBE.upf
ion-width 0
ionic-minimize  \
	dirUpdateScheme      L-BFGS \
	linminMethod         DirUpdateRecommended \
	nIterations          0 \
	history              15 \
	knormThreshold       0.0001 \
	energyDiffThreshold  1e-06 \
	nEnergyDiff          2 \
	alphaTstart          1 \
	alphaTmin            1e-10 \
	updateTestStepSize   yes \
	alphaTreduceFactor   0.1 \
	alphaTincreaseFactor 3 \
	nAlphaAdjustMax      3 \
	wolfeEnergy          0.0001 \
	wolfeGradient        0.9 \
	fdTest               no
kpoint   0.000000000000   0.000000000000   0.000000000000  1.00000000000000
kpoint-folding 12 12 1 
latt-move-scale 1 1 1
latt-scale 4 4 1 
lattice  \
	   4.727486978767153   -2.363743489383575    0.000000000000000  \
	  -0.000000000000000    4.094123819672498    0.000000000000000  \
	   0.000000000000000    0.000000000000000   40.000000000000000 
lattice-minimize  \
	dirUpdateScheme      L-BFGS \
	linminMethod         DirUpdateRecommended \
	nIterations          0 \
	history              15 \
	knormThreshold       0 \
	energyDiffThreshold  1e-06 \
	nEnergyDiff          2 \
	alphaTstart          1 \
	alphaTmin            1e-10 \
	updateTestStepSize   yes \
	alphaTreduceFactor   0.1 \
	alphaTincreaseFactor 3 \
	nAlphaAdjustMax      3 \
	wolfeEnergy          0.0001 \
	wolfeGradient        0.9 \
	fdTest               no
lcao-params -1 1e-06 1e-05
pcm-variant GLSSA13
spintype z-spin
subspace-rotation-factor 1 yes
symmetries automatic
symmetry-threshold 0.0001



---------- Setting up symmetries ----------

Found 24 point-group symmetries of the bravais lattice
Found 24 space-group symmetries with basis
Applied RMS atom displacement 0 bohrs to make symmetries exact.

---------- Initializing the Grid ----------
R = 
[      18.9099     -9.45497            0  ]
[            0      16.3765            0  ]
[            0            0           40  ]
unit cell volume = 12387.1
G =
[   0.332269   0.191835         -0  ]
[          0   0.383671         -0  ]
[         -0         -0    0.15708  ]
Minimum fftbox size, Smin = [  80  80  164  ]
Chosen fftbox size, S = [  80  80  168  ]

---------- Exchange Correlation functional ----------
Initalized PBE GGA exchange.
Initalized PBE GGA correlation.

---------- Setting up pseudopotentials ----------
Width of ionic core gaussian charges (only for fluid interactions / plotting) set to 0

Reading pseudopotential file '/home/gridsan/aligho/DFT/build-Nov24/pseudopotentials/SG15/Rb_ONCV_PBE.upf':
  'Rb' pseudopotential, 'PBE' functional
  Generated using ONCVPSP code by D. R. Hamann
  Author: Martin Schlipf and Francois Gygi  Date: 150915.
  9 valence electrons, 3 orbitals, 6 projectors, 2308 radial grid points, with lMax = 2
  Transforming local potential to a uniform radial grid of dG=0.02 with 1489 points.
  Transforming nonlocal projectors to a uniform radial grid of dG=0.02 with 432 points.
    4S    l: 0   occupation:  2.0   eigenvalue: -1.172069
    4P    l: 1   occupation:  6.0   eigenvalue: -0.586674
    5S    l: 0   occupation:  1.0   eigenvalue: -0.082006
  Transforming atomic orbitals to a uniform radial grid of dG=0.02 with 432 points.
  Core radius for overlap checks: 2.60 bohrs.
  Reading pulay file /home/gridsan/aligho/DFT/build-Nov24/pseudopotentials/SG15/Rb_ONCV_PBE.pulay ... using dE_dnG = -1.360715e-05 computed for Ecut = 20.

Initialized 1 species with 1 total atoms.

Folded 1 k-points by 12x12x1 to 144 k-points.

---------- Setting up k-points, bands, fillings ----------
Reduced to 19 k-points under symmetry. 
Computing the number of bands and number of electrons
Calculating initial fillings.
nElectrons:   9.000000   nBands: 6   nStates: 38

----- Setting up reduced wavefunction bases (one per k-point) -----
average nbasis = 52924.021 , ideal nbasis = 52918.836

---------- Setting up coulomb interaction ----------
Initialized slab truncation along lattice direction 001

---------- Setting up 2D ewald sum ----------
Optimum gaussian width for ewald sums = 10.498040 bohr.
Real space sums over 289 unit cells with max indices [  8  8  0  ]
Reciprocal space sums over 81 terms with max indices [  4  4  0  ]

---------- Allocating electronic variables ----------
Initializing wave functions:  linear combination of atomic orbitals
Note: number of bands (6) exceeds available atomic orbitals (5)
Rb pseudo-atom occupations:   s ( 2 1 )  p ( 6 )
[d-4-7-2:08461] 18 more processes have sent help message help-mpi-common-cuda.txt / dlopen failed
[d-4-7-2:08461] Set MCA parameter "orte_base_help_aggregate" to 0 to see all help / error messages
[d-4-7-2:08461] 18 more processes have sent help message help-mpi-btl-openib-cpc-base.txt / no cpcs for port
	FillingsUpdate:  mu: -0.082784792  nElectrons: 9.000000  magneticMoment: [ Abs: 0.16000  Tot: -0.16000 ]
LCAOMinimize: Iter:   0  F: -24.4306494980589548  |grad|_K:  5.271e-06  alpha:  1.000e+00
	FillingsUpdate:  mu: -0.082783631  nElectrons: 9.000000  magneticMoment: [ Abs: 0.16000  Tot: -0.16000 ]
LCAOMinimize: Iter:   1  F: -24.4306495168112576  |grad|_K:  2.537e-08  alpha:  9.868e-01  linmin: -8.797e-03  cgtest:  3.048e-01  t[s]:     15.01
LCAOMinimize: Encountered beta<0, resetting CG.
	FillingsUpdate:  mu: -0.082783630  nElectrons: 9.000000  magneticMoment: [ Abs: 0.16000  Tot: -0.16000 ]
LCAOMinimize: Iter:   2  F: -24.4306495168117266  |grad|_K:  3.774e-09  alpha:  1.149e+00  linmin:  1.795e-02  cgtest: -1.000e+00  t[s]:     19.10
LCAOMinimize: Converged (|Delta F|<1.000000e-06 for 2 iters).


---- Citations for features of the code used in this run ----

   Software package:
      R. Sundararaman, K. Letchworth-Weaver, K.A. Schwarz, D. Gunceler, Y. Ozhabes and T.A. Arias, 'JDFTx: software for joint density-functional theory', SoftwareX 6, 278 (2017)

   gga-PBE exchange-correlation functional:
      J.P. Perdew, K. Burke and M. Ernzerhof, Phys. Rev. Lett. 77, 3865 (1996)

   Pseudopotentials:
      M Schlipf and F Gygi, Comput. Phys. Commun. 196, 36 (2015)

   Truncated Coulomb potentials:
      R. Sundararaman and T.A. Arias, Phys. Rev. B 87, 165122 (2013)

This list may not be complete. Please suggest additional citations or
report any other bugs at https://github.com/shankar1729/jdftx/issues

Initialization completed successfully at t[s]:     19.36


-------- Electronic minimization -----------
Will mix electronic density at each iteration.
	FillingsUpdate:  mu: -0.082783630  nElectrons: 9.000000  magneticMoment: [ Abs: 0.16000  Tot: -0.16000 ]
	FillingsUpdate:  mu: -0.082892588  nElectrons: 9.000000  magneticMoment: [ Abs: 0.16000  Tot: -0.16000 ]
SCF: Cycle:  0   F: -24.430767900315715   dF: -1.184e-04   |Residual|: 7.283e-04   |deigs|: 1.755e-01  t[s]:     27.46
	FillingsUpdate:  mu: -0.082933638  nElectrons: 9.000000  magneticMoment: [ Abs: 0.16073  Tot: -0.16000 ]
SCF: Cycle:  1   F: -24.430769899150906   dF: -1.999e-06   |Residual|: 5.247e-04   |deigs|: 4.256e-03  t[s]:     33.94
	FillingsUpdate:  mu: -0.082993228  nElectrons: 9.000000  magneticMoment: [ Abs: 0.16074  Tot: -0.16000 ]
SCF: Cycle:  2   F: -24.430770586267084   dF: -6.871e-07   |Residual|: 4.135e-04   |deigs|: 1.646e-03  t[s]:     40.50
	FillingsUpdate:  mu: -0.083106231  nElectrons: 9.000000  magneticMoment: [ Abs: 0.16127  Tot: -0.16000 ]
SCF: Cycle:  3   F: -24.430771324481682   dF: -7.382e-07   |Residual|: 2.775e-04   |deigs|: 5.966e-04  t[s]:     47.07
	FillingsUpdate:  mu: -0.083205062  nElectrons: 9.000000  magneticMoment: [ Abs: 0.16097  Tot: -0.16000 ]
SCF: Cycle:  4   F: -24.430772069935294   dF: -7.455e-07   |Residual|: 1.799e-04   |deigs|: 7.533e-04  t[s]:     53.79
	FillingsUpdate:  mu: -0.083255529  nElectrons: 9.000000  magneticMoment: [ Abs: 0.16117  Tot: -0.16000 ]
SCF: Cycle:  5   F: -24.430772489466818   dF: -4.195e-07   |Residual|: 1.265e-04   |deigs|: 9.000e-04  t[s]:     60.56
	FillingsUpdate:  mu: -0.083257100  nElectrons: 9.000000  magneticMoment: [ Abs: 0.16110  Tot: -0.16000 ]
SCF: Cycle:  6   F: -24.430772769960235   dF: -2.805e-07   |Residual|: 7.876e-05   |deigs|: 5.536e-04  t[s]:     67.51
	FillingsUpdate:  mu: -0.083247230  nElectrons: 9.000000  magneticMoment: [ Abs: 0.16102  Tot: -0.16000 ]
SCF: Cycle:  7   F: -24.430772901658873   dF: -1.317e-07   |Residual|: 5.913e-05   |deigs|: 5.662e-04  t[s]:     74.64
	FillingsUpdate:  mu: -0.083228390  nElectrons: 9.000000  magneticMoment: [ Abs: 0.16098  Tot: -0.16000 ]
SCF: Cycle:  8   F: -24.430772974519726   dF: -7.286e-08   |Residual|: 4.327e-05   |deigs|: 2.780e-04  t[s]:     81.80
	FillingsUpdate:  mu: -0.083203951  nElectrons: 9.000000  magneticMoment: [ Abs: 0.16091  Tot: -0.16000 ]
SCF: Cycle:  9   F: -24.430772997525924   dF: -2.301e-08   |Residual|: 3.274e-05   |deigs|: 1.588e-04  t[s]:     89.00
	FillingsUpdate:  mu: -0.083186222  nElectrons: 9.000000  magneticMoment: [ Abs: 0.16095  Tot: -0.16000 ]
SCF: Cycle: 10   F: -24.430772996446720   dF: +1.079e-09   |Residual|: 2.980e-05   |deigs|: 1.098e-04  t[s]:     96.36
	FillingsUpdate:  mu: -0.083162516  nElectrons: 9.000000  magneticMoment: [ Abs: 0.16103  Tot: -0.16000 ]
SCF: Cycle: 11   F: -24.430772971796976   dF: +2.465e-08   |Residual|: 2.674e-05   |deigs|: 1.193e-04  t[s]:    103.76
	FillingsUpdate:  mu: -0.083133583  nElectrons: 9.000000  magneticMoment: [ Abs: 0.16100  Tot: -0.16000 ]
SCF: Cycle: 12   F: -24.430772944191808   dF: +2.761e-08   |Residual|: 2.443e-05   |deigs|: 1.048e-04  t[s]:    111.16
	FillingsUpdate:  mu: -0.083108794  nElectrons: 9.000000  magneticMoment: [ Abs: 0.16098  Tot: -0.16000 ]
SCF: Cycle: 13   F: -24.430772955734064   dF: -1.154e-08   |Residual|: 2.158e-05   |deigs|: 7.770e-05  t[s]:    118.57
	FillingsUpdate:  mu: -0.083083198  nElectrons: 9.000000  magneticMoment: [ Abs: 0.16099  Tot: -0.16000 ]
SCF: Cycle: 14   F: -24.430772916086909   dF: +3.965e-08   |Residual|: 2.051e-05   |deigs|: 9.343e-05  t[s]:    125.98
	FillingsUpdate:  mu: -0.083063604  nElectrons: 9.000000  magneticMoment: [ Abs: 0.16096  Tot: -0.16000 ]
SCF: Cycle: 15   F: -24.430772959669113   dF: -4.358e-08   |Residual|: 1.819e-05   |deigs|: 1.143e-04  t[s]:    133.44
	FillingsUpdate:  mu: -0.083037135  nElectrons: 9.000000  magneticMoment: [ Abs: 0.16096  Tot: -0.16000 ]
SCF: Cycle: 16   F: -24.430772968137092   dF: -8.468e-09   |Residual|: 1.605e-05   |deigs|: 9.964e-05  t[s]:    140.66
	FillingsUpdate:  mu: -0.083014519  nElectrons: 9.000000  magneticMoment: [ Abs: 0.16094  Tot: -0.16000 ]
SCF: Cycle: 17   F: -24.430772919353064   dF: +4.878e-08   |Residual|: 1.448e-05   |deigs|: 6.023e-05  t[s]:    148.00
	FillingsUpdate:  mu: -0.083010100  nElectrons: 9.000000  magneticMoment: [ Abs: 0.16091  Tot: -0.16000 ]
SCF: Cycle: 18   F: -24.430773000346033   dF: -8.099e-08   |Residual|: 1.162e-05   |deigs|: 3.077e-05  t[s]:    154.88
	FillingsUpdate:  mu: -0.083006046  nElectrons: 9.000000  magneticMoment: [ Abs: 0.16092  Tot: -0.16000 ]
SCF: Cycle: 19   F: -24.430773003357153   dF: -3.011e-09   |Residual|: 8.869e-06   |deigs|: 1.556e-05  t[s]:    161.65
	FillingsUpdate:  mu: -0.082999432  nElectrons: 9.000000  magneticMoment: [ Abs: 0.16092  Tot: -0.16000 ]
SCF: Cycle: 20   F: -24.430773036440325   dF: -3.308e-08   |Residual|: 6.271e-06   |deigs|: 9.992e-06  t[s]:    169.11
	FillingsUpdate:  mu: -0.082997742  nElectrons: 9.000000  magneticMoment: [ Abs: 0.16092  Tot: -0.16000 ]
SCF: Cycle: 21   F: -24.430773046243310   dF: -9.803e-09   |Residual|: 4.788e-06   |deigs|: 4.454e-06  t[s]:    175.93
	FillingsUpdate:  mu: -0.082996875  nElectrons: 9.000000  magneticMoment: [ Abs: 0.16092  Tot: -0.16000 ]
SCF: Cycle: 22   F: -24.430773042389490   dF: +3.854e-09   |Residual|: 3.716e-06   |deigs|: 2.777e-06  t[s]:    182.88
	FillingsUpdate:  mu: -0.082996358  nElectrons: 9.000000  magneticMoment: [ Abs: 0.16092  Tot: -0.16000 ]
SCF: Cycle: 23   F: -24.430773050011975   dF: -7.622e-09   |Residual|: 2.424e-06   |deigs|: 3.124e-06  t[s]:    190.04
	FillingsUpdate:  mu: -0.082996467  nElectrons: 9.000000  magneticMoment: [ Abs: 0.16091  Tot: -0.16000 ]
SCF: Cycle: 24   F: -24.430773051375610   dF: -1.364e-09   |Residual|: 1.678e-06   |deigs|: 4.173e-06  t[s]:    196.85
SCF: Converged (|Delta E|<1.000000e-08 for 2 iters).


# Ionic positions in lattice coordinates:
ion Rb   0.000000000000000   0.000000000000000   0.000000000000000 0

# Forces in Lattice coordinates:
force Rb  -0.000000000000000   0.000000000000000   0.000000000000000 0

# Energy components:
   Eewald =       -9.0240130501663280
       EH =       10.5166865059151249
     Eloc =      -28.4404009082343485
      Enl =       -0.7932298052082363
   Epulay =        0.0000000056959385
      Exc =       -3.6475010774782994
       KE =        6.9576857121778595
-------------------------------------
     Etot =      -24.4307726172982882
       TS =        0.0000004340773206
-------------------------------------
        F =      -24.4307730513756098

IonicMinimize: Iter:   0  F: -24.430773051375610  |grad|_K:  0.000e+00  t[s]:    197.27
IonicMinimize: Converged (|grad|_K<1.000000e-04).

#--- Lowdin population analysis ---
# oxidation-state Rb +0.002
# magnetic-moments Rb -0.160

End date and time: Sun Feb  6 12:48:00 2022  (Duration: 0-0:03:17.33)
Done!
