The alkali metal is Rb
scale=2
magnetization=-0.48
--------------------------------------------------------------------------
The library attempted to open the following supporting CUDA libraries,
but each of them failed.  CUDA-aware support is disabled.
libcuda.so.1: cannot open shared object file: No such file or directory
libcuda.dylib: cannot open shared object file: No such file or directory
/usr/lib64/libcuda.so.1: cannot open shared object file: No such file or directory
/usr/lib64/libcuda.dylib: cannot open shared object file: No such file or directory
If you are not interested in CUDA-aware support, then run with
--mca opal_warn_on_missing_libcuda 0 to suppress this message.  If you are interested
in CUDA-aware support, then try setting LD_LIBRARY_PATH to the location
of libcuda.so.1 to get passed this issue.
--------------------------------------------------------------------------
--------------------------------------------------------------------------
No OpenFabrics connection schemes reported that they were able to be
used on a specific port.  As such, the openib BTL (OpenFabrics
support) will be disabled for this port.

  Local host:           d-16-5-2
  Local device:         mlx5_1
  Local port:           1
  CPCs attempted:       rdmacm, udcm
--------------------------------------------------------------------------

*************** JDFTx 1.6.0 (git hash 42ebbcc2) ***************

Start date and time: Sun Feb  6 12:40:57 2022
Executable jdftx with command-line: -i Alkali.in
Running on hosts (process indices):  d-16-5-2 (0-18)
Divided in process groups (process indices):  0 (0)  1 (1)  2 (2)  3 (3)  4 (4)  5 (5)  6 (6)  7 (7)  8 (8)  9 (9)  10 (10)  11 (11)  12 (12)  13 (13)  14 (14)  15 (15)  16 (16)  17 (17)  18 (18)
Resource initialization completed at t[s]:      0.00
Run totals: 19 processes, 48 threads, 0 GPUs


Input parsed successfully to the following command list (including defaults):

basis kpoint-dependent
coords-type Lattice
core-overlap-check vector
coulomb-interaction Slab 001
davidson-band-ratio 1.1
dump End None
dump-name $INPUT.$VAR
elec-cutoff 20
elec-eigen-algo Davidson
elec-ex-corr gga-PBE
elec-initial-magnetization -0.480000 yes
elec-smearing Fermi 1e-05
electronic-minimize  \
	dirUpdateScheme      FletcherReeves \
	linminMethod         DirUpdateRecommended \
	nIterations          100 \
	history              15 \
	knormThreshold       0 \
	energyDiffThreshold  1e-08 \
	nEnergyDiff          2 \
	alphaTstart          1 \
	alphaTmin            1e-10 \
	updateTestStepSize   yes \
	alphaTreduceFactor   0.1 \
	alphaTincreaseFactor 3 \
	nAlphaAdjustMax      3 \
	wolfeEnergy          0.0001 \
	wolfeGradient        0.9 \
	fdTest               no
electronic-scf  \
	nIterations	10000 \
	energyDiffThreshold	1e-08 \
	residualThreshold	1e-07 \
	mixFraction	0.5 \
	qMetric	0.8 \
	history	10 \
	nEigSteps	2 \
	eigDiffThreshold	1e-08 \
	mixedVariable	Density \
	qKerker	0.8 \
	qKappa	-1 \
	verbose	no \
	mixFractionMag	1.5
exchange-regularization WignerSeitzTruncated
fluid None
fluid-ex-corr (null) lda-PZ
fluid-gummel-loop 10 1.000000e-05
fluid-minimize  \
	dirUpdateScheme      PolakRibiere \
	linminMethod         DirUpdateRecommended \
	nIterations          100 \
	history              15 \
	knormThreshold       0 \
	energyDiffThreshold  0 \
	nEnergyDiff          2 \
	alphaTstart          1 \
	alphaTmin            1e-10 \
	updateTestStepSize   yes \
	alphaTreduceFactor   0.1 \
	alphaTincreaseFactor 3 \
	nAlphaAdjustMax      3 \
	wolfeEnergy          0.0001 \
	wolfeGradient        0.9 \
	fdTest               no
fluid-solvent H2O 55.338 ScalarEOS \
	epsBulk 78.4 \
	pMol 0.92466 \
	epsInf 1.77 \
	Pvap 1.06736e-10 \
	sigmaBulk 4.62e-05 \
	Rvdw 2.61727 \
	Res 1.42 \
	tauNuc 343133 \
	poleEl 15 7 1
forces-output-coords Positions
ion Rb   0.000000000000000   0.000000000000000   0.000000000000000 0
ion-species SG15/$ID_ONCV_PBE.upf
ion-width 0
ionic-minimize  \
	dirUpdateScheme      L-BFGS \
	linminMethod         DirUpdateRecommended \
	nIterations          0 \
	history              15 \
	knormThreshold       0.0001 \
	energyDiffThreshold  1e-06 \
	nEnergyDiff          2 \
	alphaTstart          1 \
	alphaTmin            1e-10 \
	updateTestStepSize   yes \
	alphaTreduceFactor   0.1 \
	alphaTincreaseFactor 3 \
	nAlphaAdjustMax      3 \
	wolfeEnergy          0.0001 \
	wolfeGradient        0.9 \
	fdTest               no
kpoint   0.000000000000   0.000000000000   0.000000000000  1.00000000000000
kpoint-folding 12 12 1 
latt-move-scale 1 1 1
latt-scale 2 2 1 
lattice  \
	   4.727486978767153   -2.363743489383575    0.000000000000000  \
	  -0.000000000000000    4.094123819672498    0.000000000000000  \
	   0.000000000000000    0.000000000000000   40.000000000000000 
lattice-minimize  \
	dirUpdateScheme      L-BFGS \
	linminMethod         DirUpdateRecommended \
	nIterations          0 \
	history              15 \
	knormThreshold       0 \
	energyDiffThreshold  1e-06 \
	nEnergyDiff          2 \
	alphaTstart          1 \
	alphaTmin            1e-10 \
	updateTestStepSize   yes \
	alphaTreduceFactor   0.1 \
	alphaTincreaseFactor 3 \
	nAlphaAdjustMax      3 \
	wolfeEnergy          0.0001 \
	wolfeGradient        0.9 \
	fdTest               no
lcao-params -1 1e-06 1e-05
pcm-variant GLSSA13
spintype z-spin
subspace-rotation-factor 1 yes
symmetries automatic
symmetry-threshold 0.0001



---------- Setting up symmetries ----------

Found 24 point-group symmetries of the bravais lattice
Found 24 space-group symmetries with basis
Applied RMS atom displacement 0 bohrs to make symmetries exact.

---------- Initializing the Grid ----------
R = 
[      9.45497     -4.72749            0  ]
[            0      8.18825            0  ]
[            0            0           40  ]
unit cell volume = 3096.79
G =
[   0.664538   0.383671         -0  ]
[          0   0.767342         -0  ]
[         -0         -0    0.15708  ]
Minimum fftbox size, Smin = [  40  40  164  ]
Chosen fftbox size, S = [  40  40  168  ]

---------- Exchange Correlation functional ----------
Initalized PBE GGA exchange.
Initalized PBE GGA correlation.

---------- Setting up pseudopotentials ----------
Width of ionic core gaussian charges (only for fluid interactions / plotting) set to 0

Reading pseudopotential file '/home/gridsan/aligho/DFT/build-Nov24/pseudopotentials/SG15/Rb_ONCV_PBE.upf':
  'Rb' pseudopotential, 'PBE' functional
  Generated using ONCVPSP code by D. R. Hamann
  Author: Martin Schlipf and Francois Gygi  Date: 150915.
  9 valence electrons, 3 orbitals, 6 projectors, 2308 radial grid points, with lMax = 2
  Transforming local potential to a uniform radial grid of dG=0.02 with 1489 points.
  Transforming nonlocal projectors to a uniform radial grid of dG=0.02 with 432 points.
    4S    l: 0   occupation:  2.0   eigenvalue: -1.172069
    4P    l: 1   occupation:  6.0   eigenvalue: -0.586674
    5S    l: 0   occupation:  1.0   eigenvalue: -0.082006
  Transforming atomic orbitals to a uniform radial grid of dG=0.02 with 432 points.
  Core radius for overlap checks: 2.60 bohrs.
  Reading pulay file /home/gridsan/aligho/DFT/build-Nov24/pseudopotentials/SG15/Rb_ONCV_PBE.pulay ... using dE_dnG = -1.360715e-05 computed for Ecut = 20.

Initialized 1 species with 1 total atoms.

Folded 1 k-points by 12x12x1 to 144 k-points.

---------- Setting up k-points, bands, fillings ----------
Reduced to 19 k-points under symmetry. 
Computing the number of bands and number of electrons
Calculating initial fillings.
nElectrons:   9.000000   nBands: 6   nStates: 38

----- Setting up reduced wavefunction bases (one per k-point) -----
average nbasis = 13230.521 , ideal nbasis = 13229.709

---------- Setting up coulomb interaction ----------
Initialized slab truncation along lattice direction 001

---------- Setting up 2D ewald sum ----------
Optimum gaussian width for ewald sums = 5.249020 bohr.
Real space sums over 289 unit cells with max indices [  8  8  0  ]
Reciprocal space sums over 81 terms with max indices [  4  4  0  ]

---------- Allocating electronic variables ----------
Initializing wave functions:  linear combination of atomic orbitals
Note: number of bands (6) exceeds available atomic orbitals (5)
Rb pseudo-atom occupations:   s ( 2 1 )  p ( 6 )
	FillingsUpdate:  mu: -0.092333252  nElectrons: 9.000000  magneticMoment: [ Abs: 0.48000  Tot: -0.48000 ]
LCAOMinimize: Iter:   0  F: -24.4449191586418024  |grad|_K:  3.231e-05  alpha:  1.000e+00
	FillingsUpdate:  mu: -0.092321834  nElectrons: 9.000000  magneticMoment: [ Abs: 0.48000  Tot: -0.48000 ]
LCAOMinimize: Iter:   1  F: -24.4449198561037626  |grad|_K:  3.162e-07  alpha:  9.771e-01  linmin: -3.294e-02  cgtest:  3.912e-01  t[s]:      4.70
LCAOMinimize: Encountered beta<0, resetting CG.
[d-16-5-2:96468] 18 more processes have sent help message help-mpi-common-cuda.txt / dlopen failed
[d-16-5-2:96468] Set MCA parameter "orte_base_help_aggregate" to 0 to see all help / error messages
[d-16-5-2:96468] 18 more processes have sent help message help-mpi-btl-openib-cpc-base.txt / no cpcs for port
	FillingsUpdate:  mu: -0.092321894  nElectrons: 9.000000  magneticMoment: [ Abs: 0.48000  Tot: -0.48000 ]
LCAOMinimize: Iter:   2  F: -24.4449198561722589  |grad|_K:  4.204e-10  alpha:  1.001e+00  linmin: -6.684e-03  cgtest:  5.981e-02  t[s]:      5.97
LCAOMinimize: Encountered beta<0, resetting CG.
LCAOMinimize: Converged (|Delta F|<1.000000e-06 for 2 iters).


---- Citations for features of the code used in this run ----

   Software package:
      R. Sundararaman, K. Letchworth-Weaver, K.A. Schwarz, D. Gunceler, Y. Ozhabes and T.A. Arias, 'JDFTx: software for joint density-functional theory', SoftwareX 6, 278 (2017)

   gga-PBE exchange-correlation functional:
      J.P. Perdew, K. Burke and M. Ernzerhof, Phys. Rev. Lett. 77, 3865 (1996)

   Pseudopotentials:
      M Schlipf and F Gygi, Comput. Phys. Commun. 196, 36 (2015)

   Truncated Coulomb potentials:
      R. Sundararaman and T.A. Arias, Phys. Rev. B 87, 165122 (2013)

This list may not be complete. Please suggest additional citations or
report any other bugs at https://github.com/shankar1729/jdftx/issues

Initialization completed successfully at t[s]:      6.07


-------- Electronic minimization -----------
Will mix electronic density at each iteration.
	FillingsUpdate:  mu: -0.092321894  nElectrons: 9.000000  magneticMoment: [ Abs: 0.48000  Tot: -0.48000 ]
	FillingsUpdate:  mu: -0.103106488  nElectrons: 9.000000  magneticMoment: [ Abs: 0.48000  Tot: -0.48000 ]
SCF: Cycle:  0   F: -24.451427014643080   dF: -6.507e-03   |Residual|: 1.134e-02   |deigs|: 1.788e-01  t[s]:      8.52
	FillingsUpdate:  mu: -0.102845520  nElectrons: 9.000000  magneticMoment: [ Abs: 0.48000  Tot: -0.48000 ]
SCF: Cycle:  1   F: -24.451696036919692   dF: -2.690e-04   |Residual|: 8.192e-03   |deigs|: 7.055e-03  t[s]:     10.43
	FillingsUpdate:  mu: -0.101398811  nElectrons: 9.000000  magneticMoment: [ Abs: 0.48275  Tot: -0.48000 ]
SCF: Cycle:  2   F: -24.451796733936934   dF: -1.007e-04   |Residual|: 4.678e-03   |deigs|: 1.972e-03  t[s]:     12.32
	FillingsUpdate:  mu: -0.100431605  nElectrons: 9.000000  magneticMoment: [ Abs: 0.48010  Tot: -0.48000 ]
SCF: Cycle:  3   F: -24.451865262299030   dF: -6.853e-05   |Residual|: 2.972e-03   |deigs|: 1.687e-03  t[s]:     14.33
	FillingsUpdate:  mu: -0.098648984  nElectrons: 9.000000  magneticMoment: [ Abs: 0.48008  Tot: -0.48000 ]
SCF: Cycle:  4   F: -24.451903961918809   dF: -3.870e-05   |Residual|: 2.139e-03   |deigs|: 2.847e-03  t[s]:     16.30
	FillingsUpdate:  mu: -0.097417477  nElectrons: 9.000000  magneticMoment: [ Abs: 0.48067  Tot: -0.48000 ]
SCF: Cycle:  5   F: -24.451922372910609   dF: -1.841e-05   |Residual|: 1.595e-03   |deigs|: 3.294e-03  t[s]:     18.28
	FillingsUpdate:  mu: -0.094947835  nElectrons: 9.000000  magneticMoment: [ Abs: 0.48681  Tot: -0.48000 ]
SCF: Cycle:  6   F: -24.451920749288643   dF: +1.624e-06   |Residual|: 1.155e-03   |deigs|: 3.241e-03  t[s]:     20.30
	FillingsUpdate:  mu: -0.092838775  nElectrons: 9.000000  magneticMoment: [ Abs: 0.48728  Tot: -0.48000 ]
SCF: Cycle:  7   F: -24.451937248270308   dF: -1.650e-05   |Residual|: 1.103e-03   |deigs|: 2.740e-03  t[s]:     22.34
	FillingsUpdate:  mu: -0.092968529  nElectrons: 9.000000  magneticMoment: [ Abs: 0.48190  Tot: -0.48000 ]
SCF: Cycle:  8   F: -24.451949532736499   dF: -1.228e-05   |Residual|: 8.919e-04   |deigs|: 5.032e-04  t[s]:     24.38
	FillingsUpdate:  mu: -0.091841657  nElectrons: 9.000000  magneticMoment: [ Abs: 0.48240  Tot: -0.48000 ]
SCF: Cycle:  9   F: -24.451952851306160   dF: -3.319e-06   |Residual|: 7.405e-04   |deigs|: 1.107e-03  t[s]:     26.44
	FillingsUpdate:  mu: -0.090440224  nElectrons: 9.000000  magneticMoment: [ Abs: 0.48426  Tot: -0.48000 ]
SCF: Cycle: 10   F: -24.451953749273482   dF: -8.980e-07   |Residual|: 6.021e-04   |deigs|: 1.471e-03  t[s]:     28.53
	FillingsUpdate:  mu: -0.089418875  nElectrons: 9.000000  magneticMoment: [ Abs: 0.48363  Tot: -0.48000 ]
SCF: Cycle: 11   F: -24.451954340556039   dF: -5.913e-07   |Residual|: 5.491e-04   |deigs|: 1.087e-03  t[s]:     30.61
	FillingsUpdate:  mu: -0.088073837  nElectrons: 9.000000  magneticMoment: [ Abs: 0.48350  Tot: -0.48000 ]
SCF: Cycle: 12   F: -24.451964139154242   dF: -9.799e-06   |Residual|: 4.806e-04   |deigs|: 1.352e-03  t[s]:     32.76
	FillingsUpdate:  mu: -0.086571355  nElectrons: 9.000000  magneticMoment: [ Abs: 0.48426  Tot: -0.48000 ]
SCF: Cycle: 13   F: -24.451971475382383   dF: -7.336e-06   |Residual|: 4.433e-04   |deigs|: 1.503e-03  t[s]:     34.86
	FillingsUpdate:  mu: -0.085373652  nElectrons: 9.000000  magneticMoment: [ Abs: 0.48253  Tot: -0.48000 ]
SCF: Cycle: 14   F: -24.451975457261465   dF: -3.982e-06   |Residual|: 3.983e-04   |deigs|: 1.228e-03  t[s]:     36.97
	FillingsUpdate:  mu: -0.084053464  nElectrons: 9.000000  magneticMoment: [ Abs: 0.48087  Tot: -0.48000 ]
SCF: Cycle: 15   F: -24.451979037081468   dF: -3.580e-06   |Residual|: 2.858e-04   |deigs|: 1.436e-03  t[s]:     39.08
	FillingsUpdate:  mu: -0.083807178  nElectrons: 9.000000  magneticMoment: [ Abs: 0.48089  Tot: -0.48000 ]
SCF: Cycle: 16   F: -24.451980288770951   dF: -1.252e-06   |Residual|: 2.104e-04   |deigs|: 6.904e-04  t[s]:     41.12
	FillingsUpdate:  mu: -0.083780124  nElectrons: 9.000000  magneticMoment: [ Abs: 0.48017  Tot: -0.48000 ]
SCF: Cycle: 17   F: -24.451981105823865   dF: -8.171e-07   |Residual|: 1.290e-04   |deigs|: 3.296e-04  t[s]:     43.17
	FillingsUpdate:  mu: -0.083657050  nElectrons: 9.000000  magneticMoment: [ Abs: 0.48007  Tot: -0.48000 ]
SCF: Cycle: 18   F: -24.451981397653011   dF: -2.918e-07   |Residual|: 9.098e-05   |deigs|: 1.642e-04  t[s]:     45.28
	FillingsUpdate:  mu: -0.083588631  nElectrons: 9.000000  magneticMoment: [ Abs: 0.48011  Tot: -0.48000 ]
SCF: Cycle: 19   F: -24.451981513766658   dF: -1.161e-07   |Residual|: 4.385e-05   |deigs|: 1.366e-04  t[s]:     47.37
	FillingsUpdate:  mu: -0.083581934  nElectrons: 9.000000  magneticMoment: [ Abs: 0.48020  Tot: -0.48000 ]
SCF: Cycle: 20   F: -24.451981553614701   dF: -3.985e-08   |Residual|: 2.490e-05   |deigs|: 2.017e-04  t[s]:     49.52
	FillingsUpdate:  mu: -0.083579955  nElectrons: 9.000000  magneticMoment: [ Abs: 0.48024  Tot: -0.48000 ]
SCF: Cycle: 21   F: -24.451981582631468   dF: -2.902e-08   |Residual|: 1.479e-05   |deigs|: 1.976e-04  t[s]:     51.63
	FillingsUpdate:  mu: -0.083594775  nElectrons: 9.000000  magneticMoment: [ Abs: 0.48026  Tot: -0.48000 ]
SCF: Cycle: 22   F: -24.451981590296153   dF: -7.665e-09   |Residual|: 9.193e-06   |deigs|: 1.450e-04  t[s]:     53.69
	FillingsUpdate:  mu: -0.083591259  nElectrons: 9.000000  magneticMoment: [ Abs: 0.48023  Tot: -0.48000 ]
SCF: Cycle: 23   F: -24.451981596105611   dF: -5.809e-09   |Residual|: 6.240e-06   |deigs|: 1.147e-04  t[s]:     55.77
SCF: Converged (|Delta E|<1.000000e-08 for 2 iters).


# Ionic positions in lattice coordinates:
ion Rb   0.000000000000000   0.000000000000000   0.000000000000000 0

# Forces in Lattice coordinates:
force Rb   0.000000000000000   0.000000000000000   0.000000000000000 0

# Energy components:
   Eewald =      -18.0480261003326561
       EH =        1.6567229762026401
     Eloc =      -10.5684174242369231
      Enl =       -0.7970076220254600
   Epulay =        0.0000000035676145
      Exc =       -3.6782996027948394
       KE =        6.9830467035785082
-------------------------------------
     Etot =      -24.4519810660411174
       TS =        0.0000005300644922
-------------------------------------
        F =      -24.4519815961056111

IonicMinimize: Iter:   0  F: -24.451981596105611  |grad|_K:  0.000e+00  t[s]:     55.90
IonicMinimize: Converged (|grad|_K<1.000000e-04).

#--- Lowdin population analysis ---
# oxidation-state Rb +0.064
# magnetic-moments Rb -0.425

End date and time: Sun Feb  6 12:41:53 2022  (Duration: 0-0:00:55.92)
Done!
scale=3
magnetization=-0.48
--------------------------------------------------------------------------
The library attempted to open the following supporting CUDA libraries,
but each of them failed.  CUDA-aware support is disabled.
libcuda.so.1: cannot open shared object file: No such file or directory
libcuda.dylib: cannot open shared object file: No such file or directory
/usr/lib64/libcuda.so.1: cannot open shared object file: No such file or directory
/usr/lib64/libcuda.dylib: cannot open shared object file: No such file or directory
If you are not interested in CUDA-aware support, then run with
--mca opal_warn_on_missing_libcuda 0 to suppress this message.  If you are interested
in CUDA-aware support, then try setting LD_LIBRARY_PATH to the location
of libcuda.so.1 to get passed this issue.
--------------------------------------------------------------------------
--------------------------------------------------------------------------
No OpenFabrics connection schemes reported that they were able to be
used on a specific port.  As such, the openib BTL (OpenFabrics
support) will be disabled for this port.

  Local host:           d-16-5-2
  Local device:         mlx5_1
  Local port:           1
  CPCs attempted:       rdmacm, udcm
--------------------------------------------------------------------------

*************** JDFTx 1.6.0 (git hash 42ebbcc2) ***************

Start date and time: Sun Feb  6 12:41:54 2022
Executable jdftx with command-line: -i Alkali.in
Running on hosts (process indices):  d-16-5-2 (0-18)
Divided in process groups (process indices):  0 (0)  1 (1)  2 (2)  3 (3)  4 (4)  5 (5)  6 (6)  7 (7)  8 (8)  9 (9)  10 (10)  11 (11)  12 (12)  13 (13)  14 (14)  15 (15)  16 (16)  17 (17)  18 (18)
Resource initialization completed at t[s]:      0.00
Run totals: 19 processes, 48 threads, 0 GPUs


Input parsed successfully to the following command list (including defaults):

basis kpoint-dependent
coords-type Lattice
core-overlap-check vector
coulomb-interaction Slab 001
davidson-band-ratio 1.1
dump End None
dump-name $INPUT.$VAR
elec-cutoff 20
elec-eigen-algo Davidson
elec-ex-corr gga-PBE
elec-initial-magnetization -0.480000 yes
elec-smearing Fermi 1e-05
electronic-minimize  \
	dirUpdateScheme      FletcherReeves \
	linminMethod         DirUpdateRecommended \
	nIterations          100 \
	history              15 \
	knormThreshold       0 \
	energyDiffThreshold  1e-08 \
	nEnergyDiff          2 \
	alphaTstart          1 \
	alphaTmin            1e-10 \
	updateTestStepSize   yes \
	alphaTreduceFactor   0.1 \
	alphaTincreaseFactor 3 \
	nAlphaAdjustMax      3 \
	wolfeEnergy          0.0001 \
	wolfeGradient        0.9 \
	fdTest               no
electronic-scf  \
	nIterations	10000 \
	energyDiffThreshold	1e-08 \
	residualThreshold	1e-07 \
	mixFraction	0.5 \
	qMetric	0.8 \
	history	10 \
	nEigSteps	2 \
	eigDiffThreshold	1e-08 \
	mixedVariable	Density \
	qKerker	0.8 \
	qKappa	-1 \
	verbose	no \
	mixFractionMag	1.5
exchange-regularization WignerSeitzTruncated
fluid None
fluid-ex-corr (null) lda-PZ
fluid-gummel-loop 10 1.000000e-05
fluid-minimize  \
	dirUpdateScheme      PolakRibiere \
	linminMethod         DirUpdateRecommended \
	nIterations          100 \
	history              15 \
	knormThreshold       0 \
	energyDiffThreshold  0 \
	nEnergyDiff          2 \
	alphaTstart          1 \
	alphaTmin            1e-10 \
	updateTestStepSize   yes \
	alphaTreduceFactor   0.1 \
	alphaTincreaseFactor 3 \
	nAlphaAdjustMax      3 \
	wolfeEnergy          0.0001 \
	wolfeGradient        0.9 \
	fdTest               no
fluid-solvent H2O 55.338 ScalarEOS \
	epsBulk 78.4 \
	pMol 0.92466 \
	epsInf 1.77 \
	Pvap 1.06736e-10 \
	sigmaBulk 4.62e-05 \
	Rvdw 2.61727 \
	Res 1.42 \
	tauNuc 343133 \
	poleEl 15 7 1
forces-output-coords Positions
ion Rb   0.000000000000000   0.000000000000000   0.000000000000000 0
ion-species SG15/$ID_ONCV_PBE.upf
ion-width 0
ionic-minimize  \
	dirUpdateScheme      L-BFGS \
	linminMethod         DirUpdateRecommended \
	nIterations          0 \
	history              15 \
	knormThreshold       0.0001 \
	energyDiffThreshold  1e-06 \
	nEnergyDiff          2 \
	alphaTstart          1 \
	alphaTmin            1e-10 \
	updateTestStepSize   yes \
	alphaTreduceFactor   0.1 \
	alphaTincreaseFactor 3 \
	nAlphaAdjustMax      3 \
	wolfeEnergy          0.0001 \
	wolfeGradient        0.9 \
	fdTest               no
kpoint   0.000000000000   0.000000000000   0.000000000000  1.00000000000000
kpoint-folding 12 12 1 
latt-move-scale 1 1 1
latt-scale 3 3 1 
lattice  \
	   4.727486978767153   -2.363743489383575    0.000000000000000  \
	  -0.000000000000000    4.094123819672498    0.000000000000000  \
	   0.000000000000000    0.000000000000000   40.000000000000000 
lattice-minimize  \
	dirUpdateScheme      L-BFGS \
	linminMethod         DirUpdateRecommended \
	nIterations          0 \
	history              15 \
	knormThreshold       0 \
	energyDiffThreshold  1e-06 \
	nEnergyDiff          2 \
	alphaTstart          1 \
	alphaTmin            1e-10 \
	updateTestStepSize   yes \
	alphaTreduceFactor   0.1 \
	alphaTincreaseFactor 3 \
	nAlphaAdjustMax      3 \
	wolfeEnergy          0.0001 \
	wolfeGradient        0.9 \
	fdTest               no
lcao-params -1 1e-06 1e-05
pcm-variant GLSSA13
spintype z-spin
subspace-rotation-factor 1 yes
symmetries automatic
symmetry-threshold 0.0001



---------- Setting up symmetries ----------

Found 24 point-group symmetries of the bravais lattice
Found 24 space-group symmetries with basis
Applied RMS atom displacement 0 bohrs to make symmetries exact.

---------- Initializing the Grid ----------
R = 
[      14.1825     -7.09123            0  ]
[            0      12.2824            0  ]
[            0            0           40  ]
unit cell volume = 6967.77
G =
[   0.443025   0.255781         -0  ]
[          0   0.511561         -0  ]
[         -0         -0    0.15708  ]
Minimum fftbox size, Smin = [  60  60  164  ]
Chosen fftbox size, S = [  60  60  168  ]

---------- Exchange Correlation functional ----------
Initalized PBE GGA exchange.
Initalized PBE GGA correlation.

---------- Setting up pseudopotentials ----------
Width of ionic core gaussian charges (only for fluid interactions / plotting) set to 0

Reading pseudopotential file '/home/gridsan/aligho/DFT/build-Nov24/pseudopotentials/SG15/Rb_ONCV_PBE.upf':
  'Rb' pseudopotential, 'PBE' functional
  Generated using ONCVPSP code by D. R. Hamann
  Author: Martin Schlipf and Francois Gygi  Date: 150915.
  9 valence electrons, 3 orbitals, 6 projectors, 2308 radial grid points, with lMax = 2
  Transforming local potential to a uniform radial grid of dG=0.02 with 1489 points.
  Transforming nonlocal projectors to a uniform radial grid of dG=0.02 with 432 points.
    4S    l: 0   occupation:  2.0   eigenvalue: -1.172069
    4P    l: 1   occupation:  6.0   eigenvalue: -0.586674
    5S    l: 0   occupation:  1.0   eigenvalue: -0.082006
  Transforming atomic orbitals to a uniform radial grid of dG=0.02 with 432 points.
  Core radius for overlap checks: 2.60 bohrs.
  Reading pulay file /home/gridsan/aligho/DFT/build-Nov24/pseudopotentials/SG15/Rb_ONCV_PBE.pulay ... using dE_dnG = -1.360715e-05 computed for Ecut = 20.

Initialized 1 species with 1 total atoms.

Folded 1 k-points by 12x12x1 to 144 k-points.

---------- Setting up k-points, bands, fillings ----------
Reduced to 19 k-points under symmetry. 
Computing the number of bands and number of electrons
Calculating initial fillings.
nElectrons:   9.000000   nBands: 6   nStates: 38

----- Setting up reduced wavefunction bases (one per k-point) -----
average nbasis = 29766.104 , ideal nbasis = 29766.845

---------- Setting up coulomb interaction ----------
Initialized slab truncation along lattice direction 001

---------- Setting up 2D ewald sum ----------
Optimum gaussian width for ewald sums = 7.873530 bohr.
Real space sums over 289 unit cells with max indices [  8  8  0  ]
Reciprocal space sums over 81 terms with max indices [  4  4  0  ]

---------- Allocating electronic variables ----------
Initializing wave functions:  linear combination of atomic orbitals
Note: number of bands (6) exceeds available atomic orbitals (5)
Rb pseudo-atom occupations:   s ( 2 1 )  p ( 6 )
[d-16-5-2:22505] 18 more processes have sent help message help-mpi-common-cuda.txt / dlopen failed
[d-16-5-2:22505] Set MCA parameter "orte_base_help_aggregate" to 0 to see all help / error messages
[d-16-5-2:22505] 18 more processes have sent help message help-mpi-btl-openib-cpc-base.txt / no cpcs for port
	FillingsUpdate:  mu: -0.083918688  nElectrons: 9.000000  magneticMoment: [ Abs: 0.48000  Tot: -0.48000 ]
LCAOMinimize: Iter:   0  F: -24.4360462871980140  |grad|_K:  1.700e-05  alpha:  1.000e+00
	FillingsUpdate:  mu: -0.083915456  nElectrons: 9.000000  magneticMoment: [ Abs: 0.48000  Tot: -0.48000 ]
LCAOMinimize: Iter:   1  F: -24.4360464825531061  |grad|_K:  1.319e-07  alpha:  9.879e-01  linmin: -1.504e-02  cgtest:  3.528e-01  t[s]:      8.94
LCAOMinimize: Encountered beta<0, resetting CG.
	FillingsUpdate:  mu: -0.083915464  nElectrons: 9.000000  magneticMoment: [ Abs: 0.48000  Tot: -0.48000 ]
LCAOMinimize: Iter:   2  F: -24.4360464825645209  |grad|_K:  7.425e-09  alpha:  9.439e-01  linmin: -6.737e-02  cgtest:  9.979e-01  t[s]:     11.32
LCAOMinimize: Encountered beta<0, resetting CG.
LCAOMinimize: Converged (|Delta F|<1.000000e-06 for 2 iters).


---- Citations for features of the code used in this run ----

   Software package:
      R. Sundararaman, K. Letchworth-Weaver, K.A. Schwarz, D. Gunceler, Y. Ozhabes and T.A. Arias, 'JDFTx: software for joint density-functional theory', SoftwareX 6, 278 (2017)

   gga-PBE exchange-correlation functional:
      J.P. Perdew, K. Burke and M. Ernzerhof, Phys. Rev. Lett. 77, 3865 (1996)

   Pseudopotentials:
      M Schlipf and F Gygi, Comput. Phys. Commun. 196, 36 (2015)

   Truncated Coulomb potentials:
      R. Sundararaman and T.A. Arias, Phys. Rev. B 87, 165122 (2013)

This list may not be complete. Please suggest additional citations or
report any other bugs at https://github.com/shankar1729/jdftx/issues

Initialization completed successfully at t[s]:     11.48


-------- Electronic minimization -----------
Will mix electronic density at each iteration.
	FillingsUpdate:  mu: -0.083915464  nElectrons: 9.000000  magneticMoment: [ Abs: 0.48000  Tot: -0.48000 ]
	FillingsUpdate:  mu: -0.085740802  nElectrons: 9.000000  magneticMoment: [ Abs: 0.48000  Tot: -0.48000 ]
SCF: Cycle:  0   F: -24.437683128285233   dF: -1.637e-03   |Residual|: 4.014e-03   |deigs|: 1.736e-01  t[s]:     16.30
	FillingsUpdate:  mu: -0.085919677  nElectrons: 9.000000  magneticMoment: [ Abs: 0.48031  Tot: -0.48000 ]
SCF: Cycle:  1   F: -24.437738039320987   dF: -5.491e-05   |Residual|: 3.235e-03   |deigs|: 4.601e-03  t[s]:     20.14
	FillingsUpdate:  mu: -0.086133467  nElectrons: 9.000000  magneticMoment: [ Abs: 0.48228  Tot: -0.48000 ]
SCF: Cycle:  2   F: -24.437775933833283   dF: -3.789e-05   |Residual|: 2.253e-03   |deigs|: 2.101e-03  t[s]:     23.96
	FillingsUpdate:  mu: -0.086368325  nElectrons: 9.000000  magneticMoment: [ Abs: 0.48282  Tot: -0.48000 ]
SCF: Cycle:  3   F: -24.437796123441398   dF: -2.019e-05   |Residual|: 1.439e-03   |deigs|: 2.695e-03  t[s]:     27.81
	FillingsUpdate:  mu: -0.086416338  nElectrons: 9.000000  magneticMoment: [ Abs: 0.48100  Tot: -0.48000 ]
SCF: Cycle:  4   F: -24.437805657243498   dF: -9.534e-06   |Residual|: 7.600e-04   |deigs|: 2.562e-03  t[s]:     31.70
	FillingsUpdate:  mu: -0.086443741  nElectrons: 9.000000  magneticMoment: [ Abs: 0.48172  Tot: -0.48000 ]
SCF: Cycle:  5   F: -24.437811847798852   dF: -6.191e-06   |Residual|: 5.009e-04   |deigs|: 1.259e-03  t[s]:     35.67
	FillingsUpdate:  mu: -0.086327850  nElectrons: 9.000000  magneticMoment: [ Abs: 0.48155  Tot: -0.48000 ]
SCF: Cycle:  6   F: -24.437815314079241   dF: -3.466e-06   |Residual|: 3.639e-04   |deigs|: 1.516e-03  t[s]:     39.68
	FillingsUpdate:  mu: -0.086147718  nElectrons: 9.000000  magneticMoment: [ Abs: 0.48180  Tot: -0.48000 ]
SCF: Cycle:  7   F: -24.437816098131524   dF: -7.841e-07   |Residual|: 2.957e-04   |deigs|: 6.383e-04  t[s]:     43.84
	FillingsUpdate:  mu: -0.085898255  nElectrons: 9.000000  magneticMoment: [ Abs: 0.48268  Tot: -0.48000 ]
SCF: Cycle:  8   F: -24.437816286188031   dF: -1.881e-07   |Residual|: 2.402e-04   |deigs|: 3.513e-04  t[s]:     48.01
	FillingsUpdate:  mu: -0.085541382  nElectrons: 9.000000  magneticMoment: [ Abs: 0.48284  Tot: -0.48000 ]
SCF: Cycle:  9   F: -24.437815336755307   dF: +9.494e-07   |Residual|: 2.082e-04   |deigs|: 4.374e-04  t[s]:     52.25
	FillingsUpdate:  mu: -0.085302878  nElectrons: 9.000000  magneticMoment: [ Abs: 0.48263  Tot: -0.48000 ]
SCF: Cycle: 10   F: -24.437815171583853   dF: +1.652e-07   |Residual|: 1.906e-04   |deigs|: 4.290e-04  t[s]:     56.54
	FillingsUpdate:  mu: -0.085216462  nElectrons: 9.000000  magneticMoment: [ Abs: 0.48249  Tot: -0.48000 ]
SCF: Cycle: 11   F: -24.437816821285463   dF: -1.650e-06   |Residual|: 1.426e-04   |deigs|: 2.811e-04  t[s]:     60.91
	FillingsUpdate:  mu: -0.084982214  nElectrons: 9.000000  magneticMoment: [ Abs: 0.48286  Tot: -0.48000 ]
SCF: Cycle: 12   F: -24.437817085086685   dF: -2.638e-07   |Residual|: 1.343e-04   |deigs|: 4.792e-04  t[s]:     65.17
	FillingsUpdate:  mu: -0.084563214  nElectrons: 9.000000  magneticMoment: [ Abs: 0.48255  Tot: -0.48000 ]
SCF: Cycle: 13   F: -24.437816650677835   dF: +4.344e-07   |Residual|: 1.353e-04   |deigs|: 5.382e-04  t[s]:     69.49
	FillingsUpdate:  mu: -0.084373097  nElectrons: 9.000000  magneticMoment: [ Abs: 0.48219  Tot: -0.48000 ]
SCF: Cycle: 14   F: -24.437816553283266   dF: +9.739e-08   |Residual|: 1.253e-04   |deigs|: 2.203e-04  t[s]:     73.80
	FillingsUpdate:  mu: -0.084276225  nElectrons: 9.000000  magneticMoment: [ Abs: 0.48241  Tot: -0.48000 ]
SCF: Cycle: 15   F: -24.437817402819576   dF: -8.495e-07   |Residual|: 1.066e-04   |deigs|: 1.311e-04  t[s]:     78.13
	FillingsUpdate:  mu: -0.084064042  nElectrons: 9.000000  magneticMoment: [ Abs: 0.48184  Tot: -0.48000 ]
SCF: Cycle: 16   F: -24.437818109202819   dF: -7.064e-07   |Residual|: 7.457e-05   |deigs|: 2.506e-04  t[s]:     82.38
	FillingsUpdate:  mu: -0.083943772  nElectrons: 9.000000  magneticMoment: [ Abs: 0.48169  Tot: -0.48000 ]
SCF: Cycle: 17   F: -24.437818366717867   dF: -2.575e-07   |Residual|: 5.216e-05   |deigs|: 1.361e-04  t[s]:     86.64
	FillingsUpdate:  mu: -0.083929866  nElectrons: 9.000000  magneticMoment: [ Abs: 0.48166  Tot: -0.48000 ]
SCF: Cycle: 18   F: -24.437818462659116   dF: -9.594e-08   |Residual|: 3.508e-05   |deigs|: 4.229e-05  t[s]:     90.90
	FillingsUpdate:  mu: -0.083932891  nElectrons: 9.000000  magneticMoment: [ Abs: 0.48168  Tot: -0.48000 ]
SCF: Cycle: 19   F: -24.437818545802500   dF: -8.314e-08   |Residual|: 1.934e-05   |deigs|: 2.557e-05  t[s]:     95.28
	FillingsUpdate:  mu: -0.083928172  nElectrons: 9.000000  magneticMoment: [ Abs: 0.48167  Tot: -0.48000 ]
SCF: Cycle: 20   F: -24.437818562035464   dF: -1.623e-08   |Residual|: 1.336e-05   |deigs|: 1.262e-05  t[s]:     99.45
	FillingsUpdate:  mu: -0.083933039  nElectrons: 9.000000  magneticMoment: [ Abs: 0.48167  Tot: -0.48000 ]
SCF: Cycle: 21   F: -24.437818572002630   dF: -9.967e-09   |Residual|: 8.841e-06   |deigs|: 1.123e-05  t[s]:    103.76
	FillingsUpdate:  mu: -0.083933611  nElectrons: 9.000000  magneticMoment: [ Abs: 0.48168  Tot: -0.48000 ]
SCF: Cycle: 22   F: -24.437818577905347   dF: -5.903e-09   |Residual|: 5.730e-06   |deigs|: 5.941e-06  t[s]:    108.11
SCF: Converged (|Delta E|<1.000000e-08 for 2 iters).


# Ionic positions in lattice coordinates:
ion Rb   0.000000000000000   0.000000000000000   0.000000000000000 0

# Forces in Lattice coordinates:
force Rb   0.000000000000000   0.000000000000000   0.000000000000000 0

# Energy components:
   Eewald =      -12.0320174002217755
       EH =        7.4964489898746542
     Eloc =      -22.4074229984147131
      Enl =       -0.7973433807220882
   Epulay =       -0.0000000014467880
      Exc =       -3.6482267344724457
       KE =        6.9507434775623045
-------------------------------------
     Etot =      -24.4378180478408531
       TS =        0.0000005300644922
-------------------------------------
        F =      -24.4378185779053467

IonicMinimize: Iter:   0  F: -24.437818577905347  |grad|_K:  0.000e+00  t[s]:    108.37
IonicMinimize: Converged (|grad|_K<1.000000e-04).

#--- Lowdin population analysis ---
# oxidation-state Rb +0.034
# magnetic-moments Rb -0.453

End date and time: Sun Feb  6 12:43:42 2022  (Duration: 0-0:01:48.42)
Done!
scale=4
magnetization=-0.48
--------------------------------------------------------------------------
The library attempted to open the following supporting CUDA libraries,
but each of them failed.  CUDA-aware support is disabled.
libcuda.so.1: cannot open shared object file: No such file or directory
libcuda.dylib: cannot open shared object file: No such file or directory
/usr/lib64/libcuda.so.1: cannot open shared object file: No such file or directory
/usr/lib64/libcuda.dylib: cannot open shared object file: No such file or directory
If you are not interested in CUDA-aware support, then run with
--mca opal_warn_on_missing_libcuda 0 to suppress this message.  If you are interested
in CUDA-aware support, then try setting LD_LIBRARY_PATH to the location
of libcuda.so.1 to get passed this issue.
--------------------------------------------------------------------------
--------------------------------------------------------------------------
No OpenFabrics connection schemes reported that they were able to be
used on a specific port.  As such, the openib BTL (OpenFabrics
support) will be disabled for this port.

  Local host:           d-16-5-2
  Local device:         mlx5_1
  Local port:           1
  CPCs attempted:       rdmacm, udcm
--------------------------------------------------------------------------

*************** JDFTx 1.6.0 (git hash 42ebbcc2) ***************

Start date and time: Sun Feb  6 12:43:43 2022
Executable jdftx with command-line: -i Alkali.in
Running on hosts (process indices):  d-16-5-2 (0-18)
Divided in process groups (process indices):  0 (0)  1 (1)  2 (2)  3 (3)  4 (4)  5 (5)  6 (6)  7 (7)  8 (8)  9 (9)  10 (10)  11 (11)  12 (12)  13 (13)  14 (14)  15 (15)  16 (16)  17 (17)  18 (18)
Resource initialization completed at t[s]:      0.00
Run totals: 19 processes, 48 threads, 0 GPUs


Input parsed successfully to the following command list (including defaults):

basis kpoint-dependent
coords-type Lattice
core-overlap-check vector
coulomb-interaction Slab 001
davidson-band-ratio 1.1
dump End None
dump-name $INPUT.$VAR
elec-cutoff 20
elec-eigen-algo Davidson
elec-ex-corr gga-PBE
elec-initial-magnetization -0.480000 yes
elec-smearing Fermi 1e-05
electronic-minimize  \
	dirUpdateScheme      FletcherReeves \
	linminMethod         DirUpdateRecommended \
	nIterations          100 \
	history              15 \
	knormThreshold       0 \
	energyDiffThreshold  1e-08 \
	nEnergyDiff          2 \
	alphaTstart          1 \
	alphaTmin            1e-10 \
	updateTestStepSize   yes \
	alphaTreduceFactor   0.1 \
	alphaTincreaseFactor 3 \
	nAlphaAdjustMax      3 \
	wolfeEnergy          0.0001 \
	wolfeGradient        0.9 \
	fdTest               no
electronic-scf  \
	nIterations	10000 \
	energyDiffThreshold	1e-08 \
	residualThreshold	1e-07 \
	mixFraction	0.5 \
	qMetric	0.8 \
	history	10 \
	nEigSteps	2 \
	eigDiffThreshold	1e-08 \
	mixedVariable	Density \
	qKerker	0.8 \
	qKappa	-1 \
	verbose	no \
	mixFractionMag	1.5
exchange-regularization WignerSeitzTruncated
fluid None
fluid-ex-corr (null) lda-PZ
fluid-gummel-loop 10 1.000000e-05
fluid-minimize  \
	dirUpdateScheme      PolakRibiere \
	linminMethod         DirUpdateRecommended \
	nIterations          100 \
	history              15 \
	knormThreshold       0 \
	energyDiffThreshold  0 \
	nEnergyDiff          2 \
	alphaTstart          1 \
	alphaTmin            1e-10 \
	updateTestStepSize   yes \
	alphaTreduceFactor   0.1 \
	alphaTincreaseFactor 3 \
	nAlphaAdjustMax      3 \
	wolfeEnergy          0.0001 \
	wolfeGradient        0.9 \
	fdTest               no
fluid-solvent H2O 55.338 ScalarEOS \
	epsBulk 78.4 \
	pMol 0.92466 \
	epsInf 1.77 \
	Pvap 1.06736e-10 \
	sigmaBulk 4.62e-05 \
	Rvdw 2.61727 \
	Res 1.42 \
	tauNuc 343133 \
	poleEl 15 7 1
forces-output-coords Positions
ion Rb   0.000000000000000   0.000000000000000   0.000000000000000 0
ion-species SG15/$ID_ONCV_PBE.upf
ion-width 0
ionic-minimize  \
	dirUpdateScheme      L-BFGS \
	linminMethod         DirUpdateRecommended \
	nIterations          0 \
	history              15 \
	knormThreshold       0.0001 \
	energyDiffThreshold  1e-06 \
	nEnergyDiff          2 \
	alphaTstart          1 \
	alphaTmin            1e-10 \
	updateTestStepSize   yes \
	alphaTreduceFactor   0.1 \
	alphaTincreaseFactor 3 \
	nAlphaAdjustMax      3 \
	wolfeEnergy          0.0001 \
	wolfeGradient        0.9 \
	fdTest               no
kpoint   0.000000000000   0.000000000000   0.000000000000  1.00000000000000
kpoint-folding 12 12 1 
latt-move-scale 1 1 1
latt-scale 4 4 1 
lattice  \
	   4.727486978767153   -2.363743489383575    0.000000000000000  \
	  -0.000000000000000    4.094123819672498    0.000000000000000  \
	   0.000000000000000    0.000000000000000   40.000000000000000 
lattice-minimize  \
	dirUpdateScheme      L-BFGS \
	linminMethod         DirUpdateRecommended \
	nIterations          0 \
	history              15 \
	knormThreshold       0 \
	energyDiffThreshold  1e-06 \
	nEnergyDiff          2 \
	alphaTstart          1 \
	alphaTmin            1e-10 \
	updateTestStepSize   yes \
	alphaTreduceFactor   0.1 \
	alphaTincreaseFactor 3 \
	nAlphaAdjustMax      3 \
	wolfeEnergy          0.0001 \
	wolfeGradient        0.9 \
	fdTest               no
lcao-params -1 1e-06 1e-05
pcm-variant GLSSA13
spintype z-spin
subspace-rotation-factor 1 yes
symmetries automatic
symmetry-threshold 0.0001



---------- Setting up symmetries ----------

Found 24 point-group symmetries of the bravais lattice
Found 24 space-group symmetries with basis
Applied RMS atom displacement 0 bohrs to make symmetries exact.

---------- Initializing the Grid ----------
R = 
[      18.9099     -9.45497            0  ]
[            0      16.3765            0  ]
[            0            0           40  ]
unit cell volume = 12387.1
G =
[   0.332269   0.191835         -0  ]
[          0   0.383671         -0  ]
[         -0         -0    0.15708  ]
Minimum fftbox size, Smin = [  80  80  164  ]
Chosen fftbox size, S = [  80  80  168  ]

---------- Exchange Correlation functional ----------
Initalized PBE GGA exchange.
Initalized PBE GGA correlation.

---------- Setting up pseudopotentials ----------
Width of ionic core gaussian charges (only for fluid interactions / plotting) set to 0

Reading pseudopotential file '/home/gridsan/aligho/DFT/build-Nov24/pseudopotentials/SG15/Rb_ONCV_PBE.upf':
  'Rb' pseudopotential, 'PBE' functional
  Generated using ONCVPSP code by D. R. Hamann
  Author: Martin Schlipf and Francois Gygi  Date: 150915.
  9 valence electrons, 3 orbitals, 6 projectors, 2308 radial grid points, with lMax = 2
  Transforming local potential to a uniform radial grid of dG=0.02 with 1489 points.
  Transforming nonlocal projectors to a uniform radial grid of dG=0.02 with 432 points.
    4S    l: 0   occupation:  2.0   eigenvalue: -1.172069
    4P    l: 1   occupation:  6.0   eigenvalue: -0.586674
    5S    l: 0   occupation:  1.0   eigenvalue: -0.082006
  Transforming atomic orbitals to a uniform radial grid of dG=0.02 with 432 points.
  Core radius for overlap checks: 2.60 bohrs.
  Reading pulay file /home/gridsan/aligho/DFT/build-Nov24/pseudopotentials/SG15/Rb_ONCV_PBE.pulay ... using dE_dnG = -1.360715e-05 computed for Ecut = 20.

Initialized 1 species with 1 total atoms.

Folded 1 k-points by 12x12x1 to 144 k-points.

---------- Setting up k-points, bands, fillings ----------
Reduced to 19 k-points under symmetry. 
Computing the number of bands and number of electrons
Calculating initial fillings.
nElectrons:   9.000000   nBands: 6   nStates: 38

----- Setting up reduced wavefunction bases (one per k-point) -----
average nbasis = 52924.021 , ideal nbasis = 52918.836

---------- Setting up coulomb interaction ----------
Initialized slab truncation along lattice direction 001

---------- Setting up 2D ewald sum ----------
Optimum gaussian width for ewald sums = 10.498040 bohr.
Real space sums over 289 unit cells with max indices [  8  8  0  ]
Reciprocal space sums over 81 terms with max indices [  4  4  0  ]

---------- Allocating electronic variables ----------
Initializing wave functions:  linear combination of atomic orbitals
Note: number of bands (6) exceeds available atomic orbitals (5)
Rb pseudo-atom occupations:   s ( 2 1 )  p ( 6 )
[d-16-5-2:58874] 18 more processes have sent help message help-mpi-common-cuda.txt / dlopen failed
[d-16-5-2:58874] Set MCA parameter "orte_base_help_aggregate" to 0 to see all help / error messages
[d-16-5-2:58874] 18 more processes have sent help message help-mpi-btl-openib-cpc-base.txt / no cpcs for port
	FillingsUpdate:  mu: -0.082562386  nElectrons: 9.000000  magneticMoment: [ Abs: 0.48000  Tot: -0.48000 ]
LCAOMinimize: Iter:   0  F: -24.4313138391403406  |grad|_K:  4.210e-06  alpha:  1.000e+00
	FillingsUpdate:  mu: -0.082561438  nElectrons: 9.000000  magneticMoment: [ Abs: 0.48000  Tot: -0.48000 ]
LCAOMinimize: Iter:   1  F: -24.4313138511213808  |grad|_K:  2.157e-08  alpha:  9.882e-01  linmin: -7.693e-04  cgtest:  2.138e-01  t[s]:     15.22
LCAOMinimize: Encountered beta<0, resetting CG.
	FillingsUpdate:  mu: -0.082561438  nElectrons: 9.000000  magneticMoment: [ Abs: 0.48000  Tot: -0.48000 ]
LCAOMinimize: Iter:   2  F: -24.4313138511216472  |grad|_K:  1.066e-08  alpha:  5.055e-01  linmin: -2.920e-03  cgtest:  1.000e+00  t[s]:     19.24
LCAOMinimize: Encountered beta<0, resetting CG.
LCAOMinimize: Converged (|Delta F|<1.000000e-06 for 2 iters).


---- Citations for features of the code used in this run ----

   Software package:
      R. Sundararaman, K. Letchworth-Weaver, K.A. Schwarz, D. Gunceler, Y. Ozhabes and T.A. Arias, 'JDFTx: software for joint density-functional theory', SoftwareX 6, 278 (2017)

   gga-PBE exchange-correlation functional:
      J.P. Perdew, K. Burke and M. Ernzerhof, Phys. Rev. Lett. 77, 3865 (1996)

   Pseudopotentials:
      M Schlipf and F Gygi, Comput. Phys. Commun. 196, 36 (2015)

   Truncated Coulomb potentials:
      R. Sundararaman and T.A. Arias, Phys. Rev. B 87, 165122 (2013)

This list may not be complete. Please suggest additional citations or
report any other bugs at https://github.com/shankar1729/jdftx/issues

Initialization completed successfully at t[s]:     19.51


-------- Electronic minimization -----------
Will mix electronic density at each iteration.
	FillingsUpdate:  mu: -0.082561438  nElectrons: 9.000000  magneticMoment: [ Abs: 0.48000  Tot: -0.48000 ]
	FillingsUpdate:  mu: -0.082662098  nElectrons: 9.000000  magneticMoment: [ Abs: 0.48000  Tot: -0.48000 ]
SCF: Cycle:  0   F: -24.431416653728320   dF: -1.028e-04   |Residual|: 1.158e-03   |deigs|: 1.743e-01  t[s]:     27.74
	FillingsUpdate:  mu: -0.082679006  nElectrons: 9.000000  magneticMoment: [ Abs: 0.48226  Tot: -0.48000 ]
SCF: Cycle:  1   F: -24.431418399723682   dF: -1.746e-06   |Residual|: 3.977e-04   |deigs|: 5.308e-03  t[s]:     34.20
	FillingsUpdate:  mu: -0.082695374  nElectrons: 9.000000  magneticMoment: [ Abs: 0.48240  Tot: -0.48000 ]
SCF: Cycle:  2   F: -24.431418885260030   dF: -4.855e-07   |Residual|: 2.792e-04   |deigs|: 1.494e-03  t[s]:     40.75
	FillingsUpdate:  mu: -0.082716665  nElectrons: 9.000000  magneticMoment: [ Abs: 0.48291  Tot: -0.48000 ]
SCF: Cycle:  3   F: -24.431419174111873   dF: -2.889e-07   |Residual|: 2.151e-04   |deigs|: 9.417e-04  t[s]:     47.49
	FillingsUpdate:  mu: -0.082738848  nElectrons: 9.000000  magneticMoment: [ Abs: 0.48280  Tot: -0.48000 ]
SCF: Cycle:  4   F: -24.431419566508062   dF: -3.924e-07   |Residual|: 1.557e-04   |deigs|: 2.365e-04  t[s]:     54.24
	FillingsUpdate:  mu: -0.082768389  nElectrons: 9.000000  magneticMoment: [ Abs: 0.48291  Tot: -0.48000 ]
SCF: Cycle:  5   F: -24.431419844896414   dF: -2.784e-07   |Residual|: 1.034e-04   |deigs|: 5.134e-04  t[s]:     61.17
	FillingsUpdate:  mu: -0.082772089  nElectrons: 9.000000  magneticMoment: [ Abs: 0.48290  Tot: -0.48000 ]
SCF: Cycle:  6   F: -24.431420021564840   dF: -1.767e-07   |Residual|: 6.894e-05   |deigs|: 6.060e-04  t[s]:     68.21
	FillingsUpdate:  mu: -0.082770404  nElectrons: 9.000000  magneticMoment: [ Abs: 0.48289  Tot: -0.48000 ]
SCF: Cycle:  7   F: -24.431420124255766   dF: -1.027e-07   |Residual|: 5.089e-05   |deigs|: 7.162e-04  t[s]:     75.36
	FillingsUpdate:  mu: -0.082756216  nElectrons: 9.000000  magneticMoment: [ Abs: 0.48287  Tot: -0.48000 ]
SCF: Cycle:  8   F: -24.431420176501838   dF: -5.225e-08   |Residual|: 4.050e-05   |deigs|: 1.525e-04  t[s]:     82.57
	FillingsUpdate:  mu: -0.082726966  nElectrons: 9.000000  magneticMoment: [ Abs: 0.48281  Tot: -0.48000 ]
SCF: Cycle:  9   F: -24.431420212241463   dF: -3.574e-08   |Residual|: 3.120e-05   |deigs|: 6.586e-05  t[s]:     90.00
	FillingsUpdate:  mu: -0.082702942  nElectrons: 9.000000  magneticMoment: [ Abs: 0.48282  Tot: -0.48000 ]
SCF: Cycle: 10   F: -24.431420205271269   dF: +6.970e-09   |Residual|: 2.867e-05   |deigs|: 1.189e-04  t[s]:     97.51
	FillingsUpdate:  mu: -0.082674320  nElectrons: 9.000000  magneticMoment: [ Abs: 0.48297  Tot: -0.48000 ]
SCF: Cycle: 11   F: -24.431420178276401   dF: +2.699e-08   |Residual|: 2.750e-05   |deigs|: 1.500e-04  t[s]:    105.00
	FillingsUpdate:  mu: -0.082640331  nElectrons: 9.000000  magneticMoment: [ Abs: 0.48301  Tot: -0.48000 ]
SCF: Cycle: 12   F: -24.431419998074276   dF: +1.802e-07   |Residual|: 2.429e-05   |deigs|: 1.398e-04  t[s]:    112.51
	FillingsUpdate:  mu: -0.082607525  nElectrons: 9.000000  magneticMoment: [ Abs: 0.48298  Tot: -0.48000 ]
SCF: Cycle: 13   F: -24.431420085627796   dF: -8.755e-08   |Residual|: 2.284e-05   |deigs|: 1.144e-04  t[s]:    119.88
	FillingsUpdate:  mu: -0.082585915  nElectrons: 9.000000  magneticMoment: [ Abs: 0.48301  Tot: -0.48000 ]
SCF: Cycle: 14   F: -24.431420193496152   dF: -1.079e-07   |Residual|: 1.899e-05   |deigs|: 9.627e-05  t[s]:    127.22
	FillingsUpdate:  mu: -0.082560627  nElectrons: 9.000000  magneticMoment: [ Abs: 0.48299  Tot: -0.48000 ]
SCF: Cycle: 15   F: -24.431420138099309   dF: +5.540e-08   |Residual|: 1.793e-05   |deigs|: 6.257e-05  t[s]:    134.17
	FillingsUpdate:  mu: -0.082533858  nElectrons: 9.000000  magneticMoment: [ Abs: 0.48291  Tot: -0.48000 ]
SCF: Cycle: 16   F: -24.431420167491289   dF: -2.939e-08   |Residual|: 1.623e-05   |deigs|: 4.311e-05  t[s]:    141.64
	FillingsUpdate:  mu: -0.082524527  nElectrons: 9.000000  magneticMoment: [ Abs: 0.48287  Tot: -0.48000 ]
SCF: Cycle: 17   F: -24.431420170529616   dF: -3.038e-09   |Residual|: 1.298e-05   |deigs|: 2.294e-05  t[s]:    149.15
	FillingsUpdate:  mu: -0.082517826  nElectrons: 9.000000  magneticMoment: [ Abs: 0.48283  Tot: -0.48000 ]
SCF: Cycle: 18   F: -24.431420221872521   dF: -5.134e-08   |Residual|: 9.616e-06   |deigs|: 1.293e-05  t[s]:    156.73
	FillingsUpdate:  mu: -0.082510710  nElectrons: 9.000000  magneticMoment: [ Abs: 0.48280  Tot: -0.48000 ]
SCF: Cycle: 19   F: -24.431420225420560   dF: -3.548e-09   |Residual|: 7.529e-06   |deigs|: 7.606e-06  t[s]:    163.60
	FillingsUpdate:  mu: -0.082507575  nElectrons: 9.000000  magneticMoment: [ Abs: 0.48281  Tot: -0.48000 ]
SCF: Cycle: 20   F: -24.431420268366324   dF: -4.295e-08   |Residual|: 5.226e-06   |deigs|: 3.749e-06  t[s]:    171.09
	FillingsUpdate:  mu: -0.082507581  nElectrons: 9.000000  magneticMoment: [ Abs: 0.48281  Tot: -0.48000 ]
SCF: Cycle: 21   F: -24.431420273074050   dF: -4.708e-09   |Residual|: 3.918e-06   |deigs|: 5.352e-06  t[s]:    177.95
	FillingsUpdate:  mu: -0.082507462  nElectrons: 9.000000  magneticMoment: [ Abs: 0.48281  Tot: -0.48000 ]
SCF: Cycle: 22   F: -24.431420274531998   dF: -1.458e-09   |Residual|: 2.831e-06   |deigs|: 7.942e-06  t[s]:    185.38
SCF: Converged (|Delta E|<1.000000e-08 for 2 iters).


# Ionic positions in lattice coordinates:
ion Rb   0.000000000000000   0.000000000000000   0.000000000000000 0

# Forces in Lattice coordinates:
force Rb   0.000000000000000   0.000000000000000   0.000000000000000 0

# Energy components:
   Eewald =       -9.0240130501663280
       EH =       10.5273133706084945
     Eloc =      -28.4518390183549172
      Enl =       -0.7928808642288681
   Epulay =        0.0000000056959385
      Exc =       -3.6494831823843992
       KE =        6.9594837948680421
-------------------------------------
     Etot =      -24.4314189439620364
       TS =        0.0000013305699621
-------------------------------------
        F =      -24.4314202745319982

IonicMinimize: Iter:   0  F: -24.431420274531998  |grad|_K:  0.000e+00  t[s]:    185.80
IonicMinimize: Converged (|grad|_K<1.000000e-04).

#--- Lowdin population analysis ---
# oxidation-state Rb +0.002
# magnetic-moments Rb -0.479

End date and time: Sun Feb  6 12:46:49 2022  (Duration: 0-0:03:05.86)
Done!
