The alkali metal is Rb
scale=2
magnetization=-0.24
--------------------------------------------------------------------------
The library attempted to open the following supporting CUDA libraries,
but each of them failed.  CUDA-aware support is disabled.
libcuda.so.1: cannot open shared object file: No such file or directory
libcuda.dylib: cannot open shared object file: No such file or directory
/usr/lib64/libcuda.so.1: cannot open shared object file: No such file or directory
/usr/lib64/libcuda.dylib: cannot open shared object file: No such file or directory
If you are not interested in CUDA-aware support, then run with
--mca opal_warn_on_missing_libcuda 0 to suppress this message.  If you are interested
in CUDA-aware support, then try setting LD_LIBRARY_PATH to the location
of libcuda.so.1 to get passed this issue.
--------------------------------------------------------------------------
--------------------------------------------------------------------------
No OpenFabrics connection schemes reported that they were able to be
used on a specific port.  As such, the openib BTL (OpenFabrics
support) will be disabled for this port.

  Local host:           d-17-8-4
  Local device:         mlx5_1
  Local port:           1
  CPCs attempted:       rdmacm, udcm
--------------------------------------------------------------------------

*************** JDFTx 1.6.0 (git hash 42ebbcc2) ***************

Start date and time: Sun Feb  6 12:41:28 2022
Executable jdftx with command-line: -i Alkali.in
Running on hosts (process indices):  d-17-8-4 (0-18)
Divided in process groups (process indices):  0 (0)  1 (1)  2 (2)  3 (3)  4 (4)  5 (5)  6 (6)  7 (7)  8 (8)  9 (9)  10 (10)  11 (11)  12 (12)  13 (13)  14 (14)  15 (15)  16 (16)  17 (17)  18 (18)
Resource initialization completed at t[s]:      0.00
Run totals: 19 processes, 48 threads, 0 GPUs


Input parsed successfully to the following command list (including defaults):

basis kpoint-dependent
coords-type Lattice
core-overlap-check vector
coulomb-interaction Slab 001
davidson-band-ratio 1.1
dump End None
dump-name $INPUT.$VAR
elec-cutoff 20
elec-eigen-algo Davidson
elec-ex-corr gga-PBE
elec-initial-magnetization -0.240000 yes
elec-smearing Fermi 1e-05
electronic-minimize  \
	dirUpdateScheme      FletcherReeves \
	linminMethod         DirUpdateRecommended \
	nIterations          100 \
	history              15 \
	knormThreshold       0 \
	energyDiffThreshold  1e-08 \
	nEnergyDiff          2 \
	alphaTstart          1 \
	alphaTmin            1e-10 \
	updateTestStepSize   yes \
	alphaTreduceFactor   0.1 \
	alphaTincreaseFactor 3 \
	nAlphaAdjustMax      3 \
	wolfeEnergy          0.0001 \
	wolfeGradient        0.9 \
	fdTest               no
electronic-scf  \
	nIterations	10000 \
	energyDiffThreshold	1e-08 \
	residualThreshold	1e-07 \
	mixFraction	0.5 \
	qMetric	0.8 \
	history	10 \
	nEigSteps	2 \
	eigDiffThreshold	1e-08 \
	mixedVariable	Density \
	qKerker	0.8 \
	qKappa	-1 \
	verbose	no \
	mixFractionMag	1.5
exchange-regularization WignerSeitzTruncated
fluid None
fluid-ex-corr (null) lda-PZ
fluid-gummel-loop 10 1.000000e-05
fluid-minimize  \
	dirUpdateScheme      PolakRibiere \
	linminMethod         DirUpdateRecommended \
	nIterations          100 \
	history              15 \
	knormThreshold       0 \
	energyDiffThreshold  0 \
	nEnergyDiff          2 \
	alphaTstart          1 \
	alphaTmin            1e-10 \
	updateTestStepSize   yes \
	alphaTreduceFactor   0.1 \
	alphaTincreaseFactor 3 \
	nAlphaAdjustMax      3 \
	wolfeEnergy          0.0001 \
	wolfeGradient        0.9 \
	fdTest               no
fluid-solvent H2O 55.338 ScalarEOS \
	epsBulk 78.4 \
	pMol 0.92466 \
	epsInf 1.77 \
	Pvap 1.06736e-10 \
	sigmaBulk 4.62e-05 \
	Rvdw 2.61727 \
	Res 1.42 \
	tauNuc 343133 \
	poleEl 15 7 1
forces-output-coords Positions
ion Rb   0.000000000000000   0.000000000000000   0.000000000000000 0
ion-species SG15/$ID_ONCV_PBE.upf
ion-width 0
ionic-minimize  \
	dirUpdateScheme      L-BFGS \
	linminMethod         DirUpdateRecommended \
	nIterations          0 \
	history              15 \
	knormThreshold       0.0001 \
	energyDiffThreshold  1e-06 \
	nEnergyDiff          2 \
	alphaTstart          1 \
	alphaTmin            1e-10 \
	updateTestStepSize   yes \
	alphaTreduceFactor   0.1 \
	alphaTincreaseFactor 3 \
	nAlphaAdjustMax      3 \
	wolfeEnergy          0.0001 \
	wolfeGradient        0.9 \
	fdTest               no
kpoint   0.000000000000   0.000000000000   0.000000000000  1.00000000000000
kpoint-folding 12 12 1 
latt-move-scale 1 1 1
latt-scale 2 2 1 
lattice  \
	   4.727486978767153   -2.363743489383575    0.000000000000000  \
	  -0.000000000000000    4.094123819672498    0.000000000000000  \
	   0.000000000000000    0.000000000000000   40.000000000000000 
lattice-minimize  \
	dirUpdateScheme      L-BFGS \
	linminMethod         DirUpdateRecommended \
	nIterations          0 \
	history              15 \
	knormThreshold       0 \
	energyDiffThreshold  1e-06 \
	nEnergyDiff          2 \
	alphaTstart          1 \
	alphaTmin            1e-10 \
	updateTestStepSize   yes \
	alphaTreduceFactor   0.1 \
	alphaTincreaseFactor 3 \
	nAlphaAdjustMax      3 \
	wolfeEnergy          0.0001 \
	wolfeGradient        0.9 \
	fdTest               no
lcao-params -1 1e-06 1e-05
pcm-variant GLSSA13
spintype z-spin
subspace-rotation-factor 1 yes
symmetries automatic
symmetry-threshold 0.0001



---------- Setting up symmetries ----------

Found 24 point-group symmetries of the bravais lattice
Found 24 space-group symmetries with basis
Applied RMS atom displacement 0 bohrs to make symmetries exact.

---------- Initializing the Grid ----------
R = 
[      9.45497     -4.72749            0  ]
[            0      8.18825            0  ]
[            0            0           40  ]
unit cell volume = 3096.79
G =
[   0.664538   0.383671         -0  ]
[          0   0.767342         -0  ]
[         -0         -0    0.15708  ]
Minimum fftbox size, Smin = [  40  40  164  ]
Chosen fftbox size, S = [  40  40  168  ]

---------- Exchange Correlation functional ----------
Initalized PBE GGA exchange.
Initalized PBE GGA correlation.

---------- Setting up pseudopotentials ----------
Width of ionic core gaussian charges (only for fluid interactions / plotting) set to 0

Reading pseudopotential file '/home/gridsan/aligho/DFT/build-Nov24/pseudopotentials/SG15/Rb_ONCV_PBE.upf':
  'Rb' pseudopotential, 'PBE' functional
  Generated using ONCVPSP code by D. R. Hamann
  Author: Martin Schlipf and Francois Gygi  Date: 150915.
  9 valence electrons, 3 orbitals, 6 projectors, 2308 radial grid points, with lMax = 2
  Transforming local potential to a uniform radial grid of dG=0.02 with 1489 points.
  Transforming nonlocal projectors to a uniform radial grid of dG=0.02 with 432 points.
    4S    l: 0   occupation:  2.0   eigenvalue: -1.172069
    4P    l: 1   occupation:  6.0   eigenvalue: -0.586674
    5S    l: 0   occupation:  1.0   eigenvalue: -0.082006
  Transforming atomic orbitals to a uniform radial grid of dG=0.02 with 432 points.
  Core radius for overlap checks: 2.60 bohrs.
  Reading pulay file /home/gridsan/aligho/DFT/build-Nov24/pseudopotentials/SG15/Rb_ONCV_PBE.pulay ... using dE_dnG = -1.360715e-05 computed for Ecut = 20.

Initialized 1 species with 1 total atoms.

Folded 1 k-points by 12x12x1 to 144 k-points.

---------- Setting up k-points, bands, fillings ----------
Reduced to 19 k-points under symmetry. 
Computing the number of bands and number of electrons
Calculating initial fillings.
nElectrons:   9.000000   nBands: 6   nStates: 38

----- Setting up reduced wavefunction bases (one per k-point) -----
average nbasis = 13230.521 , ideal nbasis = 13229.709

---------- Setting up coulomb interaction ----------
Initialized slab truncation along lattice direction 001

---------- Setting up 2D ewald sum ----------
Optimum gaussian width for ewald sums = 5.249020 bohr.
Real space sums over 289 unit cells with max indices [  8  8  0  ]
Reciprocal space sums over 81 terms with max indices [  4  4  0  ]

---------- Allocating electronic variables ----------
Initializing wave functions:  linear combination of atomic orbitals
Note: number of bands (6) exceeds available atomic orbitals (5)
Rb pseudo-atom occupations:   s ( 2 1 )  p ( 6 )
	FillingsUpdate:  mu: -0.097144125  nElectrons: 9.000000  magneticMoment: [ Abs: 0.24000  Tot: -0.24000 ]
LCAOMinimize: Iter:   0  F: -24.4494322628470258  |grad|_K:  4.192e-05  alpha:  1.000e+00
	FillingsUpdate:  mu: -0.097129106  nElectrons: 9.000000  magneticMoment: [ Abs: 0.24000  Tot: -0.24000 ]
LCAOMinimize: Iter:   1  F: -24.4494334357611862  |grad|_K:  4.429e-07  alpha:  9.759e-01  linmin: -3.874e-02  cgtest:  4.649e-01  t[s]:      4.73
LCAOMinimize: Encountered beta<0, resetting CG.
[d-17-8-4:32140] 18 more processes have sent help message help-mpi-common-cuda.txt / dlopen failed
[d-17-8-4:32140] Set MCA parameter "orte_base_help_aggregate" to 0 to see all help / error messages
[d-17-8-4:32140] 18 more processes have sent help message help-mpi-btl-openib-cpc-base.txt / no cpcs for port
	FillingsUpdate:  mu: -0.097129151  nElectrons: 9.000000  magneticMoment: [ Abs: 0.24000  Tot: -0.24000 ]
LCAOMinimize: Iter:   2  F: -24.4494334358957381  |grad|_K:  1.880e-09  alpha:  1.005e+00  linmin:  1.409e-01  cgtest: -9.543e-01  t[s]:      5.95
LCAOMinimize: 	Wrong curvature in test step, increasing alphaT to 3.015278e+00.
	FillingsUpdate:  mu: -0.097129151  nElectrons: 9.000000  magneticMoment: [ Abs: 0.24000  Tot: -0.24000 ]
LCAOMinimize: Iter:   3  F: -24.4494334358960153  |grad|_K:  1.802e-09  alpha: -7.534e-04  linmin:  5.274e-04  cgtest:  9.519e-01  t[s]:      7.13
LCAOMinimize: Converged (|Delta F|<1.000000e-06 for 2 iters).


---- Citations for features of the code used in this run ----

   Software package:
      R. Sundararaman, K. Letchworth-Weaver, K.A. Schwarz, D. Gunceler, Y. Ozhabes and T.A. Arias, 'JDFTx: software for joint density-functional theory', SoftwareX 6, 278 (2017)

   gga-PBE exchange-correlation functional:
      J.P. Perdew, K. Burke and M. Ernzerhof, Phys. Rev. Lett. 77, 3865 (1996)

   Pseudopotentials:
      M Schlipf and F Gygi, Comput. Phys. Commun. 196, 36 (2015)

   Truncated Coulomb potentials:
      R. Sundararaman and T.A. Arias, Phys. Rev. B 87, 165122 (2013)

This list may not be complete. Please suggest additional citations or
report any other bugs at https://github.com/shankar1729/jdftx/issues

Initialization completed successfully at t[s]:      7.22


-------- Electronic minimization -----------
Will mix electronic density at each iteration.
	FillingsUpdate:  mu: -0.097129151  nElectrons: 9.000000  magneticMoment: [ Abs: 0.24000  Tot: -0.24000 ]
	FillingsUpdate:  mu: -0.105922775  nElectrons: 9.000000  magneticMoment: [ Abs: 0.24000  Tot: -0.24000 ]
SCF: Cycle:  0   F: -24.454014331957453   dF: -4.581e-03   |Residual|: 9.155e-03   |deigs|: 1.792e-01  t[s]:      9.63
	FillingsUpdate:  mu: -0.105708154  nElectrons: 9.000000  magneticMoment: [ Abs: 0.24000  Tot: -0.24000 ]
SCF: Cycle:  1   F: -24.454191958870304   dF: -1.776e-04   |Residual|: 7.058e-03   |deigs|: 7.001e-03  t[s]:     11.55
	FillingsUpdate:  mu: -0.103869978  nElectrons: 9.000000  magneticMoment: [ Abs: 0.24325  Tot: -0.24000 ]
SCF: Cycle:  2   F: -24.454285746224162   dF: -9.379e-05   |Residual|: 3.404e-03   |deigs|: 1.852e-03  t[s]:     13.41
	FillingsUpdate:  mu: -0.102731115  nElectrons: 9.000000  magneticMoment: [ Abs: 0.24003  Tot: -0.24000 ]
SCF: Cycle:  3   F: -24.454335672208508   dF: -4.993e-05   |Residual|: 2.257e-03   |deigs|: 2.651e-03  t[s]:     15.31
	FillingsUpdate:  mu: -0.101127653  nElectrons: 9.000000  magneticMoment: [ Abs: 0.24001  Tot: -0.24000 ]
SCF: Cycle:  4   F: -24.454364569006028   dF: -2.890e-05   |Residual|: 1.928e-03   |deigs|: 3.432e-03  t[s]:     17.23
	FillingsUpdate:  mu: -0.099557422  nElectrons: 9.000000  magneticMoment: [ Abs: 0.24210  Tot: -0.24000 ]
SCF: Cycle:  5   F: -24.454379910426191   dF: -1.534e-05   |Residual|: 1.365e-03   |deigs|: 3.545e-03  t[s]:     19.21
	FillingsUpdate:  mu: -0.097303819  nElectrons: 9.000000  magneticMoment: [ Abs: 0.24495  Tot: -0.24000 ]
SCF: Cycle:  6   F: -24.454381613358606   dF: -1.703e-06   |Residual|: 1.021e-03   |deigs|: 2.782e-03  t[s]:     21.23
	FillingsUpdate:  mu: -0.096083156  nElectrons: 9.000000  magneticMoment: [ Abs: 0.24356  Tot: -0.24000 ]
SCF: Cycle:  7   F: -24.454398458832927   dF: -1.685e-05   |Residual|: 9.484e-04   |deigs|: 1.353e-03  t[s]:     23.28
	FillingsUpdate:  mu: -0.096010368  nElectrons: 9.000000  magneticMoment: [ Abs: 0.24078  Tot: -0.24000 ]
SCF: Cycle:  8   F: -24.454407437510611   dF: -8.979e-06   |Residual|: 8.111e-04   |deigs|: 3.216e-04  t[s]:     25.40
	FillingsUpdate:  mu: -0.094464534  nElectrons: 9.000000  magneticMoment: [ Abs: 0.24240  Tot: -0.24000 ]
SCF: Cycle:  9   F: -24.454405816869546   dF: +1.621e-06   |Residual|: 6.709e-04   |deigs|: 1.605e-03  t[s]:     27.47
	FillingsUpdate:  mu: -0.093103736  nElectrons: 9.000000  magneticMoment: [ Abs: 0.24286  Tot: -0.24000 ]
SCF: Cycle: 10   F: -24.454402369607532   dF: +3.447e-06   |Residual|: 5.763e-04   |deigs|: 1.470e-03  t[s]:     29.55
	FillingsUpdate:  mu: -0.091927275  nElectrons: 9.000000  magneticMoment: [ Abs: 0.24206  Tot: -0.24000 ]
SCF: Cycle: 11   F: -24.454410529140922   dF: -8.160e-06   |Residual|: 4.952e-04   |deigs|: 1.237e-03  t[s]:     31.66
	FillingsUpdate:  mu: -0.090704783  nElectrons: 9.000000  magneticMoment: [ Abs: 0.24198  Tot: -0.24000 ]
SCF: Cycle: 12   F: -24.454423442954472   dF: -1.291e-05   |Residual|: 4.897e-04   |deigs|: 1.149e-03  t[s]:     33.77
	FillingsUpdate:  mu: -0.089437463  nElectrons: 9.000000  magneticMoment: [ Abs: 0.24148  Tot: -0.24000 ]
SCF: Cycle: 13   F: -24.454426733362602   dF: -3.290e-06   |Residual|: 4.326e-04   |deigs|: 1.337e-03  t[s]:     35.78
	FillingsUpdate:  mu: -0.087959568  nElectrons: 9.000000  magneticMoment: [ Abs: 0.24034  Tot: -0.24000 ]
SCF: Cycle: 14   F: -24.454430944054593   dF: -4.211e-06   |Residual|: 3.553e-04   |deigs|: 1.561e-03  t[s]:     37.86
	FillingsUpdate:  mu: -0.087591715  nElectrons: 9.000000  magneticMoment: [ Abs: 0.24061  Tot: -0.24000 ]
SCF: Cycle: 15   F: -24.454433215359487   dF: -2.271e-06   |Residual|: 2.532e-04   |deigs|: 4.114e-04  t[s]:     39.94
	FillingsUpdate:  mu: -0.087136265  nElectrons: 9.000000  magneticMoment: [ Abs: 0.24051  Tot: -0.24000 ]
SCF: Cycle: 16   F: -24.454434289234264   dF: -1.074e-06   |Residual|: 1.547e-04   |deigs|: 8.272e-04  t[s]:     42.02
	FillingsUpdate:  mu: -0.087033505  nElectrons: 9.000000  magneticMoment: [ Abs: 0.24011  Tot: -0.24000 ]
SCF: Cycle: 17   F: -24.454434647950169   dF: -3.587e-07   |Residual|: 9.141e-05   |deigs|: 2.062e-04  t[s]:     44.14
	FillingsUpdate:  mu: -0.087071337  nElectrons: 9.000000  magneticMoment: [ Abs: 0.24018  Tot: -0.24000 ]
SCF: Cycle: 18   F: -24.454434779687595   dF: -1.317e-07   |Residual|: 5.764e-05   |deigs|: 4.698e-04  t[s]:     46.24
	FillingsUpdate:  mu: -0.087091257  nElectrons: 9.000000  magneticMoment: [ Abs: 0.24008  Tot: -0.24000 ]
SCF: Cycle: 19   F: -24.454434825324686   dF: -4.564e-08   |Residual|: 2.879e-05   |deigs|: 2.398e-04  t[s]:     48.33
	FillingsUpdate:  mu: -0.087084113  nElectrons: 9.000000  magneticMoment: [ Abs: 0.24004  Tot: -0.24000 ]
SCF: Cycle: 20   F: -24.454434849348115   dF: -2.402e-08   |Residual|: 1.463e-05   |deigs|: 1.638e-04  t[s]:     50.42
	FillingsUpdate:  mu: -0.087064867  nElectrons: 9.000000  magneticMoment: [ Abs: 0.24006  Tot: -0.24000 ]
SCF: Cycle: 21   F: -24.454434855774899   dF: -6.427e-09   |Residual|: 9.036e-06   |deigs|: 1.721e-04  t[s]:     52.44
	FillingsUpdate:  mu: -0.087066361  nElectrons: 9.000000  magneticMoment: [ Abs: 0.24009  Tot: -0.24000 ]
SCF: Cycle: 22   F: -24.454434859851805   dF: -4.077e-09   |Residual|: 4.651e-06   |deigs|: 1.629e-04  t[s]:     54.62
SCF: Converged (|Delta E|<1.000000e-08 for 2 iters).


# Ionic positions in lattice coordinates:
ion Rb   0.000000000000000   0.000000000000000   0.000000000000000 0

# Forces in Lattice coordinates:
force Rb   0.000000000000000   0.000000000000000   0.000000000000000 0

# Energy components:
   Eewald =      -18.0480261003326561
       EH =        1.6476922027713690
     Eloc =      -10.5592676030272958
      Enl =       -0.7958586867046638
   Epulay =        0.0000000035676145
      Exc =       -3.6762927916209627
       KE =        6.9773184574220153
-------------------------------------
     Etot =      -24.4544345179245788
       TS =        0.0000003419272243
-------------------------------------
        F =      -24.4544348598518049

IonicMinimize: Iter:   0  F: -24.454434859851805  |grad|_K:  0.000e+00  t[s]:     54.74
IonicMinimize: Converged (|grad|_K<1.000000e-04).

#--- Lowdin population analysis ---
# oxidation-state Rb +0.038
# magnetic-moments Rb -0.217

End date and time: Sun Feb  6 12:42:23 2022  (Duration: 0-0:00:54.76)
Done!
scale=3
magnetization=-0.24
--------------------------------------------------------------------------
The library attempted to open the following supporting CUDA libraries,
but each of them failed.  CUDA-aware support is disabled.
libcuda.so.1: cannot open shared object file: No such file or directory
libcuda.dylib: cannot open shared object file: No such file or directory
/usr/lib64/libcuda.so.1: cannot open shared object file: No such file or directory
/usr/lib64/libcuda.dylib: cannot open shared object file: No such file or directory
If you are not interested in CUDA-aware support, then run with
--mca opal_warn_on_missing_libcuda 0 to suppress this message.  If you are interested
in CUDA-aware support, then try setting LD_LIBRARY_PATH to the location
of libcuda.so.1 to get passed this issue.
--------------------------------------------------------------------------
--------------------------------------------------------------------------
No OpenFabrics connection schemes reported that they were able to be
used on a specific port.  As such, the openib BTL (OpenFabrics
support) will be disabled for this port.

  Local host:           d-17-8-4
  Local device:         mlx5_1
  Local port:           1
  CPCs attempted:       rdmacm, udcm
--------------------------------------------------------------------------

*************** JDFTx 1.6.0 (git hash 42ebbcc2) ***************

Start date and time: Sun Feb  6 12:42:24 2022
Executable jdftx with command-line: -i Alkali.in
Running on hosts (process indices):  d-17-8-4 (0-18)
Divided in process groups (process indices):  0 (0)  1 (1)  2 (2)  3 (3)  4 (4)  5 (5)  6 (6)  7 (7)  8 (8)  9 (9)  10 (10)  11 (11)  12 (12)  13 (13)  14 (14)  15 (15)  16 (16)  17 (17)  18 (18)
Resource initialization completed at t[s]:      0.00
Run totals: 19 processes, 48 threads, 0 GPUs


Input parsed successfully to the following command list (including defaults):

basis kpoint-dependent
coords-type Lattice
core-overlap-check vector
coulomb-interaction Slab 001
davidson-band-ratio 1.1
dump End None
dump-name $INPUT.$VAR
elec-cutoff 20
elec-eigen-algo Davidson
elec-ex-corr gga-PBE
elec-initial-magnetization -0.240000 yes
elec-smearing Fermi 1e-05
electronic-minimize  \
	dirUpdateScheme      FletcherReeves \
	linminMethod         DirUpdateRecommended \
	nIterations          100 \
	history              15 \
	knormThreshold       0 \
	energyDiffThreshold  1e-08 \
	nEnergyDiff          2 \
	alphaTstart          1 \
	alphaTmin            1e-10 \
	updateTestStepSize   yes \
	alphaTreduceFactor   0.1 \
	alphaTincreaseFactor 3 \
	nAlphaAdjustMax      3 \
	wolfeEnergy          0.0001 \
	wolfeGradient        0.9 \
	fdTest               no
electronic-scf  \
	nIterations	10000 \
	energyDiffThreshold	1e-08 \
	residualThreshold	1e-07 \
	mixFraction	0.5 \
	qMetric	0.8 \
	history	10 \
	nEigSteps	2 \
	eigDiffThreshold	1e-08 \
	mixedVariable	Density \
	qKerker	0.8 \
	qKappa	-1 \
	verbose	no \
	mixFractionMag	1.5
exchange-regularization WignerSeitzTruncated
fluid None
fluid-ex-corr (null) lda-PZ
fluid-gummel-loop 10 1.000000e-05
fluid-minimize  \
	dirUpdateScheme      PolakRibiere \
	linminMethod         DirUpdateRecommended \
	nIterations          100 \
	history              15 \
	knormThreshold       0 \
	energyDiffThreshold  0 \
	nEnergyDiff          2 \
	alphaTstart          1 \
	alphaTmin            1e-10 \
	updateTestStepSize   yes \
	alphaTreduceFactor   0.1 \
	alphaTincreaseFactor 3 \
	nAlphaAdjustMax      3 \
	wolfeEnergy          0.0001 \
	wolfeGradient        0.9 \
	fdTest               no
fluid-solvent H2O 55.338 ScalarEOS \
	epsBulk 78.4 \
	pMol 0.92466 \
	epsInf 1.77 \
	Pvap 1.06736e-10 \
	sigmaBulk 4.62e-05 \
	Rvdw 2.61727 \
	Res 1.42 \
	tauNuc 343133 \
	poleEl 15 7 1
forces-output-coords Positions
ion Rb   0.000000000000000   0.000000000000000   0.000000000000000 0
ion-species SG15/$ID_ONCV_PBE.upf
ion-width 0
ionic-minimize  \
	dirUpdateScheme      L-BFGS \
	linminMethod         DirUpdateRecommended \
	nIterations          0 \
	history              15 \
	knormThreshold       0.0001 \
	energyDiffThreshold  1e-06 \
	nEnergyDiff          2 \
	alphaTstart          1 \
	alphaTmin            1e-10 \
	updateTestStepSize   yes \
	alphaTreduceFactor   0.1 \
	alphaTincreaseFactor 3 \
	nAlphaAdjustMax      3 \
	wolfeEnergy          0.0001 \
	wolfeGradient        0.9 \
	fdTest               no
kpoint   0.000000000000   0.000000000000   0.000000000000  1.00000000000000
kpoint-folding 12 12 1 
latt-move-scale 1 1 1
latt-scale 3 3 1 
lattice  \
	   4.727486978767153   -2.363743489383575    0.000000000000000  \
	  -0.000000000000000    4.094123819672498    0.000000000000000  \
	   0.000000000000000    0.000000000000000   40.000000000000000 
lattice-minimize  \
	dirUpdateScheme      L-BFGS \
	linminMethod         DirUpdateRecommended \
	nIterations          0 \
	history              15 \
	knormThreshold       0 \
	energyDiffThreshold  1e-06 \
	nEnergyDiff          2 \
	alphaTstart          1 \
	alphaTmin            1e-10 \
	updateTestStepSize   yes \
	alphaTreduceFactor   0.1 \
	alphaTincreaseFactor 3 \
	nAlphaAdjustMax      3 \
	wolfeEnergy          0.0001 \
	wolfeGradient        0.9 \
	fdTest               no
lcao-params -1 1e-06 1e-05
pcm-variant GLSSA13
spintype z-spin
subspace-rotation-factor 1 yes
symmetries automatic
symmetry-threshold 0.0001



---------- Setting up symmetries ----------

Found 24 point-group symmetries of the bravais lattice
Found 24 space-group symmetries with basis
Applied RMS atom displacement 0 bohrs to make symmetries exact.

---------- Initializing the Grid ----------
R = 
[      14.1825     -7.09123            0  ]
[            0      12.2824            0  ]
[            0            0           40  ]
unit cell volume = 6967.77
G =
[   0.443025   0.255781         -0  ]
[          0   0.511561         -0  ]
[         -0         -0    0.15708  ]
Minimum fftbox size, Smin = [  60  60  164  ]
Chosen fftbox size, S = [  60  60  168  ]

---------- Exchange Correlation functional ----------
Initalized PBE GGA exchange.
Initalized PBE GGA correlation.

---------- Setting up pseudopotentials ----------
Width of ionic core gaussian charges (only for fluid interactions / plotting) set to 0

Reading pseudopotential file '/home/gridsan/aligho/DFT/build-Nov24/pseudopotentials/SG15/Rb_ONCV_PBE.upf':
  'Rb' pseudopotential, 'PBE' functional
  Generated using ONCVPSP code by D. R. Hamann
  Author: Martin Schlipf and Francois Gygi  Date: 150915.
  9 valence electrons, 3 orbitals, 6 projectors, 2308 radial grid points, with lMax = 2
  Transforming local potential to a uniform radial grid of dG=0.02 with 1489 points.
  Transforming nonlocal projectors to a uniform radial grid of dG=0.02 with 432 points.
    4S    l: 0   occupation:  2.0   eigenvalue: -1.172069
    4P    l: 1   occupation:  6.0   eigenvalue: -0.586674
    5S    l: 0   occupation:  1.0   eigenvalue: -0.082006
  Transforming atomic orbitals to a uniform radial grid of dG=0.02 with 432 points.
  Core radius for overlap checks: 2.60 bohrs.
  Reading pulay file /home/gridsan/aligho/DFT/build-Nov24/pseudopotentials/SG15/Rb_ONCV_PBE.pulay ... using dE_dnG = -1.360715e-05 computed for Ecut = 20.

Initialized 1 species with 1 total atoms.

Folded 1 k-points by 12x12x1 to 144 k-points.

---------- Setting up k-points, bands, fillings ----------
Reduced to 19 k-points under symmetry. 
Computing the number of bands and number of electrons
Calculating initial fillings.
nElectrons:   9.000000   nBands: 6   nStates: 38

----- Setting up reduced wavefunction bases (one per k-point) -----
average nbasis = 29766.104 , ideal nbasis = 29766.845

---------- Setting up coulomb interaction ----------
Initialized slab truncation along lattice direction 001

---------- Setting up 2D ewald sum ----------
Optimum gaussian width for ewald sums = 7.873530 bohr.
Real space sums over 289 unit cells with max indices [  8  8  0  ]
Reciprocal space sums over 81 terms with max indices [  4  4  0  ]

---------- Allocating electronic variables ----------
Initializing wave functions:  linear combination of atomic orbitals
Note: number of bands (6) exceeds available atomic orbitals (5)
Rb pseudo-atom occupations:   s ( 2 1 )  p ( 6 )
[d-17-8-4:47079] 18 more processes have sent help message help-mpi-common-cuda.txt / dlopen failed
[d-17-8-4:47079] Set MCA parameter "orte_base_help_aggregate" to 0 to see all help / error messages
[d-17-8-4:47079] 18 more processes have sent help message help-mpi-btl-openib-cpc-base.txt / no cpcs for port
	FillingsUpdate:  mu: -0.084914774  nElectrons: 9.000000  magneticMoment: [ Abs: 0.24000  Tot: -0.24000 ]
LCAOMinimize: Iter:   0  F: -24.4367450894062301  |grad|_K:  2.152e-05  alpha:  1.000e+00
	FillingsUpdate:  mu: -0.084910365  nElectrons: 9.000000  magneticMoment: [ Abs: 0.24000  Tot: -0.24000 ]
LCAOMinimize: Iter:   1  F: -24.4367454018191239  |grad|_K:  1.759e-07  alpha:  9.860e-01  linmin: -1.841e-02  cgtest:  4.539e-01  t[s]:      8.95
LCAOMinimize: Encountered beta<0, resetting CG.
	FillingsUpdate:  mu: -0.084910367  nElectrons: 9.000000  magneticMoment: [ Abs: 0.24000  Tot: -0.24000 ]
LCAOMinimize: Iter:   2  F: -24.4367454018400565  |grad|_K:  2.956e-09  alpha:  9.840e-01  linmin: -5.242e-02  cgtest:  9.941e-01  t[s]:     11.39
LCAOMinimize: Encountered beta<0, resetting CG.
LCAOMinimize: Converged (|Delta F|<1.000000e-06 for 2 iters).


---- Citations for features of the code used in this run ----

   Software package:
      R. Sundararaman, K. Letchworth-Weaver, K.A. Schwarz, D. Gunceler, Y. Ozhabes and T.A. Arias, 'JDFTx: software for joint density-functional theory', SoftwareX 6, 278 (2017)

   gga-PBE exchange-correlation functional:
      J.P. Perdew, K. Burke and M. Ernzerhof, Phys. Rev. Lett. 77, 3865 (1996)

   Pseudopotentials:
      M Schlipf and F Gygi, Comput. Phys. Commun. 196, 36 (2015)

   Truncated Coulomb potentials:
      R. Sundararaman and T.A. Arias, Phys. Rev. B 87, 165122 (2013)

This list may not be complete. Please suggest additional citations or
report any other bugs at https://github.com/shankar1729/jdftx/issues

Initialization completed successfully at t[s]:     11.56


-------- Electronic minimization -----------
Will mix electronic density at each iteration.
	FillingsUpdate:  mu: -0.084910367  nElectrons: 9.000000  magneticMoment: [ Abs: 0.24000  Tot: -0.24000 ]
	FillingsUpdate:  mu: -0.086889930  nElectrons: 9.000000  magneticMoment: [ Abs: 0.24000  Tot: -0.24000 ]
SCF: Cycle:  0   F: -24.438473403968416   dF: -1.728e-03   |Residual|: 3.807e-03   |deigs|: 1.737e-01  t[s]:     16.42
	FillingsUpdate:  mu: -0.087109475  nElectrons: 9.000000  magneticMoment: [ Abs: 0.24009  Tot: -0.24000 ]
SCF: Cycle:  1   F: -24.438515247083874   dF: -4.184e-05   |Residual|: 3.264e-03   |deigs|: 4.729e-03  t[s]:     20.23
	FillingsUpdate:  mu: -0.087522353  nElectrons: 9.000000  magneticMoment: [ Abs: 0.24198  Tot: -0.24000 ]
SCF: Cycle:  2   F: -24.438548785879220   dF: -3.354e-05   |Residual|: 1.819e-03   |deigs|: 2.064e-03  t[s]:     24.12
	FillingsUpdate:  mu: -0.087702906  nElectrons: 9.000000  magneticMoment: [ Abs: 0.24160  Tot: -0.24000 ]
SCF: Cycle:  3   F: -24.438561883640421   dF: -1.310e-05   |Residual|: 1.069e-03   |deigs|: 2.941e-03  t[s]:     28.03
	FillingsUpdate:  mu: -0.087645309  nElectrons: 9.000000  magneticMoment: [ Abs: 0.24030  Tot: -0.24000 ]
SCF: Cycle:  4   F: -24.438568522641951   dF: -6.639e-06   |Residual|: 6.025e-04   |deigs|: 2.249e-03  t[s]:     31.98
	FillingsUpdate:  mu: -0.087597302  nElectrons: 9.000000  magneticMoment: [ Abs: 0.24080  Tot: -0.24000 ]
SCF: Cycle:  5   F: -24.438571692889340   dF: -3.170e-06   |Residual|: 4.587e-04   |deigs|: 2.127e-03  t[s]:     35.98
	FillingsUpdate:  mu: -0.087418004  nElectrons: 9.000000  magneticMoment: [ Abs: 0.24074  Tot: -0.24000 ]
SCF: Cycle:  6   F: -24.438573353005147   dF: -1.660e-06   |Residual|: 3.437e-04   |deigs|: 8.657e-04  t[s]:     40.10
	FillingsUpdate:  mu: -0.087163254  nElectrons: 9.000000  magneticMoment: [ Abs: 0.24109  Tot: -0.24000 ]
SCF: Cycle:  7   F: -24.438573722865371   dF: -3.699e-07   |Residual|: 2.813e-04   |deigs|: 4.497e-04  t[s]:     44.31
	FillingsUpdate:  mu: -0.086905822  nElectrons: 9.000000  magneticMoment: [ Abs: 0.24176  Tot: -0.24000 ]
SCF: Cycle:  8   F: -24.438573696501198   dF: +2.636e-08   |Residual|: 2.277e-04   |deigs|: 2.864e-04  t[s]:     48.58
	FillingsUpdate:  mu: -0.086619341  nElectrons: 9.000000  magneticMoment: [ Abs: 0.24149  Tot: -0.24000 ]
SCF: Cycle:  9   F: -24.438573013994798   dF: +6.825e-07   |Residual|: 2.076e-04   |deigs|: 3.751e-04  t[s]:     52.87
	FillingsUpdate:  mu: -0.086366016  nElectrons: 9.000000  magneticMoment: [ Abs: 0.24147  Tot: -0.24000 ]
SCF: Cycle: 10   F: -24.438573645752705   dF: -6.318e-07   |Residual|: 1.864e-04   |deigs|: 4.105e-04  t[s]:     57.22
	FillingsUpdate:  mu: -0.086179624  nElectrons: 9.000000  magneticMoment: [ Abs: 0.24157  Tot: -0.24000 ]
SCF: Cycle: 11   F: -24.438574082662520   dF: -4.369e-07   |Residual|: 1.486e-04   |deigs|: 2.448e-04  t[s]:     61.61
	FillingsUpdate:  mu: -0.085979953  nElectrons: 9.000000  magneticMoment: [ Abs: 0.24158  Tot: -0.24000 ]
SCF: Cycle: 12   F: -24.438574243974156   dF: -1.613e-07   |Residual|: 1.336e-04   |deigs|: 4.168e-04  t[s]:     65.98
	FillingsUpdate:  mu: -0.085608763  nElectrons: 9.000000  magneticMoment: [ Abs: 0.24100  Tot: -0.24000 ]
SCF: Cycle: 13   F: -24.438573544716199   dF: +6.993e-07   |Residual|: 1.342e-04   |deigs|: 3.996e-04  t[s]:     70.30
	FillingsUpdate:  mu: -0.085423126  nElectrons: 9.000000  magneticMoment: [ Abs: 0.24103  Tot: -0.24000 ]
SCF: Cycle: 14   F: -24.438573844948795   dF: -3.002e-07   |Residual|: 1.231e-04   |deigs|: 2.331e-04  t[s]:     74.58
	FillingsUpdate:  mu: -0.085325573  nElectrons: 9.000000  magneticMoment: [ Abs: 0.24116  Tot: -0.24000 ]
SCF: Cycle: 15   F: -24.438575055397465   dF: -1.210e-06   |Residual|: 8.998e-05   |deigs|: 1.828e-04  t[s]:     78.95
	FillingsUpdate:  mu: -0.085142888  nElectrons: 9.000000  magneticMoment: [ Abs: 0.24082  Tot: -0.24000 ]
SCF: Cycle: 16   F: -24.438575472857384   dF: -4.175e-07   |Residual|: 6.755e-05   |deigs|: 1.999e-04  t[s]:     83.19
	FillingsUpdate:  mu: -0.085018786  nElectrons: 9.000000  magneticMoment: [ Abs: 0.24078  Tot: -0.24000 ]
SCF: Cycle: 17   F: -24.438575588089414   dF: -1.152e-07   |Residual|: 4.292e-05   |deigs|: 2.978e-04  t[s]:     87.44
	FillingsUpdate:  mu: -0.085026819  nElectrons: 9.000000  magneticMoment: [ Abs: 0.24076  Tot: -0.24000 ]
SCF: Cycle: 18   F: -24.438575664742920   dF: -7.665e-08   |Residual|: 2.874e-05   |deigs|: 8.440e-05  t[s]:     91.84
	FillingsUpdate:  mu: -0.085048984  nElectrons: 9.000000  magneticMoment: [ Abs: 0.24078  Tot: -0.24000 ]
SCF: Cycle: 19   F: -24.438575704495982   dF: -3.975e-08   |Residual|: 1.622e-05   |deigs|: 3.349e-05  t[s]:     96.24
	FillingsUpdate:  mu: -0.085049346  nElectrons: 9.000000  magneticMoment: [ Abs: 0.24078  Tot: -0.24000 ]
SCF: Cycle: 20   F: -24.438575716255706   dF: -1.176e-08   |Residual|: 1.079e-05   |deigs|: 1.167e-05  t[s]:    100.53
	FillingsUpdate:  mu: -0.085050911  nElectrons: 9.000000  magneticMoment: [ Abs: 0.24078  Tot: -0.24000 ]
SCF: Cycle: 21   F: -24.438575723429981   dF: -7.174e-09   |Residual|: 6.123e-06   |deigs|: 9.455e-06  t[s]:    104.93
	FillingsUpdate:  mu: -0.085052235  nElectrons: 9.000000  magneticMoment: [ Abs: 0.24078  Tot: -0.24000 ]
SCF: Cycle: 22   F: -24.438575725784588   dF: -2.355e-09   |Residual|: 3.876e-06   |deigs|: 8.102e-06  t[s]:    109.21
SCF: Converged (|Delta E|<1.000000e-08 for 2 iters).


# Ionic positions in lattice coordinates:
ion Rb   0.000000000000000   0.000000000000000   0.000000000000000 0

# Forces in Lattice coordinates:
force Rb  -0.000000000000000  -0.000000000000000   0.000000000000000 0

# Energy components:
   Eewald =      -12.0320174002217755
       EH =        7.4878477130443866
     Eloc =      -22.3978292043996596
      Enl =       -0.7978221921075690
   Epulay =       -0.0000000014467880
      Exc =       -3.6468892402285742
       KE =        6.9481349415026212
-------------------------------------
     Etot =      -24.4385753838573621
       TS =        0.0000003419272243
-------------------------------------
        F =      -24.4385757257845881

IonicMinimize: Iter:   0  F: -24.438575725784588  |grad|_K:  0.000e+00  t[s]:    109.47
IonicMinimize: Converged (|grad|_K<1.000000e-04).

#--- Lowdin population analysis ---
# oxidation-state Rb +0.031
# magnetic-moments Rb -0.225

End date and time: Sun Feb  6 12:44:14 2022  (Duration: 0-0:01:49.52)
Done!
scale=4
magnetization=-0.24
--------------------------------------------------------------------------
The library attempted to open the following supporting CUDA libraries,
but each of them failed.  CUDA-aware support is disabled.
libcuda.so.1: cannot open shared object file: No such file or directory
libcuda.dylib: cannot open shared object file: No such file or directory
/usr/lib64/libcuda.so.1: cannot open shared object file: No such file or directory
/usr/lib64/libcuda.dylib: cannot open shared object file: No such file or directory
If you are not interested in CUDA-aware support, then run with
--mca opal_warn_on_missing_libcuda 0 to suppress this message.  If you are interested
in CUDA-aware support, then try setting LD_LIBRARY_PATH to the location
of libcuda.so.1 to get passed this issue.
--------------------------------------------------------------------------
--------------------------------------------------------------------------
No OpenFabrics connection schemes reported that they were able to be
used on a specific port.  As such, the openib BTL (OpenFabrics
support) will be disabled for this port.

  Local host:           d-17-8-4
  Local device:         mlx5_1
  Local port:           1
  CPCs attempted:       rdmacm, udcm
--------------------------------------------------------------------------

*************** JDFTx 1.6.0 (git hash 42ebbcc2) ***************

Start date and time: Sun Feb  6 12:44:15 2022
Executable jdftx with command-line: -i Alkali.in
Running on hosts (process indices):  d-17-8-4 (0-18)
Divided in process groups (process indices):  0 (0)  1 (1)  2 (2)  3 (3)  4 (4)  5 (5)  6 (6)  7 (7)  8 (8)  9 (9)  10 (10)  11 (11)  12 (12)  13 (13)  14 (14)  15 (15)  16 (16)  17 (17)  18 (18)
Resource initialization completed at t[s]:      0.00
Run totals: 19 processes, 48 threads, 0 GPUs


Input parsed successfully to the following command list (including defaults):

basis kpoint-dependent
coords-type Lattice
core-overlap-check vector
coulomb-interaction Slab 001
davidson-band-ratio 1.1
dump End None
dump-name $INPUT.$VAR
elec-cutoff 20
elec-eigen-algo Davidson
elec-ex-corr gga-PBE
elec-initial-magnetization -0.240000 yes
elec-smearing Fermi 1e-05
electronic-minimize  \
	dirUpdateScheme      FletcherReeves \
	linminMethod         DirUpdateRecommended \
	nIterations          100 \
	history              15 \
	knormThreshold       0 \
	energyDiffThreshold  1e-08 \
	nEnergyDiff          2 \
	alphaTstart          1 \
	alphaTmin            1e-10 \
	updateTestStepSize   yes \
	alphaTreduceFactor   0.1 \
	alphaTincreaseFactor 3 \
	nAlphaAdjustMax      3 \
	wolfeEnergy          0.0001 \
	wolfeGradient        0.9 \
	fdTest               no
electronic-scf  \
	nIterations	10000 \
	energyDiffThreshold	1e-08 \
	residualThreshold	1e-07 \
	mixFraction	0.5 \
	qMetric	0.8 \
	history	10 \
	nEigSteps	2 \
	eigDiffThreshold	1e-08 \
	mixedVariable	Density \
	qKerker	0.8 \
	qKappa	-1 \
	verbose	no \
	mixFractionMag	1.5
exchange-regularization WignerSeitzTruncated
fluid None
fluid-ex-corr (null) lda-PZ
fluid-gummel-loop 10 1.000000e-05
fluid-minimize  \
	dirUpdateScheme      PolakRibiere \
	linminMethod         DirUpdateRecommended \
	nIterations          100 \
	history              15 \
	knormThreshold       0 \
	energyDiffThreshold  0 \
	nEnergyDiff          2 \
	alphaTstart          1 \
	alphaTmin            1e-10 \
	updateTestStepSize   yes \
	alphaTreduceFactor   0.1 \
	alphaTincreaseFactor 3 \
	nAlphaAdjustMax      3 \
	wolfeEnergy          0.0001 \
	wolfeGradient        0.9 \
	fdTest               no
fluid-solvent H2O 55.338 ScalarEOS \
	epsBulk 78.4 \
	pMol 0.92466 \
	epsInf 1.77 \
	Pvap 1.06736e-10 \
	sigmaBulk 4.62e-05 \
	Rvdw 2.61727 \
	Res 1.42 \
	tauNuc 343133 \
	poleEl 15 7 1
forces-output-coords Positions
ion Rb   0.000000000000000   0.000000000000000   0.000000000000000 0
ion-species SG15/$ID_ONCV_PBE.upf
ion-width 0
ionic-minimize  \
	dirUpdateScheme      L-BFGS \
	linminMethod         DirUpdateRecommended \
	nIterations          0 \
	history              15 \
	knormThreshold       0.0001 \
	energyDiffThreshold  1e-06 \
	nEnergyDiff          2 \
	alphaTstart          1 \
	alphaTmin            1e-10 \
	updateTestStepSize   yes \
	alphaTreduceFactor   0.1 \
	alphaTincreaseFactor 3 \
	nAlphaAdjustMax      3 \
	wolfeEnergy          0.0001 \
	wolfeGradient        0.9 \
	fdTest               no
kpoint   0.000000000000   0.000000000000   0.000000000000  1.00000000000000
kpoint-folding 12 12 1 
latt-move-scale 1 1 1
latt-scale 4 4 1 
lattice  \
	   4.727486978767153   -2.363743489383575    0.000000000000000  \
	  -0.000000000000000    4.094123819672498    0.000000000000000  \
	   0.000000000000000    0.000000000000000   40.000000000000000 
lattice-minimize  \
	dirUpdateScheme      L-BFGS \
	linminMethod         DirUpdateRecommended \
	nIterations          0 \
	history              15 \
	knormThreshold       0 \
	energyDiffThreshold  1e-06 \
	nEnergyDiff          2 \
	alphaTstart          1 \
	alphaTmin            1e-10 \
	updateTestStepSize   yes \
	alphaTreduceFactor   0.1 \
	alphaTincreaseFactor 3 \
	nAlphaAdjustMax      3 \
	wolfeEnergy          0.0001 \
	wolfeGradient        0.9 \
	fdTest               no
lcao-params -1 1e-06 1e-05
pcm-variant GLSSA13
spintype z-spin
subspace-rotation-factor 1 yes
symmetries automatic
symmetry-threshold 0.0001



---------- Setting up symmetries ----------

Found 24 point-group symmetries of the bravais lattice
Found 24 space-group symmetries with basis
Applied RMS atom displacement 0 bohrs to make symmetries exact.

---------- Initializing the Grid ----------
R = 
[      18.9099     -9.45497            0  ]
[            0      16.3765            0  ]
[            0            0           40  ]
unit cell volume = 12387.1
G =
[   0.332269   0.191835         -0  ]
[          0   0.383671         -0  ]
[         -0         -0    0.15708  ]
Minimum fftbox size, Smin = [  80  80  164  ]
Chosen fftbox size, S = [  80  80  168  ]

---------- Exchange Correlation functional ----------
Initalized PBE GGA exchange.
Initalized PBE GGA correlation.

---------- Setting up pseudopotentials ----------
Width of ionic core gaussian charges (only for fluid interactions / plotting) set to 0

Reading pseudopotential file '/home/gridsan/aligho/DFT/build-Nov24/pseudopotentials/SG15/Rb_ONCV_PBE.upf':
  'Rb' pseudopotential, 'PBE' functional
  Generated using ONCVPSP code by D. R. Hamann
  Author: Martin Schlipf and Francois Gygi  Date: 150915.
  9 valence electrons, 3 orbitals, 6 projectors, 2308 radial grid points, with lMax = 2
  Transforming local potential to a uniform radial grid of dG=0.02 with 1489 points.
  Transforming nonlocal projectors to a uniform radial grid of dG=0.02 with 432 points.
    4S    l: 0   occupation:  2.0   eigenvalue: -1.172069
    4P    l: 1   occupation:  6.0   eigenvalue: -0.586674
    5S    l: 0   occupation:  1.0   eigenvalue: -0.082006
  Transforming atomic orbitals to a uniform radial grid of dG=0.02 with 432 points.
  Core radius for overlap checks: 2.60 bohrs.
  Reading pulay file /home/gridsan/aligho/DFT/build-Nov24/pseudopotentials/SG15/Rb_ONCV_PBE.pulay ... using dE_dnG = -1.360715e-05 computed for Ecut = 20.

Initialized 1 species with 1 total atoms.

Folded 1 k-points by 12x12x1 to 144 k-points.

---------- Setting up k-points, bands, fillings ----------
Reduced to 19 k-points under symmetry. 
Computing the number of bands and number of electrons
Calculating initial fillings.
nElectrons:   9.000000   nBands: 6   nStates: 38

----- Setting up reduced wavefunction bases (one per k-point) -----
average nbasis = 52924.021 , ideal nbasis = 52918.836

---------- Setting up coulomb interaction ----------
Initialized slab truncation along lattice direction 001

---------- Setting up 2D ewald sum ----------
Optimum gaussian width for ewald sums = 10.498040 bohr.
Real space sums over 289 unit cells with max indices [  8  8  0  ]
Reciprocal space sums over 81 terms with max indices [  4  4  0  ]

---------- Allocating electronic variables ----------
Initializing wave functions:  linear combination of atomic orbitals
Note: number of bands (6) exceeds available atomic orbitals (5)
Rb pseudo-atom occupations:   s ( 2 1 )  p ( 6 )
[d-17-8-4:81161] 18 more processes have sent help message help-mpi-common-cuda.txt / dlopen failed
[d-17-8-4:81161] Set MCA parameter "orte_base_help_aggregate" to 0 to see all help / error messages
[d-17-8-4:81161] 18 more processes have sent help message help-mpi-btl-openib-cpc-base.txt / no cpcs for port
	FillingsUpdate:  mu: -0.082831007  nElectrons: 9.000000  magneticMoment: [ Abs: 0.24000  Tot: -0.24000 ]
LCAOMinimize: Iter:   0  F: -24.4307566443177357  |grad|_K:  5.120e-06  alpha:  1.000e+00
	FillingsUpdate:  mu: -0.082829879  nElectrons: 9.000000  magneticMoment: [ Abs: 0.24000  Tot: -0.24000 ]
LCAOMinimize: Iter:   1  F: -24.4307566620174583  |grad|_K:  2.487e-08  alpha:  9.870e-01  linmin: -8.471e-03  cgtest:  2.899e-01  t[s]:     15.23
LCAOMinimize: Encountered beta<0, resetting CG.
	FillingsUpdate:  mu: -0.082829878  nElectrons: 9.000000  magneticMoment: [ Abs: 0.24000  Tot: -0.24000 ]
LCAOMinimize: Iter:   2  F: -24.4307566620176893  |grad|_K:  6.383e-09  alpha:  7.436e-01  linmin: -1.882e-02  cgtest:  1.000e+00  t[s]:     19.27
LCAOMinimize: Encountered beta<0, resetting CG.
LCAOMinimize: Converged (|Delta F|<1.000000e-06 for 2 iters).


---- Citations for features of the code used in this run ----

   Software package:
      R. Sundararaman, K. Letchworth-Weaver, K.A. Schwarz, D. Gunceler, Y. Ozhabes and T.A. Arias, 'JDFTx: software for joint density-functional theory', SoftwareX 6, 278 (2017)

   gga-PBE exchange-correlation functional:
      J.P. Perdew, K. Burke and M. Ernzerhof, Phys. Rev. Lett. 77, 3865 (1996)

   Pseudopotentials:
      M Schlipf and F Gygi, Comput. Phys. Commun. 196, 36 (2015)

   Truncated Coulomb potentials:
      R. Sundararaman and T.A. Arias, Phys. Rev. B 87, 165122 (2013)

This list may not be complete. Please suggest additional citations or
report any other bugs at https://github.com/shankar1729/jdftx/issues

Initialization completed successfully at t[s]:     19.54


-------- Electronic minimization -----------
Will mix electronic density at each iteration.
	FillingsUpdate:  mu: -0.082829878  nElectrons: 9.000000  magneticMoment: [ Abs: 0.24000  Tot: -0.24000 ]
	FillingsUpdate:  mu: -0.082932411  nElectrons: 9.000000  magneticMoment: [ Abs: 0.24000  Tot: -0.24000 ]
SCF: Cycle:  0   F: -24.430871485375121   dF: -1.148e-04   |Residual|: 8.116e-04   |deigs|: 1.754e-01  t[s]:     27.69
	FillingsUpdate:  mu: -0.082970719  nElectrons: 9.000000  magneticMoment: [ Abs: 0.24107  Tot: -0.24000 ]
SCF: Cycle:  1   F: -24.430873408838174   dF: -1.923e-06   |Residual|: 4.995e-04   |deigs|: 4.306e-03  t[s]:     34.19
	FillingsUpdate:  mu: -0.083016559  nElectrons: 9.000000  magneticMoment: [ Abs: 0.24115  Tot: -0.24000 ]
SCF: Cycle:  2   F: -24.430874032465262   dF: -6.236e-07   |Residual|: 3.989e-04   |deigs|: 1.643e-03  t[s]:     40.75
	FillingsUpdate:  mu: -0.083100712  nElectrons: 9.000000  magneticMoment: [ Abs: 0.24167  Tot: -0.24000 ]
SCF: Cycle:  3   F: -24.430874614490374   dF: -5.820e-07   |Residual|: 2.808e-04   |deigs|: 6.731e-04  t[s]:     47.46
	FillingsUpdate:  mu: -0.083196012  nElectrons: 9.000000  magneticMoment: [ Abs: 0.24149  Tot: -0.24000 ]
SCF: Cycle:  4   F: -24.430875340457092   dF: -7.260e-07   |Residual|: 1.821e-04   |deigs|: 5.139e-04  t[s]:     54.23
	FillingsUpdate:  mu: -0.083254169  nElectrons: 9.000000  magneticMoment: [ Abs: 0.24167  Tot: -0.24000 ]
SCF: Cycle:  5   F: -24.430875757847950   dF: -4.174e-07   |Residual|: 1.229e-04   |deigs|: 8.684e-04  t[s]:     61.20
	FillingsUpdate:  mu: -0.083256674  nElectrons: 9.000000  magneticMoment: [ Abs: 0.24160  Tot: -0.24000 ]
SCF: Cycle:  6   F: -24.430876006880183   dF: -2.490e-07   |Residual|: 7.918e-05   |deigs|: 6.589e-04  t[s]:     68.17
	FillingsUpdate:  mu: -0.083251423  nElectrons: 9.000000  magneticMoment: [ Abs: 0.24152  Tot: -0.24000 ]
SCF: Cycle:  7   F: -24.430876147353697   dF: -1.405e-07   |Residual|: 5.788e-05   |deigs|: 5.690e-04  t[s]:     75.35
	FillingsUpdate:  mu: -0.083235612  nElectrons: 9.000000  magneticMoment: [ Abs: 0.24147  Tot: -0.24000 ]
SCF: Cycle:  8   F: -24.430876220111550   dF: -7.276e-08   |Residual|: 4.450e-05   |deigs|: 1.669e-04  t[s]:     82.57
	FillingsUpdate:  mu: -0.083208573  nElectrons: 9.000000  magneticMoment: [ Abs: 0.24137  Tot: -0.24000 ]
SCF: Cycle:  9   F: -24.430876250662653   dF: -3.055e-08   |Residual|: 3.250e-05   |deigs|: 1.240e-04  t[s]:     89.94
	FillingsUpdate:  mu: -0.083189221  nElectrons: 9.000000  magneticMoment: [ Abs: 0.24141  Tot: -0.24000 ]
SCF: Cycle: 10   F: -24.430876254390252   dF: -3.728e-09   |Residual|: 2.988e-05   |deigs|: 1.626e-04  t[s]:     97.53
	FillingsUpdate:  mu: -0.083167548  nElectrons: 9.000000  magneticMoment: [ Abs: 0.24150  Tot: -0.24000 ]
SCF: Cycle: 11   F: -24.430876238789978   dF: +1.560e-08   |Residual|: 2.681e-05   |deigs|: 9.328e-05  t[s]:    104.98
	FillingsUpdate:  mu: -0.083135090  nElectrons: 9.000000  magneticMoment: [ Abs: 0.24150  Tot: -0.24000 ]
SCF: Cycle: 12   F: -24.430876191185057   dF: +4.760e-08   |Residual|: 2.449e-05   |deigs|: 5.799e-05  t[s]:    112.44
	FillingsUpdate:  mu: -0.083108817  nElectrons: 9.000000  magneticMoment: [ Abs: 0.24146  Tot: -0.24000 ]
SCF: Cycle: 13   F: -24.430876205040100   dF: -1.386e-08   |Residual|: 2.175e-05   |deigs|: 4.668e-05  t[s]:    119.99
	FillingsUpdate:  mu: -0.083083394  nElectrons: 9.000000  magneticMoment: [ Abs: 0.24147  Tot: -0.24000 ]
SCF: Cycle: 14   F: -24.430876176051001   dF: +2.899e-08   |Residual|: 2.035e-05   |deigs|: 6.812e-05  t[s]:    127.45
	FillingsUpdate:  mu: -0.083065888  nElectrons: 9.000000  magneticMoment: [ Abs: 0.24143  Tot: -0.24000 ]
SCF: Cycle: 15   F: -24.430876220906725   dF: -4.486e-08   |Residual|: 1.796e-05   |deigs|: 9.512e-05  t[s]:    134.90
	FillingsUpdate:  mu: -0.083039004  nElectrons: 9.000000  magneticMoment: [ Abs: 0.24143  Tot: -0.24000 ]
SCF: Cycle: 16   F: -24.430876237676419   dF: -1.677e-08   |Residual|: 1.604e-05   |deigs|: 1.013e-04  t[s]:    142.40
	FillingsUpdate:  mu: -0.083016119  nElectrons: 9.000000  magneticMoment: [ Abs: 0.24141  Tot: -0.24000 ]
SCF: Cycle: 17   F: -24.430876202260844   dF: +3.542e-08   |Residual|: 1.400e-05   |deigs|: 7.727e-05  t[s]:    149.86
	FillingsUpdate:  mu: -0.083012452  nElectrons: 9.000000  magneticMoment: [ Abs: 0.24137  Tot: -0.24000 ]
SCF: Cycle: 18   F: -24.430876248529824   dF: -4.627e-08   |Residual|: 1.147e-05   |deigs|: 4.461e-05  t[s]:    157.18
	FillingsUpdate:  mu: -0.083008401  nElectrons: 9.000000  magneticMoment: [ Abs: 0.24137  Tot: -0.24000 ]
SCF: Cycle: 19   F: -24.430876261763245   dF: -1.323e-08   |Residual|: 8.890e-06   |deigs|: 2.328e-05  t[s]:    164.01
	FillingsUpdate:  mu: -0.083000255  nElectrons: 9.000000  magneticMoment: [ Abs: 0.24140  Tot: -0.24000 ]
SCF: Cycle: 20   F: -24.430876284915762   dF: -2.315e-08   |Residual|: 5.828e-06   |deigs|: 1.482e-05  t[s]:    171.61
	FillingsUpdate:  mu: -0.082998560  nElectrons: 9.000000  magneticMoment: [ Abs: 0.24138  Tot: -0.24000 ]
SCF: Cycle: 21   F: -24.430876301823389   dF: -1.691e-08   |Residual|: 4.323e-06   |deigs|: 6.470e-06  t[s]:    178.44
	FillingsUpdate:  mu: -0.082997737  nElectrons: 9.000000  magneticMoment: [ Abs: 0.24138  Tot: -0.24000 ]
SCF: Cycle: 22   F: -24.430876302657254   dF: -8.339e-10   |Residual|: 3.211e-06   |deigs|: 3.738e-06  t[s]:    185.43
	FillingsUpdate:  mu: -0.082997535  nElectrons: 9.000000  magneticMoment: [ Abs: 0.24138  Tot: -0.24000 ]
SCF: Cycle: 23   F: -24.430876307180519   dF: -4.523e-09   |Residual|: 2.113e-06   |deigs|: 3.587e-06  t[s]:    192.90
SCF: Converged (|Delta E|<1.000000e-08 for 2 iters).


# Ionic positions in lattice coordinates:
ion Rb   0.000000000000000   0.000000000000000   0.000000000000000 0

# Forces in Lattice coordinates:
force Rb   0.000000000000000  -0.000000000000000   0.000000000000000 0

# Energy components:
   Eewald =       -9.0240130501663280
       EH =       10.5183547390278544
     Eloc =      -28.4421958059953930
      Enl =       -0.7931754019334328
   Epulay =        0.0000000056959385
      Exc =       -3.6478087505748533
       KE =        6.9579622986929204
-------------------------------------
     Etot =      -24.4308759652532927
       TS =        0.0000003419272261
-------------------------------------
        F =      -24.4308763071805188

IonicMinimize: Iter:   0  F: -24.430876307180519  |grad|_K:  0.000e+00  t[s]:    193.31
IonicMinimize: Converged (|grad|_K<1.000000e-04).

#--- Lowdin population analysis ---
# oxidation-state Rb +0.002
# magnetic-moments Rb -0.240

End date and time: Sun Feb  6 12:47:28 2022  (Duration: 0-0:03:13.38)
Done!
