The alkali metal is Rb
scale=2
magnetization=-0.54
--------------------------------------------------------------------------
The library attempted to open the following supporting CUDA libraries,
but each of them failed.  CUDA-aware support is disabled.
libcuda.so.1: cannot open shared object file: No such file or directory
libcuda.dylib: cannot open shared object file: No such file or directory
/usr/lib64/libcuda.so.1: cannot open shared object file: No such file or directory
/usr/lib64/libcuda.dylib: cannot open shared object file: No such file or directory
If you are not interested in CUDA-aware support, then run with
--mca opal_warn_on_missing_libcuda 0 to suppress this message.  If you are interested
in CUDA-aware support, then try setting LD_LIBRARY_PATH to the location
of libcuda.so.1 to get passed this issue.
--------------------------------------------------------------------------
--------------------------------------------------------------------------
No OpenFabrics connection schemes reported that they were able to be
used on a specific port.  As such, the openib BTL (OpenFabrics
support) will be disabled for this port.

  Local host:           d-3-4-3
  Local device:         mlx5_1
  Local port:           1
  CPCs attempted:       rdmacm, udcm
--------------------------------------------------------------------------

*************** JDFTx 1.6.0 (git hash 42ebbcc2) ***************

Start date and time: Sun Feb  6 12:40:27 2022
Executable jdftx with command-line: -i Alkali.in
Running on hosts (process indices):  d-3-4-3 (0-18)
Divided in process groups (process indices):  0 (0)  1 (1)  2 (2)  3 (3)  4 (4)  5 (5)  6 (6)  7 (7)  8 (8)  9 (9)  10 (10)  11 (11)  12 (12)  13 (13)  14 (14)  15 (15)  16 (16)  17 (17)  18 (18)
Resource initialization completed at t[s]:      0.00
Run totals: 19 processes, 48 threads, 0 GPUs


Input parsed successfully to the following command list (including defaults):

basis kpoint-dependent
coords-type Lattice
core-overlap-check vector
coulomb-interaction Slab 001
davidson-band-ratio 1.1
dump End None
dump-name $INPUT.$VAR
elec-cutoff 20
elec-eigen-algo Davidson
elec-ex-corr gga-PBE
elec-initial-magnetization -0.540000 yes
elec-smearing Fermi 1e-05
electronic-minimize  \
	dirUpdateScheme      FletcherReeves \
	linminMethod         DirUpdateRecommended \
	nIterations          100 \
	history              15 \
	knormThreshold       0 \
	energyDiffThreshold  1e-08 \
	nEnergyDiff          2 \
	alphaTstart          1 \
	alphaTmin            1e-10 \
	updateTestStepSize   yes \
	alphaTreduceFactor   0.1 \
	alphaTincreaseFactor 3 \
	nAlphaAdjustMax      3 \
	wolfeEnergy          0.0001 \
	wolfeGradient        0.9 \
	fdTest               no
electronic-scf  \
	nIterations	10000 \
	energyDiffThreshold	1e-08 \
	residualThreshold	1e-07 \
	mixFraction	0.5 \
	qMetric	0.8 \
	history	10 \
	nEigSteps	2 \
	eigDiffThreshold	1e-08 \
	mixedVariable	Density \
	qKerker	0.8 \
	qKappa	-1 \
	verbose	no \
	mixFractionMag	1.5
exchange-regularization WignerSeitzTruncated
fluid None
fluid-ex-corr (null) lda-PZ
fluid-gummel-loop 10 1.000000e-05
fluid-minimize  \
	dirUpdateScheme      PolakRibiere \
	linminMethod         DirUpdateRecommended \
	nIterations          100 \
	history              15 \
	knormThreshold       0 \
	energyDiffThreshold  0 \
	nEnergyDiff          2 \
	alphaTstart          1 \
	alphaTmin            1e-10 \
	updateTestStepSize   yes \
	alphaTreduceFactor   0.1 \
	alphaTincreaseFactor 3 \
	nAlphaAdjustMax      3 \
	wolfeEnergy          0.0001 \
	wolfeGradient        0.9 \
	fdTest               no
fluid-solvent H2O 55.338 ScalarEOS \
	epsBulk 78.4 \
	pMol 0.92466 \
	epsInf 1.77 \
	Pvap 1.06736e-10 \
	sigmaBulk 4.62e-05 \
	Rvdw 2.61727 \
	Res 1.42 \
	tauNuc 343133 \
	poleEl 15 7 1
forces-output-coords Positions
ion Rb   0.000000000000000   0.000000000000000   0.000000000000000 0
ion-species SG15/$ID_ONCV_PBE.upf
ion-width 0
ionic-minimize  \
	dirUpdateScheme      L-BFGS \
	linminMethod         DirUpdateRecommended \
	nIterations          0 \
	history              15 \
	knormThreshold       0.0001 \
	energyDiffThreshold  1e-06 \
	nEnergyDiff          2 \
	alphaTstart          1 \
	alphaTmin            1e-10 \
	updateTestStepSize   yes \
	alphaTreduceFactor   0.1 \
	alphaTincreaseFactor 3 \
	nAlphaAdjustMax      3 \
	wolfeEnergy          0.0001 \
	wolfeGradient        0.9 \
	fdTest               no
kpoint   0.000000000000   0.000000000000   0.000000000000  1.00000000000000
kpoint-folding 12 12 1 
latt-move-scale 1 1 1
latt-scale 2 2 1 
lattice  \
	   4.727486978767153   -2.363743489383575    0.000000000000000  \
	  -0.000000000000000    4.094123819672498    0.000000000000000  \
	   0.000000000000000    0.000000000000000   40.000000000000000 
lattice-minimize  \
	dirUpdateScheme      L-BFGS \
	linminMethod         DirUpdateRecommended \
	nIterations          0 \
	history              15 \
	knormThreshold       0 \
	energyDiffThreshold  1e-06 \
	nEnergyDiff          2 \
	alphaTstart          1 \
	alphaTmin            1e-10 \
	updateTestStepSize   yes \
	alphaTreduceFactor   0.1 \
	alphaTincreaseFactor 3 \
	nAlphaAdjustMax      3 \
	wolfeEnergy          0.0001 \
	wolfeGradient        0.9 \
	fdTest               no
lcao-params -1 1e-06 1e-05
pcm-variant GLSSA13
spintype z-spin
subspace-rotation-factor 1 yes
symmetries automatic
symmetry-threshold 0.0001



---------- Setting up symmetries ----------

Found 24 point-group symmetries of the bravais lattice
Found 24 space-group symmetries with basis
Applied RMS atom displacement 0 bohrs to make symmetries exact.

---------- Initializing the Grid ----------
R = 
[      9.45497     -4.72749            0  ]
[            0      8.18825            0  ]
[            0            0           40  ]
unit cell volume = 3096.79
G =
[   0.664538   0.383671         -0  ]
[          0   0.767342         -0  ]
[         -0         -0    0.15708  ]
Minimum fftbox size, Smin = [  40  40  164  ]
Chosen fftbox size, S = [  40  40  168  ]

---------- Exchange Correlation functional ----------
Initalized PBE GGA exchange.
Initalized PBE GGA correlation.

---------- Setting up pseudopotentials ----------
Width of ionic core gaussian charges (only for fluid interactions / plotting) set to 0

Reading pseudopotential file '/home/gridsan/aligho/DFT/build-Nov24/pseudopotentials/SG15/Rb_ONCV_PBE.upf':
  'Rb' pseudopotential, 'PBE' functional
  Generated using ONCVPSP code by D. R. Hamann
  Author: Martin Schlipf and Francois Gygi  Date: 150915.
  9 valence electrons, 3 orbitals, 6 projectors, 2308 radial grid points, with lMax = 2
  Transforming local potential to a uniform radial grid of dG=0.02 with 1489 points.
  Transforming nonlocal projectors to a uniform radial grid of dG=0.02 with 432 points.
    4S    l: 0   occupation:  2.0   eigenvalue: -1.172069
    4P    l: 1   occupation:  6.0   eigenvalue: -0.586674
    5S    l: 0   occupation:  1.0   eigenvalue: -0.082006
  Transforming atomic orbitals to a uniform radial grid of dG=0.02 with 432 points.
  Core radius for overlap checks: 2.60 bohrs.
  Reading pulay file /home/gridsan/aligho/DFT/build-Nov24/pseudopotentials/SG15/Rb_ONCV_PBE.pulay ... using dE_dnG = -1.360715e-05 computed for Ecut = 20.

Initialized 1 species with 1 total atoms.

Folded 1 k-points by 12x12x1 to 144 k-points.

---------- Setting up k-points, bands, fillings ----------
Reduced to 19 k-points under symmetry. 
Computing the number of bands and number of electrons
Calculating initial fillings.
nElectrons:   9.000000   nBands: 6   nStates: 38

----- Setting up reduced wavefunction bases (one per k-point) -----
average nbasis = 13230.521 , ideal nbasis = 13229.709

---------- Setting up coulomb interaction ----------
Initialized slab truncation along lattice direction 001

---------- Setting up 2D ewald sum ----------
Optimum gaussian width for ewald sums = 5.249020 bohr.
Real space sums over 289 unit cells with max indices [  8  8  0  ]
Reciprocal space sums over 81 terms with max indices [  4  4  0  ]

---------- Allocating electronic variables ----------
Initializing wave functions:  linear combination of atomic orbitals
Note: number of bands (6) exceeds available atomic orbitals (5)
Rb pseudo-atom occupations:   s ( 2 1 )  p ( 6 )
	FillingsUpdate:  mu: -0.094156354  nElectrons: 9.000000  magneticMoment: [ Abs: 0.54000  Tot: -0.54000 ]
LCAOMinimize: Iter:   0  F: -24.4435111999513524  |grad|_K:  2.955e-05  alpha:  1.000e+00
	FillingsUpdate:  mu: -0.094146090  nElectrons: 9.000000  magneticMoment: [ Abs: 0.54000  Tot: -0.54000 ]
LCAOMinimize: Iter:   1  F: -24.4435117836664340  |grad|_K:  2.856e-07  alpha:  9.777e-01  linmin: -2.968e-02  cgtest:  3.624e-01  t[s]:      4.71
LCAOMinimize: Encountered beta<0, resetting CG.
[d-3-4-3:82158] 18 more processes have sent help message help-mpi-common-cuda.txt / dlopen failed
[d-3-4-3:82158] Set MCA parameter "orte_base_help_aggregate" to 0 to see all help / error messages
[d-3-4-3:82158] 18 more processes have sent help message help-mpi-btl-openib-cpc-base.txt / no cpcs for port
	FillingsUpdate:  mu: -0.094146149  nElectrons: 9.000000  magneticMoment: [ Abs: 0.54000  Tot: -0.54000 ]
LCAOMinimize: Iter:   2  F: -24.4435117837222151  |grad|_K:  1.316e-09  alpha:  9.970e-01  linmin: -9.705e-02  cgtest:  9.270e-01  t[s]:      5.90
LCAOMinimize: Encountered beta<0, resetting CG.
LCAOMinimize: Converged (|Delta F|<1.000000e-06 for 2 iters).


---- Citations for features of the code used in this run ----

   Software package:
      R. Sundararaman, K. Letchworth-Weaver, K.A. Schwarz, D. Gunceler, Y. Ozhabes and T.A. Arias, 'JDFTx: software for joint density-functional theory', SoftwareX 6, 278 (2017)

   gga-PBE exchange-correlation functional:
      J.P. Perdew, K. Burke and M. Ernzerhof, Phys. Rev. Lett. 77, 3865 (1996)

   Pseudopotentials:
      M Schlipf and F Gygi, Comput. Phys. Commun. 196, 36 (2015)

   Truncated Coulomb potentials:
      R. Sundararaman and T.A. Arias, Phys. Rev. B 87, 165122 (2013)

This list may not be complete. Please suggest additional citations or
report any other bugs at https://github.com/shankar1729/jdftx/issues

Initialization completed successfully at t[s]:      5.99


-------- Electronic minimization -----------
Will mix electronic density at each iteration.
	FillingsUpdate:  mu: -0.094146149  nElectrons: 9.000000  magneticMoment: [ Abs: 0.54000  Tot: -0.54000 ]
	FillingsUpdate:  mu: -0.104434247  nElectrons: 9.000000  magneticMoment: [ Abs: 0.54000  Tot: -0.54000 ]
SCF: Cycle:  0   F: -24.450561189943258   dF: -7.049e-03   |Residual|: 1.200e-02   |deigs|: 1.784e-01  t[s]:      8.35
	FillingsUpdate:  mu: -0.104291482  nElectrons: 9.000000  magneticMoment: [ Abs: 0.54000  Tot: -0.54000 ]
SCF: Cycle:  1   F: -24.450859883856662   dF: -2.987e-04   |Residual|: 8.600e-03   |deigs|: 7.167e-03  t[s]:     10.15
	FillingsUpdate:  mu: -0.102794733  nElectrons: 9.000000  magneticMoment: [ Abs: 0.54270  Tot: -0.54000 ]
SCF: Cycle:  2   F: -24.450968219274994   dF: -1.083e-04   |Residual|: 4.991e-03   |deigs|: 1.787e-03  t[s]:     11.97
	FillingsUpdate:  mu: -0.101802481  nElectrons: 9.000000  magneticMoment: [ Abs: 0.54008  Tot: -0.54000 ]
SCF: Cycle:  3   F: -24.451040478556813   dF: -7.226e-05   |Residual|: 3.150e-03   |deigs|: 1.704e-03  t[s]:     13.80
	FillingsUpdate:  mu: -0.099976740  nElectrons: 9.000000  magneticMoment: [ Abs: 0.54010  Tot: -0.54000 ]
SCF: Cycle:  4   F: -24.451082725482188   dF: -4.225e-05   |Residual|: 2.192e-03   |deigs|: 2.754e-03  t[s]:     15.67
	FillingsUpdate:  mu: -0.098661209  nElectrons: 9.000000  magneticMoment: [ Abs: 0.54063  Tot: -0.54000 ]
SCF: Cycle:  5   F: -24.451101630181238   dF: -1.890e-05   |Residual|: 1.647e-03   |deigs|: 2.835e-03  t[s]:     17.65
	FillingsUpdate:  mu: -0.096222796  nElectrons: 9.000000  magneticMoment: [ Abs: 0.54670  Tot: -0.54000 ]
SCF: Cycle:  6   F: -24.451100109528156   dF: +1.521e-06   |Residual|: 1.208e-03   |deigs|: 3.444e-03  t[s]:     19.55
	FillingsUpdate:  mu: -0.093882627  nElectrons: 9.000000  magneticMoment: [ Abs: 0.54785  Tot: -0.54000 ]
SCF: Cycle:  7   F: -24.451117570574880   dF: -1.746e-05   |Residual|: 1.142e-03   |deigs|: 3.043e-03  t[s]:     21.47
	FillingsUpdate:  mu: -0.094073539  nElectrons: 9.000000  magneticMoment: [ Abs: 0.54191  Tot: -0.54000 ]
SCF: Cycle:  8   F: -24.451131319242982   dF: -1.375e-05   |Residual|: 8.991e-04   |deigs|: 5.432e-04  t[s]:     23.41
	FillingsUpdate:  mu: -0.092982345  nElectrons: 9.000000  magneticMoment: [ Abs: 0.54224  Tot: -0.54000 ]
SCF: Cycle:  9   F: -24.451135109574761   dF: -3.790e-06   |Residual|: 7.432e-04   |deigs|: 1.077e-03  t[s]:     25.38
	FillingsUpdate:  mu: -0.091575987  nElectrons: 9.000000  magneticMoment: [ Abs: 0.54436  Tot: -0.54000 ]
SCF: Cycle: 10   F: -24.451136277987167   dF: -1.168e-06   |Residual|: 6.134e-04   |deigs|: 1.467e-03  t[s]:     27.38
	FillingsUpdate:  mu: -0.090547294  nElectrons: 9.000000  magneticMoment: [ Abs: 0.54383  Tot: -0.54000 ]
SCF: Cycle: 11   F: -24.451135998571736   dF: +2.794e-07   |Residual|: 5.534e-04   |deigs|: 1.209e-03  t[s]:     29.46
	FillingsUpdate:  mu: -0.089273633  nElectrons: 9.000000  magneticMoment: [ Abs: 0.54377  Tot: -0.54000 ]
SCF: Cycle: 12   F: -24.451145161426716   dF: -9.163e-06   |Residual|: 4.855e-04   |deigs|: 1.292e-03  t[s]:     31.56
	FillingsUpdate:  mu: -0.087689884  nElectrons: 9.000000  magneticMoment: [ Abs: 0.54477  Tot: -0.54000 ]
SCF: Cycle: 13   F: -24.451153049105656   dF: -7.888e-06   |Residual|: 4.472e-04   |deigs|: 1.579e-03  t[s]:     33.57
	FillingsUpdate:  mu: -0.086482812  nElectrons: 9.000000  magneticMoment: [ Abs: 0.54295  Tot: -0.54000 ]
SCF: Cycle: 14   F: -24.451157007870115   dF: -3.959e-06   |Residual|: 4.066e-04   |deigs|: 1.242e-03  t[s]:     35.53
	FillingsUpdate:  mu: -0.085115960  nElectrons: 9.000000  magneticMoment: [ Abs: 0.54104  Tot: -0.54000 ]
SCF: Cycle: 15   F: -24.451160551441344   dF: -3.544e-06   |Residual|: 2.972e-04   |deigs|: 1.475e-03  t[s]:     37.50
	FillingsUpdate:  mu: -0.084831978  nElectrons: 9.000000  magneticMoment: [ Abs: 0.54101  Tot: -0.54000 ]
SCF: Cycle: 16   F: -24.451161882549279   dF: -1.331e-06   |Residual|: 2.155e-04   |deigs|: 3.618e-04  t[s]:     39.44
	FillingsUpdate:  mu: -0.084700497  nElectrons: 9.000000  magneticMoment: [ Abs: 0.54029  Tot: -0.54000 ]
SCF: Cycle: 17   F: -24.451162983798532   dF: -1.101e-06   |Residual|: 1.403e-04   |deigs|: 3.467e-04  t[s]:     41.46
	FillingsUpdate:  mu: -0.084641051  nElectrons: 9.000000  magneticMoment: [ Abs: 0.54012  Tot: -0.54000 ]
SCF: Cycle: 18   F: -24.451163307063329   dF: -3.233e-07   |Residual|: 1.003e-04   |deigs|: 1.773e-04  t[s]:     43.47
	FillingsUpdate:  mu: -0.084578509  nElectrons: 9.000000  magneticMoment: [ Abs: 0.54027  Tot: -0.54000 ]
SCF: Cycle: 19   F: -24.451163452574086   dF: -1.455e-07   |Residual|: 4.207e-05   |deigs|: 2.099e-04  t[s]:     45.45
	FillingsUpdate:  mu: -0.084556113  nElectrons: 9.000000  magneticMoment: [ Abs: 0.54028  Tot: -0.54000 ]
SCF: Cycle: 20   F: -24.451163507625196   dF: -5.505e-08   |Residual|: 2.516e-05   |deigs|: 2.215e-04  t[s]:     47.48
	FillingsUpdate:  mu: -0.084549135  nElectrons: 9.000000  magneticMoment: [ Abs: 0.54030  Tot: -0.54000 ]
SCF: Cycle: 21   F: -24.451163531172540   dF: -2.355e-08   |Residual|: 1.629e-05   |deigs|: 1.738e-04  t[s]:     49.55
	FillingsUpdate:  mu: -0.084559437  nElectrons: 9.000000  magneticMoment: [ Abs: 0.54030  Tot: -0.54000 ]
SCF: Cycle: 22   F: -24.451163552466561   dF: -2.129e-08   |Residual|: 1.112e-05   |deigs|: 7.511e-05  t[s]:     51.62
	FillingsUpdate:  mu: -0.084570498  nElectrons: 9.000000  magneticMoment: [ Abs: 0.54028  Tot: -0.54000 ]
SCF: Cycle: 23   F: -24.451163558305971   dF: -5.839e-09   |Residual|: 8.789e-06   |deigs|: 7.298e-05  t[s]:     53.53
	FillingsUpdate:  mu: -0.084589405  nElectrons: 9.000000  magneticMoment: [ Abs: 0.54024  Tot: -0.54000 ]
SCF: Cycle: 24   F: -24.451163562364307   dF: -4.058e-09   |Residual|: 7.682e-06   |deigs|: 6.038e-05  t[s]:     55.59
SCF: Converged (|Delta E|<1.000000e-08 for 2 iters).


# Ionic positions in lattice coordinates:
ion Rb   0.000000000000000   0.000000000000000   0.000000000000000 0

# Forces in Lattice coordinates:
force Rb  -0.000000000000000   0.000000000000000   0.000000000000000 0

# Energy components:
   Eewald =      -18.0480261003326561
       EH =        1.6603018841716781
     Eloc =      -10.5720395777875318
      Enl =       -0.7973437236111296
   Epulay =        0.0000000035676145
      Exc =       -3.6789971275699163
       KE =        6.9849417115674175
-------------------------------------
     Etot =      -24.4511629299945241
       TS =        0.0000006323697840
-------------------------------------
        F =      -24.4511635623643073

IonicMinimize: Iter:   0  F: -24.451163562364307  |grad|_K:  0.000e+00  t[s]:     55.70
IonicMinimize: Converged (|grad|_K<1.000000e-04).

#--- Lowdin population analysis ---
# oxidation-state Rb +0.071
# magnetic-moments Rb -0.476

End date and time: Sun Feb  6 12:41:23 2022  (Duration: 0-0:00:55.73)
Done!
scale=3
magnetization=-0.54
--------------------------------------------------------------------------
The library attempted to open the following supporting CUDA libraries,
but each of them failed.  CUDA-aware support is disabled.
libcuda.so.1: cannot open shared object file: No such file or directory
libcuda.dylib: cannot open shared object file: No such file or directory
/usr/lib64/libcuda.so.1: cannot open shared object file: No such file or directory
/usr/lib64/libcuda.dylib: cannot open shared object file: No such file or directory
If you are not interested in CUDA-aware support, then run with
--mca opal_warn_on_missing_libcuda 0 to suppress this message.  If you are interested
in CUDA-aware support, then try setting LD_LIBRARY_PATH to the location
of libcuda.so.1 to get passed this issue.
--------------------------------------------------------------------------
--------------------------------------------------------------------------
No OpenFabrics connection schemes reported that they were able to be
used on a specific port.  As such, the openib BTL (OpenFabrics
support) will be disabled for this port.

  Local host:           d-3-4-3
  Local device:         mlx5_1
  Local port:           1
  CPCs attempted:       rdmacm, udcm
--------------------------------------------------------------------------

*************** JDFTx 1.6.0 (git hash 42ebbcc2) ***************

Start date and time: Sun Feb  6 12:41:24 2022
Executable jdftx with command-line: -i Alkali.in
Running on hosts (process indices):  d-3-4-3 (0-18)
Divided in process groups (process indices):  0 (0)  1 (1)  2 (2)  3 (3)  4 (4)  5 (5)  6 (6)  7 (7)  8 (8)  9 (9)  10 (10)  11 (11)  12 (12)  13 (13)  14 (14)  15 (15)  16 (16)  17 (17)  18 (18)
Resource initialization completed at t[s]:      0.00
Run totals: 19 processes, 48 threads, 0 GPUs


Input parsed successfully to the following command list (including defaults):

basis kpoint-dependent
coords-type Lattice
core-overlap-check vector
coulomb-interaction Slab 001
davidson-band-ratio 1.1
dump End None
dump-name $INPUT.$VAR
elec-cutoff 20
elec-eigen-algo Davidson
elec-ex-corr gga-PBE
elec-initial-magnetization -0.540000 yes
elec-smearing Fermi 1e-05
electronic-minimize  \
	dirUpdateScheme      FletcherReeves \
	linminMethod         DirUpdateRecommended \
	nIterations          100 \
	history              15 \
	knormThreshold       0 \
	energyDiffThreshold  1e-08 \
	nEnergyDiff          2 \
	alphaTstart          1 \
	alphaTmin            1e-10 \
	updateTestStepSize   yes \
	alphaTreduceFactor   0.1 \
	alphaTincreaseFactor 3 \
	nAlphaAdjustMax      3 \
	wolfeEnergy          0.0001 \
	wolfeGradient        0.9 \
	fdTest               no
electronic-scf  \
	nIterations	10000 \
	energyDiffThreshold	1e-08 \
	residualThreshold	1e-07 \
	mixFraction	0.5 \
	qMetric	0.8 \
	history	10 \
	nEigSteps	2 \
	eigDiffThreshold	1e-08 \
	mixedVariable	Density \
	qKerker	0.8 \
	qKappa	-1 \
	verbose	no \
	mixFractionMag	1.5
exchange-regularization WignerSeitzTruncated
fluid None
fluid-ex-corr (null) lda-PZ
fluid-gummel-loop 10 1.000000e-05
fluid-minimize  \
	dirUpdateScheme      PolakRibiere \
	linminMethod         DirUpdateRecommended \
	nIterations          100 \
	history              15 \
	knormThreshold       0 \
	energyDiffThreshold  0 \
	nEnergyDiff          2 \
	alphaTstart          1 \
	alphaTmin            1e-10 \
	updateTestStepSize   yes \
	alphaTreduceFactor   0.1 \
	alphaTincreaseFactor 3 \
	nAlphaAdjustMax      3 \
	wolfeEnergy          0.0001 \
	wolfeGradient        0.9 \
	fdTest               no
fluid-solvent H2O 55.338 ScalarEOS \
	epsBulk 78.4 \
	pMol 0.92466 \
	epsInf 1.77 \
	Pvap 1.06736e-10 \
	sigmaBulk 4.62e-05 \
	Rvdw 2.61727 \
	Res 1.42 \
	tauNuc 343133 \
	poleEl 15 7 1
forces-output-coords Positions
ion Rb   0.000000000000000   0.000000000000000   0.000000000000000 0
ion-species SG15/$ID_ONCV_PBE.upf
ion-width 0
ionic-minimize  \
	dirUpdateScheme      L-BFGS \
	linminMethod         DirUpdateRecommended \
	nIterations          0 \
	history              15 \
	knormThreshold       0.0001 \
	energyDiffThreshold  1e-06 \
	nEnergyDiff          2 \
	alphaTstart          1 \
	alphaTmin            1e-10 \
	updateTestStepSize   yes \
	alphaTreduceFactor   0.1 \
	alphaTincreaseFactor 3 \
	nAlphaAdjustMax      3 \
	wolfeEnergy          0.0001 \
	wolfeGradient        0.9 \
	fdTest               no
kpoint   0.000000000000   0.000000000000   0.000000000000  1.00000000000000
kpoint-folding 12 12 1 
latt-move-scale 1 1 1
latt-scale 3 3 1 
lattice  \
	   4.727486978767153   -2.363743489383575    0.000000000000000  \
	  -0.000000000000000    4.094123819672498    0.000000000000000  \
	   0.000000000000000    0.000000000000000   40.000000000000000 
lattice-minimize  \
	dirUpdateScheme      L-BFGS \
	linminMethod         DirUpdateRecommended \
	nIterations          0 \
	history              15 \
	knormThreshold       0 \
	energyDiffThreshold  1e-06 \
	nEnergyDiff          2 \
	alphaTstart          1 \
	alphaTmin            1e-10 \
	updateTestStepSize   yes \
	alphaTreduceFactor   0.1 \
	alphaTincreaseFactor 3 \
	nAlphaAdjustMax      3 \
	wolfeEnergy          0.0001 \
	wolfeGradient        0.9 \
	fdTest               no
lcao-params -1 1e-06 1e-05
pcm-variant GLSSA13
spintype z-spin
subspace-rotation-factor 1 yes
symmetries automatic
symmetry-threshold 0.0001



---------- Setting up symmetries ----------

Found 24 point-group symmetries of the bravais lattice
Found 24 space-group symmetries with basis
Applied RMS atom displacement 0 bohrs to make symmetries exact.

---------- Initializing the Grid ----------
R = 
[      14.1825     -7.09123            0  ]
[            0      12.2824            0  ]
[            0            0           40  ]
unit cell volume = 6967.77
G =
[   0.443025   0.255781         -0  ]
[          0   0.511561         -0  ]
[         -0         -0    0.15708  ]
Minimum fftbox size, Smin = [  60  60  164  ]
Chosen fftbox size, S = [  60  60  168  ]

---------- Exchange Correlation functional ----------
Initalized PBE GGA exchange.
Initalized PBE GGA correlation.

---------- Setting up pseudopotentials ----------
Width of ionic core gaussian charges (only for fluid interactions / plotting) set to 0

Reading pseudopotential file '/home/gridsan/aligho/DFT/build-Nov24/pseudopotentials/SG15/Rb_ONCV_PBE.upf':
  'Rb' pseudopotential, 'PBE' functional
  Generated using ONCVPSP code by D. R. Hamann
  Author: Martin Schlipf and Francois Gygi  Date: 150915.
  9 valence electrons, 3 orbitals, 6 projectors, 2308 radial grid points, with lMax = 2
  Transforming local potential to a uniform radial grid of dG=0.02 with 1489 points.
  Transforming nonlocal projectors to a uniform radial grid of dG=0.02 with 432 points.
    4S    l: 0   occupation:  2.0   eigenvalue: -1.172069
    4P    l: 1   occupation:  6.0   eigenvalue: -0.586674
    5S    l: 0   occupation:  1.0   eigenvalue: -0.082006
  Transforming atomic orbitals to a uniform radial grid of dG=0.02 with 432 points.
  Core radius for overlap checks: 2.60 bohrs.
  Reading pulay file /home/gridsan/aligho/DFT/build-Nov24/pseudopotentials/SG15/Rb_ONCV_PBE.pulay ... using dE_dnG = -1.360715e-05 computed for Ecut = 20.

Initialized 1 species with 1 total atoms.

Folded 1 k-points by 12x12x1 to 144 k-points.

---------- Setting up k-points, bands, fillings ----------
Reduced to 19 k-points under symmetry. 
Computing the number of bands and number of electrons
Calculating initial fillings.
nElectrons:   9.000000   nBands: 6   nStates: 38

----- Setting up reduced wavefunction bases (one per k-point) -----
average nbasis = 29766.104 , ideal nbasis = 29766.845

---------- Setting up coulomb interaction ----------
Initialized slab truncation along lattice direction 001

---------- Setting up 2D ewald sum ----------
Optimum gaussian width for ewald sums = 7.873530 bohr.
Real space sums over 289 unit cells with max indices [  8  8  0  ]
Reciprocal space sums over 81 terms with max indices [  4  4  0  ]

---------- Allocating electronic variables ----------
Initializing wave functions:  linear combination of atomic orbitals
Note: number of bands (6) exceeds available atomic orbitals (5)
Rb pseudo-atom occupations:   s ( 2 1 )  p ( 6 )
[d-3-4-3:22092] 18 more processes have sent help message help-mpi-common-cuda.txt / dlopen failed
[d-3-4-3:22092] Set MCA parameter "orte_base_help_aggregate" to 0 to see all help / error messages
[d-3-4-3:22092] 18 more processes have sent help message help-mpi-btl-openib-cpc-base.txt / no cpcs for port
	FillingsUpdate:  mu: -0.085216171  nElectrons: 9.000000  magneticMoment: [ Abs: 0.54000  Tot: -0.54000 ]
LCAOMinimize: Iter:   0  F: -24.4358345411432083  |grad|_K:  1.575e-05  alpha:  1.000e+00
	FillingsUpdate:  mu: -0.085213415  nElectrons: 9.000000  magneticMoment: [ Abs: 0.54000  Tot: -0.54000 ]
LCAOMinimize: Iter:   1  F: -24.4358347089787706  |grad|_K:  1.213e-07  alpha:  9.889e-01  linmin: -1.392e-02  cgtest:  3.101e-01  t[s]:      8.82
LCAOMinimize: Encountered beta<0, resetting CG.
	FillingsUpdate:  mu: -0.085213427  nElectrons: 9.000000  magneticMoment: [ Abs: 0.54000  Tot: -0.54000 ]
LCAOMinimize: Iter:   2  F: -24.4358347089889705  |grad|_K:  5.153e-09  alpha:  1.042e+00  linmin:  8.509e-02  cgtest: -9.929e-01  t[s]:     11.23
LCAOMinimize: Converged (|Delta F|<1.000000e-06 for 2 iters).


---- Citations for features of the code used in this run ----

   Software package:
      R. Sundararaman, K. Letchworth-Weaver, K.A. Schwarz, D. Gunceler, Y. Ozhabes and T.A. Arias, 'JDFTx: software for joint density-functional theory', SoftwareX 6, 278 (2017)

   gga-PBE exchange-correlation functional:
      J.P. Perdew, K. Burke and M. Ernzerhof, Phys. Rev. Lett. 77, 3865 (1996)

   Pseudopotentials:
      M Schlipf and F Gygi, Comput. Phys. Commun. 196, 36 (2015)

   Truncated Coulomb potentials:
      R. Sundararaman and T.A. Arias, Phys. Rev. B 87, 165122 (2013)

This list may not be complete. Please suggest additional citations or
report any other bugs at https://github.com/shankar1729/jdftx/issues

Initialization completed successfully at t[s]:     11.39


-------- Electronic minimization -----------
Will mix electronic density at each iteration.
	FillingsUpdate:  mu: -0.085213427  nElectrons: 9.000000  magneticMoment: [ Abs: 0.54000  Tot: -0.54000 ]
	FillingsUpdate:  mu: -0.086541092  nElectrons: 9.000000  magneticMoment: [ Abs: 0.54000  Tot: -0.54000 ]
SCF: Cycle:  0   F: -24.437440645259159   dF: -1.606e-03   |Residual|: 4.019e-03   |deigs|: 1.736e-01  t[s]:     16.10
	FillingsUpdate:  mu: -0.086709281  nElectrons: 9.000000  magneticMoment: [ Abs: 0.54043  Tot: -0.54000 ]
SCF: Cycle:  1   F: -24.437498337180099   dF: -5.769e-05   |Residual|: 3.206e-03   |deigs|: 4.559e-03  t[s]:     19.81
	FillingsUpdate:  mu: -0.086870252  nElectrons: 9.000000  magneticMoment: [ Abs: 0.54240  Tot: -0.54000 ]
SCF: Cycle:  2   F: -24.437537388507536   dF: -3.905e-05   |Residual|: 2.292e-03   |deigs|: 2.100e-03  t[s]:     23.62
	FillingsUpdate:  mu: -0.087079296  nElectrons: 9.000000  magneticMoment: [ Abs: 0.54309  Tot: -0.54000 ]
SCF: Cycle:  3   F: -24.437560698922113   dF: -2.331e-05   |Residual|: 1.520e-03   |deigs|: 3.035e-03  t[s]:     27.43
	FillingsUpdate:  mu: -0.087122320  nElectrons: 9.000000  magneticMoment: [ Abs: 0.54124  Tot: -0.54000 ]
SCF: Cycle:  4   F: -24.437571098005190   dF: -1.040e-05   |Residual|: 7.944e-04   |deigs|: 2.235e-03  t[s]:     31.35
	FillingsUpdate:  mu: -0.087181365  nElectrons: 9.000000  magneticMoment: [ Abs: 0.54202  Tot: -0.54000 ]
SCF: Cycle:  5   F: -24.437577758971749   dF: -6.661e-06   |Residual|: 5.122e-04   |deigs|: 1.339e-03  t[s]:     35.28
	FillingsUpdate:  mu: -0.087090619  nElectrons: 9.000000  magneticMoment: [ Abs: 0.54181  Tot: -0.54000 ]
SCF: Cycle:  6   F: -24.437581745702211   dF: -3.987e-06   |Residual|: 3.687e-04   |deigs|: 1.415e-03  t[s]:     39.26
	FillingsUpdate:  mu: -0.086925274  nElectrons: 9.000000  magneticMoment: [ Abs: 0.54207  Tot: -0.54000 ]
SCF: Cycle:  7   F: -24.437582690845332   dF: -9.451e-07   |Residual|: 3.009e-04   |deigs|: 6.277e-04  t[s]:     43.29
	FillingsUpdate:  mu: -0.086678004  nElectrons: 9.000000  magneticMoment: [ Abs: 0.54287  Tot: -0.54000 ]
SCF: Cycle:  8   F: -24.437582889106572   dF: -1.983e-07   |Residual|: 2.419e-04   |deigs|: 3.448e-04  t[s]:     47.49
	FillingsUpdate:  mu: -0.086301342  nElectrons: 9.000000  magneticMoment: [ Abs: 0.54317  Tot: -0.54000 ]
SCF: Cycle:  9   F: -24.437581982268533   dF: +9.068e-07   |Residual|: 2.136e-04   |deigs|: 4.795e-04  t[s]:     51.70
	FillingsUpdate:  mu: -0.086071538  nElectrons: 9.000000  magneticMoment: [ Abs: 0.54292  Tot: -0.54000 ]
SCF: Cycle: 10   F: -24.437581828969488   dF: +1.533e-07   |Residual|: 1.923e-04   |deigs|: 4.218e-04  t[s]:     55.92
	FillingsUpdate:  mu: -0.085968791  nElectrons: 9.000000  magneticMoment: [ Abs: 0.54281  Tot: -0.54000 ]
SCF: Cycle: 11   F: -24.437583572526208   dF: -1.744e-06   |Residual|: 1.437e-04   |deigs|: 3.018e-04  t[s]:     60.16
	FillingsUpdate:  mu: -0.085758006  nElectrons: 9.000000  magneticMoment: [ Abs: 0.54317  Tot: -0.54000 ]
SCF: Cycle: 12   F: -24.437583831151244   dF: -2.586e-07   |Residual|: 1.372e-04   |deigs|: 4.783e-04  t[s]:     64.38
	FillingsUpdate:  mu: -0.085336670  nElectrons: 9.000000  magneticMoment: [ Abs: 0.54286  Tot: -0.54000 ]
SCF: Cycle: 13   F: -24.437583441805387   dF: +3.893e-07   |Residual|: 1.355e-04   |deigs|: 5.207e-04  t[s]:     68.66
	FillingsUpdate:  mu: -0.085129680  nElectrons: 9.000000  magneticMoment: [ Abs: 0.54265  Tot: -0.54000 ]
SCF: Cycle: 14   F: -24.437583266456997   dF: +1.753e-07   |Residual|: 1.252e-04   |deigs|: 2.500e-04  t[s]:     72.99
	FillingsUpdate:  mu: -0.085041997  nElectrons: 9.000000  magneticMoment: [ Abs: 0.54269  Tot: -0.54000 ]
SCF: Cycle: 15   F: -24.437584107638102   dF: -8.412e-07   |Residual|: 1.059e-04   |deigs|: 1.306e-04  t[s]:     77.24
	FillingsUpdate:  mu: -0.084842259  nElectrons: 9.000000  magneticMoment: [ Abs: 0.54206  Tot: -0.54000 ]
SCF: Cycle: 16   F: -24.437584880196923   dF: -7.726e-07   |Residual|: 7.337e-05   |deigs|: 2.326e-04  t[s]:     81.56
	FillingsUpdate:  mu: -0.084699536  nElectrons: 9.000000  magneticMoment: [ Abs: 0.54197  Tot: -0.54000 ]
SCF: Cycle: 17   F: -24.437585081444439   dF: -2.012e-07   |Residual|: 5.356e-05   |deigs|: 1.579e-04  t[s]:     85.68
	FillingsUpdate:  mu: -0.084691790  nElectrons: 9.000000  magneticMoment: [ Abs: 0.54192  Tot: -0.54000 ]
SCF: Cycle: 18   F: -24.437585201783996   dF: -1.203e-07   |Residual|: 3.669e-05   |deigs|: 3.311e-05  t[s]:     89.92
	FillingsUpdate:  mu: -0.084703122  nElectrons: 9.000000  magneticMoment: [ Abs: 0.54195  Tot: -0.54000 ]
SCF: Cycle: 19   F: -24.437585289619697   dF: -8.784e-08   |Residual|: 1.973e-05   |deigs|: 2.815e-05  t[s]:     94.14
	FillingsUpdate:  mu: -0.084687421  nElectrons: 9.000000  magneticMoment: [ Abs: 0.54194  Tot: -0.54000 ]
SCF: Cycle: 20   F: -24.437585306875082   dF: -1.726e-08   |Residual|: 1.446e-05   |deigs|: 1.756e-05  t[s]:     98.39
	FillingsUpdate:  mu: -0.084694630  nElectrons: 9.000000  magneticMoment: [ Abs: 0.54193  Tot: -0.54000 ]
SCF: Cycle: 21   F: -24.437585314041272   dF: -7.166e-09   |Residual|: 9.584e-06   |deigs|: 1.105e-05  t[s]:    102.59
	FillingsUpdate:  mu: -0.084695953  nElectrons: 9.000000  magneticMoment: [ Abs: 0.54195  Tot: -0.54000 ]
SCF: Cycle: 22   F: -24.437585323686292   dF: -9.645e-09   |Residual|: 5.439e-06   |deigs|: 5.161e-06  t[s]:    106.81
SCF: Converged (|Delta E|<1.000000e-08 for 2 iters).


# Ionic positions in lattice coordinates:
ion Rb   0.000000000000000   0.000000000000000   0.000000000000000 0

# Forces in Lattice coordinates:
force Rb   0.000000000000000   0.000000000000000   0.000000000000000 0

# Energy components:
   Eewald =      -12.0320174002217755
       EH =        7.4995541636309371
     Eloc =      -22.4108802375383860
      Enl =       -0.7971668560018841
   Epulay =       -0.0000000014467880
      Exc =       -3.6487094112036478
       KE =        6.9516350514650362
-------------------------------------
     Etot =      -24.4375846913165091
       TS =        0.0000006323697840
-------------------------------------
        F =      -24.4375853236862923

IonicMinimize: Iter:   0  F: -24.437585323686292  |grad|_K:  0.000e+00  t[s]:    107.06
IonicMinimize: Converged (|grad|_K<1.000000e-04).

#--- Lowdin population analysis ---
# oxidation-state Rb +0.035
# magnetic-moments Rb -0.511

End date and time: Sun Feb  6 12:43:11 2022  (Duration: 0-0:01:47.11)
Done!
scale=4
magnetization=-0.54
--------------------------------------------------------------------------
The library attempted to open the following supporting CUDA libraries,
but each of them failed.  CUDA-aware support is disabled.
libcuda.so.1: cannot open shared object file: No such file or directory
libcuda.dylib: cannot open shared object file: No such file or directory
/usr/lib64/libcuda.so.1: cannot open shared object file: No such file or directory
/usr/lib64/libcuda.dylib: cannot open shared object file: No such file or directory
If you are not interested in CUDA-aware support, then run with
--mca opal_warn_on_missing_libcuda 0 to suppress this message.  If you are interested
in CUDA-aware support, then try setting LD_LIBRARY_PATH to the location
of libcuda.so.1 to get passed this issue.
--------------------------------------------------------------------------
--------------------------------------------------------------------------
No OpenFabrics connection schemes reported that they were able to be
used on a specific port.  As such, the openib BTL (OpenFabrics
support) will be disabled for this port.

  Local host:           d-3-4-3
  Local device:         mlx5_1
  Local port:           1
  CPCs attempted:       rdmacm, udcm
--------------------------------------------------------------------------

*************** JDFTx 1.6.0 (git hash 42ebbcc2) ***************

Start date and time: Sun Feb  6 12:43:13 2022
Executable jdftx with command-line: -i Alkali.in
Running on hosts (process indices):  d-3-4-3 (0-18)
Divided in process groups (process indices):  0 (0)  1 (1)  2 (2)  3 (3)  4 (4)  5 (5)  6 (6)  7 (7)  8 (8)  9 (9)  10 (10)  11 (11)  12 (12)  13 (13)  14 (14)  15 (15)  16 (16)  17 (17)  18 (18)
Resource initialization completed at t[s]:      0.00
Run totals: 19 processes, 48 threads, 0 GPUs


Input parsed successfully to the following command list (including defaults):

basis kpoint-dependent
coords-type Lattice
core-overlap-check vector
coulomb-interaction Slab 001
davidson-band-ratio 1.1
dump End None
dump-name $INPUT.$VAR
elec-cutoff 20
elec-eigen-algo Davidson
elec-ex-corr gga-PBE
elec-initial-magnetization -0.540000 yes
elec-smearing Fermi 1e-05
electronic-minimize  \
	dirUpdateScheme      FletcherReeves \
	linminMethod         DirUpdateRecommended \
	nIterations          100 \
	history              15 \
	knormThreshold       0 \
	energyDiffThreshold  1e-08 \
	nEnergyDiff          2 \
	alphaTstart          1 \
	alphaTmin            1e-10 \
	updateTestStepSize   yes \
	alphaTreduceFactor   0.1 \
	alphaTincreaseFactor 3 \
	nAlphaAdjustMax      3 \
	wolfeEnergy          0.0001 \
	wolfeGradient        0.9 \
	fdTest               no
electronic-scf  \
	nIterations	10000 \
	energyDiffThreshold	1e-08 \
	residualThreshold	1e-07 \
	mixFraction	0.5 \
	qMetric	0.8 \
	history	10 \
	nEigSteps	2 \
	eigDiffThreshold	1e-08 \
	mixedVariable	Density \
	qKerker	0.8 \
	qKappa	-1 \
	verbose	no \
	mixFractionMag	1.5
exchange-regularization WignerSeitzTruncated
fluid None
fluid-ex-corr (null) lda-PZ
fluid-gummel-loop 10 1.000000e-05
fluid-minimize  \
	dirUpdateScheme      PolakRibiere \
	linminMethod         DirUpdateRecommended \
	nIterations          100 \
	history              15 \
	knormThreshold       0 \
	energyDiffThreshold  0 \
	nEnergyDiff          2 \
	alphaTstart          1 \
	alphaTmin            1e-10 \
	updateTestStepSize   yes \
	alphaTreduceFactor   0.1 \
	alphaTincreaseFactor 3 \
	nAlphaAdjustMax      3 \
	wolfeEnergy          0.0001 \
	wolfeGradient        0.9 \
	fdTest               no
fluid-solvent H2O 55.338 ScalarEOS \
	epsBulk 78.4 \
	pMol 0.92466 \
	epsInf 1.77 \
	Pvap 1.06736e-10 \
	sigmaBulk 4.62e-05 \
	Rvdw 2.61727 \
	Res 1.42 \
	tauNuc 343133 \
	poleEl 15 7 1
forces-output-coords Positions
ion Rb   0.000000000000000   0.000000000000000   0.000000000000000 0
ion-species SG15/$ID_ONCV_PBE.upf
ion-width 0
ionic-minimize  \
	dirUpdateScheme      L-BFGS \
	linminMethod         DirUpdateRecommended \
	nIterations          0 \
	history              15 \
	knormThreshold       0.0001 \
	energyDiffThreshold  1e-06 \
	nEnergyDiff          2 \
	alphaTstart          1 \
	alphaTmin            1e-10 \
	updateTestStepSize   yes \
	alphaTreduceFactor   0.1 \
	alphaTincreaseFactor 3 \
	nAlphaAdjustMax      3 \
	wolfeEnergy          0.0001 \
	wolfeGradient        0.9 \
	fdTest               no
kpoint   0.000000000000   0.000000000000   0.000000000000  1.00000000000000
kpoint-folding 12 12 1 
latt-move-scale 1 1 1
latt-scale 4 4 1 
lattice  \
	   4.727486978767153   -2.363743489383575    0.000000000000000  \
	  -0.000000000000000    4.094123819672498    0.000000000000000  \
	   0.000000000000000    0.000000000000000   40.000000000000000 
lattice-minimize  \
	dirUpdateScheme      L-BFGS \
	linminMethod         DirUpdateRecommended \
	nIterations          0 \
	history              15 \
	knormThreshold       0 \
	energyDiffThreshold  1e-06 \
	nEnergyDiff          2 \
	alphaTstart          1 \
	alphaTmin            1e-10 \
	updateTestStepSize   yes \
	alphaTreduceFactor   0.1 \
	alphaTincreaseFactor 3 \
	nAlphaAdjustMax      3 \
	wolfeEnergy          0.0001 \
	wolfeGradient        0.9 \
	fdTest               no
lcao-params -1 1e-06 1e-05
pcm-variant GLSSA13
spintype z-spin
subspace-rotation-factor 1 yes
symmetries automatic
symmetry-threshold 0.0001



---------- Setting up symmetries ----------

Found 24 point-group symmetries of the bravais lattice
Found 24 space-group symmetries with basis
Applied RMS atom displacement 0 bohrs to make symmetries exact.

---------- Initializing the Grid ----------
R = 
[      18.9099     -9.45497            0  ]
[            0      16.3765            0  ]
[            0            0           40  ]
unit cell volume = 12387.1
G =
[   0.332269   0.191835         -0  ]
[          0   0.383671         -0  ]
[         -0         -0    0.15708  ]
Minimum fftbox size, Smin = [  80  80  164  ]
Chosen fftbox size, S = [  80  80  168  ]

---------- Exchange Correlation functional ----------
Initalized PBE GGA exchange.
Initalized PBE GGA correlation.

---------- Setting up pseudopotentials ----------
Width of ionic core gaussian charges (only for fluid interactions / plotting) set to 0

Reading pseudopotential file '/home/gridsan/aligho/DFT/build-Nov24/pseudopotentials/SG15/Rb_ONCV_PBE.upf':
  'Rb' pseudopotential, 'PBE' functional
  Generated using ONCVPSP code by D. R. Hamann
  Author: Martin Schlipf and Francois Gygi  Date: 150915.
  9 valence electrons, 3 orbitals, 6 projectors, 2308 radial grid points, with lMax = 2
  Transforming local potential to a uniform radial grid of dG=0.02 with 1489 points.
  Transforming nonlocal projectors to a uniform radial grid of dG=0.02 with 432 points.
    4S    l: 0   occupation:  2.0   eigenvalue: -1.172069
    4P    l: 1   occupation:  6.0   eigenvalue: -0.586674
    5S    l: 0   occupation:  1.0   eigenvalue: -0.082006
  Transforming atomic orbitals to a uniform radial grid of dG=0.02 with 432 points.
  Core radius for overlap checks: 2.60 bohrs.
  Reading pulay file /home/gridsan/aligho/DFT/build-Nov24/pseudopotentials/SG15/Rb_ONCV_PBE.pulay ... using dE_dnG = -1.360715e-05 computed for Ecut = 20.

Initialized 1 species with 1 total atoms.

Folded 1 k-points by 12x12x1 to 144 k-points.

---------- Setting up k-points, bands, fillings ----------
Reduced to 19 k-points under symmetry. 
Computing the number of bands and number of electrons
Calculating initial fillings.
nElectrons:   9.000000   nBands: 6   nStates: 38

----- Setting up reduced wavefunction bases (one per k-point) -----
average nbasis = 52924.021 , ideal nbasis = 52918.836

---------- Setting up coulomb interaction ----------
Initialized slab truncation along lattice direction 001

---------- Setting up 2D ewald sum ----------
Optimum gaussian width for ewald sums = 10.498040 bohr.
Real space sums over 289 unit cells with max indices [  8  8  0  ]
Reciprocal space sums over 81 terms with max indices [  4  4  0  ]

---------- Allocating electronic variables ----------
Initializing wave functions:  linear combination of atomic orbitals
Note: number of bands (6) exceeds available atomic orbitals (5)
Rb pseudo-atom occupations:   s ( 2 1 )  p ( 6 )
[d-3-4-3:59243] 18 more processes have sent help message help-mpi-common-cuda.txt / dlopen failed
[d-3-4-3:59243] Set MCA parameter "orte_base_help_aggregate" to 0 to see all help / error messages
[d-3-4-3:59243] 18 more processes have sent help message help-mpi-btl-openib-cpc-base.txt / no cpcs for port
	FillingsUpdate:  mu: -0.082781827  nElectrons: 9.000000  magneticMoment: [ Abs: 0.54000  Tot: -0.54000 ]
LCAOMinimize: Iter:   0  F: -24.4315119673301027  |grad|_K:  3.901e-06  alpha:  1.000e+00
	FillingsUpdate:  mu: -0.082780953  nElectrons: 9.000000  magneticMoment: [ Abs: 0.54000  Tot: -0.54000 ]
LCAOMinimize: Iter:   1  F: -24.4315119776198451  |grad|_K:  2.046e-08  alpha:  9.887e-01  linmin: -7.205e-04  cgtest:  1.847e-01  t[s]:     14.90
LCAOMinimize: Encountered beta<0, resetting CG.
LCAOMinimize: 	Predicted alpha/alphaT>3.000000, increasing alphaT to 2.965982e+00.
	FillingsUpdate:  mu: -0.082780953  nElectrons: 9.000000  magneticMoment: [ Abs: 0.54000  Tot: -0.54000 ]
LCAOMinimize: Iter:   2  F: -24.4315119776200298  |grad|_K:  7.827e-10  alpha:  1.038e+00  linmin:  3.570e-03  cgtest: -9.958e-01  t[s]:     20.48
LCAOMinimize: Converged (|Delta F|<1.000000e-06 for 2 iters).


---- Citations for features of the code used in this run ----

   Software package:
      R. Sundararaman, K. Letchworth-Weaver, K.A. Schwarz, D. Gunceler, Y. Ozhabes and T.A. Arias, 'JDFTx: software for joint density-functional theory', SoftwareX 6, 278 (2017)

   gga-PBE exchange-correlation functional:
      J.P. Perdew, K. Burke and M. Ernzerhof, Phys. Rev. Lett. 77, 3865 (1996)

   Pseudopotentials:
      M Schlipf and F Gygi, Comput. Phys. Commun. 196, 36 (2015)

   Truncated Coulomb potentials:
      R. Sundararaman and T.A. Arias, Phys. Rev. B 87, 165122 (2013)

This list may not be complete. Please suggest additional citations or
report any other bugs at https://github.com/shankar1729/jdftx/issues

Initialization completed successfully at t[s]:     20.74


-------- Electronic minimization -----------
Will mix electronic density at each iteration.
	FillingsUpdate:  mu: -0.082780953  nElectrons: 9.000000  magneticMoment: [ Abs: 0.54000  Tot: -0.54000 ]
	FillingsUpdate:  mu: -0.082878763  nElectrons: 9.000000  magneticMoment: [ Abs: 0.54000  Tot: -0.54000 ]
SCF: Cycle:  0   F: -24.431613730673501   dF: -1.018e-04   |Residual|: 1.267e-03   |deigs|: 1.736e-01  t[s]:     28.82
	FillingsUpdate:  mu: -0.082890474  nElectrons: 9.000000  magneticMoment: [ Abs: 0.54260  Tot: -0.54000 ]
SCF: Cycle:  1   F: -24.431615527293591   dF: -1.797e-06   |Residual|: 3.808e-04   |deigs|: 5.898e-03  t[s]:     35.20
	FillingsUpdate:  mu: -0.082898551  nElectrons: 9.000000  magneticMoment: [ Abs: 0.54274  Tot: -0.54000 ]
SCF: Cycle:  2   F: -24.431616003552929   dF: -4.763e-07   |Residual|: 2.484e-04   |deigs|: 1.616e-03  t[s]:     41.75
	FillingsUpdate:  mu: -0.082910239  nElectrons: 9.000000  magneticMoment: [ Abs: 0.54325  Tot: -0.54000 ]
SCF: Cycle:  3   F: -24.431616278200426   dF: -2.746e-07   |Residual|: 1.898e-04   |deigs|: 8.867e-04  t[s]:     48.33
	FillingsUpdate:  mu: -0.082914648  nElectrons: 9.000000  magneticMoment: [ Abs: 0.54317  Tot: -0.54000 ]
SCF: Cycle:  4   F: -24.431616586309826   dF: -3.081e-07   |Residual|: 1.414e-04   |deigs|: 2.029e-04  t[s]:     55.03
	FillingsUpdate:  mu: -0.082925680  nElectrons: 9.000000  magneticMoment: [ Abs: 0.54323  Tot: -0.54000 ]
SCF: Cycle:  5   F: -24.431616818053264   dF: -2.317e-07   |Residual|: 9.797e-05   |deigs|: 4.911e-04  t[s]:     61.90
	FillingsUpdate:  mu: -0.082921376  nElectrons: 9.000000  magneticMoment: [ Abs: 0.54321  Tot: -0.54000 ]
SCF: Cycle:  6   F: -24.431616976502823   dF: -1.584e-07   |Residual|: 6.643e-05   |deigs|: 5.235e-04  t[s]:     68.85
	FillingsUpdate:  mu: -0.082915068  nElectrons: 9.000000  magneticMoment: [ Abs: 0.54320  Tot: -0.54000 ]
SCF: Cycle:  7   F: -24.431617062752281   dF: -8.625e-08   |Residual|: 5.017e-05   |deigs|: 6.394e-04  t[s]:     75.91
	FillingsUpdate:  mu: -0.082901471  nElectrons: 9.000000  magneticMoment: [ Abs: 0.54320  Tot: -0.54000 ]
SCF: Cycle:  8   F: -24.431617109435631   dF: -4.668e-08   |Residual|: 4.041e-05   |deigs|: 4.077e-04  t[s]:     83.05
	FillingsUpdate:  mu: -0.082873520  nElectrons: 9.000000  magneticMoment: [ Abs: 0.54318  Tot: -0.54000 ]
SCF: Cycle:  9   F: -24.431617144110529   dF: -3.467e-08   |Residual|: 3.116e-05   |deigs|: 1.197e-04  t[s]:     90.30
	FillingsUpdate:  mu: -0.082850028  nElectrons: 9.000000  magneticMoment: [ Abs: 0.54320  Tot: -0.54000 ]
SCF: Cycle: 10   F: -24.431617133944762   dF: +1.017e-08   |Residual|: 2.839e-05   |deigs|: 1.152e-04  t[s]:     97.81
	FillingsUpdate:  mu: -0.082820383  nElectrons: 9.000000  magneticMoment: [ Abs: 0.54334  Tot: -0.54000 ]
SCF: Cycle: 11   F: -24.431617084925382   dF: +4.902e-08   |Residual|: 2.804e-05   |deigs|: 1.303e-04  t[s]:    105.22
	FillingsUpdate:  mu: -0.082790100  nElectrons: 9.000000  magneticMoment: [ Abs: 0.54339  Tot: -0.54000 ]
SCF: Cycle: 12   F: -24.431616930287941   dF: +1.546e-07   |Residual|: 2.487e-05   |deigs|: 8.535e-05  t[s]:    112.56
	FillingsUpdate:  mu: -0.082760865  nElectrons: 9.000000  magneticMoment: [ Abs: 0.54338  Tot: -0.54000 ]
SCF: Cycle: 13   F: -24.431617010789601   dF: -8.050e-08   |Residual|: 2.306e-05   |deigs|: 5.749e-05  t[s]:    119.85
	FillingsUpdate:  mu: -0.082736292  nElectrons: 9.000000  magneticMoment: [ Abs: 0.54340  Tot: -0.54000 ]
SCF: Cycle: 14   F: -24.431617149310998   dF: -1.385e-07   |Residual|: 1.814e-05   |deigs|: 3.417e-05  t[s]:    126.88
	FillingsUpdate:  mu: -0.082697250  nElectrons: 9.000000  magneticMoment: [ Abs: 0.54341  Tot: -0.54000 ]
SCF: Cycle: 15   F: -24.431616995613091   dF: +1.537e-07   |Residual|: 1.893e-05   |deigs|: 4.663e-05  t[s]:    134.01
	FillingsUpdate:  mu: -0.082667816  nElectrons: 9.000000  magneticMoment: [ Abs: 0.54330  Tot: -0.54000 ]
SCF: Cycle: 16   F: -24.431617117238993   dF: -1.216e-07   |Residual|: 1.571e-05   |deigs|: 3.412e-05  t[s]:    141.11
	FillingsUpdate:  mu: -0.082668314  nElectrons: 9.000000  magneticMoment: [ Abs: 0.54325  Tot: -0.54000 ]
SCF: Cycle: 17   F: -24.431617127886071   dF: -1.065e-08   |Residual|: 1.272e-05   |deigs|: 1.426e-05  t[s]:    148.09
	FillingsUpdate:  mu: -0.082662978  nElectrons: 9.000000  magneticMoment: [ Abs: 0.54320  Tot: -0.54000 ]
SCF: Cycle: 18   F: -24.431617161728667   dF: -3.384e-08   |Residual|: 9.116e-06   |deigs|: 1.025e-05  t[s]:    155.57
	FillingsUpdate:  mu: -0.082653088  nElectrons: 9.000000  magneticMoment: [ Abs: 0.54317  Tot: -0.54000 ]
SCF: Cycle: 19   F: -24.431617170952219   dF: -9.224e-09   |Residual|: 7.167e-06   |deigs|: 9.815e-06  t[s]:    162.78
	FillingsUpdate:  mu: -0.082651625  nElectrons: 9.000000  magneticMoment: [ Abs: 0.54318  Tot: -0.54000 ]
SCF: Cycle: 20   F: -24.431617203999380   dF: -3.305e-08   |Residual|: 5.338e-06   |deigs|: 2.960e-06  t[s]:    170.14
	FillingsUpdate:  mu: -0.082654656  nElectrons: 9.000000  magneticMoment: [ Abs: 0.54318  Tot: -0.54000 ]
SCF: Cycle: 21   F: -24.431617201347706   dF: +2.652e-09   |Residual|: 3.551e-06   |deigs|: 7.527e-06  t[s]:    176.99
	FillingsUpdate:  mu: -0.082656075  nElectrons: 9.000000  magneticMoment: [ Abs: 0.54318  Tot: -0.54000 ]
SCF: Cycle: 22   F: -24.431617213412718   dF: -1.207e-08   |Residual|: 2.273e-06   |deigs|: 6.907e-06  t[s]:    184.23
	FillingsUpdate:  mu: -0.082655704  nElectrons: 9.000000  magneticMoment: [ Abs: 0.54319  Tot: -0.54000 ]
SCF: Cycle: 23   F: -24.431617212620939   dF: +7.918e-10   |Residual|: 1.752e-06   |deigs|: 8.289e-06  t[s]:    190.90
	FillingsUpdate:  mu: -0.082655002  nElectrons: 9.000000  magneticMoment: [ Abs: 0.54319  Tot: -0.54000 ]
SCF: Cycle: 24   F: -24.431617213831803   dF: -1.211e-09   |Residual|: 1.178e-06   |deigs|: 1.142e-05  t[s]:    197.76
	FillingsUpdate:  mu: -0.082654337  nElectrons: 9.000000  magneticMoment: [ Abs: 0.54319  Tot: -0.54000 ]
SCF: Cycle: 25   F: -24.431617214317232   dF: -4.854e-10   |Residual|: 8.317e-07   |deigs|: 1.574e-05  t[s]:    204.45
SCF: Converged (|Delta E|<1.000000e-08 for 2 iters).


# Ionic positions in lattice coordinates:
ion Rb   0.000000000000000   0.000000000000000   0.000000000000000 0

# Forces in Lattice coordinates:
force Rb   0.000000000000000   0.000000000000000   0.000000000000000 0

# Energy components:
   Eewald =       -9.0240130501663280
       EH =       10.5302631319010800
     Eloc =      -28.4550139586474877
      Enl =       -0.7927847679591766
   Epulay =        0.0000000056959385
      Exc =       -3.6500589241621197
       KE =        6.9599918232635876
-------------------------------------
     Etot =      -24.4316157400745055
       TS =        0.0000014742427263
-------------------------------------
        F =      -24.4316172143172317

IonicMinimize: Iter:   0  F: -24.431617214317232  |grad|_K:  0.000e+00  t[s]:    204.85
IonicMinimize: Converged (|grad|_K<1.000000e-04).

#--- Lowdin population analysis ---
# oxidation-state Rb +0.001
# magnetic-moments Rb -0.539

End date and time: Sun Feb  6 12:46:37 2022  (Duration: 0-0:03:24.93)
Done!
