The alkali metal is Rb
scale=2
magnetization=0.88
--------------------------------------------------------------------------
The library attempted to open the following supporting CUDA libraries,
but each of them failed.  CUDA-aware support is disabled.
libcuda.so.1: cannot open shared object file: No such file or directory
libcuda.dylib: cannot open shared object file: No such file or directory
/usr/lib64/libcuda.so.1: cannot open shared object file: No such file or directory
/usr/lib64/libcuda.dylib: cannot open shared object file: No such file or directory
If you are not interested in CUDA-aware support, then run with
--mca opal_warn_on_missing_libcuda 0 to suppress this message.  If you are interested
in CUDA-aware support, then try setting LD_LIBRARY_PATH to the location
of libcuda.so.1 to get passed this issue.
--------------------------------------------------------------------------
--------------------------------------------------------------------------
No OpenFabrics connection schemes reported that they were able to be
used on a specific port.  As such, the openib BTL (OpenFabrics
support) will be disabled for this port.

  Local host:           d-4-3-3
  Local device:         mlx5_1
  Local port:           1
  CPCs attempted:       rdmacm, udcm
--------------------------------------------------------------------------

*************** JDFTx 1.6.0 (git hash 42ebbcc2) ***************

Start date and time: Sun Feb  6 12:58:52 2022
Executable jdftx with command-line: -i Alkali.in
Running on hosts (process indices):  d-4-3-3 (0-18)
Divided in process groups (process indices):  0 (0)  1 (1)  2 (2)  3 (3)  4 (4)  5 (5)  6 (6)  7 (7)  8 (8)  9 (9)  10 (10)  11 (11)  12 (12)  13 (13)  14 (14)  15 (15)  16 (16)  17 (17)  18 (18)
Resource initialization completed at t[s]:      0.00
Run totals: 19 processes, 48 threads, 0 GPUs


Input parsed successfully to the following command list (including defaults):

basis kpoint-dependent
coords-type Lattice
core-overlap-check vector
coulomb-interaction Slab 001
davidson-band-ratio 1.1
dump End None
dump-name $INPUT.$VAR
elec-cutoff 20
elec-eigen-algo Davidson
elec-ex-corr gga-PBE
elec-initial-magnetization 0.880000 yes
elec-smearing Fermi 1e-05
electronic-minimize  \
	dirUpdateScheme      FletcherReeves \
	linminMethod         DirUpdateRecommended \
	nIterations          100 \
	history              15 \
	knormThreshold       0 \
	energyDiffThreshold  1e-08 \
	nEnergyDiff          2 \
	alphaTstart          1 \
	alphaTmin            1e-10 \
	updateTestStepSize   yes \
	alphaTreduceFactor   0.1 \
	alphaTincreaseFactor 3 \
	nAlphaAdjustMax      3 \
	wolfeEnergy          0.0001 \
	wolfeGradient        0.9 \
	fdTest               no
electronic-scf  \
	nIterations	10000 \
	energyDiffThreshold	1e-08 \
	residualThreshold	1e-07 \
	mixFraction	0.5 \
	qMetric	0.8 \
	history	10 \
	nEigSteps	2 \
	eigDiffThreshold	1e-08 \
	mixedVariable	Density \
	qKerker	0.8 \
	qKappa	-1 \
	verbose	no \
	mixFractionMag	1.5
exchange-regularization WignerSeitzTruncated
fluid None
fluid-ex-corr (null) lda-PZ
fluid-gummel-loop 10 1.000000e-05
fluid-minimize  \
	dirUpdateScheme      PolakRibiere \
	linminMethod         DirUpdateRecommended \
	nIterations          100 \
	history              15 \
	knormThreshold       0 \
	energyDiffThreshold  0 \
	nEnergyDiff          2 \
	alphaTstart          1 \
	alphaTmin            1e-10 \
	updateTestStepSize   yes \
	alphaTreduceFactor   0.1 \
	alphaTincreaseFactor 3 \
	nAlphaAdjustMax      3 \
	wolfeEnergy          0.0001 \
	wolfeGradient        0.9 \
	fdTest               no
fluid-solvent H2O 55.338 ScalarEOS \
	epsBulk 78.4 \
	pMol 0.92466 \
	epsInf 1.77 \
	Pvap 1.06736e-10 \
	sigmaBulk 4.62e-05 \
	Rvdw 2.61727 \
	Res 1.42 \
	tauNuc 343133 \
	poleEl 15 7 1
forces-output-coords Positions
ion Rb   0.000000000000000   0.000000000000000   0.000000000000000 0
ion-species SG15/$ID_ONCV_PBE.upf
ion-width 0
ionic-minimize  \
	dirUpdateScheme      L-BFGS \
	linminMethod         DirUpdateRecommended \
	nIterations          0 \
	history              15 \
	knormThreshold       0.0001 \
	energyDiffThreshold  1e-06 \
	nEnergyDiff          2 \
	alphaTstart          1 \
	alphaTmin            1e-10 \
	updateTestStepSize   yes \
	alphaTreduceFactor   0.1 \
	alphaTincreaseFactor 3 \
	nAlphaAdjustMax      3 \
	wolfeEnergy          0.0001 \
	wolfeGradient        0.9 \
	fdTest               no
kpoint   0.000000000000   0.000000000000   0.000000000000  1.00000000000000
kpoint-folding 12 12 1 
latt-move-scale 1 1 1
latt-scale 2 2 1 
lattice  \
	   4.727486978767153   -2.363743489383575    0.000000000000000  \
	  -0.000000000000000    4.094123819672498    0.000000000000000  \
	   0.000000000000000    0.000000000000000   40.000000000000000 
lattice-minimize  \
	dirUpdateScheme      L-BFGS \
	linminMethod         DirUpdateRecommended \
	nIterations          0 \
	history              15 \
	knormThreshold       0 \
	energyDiffThreshold  1e-06 \
	nEnergyDiff          2 \
	alphaTstart          1 \
	alphaTmin            1e-10 \
	updateTestStepSize   yes \
	alphaTreduceFactor   0.1 \
	alphaTincreaseFactor 3 \
	nAlphaAdjustMax      3 \
	wolfeEnergy          0.0001 \
	wolfeGradient        0.9 \
	fdTest               no
lcao-params -1 1e-06 1e-05
pcm-variant GLSSA13
spintype z-spin
subspace-rotation-factor 1 yes
symmetries automatic
symmetry-threshold 0.0001



---------- Setting up symmetries ----------

Found 24 point-group symmetries of the bravais lattice
Found 24 space-group symmetries with basis
Applied RMS atom displacement 0 bohrs to make symmetries exact.

---------- Initializing the Grid ----------
R = 
[      9.45497     -4.72749            0  ]
[            0      8.18825            0  ]
[            0            0           40  ]
unit cell volume = 3096.79
G =
[   0.664538   0.383671         -0  ]
[          0   0.767342         -0  ]
[         -0         -0    0.15708  ]
Minimum fftbox size, Smin = [  40  40  164  ]
Chosen fftbox size, S = [  40  40  168  ]

---------- Exchange Correlation functional ----------
Initalized PBE GGA exchange.
Initalized PBE GGA correlation.

---------- Setting up pseudopotentials ----------
Width of ionic core gaussian charges (only for fluid interactions / plotting) set to 0

Reading pseudopotential file '/home/gridsan/aligho/DFT/build-Nov24/pseudopotentials/SG15/Rb_ONCV_PBE.upf':
  'Rb' pseudopotential, 'PBE' functional
  Generated using ONCVPSP code by D. R. Hamann
  Author: Martin Schlipf and Francois Gygi  Date: 150915.
  9 valence electrons, 3 orbitals, 6 projectors, 2308 radial grid points, with lMax = 2
  Transforming local potential to a uniform radial grid of dG=0.02 with 1489 points.
  Transforming nonlocal projectors to a uniform radial grid of dG=0.02 with 432 points.
    4S    l: 0   occupation:  2.0   eigenvalue: -1.172069
    4P    l: 1   occupation:  6.0   eigenvalue: -0.586674
    5S    l: 0   occupation:  1.0   eigenvalue: -0.082006
  Transforming atomic orbitals to a uniform radial grid of dG=0.02 with 432 points.
  Core radius for overlap checks: 2.60 bohrs.
  Reading pulay file /home/gridsan/aligho/DFT/build-Nov24/pseudopotentials/SG15/Rb_ONCV_PBE.pulay ... using dE_dnG = -1.360715e-05 computed for Ecut = 20.

Initialized 1 species with 1 total atoms.

Folded 1 k-points by 12x12x1 to 144 k-points.

---------- Setting up k-points, bands, fillings ----------
Reduced to 19 k-points under symmetry. 
Computing the number of bands and number of electrons
Calculating initial fillings.
nElectrons:   9.000000   nBands: 6   nStates: 38

----- Setting up reduced wavefunction bases (one per k-point) -----
average nbasis = 13230.521 , ideal nbasis = 13229.709

---------- Setting up coulomb interaction ----------
Initialized slab truncation along lattice direction 001

---------- Setting up 2D ewald sum ----------
Optimum gaussian width for ewald sums = 5.249020 bohr.
Real space sums over 289 unit cells with max indices [  8  8  0  ]
Reciprocal space sums over 81 terms with max indices [  4  4  0  ]

---------- Allocating electronic variables ----------
Initializing wave functions:  linear combination of atomic orbitals
Note: number of bands (6) exceeds available atomic orbitals (5)
Rb pseudo-atom occupations:   s ( 2 1 )  p ( 6 )
	FillingsUpdate:  mu: -0.089943770  nElectrons: 9.000000  magneticMoment: [ Abs: 0.88000  Tot: +0.88000 ]
LCAOMinimize: Iter:   0  F: -24.4326737508443337  |grad|_K:  1.047e-05  alpha:  1.000e+00
	FillingsUpdate:  mu: -0.089940248  nElectrons: 9.000000  magneticMoment: [ Abs: 0.88000  Tot: +0.88000 ]
LCAOMinimize: Iter:   1  F: -24.4326738245492834  |grad|_K:  1.062e-07  alpha:  9.825e-01  linmin: -9.293e-03  cgtest:  1.782e-01  t[s]:      4.62
LCAOMinimize: Encountered beta<0, resetting CG.
[d-4-3-3:65109] 18 more processes have sent help message help-mpi-common-cuda.txt / dlopen failed
[d-4-3-3:65109] Set MCA parameter "orte_base_help_aggregate" to 0 to see all help / error messages
[d-4-3-3:65109] 18 more processes have sent help message help-mpi-btl-openib-cpc-base.txt / no cpcs for port
	FillingsUpdate:  mu: -0.089940280  nElectrons: 9.000000  magneticMoment: [ Abs: 0.88000  Tot: +0.88000 ]
LCAOMinimize: Iter:   2  F: -24.4326738245568862  |grad|_K:  8.136e-09  alpha:  1.075e+00  linmin:  7.693e-02  cgtest: -9.944e-01  t[s]:      5.90
LCAOMinimize: Converged (|Delta F|<1.000000e-06 for 2 iters).


---- Citations for features of the code used in this run ----

   Software package:
      R. Sundararaman, K. Letchworth-Weaver, K.A. Schwarz, D. Gunceler, Y. Ozhabes and T.A. Arias, 'JDFTx: software for joint density-functional theory', SoftwareX 6, 278 (2017)

   gga-PBE exchange-correlation functional:
      J.P. Perdew, K. Burke and M. Ernzerhof, Phys. Rev. Lett. 77, 3865 (1996)

   Pseudopotentials:
      M Schlipf and F Gygi, Comput. Phys. Commun. 196, 36 (2015)

   Truncated Coulomb potentials:
      R. Sundararaman and T.A. Arias, Phys. Rev. B 87, 165122 (2013)

This list may not be complete. Please suggest additional citations or
report any other bugs at https://github.com/shankar1729/jdftx/issues

Initialization completed successfully at t[s]:      6.00


-------- Electronic minimization -----------
Will mix electronic density at each iteration.
	FillingsUpdate:  mu: -0.089940280  nElectrons: 9.000000  magneticMoment: [ Abs: 0.88000  Tot: +0.88000 ]
	FillingsUpdate:  mu: -0.105050537  nElectrons: 9.000000  magneticMoment: [ Abs: 0.88000  Tot: +0.88000 ]
SCF: Cycle:  0   F: -24.443088787540177   dF: -1.041e-02   |Residual|: 1.653e-02   |deigs|: 1.775e-01  t[s]:      8.51
	FillingsUpdate:  mu: -0.107990356  nElectrons: 9.000000  magneticMoment: [ Abs: 0.88000  Tot: +0.88000 ]
SCF: Cycle:  1   F: -24.443713255853197   dF: -6.245e-04   |Residual|: 1.183e-02   |deigs|: 8.024e-03  t[s]:     10.39
	FillingsUpdate:  mu: -0.107046280  nElectrons: 9.000000  magneticMoment: [ Abs: 0.88288  Tot: +0.88000 ]
SCF: Cycle:  2   F: -24.443947027899242   dF: -2.338e-04   |Residual|: 7.178e-03   |deigs|: 2.526e-03  t[s]:     12.25
	FillingsUpdate:  mu: -0.106681746  nElectrons: 9.000000  magneticMoment: [ Abs: 0.88010  Tot: +0.88000 ]
SCF: Cycle:  3   F: -24.444050902889224   dF: -1.039e-04   |Residual|: 4.068e-03   |deigs|: 1.790e-03  t[s]:     14.16
	FillingsUpdate:  mu: -0.102257876  nElectrons: 9.000000  magneticMoment: [ Abs: 0.88024  Tot: +0.88000 ]
SCF: Cycle:  4   F: -24.444238689415073   dF: -1.878e-04   |Residual|: 2.732e-03   |deigs|: 3.446e-03  t[s]:     16.07
	FillingsUpdate:  mu: -0.103724607  nElectrons: 9.000000  magneticMoment: [ Abs: 0.88000  Tot: +0.88000 ]
SCF: Cycle:  5   F: -24.444275109467796   dF: -3.642e-05   |Residual|: 1.833e-03   |deigs|: 3.056e-03  t[s]:     18.02
	FillingsUpdate:  mu: -0.101757215  nElectrons: 9.000000  magneticMoment: [ Abs: 0.88248  Tot: +0.88000 ]
SCF: Cycle:  6   F: -24.444277349102137   dF: -2.240e-06   |Residual|: 1.758e-03   |deigs|: 1.843e-03  t[s]:     20.10
	FillingsUpdate:  mu: -0.101348342  nElectrons: 9.000000  magneticMoment: [ Abs: 0.88327  Tot: +0.88000 ]
SCF: Cycle:  7   F: -24.444186947266509   dF: +9.040e-05   |Residual|: 3.175e-03   |deigs|: 1.352e-03  t[s]:     22.08
	FillingsUpdate:  mu: -0.101739289  nElectrons: 9.000000  magneticMoment: [ Abs: 0.88427  Tot: +0.88000 ]
SCF: Cycle:  8   F: -24.444312715901127   dF: -1.258e-04   |Residual|: 2.353e-03   |deigs|: 1.722e-03  t[s]:     24.12
	FillingsUpdate:  mu: -0.103580180  nElectrons: 9.000000  magneticMoment: [ Abs: 0.88222  Tot: +0.88000 ]
SCF: Cycle:  9   F: -24.444318369294887   dF: -5.653e-06   |Residual|: 3.310e-03   |deigs|: 2.178e-03  t[s]:     26.24
	FillingsUpdate:  mu: -0.105685414  nElectrons: 9.000000  magneticMoment: [ Abs: 0.88074  Tot: +0.88000 ]
SCF: Cycle: 10   F: -24.444314675314178   dF: +3.694e-06   |Residual|: 4.463e-03   |deigs|: 2.614e-03  t[s]:     28.37
	FillingsUpdate:  mu: -0.106776744  nElectrons: 9.000000  magneticMoment: [ Abs: 0.88066  Tot: +0.88000 ]
SCF: Cycle: 11   F: -24.444310790897383   dF: +3.884e-06   |Residual|: 5.184e-03   |deigs|: 1.345e-03  t[s]:     30.58
	FillingsUpdate:  mu: -0.105978882  nElectrons: 9.000000  magneticMoment: [ Abs: 0.88110  Tot: +0.88000 ]
SCF: Cycle: 12   F: -24.444311976410464   dF: -1.186e-06   |Residual|: 4.837e-03   |deigs|: 9.301e-04  t[s]:     32.64
	FillingsUpdate:  mu: -0.105461203  nElectrons: 9.000000  magneticMoment: [ Abs: 0.88156  Tot: +0.88000 ]
SCF: Cycle: 13   F: -24.444313133088212   dF: -1.157e-06   |Residual|: 4.610e-03   |deigs|: 6.248e-04  t[s]:     34.76
	FillingsUpdate:  mu: -0.104844324  nElectrons: 9.000000  magneticMoment: [ Abs: 0.88218  Tot: +0.88000 ]
SCF: Cycle: 14   F: -24.444314130695052   dF: -9.976e-07   |Residual|: 4.364e-03   |deigs|: 7.480e-04  t[s]:     36.84
	FillingsUpdate:  mu: -0.104218189  nElectrons: 9.000000  magneticMoment: [ Abs: 0.88271  Tot: +0.88000 ]
SCF: Cycle: 15   F: -24.444317551657317   dF: -3.421e-06   |Residual|: 4.113e-03   |deigs|: 7.853e-04  t[s]:     39.02
	FillingsUpdate:  mu: -0.103079680  nElectrons: 9.000000  magneticMoment: [ Abs: 0.88251  Tot: +0.88000 ]
SCF: Cycle: 16   F: -24.444324544699654   dF: -6.993e-06   |Residual|: 3.520e-03   |deigs|: 1.397e-03  t[s]:     41.12
	FillingsUpdate:  mu: -0.098843742  nElectrons: 9.000000  magneticMoment: [ Abs: 0.88230  Tot: +0.88000 ]
SCF: Cycle: 17   F: -24.444334171415289   dF: -9.627e-06   |Residual|: 1.794e-03   |deigs|: 4.768e-03  t[s]:     43.20
	FillingsUpdate:  mu: -0.093675929  nElectrons: 9.000000  magneticMoment: [ Abs: 0.88136  Tot: +0.88000 ]
SCF: Cycle: 18   F: -24.444336435249920   dF: -2.264e-06   |Residual|: 3.635e-04   |deigs|: 5.501e-03  t[s]:     45.25
	FillingsUpdate:  mu: -0.093067396  nElectrons: 9.000000  magneticMoment: [ Abs: 0.88071  Tot: +0.88000 ]
SCF: Cycle: 19   F: -24.444338019358604   dF: -1.584e-06   |Residual|: 2.982e-04   |deigs|: 8.859e-04  t[s]:     47.39
	FillingsUpdate:  mu: -0.092473213  nElectrons: 9.000000  magneticMoment: [ Abs: 0.88005  Tot: +0.88000 ]
SCF: Cycle: 20   F: -24.444340781142138   dF: -2.762e-06   |Residual|: 2.383e-04   |deigs|: 5.928e-04  t[s]:     49.45
	FillingsUpdate:  mu: -0.092028289  nElectrons: 9.000000  magneticMoment: [ Abs: 0.88006  Tot: +0.88000 ]
SCF: Cycle: 21   F: -24.444342648729791   dF: -1.868e-06   |Residual|: 1.604e-04   |deigs|: 4.772e-04  t[s]:     51.53
	FillingsUpdate:  mu: -0.091814926  nElectrons: 9.000000  magneticMoment: [ Abs: 0.88005  Tot: +0.88000 ]
SCF: Cycle: 22   F: -24.444343476308546   dF: -8.276e-07   |Residual|: 1.028e-04   |deigs|: 2.486e-04  t[s]:     53.59
	FillingsUpdate:  mu: -0.091589767  nElectrons: 9.000000  magneticMoment: [ Abs: 0.88006  Tot: +0.88000 ]
SCF: Cycle: 23   F: -24.444343974186772   dF: -4.979e-07   |Residual|: 5.441e-05   |deigs|: 2.429e-04  t[s]:     55.66
	FillingsUpdate:  mu: -0.091574976  nElectrons: 9.000000  magneticMoment: [ Abs: 0.88006  Tot: +0.88000 ]
SCF: Cycle: 24   F: -24.444344118248658   dF: -1.441e-07   |Residual|: 3.143e-05   |deigs|: 3.858e-05  t[s]:     57.75
	FillingsUpdate:  mu: -0.091612241  nElectrons: 9.000000  magneticMoment: [ Abs: 0.88014  Tot: +0.88000 ]
SCF: Cycle: 25   F: -24.444344203102670   dF: -8.485e-08   |Residual|: 1.326e-05   |deigs|: 6.836e-05  t[s]:     59.93
	FillingsUpdate:  mu: -0.091628689  nElectrons: 9.000000  magneticMoment: [ Abs: 0.88015  Tot: +0.88000 ]
SCF: Cycle: 26   F: -24.444344225670275   dF: -2.257e-08   |Residual|: 8.973e-06   |deigs|: 4.102e-05  t[s]:     61.94
	FillingsUpdate:  mu: -0.091643255  nElectrons: 9.000000  magneticMoment: [ Abs: 0.88014  Tot: +0.88000 ]
SCF: Cycle: 27   F: -24.444344245359719   dF: -1.969e-08   |Residual|: 8.719e-06   |deigs|: 3.405e-05  t[s]:     64.01
	FillingsUpdate:  mu: -0.091657544  nElectrons: 9.000000  magneticMoment: [ Abs: 0.88014  Tot: +0.88000 ]
SCF: Cycle: 28   F: -24.444344253114149   dF: -7.754e-09   |Residual|: 6.427e-06   |deigs|: 4.359e-05  t[s]:     66.02
	FillingsUpdate:  mu: -0.091668357  nElectrons: 9.000000  magneticMoment: [ Abs: 0.88013  Tot: +0.88000 ]
SCF: Cycle: 29   F: -24.444344260742135   dF: -7.628e-09   |Residual|: 6.583e-06   |deigs|: 3.672e-05  t[s]:     68.15
SCF: Converged (|Delta E|<1.000000e-08 for 2 iters).


# Ionic positions in lattice coordinates:
ion Rb   0.000000000000000   0.000000000000000   0.000000000000000 0

# Forces in Lattice coordinates:
force Rb  -0.000000000000000   0.000000000000000   0.000000000000000 0

# Energy components:
   Eewald =      -18.0480261003326561
       EH =        1.6198056913166323
     Eloc =      -10.5308248605402373
      Enl =       -0.8003921326849655
   Epulay =        0.0000000035676145
      Exc =       -3.6815363894200299
       KE =        6.9966303178390588
-------------------------------------
     Etot =      -24.4443434702545837
       TS =        0.0000007904875519
-------------------------------------
        F =      -24.4443442607421346

IonicMinimize: Iter:   0  F: -24.444344260742135  |grad|_K:  0.000e+00  t[s]:     68.28
IonicMinimize: Converged (|grad|_K<1.000000e-04).

#--- Lowdin population analysis ---
# oxidation-state Rb +0.164
# magnetic-moments Rb +0.719

End date and time: Sun Feb  6 13:00:00 2022  (Duration: 0-0:01:08.31)
Done!
scale=3
magnetization=0.88
--------------------------------------------------------------------------
The library attempted to open the following supporting CUDA libraries,
but each of them failed.  CUDA-aware support is disabled.
libcuda.so.1: cannot open shared object file: No such file or directory
libcuda.dylib: cannot open shared object file: No such file or directory
/usr/lib64/libcuda.so.1: cannot open shared object file: No such file or directory
/usr/lib64/libcuda.dylib: cannot open shared object file: No such file or directory
If you are not interested in CUDA-aware support, then run with
--mca opal_warn_on_missing_libcuda 0 to suppress this message.  If you are interested
in CUDA-aware support, then try setting LD_LIBRARY_PATH to the location
of libcuda.so.1 to get passed this issue.
--------------------------------------------------------------------------
--------------------------------------------------------------------------
No OpenFabrics connection schemes reported that they were able to be
used on a specific port.  As such, the openib BTL (OpenFabrics
support) will be disabled for this port.

  Local host:           d-4-3-3
  Local device:         mlx5_1
  Local port:           1
  CPCs attempted:       rdmacm, udcm
--------------------------------------------------------------------------

*************** JDFTx 1.6.0 (git hash 42ebbcc2) ***************

Start date and time: Sun Feb  6 13:00:02 2022
Executable jdftx with command-line: -i Alkali.in
Running on hosts (process indices):  d-4-3-3 (0-18)
Divided in process groups (process indices):  0 (0)  1 (1)  2 (2)  3 (3)  4 (4)  5 (5)  6 (6)  7 (7)  8 (8)  9 (9)  10 (10)  11 (11)  12 (12)  13 (13)  14 (14)  15 (15)  16 (16)  17 (17)  18 (18)
Resource initialization completed at t[s]:      0.00
Run totals: 19 processes, 48 threads, 0 GPUs


Input parsed successfully to the following command list (including defaults):

basis kpoint-dependent
coords-type Lattice
core-overlap-check vector
coulomb-interaction Slab 001
davidson-band-ratio 1.1
dump End None
dump-name $INPUT.$VAR
elec-cutoff 20
elec-eigen-algo Davidson
elec-ex-corr gga-PBE
elec-initial-magnetization 0.880000 yes
elec-smearing Fermi 1e-05
electronic-minimize  \
	dirUpdateScheme      FletcherReeves \
	linminMethod         DirUpdateRecommended \
	nIterations          100 \
	history              15 \
	knormThreshold       0 \
	energyDiffThreshold  1e-08 \
	nEnergyDiff          2 \
	alphaTstart          1 \
	alphaTmin            1e-10 \
	updateTestStepSize   yes \
	alphaTreduceFactor   0.1 \
	alphaTincreaseFactor 3 \
	nAlphaAdjustMax      3 \
	wolfeEnergy          0.0001 \
	wolfeGradient        0.9 \
	fdTest               no
electronic-scf  \
	nIterations	10000 \
	energyDiffThreshold	1e-08 \
	residualThreshold	1e-07 \
	mixFraction	0.5 \
	qMetric	0.8 \
	history	10 \
	nEigSteps	2 \
	eigDiffThreshold	1e-08 \
	mixedVariable	Density \
	qKerker	0.8 \
	qKappa	-1 \
	verbose	no \
	mixFractionMag	1.5
exchange-regularization WignerSeitzTruncated
fluid None
fluid-ex-corr (null) lda-PZ
fluid-gummel-loop 10 1.000000e-05
fluid-minimize  \
	dirUpdateScheme      PolakRibiere \
	linminMethod         DirUpdateRecommended \
	nIterations          100 \
	history              15 \
	knormThreshold       0 \
	energyDiffThreshold  0 \
	nEnergyDiff          2 \
	alphaTstart          1 \
	alphaTmin            1e-10 \
	updateTestStepSize   yes \
	alphaTreduceFactor   0.1 \
	alphaTincreaseFactor 3 \
	nAlphaAdjustMax      3 \
	wolfeEnergy          0.0001 \
	wolfeGradient        0.9 \
	fdTest               no
fluid-solvent H2O 55.338 ScalarEOS \
	epsBulk 78.4 \
	pMol 0.92466 \
	epsInf 1.77 \
	Pvap 1.06736e-10 \
	sigmaBulk 4.62e-05 \
	Rvdw 2.61727 \
	Res 1.42 \
	tauNuc 343133 \
	poleEl 15 7 1
forces-output-coords Positions
ion Rb   0.000000000000000   0.000000000000000   0.000000000000000 0
ion-species SG15/$ID_ONCV_PBE.upf
ion-width 0
ionic-minimize  \
	dirUpdateScheme      L-BFGS \
	linminMethod         DirUpdateRecommended \
	nIterations          0 \
	history              15 \
	knormThreshold       0.0001 \
	energyDiffThreshold  1e-06 \
	nEnergyDiff          2 \
	alphaTstart          1 \
	alphaTmin            1e-10 \
	updateTestStepSize   yes \
	alphaTreduceFactor   0.1 \
	alphaTincreaseFactor 3 \
	nAlphaAdjustMax      3 \
	wolfeEnergy          0.0001 \
	wolfeGradient        0.9 \
	fdTest               no
kpoint   0.000000000000   0.000000000000   0.000000000000  1.00000000000000
kpoint-folding 12 12 1 
latt-move-scale 1 1 1
latt-scale 3 3 1 
lattice  \
	   4.727486978767153   -2.363743489383575    0.000000000000000  \
	  -0.000000000000000    4.094123819672498    0.000000000000000  \
	   0.000000000000000    0.000000000000000   40.000000000000000 
lattice-minimize  \
	dirUpdateScheme      L-BFGS \
	linminMethod         DirUpdateRecommended \
	nIterations          0 \
	history              15 \
	knormThreshold       0 \
	energyDiffThreshold  1e-06 \
	nEnergyDiff          2 \
	alphaTstart          1 \
	alphaTmin            1e-10 \
	updateTestStepSize   yes \
	alphaTreduceFactor   0.1 \
	alphaTincreaseFactor 3 \
	nAlphaAdjustMax      3 \
	wolfeEnergy          0.0001 \
	wolfeGradient        0.9 \
	fdTest               no
lcao-params -1 1e-06 1e-05
pcm-variant GLSSA13
spintype z-spin
subspace-rotation-factor 1 yes
symmetries automatic
symmetry-threshold 0.0001



---------- Setting up symmetries ----------

Found 24 point-group symmetries of the bravais lattice
Found 24 space-group symmetries with basis
Applied RMS atom displacement 0 bohrs to make symmetries exact.

---------- Initializing the Grid ----------
R = 
[      14.1825     -7.09123            0  ]
[            0      12.2824            0  ]
[            0            0           40  ]
unit cell volume = 6967.77
G =
[   0.443025   0.255781         -0  ]
[          0   0.511561         -0  ]
[         -0         -0    0.15708  ]
Minimum fftbox size, Smin = [  60  60  164  ]
Chosen fftbox size, S = [  60  60  168  ]

---------- Exchange Correlation functional ----------
Initalized PBE GGA exchange.
Initalized PBE GGA correlation.

---------- Setting up pseudopotentials ----------
Width of ionic core gaussian charges (only for fluid interactions / plotting) set to 0

Reading pseudopotential file '/home/gridsan/aligho/DFT/build-Nov24/pseudopotentials/SG15/Rb_ONCV_PBE.upf':
  'Rb' pseudopotential, 'PBE' functional
  Generated using ONCVPSP code by D. R. Hamann
  Author: Martin Schlipf and Francois Gygi  Date: 150915.
  9 valence electrons, 3 orbitals, 6 projectors, 2308 radial grid points, with lMax = 2
  Transforming local potential to a uniform radial grid of dG=0.02 with 1489 points.
  Transforming nonlocal projectors to a uniform radial grid of dG=0.02 with 432 points.
    4S    l: 0   occupation:  2.0   eigenvalue: -1.172069
    4P    l: 1   occupation:  6.0   eigenvalue: -0.586674
    5S    l: 0   occupation:  1.0   eigenvalue: -0.082006
  Transforming atomic orbitals to a uniform radial grid of dG=0.02 with 432 points.
  Core radius for overlap checks: 2.60 bohrs.
  Reading pulay file /home/gridsan/aligho/DFT/build-Nov24/pseudopotentials/SG15/Rb_ONCV_PBE.pulay ... using dE_dnG = -1.360715e-05 computed for Ecut = 20.

Initialized 1 species with 1 total atoms.

Folded 1 k-points by 12x12x1 to 144 k-points.

---------- Setting up k-points, bands, fillings ----------
Reduced to 19 k-points under symmetry. 
Computing the number of bands and number of electrons
Calculating initial fillings.
nElectrons:   9.000000   nBands: 6   nStates: 38

----- Setting up reduced wavefunction bases (one per k-point) -----
average nbasis = 29766.104 , ideal nbasis = 29766.845

---------- Setting up coulomb interaction ----------
Initialized slab truncation along lattice direction 001

---------- Setting up 2D ewald sum ----------
Optimum gaussian width for ewald sums = 7.873530 bohr.
Real space sums over 289 unit cells with max indices [  8  8  0  ]
Reciprocal space sums over 81 terms with max indices [  4  4  0  ]

---------- Allocating electronic variables ----------
Initializing wave functions:  linear combination of atomic orbitals
Note: number of bands (6) exceeds available atomic orbitals (5)
Rb pseudo-atom occupations:   s ( 2 1 )  p ( 6 )
[d-4-3-3:61622] 18 more processes have sent help message help-mpi-common-cuda.txt / dlopen failed
[d-4-3-3:61622] Set MCA parameter "orte_base_help_aggregate" to 0 to see all help / error messages
[d-4-3-3:61622] 18 more processes have sent help message help-mpi-btl-openib-cpc-base.txt / no cpcs for port
	FillingsUpdate:  mu: -0.084744563  nElectrons: 9.000000  magneticMoment: [ Abs: 0.88000  Tot: +0.88000 ]
LCAOMinimize: Iter:   0  F: -24.4344267076225670  |grad|_K:  5.705e-06  alpha:  1.000e+00
	FillingsUpdate:  mu: -0.084743566  nElectrons: 9.000000  magneticMoment: [ Abs: 0.88000  Tot: +0.88000 ]
LCAOMinimize: Iter:   1  F: -24.4344267297649544  |grad|_K:  3.641e-08  alpha:  9.947e-01  linmin: -3.981e-03  cgtest:  7.225e-02  t[s]:      8.92
LCAOMinimize: Encountered beta<0, resetting CG.
	FillingsUpdate:  mu: -0.084743571  nElectrons: 9.000000  magneticMoment: [ Abs: 0.88000  Tot: +0.88000 ]
LCAOMinimize: Iter:   2  F: -24.4344267297657325  |grad|_K:  5.060e-09  alpha:  8.558e-01  linmin: -1.535e-01  cgtest:  9.992e-01  t[s]:     11.34
LCAOMinimize: Encountered beta<0, resetting CG.
LCAOMinimize: Converged (|Delta F|<1.000000e-06 for 2 iters).


---- Citations for features of the code used in this run ----

   Software package:
      R. Sundararaman, K. Letchworth-Weaver, K.A. Schwarz, D. Gunceler, Y. Ozhabes and T.A. Arias, 'JDFTx: software for joint density-functional theory', SoftwareX 6, 278 (2017)

   gga-PBE exchange-correlation functional:
      J.P. Perdew, K. Burke and M. Ernzerhof, Phys. Rev. Lett. 77, 3865 (1996)

   Pseudopotentials:
      M Schlipf and F Gygi, Comput. Phys. Commun. 196, 36 (2015)

   Truncated Coulomb potentials:
      R. Sundararaman and T.A. Arias, Phys. Rev. B 87, 165122 (2013)

This list may not be complete. Please suggest additional citations or
report any other bugs at https://github.com/shankar1729/jdftx/issues

Initialization completed successfully at t[s]:     11.51


-------- Electronic minimization -----------
Will mix electronic density at each iteration.
	FillingsUpdate:  mu: -0.084743571  nElectrons: 9.000000  magneticMoment: [ Abs: 0.88000  Tot: +0.88000 ]
	FillingsUpdate:  mu: -0.085535520  nElectrons: 9.000000  magneticMoment: [ Abs: 0.88000  Tot: +0.88000 ]
SCF: Cycle:  0   F: -24.435717046704092   dF: -1.290e-03   |Residual|: 3.626e-03   |deigs|: 1.731e-01  t[s]:     16.37
	FillingsUpdate:  mu: -0.085905451  nElectrons: 9.000000  magneticMoment: [ Abs: 0.88223  Tot: +0.88000 ]
SCF: Cycle:  1   F: -24.435773223951436   dF: -5.618e-05   |Residual|: 2.501e-03   |deigs|: 5.137e-03  t[s]:     20.08
	FillingsUpdate:  mu: -0.086474050  nElectrons: 9.000000  magneticMoment: [ Abs: 0.88415  Tot: +0.88000 ]
SCF: Cycle:  2   F: -24.435806672278346   dF: -3.345e-05   |Residual|: 1.960e-03   |deigs|: 2.242e-03  t[s]:     23.88
	FillingsUpdate:  mu: -0.086704691  nElectrons: 9.000000  magneticMoment: [ Abs: 0.88527  Tot: +0.88000 ]
SCF: Cycle:  3   F: -24.435838256464116   dF: -3.158e-05   |Residual|: 1.483e-03   |deigs|: 2.410e-03  t[s]:     27.80
	FillingsUpdate:  mu: -0.086861774  nElectrons: 9.000000  magneticMoment: [ Abs: 0.88366  Tot: +0.88000 ]
SCF: Cycle:  4   F: -24.435866669594340   dF: -2.841e-05   |Residual|: 9.320e-04   |deigs|: 1.923e-03  t[s]:     31.79
	FillingsUpdate:  mu: -0.086561982  nElectrons: 9.000000  magneticMoment: [ Abs: 0.88425  Tot: +0.88000 ]
SCF: Cycle:  5   F: -24.435878708528442   dF: -1.204e-05   |Residual|: 5.117e-04   |deigs|: 1.023e-03  t[s]:     35.81
	FillingsUpdate:  mu: -0.086374766  nElectrons: 9.000000  magneticMoment: [ Abs: 0.88384  Tot: +0.88000 ]
SCF: Cycle:  6   F: -24.435883136867105   dF: -4.428e-06   |Residual|: 3.725e-04   |deigs|: 1.237e-03  t[s]:     39.87
	FillingsUpdate:  mu: -0.086212471  nElectrons: 9.000000  magneticMoment: [ Abs: 0.88416  Tot: +0.88000 ]
SCF: Cycle:  7   F: -24.435885495453121   dF: -2.359e-06   |Residual|: 2.819e-04   |deigs|: 9.482e-04  t[s]:     43.95
	FillingsUpdate:  mu: -0.085765031  nElectrons: 9.000000  magneticMoment: [ Abs: 0.88468  Tot: +0.88000 ]
SCF: Cycle:  8   F: -24.435885628035674   dF: -1.326e-07   |Residual|: 2.354e-04   |deigs|: 5.357e-04  t[s]:     48.17
	FillingsUpdate:  mu: -0.085441004  nElectrons: 9.000000  magneticMoment: [ Abs: 0.88484  Tot: +0.88000 ]
SCF: Cycle:  9   F: -24.435884345549358   dF: +1.282e-06   |Residual|: 2.228e-04   |deigs|: 5.200e-04  t[s]:     52.48
	FillingsUpdate:  mu: -0.085290433  nElectrons: 9.000000  magneticMoment: [ Abs: 0.88435  Tot: +0.88000 ]
SCF: Cycle: 10   F: -24.435885776490565   dF: -1.431e-06   |Residual|: 1.802e-04   |deigs|: 3.202e-04  t[s]:     56.81
	FillingsUpdate:  mu: -0.085251517  nElectrons: 9.000000  magneticMoment: [ Abs: 0.88521  Tot: +0.88000 ]
SCF: Cycle: 11   F: -24.435886839066725   dF: -1.063e-06   |Residual|: 1.374e-04   |deigs|: 2.386e-04  t[s]:     61.11
	FillingsUpdate:  mu: -0.085157671  nElectrons: 9.000000  magneticMoment: [ Abs: 0.88511  Tot: +0.88000 ]
SCF: Cycle: 12   F: -24.435887941764260   dF: -1.103e-06   |Residual|: 1.240e-04   |deigs|: 1.381e-04  t[s]:     65.43
	FillingsUpdate:  mu: -0.084896164  nElectrons: 9.000000  magneticMoment: [ Abs: 0.88526  Tot: +0.88000 ]
SCF: Cycle: 13   F: -24.435888069139722   dF: -1.274e-07   |Residual|: 1.244e-04   |deigs|: 3.106e-04  t[s]:     69.73
	FillingsUpdate:  mu: -0.084619663  nElectrons: 9.000000  magneticMoment: [ Abs: 0.88516  Tot: +0.88000 ]
SCF: Cycle: 14   F: -24.435887821514569   dF: +2.476e-07   |Residual|: 1.158e-04   |deigs|: 3.903e-04  t[s]:     74.08
	FillingsUpdate:  mu: -0.084463214  nElectrons: 9.000000  magneticMoment: [ Abs: 0.88495  Tot: +0.88000 ]
SCF: Cycle: 15   F: -24.435888266524547   dF: -4.450e-07   |Residual|: 1.006e-04   |deigs|: 1.808e-04  t[s]:     78.49
	FillingsUpdate:  mu: -0.084314127  nElectrons: 9.000000  magneticMoment: [ Abs: 0.88429  Tot: +0.88000 ]
SCF: Cycle: 16   F: -24.435888783234333   dF: -5.167e-07   |Residual|: 7.910e-05   |deigs|: 2.299e-04  t[s]:     82.86
	FillingsUpdate:  mu: -0.084222328  nElectrons: 9.000000  magneticMoment: [ Abs: 0.88405  Tot: +0.88000 ]
SCF: Cycle: 17   F: -24.435889055987364   dF: -2.728e-07   |Residual|: 6.119e-05   |deigs|: 1.308e-04  t[s]:     87.20
	FillingsUpdate:  mu: -0.084214418  nElectrons: 9.000000  magneticMoment: [ Abs: 0.88405  Tot: +0.88000 ]
SCF: Cycle: 18   F: -24.435889169651382   dF: -1.137e-07   |Residual|: 4.032e-05   |deigs|: 6.935e-05  t[s]:     91.56
	FillingsUpdate:  mu: -0.084183238  nElectrons: 9.000000  magneticMoment: [ Abs: 0.88406  Tot: +0.88000 ]
SCF: Cycle: 19   F: -24.435889335479359   dF: -1.658e-07   |Residual|: 2.574e-05   |deigs|: 7.925e-05  t[s]:     95.94
	FillingsUpdate:  mu: -0.084179700  nElectrons: 9.000000  magneticMoment: [ Abs: 0.88405  Tot: +0.88000 ]
SCF: Cycle: 20   F: -24.435889467371485   dF: -1.319e-07   |Residual|: 1.888e-05   |deigs|: 9.253e-05  t[s]:    100.20
	FillingsUpdate:  mu: -0.084193153  nElectrons: 9.000000  magneticMoment: [ Abs: 0.88404  Tot: +0.88000 ]
SCF: Cycle: 21   F: -24.435889510860722   dF: -4.349e-08   |Residual|: 1.090e-05   |deigs|: 8.614e-05  t[s]:    104.50
	FillingsUpdate:  mu: -0.084189783  nElectrons: 9.000000  magneticMoment: [ Abs: 0.88406  Tot: +0.88000 ]
SCF: Cycle: 22   F: -24.435889523336851   dF: -1.248e-08   |Residual|: 7.683e-06   |deigs|: 6.664e-05  t[s]:    108.81
	FillingsUpdate:  mu: -0.084191711  nElectrons: 9.000000  magneticMoment: [ Abs: 0.88408  Tot: +0.88000 ]
SCF: Cycle: 23   F: -24.435889531874558   dF: -8.538e-09   |Residual|: 5.822e-06   |deigs|: 4.685e-05  t[s]:    113.16
	FillingsUpdate:  mu: -0.084193812  nElectrons: 9.000000  magneticMoment: [ Abs: 0.88411  Tot: +0.88000 ]
SCF: Cycle: 24   F: -24.435889536282616   dF: -4.408e-09   |Residual|: 4.572e-06   |deigs|: 2.846e-05  t[s]:    117.49
SCF: Converged (|Delta E|<1.000000e-08 for 2 iters).


# Ionic positions in lattice coordinates:
ion Rb   0.000000000000000   0.000000000000000   0.000000000000000 0

# Forces in Lattice coordinates:
force Rb   0.000000000000000  -0.000000000000000   0.000000000000000 0

# Energy components:
   Eewald =      -12.0320174002217755
       EH =        7.5276792178305163
     Eloc =      -22.4423379257233009
      Enl =       -0.7953566324943701
   Epulay =       -0.0000000014467880
      Exc =       -3.6530318988316073
       KE =        6.9591759218718128
-------------------------------------
     Etot =      -24.4358887190155158
       TS =        0.0000008172671015
-------------------------------------
        F =      -24.4358895362826161

IonicMinimize: Iter:   0  F: -24.435889536282616  |grad|_K:  0.000e+00  t[s]:    117.75
IonicMinimize: Converged (|grad|_K<1.000000e-04).

#--- Lowdin population analysis ---
# oxidation-state Rb +0.031
# magnetic-moments Rb +0.850

End date and time: Sun Feb  6 13:01:59 2022  (Duration: 0-0:01:57.79)
Done!
scale=4
magnetization=0.88
--------------------------------------------------------------------------
The library attempted to open the following supporting CUDA libraries,
but each of them failed.  CUDA-aware support is disabled.
libcuda.so.1: cannot open shared object file: No such file or directory
libcuda.dylib: cannot open shared object file: No such file or directory
/usr/lib64/libcuda.so.1: cannot open shared object file: No such file or directory
/usr/lib64/libcuda.dylib: cannot open shared object file: No such file or directory
If you are not interested in CUDA-aware support, then run with
--mca opal_warn_on_missing_libcuda 0 to suppress this message.  If you are interested
in CUDA-aware support, then try setting LD_LIBRARY_PATH to the location
of libcuda.so.1 to get passed this issue.
--------------------------------------------------------------------------
--------------------------------------------------------------------------
No OpenFabrics connection schemes reported that they were able to be
used on a specific port.  As such, the openib BTL (OpenFabrics
support) will be disabled for this port.

  Local host:           d-4-3-3
  Local device:         mlx5_1
  Local port:           1
  CPCs attempted:       rdmacm, udcm
--------------------------------------------------------------------------

*************** JDFTx 1.6.0 (git hash 42ebbcc2) ***************

Start date and time: Sun Feb  6 13:02:00 2022
Executable jdftx with command-line: -i Alkali.in
Running on hosts (process indices):  d-4-3-3 (0-18)
Divided in process groups (process indices):  0 (0)  1 (1)  2 (2)  3 (3)  4 (4)  5 (5)  6 (6)  7 (7)  8 (8)  9 (9)  10 (10)  11 (11)  12 (12)  13 (13)  14 (14)  15 (15)  16 (16)  17 (17)  18 (18)
Resource initialization completed at t[s]:      0.00
Run totals: 19 processes, 48 threads, 0 GPUs


Input parsed successfully to the following command list (including defaults):

basis kpoint-dependent
coords-type Lattice
core-overlap-check vector
coulomb-interaction Slab 001
davidson-band-ratio 1.1
dump End None
dump-name $INPUT.$VAR
elec-cutoff 20
elec-eigen-algo Davidson
elec-ex-corr gga-PBE
elec-initial-magnetization 0.880000 yes
elec-smearing Fermi 1e-05
electronic-minimize  \
	dirUpdateScheme      FletcherReeves \
	linminMethod         DirUpdateRecommended \
	nIterations          100 \
	history              15 \
	knormThreshold       0 \
	energyDiffThreshold  1e-08 \
	nEnergyDiff          2 \
	alphaTstart          1 \
	alphaTmin            1e-10 \
	updateTestStepSize   yes \
	alphaTreduceFactor   0.1 \
	alphaTincreaseFactor 3 \
	nAlphaAdjustMax      3 \
	wolfeEnergy          0.0001 \
	wolfeGradient        0.9 \
	fdTest               no
electronic-scf  \
	nIterations	10000 \
	energyDiffThreshold	1e-08 \
	residualThreshold	1e-07 \
	mixFraction	0.5 \
	qMetric	0.8 \
	history	10 \
	nEigSteps	2 \
	eigDiffThreshold	1e-08 \
	mixedVariable	Density \
	qKerker	0.8 \
	qKappa	-1 \
	verbose	no \
	mixFractionMag	1.5
exchange-regularization WignerSeitzTruncated
fluid None
fluid-ex-corr (null) lda-PZ
fluid-gummel-loop 10 1.000000e-05
fluid-minimize  \
	dirUpdateScheme      PolakRibiere \
	linminMethod         DirUpdateRecommended \
	nIterations          100 \
	history              15 \
	knormThreshold       0 \
	energyDiffThreshold  0 \
	nEnergyDiff          2 \
	alphaTstart          1 \
	alphaTmin            1e-10 \
	updateTestStepSize   yes \
	alphaTreduceFactor   0.1 \
	alphaTincreaseFactor 3 \
	nAlphaAdjustMax      3 \
	wolfeEnergy          0.0001 \
	wolfeGradient        0.9 \
	fdTest               no
fluid-solvent H2O 55.338 ScalarEOS \
	epsBulk 78.4 \
	pMol 0.92466 \
	epsInf 1.77 \
	Pvap 1.06736e-10 \
	sigmaBulk 4.62e-05 \
	Rvdw 2.61727 \
	Res 1.42 \
	tauNuc 343133 \
	poleEl 15 7 1
forces-output-coords Positions
ion Rb   0.000000000000000   0.000000000000000   0.000000000000000 0
ion-species SG15/$ID_ONCV_PBE.upf
ion-width 0
ionic-minimize  \
	dirUpdateScheme      L-BFGS \
	linminMethod         DirUpdateRecommended \
	nIterations          0 \
	history              15 \
	knormThreshold       0.0001 \
	energyDiffThreshold  1e-06 \
	nEnergyDiff          2 \
	alphaTstart          1 \
	alphaTmin            1e-10 \
	updateTestStepSize   yes \
	alphaTreduceFactor   0.1 \
	alphaTincreaseFactor 3 \
	nAlphaAdjustMax      3 \
	wolfeEnergy          0.0001 \
	wolfeGradient        0.9 \
	fdTest               no
kpoint   0.000000000000   0.000000000000   0.000000000000  1.00000000000000
kpoint-folding 12 12 1 
latt-move-scale 1 1 1
latt-scale 4 4 1 
lattice  \
	   4.727486978767153   -2.363743489383575    0.000000000000000  \
	  -0.000000000000000    4.094123819672498    0.000000000000000  \
	   0.000000000000000    0.000000000000000   40.000000000000000 
lattice-minimize  \
	dirUpdateScheme      L-BFGS \
	linminMethod         DirUpdateRecommended \
	nIterations          0 \
	history              15 \
	knormThreshold       0 \
	energyDiffThreshold  1e-06 \
	nEnergyDiff          2 \
	alphaTstart          1 \
	alphaTmin            1e-10 \
	updateTestStepSize   yes \
	alphaTreduceFactor   0.1 \
	alphaTincreaseFactor 3 \
	nAlphaAdjustMax      3 \
	wolfeEnergy          0.0001 \
	wolfeGradient        0.9 \
	fdTest               no
lcao-params -1 1e-06 1e-05
pcm-variant GLSSA13
spintype z-spin
subspace-rotation-factor 1 yes
symmetries automatic
symmetry-threshold 0.0001



---------- Setting up symmetries ----------

Found 24 point-group symmetries of the bravais lattice
Found 24 space-group symmetries with basis
Applied RMS atom displacement 0 bohrs to make symmetries exact.

---------- Initializing the Grid ----------
R = 
[      18.9099     -9.45497            0  ]
[            0      16.3765            0  ]
[            0            0           40  ]
unit cell volume = 12387.1
G =
[   0.332269   0.191835         -0  ]
[          0   0.383671         -0  ]
[         -0         -0    0.15708  ]
Minimum fftbox size, Smin = [  80  80  164  ]
Chosen fftbox size, S = [  80  80  168  ]

---------- Exchange Correlation functional ----------
Initalized PBE GGA exchange.
Initalized PBE GGA correlation.

---------- Setting up pseudopotentials ----------
Width of ionic core gaussian charges (only for fluid interactions / plotting) set to 0

Reading pseudopotential file '/home/gridsan/aligho/DFT/build-Nov24/pseudopotentials/SG15/Rb_ONCV_PBE.upf':
  'Rb' pseudopotential, 'PBE' functional
  Generated using ONCVPSP code by D. R. Hamann
  Author: Martin Schlipf and Francois Gygi  Date: 150915.
  9 valence electrons, 3 orbitals, 6 projectors, 2308 radial grid points, with lMax = 2
  Transforming local potential to a uniform radial grid of dG=0.02 with 1489 points.
  Transforming nonlocal projectors to a uniform radial grid of dG=0.02 with 432 points.
    4S    l: 0   occupation:  2.0   eigenvalue: -1.172069
    4P    l: 1   occupation:  6.0   eigenvalue: -0.586674
    5S    l: 0   occupation:  1.0   eigenvalue: -0.082006
  Transforming atomic orbitals to a uniform radial grid of dG=0.02 with 432 points.
  Core radius for overlap checks: 2.60 bohrs.
  Reading pulay file /home/gridsan/aligho/DFT/build-Nov24/pseudopotentials/SG15/Rb_ONCV_PBE.pulay ... using dE_dnG = -1.360715e-05 computed for Ecut = 20.

Initialized 1 species with 1 total atoms.

Folded 1 k-points by 12x12x1 to 144 k-points.

---------- Setting up k-points, bands, fillings ----------
Reduced to 19 k-points under symmetry. 
Computing the number of bands and number of electrons
Calculating initial fillings.
nElectrons:   9.000000   nBands: 6   nStates: 38

----- Setting up reduced wavefunction bases (one per k-point) -----
average nbasis = 52924.021 , ideal nbasis = 52918.836

---------- Setting up coulomb interaction ----------
Initialized slab truncation along lattice direction 001

---------- Setting up 2D ewald sum ----------
Optimum gaussian width for ewald sums = 10.498040 bohr.
Real space sums over 289 unit cells with max indices [  8  8  0  ]
Reciprocal space sums over 81 terms with max indices [  4  4  0  ]

---------- Allocating electronic variables ----------
Initializing wave functions:  linear combination of atomic orbitals
Note: number of bands (6) exceeds available atomic orbitals (5)
Rb pseudo-atom occupations:   s ( 2 1 )  p ( 6 )
[d-4-3-3:26552] 18 more processes have sent help message help-mpi-common-cuda.txt / dlopen failed
[d-4-3-3:26552] Set MCA parameter "orte_base_help_aggregate" to 0 to see all help / error messages
[d-4-3-3:26552] 18 more processes have sent help message help-mpi-btl-openib-cpc-base.txt / no cpcs for port
	FillingsUpdate:  mu: -0.081644456  nElectrons: 9.000000  magneticMoment: [ Abs: 0.88000  Tot: +0.88000 ]
LCAOMinimize: Iter:   0  F: -24.4331201699780607  |grad|_K:  1.297e-06  alpha:  1.000e+00
	FillingsUpdate:  mu: -0.081644168  nElectrons: 9.000000  magneticMoment: [ Abs: 0.88000  Tot: +0.88000 ]
LCAOMinimize: Iter:   1  F: -24.4331201711205921  |grad|_K:  7.114e-09  alpha:  9.925e-01  linmin: -1.802e-04  cgtest:  3.885e-03  t[s]:     15.29
LCAOMinimize: 	Step increased F by 1.243450e-13, reducing alpha to 1.371046e-01.
	FillingsUpdate:  mu: -0.081644168  nElectrons: 9.000000  magneticMoment: [ Abs: 0.88000  Tot: +0.88000 ]
LCAOMinimize: Iter:   2  F: -24.4331201711206738  |grad|_K:  6.135e-09  alpha:  1.371e-01  linmin: -6.791e-02  cgtest:  1.000e+00  t[s]:     21.67
LCAOMinimize: Encountered beta<0, resetting CG.
LCAOMinimize: Converged (|Delta F|<1.000000e-06 for 2 iters).


---- Citations for features of the code used in this run ----

   Software package:
      R. Sundararaman, K. Letchworth-Weaver, K.A. Schwarz, D. Gunceler, Y. Ozhabes and T.A. Arias, 'JDFTx: software for joint density-functional theory', SoftwareX 6, 278 (2017)

   gga-PBE exchange-correlation functional:
      J.P. Perdew, K. Burke and M. Ernzerhof, Phys. Rev. Lett. 77, 3865 (1996)

   Pseudopotentials:
      M Schlipf and F Gygi, Comput. Phys. Commun. 196, 36 (2015)

   Truncated Coulomb potentials:
      R. Sundararaman and T.A. Arias, Phys. Rev. B 87, 165122 (2013)

This list may not be complete. Please suggest additional citations or
report any other bugs at https://github.com/shankar1729/jdftx/issues

Initialization completed successfully at t[s]:     21.94


-------- Electronic minimization -----------
Will mix electronic density at each iteration.
	FillingsUpdate:  mu: -0.081644168  nElectrons: 9.000000  magneticMoment: [ Abs: 0.88000  Tot: +0.88000 ]
	FillingsUpdate:  mu: -0.081782752  nElectrons: 9.000000  magneticMoment: [ Abs: 0.88000  Tot: +0.88000 ]
SCF: Cycle:  0   F: -24.433251290699872   dF: -1.311e-04   |Residual|: 2.048e-03   |deigs|: 1.661e-01  t[s]:     30.26
	FillingsUpdate:  mu: -0.081757821  nElectrons: 9.000000  magneticMoment: [ Abs: 0.88518  Tot: +0.88000 ]
SCF: Cycle:  1   F: -24.433254096794325   dF: -2.806e-06   |Residual|: 5.072e-04   |deigs|: 1.211e-02  t[s]:     36.80
	FillingsUpdate:  mu: -0.081694235  nElectrons: 9.000000  magneticMoment: [ Abs: 0.88504  Tot: +0.88000 ]
SCF: Cycle:  2   F: -24.433254781875846   dF: -6.851e-07   |Residual|: 3.336e-04   |deigs|: 2.069e-03  t[s]:     43.39
	FillingsUpdate:  mu: -0.081629358  nElectrons: 9.000000  magneticMoment: [ Abs: 0.88575  Tot: +0.88000 ]
SCF: Cycle:  3   F: -24.433255136227221   dF: -3.544e-07   |Residual|: 2.618e-04   |deigs|: 9.181e-04  t[s]:     50.15
	FillingsUpdate:  mu: -0.081470573  nElectrons: 9.000000  magneticMoment: [ Abs: 0.88567  Tot: +0.88000 ]
SCF: Cycle:  4   F: -24.433255316262919   dF: -1.800e-07   |Residual|: 1.648e-04   |deigs|: 6.953e-04  t[s]:     57.11
	FillingsUpdate:  mu: -0.081305129  nElectrons: 9.000000  magneticMoment: [ Abs: 0.88558  Tot: +0.88000 ]
SCF: Cycle:  5   F: -24.433255425426250   dF: -1.092e-07   |Residual|: 1.124e-04   |deigs|: 4.765e-04  t[s]:     64.07
	FillingsUpdate:  mu: -0.081265752  nElectrons: 9.000000  magneticMoment: [ Abs: 0.88550  Tot: +0.88000 ]
SCF: Cycle:  6   F: -24.433255584984842   dF: -1.596e-07   |Residual|: 8.511e-05   |deigs|: 1.836e-04  t[s]:     71.20
	FillingsUpdate:  mu: -0.081248456  nElectrons: 9.000000  magneticMoment: [ Abs: 0.88558  Tot: +0.88000 ]
SCF: Cycle:  7   F: -24.433255688322635   dF: -1.033e-07   |Residual|: 6.230e-05   |deigs|: 2.194e-04  t[s]:     78.37
	FillingsUpdate:  mu: -0.081230119  nElectrons: 9.000000  magneticMoment: [ Abs: 0.88555  Tot: +0.88000 ]
SCF: Cycle:  8   F: -24.433255727241679   dF: -3.892e-08   |Residual|: 5.322e-05   |deigs|: 1.914e-04  t[s]:     85.71
	FillingsUpdate:  mu: -0.081203183  nElectrons: 9.000000  magneticMoment: [ Abs: 0.88556  Tot: +0.88000 ]
SCF: Cycle:  9   F: -24.433255654735788   dF: +7.251e-08   |Residual|: 4.367e-05   |deigs|: 1.359e-04  t[s]:     93.23
	FillingsUpdate:  mu: -0.081179564  nElectrons: 9.000000  magneticMoment: [ Abs: 0.88560  Tot: +0.88000 ]
SCF: Cycle: 10   F: -24.433255567355076   dF: +8.738e-08   |Residual|: 3.845e-05   |deigs|: 1.234e-04  t[s]:    100.71
	FillingsUpdate:  mu: -0.081135306  nElectrons: 9.000000  magneticMoment: [ Abs: 0.88568  Tot: +0.88000 ]
SCF: Cycle: 11   F: -24.433255284627247   dF: +2.827e-07   |Residual|: 3.415e-05   |deigs|: 1.003e-04  t[s]:    108.26
	FillingsUpdate:  mu: -0.081112205  nElectrons: 9.000000  magneticMoment: [ Abs: 0.88584  Tot: +0.88000 ]
SCF: Cycle: 12   F: -24.433255320608954   dF: -3.598e-08   |Residual|: 2.888e-05   |deigs|: 5.208e-05  t[s]:    115.73
	FillingsUpdate:  mu: -0.081096239  nElectrons: 9.000000  magneticMoment: [ Abs: 0.88577  Tot: +0.88000 ]
SCF: Cycle: 13   F: -24.433255372804958   dF: -5.220e-08   |Residual|: 2.559e-05   |deigs|: 3.667e-05  t[s]:    123.28
	FillingsUpdate:  mu: -0.081046023  nElectrons: 9.000000  magneticMoment: [ Abs: 0.88574  Tot: +0.88000 ]
SCF: Cycle: 14   F: -24.433255588473568   dF: -2.157e-07   |Residual|: 2.443e-05   |deigs|: 5.835e-05  t[s]:    130.79
	FillingsUpdate:  mu: -0.081012863  nElectrons: 9.000000  magneticMoment: [ Abs: 0.88568  Tot: +0.88000 ]
SCF: Cycle: 15   F: -24.433255576703488   dF: +1.177e-08   |Residual|: 2.391e-05   |deigs|: 5.020e-05  t[s]:    138.14
	FillingsUpdate:  mu: -0.080996018  nElectrons: 9.000000  magneticMoment: [ Abs: 0.88557  Tot: +0.88000 ]
SCF: Cycle: 16   F: -24.433255584311965   dF: -7.608e-09   |Residual|: 2.187e-05   |deigs|: 4.733e-05  t[s]:    145.69
	FillingsUpdate:  mu: -0.080980998  nElectrons: 9.000000  magneticMoment: [ Abs: 0.88561  Tot: +0.88000 ]
SCF: Cycle: 17   F: -24.433255602262548   dF: -1.795e-08   |Residual|: 1.373e-05   |deigs|: 5.122e-05  t[s]:    153.22
	FillingsUpdate:  mu: -0.080971967  nElectrons: 9.000000  magneticMoment: [ Abs: 0.88559  Tot: +0.88000 ]
SCF: Cycle: 18   F: -24.433255768823084   dF: -1.666e-07   |Residual|: 1.028e-05   |deigs|: 4.382e-05  t[s]:    160.76
	FillingsUpdate:  mu: -0.080968235  nElectrons: 9.000000  magneticMoment: [ Abs: 0.88557  Tot: +0.88000 ]
SCF: Cycle: 19   F: -24.433255805549120   dF: -3.673e-08   |Residual|: 7.713e-06   |deigs|: 4.095e-05  t[s]:    167.95
	FillingsUpdate:  mu: -0.080962745  nElectrons: 9.000000  magneticMoment: [ Abs: 0.88558  Tot: +0.88000 ]
SCF: Cycle: 20   F: -24.433255818526778   dF: -1.298e-08   |Residual|: 5.328e-06   |deigs|: 3.498e-05  t[s]:    175.31
	FillingsUpdate:  mu: -0.080962785  nElectrons: 9.000000  magneticMoment: [ Abs: 0.88556  Tot: +0.88000 ]
SCF: Cycle: 21   F: -24.433255841594750   dF: -2.307e-08   |Residual|: 4.009e-06   |deigs|: 3.063e-05  t[s]:    182.83
	FillingsUpdate:  mu: -0.080962544  nElectrons: 9.000000  magneticMoment: [ Abs: 0.88556  Tot: +0.88000 ]
SCF: Cycle: 22   F: -24.433255852865933   dF: -1.127e-08   |Residual|: 2.999e-06   |deigs|: 2.645e-05  t[s]:    189.79
	FillingsUpdate:  mu: -0.080961375  nElectrons: 9.000000  magneticMoment: [ Abs: 0.88556  Tot: +0.88000 ]
SCF: Cycle: 23   F: -24.433255853566841   dF: -7.009e-10   |Residual|: 2.206e-06   |deigs|: 2.472e-05  t[s]:    197.09
	FillingsUpdate:  mu: -0.080959798  nElectrons: 9.000000  magneticMoment: [ Abs: 0.88555  Tot: +0.88000 ]
SCF: Cycle: 24   F: -24.433255859434340   dF: -5.867e-09   |Residual|: 1.341e-06   |deigs|: 2.339e-05  t[s]:    204.62
SCF: Converged (|Delta E|<1.000000e-08 for 2 iters).


# Ionic positions in lattice coordinates:
ion Rb   0.000000000000000   0.000000000000000   0.000000000000000 0

# Forces in Lattice coordinates:
force Rb  -0.000000000000000   0.000000000000000   0.000000000000000 0

# Energy components:
   Eewald =       -9.0240130501663280
       EH =       10.5512538161402407
     Eloc =      -28.4776099091673700
      Enl =       -0.7920539358909194
   Epulay =        0.0000000056959385
      Exc =       -3.6544619781930070
       KE =        6.9636300094145520
-------------------------------------
     Etot =      -24.4332550421668913
       TS =        0.0000008172674499
-------------------------------------
        F =      -24.4332558594343396

IonicMinimize: Iter:   0  F: -24.433255859434340  |grad|_K:  0.000e+00  t[s]:    205.04
IonicMinimize: Converged (|grad|_K<1.000000e-04).

#--- Lowdin population analysis ---
# oxidation-state Rb +0.001
# magnetic-moments Rb +0.879

End date and time: Sun Feb  6 13:05:25 2022  (Duration: 0-0:03:25.11)
Done!
