The alkali metal is Rb
scale=2
magnetization=-0.88
--------------------------------------------------------------------------
The library attempted to open the following supporting CUDA libraries,
but each of them failed.  CUDA-aware support is disabled.
libcuda.so.1: cannot open shared object file: No such file or directory
libcuda.dylib: cannot open shared object file: No such file or directory
/usr/lib64/libcuda.so.1: cannot open shared object file: No such file or directory
/usr/lib64/libcuda.dylib: cannot open shared object file: No such file or directory
If you are not interested in CUDA-aware support, then run with
--mca opal_warn_on_missing_libcuda 0 to suppress this message.  If you are interested
in CUDA-aware support, then try setting LD_LIBRARY_PATH to the location
of libcuda.so.1 to get passed this issue.
--------------------------------------------------------------------------
--------------------------------------------------------------------------
No OpenFabrics connection schemes reported that they were able to be
used on a specific port.  As such, the openib BTL (OpenFabrics
support) will be disabled for this port.

  Local host:           d-6-7-4
  Local device:         mlx5_1
  Local port:           1
  CPCs attempted:       rdmacm, udcm
--------------------------------------------------------------------------

*************** JDFTx 1.6.0 (git hash 42ebbcc2) ***************

Start date and time: Sun Feb  6 12:34:51 2022
Executable jdftx with command-line: -i Alkali.in
Running on hosts (process indices):  d-6-7-4 (0-18)
Divided in process groups (process indices):  0 (0)  1 (1)  2 (2)  3 (3)  4 (4)  5 (5)  6 (6)  7 (7)  8 (8)  9 (9)  10 (10)  11 (11)  12 (12)  13 (13)  14 (14)  15 (15)  16 (16)  17 (17)  18 (18)
Resource initialization completed at t[s]:      0.00
Run totals: 19 processes, 48 threads, 0 GPUs


Input parsed successfully to the following command list (including defaults):

basis kpoint-dependent
coords-type Lattice
core-overlap-check vector
coulomb-interaction Slab 001
davidson-band-ratio 1.1
dump End None
dump-name $INPUT.$VAR
elec-cutoff 20
elec-eigen-algo Davidson
elec-ex-corr gga-PBE
elec-initial-magnetization -0.880000 yes
elec-smearing Fermi 1e-05
electronic-minimize  \
	dirUpdateScheme      FletcherReeves \
	linminMethod         DirUpdateRecommended \
	nIterations          100 \
	history              15 \
	knormThreshold       0 \
	energyDiffThreshold  1e-08 \
	nEnergyDiff          2 \
	alphaTstart          1 \
	alphaTmin            1e-10 \
	updateTestStepSize   yes \
	alphaTreduceFactor   0.1 \
	alphaTincreaseFactor 3 \
	nAlphaAdjustMax      3 \
	wolfeEnergy          0.0001 \
	wolfeGradient        0.9 \
	fdTest               no
electronic-scf  \
	nIterations	10000 \
	energyDiffThreshold	1e-08 \
	residualThreshold	1e-07 \
	mixFraction	0.5 \
	qMetric	0.8 \
	history	10 \
	nEigSteps	2 \
	eigDiffThreshold	1e-08 \
	mixedVariable	Density \
	qKerker	0.8 \
	qKappa	-1 \
	verbose	no \
	mixFractionMag	1.5
exchange-regularization WignerSeitzTruncated
fluid None
fluid-ex-corr (null) lda-PZ
fluid-gummel-loop 10 1.000000e-05
fluid-minimize  \
	dirUpdateScheme      PolakRibiere \
	linminMethod         DirUpdateRecommended \
	nIterations          100 \
	history              15 \
	knormThreshold       0 \
	energyDiffThreshold  0 \
	nEnergyDiff          2 \
	alphaTstart          1 \
	alphaTmin            1e-10 \
	updateTestStepSize   yes \
	alphaTreduceFactor   0.1 \
	alphaTincreaseFactor 3 \
	nAlphaAdjustMax      3 \
	wolfeEnergy          0.0001 \
	wolfeGradient        0.9 \
	fdTest               no
fluid-solvent H2O 55.338 ScalarEOS \
	epsBulk 78.4 \
	pMol 0.92466 \
	epsInf 1.77 \
	Pvap 1.06736e-10 \
	sigmaBulk 4.62e-05 \
	Rvdw 2.61727 \
	Res 1.42 \
	tauNuc 343133 \
	poleEl 15 7 1
forces-output-coords Positions
ion Rb   0.000000000000000   0.000000000000000   0.000000000000000 0
ion-species SG15/$ID_ONCV_PBE.upf
ion-width 0
ionic-minimize  \
	dirUpdateScheme      L-BFGS \
	linminMethod         DirUpdateRecommended \
	nIterations          0 \
	history              15 \
	knormThreshold       0.0001 \
	energyDiffThreshold  1e-06 \
	nEnergyDiff          2 \
	alphaTstart          1 \
	alphaTmin            1e-10 \
	updateTestStepSize   yes \
	alphaTreduceFactor   0.1 \
	alphaTincreaseFactor 3 \
	nAlphaAdjustMax      3 \
	wolfeEnergy          0.0001 \
	wolfeGradient        0.9 \
	fdTest               no
kpoint   0.000000000000   0.000000000000   0.000000000000  1.00000000000000
kpoint-folding 12 12 1 
latt-move-scale 1 1 1
latt-scale 2 2 1 
lattice  \
	   4.727486978767153   -2.363743489383575    0.000000000000000  \
	  -0.000000000000000    4.094123819672498    0.000000000000000  \
	   0.000000000000000    0.000000000000000   40.000000000000000 
lattice-minimize  \
	dirUpdateScheme      L-BFGS \
	linminMethod         DirUpdateRecommended \
	nIterations          0 \
	history              15 \
	knormThreshold       0 \
	energyDiffThreshold  1e-06 \
	nEnergyDiff          2 \
	alphaTstart          1 \
	alphaTmin            1e-10 \
	updateTestStepSize   yes \
	alphaTreduceFactor   0.1 \
	alphaTincreaseFactor 3 \
	nAlphaAdjustMax      3 \
	wolfeEnergy          0.0001 \
	wolfeGradient        0.9 \
	fdTest               no
lcao-params -1 1e-06 1e-05
pcm-variant GLSSA13
spintype z-spin
subspace-rotation-factor 1 yes
symmetries automatic
symmetry-threshold 0.0001



---------- Setting up symmetries ----------

Found 24 point-group symmetries of the bravais lattice
Found 24 space-group symmetries with basis
Applied RMS atom displacement 0 bohrs to make symmetries exact.

---------- Initializing the Grid ----------
R = 
[      9.45497     -4.72749            0  ]
[            0      8.18825            0  ]
[            0            0           40  ]
unit cell volume = 3096.79
G =
[   0.664538   0.383671         -0  ]
[          0   0.767342         -0  ]
[         -0         -0    0.15708  ]
Minimum fftbox size, Smin = [  40  40  164  ]
Chosen fftbox size, S = [  40  40  168  ]

---------- Exchange Correlation functional ----------
Initalized PBE GGA exchange.
Initalized PBE GGA correlation.

---------- Setting up pseudopotentials ----------
Width of ionic core gaussian charges (only for fluid interactions / plotting) set to 0

Reading pseudopotential file '/home/gridsan/aligho/DFT/build-Nov24/pseudopotentials/SG15/Rb_ONCV_PBE.upf':
  'Rb' pseudopotential, 'PBE' functional
  Generated using ONCVPSP code by D. R. Hamann
  Author: Martin Schlipf and Francois Gygi  Date: 150915.
  9 valence electrons, 3 orbitals, 6 projectors, 2308 radial grid points, with lMax = 2
  Transforming local potential to a uniform radial grid of dG=0.02 with 1489 points.
  Transforming nonlocal projectors to a uniform radial grid of dG=0.02 with 432 points.
    4S    l: 0   occupation:  2.0   eigenvalue: -1.172069
    4P    l: 1   occupation:  6.0   eigenvalue: -0.586674
    5S    l: 0   occupation:  1.0   eigenvalue: -0.082006
  Transforming atomic orbitals to a uniform radial grid of dG=0.02 with 432 points.
  Core radius for overlap checks: 2.60 bohrs.
  Reading pulay file /home/gridsan/aligho/DFT/build-Nov24/pseudopotentials/SG15/Rb_ONCV_PBE.pulay ... using dE_dnG = -1.360715e-05 computed for Ecut = 20.

Initialized 1 species with 1 total atoms.

Folded 1 k-points by 12x12x1 to 144 k-points.

---------- Setting up k-points, bands, fillings ----------
Reduced to 19 k-points under symmetry. 
Computing the number of bands and number of electrons
Calculating initial fillings.
nElectrons:   9.000000   nBands: 6   nStates: 38

----- Setting up reduced wavefunction bases (one per k-point) -----
average nbasis = 13230.521 , ideal nbasis = 13229.709

---------- Setting up coulomb interaction ----------
Initialized slab truncation along lattice direction 001

---------- Setting up 2D ewald sum ----------
Optimum gaussian width for ewald sums = 5.249020 bohr.
Real space sums over 289 unit cells with max indices [  8  8  0  ]
Reciprocal space sums over 81 terms with max indices [  4  4  0  ]

---------- Allocating electronic variables ----------
Initializing wave functions:  linear combination of atomic orbitals
Note: number of bands (6) exceeds available atomic orbitals (5)
Rb pseudo-atom occupations:   s ( 2 1 )  p ( 6 )
	FillingsUpdate:  mu: -0.089986173  nElectrons: 9.000000  magneticMoment: [ Abs: 0.88000  Tot: -0.88000 ]
LCAOMinimize: Iter:   0  F: -24.4326701840376792  |grad|_K:  1.051e-05  alpha:  1.000e+00
	FillingsUpdate:  mu: -0.089983025  nElectrons: 9.000000  magneticMoment: [ Abs: 0.88000  Tot: -0.88000 ]
LCAOMinimize: Iter:   1  F: -24.4326702582698303  |grad|_K:  1.022e-07  alpha:  9.821e-01  linmin: -1.070e-02  cgtest:  1.838e-01  t[s]:      4.60
LCAOMinimize: Encountered beta<0, resetting CG.
[d-6-7-4:79561] 18 more processes have sent help message help-mpi-common-cuda.txt / dlopen failed
[d-6-7-4:79561] Set MCA parameter "orte_base_help_aggregate" to 0 to see all help / error messages
[d-6-7-4:79561] 18 more processes have sent help message help-mpi-btl-openib-cpc-base.txt / no cpcs for port
	FillingsUpdate:  mu: -0.089983060  nElectrons: 9.000000  magneticMoment: [ Abs: 0.88000  Tot: -0.88000 ]
LCAOMinimize: Iter:   2  F: -24.4326702582772128  |grad|_K:  9.542e-10  alpha:  9.925e-01  linmin: -5.198e-02  cgtest:  6.677e-01  t[s]:      5.86
LCAOMinimize: Encountered beta<0, resetting CG.
LCAOMinimize: Converged (|Delta F|<1.000000e-06 for 2 iters).


---- Citations for features of the code used in this run ----

   Software package:
      R. Sundararaman, K. Letchworth-Weaver, K.A. Schwarz, D. Gunceler, Y. Ozhabes and T.A. Arias, 'JDFTx: software for joint density-functional theory', SoftwareX 6, 278 (2017)

   gga-PBE exchange-correlation functional:
      J.P. Perdew, K. Burke and M. Ernzerhof, Phys. Rev. Lett. 77, 3865 (1996)

   Pseudopotentials:
      M Schlipf and F Gygi, Comput. Phys. Commun. 196, 36 (2015)

   Truncated Coulomb potentials:
      R. Sundararaman and T.A. Arias, Phys. Rev. B 87, 165122 (2013)

This list may not be complete. Please suggest additional citations or
report any other bugs at https://github.com/shankar1729/jdftx/issues

Initialization completed successfully at t[s]:      5.95


-------- Electronic minimization -----------
Will mix electronic density at each iteration.
	FillingsUpdate:  mu: -0.089983060  nElectrons: 9.000000  magneticMoment: [ Abs: 0.88000  Tot: -0.88000 ]
	FillingsUpdate:  mu: -0.105273241  nElectrons: 9.000000  magneticMoment: [ Abs: 0.88000  Tot: -0.88000 ]
SCF: Cycle:  0   F: -24.443140684111167   dF: -1.047e-02   |Residual|: 1.674e-02   |deigs|: 1.773e-01  t[s]:      8.29
	FillingsUpdate:  mu: -0.108057924  nElectrons: 9.000000  magneticMoment: [ Abs: 0.88000  Tot: -0.88000 ]
SCF: Cycle:  1   F: -24.443714789391564   dF: -5.741e-04   |Residual|: 1.173e-02   |deigs|: 8.018e-03  t[s]:     10.05
	FillingsUpdate:  mu: -0.107135652  nElectrons: 9.000000  magneticMoment: [ Abs: 0.88303  Tot: -0.88000 ]
SCF: Cycle:  2   F: -24.443946815970079   dF: -2.320e-04   |Residual|: 7.151e-03   |deigs|: 3.566e-03  t[s]:     11.84
	FillingsUpdate:  mu: -0.106875022  nElectrons: 9.000000  magneticMoment: [ Abs: 0.88011  Tot: -0.88000 ]
SCF: Cycle:  3   F: -24.444048872042170   dF: -1.021e-04   |Residual|: 4.115e-03   |deigs|: 1.835e-03  t[s]:     13.63
	FillingsUpdate:  mu: -0.102393468  nElectrons: 9.000000  magneticMoment: [ Abs: 0.88019  Tot: -0.88000 ]
SCF: Cycle:  4   F: -24.444239369519337   dF: -1.905e-04   |Residual|: 2.684e-03   |deigs|: 3.126e-03  t[s]:     15.50
	FillingsUpdate:  mu: -0.103860667  nElectrons: 9.000000  magneticMoment: [ Abs: 0.88000  Tot: -0.88000 ]
SCF: Cycle:  5   F: -24.444276841095324   dF: -3.747e-05   |Residual|: 1.838e-03   |deigs|: 2.718e-03  t[s]:     17.37
	FillingsUpdate:  mu: -0.101828095  nElectrons: 9.000000  magneticMoment: [ Abs: 0.88233  Tot: -0.88000 ]
SCF: Cycle:  6   F: -24.444277707978312   dF: -8.669e-07   |Residual|: 1.757e-03   |deigs|: 2.044e-03  t[s]:     19.30
	FillingsUpdate:  mu: -0.101418073  nElectrons: 9.000000  magneticMoment: [ Abs: 0.88311  Tot: -0.88000 ]
SCF: Cycle:  7   F: -24.444186512301052   dF: +9.120e-05   |Residual|: 3.169e-03   |deigs|: 1.314e-03  t[s]:     21.27
	FillingsUpdate:  mu: -0.101896621  nElectrons: 9.000000  magneticMoment: [ Abs: 0.88404  Tot: -0.88000 ]
SCF: Cycle:  8   F: -24.444313537418985   dF: -1.270e-04   |Residual|: 2.308e-03   |deigs|: 1.604e-03  t[s]:     23.19
	FillingsUpdate:  mu: -0.104187667  nElectrons: 9.000000  magneticMoment: [ Abs: 0.88179  Tot: -0.88000 ]
SCF: Cycle:  9   F: -24.444318189782138   dF: -4.652e-06   |Residual|: 3.478e-03   |deigs|: 2.667e-03  t[s]:     25.19
	FillingsUpdate:  mu: -0.106306326  nElectrons: 9.000000  magneticMoment: [ Abs: 0.88069  Tot: -0.88000 ]
SCF: Cycle: 10   F: -24.444312386112692   dF: +5.804e-06   |Residual|: 4.738e-03   |deigs|: 2.639e-03  t[s]:     27.20
	FillingsUpdate:  mu: -0.107243602  nElectrons: 9.000000  magneticMoment: [ Abs: 0.88000  Tot: -0.88000 ]
SCF: Cycle: 11   F: -24.444309492583997   dF: +2.894e-06   |Residual|: 5.352e-03   |deigs|: 1.144e-03  t[s]:     29.14
	FillingsUpdate:  mu: -0.105993967  nElectrons: 9.000000  magneticMoment: [ Abs: 0.88066  Tot: -0.88000 ]
SCF: Cycle: 12   F: -24.444311555593039   dF: -2.063e-06   |Residual|: 4.815e-03   |deigs|: 1.393e-03  t[s]:     31.07
	FillingsUpdate:  mu: -0.105293755  nElectrons: 9.000000  magneticMoment: [ Abs: 0.88123  Tot: -0.88000 ]
SCF: Cycle: 13   F: -24.444313302298614   dF: -1.747e-06   |Residual|: 4.501e-03   |deigs|: 8.412e-04  t[s]:     33.05
	FillingsUpdate:  mu: -0.104378531  nElectrons: 9.000000  magneticMoment: [ Abs: 0.88227  Tot: -0.88000 ]
SCF: Cycle: 14   F: -24.444315582996051   dF: -2.281e-06   |Residual|: 4.142e-03   |deigs|: 1.073e-03  t[s]:     35.11
	FillingsUpdate:  mu: -0.103522321  nElectrons: 9.000000  magneticMoment: [ Abs: 0.88289  Tot: -0.88000 ]
SCF: Cycle: 15   F: -24.444321226500875   dF: -5.644e-06   |Residual|: 3.768e-03   |deigs|: 1.047e-03  t[s]:     37.11
	FillingsUpdate:  mu: -0.102208581  nElectrons: 9.000000  magneticMoment: [ Abs: 0.88265  Tot: -0.88000 ]
SCF: Cycle: 16   F: -24.444327508043177   dF: -6.282e-06   |Residual|: 3.088e-03   |deigs|: 1.550e-03  t[s]:     39.03
	FillingsUpdate:  mu: -0.098251592  nElectrons: 9.000000  magneticMoment: [ Abs: 0.88198  Tot: -0.88000 ]
SCF: Cycle: 17   F: -24.444334412244746   dF: -6.904e-06   |Residual|: 1.609e-03   |deigs|: 4.415e-03  t[s]:     41.00
	FillingsUpdate:  mu: -0.093583544  nElectrons: 9.000000  magneticMoment: [ Abs: 0.88156  Tot: -0.88000 ]
SCF: Cycle: 18   F: -24.444336578288794   dF: -2.166e-06   |Residual|: 3.484e-04   |deigs|: 5.043e-03  t[s]:     42.94
	FillingsUpdate:  mu: -0.092910996  nElectrons: 9.000000  magneticMoment: [ Abs: 0.88116  Tot: -0.88000 ]
SCF: Cycle: 19   F: -24.444338131786889   dF: -1.553e-06   |Residual|: 2.894e-04   |deigs|: 6.199e-04  t[s]:     44.90
	FillingsUpdate:  mu: -0.092676038  nElectrons: 9.000000  magneticMoment: [ Abs: 0.88012  Tot: -0.88000 ]
SCF: Cycle: 20   F: -24.444340659539158   dF: -2.528e-06   |Residual|: 2.353e-04   |deigs|: 2.280e-04  t[s]:     46.82
	FillingsUpdate:  mu: -0.091992982  nElectrons: 9.000000  magneticMoment: [ Abs: 0.88008  Tot: -0.88000 ]
SCF: Cycle: 21   F: -24.444342967157610   dF: -2.308e-06   |Residual|: 1.494e-04   |deigs|: 7.070e-04  t[s]:     48.76
	FillingsUpdate:  mu: -0.091702167  nElectrons: 9.000000  magneticMoment: [ Abs: 0.88017  Tot: -0.88000 ]
SCF: Cycle: 22   F: -24.444343659626529   dF: -6.925e-07   |Residual|: 8.793e-05   |deigs|: 3.357e-04  t[s]:     50.75
	FillingsUpdate:  mu: -0.091610155  nElectrons: 9.000000  magneticMoment: [ Abs: 0.88007  Tot: -0.88000 ]
SCF: Cycle: 23   F: -24.444343993334357   dF: -3.337e-07   |Residual|: 4.744e-05   |deigs|: 1.281e-04  t[s]:     52.69
	FillingsUpdate:  mu: -0.091593110  nElectrons: 9.000000  magneticMoment: [ Abs: 0.88010  Tot: -0.88000 ]
SCF: Cycle: 24   F: -24.444344119404537   dF: -1.261e-07   |Residual|: 2.673e-05   |deigs|: 2.640e-05  t[s]:     54.65
	FillingsUpdate:  mu: -0.091611805  nElectrons: 9.000000  magneticMoment: [ Abs: 0.88013  Tot: -0.88000 ]
SCF: Cycle: 25   F: -24.444344196036131   dF: -7.663e-08   |Residual|: 1.457e-05   |deigs|: 2.936e-05  t[s]:     56.65
	FillingsUpdate:  mu: -0.091624322  nElectrons: 9.000000  magneticMoment: [ Abs: 0.88014  Tot: -0.88000 ]
SCF: Cycle: 26   F: -24.444344218792150   dF: -2.276e-08   |Residual|: 1.065e-05   |deigs|: 2.163e-05  t[s]:     58.61
	FillingsUpdate:  mu: -0.091649294  nElectrons: 9.000000  magneticMoment: [ Abs: 0.88014  Tot: -0.88000 ]
SCF: Cycle: 27   F: -24.444344244407752   dF: -2.562e-08   |Residual|: 7.497e-06   |deigs|: 3.129e-05  t[s]:     60.56
	FillingsUpdate:  mu: -0.091661271  nElectrons: 9.000000  magneticMoment: [ Abs: 0.88014  Tot: -0.88000 ]
SCF: Cycle: 28   F: -24.444344252844402   dF: -8.437e-09   |Residual|: 6.969e-06   |deigs|: 2.031e-05  t[s]:     62.46
	FillingsUpdate:  mu: -0.091662641  nElectrons: 9.000000  magneticMoment: [ Abs: 0.88013  Tot: -0.88000 ]
SCF: Cycle: 29   F: -24.444344259256699   dF: -6.412e-09   |Residual|: 5.305e-06   |deigs|: 2.598e-05  t[s]:     64.35
SCF: Converged (|Delta E|<1.000000e-08 for 2 iters).


# Ionic positions in lattice coordinates:
ion Rb   0.000000000000000   0.000000000000000   0.000000000000000 0

# Forces in Lattice coordinates:
force Rb  -0.000000000000000  -0.000000000000000   0.000000000000000 0

# Energy components:
   Eewald =      -18.0480261003326561
       EH =        1.6198009913507589
     Eloc =      -10.5308207754145524
      Enl =       -0.8003919307870293
   Epulay =        0.0000000035676145
      Exc =       -3.6815363179684497
       KE =        6.9966306608151712
-------------------------------------
     Etot =      -24.4443434687691479
       TS =        0.0000007904875519
-------------------------------------
        F =      -24.4443442592566988

IonicMinimize: Iter:   0  F: -24.444344259256699  |grad|_K:  0.000e+00  t[s]:     64.47
IonicMinimize: Converged (|grad|_K<1.000000e-04).

#--- Lowdin population analysis ---
# oxidation-state Rb +0.164
# magnetic-moments Rb -0.719

End date and time: Sun Feb  6 12:35:56 2022  (Duration: 0-0:01:04.49)
Done!
scale=3
magnetization=-0.88
--------------------------------------------------------------------------
The library attempted to open the following supporting CUDA libraries,
but each of them failed.  CUDA-aware support is disabled.
libcuda.so.1: cannot open shared object file: No such file or directory
libcuda.dylib: cannot open shared object file: No such file or directory
/usr/lib64/libcuda.so.1: cannot open shared object file: No such file or directory
/usr/lib64/libcuda.dylib: cannot open shared object file: No such file or directory
If you are not interested in CUDA-aware support, then run with
--mca opal_warn_on_missing_libcuda 0 to suppress this message.  If you are interested
in CUDA-aware support, then try setting LD_LIBRARY_PATH to the location
of libcuda.so.1 to get passed this issue.
--------------------------------------------------------------------------
--------------------------------------------------------------------------
No OpenFabrics connection schemes reported that they were able to be
used on a specific port.  As such, the openib BTL (OpenFabrics
support) will be disabled for this port.

  Local host:           d-6-7-4
  Local device:         mlx5_1
  Local port:           1
  CPCs attempted:       rdmacm, udcm
--------------------------------------------------------------------------

*************** JDFTx 1.6.0 (git hash 42ebbcc2) ***************

Start date and time: Sun Feb  6 12:35:57 2022
Executable jdftx with command-line: -i Alkali.in
Running on hosts (process indices):  d-6-7-4 (0-18)
Divided in process groups (process indices):  0 (0)  1 (1)  2 (2)  3 (3)  4 (4)  5 (5)  6 (6)  7 (7)  8 (8)  9 (9)  10 (10)  11 (11)  12 (12)  13 (13)  14 (14)  15 (15)  16 (16)  17 (17)  18 (18)
Resource initialization completed at t[s]:      0.00
Run totals: 19 processes, 48 threads, 0 GPUs


Input parsed successfully to the following command list (including defaults):

basis kpoint-dependent
coords-type Lattice
core-overlap-check vector
coulomb-interaction Slab 001
davidson-band-ratio 1.1
dump End None
dump-name $INPUT.$VAR
elec-cutoff 20
elec-eigen-algo Davidson
elec-ex-corr gga-PBE
elec-initial-magnetization -0.880000 yes
elec-smearing Fermi 1e-05
electronic-minimize  \
	dirUpdateScheme      FletcherReeves \
	linminMethod         DirUpdateRecommended \
	nIterations          100 \
	history              15 \
	knormThreshold       0 \
	energyDiffThreshold  1e-08 \
	nEnergyDiff          2 \
	alphaTstart          1 \
	alphaTmin            1e-10 \
	updateTestStepSize   yes \
	alphaTreduceFactor   0.1 \
	alphaTincreaseFactor 3 \
	nAlphaAdjustMax      3 \
	wolfeEnergy          0.0001 \
	wolfeGradient        0.9 \
	fdTest               no
electronic-scf  \
	nIterations	10000 \
	energyDiffThreshold	1e-08 \
	residualThreshold	1e-07 \
	mixFraction	0.5 \
	qMetric	0.8 \
	history	10 \
	nEigSteps	2 \
	eigDiffThreshold	1e-08 \
	mixedVariable	Density \
	qKerker	0.8 \
	qKappa	-1 \
	verbose	no \
	mixFractionMag	1.5
exchange-regularization WignerSeitzTruncated
fluid None
fluid-ex-corr (null) lda-PZ
fluid-gummel-loop 10 1.000000e-05
fluid-minimize  \
	dirUpdateScheme      PolakRibiere \
	linminMethod         DirUpdateRecommended \
	nIterations          100 \
	history              15 \
	knormThreshold       0 \
	energyDiffThreshold  0 \
	nEnergyDiff          2 \
	alphaTstart          1 \
	alphaTmin            1e-10 \
	updateTestStepSize   yes \
	alphaTreduceFactor   0.1 \
	alphaTincreaseFactor 3 \
	nAlphaAdjustMax      3 \
	wolfeEnergy          0.0001 \
	wolfeGradient        0.9 \
	fdTest               no
fluid-solvent H2O 55.338 ScalarEOS \
	epsBulk 78.4 \
	pMol 0.92466 \
	epsInf 1.77 \
	Pvap 1.06736e-10 \
	sigmaBulk 4.62e-05 \
	Rvdw 2.61727 \
	Res 1.42 \
	tauNuc 343133 \
	poleEl 15 7 1
forces-output-coords Positions
ion Rb   0.000000000000000   0.000000000000000   0.000000000000000 0
ion-species SG15/$ID_ONCV_PBE.upf
ion-width 0
ionic-minimize  \
	dirUpdateScheme      L-BFGS \
	linminMethod         DirUpdateRecommended \
	nIterations          0 \
	history              15 \
	knormThreshold       0.0001 \
	energyDiffThreshold  1e-06 \
	nEnergyDiff          2 \
	alphaTstart          1 \
	alphaTmin            1e-10 \
	updateTestStepSize   yes \
	alphaTreduceFactor   0.1 \
	alphaTincreaseFactor 3 \
	nAlphaAdjustMax      3 \
	wolfeEnergy          0.0001 \
	wolfeGradient        0.9 \
	fdTest               no
kpoint   0.000000000000   0.000000000000   0.000000000000  1.00000000000000
kpoint-folding 12 12 1 
latt-move-scale 1 1 1
latt-scale 3 3 1 
lattice  \
	   4.727486978767153   -2.363743489383575    0.000000000000000  \
	  -0.000000000000000    4.094123819672498    0.000000000000000  \
	   0.000000000000000    0.000000000000000   40.000000000000000 
lattice-minimize  \
	dirUpdateScheme      L-BFGS \
	linminMethod         DirUpdateRecommended \
	nIterations          0 \
	history              15 \
	knormThreshold       0 \
	energyDiffThreshold  1e-06 \
	nEnergyDiff          2 \
	alphaTstart          1 \
	alphaTmin            1e-10 \
	updateTestStepSize   yes \
	alphaTreduceFactor   0.1 \
	alphaTincreaseFactor 3 \
	nAlphaAdjustMax      3 \
	wolfeEnergy          0.0001 \
	wolfeGradient        0.9 \
	fdTest               no
lcao-params -1 1e-06 1e-05
pcm-variant GLSSA13
spintype z-spin
subspace-rotation-factor 1 yes
symmetries automatic
symmetry-threshold 0.0001



---------- Setting up symmetries ----------

Found 24 point-group symmetries of the bravais lattice
Found 24 space-group symmetries with basis
Applied RMS atom displacement 0 bohrs to make symmetries exact.

---------- Initializing the Grid ----------
R = 
[      14.1825     -7.09123            0  ]
[            0      12.2824            0  ]
[            0            0           40  ]
unit cell volume = 6967.77
G =
[   0.443025   0.255781         -0  ]
[          0   0.511561         -0  ]
[         -0         -0    0.15708  ]
Minimum fftbox size, Smin = [  60  60  164  ]
Chosen fftbox size, S = [  60  60  168  ]

---------- Exchange Correlation functional ----------
Initalized PBE GGA exchange.
Initalized PBE GGA correlation.

---------- Setting up pseudopotentials ----------
Width of ionic core gaussian charges (only for fluid interactions / plotting) set to 0

Reading pseudopotential file '/home/gridsan/aligho/DFT/build-Nov24/pseudopotentials/SG15/Rb_ONCV_PBE.upf':
  'Rb' pseudopotential, 'PBE' functional
  Generated using ONCVPSP code by D. R. Hamann
  Author: Martin Schlipf and Francois Gygi  Date: 150915.
  9 valence electrons, 3 orbitals, 6 projectors, 2308 radial grid points, with lMax = 2
  Transforming local potential to a uniform radial grid of dG=0.02 with 1489 points.
  Transforming nonlocal projectors to a uniform radial grid of dG=0.02 with 432 points.
    4S    l: 0   occupation:  2.0   eigenvalue: -1.172069
    4P    l: 1   occupation:  6.0   eigenvalue: -0.586674
    5S    l: 0   occupation:  1.0   eigenvalue: -0.082006
  Transforming atomic orbitals to a uniform radial grid of dG=0.02 with 432 points.
  Core radius for overlap checks: 2.60 bohrs.
  Reading pulay file /home/gridsan/aligho/DFT/build-Nov24/pseudopotentials/SG15/Rb_ONCV_PBE.pulay ... using dE_dnG = -1.360715e-05 computed for Ecut = 20.

Initialized 1 species with 1 total atoms.

Folded 1 k-points by 12x12x1 to 144 k-points.

---------- Setting up k-points, bands, fillings ----------
Reduced to 19 k-points under symmetry. 
Computing the number of bands and number of electrons
Calculating initial fillings.
nElectrons:   9.000000   nBands: 6   nStates: 38

----- Setting up reduced wavefunction bases (one per k-point) -----
average nbasis = 29766.104 , ideal nbasis = 29766.845

---------- Setting up coulomb interaction ----------
Initialized slab truncation along lattice direction 001

---------- Setting up 2D ewald sum ----------
Optimum gaussian width for ewald sums = 7.873530 bohr.
Real space sums over 289 unit cells with max indices [  8  8  0  ]
Reciprocal space sums over 81 terms with max indices [  4  4  0  ]

---------- Allocating electronic variables ----------
Initializing wave functions:  linear combination of atomic orbitals
Note: number of bands (6) exceeds available atomic orbitals (5)
Rb pseudo-atom occupations:   s ( 2 1 )  p ( 6 )
[d-6-7-4:76736] 18 more processes have sent help message help-mpi-common-cuda.txt / dlopen failed
[d-6-7-4:76736] Set MCA parameter "orte_base_help_aggregate" to 0 to see all help / error messages
[d-6-7-4:76736] 18 more processes have sent help message help-mpi-btl-openib-cpc-base.txt / no cpcs for port
	FillingsUpdate:  mu: -0.084745751  nElectrons: 9.000000  magneticMoment: [ Abs: 0.88000  Tot: -0.88000 ]
LCAOMinimize: Iter:   0  F: -24.4344267867071920  |grad|_K:  5.591e-06  alpha:  1.000e+00
	FillingsUpdate:  mu: -0.084745250  nElectrons: 9.000000  magneticMoment: [ Abs: 0.88000  Tot: -0.88000 ]
LCAOMinimize: Iter:   1  F: -24.4344268080014828  |grad|_K:  3.680e-08  alpha:  9.958e-01  linmin: -3.350e-03  cgtest:  6.382e-02  t[s]:      8.57
LCAOMinimize: Encountered beta<0, resetting CG.
	FillingsUpdate:  mu: -0.084745261  nElectrons: 9.000000  magneticMoment: [ Abs: 0.88000  Tot: -0.88000 ]
LCAOMinimize: Iter:   2  F: -24.4344268080024278  |grad|_K:  8.808e-09  alpha:  1.231e+00  linmin:  1.533e-01  cgtest: -9.994e-01  t[s]:     10.91
LCAOMinimize: Converged (|Delta F|<1.000000e-06 for 2 iters).


---- Citations for features of the code used in this run ----

   Software package:
      R. Sundararaman, K. Letchworth-Weaver, K.A. Schwarz, D. Gunceler, Y. Ozhabes and T.A. Arias, 'JDFTx: software for joint density-functional theory', SoftwareX 6, 278 (2017)

   gga-PBE exchange-correlation functional:
      J.P. Perdew, K. Burke and M. Ernzerhof, Phys. Rev. Lett. 77, 3865 (1996)

   Pseudopotentials:
      M Schlipf and F Gygi, Comput. Phys. Commun. 196, 36 (2015)

   Truncated Coulomb potentials:
      R. Sundararaman and T.A. Arias, Phys. Rev. B 87, 165122 (2013)

This list may not be complete. Please suggest additional citations or
report any other bugs at https://github.com/shankar1729/jdftx/issues

Initialization completed successfully at t[s]:     11.07


-------- Electronic minimization -----------
Will mix electronic density at each iteration.
	FillingsUpdate:  mu: -0.084745261  nElectrons: 9.000000  magneticMoment: [ Abs: 0.88000  Tot: -0.88000 ]
	FillingsUpdate:  mu: -0.085538881  nElectrons: 9.000000  magneticMoment: [ Abs: 0.88000  Tot: -0.88000 ]
SCF: Cycle:  0   F: -24.435716480045190   dF: -1.290e-03   |Residual|: 3.623e-03   |deigs|: 1.731e-01  t[s]:     15.72
	FillingsUpdate:  mu: -0.085905429  nElectrons: 9.000000  magneticMoment: [ Abs: 0.88224  Tot: -0.88000 ]
SCF: Cycle:  1   F: -24.435773419147047   dF: -5.694e-05   |Residual|: 2.507e-03   |deigs|: 4.739e-03  t[s]:     19.35
	FillingsUpdate:  mu: -0.086473363  nElectrons: 9.000000  magneticMoment: [ Abs: 0.88412  Tot: -0.88000 ]
SCF: Cycle:  2   F: -24.435807124027768   dF: -3.370e-05   |Residual|: 1.963e-03   |deigs|: 2.574e-03  t[s]:     23.03
	FillingsUpdate:  mu: -0.086708809  nElectrons: 9.000000  magneticMoment: [ Abs: 0.88528  Tot: -0.88000 ]
SCF: Cycle:  3   F: -24.435838886466847   dF: -3.176e-05   |Residual|: 1.491e-03   |deigs|: 2.887e-03  t[s]:     26.79
	FillingsUpdate:  mu: -0.086868103  nElectrons: 9.000000  magneticMoment: [ Abs: 0.88364  Tot: -0.88000 ]
SCF: Cycle:  4   F: -24.435867000156755   dF: -2.811e-05   |Residual|: 9.314e-04   |deigs|: 1.664e-03  t[s]:     30.58
	FillingsUpdate:  mu: -0.086563616  nElectrons: 9.000000  magneticMoment: [ Abs: 0.88427  Tot: -0.88000 ]
SCF: Cycle:  5   F: -24.435879006310227   dF: -1.201e-05   |Residual|: 5.118e-04   |deigs|: 1.317e-03  t[s]:     34.49
	FillingsUpdate:  mu: -0.086374805  nElectrons: 9.000000  magneticMoment: [ Abs: 0.88385  Tot: -0.88000 ]
SCF: Cycle:  6   F: -24.435883216772492   dF: -4.210e-06   |Residual|: 3.707e-04   |deigs|: 9.110e-04  t[s]:     38.44
	FillingsUpdate:  mu: -0.086211061  nElectrons: 9.000000  magneticMoment: [ Abs: 0.88418  Tot: -0.88000 ]
SCF: Cycle:  7   F: -24.435885723677135   dF: -2.507e-06   |Residual|: 2.838e-04   |deigs|: 2.758e-04  t[s]:     42.45
	FillingsUpdate:  mu: -0.085753499  nElectrons: 9.000000  magneticMoment: [ Abs: 0.88473  Tot: -0.88000 ]
SCF: Cycle:  8   F: -24.435885700867356   dF: +2.281e-08   |Residual|: 2.363e-04   |deigs|: 4.342e-04  t[s]:     46.52
	FillingsUpdate:  mu: -0.085449658  nElectrons: 9.000000  magneticMoment: [ Abs: 0.88483  Tot: -0.88000 ]
SCF: Cycle:  9   F: -24.435884478692849   dF: +1.222e-06   |Residual|: 2.216e-04   |deigs|: 3.955e-04  t[s]:     50.63
	FillingsUpdate:  mu: -0.085282758  nElectrons: 9.000000  magneticMoment: [ Abs: 0.88440  Tot: -0.88000 ]
SCF: Cycle: 10   F: -24.435885786623793   dF: -1.308e-06   |Residual|: 1.795e-04   |deigs|: 2.502e-04  t[s]:     54.84
	FillingsUpdate:  mu: -0.085246568  nElectrons: 9.000000  magneticMoment: [ Abs: 0.88523  Tot: -0.88000 ]
SCF: Cycle: 11   F: -24.435886827240868   dF: -1.041e-06   |Residual|: 1.377e-04   |deigs|: 3.017e-04  t[s]:     58.99
	FillingsUpdate:  mu: -0.085160762  nElectrons: 9.000000  magneticMoment: [ Abs: 0.88508  Tot: -0.88000 ]
SCF: Cycle: 12   F: -24.435887954165082   dF: -1.127e-06   |Residual|: 1.249e-04   |deigs|: 1.685e-04  t[s]:     63.17
	FillingsUpdate:  mu: -0.084898357  nElectrons: 9.000000  magneticMoment: [ Abs: 0.88527  Tot: -0.88000 ]
SCF: Cycle: 13   F: -24.435888054718461   dF: -1.006e-07   |Residual|: 1.248e-04   |deigs|: 3.022e-04  t[s]:     67.32
	FillingsUpdate:  mu: -0.084621808  nElectrons: 9.000000  magneticMoment: [ Abs: 0.88520  Tot: -0.88000 ]
SCF: Cycle: 14   F: -24.435887820269215   dF: +2.344e-07   |Residual|: 1.156e-04   |deigs|: 3.144e-04  t[s]:     71.56
	FillingsUpdate:  mu: -0.084465192  nElectrons: 9.000000  magneticMoment: [ Abs: 0.88494  Tot: -0.88000 ]
SCF: Cycle: 15   F: -24.435888263601303   dF: -4.433e-07   |Residual|: 1.009e-04   |deigs|: 2.201e-04  t[s]:     75.77
	FillingsUpdate:  mu: -0.084318385  nElectrons: 9.000000  magneticMoment: [ Abs: 0.88431  Tot: -0.88000 ]
SCF: Cycle: 16   F: -24.435888799128051   dF: -5.355e-07   |Residual|: 7.988e-05   |deigs|: 2.524e-04  t[s]:     79.93
	FillingsUpdate:  mu: -0.084227478  nElectrons: 9.000000  magneticMoment: [ Abs: 0.88404  Tot: -0.88000 ]
SCF: Cycle: 17   F: -24.435889064352356   dF: -2.652e-07   |Residual|: 6.220e-05   |deigs|: 1.265e-04  t[s]:     84.19
	FillingsUpdate:  mu: -0.084213300  nElectrons: 9.000000  magneticMoment: [ Abs: 0.88406  Tot: -0.88000 ]
SCF: Cycle: 18   F: -24.435889149211192   dF: -8.486e-08   |Residual|: 4.048e-05   |deigs|: 3.915e-05  t[s]:     88.34
	FillingsUpdate:  mu: -0.084178061  nElectrons: 9.000000  magneticMoment: [ Abs: 0.88406  Tot: -0.88000 ]
SCF: Cycle: 19   F: -24.435889372856110   dF: -2.236e-07   |Residual|: 2.641e-05   |deigs|: 4.059e-05  t[s]:     92.56
	FillingsUpdate:  mu: -0.084180601  nElectrons: 9.000000  magneticMoment: [ Abs: 0.88404  Tot: -0.88000 ]
SCF: Cycle: 20   F: -24.435889457996808   dF: -8.514e-08   |Residual|: 1.944e-05   |deigs|: 3.452e-05  t[s]:     96.56
	FillingsUpdate:  mu: -0.084193404  nElectrons: 9.000000  magneticMoment: [ Abs: 0.88405  Tot: -0.88000 ]
SCF: Cycle: 21   F: -24.435889510268325   dF: -5.227e-08   |Residual|: 1.041e-05   |deigs|: 3.750e-05  t[s]:    100.68
	FillingsUpdate:  mu: -0.084188468  nElectrons: 9.000000  magneticMoment: [ Abs: 0.88406  Tot: -0.88000 ]
SCF: Cycle: 22   F: -24.435889522583835   dF: -1.232e-08   |Residual|: 7.651e-06   |deigs|: 3.700e-05  t[s]:    104.86
	FillingsUpdate:  mu: -0.084191732  nElectrons: 9.000000  magneticMoment: [ Abs: 0.88408  Tot: -0.88000 ]
SCF: Cycle: 23   F: -24.435889532389439   dF: -9.806e-09   |Residual|: 5.876e-06   |deigs|: 4.225e-05  t[s]:    109.04
	FillingsUpdate:  mu: -0.084195046  nElectrons: 9.000000  magneticMoment: [ Abs: 0.88411  Tot: -0.88000 ]
SCF: Cycle: 24   F: -24.435889536262401   dF: -3.873e-09   |Residual|: 4.686e-06   |deigs|: 4.036e-05  t[s]:    113.27
SCF: Converged (|Delta E|<1.000000e-08 for 2 iters).


# Ionic positions in lattice coordinates:
ion Rb   0.000000000000000   0.000000000000000   0.000000000000000 0

# Forces in Lattice coordinates:
force Rb   0.000000000000000   0.000000000000000   0.000000000000000 0

# Energy components:
   Eewald =      -12.0320174002217755
       EH =        7.5276806724346246
     Eloc =      -22.4423398041823496
      Enl =       -0.7953562473332532
   Epulay =       -0.0000000014467880
      Exc =       -3.6530321220465907
       KE =        6.9591761838008317
-------------------------------------
     Etot =      -24.4358887189953009
       TS =        0.0000008172671015
-------------------------------------
        F =      -24.4358895362624011

IonicMinimize: Iter:   0  F: -24.435889536262401  |grad|_K:  0.000e+00  t[s]:    113.55
IonicMinimize: Converged (|grad|_K<1.000000e-04).

#--- Lowdin population analysis ---
# oxidation-state Rb +0.031
# magnetic-moments Rb -0.850

End date and time: Sun Feb  6 12:37:50 2022  (Duration: 0-0:01:53.59)
Done!
scale=4
magnetization=-0.88
--------------------------------------------------------------------------
The library attempted to open the following supporting CUDA libraries,
but each of them failed.  CUDA-aware support is disabled.
libcuda.so.1: cannot open shared object file: No such file or directory
libcuda.dylib: cannot open shared object file: No such file or directory
/usr/lib64/libcuda.so.1: cannot open shared object file: No such file or directory
/usr/lib64/libcuda.dylib: cannot open shared object file: No such file or directory
If you are not interested in CUDA-aware support, then run with
--mca opal_warn_on_missing_libcuda 0 to suppress this message.  If you are interested
in CUDA-aware support, then try setting LD_LIBRARY_PATH to the location
of libcuda.so.1 to get passed this issue.
--------------------------------------------------------------------------
--------------------------------------------------------------------------
No OpenFabrics connection schemes reported that they were able to be
used on a specific port.  As such, the openib BTL (OpenFabrics
support) will be disabled for this port.

  Local host:           d-6-7-4
  Local device:         mlx5_1
  Local port:           1
  CPCs attempted:       rdmacm, udcm
--------------------------------------------------------------------------

*************** JDFTx 1.6.0 (git hash 42ebbcc2) ***************

Start date and time: Sun Feb  6 12:37:51 2022
Executable jdftx with command-line: -i Alkali.in
Running on hosts (process indices):  d-6-7-4 (0-18)
Divided in process groups (process indices):  0 (0)  1 (1)  2 (2)  3 (3)  4 (4)  5 (5)  6 (6)  7 (7)  8 (8)  9 (9)  10 (10)  11 (11)  12 (12)  13 (13)  14 (14)  15 (15)  16 (16)  17 (17)  18 (18)
Resource initialization completed at t[s]:      0.00
Run totals: 19 processes, 48 threads, 0 GPUs


Input parsed successfully to the following command list (including defaults):

basis kpoint-dependent
coords-type Lattice
core-overlap-check vector
coulomb-interaction Slab 001
davidson-band-ratio 1.1
dump End None
dump-name $INPUT.$VAR
elec-cutoff 20
elec-eigen-algo Davidson
elec-ex-corr gga-PBE
elec-initial-magnetization -0.880000 yes
elec-smearing Fermi 1e-05
electronic-minimize  \
	dirUpdateScheme      FletcherReeves \
	linminMethod         DirUpdateRecommended \
	nIterations          100 \
	history              15 \
	knormThreshold       0 \
	energyDiffThreshold  1e-08 \
	nEnergyDiff          2 \
	alphaTstart          1 \
	alphaTmin            1e-10 \
	updateTestStepSize   yes \
	alphaTreduceFactor   0.1 \
	alphaTincreaseFactor 3 \
	nAlphaAdjustMax      3 \
	wolfeEnergy          0.0001 \
	wolfeGradient        0.9 \
	fdTest               no
electronic-scf  \
	nIterations	10000 \
	energyDiffThreshold	1e-08 \
	residualThreshold	1e-07 \
	mixFraction	0.5 \
	qMetric	0.8 \
	history	10 \
	nEigSteps	2 \
	eigDiffThreshold	1e-08 \
	mixedVariable	Density \
	qKerker	0.8 \
	qKappa	-1 \
	verbose	no \
	mixFractionMag	1.5
exchange-regularization WignerSeitzTruncated
fluid None
fluid-ex-corr (null) lda-PZ
fluid-gummel-loop 10 1.000000e-05
fluid-minimize  \
	dirUpdateScheme      PolakRibiere \
	linminMethod         DirUpdateRecommended \
	nIterations          100 \
	history              15 \
	knormThreshold       0 \
	energyDiffThreshold  0 \
	nEnergyDiff          2 \
	alphaTstart          1 \
	alphaTmin            1e-10 \
	updateTestStepSize   yes \
	alphaTreduceFactor   0.1 \
	alphaTincreaseFactor 3 \
	nAlphaAdjustMax      3 \
	wolfeEnergy          0.0001 \
	wolfeGradient        0.9 \
	fdTest               no
fluid-solvent H2O 55.338 ScalarEOS \
	epsBulk 78.4 \
	pMol 0.92466 \
	epsInf 1.77 \
	Pvap 1.06736e-10 \
	sigmaBulk 4.62e-05 \
	Rvdw 2.61727 \
	Res 1.42 \
	tauNuc 343133 \
	poleEl 15 7 1
forces-output-coords Positions
ion Rb   0.000000000000000   0.000000000000000   0.000000000000000 0
ion-species SG15/$ID_ONCV_PBE.upf
ion-width 0
ionic-minimize  \
	dirUpdateScheme      L-BFGS \
	linminMethod         DirUpdateRecommended \
	nIterations          0 \
	history              15 \
	knormThreshold       0.0001 \
	energyDiffThreshold  1e-06 \
	nEnergyDiff          2 \
	alphaTstart          1 \
	alphaTmin            1e-10 \
	updateTestStepSize   yes \
	alphaTreduceFactor   0.1 \
	alphaTincreaseFactor 3 \
	nAlphaAdjustMax      3 \
	wolfeEnergy          0.0001 \
	wolfeGradient        0.9 \
	fdTest               no
kpoint   0.000000000000   0.000000000000   0.000000000000  1.00000000000000
kpoint-folding 12 12 1 
latt-move-scale 1 1 1
latt-scale 4 4 1 
lattice  \
	   4.727486978767153   -2.363743489383575    0.000000000000000  \
	  -0.000000000000000    4.094123819672498    0.000000000000000  \
	   0.000000000000000    0.000000000000000   40.000000000000000 
lattice-minimize  \
	dirUpdateScheme      L-BFGS \
	linminMethod         DirUpdateRecommended \
	nIterations          0 \
	history              15 \
	knormThreshold       0 \
	energyDiffThreshold  1e-06 \
	nEnergyDiff          2 \
	alphaTstart          1 \
	alphaTmin            1e-10 \
	updateTestStepSize   yes \
	alphaTreduceFactor   0.1 \
	alphaTincreaseFactor 3 \
	nAlphaAdjustMax      3 \
	wolfeEnergy          0.0001 \
	wolfeGradient        0.9 \
	fdTest               no
lcao-params -1 1e-06 1e-05
pcm-variant GLSSA13
spintype z-spin
subspace-rotation-factor 1 yes
symmetries automatic
symmetry-threshold 0.0001



---------- Setting up symmetries ----------

Found 24 point-group symmetries of the bravais lattice
Found 24 space-group symmetries with basis
Applied RMS atom displacement 0 bohrs to make symmetries exact.

---------- Initializing the Grid ----------
R = 
[      18.9099     -9.45497            0  ]
[            0      16.3765            0  ]
[            0            0           40  ]
unit cell volume = 12387.1
G =
[   0.332269   0.191835         -0  ]
[          0   0.383671         -0  ]
[         -0         -0    0.15708  ]
Minimum fftbox size, Smin = [  80  80  164  ]
Chosen fftbox size, S = [  80  80  168  ]

---------- Exchange Correlation functional ----------
Initalized PBE GGA exchange.
Initalized PBE GGA correlation.

---------- Setting up pseudopotentials ----------
Width of ionic core gaussian charges (only for fluid interactions / plotting) set to 0

Reading pseudopotential file '/home/gridsan/aligho/DFT/build-Nov24/pseudopotentials/SG15/Rb_ONCV_PBE.upf':
  'Rb' pseudopotential, 'PBE' functional
  Generated using ONCVPSP code by D. R. Hamann
  Author: Martin Schlipf and Francois Gygi  Date: 150915.
  9 valence electrons, 3 orbitals, 6 projectors, 2308 radial grid points, with lMax = 2
  Transforming local potential to a uniform radial grid of dG=0.02 with 1489 points.
  Transforming nonlocal projectors to a uniform radial grid of dG=0.02 with 432 points.
    4S    l: 0   occupation:  2.0   eigenvalue: -1.172069
    4P    l: 1   occupation:  6.0   eigenvalue: -0.586674
    5S    l: 0   occupation:  1.0   eigenvalue: -0.082006
  Transforming atomic orbitals to a uniform radial grid of dG=0.02 with 432 points.
  Core radius for overlap checks: 2.60 bohrs.
  Reading pulay file /home/gridsan/aligho/DFT/build-Nov24/pseudopotentials/SG15/Rb_ONCV_PBE.pulay ... using dE_dnG = -1.360715e-05 computed for Ecut = 20.

Initialized 1 species with 1 total atoms.

Folded 1 k-points by 12x12x1 to 144 k-points.

---------- Setting up k-points, bands, fillings ----------
Reduced to 19 k-points under symmetry. 
Computing the number of bands and number of electrons
Calculating initial fillings.
nElectrons:   9.000000   nBands: 6   nStates: 38

----- Setting up reduced wavefunction bases (one per k-point) -----
average nbasis = 52924.021 , ideal nbasis = 52918.836

---------- Setting up coulomb interaction ----------
Initialized slab truncation along lattice direction 001

---------- Setting up 2D ewald sum ----------
Optimum gaussian width for ewald sums = 10.498040 bohr.
Real space sums over 289 unit cells with max indices [  8  8  0  ]
Reciprocal space sums over 81 terms with max indices [  4  4  0  ]

---------- Allocating electronic variables ----------
Initializing wave functions:  linear combination of atomic orbitals
Note: number of bands (6) exceeds available atomic orbitals (5)
Rb pseudo-atom occupations:   s ( 2 1 )  p ( 6 )
[d-6-7-4:40362] 18 more processes have sent help message help-mpi-common-cuda.txt / dlopen failed
[d-6-7-4:40362] Set MCA parameter "orte_base_help_aggregate" to 0 to see all help / error messages
[d-6-7-4:40362] 18 more processes have sent help message help-mpi-btl-openib-cpc-base.txt / no cpcs for port
	FillingsUpdate:  mu: -0.081644847  nElectrons: 9.000000  magneticMoment: [ Abs: 0.88000  Tot: -0.88000 ]
LCAOMinimize: Iter:   0  F: -24.4331201401162907  |grad|_K:  1.292e-06  alpha:  1.000e+00
	FillingsUpdate:  mu: -0.081644580  nElectrons: 9.000000  magneticMoment: [ Abs: 0.88000  Tot: -0.88000 ]
LCAOMinimize: Iter:   1  F: -24.4331201412493115  |grad|_K:  7.137e-09  alpha:  9.925e-01  linmin: -1.946e-04  cgtest:  4.172e-03  t[s]:     14.81
LCAOMinimize: 	Step increased F by 1.740830e-13, reducing alpha to 2.055178e-02.
LCAOMinimize: 	Step increased F by 7.460699e-14, reducing alpha to 2.055178e-03.
	FillingsUpdate:  mu: -0.081644580  nElectrons: 9.000000  magneticMoment: [ Abs: 0.88000  Tot: -0.88000 ]
LCAOMinimize: Iter:   2  F: -24.4331201412493755  |grad|_K:  7.122e-09  alpha:  2.055e-03  linmin: -6.821e-02  cgtest:  1.000e+00  t[s]:     23.28
LCAOMinimize: Encountered beta<0, resetting CG.
LCAOMinimize: Converged (|Delta F|<1.000000e-06 for 2 iters).


---- Citations for features of the code used in this run ----

   Software package:
      R. Sundararaman, K. Letchworth-Weaver, K.A. Schwarz, D. Gunceler, Y. Ozhabes and T.A. Arias, 'JDFTx: software for joint density-functional theory', SoftwareX 6, 278 (2017)

   gga-PBE exchange-correlation functional:
      J.P. Perdew, K. Burke and M. Ernzerhof, Phys. Rev. Lett. 77, 3865 (1996)

   Pseudopotentials:
      M Schlipf and F Gygi, Comput. Phys. Commun. 196, 36 (2015)

   Truncated Coulomb potentials:
      R. Sundararaman and T.A. Arias, Phys. Rev. B 87, 165122 (2013)

This list may not be complete. Please suggest additional citations or
report any other bugs at https://github.com/shankar1729/jdftx/issues

Initialization completed successfully at t[s]:     23.53


-------- Electronic minimization -----------
Will mix electronic density at each iteration.
	FillingsUpdate:  mu: -0.081644580  nElectrons: 9.000000  magneticMoment: [ Abs: 0.88000  Tot: -0.88000 ]
	FillingsUpdate:  mu: -0.081783029  nElectrons: 9.000000  magneticMoment: [ Abs: 0.88000  Tot: -0.88000 ]
SCF: Cycle:  0   F: -24.433251297414838   dF: -1.312e-04   |Residual|: 2.048e-03   |deigs|: 1.660e-01  t[s]:     31.46
	FillingsUpdate:  mu: -0.081758134  nElectrons: 9.000000  magneticMoment: [ Abs: 0.88518  Tot: -0.88000 ]
SCF: Cycle:  1   F: -24.433254088071966   dF: -2.791e-06   |Residual|: 5.070e-04   |deigs|: 1.221e-02  t[s]:     37.62
	FillingsUpdate:  mu: -0.081694628  nElectrons: 9.000000  magneticMoment: [ Abs: 0.88504  Tot: -0.88000 ]
SCF: Cycle:  2   F: -24.433254777763956   dF: -6.897e-07   |Residual|: 3.337e-04   |deigs|: 1.889e-03  t[s]:     44.06
	FillingsUpdate:  mu: -0.081629900  nElectrons: 9.000000  magneticMoment: [ Abs: 0.88575  Tot: -0.88000 ]
SCF: Cycle:  3   F: -24.433255134584911   dF: -3.568e-07   |Residual|: 2.621e-04   |deigs|: 1.311e-03  t[s]:     50.56
	FillingsUpdate:  mu: -0.081470752  nElectrons: 9.000000  magneticMoment: [ Abs: 0.88567  Tot: -0.88000 ]
SCF: Cycle:  4   F: -24.433255313019586   dF: -1.784e-07   |Residual|: 1.650e-04   |deigs|: 5.482e-04  t[s]:     57.20
	FillingsUpdate:  mu: -0.081305461  nElectrons: 9.000000  magneticMoment: [ Abs: 0.88558  Tot: -0.88000 ]
SCF: Cycle:  5   F: -24.433255422945312   dF: -1.099e-07   |Residual|: 1.124e-04   |deigs|: 4.700e-04  t[s]:     63.96
	FillingsUpdate:  mu: -0.081265136  nElectrons: 9.000000  magneticMoment: [ Abs: 0.88550  Tot: -0.88000 ]
SCF: Cycle:  6   F: -24.433255584114526   dF: -1.612e-07   |Residual|: 8.551e-05   |deigs|: 4.944e-04  t[s]:     70.79
	FillingsUpdate:  mu: -0.081249692  nElectrons: 9.000000  magneticMoment: [ Abs: 0.88558  Tot: -0.88000 ]
SCF: Cycle:  7   F: -24.433255687399978   dF: -1.033e-07   |Residual|: 6.232e-05   |deigs|: 2.369e-04  t[s]:     77.78
	FillingsUpdate:  mu: -0.081230685  nElectrons: 9.000000  magneticMoment: [ Abs: 0.88556  Tot: -0.88000 ]
SCF: Cycle:  8   F: -24.433255726697379   dF: -3.930e-08   |Residual|: 5.336e-05   |deigs|: 1.549e-04  t[s]:     84.82
	FillingsUpdate:  mu: -0.081203587  nElectrons: 9.000000  magneticMoment: [ Abs: 0.88556  Tot: -0.88000 ]
SCF: Cycle:  9   F: -24.433255655144247   dF: +7.155e-08   |Residual|: 4.361e-05   |deigs|: 1.160e-04  t[s]:     91.96
	FillingsUpdate:  mu: -0.081180584  nElectrons: 9.000000  magneticMoment: [ Abs: 0.88560  Tot: -0.88000 ]
SCF: Cycle: 10   F: -24.433255555379731   dF: +9.976e-08   |Residual|: 3.854e-05   |deigs|: 7.845e-05  t[s]:     99.28
	FillingsUpdate:  mu: -0.081135983  nElectrons: 9.000000  magneticMoment: [ Abs: 0.88568  Tot: -0.88000 ]
SCF: Cycle: 11   F: -24.433255274210033   dF: +2.812e-07   |Residual|: 3.418e-05   |deigs|: 6.996e-05  t[s]:    106.53
	FillingsUpdate:  mu: -0.081113125  nElectrons: 9.000000  magneticMoment: [ Abs: 0.88584  Tot: -0.88000 ]
SCF: Cycle: 12   F: -24.433255316408133   dF: -4.220e-08   |Residual|: 2.889e-05   |deigs|: 3.314e-05  t[s]:    113.61
	FillingsUpdate:  mu: -0.081096067  nElectrons: 9.000000  magneticMoment: [ Abs: 0.88576  Tot: -0.88000 ]
SCF: Cycle: 13   F: -24.433255368318374   dF: -5.191e-08   |Residual|: 2.557e-05   |deigs|: 3.832e-05  t[s]:    120.89
	FillingsUpdate:  mu: -0.081045508  nElectrons: 9.000000  magneticMoment: [ Abs: 0.88574  Tot: -0.88000 ]
SCF: Cycle: 14   F: -24.433255600844493   dF: -2.325e-07   |Residual|: 2.450e-05   |deigs|: 5.723e-05  t[s]:    128.10
	FillingsUpdate:  mu: -0.081013501  nElectrons: 9.000000  magneticMoment: [ Abs: 0.88569  Tot: -0.88000 ]
SCF: Cycle: 15   F: -24.433255574577036   dF: +2.627e-08   |Residual|: 2.394e-05   |deigs|: 4.829e-05  t[s]:    135.18
	FillingsUpdate:  mu: -0.080994555  nElectrons: 9.000000  magneticMoment: [ Abs: 0.88557  Tot: -0.88000 ]
SCF: Cycle: 16   F: -24.433255593119004   dF: -1.854e-08   |Residual|: 2.198e-05   |deigs|: 4.730e-05  t[s]:    142.42
	FillingsUpdate:  mu: -0.080979673  nElectrons: 9.000000  magneticMoment: [ Abs: 0.88561  Tot: -0.88000 ]
SCF: Cycle: 17   F: -24.433255597431142   dF: -4.312e-09   |Residual|: 1.389e-05   |deigs|: 5.396e-05  t[s]:    149.69
	FillingsUpdate:  mu: -0.080971539  nElectrons: 9.000000  magneticMoment: [ Abs: 0.88558  Tot: -0.88000 ]
SCF: Cycle: 18   F: -24.433255753467808   dF: -1.560e-07   |Residual|: 1.043e-05   |deigs|: 5.145e-05  t[s]:    157.03
	FillingsUpdate:  mu: -0.080967809  nElectrons: 9.000000  magneticMoment: [ Abs: 0.88557  Tot: -0.88000 ]
SCF: Cycle: 19   F: -24.433255813426602   dF: -5.996e-08   |Residual|: 7.640e-06   |deigs|: 4.817e-05  t[s]:    163.90
	FillingsUpdate:  mu: -0.080963072  nElectrons: 9.000000  magneticMoment: [ Abs: 0.88558  Tot: -0.88000 ]
SCF: Cycle: 20   F: -24.433255820285851   dF: -6.859e-09   |Residual|: 5.381e-06   |deigs|: 4.273e-05  t[s]:    170.86
	FillingsUpdate:  mu: -0.080962921  nElectrons: 9.000000  magneticMoment: [ Abs: 0.88556  Tot: -0.88000 ]
SCF: Cycle: 21   F: -24.433255840625606   dF: -2.034e-08   |Residual|: 3.918e-06   |deigs|: 3.679e-05  t[s]:    178.05
	FillingsUpdate:  mu: -0.080962282  nElectrons: 9.000000  magneticMoment: [ Abs: 0.88556  Tot: -0.88000 ]
SCF: Cycle: 22   F: -24.433255852038378   dF: -1.141e-08   |Residual|: 2.919e-06   |deigs|: 2.866e-05  t[s]:    184.89
	FillingsUpdate:  mu: -0.080961182  nElectrons: 9.000000  magneticMoment: [ Abs: 0.88556  Tot: -0.88000 ]
SCF: Cycle: 23   F: -24.433255850863020   dF: +1.175e-09   |Residual|: 2.176e-06   |deigs|: 2.238e-05  t[s]:    191.81
	FillingsUpdate:  mu: -0.080959926  nElectrons: 9.000000  magneticMoment: [ Abs: 0.88555  Tot: -0.88000 ]
SCF: Cycle: 24   F: -24.433255860869203   dF: -1.001e-08   |Residual|: 1.232e-06   |deigs|: 1.679e-05  t[s]:    198.97
	FillingsUpdate:  mu: -0.080959112  nElectrons: 9.000000  magneticMoment: [ Abs: 0.88555  Tot: -0.88000 ]
SCF: Cycle: 25   F: -24.433255862925215   dF: -2.056e-09   |Residual|: 8.529e-07   |deigs|: 1.294e-05  t[s]:    205.51
	FillingsUpdate:  mu: -0.080959126  nElectrons: 9.000000  magneticMoment: [ Abs: 0.88555  Tot: -0.88000 ]
SCF: Cycle: 26   F: -24.433255863129435   dF: -2.042e-10   |Residual|: 6.078e-07   |deigs|: 1.003e-05  t[s]:    212.20
SCF: Converged (|Delta E|<1.000000e-08 for 2 iters).


# Ionic positions in lattice coordinates:
ion Rb   0.000000000000000   0.000000000000000   0.000000000000000 0

# Forces in Lattice coordinates:
force Rb  -0.000000000000000   0.000000000000000   0.000000000000000 0

# Energy components:
   Eewald =       -9.0240130501663280
       EH =       10.5512550913656771
     Eloc =      -28.4776114026284404
      Enl =       -0.7920540281788722
   Epulay =        0.0000000056959385
      Exc =       -3.6544622072138053
       KE =        6.9636305452638405
-------------------------------------
     Etot =      -24.4332550458619870
       TS =        0.0000008172674500
-------------------------------------
        F =      -24.4332558631294354

IonicMinimize: Iter:   0  F: -24.433255863129435  |grad|_K:  0.000e+00  t[s]:    212.61
IonicMinimize: Converged (|grad|_K<1.000000e-04).

#--- Lowdin population analysis ---
# oxidation-state Rb +0.001
# magnetic-moments Rb -0.879

End date and time: Sun Feb  6 12:41:24 2022  (Duration: 0-0:03:32.67)
Done!
