The alkali metal is Rb
scale=2
magnetization=-0.78
--------------------------------------------------------------------------
The library attempted to open the following supporting CUDA libraries,
but each of them failed.  CUDA-aware support is disabled.
libcuda.so.1: cannot open shared object file: No such file or directory
libcuda.dylib: cannot open shared object file: No such file or directory
/usr/lib64/libcuda.so.1: cannot open shared object file: No such file or directory
/usr/lib64/libcuda.dylib: cannot open shared object file: No such file or directory
If you are not interested in CUDA-aware support, then run with
--mca opal_warn_on_missing_libcuda 0 to suppress this message.  If you are interested
in CUDA-aware support, then try setting LD_LIBRARY_PATH to the location
of libcuda.so.1 to get passed this issue.
--------------------------------------------------------------------------
--------------------------------------------------------------------------
No OpenFabrics connection schemes reported that they were able to be
used on a specific port.  As such, the openib BTL (OpenFabrics
support) will be disabled for this port.

  Local host:           d-16-6-2
  Local device:         mlx5_1
  Local port:           1
  CPCs attempted:       rdmacm, udcm
--------------------------------------------------------------------------

*************** JDFTx 1.6.0 (git hash 42ebbcc2) ***************

Start date and time: Sun Feb  6 12:34:51 2022
Executable jdftx with command-line: -i Alkali.in
Running on hosts (process indices):  d-16-6-2 (0-18)
Divided in process groups (process indices):  0 (0)  1 (1)  2 (2)  3 (3)  4 (4)  5 (5)  6 (6)  7 (7)  8 (8)  9 (9)  10 (10)  11 (11)  12 (12)  13 (13)  14 (14)  15 (15)  16 (16)  17 (17)  18 (18)
Resource initialization completed at t[s]:      0.00
Run totals: 19 processes, 48 threads, 0 GPUs


Input parsed successfully to the following command list (including defaults):

basis kpoint-dependent
coords-type Lattice
core-overlap-check vector
coulomb-interaction Slab 001
davidson-band-ratio 1.1
dump End None
dump-name $INPUT.$VAR
elec-cutoff 20
elec-eigen-algo Davidson
elec-ex-corr gga-PBE
elec-initial-magnetization -0.780000 yes
elec-smearing Fermi 1e-05
electronic-minimize  \
	dirUpdateScheme      FletcherReeves \
	linminMethod         DirUpdateRecommended \
	nIterations          100 \
	history              15 \
	knormThreshold       0 \
	energyDiffThreshold  1e-08 \
	nEnergyDiff          2 \
	alphaTstart          1 \
	alphaTmin            1e-10 \
	updateTestStepSize   yes \
	alphaTreduceFactor   0.1 \
	alphaTincreaseFactor 3 \
	nAlphaAdjustMax      3 \
	wolfeEnergy          0.0001 \
	wolfeGradient        0.9 \
	fdTest               no
electronic-scf  \
	nIterations	10000 \
	energyDiffThreshold	1e-08 \
	residualThreshold	1e-07 \
	mixFraction	0.5 \
	qMetric	0.8 \
	history	10 \
	nEigSteps	2 \
	eigDiffThreshold	1e-08 \
	mixedVariable	Density \
	qKerker	0.8 \
	qKappa	-1 \
	verbose	no \
	mixFractionMag	1.5
exchange-regularization WignerSeitzTruncated
fluid None
fluid-ex-corr (null) lda-PZ
fluid-gummel-loop 10 1.000000e-05
fluid-minimize  \
	dirUpdateScheme      PolakRibiere \
	linminMethod         DirUpdateRecommended \
	nIterations          100 \
	history              15 \
	knormThreshold       0 \
	energyDiffThreshold  0 \
	nEnergyDiff          2 \
	alphaTstart          1 \
	alphaTmin            1e-10 \
	updateTestStepSize   yes \
	alphaTreduceFactor   0.1 \
	alphaTincreaseFactor 3 \
	nAlphaAdjustMax      3 \
	wolfeEnergy          0.0001 \
	wolfeGradient        0.9 \
	fdTest               no
fluid-solvent H2O 55.338 ScalarEOS \
	epsBulk 78.4 \
	pMol 0.92466 \
	epsInf 1.77 \
	Pvap 1.06736e-10 \
	sigmaBulk 4.62e-05 \
	Rvdw 2.61727 \
	Res 1.42 \
	tauNuc 343133 \
	poleEl 15 7 1
forces-output-coords Positions
ion Rb   0.000000000000000   0.000000000000000   0.000000000000000 0
ion-species SG15/$ID_ONCV_PBE.upf
ion-width 0
ionic-minimize  \
	dirUpdateScheme      L-BFGS \
	linminMethod         DirUpdateRecommended \
	nIterations          0 \
	history              15 \
	knormThreshold       0.0001 \
	energyDiffThreshold  1e-06 \
	nEnergyDiff          2 \
	alphaTstart          1 \
	alphaTmin            1e-10 \
	updateTestStepSize   yes \
	alphaTreduceFactor   0.1 \
	alphaTincreaseFactor 3 \
	nAlphaAdjustMax      3 \
	wolfeEnergy          0.0001 \
	wolfeGradient        0.9 \
	fdTest               no
kpoint   0.000000000000   0.000000000000   0.000000000000  1.00000000000000
kpoint-folding 12 12 1 
latt-move-scale 1 1 1
latt-scale 2 2 1 
lattice  \
	   4.727486978767153   -2.363743489383575    0.000000000000000  \
	  -0.000000000000000    4.094123819672498    0.000000000000000  \
	   0.000000000000000    0.000000000000000   40.000000000000000 
lattice-minimize  \
	dirUpdateScheme      L-BFGS \
	linminMethod         DirUpdateRecommended \
	nIterations          0 \
	history              15 \
	knormThreshold       0 \
	energyDiffThreshold  1e-06 \
	nEnergyDiff          2 \
	alphaTstart          1 \
	alphaTmin            1e-10 \
	updateTestStepSize   yes \
	alphaTreduceFactor   0.1 \
	alphaTincreaseFactor 3 \
	nAlphaAdjustMax      3 \
	wolfeEnergy          0.0001 \
	wolfeGradient        0.9 \
	fdTest               no
lcao-params -1 1e-06 1e-05
pcm-variant GLSSA13
spintype z-spin
subspace-rotation-factor 1 yes
symmetries automatic
symmetry-threshold 0.0001



---------- Setting up symmetries ----------

Found 24 point-group symmetries of the bravais lattice
Found 24 space-group symmetries with basis
Applied RMS atom displacement 0 bohrs to make symmetries exact.

---------- Initializing the Grid ----------
R = 
[      9.45497     -4.72749            0  ]
[            0      8.18825            0  ]
[            0            0           40  ]
unit cell volume = 3096.79
G =
[   0.664538   0.383671         -0  ]
[          0   0.767342         -0  ]
[         -0         -0    0.15708  ]
Minimum fftbox size, Smin = [  40  40  164  ]
Chosen fftbox size, S = [  40  40  168  ]

---------- Exchange Correlation functional ----------
Initalized PBE GGA exchange.
Initalized PBE GGA correlation.

---------- Setting up pseudopotentials ----------
Width of ionic core gaussian charges (only for fluid interactions / plotting) set to 0

Reading pseudopotential file '/home/gridsan/aligho/DFT/build-Nov24/pseudopotentials/SG15/Rb_ONCV_PBE.upf':
  'Rb' pseudopotential, 'PBE' functional
  Generated using ONCVPSP code by D. R. Hamann
  Author: Martin Schlipf and Francois Gygi  Date: 150915.
  9 valence electrons, 3 orbitals, 6 projectors, 2308 radial grid points, with lMax = 2
  Transforming local potential to a uniform radial grid of dG=0.02 with 1489 points.
  Transforming nonlocal projectors to a uniform radial grid of dG=0.02 with 432 points.
    4S    l: 0   occupation:  2.0   eigenvalue: -1.172069
    4P    l: 1   occupation:  6.0   eigenvalue: -0.586674
    5S    l: 0   occupation:  1.0   eigenvalue: -0.082006
  Transforming atomic orbitals to a uniform radial grid of dG=0.02 with 432 points.
  Core radius for overlap checks: 2.60 bohrs.
  Reading pulay file /home/gridsan/aligho/DFT/build-Nov24/pseudopotentials/SG15/Rb_ONCV_PBE.pulay ... using dE_dnG = -1.360715e-05 computed for Ecut = 20.

Initialized 1 species with 1 total atoms.

Folded 1 k-points by 12x12x1 to 144 k-points.

---------- Setting up k-points, bands, fillings ----------
Reduced to 19 k-points under symmetry. 
Computing the number of bands and number of electrons
Calculating initial fillings.
nElectrons:   9.000000   nBands: 6   nStates: 38

----- Setting up reduced wavefunction bases (one per k-point) -----
average nbasis = 13230.521 , ideal nbasis = 13229.709

---------- Setting up coulomb interaction ----------
Initialized slab truncation along lattice direction 001

---------- Setting up 2D ewald sum ----------
Optimum gaussian width for ewald sums = 5.249020 bohr.
Real space sums over 289 unit cells with max indices [  8  8  0  ]
Reciprocal space sums over 81 terms with max indices [  4  4  0  ]

---------- Allocating electronic variables ----------
Initializing wave functions:  linear combination of atomic orbitals
Note: number of bands (6) exceeds available atomic orbitals (5)
Rb pseudo-atom occupations:   s ( 2 1 )  p ( 6 )
	FillingsUpdate:  mu: -0.092692320  nElectrons: 9.000000  magneticMoment: [ Abs: 0.78000  Tot: -0.78000 ]
LCAOMinimize: Iter:   0  F: -24.4366793715912287  |grad|_K:  1.707e-05  alpha:  1.000e+00
	FillingsUpdate:  mu: -0.092686980  nElectrons: 9.000000  magneticMoment: [ Abs: 0.78000  Tot: -0.78000 ]
LCAOMinimize: Iter:   1  F: -24.4366795669030772  |grad|_K:  1.642e-07  alpha:  9.803e-01  linmin: -1.679e-02  cgtest:  2.370e-01  t[s]:      4.53
LCAOMinimize: Encountered beta<0, resetting CG.
[d-16-6-2:94631] 18 more processes have sent help message help-mpi-common-cuda.txt / dlopen failed
[d-16-6-2:94631] Set MCA parameter "orte_base_help_aggregate" to 0 to see all help / error messages
[d-16-6-2:94631] 18 more processes have sent help message help-mpi-btl-openib-cpc-base.txt / no cpcs for port
	FillingsUpdate:  mu: -0.092687033  nElectrons: 9.000000  magneticMoment: [ Abs: 0.78000  Tot: -0.78000 ]
LCAOMinimize: Iter:   2  F: -24.4366795669211818  |grad|_K:  1.170e-09  alpha:  9.954e-01  linmin: -9.246e-02  cgtest:  6.806e-01  t[s]:      5.71
LCAOMinimize: Encountered beta<0, resetting CG.
LCAOMinimize: Converged (|Delta F|<1.000000e-06 for 2 iters).


---- Citations for features of the code used in this run ----

   Software package:
      R. Sundararaman, K. Letchworth-Weaver, K.A. Schwarz, D. Gunceler, Y. Ozhabes and T.A. Arias, 'JDFTx: software for joint density-functional theory', SoftwareX 6, 278 (2017)

   gga-PBE exchange-correlation functional:
      J.P. Perdew, K. Burke and M. Ernzerhof, Phys. Rev. Lett. 77, 3865 (1996)

   Pseudopotentials:
      M Schlipf and F Gygi, Comput. Phys. Commun. 196, 36 (2015)

   Truncated Coulomb potentials:
      R. Sundararaman and T.A. Arias, Phys. Rev. B 87, 165122 (2013)

This list may not be complete. Please suggest additional citations or
report any other bugs at https://github.com/shankar1729/jdftx/issues

Initialization completed successfully at t[s]:      5.80


-------- Electronic minimization -----------
Will mix electronic density at each iteration.
	FillingsUpdate:  mu: -0.092687033  nElectrons: 9.000000  magneticMoment: [ Abs: 0.78000  Tot: -0.78000 ]
	FillingsUpdate:  mu: -0.103530458  nElectrons: 9.000000  magneticMoment: [ Abs: 0.78000  Tot: -0.78000 ]
SCF: Cycle:  0   F: -24.445876730934977   dF: -9.197e-03   |Residual|: 1.502e-02   |deigs|: 1.773e-01  t[s]:      8.13
	FillingsUpdate:  mu: -0.108131014  nElectrons: 9.000000  magneticMoment: [ Abs: 0.78000  Tot: -0.78000 ]
SCF: Cycle:  1   F: -24.446372651504511   dF: -4.959e-04   |Residual|: 9.822e-03   |deigs|: 8.717e-03  t[s]:      9.90
	FillingsUpdate:  mu: -0.107090142  nElectrons: 9.000000  magneticMoment: [ Abs: 0.78176  Tot: -0.78000 ]
SCF: Cycle:  2   F: -24.446636531591533   dF: -2.639e-04   |Residual|: 5.891e-03   |deigs|: 3.109e-03  t[s]:     11.70
	FillingsUpdate:  mu: -0.103889429  nElectrons: 9.000000  magneticMoment: [ Abs: 0.78037  Tot: -0.78000 ]
SCF: Cycle:  3   F: -24.446740888469961   dF: -1.044e-04   |Residual|: 3.354e-03   |deigs|: 2.036e-03  t[s]:     13.51
	FillingsUpdate:  mu: -0.102048475  nElectrons: 9.000000  magneticMoment: [ Abs: 0.78034  Tot: -0.78000 ]
SCF: Cycle:  4   F: -24.446795949686020   dF: -5.506e-05   |Residual|: 2.125e-03   |deigs|: 2.253e-03  t[s]:     15.34
	FillingsUpdate:  mu: -0.100848393  nElectrons: 9.000000  magneticMoment: [ Abs: 0.78009  Tot: -0.78000 ]
SCF: Cycle:  5   F: -24.446821392828927   dF: -2.544e-05   |Residual|: 1.586e-03   |deigs|: 3.061e-03  t[s]:     17.22
	FillingsUpdate:  mu: -0.097779952  nElectrons: 9.000000  magneticMoment: [ Abs: 0.78123  Tot: -0.78000 ]
SCF: Cycle:  6   F: -24.446825074012523   dF: -3.681e-06   |Residual|: 1.219e-03   |deigs|: 3.925e-03  t[s]:     19.11
	FillingsUpdate:  mu: -0.095866318  nElectrons: 9.000000  magneticMoment: [ Abs: 0.78247  Tot: -0.78000 ]
SCF: Cycle:  7   F: -24.446830849243803   dF: -5.775e-06   |Residual|: 1.041e-03   |deigs|: 2.199e-03  t[s]:     21.06
	FillingsUpdate:  mu: -0.095273637  nElectrons: 9.000000  magneticMoment: [ Abs: 0.78049  Tot: -0.78000 ]
SCF: Cycle:  8   F: -24.446851617146518   dF: -2.077e-05   |Residual|: 8.518e-04   |deigs|: 9.019e-04  t[s]:     23.01
	FillingsUpdate:  mu: -0.095557834  nElectrons: 9.000000  magneticMoment: [ Abs: 0.78065  Tot: -0.78000 ]
SCF: Cycle:  9   F: -24.446862257557225   dF: -1.064e-05   |Residual|: 6.312e-04   |deigs|: 4.473e-04  t[s]:     24.99
	FillingsUpdate:  mu: -0.094184659  nElectrons: 9.000000  magneticMoment: [ Abs: 0.78225  Tot: -0.78000 ]
SCF: Cycle: 10   F: -24.446859009204211   dF: +3.248e-06   |Residual|: 5.507e-04   |deigs|: 1.634e-03  t[s]:     26.98
	FillingsUpdate:  mu: -0.093301474  nElectrons: 9.000000  magneticMoment: [ Abs: 0.78244  Tot: -0.78000 ]
SCF: Cycle: 11   F: -24.446863927591906   dF: -4.918e-06   |Residual|: 5.023e-04   |deigs|: 1.039e-03  t[s]:     28.98
	FillingsUpdate:  mu: -0.092782053  nElectrons: 9.000000  magneticMoment: [ Abs: 0.78318  Tot: -0.78000 ]
SCF: Cycle: 12   F: -24.446869090180591   dF: -5.163e-06   |Residual|: 4.497e-04   |deigs|: 7.386e-04  t[s]:     31.02
	FillingsUpdate:  mu: -0.091701902  nElectrons: 9.000000  magneticMoment: [ Abs: 0.78366  Tot: -0.78000 ]
SCF: Cycle: 13   F: -24.446871123042346   dF: -2.033e-06   |Residual|: 3.981e-04   |deigs|: 1.212e-03  t[s]:     32.99
	FillingsUpdate:  mu: -0.090090718  nElectrons: 9.000000  magneticMoment: [ Abs: 0.78207  Tot: -0.78000 ]
SCF: Cycle: 14   F: -24.446875166367587   dF: -4.043e-06   |Residual|: 3.778e-04   |deigs|: 1.837e-03  t[s]:     34.93
	FillingsUpdate:  mu: -0.089778810  nElectrons: 9.000000  magneticMoment: [ Abs: 0.78140  Tot: -0.78000 ]
SCF: Cycle: 15   F: -24.446877773617789   dF: -2.607e-06   |Residual|: 3.172e-04   |deigs|: 4.757e-04  t[s]:     36.90
	FillingsUpdate:  mu: -0.089260555  nElectrons: 9.000000  magneticMoment: [ Abs: 0.78077  Tot: -0.78000 ]
SCF: Cycle: 16   F: -24.446880323023684   dF: -2.549e-06   |Residual|: 2.036e-04   |deigs|: 7.422e-04  t[s]:     38.83
	FillingsUpdate:  mu: -0.088874468  nElectrons: 9.000000  magneticMoment: [ Abs: 0.78030  Tot: -0.78000 ]
SCF: Cycle: 17   F: -24.446881353287264   dF: -1.030e-06   |Residual|: 1.548e-04   |deigs|: 5.925e-04  t[s]:     40.83
	FillingsUpdate:  mu: -0.088894707  nElectrons: 9.000000  magneticMoment: [ Abs: 0.78062  Tot: -0.78000 ]
SCF: Cycle: 18   F: -24.446882018277130   dF: -6.650e-07   |Residual|: 1.008e-04   |deigs|: 1.423e-04  t[s]:     42.85
	FillingsUpdate:  mu: -0.088993540  nElectrons: 9.000000  magneticMoment: [ Abs: 0.78061  Tot: -0.78000 ]
SCF: Cycle: 19   F: -24.446882302565392   dF: -2.843e-07   |Residual|: 6.105e-05   |deigs|: 1.051e-04  t[s]:     44.80
	FillingsUpdate:  mu: -0.089037954  nElectrons: 9.000000  magneticMoment: [ Abs: 0.78034  Tot: -0.78000 ]
SCF: Cycle: 20   F: -24.446882483464854   dF: -1.809e-07   |Residual|: 4.368e-05   |deigs|: 9.045e-05  t[s]:     46.76
	FillingsUpdate:  mu: -0.089078753  nElectrons: 9.000000  magneticMoment: [ Abs: 0.78035  Tot: -0.78000 ]
SCF: Cycle: 21   F: -24.446882550181545   dF: -6.672e-08   |Residual|: 3.010e-05   |deigs|: 1.210e-04  t[s]:     48.76
	FillingsUpdate:  mu: -0.089067473  nElectrons: 9.000000  magneticMoment: [ Abs: 0.78037  Tot: -0.78000 ]
SCF: Cycle: 22   F: -24.446882586819200   dF: -3.664e-08   |Residual|: 1.960e-05   |deigs|: 8.517e-05  t[s]:     50.75
	FillingsUpdate:  mu: -0.089069313  nElectrons: 9.000000  magneticMoment: [ Abs: 0.78037  Tot: -0.78000 ]
SCF: Cycle: 23   F: -24.446882599977116   dF: -1.316e-08   |Residual|: 1.622e-05   |deigs|: 8.167e-05  t[s]:     52.71
	FillingsUpdate:  mu: -0.089062828  nElectrons: 9.000000  magneticMoment: [ Abs: 0.78034  Tot: -0.78000 ]
SCF: Cycle: 24   F: -24.446882622015679   dF: -2.204e-08   |Residual|: 1.594e-05   |deigs|: 6.290e-05  t[s]:     54.67
	FillingsUpdate:  mu: -0.089042019  nElectrons: 9.000000  magneticMoment: [ Abs: 0.78024  Tot: -0.78000 ]
SCF: Cycle: 25   F: -24.446882633482744   dF: -1.147e-08   |Residual|: 1.438e-05   |deigs|: 2.948e-04  t[s]:     56.59
	FillingsUpdate:  mu: -0.089027192  nElectrons: 9.000000  magneticMoment: [ Abs: 0.78014  Tot: -0.78000 ]
SCF: Cycle: 26   F: -24.446882637898213   dF: -4.415e-09   |Residual|: 7.889e-06   |deigs|: 6.420e-05  t[s]:     58.62
	FillingsUpdate:  mu: -0.089019987  nElectrons: 9.000000  magneticMoment: [ Abs: 0.78009  Tot: -0.78000 ]
SCF: Cycle: 27   F: -24.446882642019077   dF: -4.121e-09   |Residual|: 4.982e-06   |deigs|: 2.651e-05  t[s]:     60.57
SCF: Converged (|Delta E|<1.000000e-08 for 2 iters).


# Ionic positions in lattice coordinates:
ion Rb   0.000000000000000   0.000000000000000   0.000000000000000 0

# Forces in Lattice coordinates:
force Rb  -0.000000000000000   0.000000000000000   0.000000000000000 0

# Energy components:
   Eewald =      -18.0480261003326561
       EH =        1.6386946482201212
     Eloc =      -10.5499979606882341
      Enl =       -0.7990513229037904
   Epulay =        0.0000000035676145
      Exc =       -3.6809021063245888
       KE =        6.9924007728793622
-------------------------------------
     Etot =      -24.4468820655821730
       TS =        0.0000005764369028
-------------------------------------
        F =      -24.4468826420190766

IonicMinimize: Iter:   0  F: -24.446882642019077  |grad|_K:  0.000e+00  t[s]:     60.69
IonicMinimize: Converged (|grad|_K<1.000000e-04).

#--- Lowdin population analysis ---
# oxidation-state Rb +0.124
# magnetic-moments Rb -0.660

End date and time: Sun Feb  6 12:35:52 2022  (Duration: 0-0:01:00.71)
Done!
scale=3
magnetization=-0.78
--------------------------------------------------------------------------
The library attempted to open the following supporting CUDA libraries,
but each of them failed.  CUDA-aware support is disabled.
libcuda.so.1: cannot open shared object file: No such file or directory
libcuda.dylib: cannot open shared object file: No such file or directory
/usr/lib64/libcuda.so.1: cannot open shared object file: No such file or directory
/usr/lib64/libcuda.dylib: cannot open shared object file: No such file or directory
If you are not interested in CUDA-aware support, then run with
--mca opal_warn_on_missing_libcuda 0 to suppress this message.  If you are interested
in CUDA-aware support, then try setting LD_LIBRARY_PATH to the location
of libcuda.so.1 to get passed this issue.
--------------------------------------------------------------------------
--------------------------------------------------------------------------
No OpenFabrics connection schemes reported that they were able to be
used on a specific port.  As such, the openib BTL (OpenFabrics
support) will be disabled for this port.

  Local host:           d-16-6-2
  Local device:         mlx5_1
  Local port:           1
  CPCs attempted:       rdmacm, udcm
--------------------------------------------------------------------------

*************** JDFTx 1.6.0 (git hash 42ebbcc2) ***************

Start date and time: Sun Feb  6 12:35:53 2022
Executable jdftx with command-line: -i Alkali.in
Running on hosts (process indices):  d-16-6-2 (0-18)
Divided in process groups (process indices):  0 (0)  1 (1)  2 (2)  3 (3)  4 (4)  5 (5)  6 (6)  7 (7)  8 (8)  9 (9)  10 (10)  11 (11)  12 (12)  13 (13)  14 (14)  15 (15)  16 (16)  17 (17)  18 (18)
Resource initialization completed at t[s]:      0.00
Run totals: 19 processes, 48 threads, 0 GPUs


Input parsed successfully to the following command list (including defaults):

basis kpoint-dependent
coords-type Lattice
core-overlap-check vector
coulomb-interaction Slab 001
davidson-band-ratio 1.1
dump End None
dump-name $INPUT.$VAR
elec-cutoff 20
elec-eigen-algo Davidson
elec-ex-corr gga-PBE
elec-initial-magnetization -0.780000 yes
elec-smearing Fermi 1e-05
electronic-minimize  \
	dirUpdateScheme      FletcherReeves \
	linminMethod         DirUpdateRecommended \
	nIterations          100 \
	history              15 \
	knormThreshold       0 \
	energyDiffThreshold  1e-08 \
	nEnergyDiff          2 \
	alphaTstart          1 \
	alphaTmin            1e-10 \
	updateTestStepSize   yes \
	alphaTreduceFactor   0.1 \
	alphaTincreaseFactor 3 \
	nAlphaAdjustMax      3 \
	wolfeEnergy          0.0001 \
	wolfeGradient        0.9 \
	fdTest               no
electronic-scf  \
	nIterations	10000 \
	energyDiffThreshold	1e-08 \
	residualThreshold	1e-07 \
	mixFraction	0.5 \
	qMetric	0.8 \
	history	10 \
	nEigSteps	2 \
	eigDiffThreshold	1e-08 \
	mixedVariable	Density \
	qKerker	0.8 \
	qKappa	-1 \
	verbose	no \
	mixFractionMag	1.5
exchange-regularization WignerSeitzTruncated
fluid None
fluid-ex-corr (null) lda-PZ
fluid-gummel-loop 10 1.000000e-05
fluid-minimize  \
	dirUpdateScheme      PolakRibiere \
	linminMethod         DirUpdateRecommended \
	nIterations          100 \
	history              15 \
	knormThreshold       0 \
	energyDiffThreshold  0 \
	nEnergyDiff          2 \
	alphaTstart          1 \
	alphaTmin            1e-10 \
	updateTestStepSize   yes \
	alphaTreduceFactor   0.1 \
	alphaTincreaseFactor 3 \
	nAlphaAdjustMax      3 \
	wolfeEnergy          0.0001 \
	wolfeGradient        0.9 \
	fdTest               no
fluid-solvent H2O 55.338 ScalarEOS \
	epsBulk 78.4 \
	pMol 0.92466 \
	epsInf 1.77 \
	Pvap 1.06736e-10 \
	sigmaBulk 4.62e-05 \
	Rvdw 2.61727 \
	Res 1.42 \
	tauNuc 343133 \
	poleEl 15 7 1
forces-output-coords Positions
ion Rb   0.000000000000000   0.000000000000000   0.000000000000000 0
ion-species SG15/$ID_ONCV_PBE.upf
ion-width 0
ionic-minimize  \
	dirUpdateScheme      L-BFGS \
	linminMethod         DirUpdateRecommended \
	nIterations          0 \
	history              15 \
	knormThreshold       0.0001 \
	energyDiffThreshold  1e-06 \
	nEnergyDiff          2 \
	alphaTstart          1 \
	alphaTmin            1e-10 \
	updateTestStepSize   yes \
	alphaTreduceFactor   0.1 \
	alphaTincreaseFactor 3 \
	nAlphaAdjustMax      3 \
	wolfeEnergy          0.0001 \
	wolfeGradient        0.9 \
	fdTest               no
kpoint   0.000000000000   0.000000000000   0.000000000000  1.00000000000000
kpoint-folding 12 12 1 
latt-move-scale 1 1 1
latt-scale 3 3 1 
lattice  \
	   4.727486978767153   -2.363743489383575    0.000000000000000  \
	  -0.000000000000000    4.094123819672498    0.000000000000000  \
	   0.000000000000000    0.000000000000000   40.000000000000000 
lattice-minimize  \
	dirUpdateScheme      L-BFGS \
	linminMethod         DirUpdateRecommended \
	nIterations          0 \
	history              15 \
	knormThreshold       0 \
	energyDiffThreshold  1e-06 \
	nEnergyDiff          2 \
	alphaTstart          1 \
	alphaTmin            1e-10 \
	updateTestStepSize   yes \
	alphaTreduceFactor   0.1 \
	alphaTincreaseFactor 3 \
	nAlphaAdjustMax      3 \
	wolfeEnergy          0.0001 \
	wolfeGradient        0.9 \
	fdTest               no
lcao-params -1 1e-06 1e-05
pcm-variant GLSSA13
spintype z-spin
subspace-rotation-factor 1 yes
symmetries automatic
symmetry-threshold 0.0001



---------- Setting up symmetries ----------

Found 24 point-group symmetries of the bravais lattice
Found 24 space-group symmetries with basis
Applied RMS atom displacement 0 bohrs to make symmetries exact.

---------- Initializing the Grid ----------
R = 
[      14.1825     -7.09123            0  ]
[            0      12.2824            0  ]
[            0            0           40  ]
unit cell volume = 6967.77
G =
[   0.443025   0.255781         -0  ]
[          0   0.511561         -0  ]
[         -0         -0    0.15708  ]
Minimum fftbox size, Smin = [  60  60  164  ]
Chosen fftbox size, S = [  60  60  168  ]

---------- Exchange Correlation functional ----------
Initalized PBE GGA exchange.
Initalized PBE GGA correlation.

---------- Setting up pseudopotentials ----------
Width of ionic core gaussian charges (only for fluid interactions / plotting) set to 0

Reading pseudopotential file '/home/gridsan/aligho/DFT/build-Nov24/pseudopotentials/SG15/Rb_ONCV_PBE.upf':
  'Rb' pseudopotential, 'PBE' functional
  Generated using ONCVPSP code by D. R. Hamann
  Author: Martin Schlipf and Francois Gygi  Date: 150915.
  9 valence electrons, 3 orbitals, 6 projectors, 2308 radial grid points, with lMax = 2
  Transforming local potential to a uniform radial grid of dG=0.02 with 1489 points.
  Transforming nonlocal projectors to a uniform radial grid of dG=0.02 with 432 points.
    4S    l: 0   occupation:  2.0   eigenvalue: -1.172069
    4P    l: 1   occupation:  6.0   eigenvalue: -0.586674
    5S    l: 0   occupation:  1.0   eigenvalue: -0.082006
  Transforming atomic orbitals to a uniform radial grid of dG=0.02 with 432 points.
  Core radius for overlap checks: 2.60 bohrs.
  Reading pulay file /home/gridsan/aligho/DFT/build-Nov24/pseudopotentials/SG15/Rb_ONCV_PBE.pulay ... using dE_dnG = -1.360715e-05 computed for Ecut = 20.

Initialized 1 species with 1 total atoms.

Folded 1 k-points by 12x12x1 to 144 k-points.

---------- Setting up k-points, bands, fillings ----------
Reduced to 19 k-points under symmetry. 
Computing the number of bands and number of electrons
Calculating initial fillings.
nElectrons:   9.000000   nBands: 6   nStates: 38

----- Setting up reduced wavefunction bases (one per k-point) -----
average nbasis = 29766.104 , ideal nbasis = 29766.845

---------- Setting up coulomb interaction ----------
Initialized slab truncation along lattice direction 001

---------- Setting up 2D ewald sum ----------
Optimum gaussian width for ewald sums = 7.873530 bohr.
Real space sums over 289 unit cells with max indices [  8  8  0  ]
Reciprocal space sums over 81 terms with max indices [  4  4  0  ]

---------- Allocating electronic variables ----------
Initializing wave functions:  linear combination of atomic orbitals
Note: number of bands (6) exceeds available atomic orbitals (5)
Rb pseudo-atom occupations:   s ( 2 1 )  p ( 6 )
[d-16-6-2:72423] 18 more processes have sent help message help-mpi-common-cuda.txt / dlopen failed
[d-16-6-2:72423] Set MCA parameter "orte_base_help_aggregate" to 0 to see all help / error messages
[d-16-6-2:72423] 18 more processes have sent help message help-mpi-btl-openib-cpc-base.txt / no cpcs for port
	FillingsUpdate:  mu: -0.085776054  nElectrons: 9.000000  magneticMoment: [ Abs: 0.78000  Tot: -0.78000 ]
LCAOMinimize: Iter:   0  F: -24.4349154028755997  |grad|_K:  9.449e-06  alpha:  1.000e+00
	FillingsUpdate:  mu: -0.085775014  nElectrons: 9.000000  magneticMoment: [ Abs: 0.78000  Tot: -0.78000 ]
LCAOMinimize: Iter:   1  F: -24.4349154635696451  |grad|_K:  6.806e-08  alpha:  9.938e-01  linmin: -6.525e-03  cgtest:  1.314e-01  t[s]:      8.68
LCAOMinimize: Encountered beta<0, resetting CG.
	FillingsUpdate:  mu: -0.085775027  nElectrons: 9.000000  magneticMoment: [ Abs: 0.78000  Tot: -0.78000 ]
LCAOMinimize: Iter:   2  F: -24.4349154635725476  |grad|_K:  5.136e-09  alpha:  9.204e-01  linmin: -1.563e-01  cgtest:  9.962e-01  t[s]:     11.00
LCAOMinimize: Encountered beta<0, resetting CG.
LCAOMinimize: Converged (|Delta F|<1.000000e-06 for 2 iters).


---- Citations for features of the code used in this run ----

   Software package:
      R. Sundararaman, K. Letchworth-Weaver, K.A. Schwarz, D. Gunceler, Y. Ozhabes and T.A. Arias, 'JDFTx: software for joint density-functional theory', SoftwareX 6, 278 (2017)

   gga-PBE exchange-correlation functional:
      J.P. Perdew, K. Burke and M. Ernzerhof, Phys. Rev. Lett. 77, 3865 (1996)

   Pseudopotentials:
      M Schlipf and F Gygi, Comput. Phys. Commun. 196, 36 (2015)

   Truncated Coulomb potentials:
      R. Sundararaman and T.A. Arias, Phys. Rev. B 87, 165122 (2013)

This list may not be complete. Please suggest additional citations or
report any other bugs at https://github.com/shankar1729/jdftx/issues

Initialization completed successfully at t[s]:     11.15


-------- Electronic minimization -----------
Will mix electronic density at each iteration.
	FillingsUpdate:  mu: -0.085775027  nElectrons: 9.000000  magneticMoment: [ Abs: 0.78000  Tot: -0.78000 ]
	FillingsUpdate:  mu: -0.086603412  nElectrons: 9.000000  magneticMoment: [ Abs: 0.78000  Tot: -0.78000 ]
SCF: Cycle:  0   F: -24.436322700829820   dF: -1.407e-03   |Residual|: 3.818e-03   |deigs|: 1.734e-01  t[s]:     15.85
	FillingsUpdate:  mu: -0.086852708  nElectrons: 9.000000  magneticMoment: [ Abs: 0.78144  Tot: -0.78000 ]
SCF: Cycle:  1   F: -24.436386687711991   dF: -6.399e-05   |Residual|: 2.824e-03   |deigs|: 4.549e-03  t[s]:     19.50
	FillingsUpdate:  mu: -0.087121963  nElectrons: 9.000000  magneticMoment: [ Abs: 0.78345  Tot: -0.78000 ]
SCF: Cycle:  2   F: -24.436426634521947   dF: -3.995e-05   |Residual|: 2.172e-03   |deigs|: 2.227e-03  t[s]:     23.21
	FillingsUpdate:  mu: -0.087462031  nElectrons: 9.000000  magneticMoment: [ Abs: 0.78448  Tot: -0.78000 ]
SCF: Cycle:  3   F: -24.436460356570617   dF: -3.372e-05   |Residual|: 1.611e-03   |deigs|: 3.355e-03  t[s]:     27.02
	FillingsUpdate:  mu: -0.087386397  nElectrons: 9.000000  magneticMoment: [ Abs: 0.78280  Tot: -0.78000 ]
SCF: Cycle:  4   F: -24.436481084326090   dF: -2.073e-05   |Residual|: 9.053e-04   |deigs|: 1.780e-03  t[s]:     30.81
	FillingsUpdate:  mu: -0.087324291  nElectrons: 9.000000  magneticMoment: [ Abs: 0.78348  Tot: -0.78000 ]
SCF: Cycle:  5   F: -24.436487943313317   dF: -6.859e-06   |Residual|: 5.196e-04   |deigs|: 1.321e-03  t[s]:     34.71
	FillingsUpdate:  mu: -0.087249683  nElectrons: 9.000000  magneticMoment: [ Abs: 0.78309  Tot: -0.78000 ]
SCF: Cycle:  6   F: -24.436491803570700   dF: -3.860e-06   |Residual|: 3.821e-04   |deigs|: 8.504e-04  t[s]:     38.65
	FillingsUpdate:  mu: -0.087060360  nElectrons: 9.000000  magneticMoment: [ Abs: 0.78344  Tot: -0.78000 ]
SCF: Cycle:  7   F: -24.436493773324642   dF: -1.970e-06   |Residual|: 2.941e-04   |deigs|: 2.779e-04  t[s]:     42.63
	FillingsUpdate:  mu: -0.086745513  nElectrons: 9.000000  magneticMoment: [ Abs: 0.78409  Tot: -0.78000 ]
SCF: Cycle:  8   F: -24.436493486255397   dF: +2.871e-07   |Residual|: 2.452e-04   |deigs|: 3.620e-04  t[s]:     46.76
	FillingsUpdate:  mu: -0.086365029  nElectrons: 9.000000  magneticMoment: [ Abs: 0.78445  Tot: -0.78000 ]
SCF: Cycle:  9   F: -24.436492692285466   dF: +7.940e-07   |Residual|: 2.255e-04   |deigs|: 4.723e-04  t[s]:     50.92
	FillingsUpdate:  mu: -0.086166830  nElectrons: 9.000000  magneticMoment: [ Abs: 0.78380  Tot: -0.78000 ]
SCF: Cycle: 10   F: -24.436493870778300   dF: -1.178e-06   |Residual|: 1.936e-04   |deigs|: 2.798e-04  t[s]:     55.30
	FillingsUpdate:  mu: -0.086141146  nElectrons: 9.000000  magneticMoment: [ Abs: 0.78425  Tot: -0.78000 ]
SCF: Cycle: 11   F: -24.436495454059664   dF: -1.583e-06   |Residual|: 1.370e-04   |deigs|: 3.040e-04  t[s]:     59.47
	FillingsUpdate:  mu: -0.085918871  nElectrons: 9.000000  magneticMoment: [ Abs: 0.78458  Tot: -0.78000 ]
SCF: Cycle: 12   F: -24.436495648324456   dF: -1.943e-07   |Residual|: 1.321e-04   |deigs|: 2.727e-04  t[s]:     63.67
	FillingsUpdate:  mu: -0.085620285  nElectrons: 9.000000  magneticMoment: [ Abs: 0.78451  Tot: -0.78000 ]
SCF: Cycle: 13   F: -24.436495698919483   dF: -5.060e-08   |Residual|: 1.315e-04   |deigs|: 4.002e-04  t[s]:     67.84
	FillingsUpdate:  mu: -0.085374366  nElectrons: 9.000000  magneticMoment: [ Abs: 0.78435  Tot: -0.78000 ]
SCF: Cycle: 14   F: -24.436495553726889   dF: +1.452e-07   |Residual|: 1.213e-04   |deigs|: 4.368e-04  t[s]:     72.02
	FillingsUpdate:  mu: -0.085253701  nElectrons: 9.000000  magneticMoment: [ Abs: 0.78430  Tot: -0.78000 ]
SCF: Cycle: 15   F: -24.436496260171101   dF: -7.064e-07   |Residual|: 1.013e-04   |deigs|: 1.793e-04  t[s]:     76.23
	FillingsUpdate:  mu: -0.085058209  nElectrons: 9.000000  magneticMoment: [ Abs: 0.78350  Tot: -0.78000 ]
SCF: Cycle: 16   F: -24.436496839830745   dF: -5.797e-07   |Residual|: 8.212e-05   |deigs|: 2.542e-04  t[s]:     80.35
	FillingsUpdate:  mu: -0.084955486  nElectrons: 9.000000  magneticMoment: [ Abs: 0.78326  Tot: -0.78000 ]
SCF: Cycle: 17   F: -24.436497046078529   dF: -2.062e-07   |Residual|: 6.309e-05   |deigs|: 1.401e-04  t[s]:     84.53
	FillingsUpdate:  mu: -0.084934280  nElectrons: 9.000000  magneticMoment: [ Abs: 0.78328  Tot: -0.78000 ]
SCF: Cycle: 18   F: -24.436497099431151   dF: -5.335e-08   |Residual|: 4.332e-05   |deigs|: 8.039e-05  t[s]:     88.71
	FillingsUpdate:  mu: -0.084919180  nElectrons: 9.000000  magneticMoment: [ Abs: 0.78330  Tot: -0.78000 ]
SCF: Cycle: 19   F: -24.436497318910888   dF: -2.195e-07   |Residual|: 2.557e-05   |deigs|: 5.772e-05  t[s]:     92.92
	FillingsUpdate:  mu: -0.084909082  nElectrons: 9.000000  magneticMoment: [ Abs: 0.78333  Tot: -0.78000 ]
SCF: Cycle: 20   F: -24.436497363895274   dF: -4.498e-08   |Residual|: 1.511e-05   |deigs|: 3.069e-05  t[s]:     97.09
	FillingsUpdate:  mu: -0.084913183  nElectrons: 9.000000  magneticMoment: [ Abs: 0.78333  Tot: -0.78000 ]
SCF: Cycle: 21   F: -24.436497390309402   dF: -2.641e-08   |Residual|: 9.422e-06   |deigs|: 1.876e-05  t[s]:    101.38
	FillingsUpdate:  mu: -0.084912453  nElectrons: 9.000000  magneticMoment: [ Abs: 0.78332  Tot: -0.78000 ]
SCF: Cycle: 22   F: -24.436497396012808   dF: -5.703e-09   |Residual|: 6.681e-06   |deigs|: 1.111e-05  t[s]:    105.54
	FillingsUpdate:  mu: -0.084915313  nElectrons: 9.000000  magneticMoment: [ Abs: 0.78333  Tot: -0.78000 ]
SCF: Cycle: 23   F: -24.436497404212425   dF: -8.200e-09   |Residual|: 4.694e-06   |deigs|: 8.752e-06  t[s]:    109.82
SCF: Converged (|Delta E|<1.000000e-08 for 2 iters).


# Ionic positions in lattice coordinates:
ion Rb   0.000000000000000   0.000000000000000   0.000000000000000 0

# Forces in Lattice coordinates:
force Rb  -0.000000000000000  -0.000000000000000   0.000000000000000 0

# Energy components:
   Eewald =      -12.0320174002217755
       EH =        7.5172985793704727
     Eloc =      -22.4306724901532029
      Enl =       -0.7960643204325516
   Epulay =       -0.0000000014467880
      Exc =       -3.6514137900359103
       KE =        6.9563725637622760
-------------------------------------
     Etot =      -24.4364968591574829
       TS =        0.0000005450549413
-------------------------------------
        F =      -24.4364974042124246

IonicMinimize: Iter:   0  F: -24.436497404212425  |grad|_K:  0.000e+00  t[s]:    110.07
IonicMinimize: Converged (|grad|_K<1.000000e-04).

#--- Lowdin population analysis ---
# oxidation-state Rb +0.033
# magnetic-moments Rb -0.749

End date and time: Sun Feb  6 12:37:43 2022  (Duration: 0-0:01:50.12)
Done!
scale=4
magnetization=-0.78
--------------------------------------------------------------------------
The library attempted to open the following supporting CUDA libraries,
but each of them failed.  CUDA-aware support is disabled.
libcuda.so.1: cannot open shared object file: No such file or directory
libcuda.dylib: cannot open shared object file: No such file or directory
/usr/lib64/libcuda.so.1: cannot open shared object file: No such file or directory
/usr/lib64/libcuda.dylib: cannot open shared object file: No such file or directory
If you are not interested in CUDA-aware support, then run with
--mca opal_warn_on_missing_libcuda 0 to suppress this message.  If you are interested
in CUDA-aware support, then try setting LD_LIBRARY_PATH to the location
of libcuda.so.1 to get passed this issue.
--------------------------------------------------------------------------
--------------------------------------------------------------------------
No OpenFabrics connection schemes reported that they were able to be
used on a specific port.  As such, the openib BTL (OpenFabrics
support) will be disabled for this port.

  Local host:           d-16-6-2
  Local device:         mlx5_1
  Local port:           1
  CPCs attempted:       rdmacm, udcm
--------------------------------------------------------------------------

*************** JDFTx 1.6.0 (git hash 42ebbcc2) ***************

Start date and time: Sun Feb  6 12:37:44 2022
Executable jdftx with command-line: -i Alkali.in
Running on hosts (process indices):  d-16-6-2 (0-18)
Divided in process groups (process indices):  0 (0)  1 (1)  2 (2)  3 (3)  4 (4)  5 (5)  6 (6)  7 (7)  8 (8)  9 (9)  10 (10)  11 (11)  12 (12)  13 (13)  14 (14)  15 (15)  16 (16)  17 (17)  18 (18)
Resource initialization completed at t[s]:      0.00
Run totals: 19 processes, 48 threads, 0 GPUs


Input parsed successfully to the following command list (including defaults):

basis kpoint-dependent
coords-type Lattice
core-overlap-check vector
coulomb-interaction Slab 001
davidson-band-ratio 1.1
dump End None
dump-name $INPUT.$VAR
elec-cutoff 20
elec-eigen-algo Davidson
elec-ex-corr gga-PBE
elec-initial-magnetization -0.780000 yes
elec-smearing Fermi 1e-05
electronic-minimize  \
	dirUpdateScheme      FletcherReeves \
	linminMethod         DirUpdateRecommended \
	nIterations          100 \
	history              15 \
	knormThreshold       0 \
	energyDiffThreshold  1e-08 \
	nEnergyDiff          2 \
	alphaTstart          1 \
	alphaTmin            1e-10 \
	updateTestStepSize   yes \
	alphaTreduceFactor   0.1 \
	alphaTincreaseFactor 3 \
	nAlphaAdjustMax      3 \
	wolfeEnergy          0.0001 \
	wolfeGradient        0.9 \
	fdTest               no
electronic-scf  \
	nIterations	10000 \
	energyDiffThreshold	1e-08 \
	residualThreshold	1e-07 \
	mixFraction	0.5 \
	qMetric	0.8 \
	history	10 \
	nEigSteps	2 \
	eigDiffThreshold	1e-08 \
	mixedVariable	Density \
	qKerker	0.8 \
	qKappa	-1 \
	verbose	no \
	mixFractionMag	1.5
exchange-regularization WignerSeitzTruncated
fluid None
fluid-ex-corr (null) lda-PZ
fluid-gummel-loop 10 1.000000e-05
fluid-minimize  \
	dirUpdateScheme      PolakRibiere \
	linminMethod         DirUpdateRecommended \
	nIterations          100 \
	history              15 \
	knormThreshold       0 \
	energyDiffThreshold  0 \
	nEnergyDiff          2 \
	alphaTstart          1 \
	alphaTmin            1e-10 \
	updateTestStepSize   yes \
	alphaTreduceFactor   0.1 \
	alphaTincreaseFactor 3 \
	nAlphaAdjustMax      3 \
	wolfeEnergy          0.0001 \
	wolfeGradient        0.9 \
	fdTest               no
fluid-solvent H2O 55.338 ScalarEOS \
	epsBulk 78.4 \
	pMol 0.92466 \
	epsInf 1.77 \
	Pvap 1.06736e-10 \
	sigmaBulk 4.62e-05 \
	Rvdw 2.61727 \
	Res 1.42 \
	tauNuc 343133 \
	poleEl 15 7 1
forces-output-coords Positions
ion Rb   0.000000000000000   0.000000000000000   0.000000000000000 0
ion-species SG15/$ID_ONCV_PBE.upf
ion-width 0
ionic-minimize  \
	dirUpdateScheme      L-BFGS \
	linminMethod         DirUpdateRecommended \
	nIterations          0 \
	history              15 \
	knormThreshold       0.0001 \
	energyDiffThreshold  1e-06 \
	nEnergyDiff          2 \
	alphaTstart          1 \
	alphaTmin            1e-10 \
	updateTestStepSize   yes \
	alphaTreduceFactor   0.1 \
	alphaTincreaseFactor 3 \
	nAlphaAdjustMax      3 \
	wolfeEnergy          0.0001 \
	wolfeGradient        0.9 \
	fdTest               no
kpoint   0.000000000000   0.000000000000   0.000000000000  1.00000000000000
kpoint-folding 12 12 1 
latt-move-scale 1 1 1
latt-scale 4 4 1 
lattice  \
	   4.727486978767153   -2.363743489383575    0.000000000000000  \
	  -0.000000000000000    4.094123819672498    0.000000000000000  \
	   0.000000000000000    0.000000000000000   40.000000000000000 
lattice-minimize  \
	dirUpdateScheme      L-BFGS \
	linminMethod         DirUpdateRecommended \
	nIterations          0 \
	history              15 \
	knormThreshold       0 \
	energyDiffThreshold  1e-06 \
	nEnergyDiff          2 \
	alphaTstart          1 \
	alphaTmin            1e-10 \
	updateTestStepSize   yes \
	alphaTreduceFactor   0.1 \
	alphaTincreaseFactor 3 \
	nAlphaAdjustMax      3 \
	wolfeEnergy          0.0001 \
	wolfeGradient        0.9 \
	fdTest               no
lcao-params -1 1e-06 1e-05
pcm-variant GLSSA13
spintype z-spin
subspace-rotation-factor 1 yes
symmetries automatic
symmetry-threshold 0.0001



---------- Setting up symmetries ----------

Found 24 point-group symmetries of the bravais lattice
Found 24 space-group symmetries with basis
Applied RMS atom displacement 0 bohrs to make symmetries exact.

---------- Initializing the Grid ----------
R = 
[      18.9099     -9.45497            0  ]
[            0      16.3765            0  ]
[            0            0           40  ]
unit cell volume = 12387.1
G =
[   0.332269   0.191835         -0  ]
[          0   0.383671         -0  ]
[         -0         -0    0.15708  ]
Minimum fftbox size, Smin = [  80  80  164  ]
Chosen fftbox size, S = [  80  80  168  ]

---------- Exchange Correlation functional ----------
Initalized PBE GGA exchange.
Initalized PBE GGA correlation.

---------- Setting up pseudopotentials ----------
Width of ionic core gaussian charges (only for fluid interactions / plotting) set to 0

Reading pseudopotential file '/home/gridsan/aligho/DFT/build-Nov24/pseudopotentials/SG15/Rb_ONCV_PBE.upf':
  'Rb' pseudopotential, 'PBE' functional
  Generated using ONCVPSP code by D. R. Hamann
  Author: Martin Schlipf and Francois Gygi  Date: 150915.
  9 valence electrons, 3 orbitals, 6 projectors, 2308 radial grid points, with lMax = 2
  Transforming local potential to a uniform radial grid of dG=0.02 with 1489 points.
  Transforming nonlocal projectors to a uniform radial grid of dG=0.02 with 432 points.
    4S    l: 0   occupation:  2.0   eigenvalue: -1.172069
    4P    l: 1   occupation:  6.0   eigenvalue: -0.586674
    5S    l: 0   occupation:  1.0   eigenvalue: -0.082006
  Transforming atomic orbitals to a uniform radial grid of dG=0.02 with 432 points.
  Core radius for overlap checks: 2.60 bohrs.
  Reading pulay file /home/gridsan/aligho/DFT/build-Nov24/pseudopotentials/SG15/Rb_ONCV_PBE.pulay ... using dE_dnG = -1.360715e-05 computed for Ecut = 20.

Initialized 1 species with 1 total atoms.

Folded 1 k-points by 12x12x1 to 144 k-points.

---------- Setting up k-points, bands, fillings ----------
Reduced to 19 k-points under symmetry. 
Computing the number of bands and number of electrons
Calculating initial fillings.
nElectrons:   9.000000   nBands: 6   nStates: 38

----- Setting up reduced wavefunction bases (one per k-point) -----
average nbasis = 52924.021 , ideal nbasis = 52918.836

---------- Setting up coulomb interaction ----------
Initialized slab truncation along lattice direction 001

---------- Setting up 2D ewald sum ----------
Optimum gaussian width for ewald sums = 10.498040 bohr.
Real space sums over 289 unit cells with max indices [  8  8  0  ]
Reciprocal space sums over 81 terms with max indices [  4  4  0  ]

---------- Allocating electronic variables ----------
Initializing wave functions:  linear combination of atomic orbitals
Note: number of bands (6) exceeds available atomic orbitals (5)
Rb pseudo-atom occupations:   s ( 2 1 )  p ( 6 )
[d-16-6-2:24459] 18 more processes have sent help message help-mpi-common-cuda.txt / dlopen failed
[d-16-6-2:24459] Set MCA parameter "orte_base_help_aggregate" to 0 to see all help / error messages
[d-16-6-2:24459] 18 more processes have sent help message help-mpi-btl-openib-cpc-base.txt / no cpcs for port
	FillingsUpdate:  mu: -0.082530141  nElectrons: 9.000000  magneticMoment: [ Abs: 0.78000  Tot: -0.78000 ]
LCAOMinimize: Iter:   0  F: -24.4325538771135591  |grad|_K:  2.230e-06  alpha:  1.000e+00
	FillingsUpdate:  mu: -0.082529663  nElectrons: 9.000000  magneticMoment: [ Abs: 0.78000  Tot: -0.78000 ]
LCAOMinimize: Iter:   1  F: -24.4325538804824909  |grad|_K:  1.197e-08  alpha:  9.908e-01  linmin: -2.574e-03  cgtest:  6.881e-02  t[s]:     14.89
LCAOMinimize: Encountered beta<0, resetting CG.
LCAOMinimize: 	Step increased F by 6.394885e-14, reducing alpha to 2.736847e-02.
LCAOMinimize: 	Step increased F by 2.131628e-14, reducing alpha to 2.736847e-03.
LCAOMinimize: 	Step increased F by 1.385558e-13, reducing alpha to 2.736847e-04.
LCAOMinimize: 	Step failed to reduce F after 3 attempts. Quitting step.
LCAOMinimize: 	Undoing step.
LCAOMinimize: 	Step failed along negative gradient direction.
LCAOMinimize: Probably at roundoff error limit. (Stopping)


---- Citations for features of the code used in this run ----

   Software package:
      R. Sundararaman, K. Letchworth-Weaver, K.A. Schwarz, D. Gunceler, Y. Ozhabes and T.A. Arias, 'JDFTx: software for joint density-functional theory', SoftwareX 6, 278 (2017)

   gga-PBE exchange-correlation functional:
      J.P. Perdew, K. Burke and M. Ernzerhof, Phys. Rev. Lett. 77, 3865 (1996)

   Pseudopotentials:
      M Schlipf and F Gygi, Comput. Phys. Commun. 196, 36 (2015)

   Truncated Coulomb potentials:
      R. Sundararaman and T.A. Arias, Phys. Rev. B 87, 165122 (2013)

This list may not be complete. Please suggest additional citations or
report any other bugs at https://github.com/shankar1729/jdftx/issues

Initialization completed successfully at t[s]:     26.00


-------- Electronic minimization -----------
Will mix electronic density at each iteration.
	FillingsUpdate:  mu: -0.082529663  nElectrons: 9.000000  magneticMoment: [ Abs: 0.78000  Tot: -0.78000 ]
	FillingsUpdate:  mu: -0.082634138  nElectrons: 9.000000  magneticMoment: [ Abs: 0.78000  Tot: -0.78000 ]
SCF: Cycle:  0   F: -24.432668661514324   dF: -1.148e-04   |Residual|: 1.783e-03   |deigs|: 1.689e-01  t[s]:     34.06
	FillingsUpdate:  mu: -0.082621306  nElectrons: 9.000000  magneticMoment: [ Abs: 0.78428  Tot: -0.78000 ]
SCF: Cycle:  1   F: -24.432671044011887   dF: -2.382e-06   |Residual|: 4.264e-04   |deigs|: 1.006e-02  t[s]:     40.38
	FillingsUpdate:  mu: -0.082587298  nElectrons: 9.000000  magneticMoment: [ Abs: 0.78427  Tot: -0.78000 ]
SCF: Cycle:  2   F: -24.432671628694568   dF: -5.847e-07   |Residual|: 2.558e-04   |deigs|: 1.715e-03  t[s]:     46.86
	FillingsUpdate:  mu: -0.082559739  nElectrons: 9.000000  magneticMoment: [ Abs: 0.78488  Tot: -0.78000 ]
SCF: Cycle:  3   F: -24.432671953528779   dF: -3.248e-07   |Residual|: 1.943e-04   |deigs|: 8.028e-04  t[s]:     53.42
	FillingsUpdate:  mu: -0.082487560  nElectrons: 9.000000  magneticMoment: [ Abs: 0.78484  Tot: -0.78000 ]
SCF: Cycle:  4   F: -24.432672210894481   dF: -2.574e-07   |Residual|: 1.387e-04   |deigs|: 5.792e-04  t[s]:     60.10
	FillingsUpdate:  mu: -0.082383361  nElectrons: 9.000000  magneticMoment: [ Abs: 0.78486  Tot: -0.78000 ]
SCF: Cycle:  5   F: -24.432672315903879   dF: -1.050e-07   |Residual|: 9.046e-05   |deigs|: 5.200e-04  t[s]:     66.90
	FillingsUpdate:  mu: -0.082330473  nElectrons: 9.000000  magneticMoment: [ Abs: 0.78476  Tot: -0.78000 ]
SCF: Cycle:  6   F: -24.432672392050726   dF: -7.615e-08   |Residual|: 7.141e-05   |deigs|: 4.133e-04  t[s]:     73.81
	FillingsUpdate:  mu: -0.082309951  nElectrons: 9.000000  magneticMoment: [ Abs: 0.78480  Tot: -0.78000 ]
SCF: Cycle:  7   F: -24.432672448437277   dF: -5.639e-08   |Residual|: 5.686e-05   |deigs|: 4.913e-04  t[s]:     80.79
	FillingsUpdate:  mu: -0.082283992  nElectrons: 9.000000  magneticMoment: [ Abs: 0.78479  Tot: -0.78000 ]
SCF: Cycle:  8   F: -24.432672493925065   dF: -4.549e-08   |Residual|: 4.855e-05   |deigs|: 1.646e-04  t[s]:     87.91
	FillingsUpdate:  mu: -0.082255774  nElectrons: 9.000000  magneticMoment: [ Abs: 0.78478  Tot: -0.78000 ]
SCF: Cycle:  9   F: -24.432672496980153   dF: -3.055e-09   |Residual|: 4.112e-05   |deigs|: 1.633e-04  t[s]:     95.18
	FillingsUpdate:  mu: -0.082233071  nElectrons: 9.000000  magneticMoment: [ Abs: 0.78482  Tot: -0.78000 ]
SCF: Cycle: 10   F: -24.432672441688165   dF: +5.529e-08   |Residual|: 3.531e-05   |deigs|: 1.278e-04  t[s]:    102.57
	FillingsUpdate:  mu: -0.082200419  nElectrons: 9.000000  magneticMoment: [ Abs: 0.78490  Tot: -0.78000 ]
SCF: Cycle: 11   F: -24.432672390157954   dF: +5.153e-08   |Residual|: 3.021e-05   |deigs|: 8.386e-05  t[s]:    109.94
	FillingsUpdate:  mu: -0.082178353  nElectrons: 9.000000  magneticMoment: [ Abs: 0.78502  Tot: -0.78000 ]
SCF: Cycle: 12   F: -24.432672002679769   dF: +3.875e-07   |Residual|: 2.765e-05   |deigs|: 8.787e-05  t[s]:    117.29
	FillingsUpdate:  mu: -0.082186956  nElectrons: 9.000000  magneticMoment: [ Abs: 0.78494  Tot: -0.78000 ]
SCF: Cycle: 13   F: -24.432672363353205   dF: -3.607e-07   |Residual|: 2.778e-05   |deigs|: 3.274e-05  t[s]:    124.63
	FillingsUpdate:  mu: -0.082139657  nElectrons: 9.000000  magneticMoment: [ Abs: 0.78498  Tot: -0.78000 ]
SCF: Cycle: 14   F: -24.432672530799202   dF: -1.674e-07   |Residual|: 2.272e-05   |deigs|: 5.215e-05  t[s]:    131.53
	FillingsUpdate:  mu: -0.082097444  nElectrons: 9.000000  magneticMoment: [ Abs: 0.78496  Tot: -0.78000 ]
SCF: Cycle: 15   F: -24.432672312626408   dF: +2.182e-07   |Residual|: 2.311e-05   |deigs|: 5.231e-05  t[s]:    138.68
	FillingsUpdate:  mu: -0.082063068  nElectrons: 9.000000  magneticMoment: [ Abs: 0.78485  Tot: -0.78000 ]
SCF: Cycle: 16   F: -24.432672442397653   dF: -1.298e-07   |Residual|: 1.976e-05   |deigs|: 4.082e-05  t[s]:    145.93
	FillingsUpdate:  mu: -0.082048655  nElectrons: 9.000000  magneticMoment: [ Abs: 0.78486  Tot: -0.78000 ]
SCF: Cycle: 17   F: -24.432672452917632   dF: -1.052e-08   |Residual|: 1.203e-05   |deigs|: 2.613e-05  t[s]:    153.18
	FillingsUpdate:  mu: -0.082040114  nElectrons: 9.000000  magneticMoment: [ Abs: 0.78483  Tot: -0.78000 ]
SCF: Cycle: 18   F: -24.432672537719220   dF: -8.480e-08   |Residual|: 8.151e-06   |deigs|: 2.267e-05  t[s]:    160.47
	FillingsUpdate:  mu: -0.082031280  nElectrons: 9.000000  magneticMoment: [ Abs: 0.78480  Tot: -0.78000 ]
SCF: Cycle: 19   F: -24.432672590597377   dF: -5.288e-08   |Residual|: 4.914e-06   |deigs|: 2.717e-05  t[s]:    167.18
	FillingsUpdate:  mu: -0.082027413  nElectrons: 9.000000  magneticMoment: [ Abs: 0.78479  Tot: -0.78000 ]
SCF: Cycle: 20   F: -24.432672595322167   dF: -4.725e-09   |Residual|: 3.639e-06   |deigs|: 3.180e-05  t[s]:    173.85
	FillingsUpdate:  mu: -0.082026793  nElectrons: 9.000000  magneticMoment: [ Abs: 0.78479  Tot: -0.78000 ]
SCF: Cycle: 21   F: -24.432672601838796   dF: -6.517e-09   |Residual|: 2.846e-06   |deigs|: 3.701e-05  t[s]:    181.11
SCF: Converged (|Delta E|<1.000000e-08 for 2 iters).


# Ionic positions in lattice coordinates:
ion Rb   0.000000000000000   0.000000000000000   0.000000000000000 0

# Forces in Lattice coordinates:
force Rb   0.000000000000000  -0.000000000000000   0.000000000000000 0

# Energy components:
   Eewald =       -9.0240130501663280
       EH =       10.5442200784087117
     Eloc =      -28.4700316704372263
      Enl =       -0.7923138092341983
   Epulay =        0.0000000056959385
      Exc =       -3.6529333100085433
       KE =        6.9623996989585342
-------------------------------------
     Etot =      -24.4326720567831082
       TS =        0.0000005450556890
-------------------------------------
        F =      -24.4326726018387959

IonicMinimize: Iter:   0  F: -24.432672601838796  |grad|_K:  0.000e+00  t[s]:    181.52
IonicMinimize: Converged (|grad|_K<1.000000e-04).

#--- Lowdin population analysis ---
# oxidation-state Rb +0.001
# magnetic-moments Rb -0.779

End date and time: Sun Feb  6 12:40:46 2022  (Duration: 0-0:03:01.58)
Done!
