The alkali metal is Rb
scale=2
magnetization=-0.86
--------------------------------------------------------------------------
The library attempted to open the following supporting CUDA libraries,
but each of them failed.  CUDA-aware support is disabled.
libcuda.so.1: cannot open shared object file: No such file or directory
libcuda.dylib: cannot open shared object file: No such file or directory
/usr/lib64/libcuda.so.1: cannot open shared object file: No such file or directory
/usr/lib64/libcuda.dylib: cannot open shared object file: No such file or directory
If you are not interested in CUDA-aware support, then run with
--mca opal_warn_on_missing_libcuda 0 to suppress this message.  If you are interested
in CUDA-aware support, then try setting LD_LIBRARY_PATH to the location
of libcuda.so.1 to get passed this issue.
--------------------------------------------------------------------------
--------------------------------------------------------------------------
No OpenFabrics connection schemes reported that they were able to be
used on a specific port.  As such, the openib BTL (OpenFabrics
support) will be disabled for this port.

  Local host:           d-6-8-2
  Local device:         mlx5_1
  Local port:           1
  CPCs attempted:       rdmacm, udcm
--------------------------------------------------------------------------

*************** JDFTx 1.6.0 (git hash 42ebbcc2) ***************

Start date and time: Sun Feb  6 12:34:51 2022
Executable jdftx with command-line: -i Alkali.in
Running on hosts (process indices):  d-6-8-2 (0-18)
Divided in process groups (process indices):  0 (0)  1 (1)  2 (2)  3 (3)  4 (4)  5 (5)  6 (6)  7 (7)  8 (8)  9 (9)  10 (10)  11 (11)  12 (12)  13 (13)  14 (14)  15 (15)  16 (16)  17 (17)  18 (18)
Resource initialization completed at t[s]:      0.00
Run totals: 19 processes, 48 threads, 0 GPUs


Input parsed successfully to the following command list (including defaults):

basis kpoint-dependent
coords-type Lattice
core-overlap-check vector
coulomb-interaction Slab 001
davidson-band-ratio 1.1
dump End None
dump-name $INPUT.$VAR
elec-cutoff 20
elec-eigen-algo Davidson
elec-ex-corr gga-PBE
elec-initial-magnetization -0.860000 yes
elec-smearing Fermi 1e-05
electronic-minimize  \
	dirUpdateScheme      FletcherReeves \
	linminMethod         DirUpdateRecommended \
	nIterations          100 \
	history              15 \
	knormThreshold       0 \
	energyDiffThreshold  1e-08 \
	nEnergyDiff          2 \
	alphaTstart          1 \
	alphaTmin            1e-10 \
	updateTestStepSize   yes \
	alphaTreduceFactor   0.1 \
	alphaTincreaseFactor 3 \
	nAlphaAdjustMax      3 \
	wolfeEnergy          0.0001 \
	wolfeGradient        0.9 \
	fdTest               no
electronic-scf  \
	nIterations	10000 \
	energyDiffThreshold	1e-08 \
	residualThreshold	1e-07 \
	mixFraction	0.5 \
	qMetric	0.8 \
	history	10 \
	nEigSteps	2 \
	eigDiffThreshold	1e-08 \
	mixedVariable	Density \
	qKerker	0.8 \
	qKappa	-1 \
	verbose	no \
	mixFractionMag	1.5
exchange-regularization WignerSeitzTruncated
fluid None
fluid-ex-corr (null) lda-PZ
fluid-gummel-loop 10 1.000000e-05
fluid-minimize  \
	dirUpdateScheme      PolakRibiere \
	linminMethod         DirUpdateRecommended \
	nIterations          100 \
	history              15 \
	knormThreshold       0 \
	energyDiffThreshold  0 \
	nEnergyDiff          2 \
	alphaTstart          1 \
	alphaTmin            1e-10 \
	updateTestStepSize   yes \
	alphaTreduceFactor   0.1 \
	alphaTincreaseFactor 3 \
	nAlphaAdjustMax      3 \
	wolfeEnergy          0.0001 \
	wolfeGradient        0.9 \
	fdTest               no
fluid-solvent H2O 55.338 ScalarEOS \
	epsBulk 78.4 \
	pMol 0.92466 \
	epsInf 1.77 \
	Pvap 1.06736e-10 \
	sigmaBulk 4.62e-05 \
	Rvdw 2.61727 \
	Res 1.42 \
	tauNuc 343133 \
	poleEl 15 7 1
forces-output-coords Positions
ion Rb   0.000000000000000   0.000000000000000   0.000000000000000 0
ion-species SG15/$ID_ONCV_PBE.upf
ion-width 0
ionic-minimize  \
	dirUpdateScheme      L-BFGS \
	linminMethod         DirUpdateRecommended \
	nIterations          0 \
	history              15 \
	knormThreshold       0.0001 \
	energyDiffThreshold  1e-06 \
	nEnergyDiff          2 \
	alphaTstart          1 \
	alphaTmin            1e-10 \
	updateTestStepSize   yes \
	alphaTreduceFactor   0.1 \
	alphaTincreaseFactor 3 \
	nAlphaAdjustMax      3 \
	wolfeEnergy          0.0001 \
	wolfeGradient        0.9 \
	fdTest               no
kpoint   0.000000000000   0.000000000000   0.000000000000  1.00000000000000
kpoint-folding 12 12 1 
latt-move-scale 1 1 1
latt-scale 2 2 1 
lattice  \
	   4.727486978767153   -2.363743489383575    0.000000000000000  \
	  -0.000000000000000    4.094123819672498    0.000000000000000  \
	   0.000000000000000    0.000000000000000   40.000000000000000 
lattice-minimize  \
	dirUpdateScheme      L-BFGS \
	linminMethod         DirUpdateRecommended \
	nIterations          0 \
	history              15 \
	knormThreshold       0 \
	energyDiffThreshold  1e-06 \
	nEnergyDiff          2 \
	alphaTstart          1 \
	alphaTmin            1e-10 \
	updateTestStepSize   yes \
	alphaTreduceFactor   0.1 \
	alphaTincreaseFactor 3 \
	nAlphaAdjustMax      3 \
	wolfeEnergy          0.0001 \
	wolfeGradient        0.9 \
	fdTest               no
lcao-params -1 1e-06 1e-05
pcm-variant GLSSA13
spintype z-spin
subspace-rotation-factor 1 yes
symmetries automatic
symmetry-threshold 0.0001



---------- Setting up symmetries ----------

Found 24 point-group symmetries of the bravais lattice
Found 24 space-group symmetries with basis
Applied RMS atom displacement 0 bohrs to make symmetries exact.

---------- Initializing the Grid ----------
R = 
[      9.45497     -4.72749            0  ]
[            0      8.18825            0  ]
[            0            0           40  ]
unit cell volume = 3096.79
G =
[   0.664538   0.383671         -0  ]
[          0   0.767342         -0  ]
[         -0         -0    0.15708  ]
Minimum fftbox size, Smin = [  40  40  164  ]
Chosen fftbox size, S = [  40  40  168  ]

---------- Exchange Correlation functional ----------
Initalized PBE GGA exchange.
Initalized PBE GGA correlation.

---------- Setting up pseudopotentials ----------
Width of ionic core gaussian charges (only for fluid interactions / plotting) set to 0

Reading pseudopotential file '/home/gridsan/aligho/DFT/build-Nov24/pseudopotentials/SG15/Rb_ONCV_PBE.upf':
  'Rb' pseudopotential, 'PBE' functional
  Generated using ONCVPSP code by D. R. Hamann
  Author: Martin Schlipf and Francois Gygi  Date: 150915.
  9 valence electrons, 3 orbitals, 6 projectors, 2308 radial grid points, with lMax = 2
  Transforming local potential to a uniform radial grid of dG=0.02 with 1489 points.
  Transforming nonlocal projectors to a uniform radial grid of dG=0.02 with 432 points.
    4S    l: 0   occupation:  2.0   eigenvalue: -1.172069
    4P    l: 1   occupation:  6.0   eigenvalue: -0.586674
    5S    l: 0   occupation:  1.0   eigenvalue: -0.082006
  Transforming atomic orbitals to a uniform radial grid of dG=0.02 with 432 points.
  Core radius for overlap checks: 2.60 bohrs.
  Reading pulay file /home/gridsan/aligho/DFT/build-Nov24/pseudopotentials/SG15/Rb_ONCV_PBE.pulay ... using dE_dnG = -1.360715e-05 computed for Ecut = 20.

Initialized 1 species with 1 total atoms.

Folded 1 k-points by 12x12x1 to 144 k-points.

---------- Setting up k-points, bands, fillings ----------
Reduced to 19 k-points under symmetry. 
Computing the number of bands and number of electrons
Calculating initial fillings.
nElectrons:   9.000000   nBands: 6   nStates: 38

----- Setting up reduced wavefunction bases (one per k-point) -----
average nbasis = 13230.521 , ideal nbasis = 13229.709

---------- Setting up coulomb interaction ----------
Initialized slab truncation along lattice direction 001

---------- Setting up 2D ewald sum ----------
Optimum gaussian width for ewald sums = 5.249020 bohr.
Real space sums over 289 unit cells with max indices [  8  8  0  ]
Reciprocal space sums over 81 terms with max indices [  4  4  0  ]

---------- Allocating electronic variables ----------
Initializing wave functions:  linear combination of atomic orbitals
Note: number of bands (6) exceeds available atomic orbitals (5)
Rb pseudo-atom occupations:   s ( 2 1 )  p ( 6 )
	FillingsUpdate:  mu: -0.089852431  nElectrons: 9.000000  magneticMoment: [ Abs: 0.86000  Tot: -0.86000 ]
LCAOMinimize: Iter:   0  F: -24.4335019674138465  |grad|_K:  1.183e-05  alpha:  1.000e+00
	FillingsUpdate:  mu: -0.089848800  nElectrons: 9.000000  magneticMoment: [ Abs: 0.86000  Tot: -0.86000 ]
LCAOMinimize: Iter:   1  F: -24.4335020613785829  |grad|_K:  1.146e-07  alpha:  9.816e-01  linmin: -1.194e-02  cgtest:  1.958e-01  t[s]:      4.67
LCAOMinimize: Encountered beta<0, resetting CG.
[d-6-8-2:29170] 18 more processes have sent help message help-mpi-common-cuda.txt / dlopen failed
[d-6-8-2:29170] Set MCA parameter "orte_base_help_aggregate" to 0 to see all help / error messages
[d-6-8-2:29170] 18 more processes have sent help message help-mpi-btl-openib-cpc-base.txt / no cpcs for port
	FillingsUpdate:  mu: -0.089848841  nElectrons: 9.000000  magneticMoment: [ Abs: 0.86000  Tot: -0.86000 ]
LCAOMinimize: Iter:   2  F: -24.4335020613874150  |grad|_K:  5.895e-09  alpha:  1.050e+00  linmin:  9.482e-02  cgtest: -9.909e-01  t[s]:      5.87
LCAOMinimize: Converged (|Delta F|<1.000000e-06 for 2 iters).


---- Citations for features of the code used in this run ----

   Software package:
      R. Sundararaman, K. Letchworth-Weaver, K.A. Schwarz, D. Gunceler, Y. Ozhabes and T.A. Arias, 'JDFTx: software for joint density-functional theory', SoftwareX 6, 278 (2017)

   gga-PBE exchange-correlation functional:
      J.P. Perdew, K. Burke and M. Ernzerhof, Phys. Rev. Lett. 77, 3865 (1996)

   Pseudopotentials:
      M Schlipf and F Gygi, Comput. Phys. Commun. 196, 36 (2015)

   Truncated Coulomb potentials:
      R. Sundararaman and T.A. Arias, Phys. Rev. B 87, 165122 (2013)

This list may not be complete. Please suggest additional citations or
report any other bugs at https://github.com/shankar1729/jdftx/issues

Initialization completed successfully at t[s]:      5.96


-------- Electronic minimization -----------
Will mix electronic density at each iteration.
	FillingsUpdate:  mu: -0.089848841  nElectrons: 9.000000  magneticMoment: [ Abs: 0.86000  Tot: -0.86000 ]
	FillingsUpdate:  mu: -0.105119112  nElectrons: 9.000000  magneticMoment: [ Abs: 0.86000  Tot: -0.86000 ]
SCF: Cycle:  0   F: -24.443701190314538   dF: -1.020e-02   |Residual|: 1.639e-02   |deigs|: 1.773e-01  t[s]:      8.40
	FillingsUpdate:  mu: -0.108581790  nElectrons: 9.000000  magneticMoment: [ Abs: 0.86000  Tot: -0.86000 ]
SCF: Cycle:  1   F: -24.444244573916770   dF: -5.434e-04   |Residual|: 1.147e-02   |deigs|: 8.245e-03  t[s]:     10.25
	FillingsUpdate:  mu: -0.107968226  nElectrons: 9.000000  magneticMoment: [ Abs: 0.86292  Tot: -0.86000 ]
SCF: Cycle:  2   F: -24.444473852860842   dF: -2.293e-04   |Residual|: 7.019e-03   |deigs|: 3.478e-03  t[s]:     12.16
	FillingsUpdate:  mu: -0.105991689  nElectrons: 9.000000  magneticMoment: [ Abs: 0.86012  Tot: -0.86000 ]
SCF: Cycle:  3   F: -24.444717696666540   dF: -2.438e-04   |Residual|: 3.220e-03   |deigs|: 1.596e-03  t[s]:     13.98
	FillingsUpdate:  mu: -0.103591163  nElectrons: 9.000000  magneticMoment: [ Abs: 0.86001  Tot: -0.86000 ]
SCF: Cycle:  4   F: -24.444788113002524   dF: -7.042e-05   |Residual|: 1.966e-03   |deigs|: 2.878e-03  t[s]:     15.81
	FillingsUpdate:  mu: -0.102530228  nElectrons: 9.000000  magneticMoment: [ Abs: 0.86008  Tot: -0.86000 ]
SCF: Cycle:  5   F: -24.444817258596395   dF: -2.915e-05   |Residual|: 1.367e-03   |deigs|: 2.491e-03  t[s]:     17.74
	FillingsUpdate:  mu: -0.101460370  nElectrons: 9.000000  magneticMoment: [ Abs: 0.86016  Tot: -0.86000 ]
SCF: Cycle:  6   F: -24.444831885205705   dF: -1.463e-05   |Residual|: 1.229e-03   |deigs|: 2.214e-03  t[s]:     19.61
	FillingsUpdate:  mu: -0.098970197  nElectrons: 9.000000  magneticMoment: [ Abs: 0.86432  Tot: -0.86000 ]
SCF: Cycle:  7   F: -24.444827295988858   dF: +4.589e-06   |Residual|: 9.495e-04   |deigs|: 2.891e-03  t[s]:     21.61
	FillingsUpdate:  mu: -0.098096433  nElectrons: 9.000000  magneticMoment: [ Abs: 0.86309  Tot: -0.86000 ]
SCF: Cycle:  8   F: -24.444839219382562   dF: -1.192e-05   |Residual|: 7.615e-04   |deigs|: 9.712e-04  t[s]:     23.59
	FillingsUpdate:  mu: -0.097612144  nElectrons: 9.000000  magneticMoment: [ Abs: 0.86073  Tot: -0.86000 ]
SCF: Cycle:  9   F: -24.444852648940437   dF: -1.343e-05   |Residual|: 6.125e-04   |deigs|: 9.831e-04  t[s]:     25.54
	FillingsUpdate:  mu: -0.097039195  nElectrons: 9.000000  magneticMoment: [ Abs: 0.86143  Tot: -0.86000 ]
SCF: Cycle: 10   F: -24.444856239542073   dF: -3.591e-06   |Residual|: 4.632e-04   |deigs|: 8.359e-04  t[s]:     27.54
	FillingsUpdate:  mu: -0.096213425  nElectrons: 9.000000  magneticMoment: [ Abs: 0.86168  Tot: -0.86000 ]
SCF: Cycle: 11   F: -24.444862128286765   dF: -5.889e-06   |Residual|: 4.105e-04   |deigs|: 8.862e-04  t[s]:     29.54
	FillingsUpdate:  mu: -0.095591045  nElectrons: 9.000000  magneticMoment: [ Abs: 0.86074  Tot: -0.86000 ]
SCF: Cycle: 12   F: -24.444863775694337   dF: -1.647e-06   |Residual|: 4.078e-04   |deigs|: 7.179e-04  t[s]:     31.57
	FillingsUpdate:  mu: -0.094708379  nElectrons: 9.000000  magneticMoment: [ Abs: 0.86266  Tot: -0.86000 ]
SCF: Cycle: 13   F: -24.444865549745444   dF: -1.774e-06   |Residual|: 3.774e-04   |deigs|: 9.390e-04  t[s]:     33.52
	FillingsUpdate:  mu: -0.093595826  nElectrons: 9.000000  magneticMoment: [ Abs: 0.86253  Tot: -0.86000 ]
SCF: Cycle: 14   F: -24.444869800759861   dF: -4.251e-06   |Residual|: 3.218e-04   |deigs|: 1.163e-03  t[s]:     35.47
	FillingsUpdate:  mu: -0.092844588  nElectrons: 9.000000  magneticMoment: [ Abs: 0.86097  Tot: -0.86000 ]
SCF: Cycle: 15   F: -24.444871638483082   dF: -1.838e-06   |Residual|: 2.904e-04   |deigs|: 7.867e-04  t[s]:     37.53
	FillingsUpdate:  mu: -0.092016108  nElectrons: 9.000000  magneticMoment: [ Abs: 0.86136  Tot: -0.86000 ]
SCF: Cycle: 16   F: -24.444873364883396   dF: -1.726e-06   |Residual|: 2.185e-04   |deigs|: 9.399e-04  t[s]:     39.47
	FillingsUpdate:  mu: -0.091546336  nElectrons: 9.000000  magneticMoment: [ Abs: 0.86077  Tot: -0.86000 ]
SCF: Cycle: 17   F: -24.444875137764640   dF: -1.773e-06   |Residual|: 1.556e-04   |deigs|: 5.277e-04  t[s]:     41.42
	FillingsUpdate:  mu: -0.091485169  nElectrons: 9.000000  magneticMoment: [ Abs: 0.86103  Tot: -0.86000 ]
SCF: Cycle: 18   F: -24.444875995739082   dF: -8.580e-07   |Residual|: 1.040e-04   |deigs|: 8.249e-05  t[s]:     43.37
	FillingsUpdate:  mu: -0.091472807  nElectrons: 9.000000  magneticMoment: [ Abs: 0.86083  Tot: -0.86000 ]
SCF: Cycle: 19   F: -24.444876244520280   dF: -2.488e-07   |Residual|: 6.677e-05   |deigs|: 7.969e-05  t[s]:     45.33
	FillingsUpdate:  mu: -0.091461533  nElectrons: 9.000000  magneticMoment: [ Abs: 0.86042  Tot: -0.86000 ]
SCF: Cycle: 20   F: -24.444876518399109   dF: -2.739e-07   |Residual|: 4.178e-05   |deigs|: 9.045e-05  t[s]:     47.27
	FillingsUpdate:  mu: -0.091512491  nElectrons: 9.000000  magneticMoment: [ Abs: 0.86039  Tot: -0.86000 ]
SCF: Cycle: 21   F: -24.444876622740512   dF: -1.043e-07   |Residual|: 3.269e-05   |deigs|: 8.940e-05  t[s]:     49.24
	FillingsUpdate:  mu: -0.091568022  nElectrons: 9.000000  magneticMoment: [ Abs: 0.86044  Tot: -0.86000 ]
SCF: Cycle: 22   F: -24.444876666707025   dF: -4.397e-08   |Residual|: 2.490e-05   |deigs|: 9.160e-05  t[s]:     51.19
	FillingsUpdate:  mu: -0.091602046  nElectrons: 9.000000  magneticMoment: [ Abs: 0.86041  Tot: -0.86000 ]
SCF: Cycle: 23   F: -24.444876703498231   dF: -3.679e-08   |Residual|: 2.039e-05   |deigs|: 6.332e-05  t[s]:     53.22
	FillingsUpdate:  mu: -0.091590506  nElectrons: 9.000000  magneticMoment: [ Abs: 0.86033  Tot: -0.86000 ]
SCF: Cycle: 24   F: -24.444876712256750   dF: -8.759e-09   |Residual|: 1.831e-05   |deigs|: 7.253e-05  t[s]:     55.26
	FillingsUpdate:  mu: -0.091571559  nElectrons: 9.000000  magneticMoment: [ Abs: 0.86020  Tot: -0.86000 ]
SCF: Cycle: 25   F: -24.444876718129571   dF: -5.873e-09   |Residual|: 1.494e-05   |deigs|: 9.018e-05  t[s]:     57.22
SCF: Converged (|Delta E|<1.000000e-08 for 2 iters).


# Ionic positions in lattice coordinates:
ion Rb   0.000000000000000   0.000000000000000   0.000000000000000 0

# Forces in Lattice coordinates:
force Rb  -0.000000000000000   0.000000000000000   0.000000000000000 0

# Energy components:
   Eewald =      -18.0480261003326561
       EH =        1.6177372776305019
     Eloc =      -10.5287135888975207
      Enl =       -0.8001402335644908
   Epulay =        0.0000000035676145
      Exc =       -3.6811970954285340
       KE =        6.9954637699685325
-------------------------------------
     Etot =      -24.4448759670565536
       TS =        0.0000007510730185
-------------------------------------
        F =      -24.4448767181295707

IonicMinimize: Iter:   0  F: -24.444876718129571  |grad|_K:  0.000e+00  t[s]:     57.33
IonicMinimize: Converged (|grad|_K<1.000000e-04).

#--- Lowdin population analysis ---
# oxidation-state Rb +0.157
# magnetic-moments Rb -0.706

End date and time: Sun Feb  6 12:35:48 2022  (Duration: 0-0:00:57.36)
Done!
scale=3
magnetization=-0.86
--------------------------------------------------------------------------
The library attempted to open the following supporting CUDA libraries,
but each of them failed.  CUDA-aware support is disabled.
libcuda.so.1: cannot open shared object file: No such file or directory
libcuda.dylib: cannot open shared object file: No such file or directory
/usr/lib64/libcuda.so.1: cannot open shared object file: No such file or directory
/usr/lib64/libcuda.dylib: cannot open shared object file: No such file or directory
If you are not interested in CUDA-aware support, then run with
--mca opal_warn_on_missing_libcuda 0 to suppress this message.  If you are interested
in CUDA-aware support, then try setting LD_LIBRARY_PATH to the location
of libcuda.so.1 to get passed this issue.
--------------------------------------------------------------------------
--------------------------------------------------------------------------
No OpenFabrics connection schemes reported that they were able to be
used on a specific port.  As such, the openib BTL (OpenFabrics
support) will be disabled for this port.

  Local host:           d-6-8-2
  Local device:         mlx5_1
  Local port:           1
  CPCs attempted:       rdmacm, udcm
--------------------------------------------------------------------------

*************** JDFTx 1.6.0 (git hash 42ebbcc2) ***************

Start date and time: Sun Feb  6 12:35:50 2022
Executable jdftx with command-line: -i Alkali.in
Running on hosts (process indices):  d-6-8-2 (0-18)
Divided in process groups (process indices):  0 (0)  1 (1)  2 (2)  3 (3)  4 (4)  5 (5)  6 (6)  7 (7)  8 (8)  9 (9)  10 (10)  11 (11)  12 (12)  13 (13)  14 (14)  15 (15)  16 (16)  17 (17)  18 (18)
Resource initialization completed at t[s]:      0.00
Run totals: 19 processes, 48 threads, 0 GPUs


Input parsed successfully to the following command list (including defaults):

basis kpoint-dependent
coords-type Lattice
core-overlap-check vector
coulomb-interaction Slab 001
davidson-band-ratio 1.1
dump End None
dump-name $INPUT.$VAR
elec-cutoff 20
elec-eigen-algo Davidson
elec-ex-corr gga-PBE
elec-initial-magnetization -0.860000 yes
elec-smearing Fermi 1e-05
electronic-minimize  \
	dirUpdateScheme      FletcherReeves \
	linminMethod         DirUpdateRecommended \
	nIterations          100 \
	history              15 \
	knormThreshold       0 \
	energyDiffThreshold  1e-08 \
	nEnergyDiff          2 \
	alphaTstart          1 \
	alphaTmin            1e-10 \
	updateTestStepSize   yes \
	alphaTreduceFactor   0.1 \
	alphaTincreaseFactor 3 \
	nAlphaAdjustMax      3 \
	wolfeEnergy          0.0001 \
	wolfeGradient        0.9 \
	fdTest               no
electronic-scf  \
	nIterations	10000 \
	energyDiffThreshold	1e-08 \
	residualThreshold	1e-07 \
	mixFraction	0.5 \
	qMetric	0.8 \
	history	10 \
	nEigSteps	2 \
	eigDiffThreshold	1e-08 \
	mixedVariable	Density \
	qKerker	0.8 \
	qKappa	-1 \
	verbose	no \
	mixFractionMag	1.5
exchange-regularization WignerSeitzTruncated
fluid None
fluid-ex-corr (null) lda-PZ
fluid-gummel-loop 10 1.000000e-05
fluid-minimize  \
	dirUpdateScheme      PolakRibiere \
	linminMethod         DirUpdateRecommended \
	nIterations          100 \
	history              15 \
	knormThreshold       0 \
	energyDiffThreshold  0 \
	nEnergyDiff          2 \
	alphaTstart          1 \
	alphaTmin            1e-10 \
	updateTestStepSize   yes \
	alphaTreduceFactor   0.1 \
	alphaTincreaseFactor 3 \
	nAlphaAdjustMax      3 \
	wolfeEnergy          0.0001 \
	wolfeGradient        0.9 \
	fdTest               no
fluid-solvent H2O 55.338 ScalarEOS \
	epsBulk 78.4 \
	pMol 0.92466 \
	epsInf 1.77 \
	Pvap 1.06736e-10 \
	sigmaBulk 4.62e-05 \
	Rvdw 2.61727 \
	Res 1.42 \
	tauNuc 343133 \
	poleEl 15 7 1
forces-output-coords Positions
ion Rb   0.000000000000000   0.000000000000000   0.000000000000000 0
ion-species SG15/$ID_ONCV_PBE.upf
ion-width 0
ionic-minimize  \
	dirUpdateScheme      L-BFGS \
	linminMethod         DirUpdateRecommended \
	nIterations          0 \
	history              15 \
	knormThreshold       0.0001 \
	energyDiffThreshold  1e-06 \
	nEnergyDiff          2 \
	alphaTstart          1 \
	alphaTmin            1e-10 \
	updateTestStepSize   yes \
	alphaTreduceFactor   0.1 \
	alphaTincreaseFactor 3 \
	nAlphaAdjustMax      3 \
	wolfeEnergy          0.0001 \
	wolfeGradient        0.9 \
	fdTest               no
kpoint   0.000000000000   0.000000000000   0.000000000000  1.00000000000000
kpoint-folding 12 12 1 
latt-move-scale 1 1 1
latt-scale 3 3 1 
lattice  \
	   4.727486978767153   -2.363743489383575    0.000000000000000  \
	  -0.000000000000000    4.094123819672498    0.000000000000000  \
	   0.000000000000000    0.000000000000000   40.000000000000000 
lattice-minimize  \
	dirUpdateScheme      L-BFGS \
	linminMethod         DirUpdateRecommended \
	nIterations          0 \
	history              15 \
	knormThreshold       0 \
	energyDiffThreshold  1e-06 \
	nEnergyDiff          2 \
	alphaTstart          1 \
	alphaTmin            1e-10 \
	updateTestStepSize   yes \
	alphaTreduceFactor   0.1 \
	alphaTincreaseFactor 3 \
	nAlphaAdjustMax      3 \
	wolfeEnergy          0.0001 \
	wolfeGradient        0.9 \
	fdTest               no
lcao-params -1 1e-06 1e-05
pcm-variant GLSSA13
spintype z-spin
subspace-rotation-factor 1 yes
symmetries automatic
symmetry-threshold 0.0001



---------- Setting up symmetries ----------

Found 24 point-group symmetries of the bravais lattice
Found 24 space-group symmetries with basis
Applied RMS atom displacement 0 bohrs to make symmetries exact.

---------- Initializing the Grid ----------
R = 
[      14.1825     -7.09123            0  ]
[            0      12.2824            0  ]
[            0            0           40  ]
unit cell volume = 6967.77
G =
[   0.443025   0.255781         -0  ]
[          0   0.511561         -0  ]
[         -0         -0    0.15708  ]
Minimum fftbox size, Smin = [  60  60  164  ]
Chosen fftbox size, S = [  60  60  168  ]

---------- Exchange Correlation functional ----------
Initalized PBE GGA exchange.
Initalized PBE GGA correlation.

---------- Setting up pseudopotentials ----------
Width of ionic core gaussian charges (only for fluid interactions / plotting) set to 0

Reading pseudopotential file '/home/gridsan/aligho/DFT/build-Nov24/pseudopotentials/SG15/Rb_ONCV_PBE.upf':
  'Rb' pseudopotential, 'PBE' functional
  Generated using ONCVPSP code by D. R. Hamann
  Author: Martin Schlipf and Francois Gygi  Date: 150915.
  9 valence electrons, 3 orbitals, 6 projectors, 2308 radial grid points, with lMax = 2
  Transforming local potential to a uniform radial grid of dG=0.02 with 1489 points.
  Transforming nonlocal projectors to a uniform radial grid of dG=0.02 with 432 points.
    4S    l: 0   occupation:  2.0   eigenvalue: -1.172069
    4P    l: 1   occupation:  6.0   eigenvalue: -0.586674
    5S    l: 0   occupation:  1.0   eigenvalue: -0.082006
  Transforming atomic orbitals to a uniform radial grid of dG=0.02 with 432 points.
  Core radius for overlap checks: 2.60 bohrs.
  Reading pulay file /home/gridsan/aligho/DFT/build-Nov24/pseudopotentials/SG15/Rb_ONCV_PBE.pulay ... using dE_dnG = -1.360715e-05 computed for Ecut = 20.

Initialized 1 species with 1 total atoms.

Folded 1 k-points by 12x12x1 to 144 k-points.

---------- Setting up k-points, bands, fillings ----------
Reduced to 19 k-points under symmetry. 
Computing the number of bands and number of electrons
Calculating initial fillings.
nElectrons:   9.000000   nBands: 6   nStates: 38

----- Setting up reduced wavefunction bases (one per k-point) -----
average nbasis = 29766.104 , ideal nbasis = 29766.845

---------- Setting up coulomb interaction ----------
Initialized slab truncation along lattice direction 001

---------- Setting up 2D ewald sum ----------
Optimum gaussian width for ewald sums = 7.873530 bohr.
Real space sums over 289 unit cells with max indices [  8  8  0  ]
Reciprocal space sums over 81 terms with max indices [  4  4  0  ]

---------- Allocating electronic variables ----------
Initializing wave functions:  linear combination of atomic orbitals
Note: number of bands (6) exceeds available atomic orbitals (5)
Rb pseudo-atom occupations:   s ( 2 1 )  p ( 6 )
[d-6-8-2:79228] 18 more processes have sent help message help-mpi-common-cuda.txt / dlopen failed
[d-6-8-2:79228] Set MCA parameter "orte_base_help_aggregate" to 0 to see all help / error messages
[d-6-8-2:79228] 18 more processes have sent help message help-mpi-btl-openib-cpc-base.txt / no cpcs for port
	FillingsUpdate:  mu: -0.084988099  nElectrons: 9.000000  magneticMoment: [ Abs: 0.86000  Tot: -0.86000 ]
LCAOMinimize: Iter:   0  F: -24.4345193045202791  |grad|_K:  6.397e-06  alpha:  1.000e+00
	FillingsUpdate:  mu: -0.084987498  nElectrons: 9.000000  magneticMoment: [ Abs: 0.86000  Tot: -0.86000 ]
LCAOMinimize: Iter:   1  F: -24.4345193323821768  |grad|_K:  4.318e-08  alpha:  9.954e-01  linmin: -4.029e-03  cgtest:  7.784e-02  t[s]:      8.65
LCAOMinimize: Encountered beta<0, resetting CG.
	FillingsUpdate:  mu: -0.084987508  nElectrons: 9.000000  magneticMoment: [ Abs: 0.86000  Tot: -0.86000 ]
LCAOMinimize: Iter:   2  F: -24.4345193323835908  |grad|_K:  1.014e-09  alpha:  1.016e+00  linmin:  1.710e-01  cgtest: -9.535e-01  t[s]:     10.95
LCAOMinimize: Converged (|Delta F|<1.000000e-06 for 2 iters).


---- Citations for features of the code used in this run ----

   Software package:
      R. Sundararaman, K. Letchworth-Weaver, K.A. Schwarz, D. Gunceler, Y. Ozhabes and T.A. Arias, 'JDFTx: software for joint density-functional theory', SoftwareX 6, 278 (2017)

   gga-PBE exchange-correlation functional:
      J.P. Perdew, K. Burke and M. Ernzerhof, Phys. Rev. Lett. 77, 3865 (1996)

   Pseudopotentials:
      M Schlipf and F Gygi, Comput. Phys. Commun. 196, 36 (2015)

   Truncated Coulomb potentials:
      R. Sundararaman and T.A. Arias, Phys. Rev. B 87, 165122 (2013)

This list may not be complete. Please suggest additional citations or
report any other bugs at https://github.com/shankar1729/jdftx/issues

Initialization completed successfully at t[s]:     11.10


-------- Electronic minimization -----------
Will mix electronic density at each iteration.
	FillingsUpdate:  mu: -0.084987508  nElectrons: 9.000000  magneticMoment: [ Abs: 0.86000  Tot: -0.86000 ]
	FillingsUpdate:  mu: -0.085776978  nElectrons: 9.000000  magneticMoment: [ Abs: 0.86000  Tot: -0.86000 ]
SCF: Cycle:  0   F: -24.435834246326948   dF: -1.315e-03   |Residual|: 3.664e-03   |deigs|: 1.732e-01  t[s]:     15.77
	FillingsUpdate:  mu: -0.086126128  nElectrons: 9.000000  magneticMoment: [ Abs: 0.86206  Tot: -0.86000 ]
SCF: Cycle:  1   F: -24.435893223786373   dF: -5.898e-05   |Residual|: 2.578e-03   |deigs|: 4.702e-03  t[s]:     19.44
	FillingsUpdate:  mu: -0.086638005  nElectrons: 9.000000  magneticMoment: [ Abs: 0.86398  Tot: -0.86000 ]
SCF: Cycle:  2   F: -24.435928635602743   dF: -3.541e-05   |Residual|: 2.015e-03   |deigs|: 2.504e-03  t[s]:     23.14
	FillingsUpdate:  mu: -0.086981616  nElectrons: 9.000000  magneticMoment: [ Abs: 0.86511  Tot: -0.86000 ]
SCF: Cycle:  3   F: -24.435961048446881   dF: -3.241e-05   |Residual|: 1.533e-03   |deigs|: 3.065e-03  t[s]:     26.93
	FillingsUpdate:  mu: -0.086947798  nElectrons: 9.000000  magneticMoment: [ Abs: 0.86347  Tot: -0.86000 ]
SCF: Cycle:  4   F: -24.435988154659192   dF: -2.711e-05   |Residual|: 9.240e-04   |deigs|: 1.641e-03  t[s]:     30.73
	FillingsUpdate:  mu: -0.086702331  nElectrons: 9.000000  magneticMoment: [ Abs: 0.86411  Tot: -0.86000 ]
SCF: Cycle:  5   F: -24.435998640555631   dF: -1.049e-05   |Residual|: 5.134e-04   |deigs|: 1.371e-03  t[s]:     34.62
	FillingsUpdate:  mu: -0.086563532  nElectrons: 9.000000  magneticMoment: [ Abs: 0.86369  Tot: -0.86000 ]
SCF: Cycle:  6   F: -24.436002659249112   dF: -4.019e-06   |Residual|: 3.734e-04   |deigs|: 8.895e-04  t[s]:     38.53
	FillingsUpdate:  mu: -0.086382643  nElectrons: 9.000000  magneticMoment: [ Abs: 0.86400  Tot: -0.86000 ]
SCF: Cycle:  7   F: -24.436004978601257   dF: -2.319e-06   |Residual|: 2.855e-04   |deigs|: 2.267e-04  t[s]:     42.54
	FillingsUpdate:  mu: -0.085965505  nElectrons: 9.000000  magneticMoment: [ Abs: 0.86461  Tot: -0.86000 ]
SCF: Cycle:  8   F: -24.436004838831899   dF: +1.398e-07   |Residual|: 2.384e-04   |deigs|: 4.177e-04  t[s]:     46.66
	FillingsUpdate:  mu: -0.085644606  nElectrons: 9.000000  magneticMoment: [ Abs: 0.86475  Tot: -0.86000 ]
SCF: Cycle:  9   F: -24.436003649192994   dF: +1.190e-06   |Residual|: 2.227e-04   |deigs|: 4.197e-04  t[s]:     50.77
	FillingsUpdate:  mu: -0.085463267  nElectrons: 9.000000  magneticMoment: [ Abs: 0.86424  Tot: -0.86000 ]
SCF: Cycle: 10   F: -24.436005037576514   dF: -1.388e-06   |Residual|: 1.830e-04   |deigs|: 2.238e-04  t[s]:     54.96
	FillingsUpdate:  mu: -0.085437156  nElectrons: 9.000000  magneticMoment: [ Abs: 0.86501  Tot: -0.86000 ]
SCF: Cycle: 11   F: -24.436006294389291   dF: -1.257e-06   |Residual|: 1.367e-04   |deigs|: 2.181e-04  t[s]:     59.15
	FillingsUpdate:  mu: -0.085295405  nElectrons: 9.000000  magneticMoment: [ Abs: 0.86503  Tot: -0.86000 ]
SCF: Cycle: 12   F: -24.436007093456858   dF: -7.991e-07   |Residual|: 1.264e-04   |deigs|: 2.002e-04  t[s]:     63.35
	FillingsUpdate:  mu: -0.085030277  nElectrons: 9.000000  magneticMoment: [ Abs: 0.86510  Tot: -0.86000 ]
SCF: Cycle: 13   F: -24.436007187641600   dF: -9.418e-08   |Residual|: 1.265e-04   |deigs|: 3.126e-04  t[s]:     67.57
	FillingsUpdate:  mu: -0.084754133  nElectrons: 9.000000  magneticMoment: [ Abs: 0.86503  Tot: -0.86000 ]
SCF: Cycle: 14   F: -24.436006984531708   dF: +2.031e-07   |Residual|: 1.167e-04   |deigs|: 3.651e-04  t[s]:     71.80
	FillingsUpdate:  mu: -0.084611890  nElectrons: 9.000000  magneticMoment: [ Abs: 0.86482  Tot: -0.86000 ]
SCF: Cycle: 15   F: -24.436007517383143   dF: -5.329e-07   |Residual|: 9.938e-05   |deigs|: 2.107e-04  t[s]:     76.09
	FillingsUpdate:  mu: -0.084487006  nElectrons: 9.000000  magneticMoment: [ Abs: 0.86410  Tot: -0.86000 ]
SCF: Cycle: 16   F: -24.436008031195620   dF: -5.138e-07   |Residual|: 7.809e-05   |deigs|: 2.325e-04  t[s]:     80.26
	FillingsUpdate:  mu: -0.084351381  nElectrons: 9.000000  magneticMoment: [ Abs: 0.86388  Tot: -0.86000 ]
SCF: Cycle: 17   F: -24.436008371092107   dF: -3.399e-07   |Residual|: 5.844e-05   |deigs|: 1.557e-04  t[s]:     84.43
	FillingsUpdate:  mu: -0.084345831  nElectrons: 9.000000  magneticMoment: [ Abs: 0.86392  Tot: -0.86000 ]
SCF: Cycle: 18   F: -24.436008388152302   dF: -1.706e-08   |Residual|: 3.818e-05   |deigs|: 4.483e-05  t[s]:     88.61
	FillingsUpdate:  mu: -0.084323545  nElectrons: 9.000000  magneticMoment: [ Abs: 0.86392  Tot: -0.86000 ]
SCF: Cycle: 19   F: -24.436008596241852   dF: -2.081e-07   |Residual|: 2.365e-05   |deigs|: 4.289e-05  t[s]:     92.83
	FillingsUpdate:  mu: -0.084324875  nElectrons: 9.000000  magneticMoment: [ Abs: 0.86390  Tot: -0.86000 ]
SCF: Cycle: 20   F: -24.436008648701240   dF: -5.246e-08   |Residual|: 1.698e-05   |deigs|: 4.521e-05  t[s]:     96.92
	FillingsUpdate:  mu: -0.084332527  nElectrons: 9.000000  magneticMoment: [ Abs: 0.86391  Tot: -0.86000 ]
SCF: Cycle: 21   F: -24.436008664119413   dF: -1.542e-08   |Residual|: 1.071e-05   |deigs|: 4.183e-05  t[s]:    101.01
	FillingsUpdate:  mu: -0.084329243  nElectrons: 9.000000  magneticMoment: [ Abs: 0.86392  Tot: -0.86000 ]
SCF: Cycle: 22   F: -24.436008679971259   dF: -1.585e-08   |Residual|: 6.570e-06   |deigs|: 4.395e-05  t[s]:    105.15
	FillingsUpdate:  mu: -0.084333090  nElectrons: 9.000000  magneticMoment: [ Abs: 0.86394  Tot: -0.86000 ]
SCF: Cycle: 23   F: -24.436008686805760   dF: -6.835e-09   |Residual|: 4.616e-06   |deigs|: 4.627e-05  t[s]:    109.40
	FillingsUpdate:  mu: -0.084337984  nElectrons: 9.000000  magneticMoment: [ Abs: 0.86393  Tot: -0.86000 ]
SCF: Cycle: 24   F: -24.436008688440044   dF: -1.634e-09   |Residual|: 3.906e-06   |deigs|: 4.763e-05  t[s]:    113.66
SCF: Converged (|Delta E|<1.000000e-08 for 2 iters).


# Ionic positions in lattice coordinates:
ion Rb   0.000000000000000   0.000000000000000   0.000000000000000 0

# Forces in Lattice coordinates:
force Rb  -0.000000000000000   0.000000000000000   0.000000000000000 0

# Energy components:
   Eewald =      -12.0320174002217755
       EH =        7.5254467873326298
     Eloc =      -22.4398266309100443
      Enl =       -0.7955106923497328
   Epulay =       -0.0000000014467880
      Exc =       -3.6526789022054649
       KE =        6.9585789665183349
-------------------------------------
     Etot =      -24.4360078732828434
       TS =        0.0000008151572001
-------------------------------------
        F =      -24.4360086884400438

IonicMinimize: Iter:   0  F: -24.436008688440044  |grad|_K:  0.000e+00  t[s]:    113.92
IonicMinimize: Converged (|grad|_K<1.000000e-04).

#--- Lowdin population analysis ---
# oxidation-state Rb +0.032
# magnetic-moments Rb -0.830

End date and time: Sun Feb  6 12:37:44 2022  (Duration: 0-0:01:53.96)
Done!
scale=4
magnetization=-0.86
--------------------------------------------------------------------------
The library attempted to open the following supporting CUDA libraries,
but each of them failed.  CUDA-aware support is disabled.
libcuda.so.1: cannot open shared object file: No such file or directory
libcuda.dylib: cannot open shared object file: No such file or directory
/usr/lib64/libcuda.so.1: cannot open shared object file: No such file or directory
/usr/lib64/libcuda.dylib: cannot open shared object file: No such file or directory
If you are not interested in CUDA-aware support, then run with
--mca opal_warn_on_missing_libcuda 0 to suppress this message.  If you are interested
in CUDA-aware support, then try setting LD_LIBRARY_PATH to the location
of libcuda.so.1 to get passed this issue.
--------------------------------------------------------------------------
--------------------------------------------------------------------------
No OpenFabrics connection schemes reported that they were able to be
used on a specific port.  As such, the openib BTL (OpenFabrics
support) will be disabled for this port.

  Local host:           d-6-8-2
  Local device:         mlx5_1
  Local port:           1
  CPCs attempted:       rdmacm, udcm
--------------------------------------------------------------------------

*************** JDFTx 1.6.0 (git hash 42ebbcc2) ***************

Start date and time: Sun Feb  6 12:37:45 2022
Executable jdftx with command-line: -i Alkali.in
Running on hosts (process indices):  d-6-8-2 (0-18)
Divided in process groups (process indices):  0 (0)  1 (1)  2 (2)  3 (3)  4 (4)  5 (5)  6 (6)  7 (7)  8 (8)  9 (9)  10 (10)  11 (11)  12 (12)  13 (13)  14 (14)  15 (15)  16 (16)  17 (17)  18 (18)
Resource initialization completed at t[s]:      0.00
Run totals: 19 processes, 48 threads, 0 GPUs


Input parsed successfully to the following command list (including defaults):

basis kpoint-dependent
coords-type Lattice
core-overlap-check vector
coulomb-interaction Slab 001
davidson-band-ratio 1.1
dump End None
dump-name $INPUT.$VAR
elec-cutoff 20
elec-eigen-algo Davidson
elec-ex-corr gga-PBE
elec-initial-magnetization -0.860000 yes
elec-smearing Fermi 1e-05
electronic-minimize  \
	dirUpdateScheme      FletcherReeves \
	linminMethod         DirUpdateRecommended \
	nIterations          100 \
	history              15 \
	knormThreshold       0 \
	energyDiffThreshold  1e-08 \
	nEnergyDiff          2 \
	alphaTstart          1 \
	alphaTmin            1e-10 \
	updateTestStepSize   yes \
	alphaTreduceFactor   0.1 \
	alphaTincreaseFactor 3 \
	nAlphaAdjustMax      3 \
	wolfeEnergy          0.0001 \
	wolfeGradient        0.9 \
	fdTest               no
electronic-scf  \
	nIterations	10000 \
	energyDiffThreshold	1e-08 \
	residualThreshold	1e-07 \
	mixFraction	0.5 \
	qMetric	0.8 \
	history	10 \
	nEigSteps	2 \
	eigDiffThreshold	1e-08 \
	mixedVariable	Density \
	qKerker	0.8 \
	qKappa	-1 \
	verbose	no \
	mixFractionMag	1.5
exchange-regularization WignerSeitzTruncated
fluid None
fluid-ex-corr (null) lda-PZ
fluid-gummel-loop 10 1.000000e-05
fluid-minimize  \
	dirUpdateScheme      PolakRibiere \
	linminMethod         DirUpdateRecommended \
	nIterations          100 \
	history              15 \
	knormThreshold       0 \
	energyDiffThreshold  0 \
	nEnergyDiff          2 \
	alphaTstart          1 \
	alphaTmin            1e-10 \
	updateTestStepSize   yes \
	alphaTreduceFactor   0.1 \
	alphaTincreaseFactor 3 \
	nAlphaAdjustMax      3 \
	wolfeEnergy          0.0001 \
	wolfeGradient        0.9 \
	fdTest               no
fluid-solvent H2O 55.338 ScalarEOS \
	epsBulk 78.4 \
	pMol 0.92466 \
	epsInf 1.77 \
	Pvap 1.06736e-10 \
	sigmaBulk 4.62e-05 \
	Rvdw 2.61727 \
	Res 1.42 \
	tauNuc 343133 \
	poleEl 15 7 1
forces-output-coords Positions
ion Rb   0.000000000000000   0.000000000000000   0.000000000000000 0
ion-species SG15/$ID_ONCV_PBE.upf
ion-width 0
ionic-minimize  \
	dirUpdateScheme      L-BFGS \
	linminMethod         DirUpdateRecommended \
	nIterations          0 \
	history              15 \
	knormThreshold       0.0001 \
	energyDiffThreshold  1e-06 \
	nEnergyDiff          2 \
	alphaTstart          1 \
	alphaTmin            1e-10 \
	updateTestStepSize   yes \
	alphaTreduceFactor   0.1 \
	alphaTincreaseFactor 3 \
	nAlphaAdjustMax      3 \
	wolfeEnergy          0.0001 \
	wolfeGradient        0.9 \
	fdTest               no
kpoint   0.000000000000   0.000000000000   0.000000000000  1.00000000000000
kpoint-folding 12 12 1 
latt-move-scale 1 1 1
latt-scale 4 4 1 
lattice  \
	   4.727486978767153   -2.363743489383575    0.000000000000000  \
	  -0.000000000000000    4.094123819672498    0.000000000000000  \
	   0.000000000000000    0.000000000000000   40.000000000000000 
lattice-minimize  \
	dirUpdateScheme      L-BFGS \
	linminMethod         DirUpdateRecommended \
	nIterations          0 \
	history              15 \
	knormThreshold       0 \
	energyDiffThreshold  1e-06 \
	nEnergyDiff          2 \
	alphaTstart          1 \
	alphaTmin            1e-10 \
	updateTestStepSize   yes \
	alphaTreduceFactor   0.1 \
	alphaTincreaseFactor 3 \
	nAlphaAdjustMax      3 \
	wolfeEnergy          0.0001 \
	wolfeGradient        0.9 \
	fdTest               no
lcao-params -1 1e-06 1e-05
pcm-variant GLSSA13
spintype z-spin
subspace-rotation-factor 1 yes
symmetries automatic
symmetry-threshold 0.0001



---------- Setting up symmetries ----------

Found 24 point-group symmetries of the bravais lattice
Found 24 space-group symmetries with basis
Applied RMS atom displacement 0 bohrs to make symmetries exact.

---------- Initializing the Grid ----------
R = 
[      18.9099     -9.45497            0  ]
[            0      16.3765            0  ]
[            0            0           40  ]
unit cell volume = 12387.1
G =
[   0.332269   0.191835         -0  ]
[          0   0.383671         -0  ]
[         -0         -0    0.15708  ]
Minimum fftbox size, Smin = [  80  80  164  ]
Chosen fftbox size, S = [  80  80  168  ]

---------- Exchange Correlation functional ----------
Initalized PBE GGA exchange.
Initalized PBE GGA correlation.

---------- Setting up pseudopotentials ----------
Width of ionic core gaussian charges (only for fluid interactions / plotting) set to 0

Reading pseudopotential file '/home/gridsan/aligho/DFT/build-Nov24/pseudopotentials/SG15/Rb_ONCV_PBE.upf':
  'Rb' pseudopotential, 'PBE' functional
  Generated using ONCVPSP code by D. R. Hamann
  Author: Martin Schlipf and Francois Gygi  Date: 150915.
  9 valence electrons, 3 orbitals, 6 projectors, 2308 radial grid points, with lMax = 2
  Transforming local potential to a uniform radial grid of dG=0.02 with 1489 points.
  Transforming nonlocal projectors to a uniform radial grid of dG=0.02 with 432 points.
    4S    l: 0   occupation:  2.0   eigenvalue: -1.172069
    4P    l: 1   occupation:  6.0   eigenvalue: -0.586674
    5S    l: 0   occupation:  1.0   eigenvalue: -0.082006
  Transforming atomic orbitals to a uniform radial grid of dG=0.02 with 432 points.
  Core radius for overlap checks: 2.60 bohrs.
  Reading pulay file /home/gridsan/aligho/DFT/build-Nov24/pseudopotentials/SG15/Rb_ONCV_PBE.pulay ... using dE_dnG = -1.360715e-05 computed for Ecut = 20.

Initialized 1 species with 1 total atoms.

Folded 1 k-points by 12x12x1 to 144 k-points.

---------- Setting up k-points, bands, fillings ----------
Reduced to 19 k-points under symmetry. 
Computing the number of bands and number of electrons
Calculating initial fillings.
nElectrons:   9.000000   nBands: 6   nStates: 38

----- Setting up reduced wavefunction bases (one per k-point) -----
average nbasis = 52924.021 , ideal nbasis = 52918.836

---------- Setting up coulomb interaction ----------
Initialized slab truncation along lattice direction 001

---------- Setting up 2D ewald sum ----------
Optimum gaussian width for ewald sums = 10.498040 bohr.
Real space sums over 289 unit cells with max indices [  8  8  0  ]
Reciprocal space sums over 81 terms with max indices [  4  4  0  ]

---------- Allocating electronic variables ----------
Initializing wave functions:  linear combination of atomic orbitals
Note: number of bands (6) exceeds available atomic orbitals (5)
Rb pseudo-atom occupations:   s ( 2 1 )  p ( 6 )
[d-6-8-2:44116] 18 more processes have sent help message help-mpi-common-cuda.txt / dlopen failed
[d-6-8-2:44116] Set MCA parameter "orte_base_help_aggregate" to 0 to see all help / error messages
[d-6-8-2:44116] 18 more processes have sent help message help-mpi-btl-openib-cpc-base.txt / no cpcs for port
	FillingsUpdate:  mu: -0.081910914  nElectrons: 9.000000  magneticMoment: [ Abs: 0.86000  Tot: -0.86000 ]
LCAOMinimize: Iter:   0  F: -24.4329957147012600  |grad|_K:  1.473e-06  alpha:  1.000e+00
	FillingsUpdate:  mu: -0.081910607  nElectrons: 9.000000  magneticMoment: [ Abs: 0.86000  Tot: -0.86000 ]
LCAOMinimize: Iter:   1  F: -24.4329957161727407  |grad|_K:  8.000e-09  alpha:  9.919e-01  linmin: -7.619e-04  cgtest:  1.867e-02  t[s]:     14.86
LCAOMinimize: Encountered beta<0, resetting CG.
LCAOMinimize: 	Step increased F by 1.243450e-13, reducing alpha to 2.694008e-02.
LCAOMinimize: 	Step increased F by 7.105427e-15, reducing alpha to 2.694008e-03.
LCAOMinimize: 	Step increased F by 1.421085e-13, reducing alpha to 2.694008e-04.
LCAOMinimize: 	Step failed to reduce F after 3 attempts. Quitting step.
LCAOMinimize: 	Undoing step.
LCAOMinimize: 	Step failed along negative gradient direction.
LCAOMinimize: Probably at roundoff error limit. (Stopping)


---- Citations for features of the code used in this run ----

   Software package:
      R. Sundararaman, K. Letchworth-Weaver, K.A. Schwarz, D. Gunceler, Y. Ozhabes and T.A. Arias, 'JDFTx: software for joint density-functional theory', SoftwareX 6, 278 (2017)

   gga-PBE exchange-correlation functional:
      J.P. Perdew, K. Burke and M. Ernzerhof, Phys. Rev. Lett. 77, 3865 (1996)

   Pseudopotentials:
      M Schlipf and F Gygi, Comput. Phys. Commun. 196, 36 (2015)

   Truncated Coulomb potentials:
      R. Sundararaman and T.A. Arias, Phys. Rev. B 87, 165122 (2013)

This list may not be complete. Please suggest additional citations or
report any other bugs at https://github.com/shankar1729/jdftx/issues

Initialization completed successfully at t[s]:     25.97


-------- Electronic minimization -----------
Will mix electronic density at each iteration.
	FillingsUpdate:  mu: -0.081910607  nElectrons: 9.000000  magneticMoment: [ Abs: 0.86000  Tot: -0.86000 ]
	FillingsUpdate:  mu: -0.082037768  nElectrons: 9.000000  magneticMoment: [ Abs: 0.86000  Tot: -0.86000 ]
SCF: Cycle:  0   F: -24.433122981283528   dF: -1.273e-04   |Residual|: 1.991e-03   |deigs|: 1.666e-01  t[s]:     34.00
	FillingsUpdate:  mu: -0.082013162  nElectrons: 9.000000  magneticMoment: [ Abs: 0.86498  Tot: -0.86000 ]
SCF: Cycle:  1   F: -24.433125679358554   dF: -2.698e-06   |Residual|: 4.878e-04   |deigs|: 1.177e-02  t[s]:     40.41
	FillingsUpdate:  mu: -0.081958097  nElectrons: 9.000000  magneticMoment: [ Abs: 0.86487  Tot: -0.86000 ]
SCF: Cycle:  2   F: -24.433126342354697   dF: -6.630e-07   |Residual|: 3.154e-04   |deigs|: 1.847e-03  t[s]:     46.81
	FillingsUpdate:  mu: -0.081904417  nElectrons: 9.000000  magneticMoment: [ Abs: 0.86556  Tot: -0.86000 ]
SCF: Cycle:  3   F: -24.433126693060021   dF: -3.507e-07   |Residual|: 2.467e-04   |deigs|: 1.188e-03  t[s]:     53.42
	FillingsUpdate:  mu: -0.081769533  nElectrons: 9.000000  magneticMoment: [ Abs: 0.86550  Tot: -0.86000 ]
SCF: Cycle:  4   F: -24.433126904911600   dF: -2.119e-07   |Residual|: 1.596e-04   |deigs|: 5.831e-04  t[s]:     60.16
	FillingsUpdate:  mu: -0.081612743  nElectrons: 9.000000  magneticMoment: [ Abs: 0.86543  Tot: -0.86000 ]
SCF: Cycle:  5   F: -24.433127004694271   dF: -9.978e-08   |Residual|: 1.068e-04   |deigs|: 4.102e-04  t[s]:     66.96
	FillingsUpdate:  mu: -0.081571170  nElectrons: 9.000000  magneticMoment: [ Abs: 0.86534  Tot: -0.86000 ]
SCF: Cycle:  6   F: -24.433127138220897   dF: -1.335e-07   |Residual|: 8.245e-05   |deigs|: 4.359e-04  t[s]:     73.89
	FillingsUpdate:  mu: -0.081555079  nElectrons: 9.000000  magneticMoment: [ Abs: 0.86542  Tot: -0.86000 ]
SCF: Cycle:  7   F: -24.433127227800110   dF: -8.958e-08   |Residual|: 6.098e-05   |deigs|: 3.499e-04  t[s]:     80.91
	FillingsUpdate:  mu: -0.081533259  nElectrons: 9.000000  magneticMoment: [ Abs: 0.86540  Tot: -0.86000 ]
SCF: Cycle:  8   F: -24.433127272823803   dF: -4.502e-08   |Residual|: 5.187e-05   |deigs|: 1.943e-04  t[s]:     87.98
	FillingsUpdate:  mu: -0.081509560  nElectrons: 9.000000  magneticMoment: [ Abs: 0.86540  Tot: -0.86000 ]
SCF: Cycle:  9   F: -24.433127227339142   dF: +4.548e-08   |Residual|: 4.373e-05   |deigs|: 1.348e-04  t[s]:     95.25
	FillingsUpdate:  mu: -0.081483026  nElectrons: 9.000000  magneticMoment: [ Abs: 0.86544  Tot: -0.86000 ]
SCF: Cycle: 10   F: -24.433127130286586   dF: +9.705e-08   |Residual|: 3.775e-05   |deigs|: 8.697e-05  t[s]:    102.51
	FillingsUpdate:  mu: -0.081442834  nElectrons: 9.000000  magneticMoment: [ Abs: 0.86553  Tot: -0.86000 ]
SCF: Cycle: 11   F: -24.433126933716490   dF: +1.966e-07   |Residual|: 3.324e-05   |deigs|: 6.351e-05  t[s]:    109.88
	FillingsUpdate:  mu: -0.081418576  nElectrons: 9.000000  magneticMoment: [ Abs: 0.86568  Tot: -0.86000 ]
SCF: Cycle: 12   F: -24.433126758221938   dF: +1.755e-07   |Residual|: 2.939e-05   |deigs|: 3.682e-05  t[s]:    117.18
	FillingsUpdate:  mu: -0.081405968  nElectrons: 9.000000  magneticMoment: [ Abs: 0.86559  Tot: -0.86000 ]
SCF: Cycle: 13   F: -24.433126884081155   dF: -1.259e-07   |Residual|: 2.632e-05   |deigs|: 3.173e-05  t[s]:    124.59
	FillingsUpdate:  mu: -0.081356706  nElectrons: 9.000000  magneticMoment: [ Abs: 0.86557  Tot: -0.86000 ]
SCF: Cycle: 14   F: -24.433127181122529   dF: -2.970e-07   |Residual|: 2.410e-05   |deigs|: 5.432e-05  t[s]:    131.88
	FillingsUpdate:  mu: -0.081326523  nElectrons: 9.000000  magneticMoment: [ Abs: 0.86554  Tot: -0.86000 ]
SCF: Cycle: 15   F: -24.433127072539556   dF: +1.086e-07   |Residual|: 2.372e-05   |deigs|: 4.407e-05  t[s]:    138.78
	FillingsUpdate:  mu: -0.081298154  nElectrons: 9.000000  magneticMoment: [ Abs: 0.86542  Tot: -0.86000 ]
SCF: Cycle: 16   F: -24.433127138085222   dF: -6.555e-08   |Residual|: 2.176e-05   |deigs|: 4.451e-05  t[s]:    145.92
	FillingsUpdate:  mu: -0.081286234  nElectrons: 9.000000  magneticMoment: [ Abs: 0.86545  Tot: -0.86000 ]
SCF: Cycle: 17   F: -24.433127124644841   dF: +1.344e-08   |Residual|: 1.358e-05   |deigs|: 3.859e-05  t[s]:    153.25
	FillingsUpdate:  mu: -0.081277530  nElectrons: 9.000000  magneticMoment: [ Abs: 0.86542  Tot: -0.86000 ]
SCF: Cycle: 18   F: -24.433127267871345   dF: -1.432e-07   |Residual|: 1.009e-05   |deigs|: 3.855e-05  t[s]:    160.64
	FillingsUpdate:  mu: -0.081272328  nElectrons: 9.000000  magneticMoment: [ Abs: 0.86540  Tot: -0.86000 ]
SCF: Cycle: 19   F: -24.433127354480362   dF: -8.661e-08   |Residual|: 7.331e-06   |deigs|: 4.162e-05  t[s]:    167.51
	FillingsUpdate:  mu: -0.081265851  nElectrons: 9.000000  magneticMoment: [ Abs: 0.86541  Tot: -0.86000 ]
SCF: Cycle: 20   F: -24.433127362153854   dF: -7.673e-09   |Residual|: 4.975e-06   |deigs|: 4.296e-05  t[s]:    174.46
	FillingsUpdate:  mu: -0.081265046  nElectrons: 9.000000  magneticMoment: [ Abs: 0.86540  Tot: -0.86000 ]
SCF: Cycle: 21   F: -24.433127385087012   dF: -2.293e-08   |Residual|: 3.703e-06   |deigs|: 4.218e-05  t[s]:    181.75
	FillingsUpdate:  mu: -0.081265051  nElectrons: 9.000000  magneticMoment: [ Abs: 0.86539  Tot: -0.86000 ]
SCF: Cycle: 22   F: -24.433127386020868   dF: -9.339e-10   |Residual|: 2.641e-06   |deigs|: 3.822e-05  t[s]:    188.69
	FillingsUpdate:  mu: -0.081264216  nElectrons: 9.000000  magneticMoment: [ Abs: 0.86540  Tot: -0.86000 ]
SCF: Cycle: 23   F: -24.433127389813848   dF: -3.793e-09   |Residual|: 2.141e-06   |deigs|: 3.246e-05  t[s]:    195.94
SCF: Converged (|Delta E|<1.000000e-08 for 2 iters).


# Ionic positions in lattice coordinates:
ion Rb   0.000000000000000   0.000000000000000   0.000000000000000 0

# Forces in Lattice coordinates:
force Rb   0.000000000000000   0.000000000000000   0.000000000000000 0

# Energy components:
   Eewald =       -9.0240130501663280
       EH =       10.5498039242700496
     Eloc =      -28.4760464651337770
      Enl =       -0.7921081216671362
   Epulay =        0.0000000056959385
      Exc =       -3.6541383897289643
       KE =        6.9633755220740774
-------------------------------------
     Etot =      -24.4331265746561428
       TS =        0.0000008151577045
-------------------------------------
        F =      -24.4331273898138477

IonicMinimize: Iter:   0  F: -24.433127389813848  |grad|_K:  0.000e+00  t[s]:    196.34
IonicMinimize: Converged (|grad|_K<1.000000e-04).

#--- Lowdin population analysis ---
# oxidation-state Rb +0.001
# magnetic-moments Rb -0.859

End date and time: Sun Feb  6 12:41:01 2022  (Duration: 0-0:03:16.40)
Done!
