The alkali metal is Rb
scale=2
magnetization=-0.76
--------------------------------------------------------------------------
The library attempted to open the following supporting CUDA libraries,
but each of them failed.  CUDA-aware support is disabled.
libcuda.so.1: cannot open shared object file: No such file or directory
libcuda.dylib: cannot open shared object file: No such file or directory
/usr/lib64/libcuda.so.1: cannot open shared object file: No such file or directory
/usr/lib64/libcuda.dylib: cannot open shared object file: No such file or directory
If you are not interested in CUDA-aware support, then run with
--mca opal_warn_on_missing_libcuda 0 to suppress this message.  If you are interested
in CUDA-aware support, then try setting LD_LIBRARY_PATH to the location
of libcuda.so.1 to get passed this issue.
--------------------------------------------------------------------------
--------------------------------------------------------------------------
No OpenFabrics connection schemes reported that they were able to be
used on a specific port.  As such, the openib BTL (OpenFabrics
support) will be disabled for this port.

  Local host:           d-16-8-3
  Local device:         mlx5_1
  Local port:           1
  CPCs attempted:       rdmacm, udcm
--------------------------------------------------------------------------

*************** JDFTx 1.6.0 (git hash 42ebbcc2) ***************

Start date and time: Sun Feb  6 12:34:51 2022
Executable jdftx with command-line: -i Alkali.in
Running on hosts (process indices):  d-16-8-3 (0-18)
Divided in process groups (process indices):  0 (0)  1 (1)  2 (2)  3 (3)  4 (4)  5 (5)  6 (6)  7 (7)  8 (8)  9 (9)  10 (10)  11 (11)  12 (12)  13 (13)  14 (14)  15 (15)  16 (16)  17 (17)  18 (18)
Resource initialization completed at t[s]:      0.00
Run totals: 19 processes, 48 threads, 0 GPUs


Input parsed successfully to the following command list (including defaults):

basis kpoint-dependent
coords-type Lattice
core-overlap-check vector
coulomb-interaction Slab 001
davidson-band-ratio 1.1
dump End None
dump-name $INPUT.$VAR
elec-cutoff 20
elec-eigen-algo Davidson
elec-ex-corr gga-PBE
elec-initial-magnetization -0.760000 yes
elec-smearing Fermi 1e-05
electronic-minimize  \
	dirUpdateScheme      FletcherReeves \
	linminMethod         DirUpdateRecommended \
	nIterations          100 \
	history              15 \
	knormThreshold       0 \
	energyDiffThreshold  1e-08 \
	nEnergyDiff          2 \
	alphaTstart          1 \
	alphaTmin            1e-10 \
	updateTestStepSize   yes \
	alphaTreduceFactor   0.1 \
	alphaTincreaseFactor 3 \
	nAlphaAdjustMax      3 \
	wolfeEnergy          0.0001 \
	wolfeGradient        0.9 \
	fdTest               no
electronic-scf  \
	nIterations	10000 \
	energyDiffThreshold	1e-08 \
	residualThreshold	1e-07 \
	mixFraction	0.5 \
	qMetric	0.8 \
	history	10 \
	nEigSteps	2 \
	eigDiffThreshold	1e-08 \
	mixedVariable	Density \
	qKerker	0.8 \
	qKappa	-1 \
	verbose	no \
	mixFractionMag	1.5
exchange-regularization WignerSeitzTruncated
fluid None
fluid-ex-corr (null) lda-PZ
fluid-gummel-loop 10 1.000000e-05
fluid-minimize  \
	dirUpdateScheme      PolakRibiere \
	linminMethod         DirUpdateRecommended \
	nIterations          100 \
	history              15 \
	knormThreshold       0 \
	energyDiffThreshold  0 \
	nEnergyDiff          2 \
	alphaTstart          1 \
	alphaTmin            1e-10 \
	updateTestStepSize   yes \
	alphaTreduceFactor   0.1 \
	alphaTincreaseFactor 3 \
	nAlphaAdjustMax      3 \
	wolfeEnergy          0.0001 \
	wolfeGradient        0.9 \
	fdTest               no
fluid-solvent H2O 55.338 ScalarEOS \
	epsBulk 78.4 \
	pMol 0.92466 \
	epsInf 1.77 \
	Pvap 1.06736e-10 \
	sigmaBulk 4.62e-05 \
	Rvdw 2.61727 \
	Res 1.42 \
	tauNuc 343133 \
	poleEl 15 7 1
forces-output-coords Positions
ion Rb   0.000000000000000   0.000000000000000   0.000000000000000 0
ion-species SG15/$ID_ONCV_PBE.upf
ion-width 0
ionic-minimize  \
	dirUpdateScheme      L-BFGS \
	linminMethod         DirUpdateRecommended \
	nIterations          0 \
	history              15 \
	knormThreshold       0.0001 \
	energyDiffThreshold  1e-06 \
	nEnergyDiff          2 \
	alphaTstart          1 \
	alphaTmin            1e-10 \
	updateTestStepSize   yes \
	alphaTreduceFactor   0.1 \
	alphaTincreaseFactor 3 \
	nAlphaAdjustMax      3 \
	wolfeEnergy          0.0001 \
	wolfeGradient        0.9 \
	fdTest               no
kpoint   0.000000000000   0.000000000000   0.000000000000  1.00000000000000
kpoint-folding 12 12 1 
latt-move-scale 1 1 1
latt-scale 2 2 1 
lattice  \
	   4.727486978767153   -2.363743489383575    0.000000000000000  \
	  -0.000000000000000    4.094123819672498    0.000000000000000  \
	   0.000000000000000    0.000000000000000   40.000000000000000 
lattice-minimize  \
	dirUpdateScheme      L-BFGS \
	linminMethod         DirUpdateRecommended \
	nIterations          0 \
	history              15 \
	knormThreshold       0 \
	energyDiffThreshold  1e-06 \
	nEnergyDiff          2 \
	alphaTstart          1 \
	alphaTmin            1e-10 \
	updateTestStepSize   yes \
	alphaTreduceFactor   0.1 \
	alphaTincreaseFactor 3 \
	nAlphaAdjustMax      3 \
	wolfeEnergy          0.0001 \
	wolfeGradient        0.9 \
	fdTest               no
lcao-params -1 1e-06 1e-05
pcm-variant GLSSA13
spintype z-spin
subspace-rotation-factor 1 yes
symmetries automatic
symmetry-threshold 0.0001



---------- Setting up symmetries ----------

Found 24 point-group symmetries of the bravais lattice
Found 24 space-group symmetries with basis
Applied RMS atom displacement 0 bohrs to make symmetries exact.

---------- Initializing the Grid ----------
R = 
[      9.45497     -4.72749            0  ]
[            0      8.18825            0  ]
[            0            0           40  ]
unit cell volume = 3096.79
G =
[   0.664538   0.383671         -0  ]
[          0   0.767342         -0  ]
[         -0         -0    0.15708  ]
Minimum fftbox size, Smin = [  40  40  164  ]
Chosen fftbox size, S = [  40  40  168  ]

---------- Exchange Correlation functional ----------
Initalized PBE GGA exchange.
Initalized PBE GGA correlation.

---------- Setting up pseudopotentials ----------
Width of ionic core gaussian charges (only for fluid interactions / plotting) set to 0

Reading pseudopotential file '/home/gridsan/aligho/DFT/build-Nov24/pseudopotentials/SG15/Rb_ONCV_PBE.upf':
  'Rb' pseudopotential, 'PBE' functional
  Generated using ONCVPSP code by D. R. Hamann
  Author: Martin Schlipf and Francois Gygi  Date: 150915.
  9 valence electrons, 3 orbitals, 6 projectors, 2308 radial grid points, with lMax = 2
  Transforming local potential to a uniform radial grid of dG=0.02 with 1489 points.
  Transforming nonlocal projectors to a uniform radial grid of dG=0.02 with 432 points.
    4S    l: 0   occupation:  2.0   eigenvalue: -1.172069
    4P    l: 1   occupation:  6.0   eigenvalue: -0.586674
    5S    l: 0   occupation:  1.0   eigenvalue: -0.082006
  Transforming atomic orbitals to a uniform radial grid of dG=0.02 with 432 points.
  Core radius for overlap checks: 2.60 bohrs.
  Reading pulay file /home/gridsan/aligho/DFT/build-Nov24/pseudopotentials/SG15/Rb_ONCV_PBE.pulay ... using dE_dnG = -1.360715e-05 computed for Ecut = 20.

Initialized 1 species with 1 total atoms.

Folded 1 k-points by 12x12x1 to 144 k-points.

---------- Setting up k-points, bands, fillings ----------
Reduced to 19 k-points under symmetry. 
Computing the number of bands and number of electrons
Calculating initial fillings.
nElectrons:   9.000000   nBands: 6   nStates: 38

----- Setting up reduced wavefunction bases (one per k-point) -----
average nbasis = 13230.521 , ideal nbasis = 13229.709

---------- Setting up coulomb interaction ----------
Initialized slab truncation along lattice direction 001

---------- Setting up 2D ewald sum ----------
Optimum gaussian width for ewald sums = 5.249020 bohr.
Real space sums over 289 unit cells with max indices [  8  8  0  ]
Reciprocal space sums over 81 terms with max indices [  4  4  0  ]

---------- Allocating electronic variables ----------
Initializing wave functions:  linear combination of atomic orbitals
Note: number of bands (6) exceeds available atomic orbitals (5)
Rb pseudo-atom occupations:   s ( 2 1 )  p ( 6 )
	FillingsUpdate:  mu: -0.092680832  nElectrons: 9.000000  magneticMoment: [ Abs: 0.76000  Tot: -0.76000 ]
LCAOMinimize: Iter:   0  F: -24.4374069666155869  |grad|_K:  1.831e-05  alpha:  1.000e+00
	FillingsUpdate:  mu: -0.092675053  nElectrons: 9.000000  magneticMoment: [ Abs: 0.76000  Tot: -0.76000 ]
LCAOMinimize: Iter:   1  F: -24.4374071912996023  |grad|_K:  1.762e-07  alpha:  9.800e-01  linmin: -1.792e-02  cgtest:  2.472e-01  t[s]:      4.63
LCAOMinimize: Encountered beta<0, resetting CG.
[d-16-8-3:76201] 18 more processes have sent help message help-mpi-common-cuda.txt / dlopen failed
[d-16-8-3:76201] Set MCA parameter "orte_base_help_aggregate" to 0 to see all help / error messages
[d-16-8-3:76201] 18 more processes have sent help message help-mpi-btl-openib-cpc-base.txt / no cpcs for port
	FillingsUpdate:  mu: -0.092675109  nElectrons: 9.000000  magneticMoment: [ Abs: 0.76000  Tot: -0.76000 ]
LCAOMinimize: Iter:   2  F: -24.4374071913213236  |grad|_K:  1.981e-09  alpha:  1.011e+00  linmin:  1.270e-01  cgtest: -8.956e-01  t[s]:      5.83
LCAOMinimize: Converged (|Delta F|<1.000000e-06 for 2 iters).


---- Citations for features of the code used in this run ----

   Software package:
      R. Sundararaman, K. Letchworth-Weaver, K.A. Schwarz, D. Gunceler, Y. Ozhabes and T.A. Arias, 'JDFTx: software for joint density-functional theory', SoftwareX 6, 278 (2017)

   gga-PBE exchange-correlation functional:
      J.P. Perdew, K. Burke and M. Ernzerhof, Phys. Rev. Lett. 77, 3865 (1996)

   Pseudopotentials:
      M Schlipf and F Gygi, Comput. Phys. Commun. 196, 36 (2015)

   Truncated Coulomb potentials:
      R. Sundararaman and T.A. Arias, Phys. Rev. B 87, 165122 (2013)

This list may not be complete. Please suggest additional citations or
report any other bugs at https://github.com/shankar1729/jdftx/issues

Initialization completed successfully at t[s]:      5.92


-------- Electronic minimization -----------
Will mix electronic density at each iteration.
	FillingsUpdate:  mu: -0.092675109  nElectrons: 9.000000  magneticMoment: [ Abs: 0.76000  Tot: -0.76000 ]
	FillingsUpdate:  mu: -0.103503208  nElectrons: 9.000000  magneticMoment: [ Abs: 0.76000  Tot: -0.76000 ]
SCF: Cycle:  0   F: -24.446407306488830   dF: -9.000e-03   |Residual|: 1.470e-02   |deigs|: 1.774e-01  t[s]:      8.28
	FillingsUpdate:  mu: -0.107521570  nElectrons: 9.000000  magneticMoment: [ Abs: 0.76000  Tot: -0.76000 ]
SCF: Cycle:  1   F: -24.446870671085861   dF: -4.634e-04   |Residual|: 9.888e-03   |deigs|: 8.448e-03  t[s]:     10.11
	FillingsUpdate:  mu: -0.106398826  nElectrons: 9.000000  magneticMoment: [ Abs: 0.76208  Tot: -0.76000 ]
SCF: Cycle:  2   F: -24.447111297593942   dF: -2.406e-04   |Residual|: 5.932e-03   |deigs|: 2.953e-03  t[s]:     11.90
	FillingsUpdate:  mu: -0.103424872  nElectrons: 9.000000  magneticMoment: [ Abs: 0.76027  Tot: -0.76000 ]
SCF: Cycle:  3   F: -24.447207400118703   dF: -9.610e-05   |Residual|: 3.390e-03   |deigs|: 1.867e-03  t[s]:     13.77
	FillingsUpdate:  mu: -0.101525882  nElectrons: 9.000000  magneticMoment: [ Abs: 0.76030  Tot: -0.76000 ]
SCF: Cycle:  4   F: -24.447262106807024   dF: -5.471e-05   |Residual|: 2.212e-03   |deigs|: 2.396e-03  t[s]:     15.68
	FillingsUpdate:  mu: -0.100128930  nElectrons: 9.000000  magneticMoment: [ Abs: 0.76014  Tot: -0.76000 ]
SCF: Cycle:  5   F: -24.447285885164032   dF: -2.378e-05   |Residual|: 1.652e-03   |deigs|: 3.059e-03  t[s]:     17.55
	FillingsUpdate:  mu: -0.096964521  nElectrons: 9.000000  magneticMoment: [ Abs: 0.76254  Tot: -0.76000 ]
SCF: Cycle:  6   F: -24.447286800491753   dF: -9.153e-07   |Residual|: 1.283e-03   |deigs|: 3.876e-03  t[s]:     19.44
	FillingsUpdate:  mu: -0.094941958  nElectrons: 9.000000  magneticMoment: [ Abs: 0.76408  Tot: -0.76000 ]
SCF: Cycle:  7   F: -24.447297164705827   dF: -1.036e-05   |Residual|: 1.107e-03   |deigs|: 2.462e-03  t[s]:     21.37
	FillingsUpdate:  mu: -0.094672647  nElectrons: 9.000000  magneticMoment: [ Abs: 0.76079  Tot: -0.76000 ]
SCF: Cycle:  8   F: -24.447320058202710   dF: -2.289e-05   |Residual|: 8.731e-04   |deigs|: 6.750e-04  t[s]:     23.31
	FillingsUpdate:  mu: -0.094797900  nElectrons: 9.000000  magneticMoment: [ Abs: 0.76092  Tot: -0.76000 ]
SCF: Cycle:  9   F: -24.447329705640147   dF: -9.647e-06   |Residual|: 6.614e-04   |deigs|: 4.141e-04  t[s]:     25.36
	FillingsUpdate:  mu: -0.093253781  nElectrons: 9.000000  magneticMoment: [ Abs: 0.76290  Tot: -0.76000 ]
SCF: Cycle: 10   F: -24.447326169729987   dF: +3.536e-06   |Residual|: 5.757e-04   |deigs|: 1.724e-03  t[s]:     27.34
	FillingsUpdate:  mu: -0.092221245  nElectrons: 9.000000  magneticMoment: [ Abs: 0.76314  Tot: -0.76000 ]
SCF: Cycle: 11   F: -24.447329830140323   dF: -3.660e-06   |Residual|: 5.296e-04   |deigs|: 1.183e-03  t[s]:     29.31
	FillingsUpdate:  mu: -0.091583401  nElectrons: 9.000000  magneticMoment: [ Abs: 0.76377  Tot: -0.76000 ]
SCF: Cycle: 12   F: -24.447336566080917   dF: -6.736e-06   |Residual|: 4.826e-04   |deigs|: 8.123e-04  t[s]:     31.30
	FillingsUpdate:  mu: -0.090538201  nElectrons: 9.000000  magneticMoment: [ Abs: 0.76392  Tot: -0.76000 ]
SCF: Cycle: 13   F: -24.447339128849681   dF: -2.563e-06   |Residual|: 4.192e-04   |deigs|: 1.185e-03  t[s]:     33.32
	FillingsUpdate:  mu: -0.088639863  nElectrons: 9.000000  magneticMoment: [ Abs: 0.76170  Tot: -0.76000 ]
SCF: Cycle: 14   F: -24.447343650650630   dF: -4.522e-06   |Residual|: 3.944e-04   |deigs|: 2.181e-03  t[s]:     35.32
	FillingsUpdate:  mu: -0.088479846  nElectrons: 9.000000  magneticMoment: [ Abs: 0.76124  Tot: -0.76000 ]
SCF: Cycle: 15   F: -24.447346014286850   dF: -2.364e-06   |Residual|: 3.307e-04   |deigs|: 3.120e-04  t[s]:     37.26
	FillingsUpdate:  mu: -0.087982449  nElectrons: 9.000000  magneticMoment: [ Abs: 0.76070  Tot: -0.76000 ]
SCF: Cycle: 16   F: -24.447348824865834   dF: -2.811e-06   |Residual|: 2.055e-04   |deigs|: 7.429e-04  t[s]:     39.24
	FillingsUpdate:  mu: -0.087580479  nElectrons: 9.000000  magneticMoment: [ Abs: 0.76029  Tot: -0.76000 ]
SCF: Cycle: 17   F: -24.447349868531116   dF: -1.044e-06   |Residual|: 1.460e-04   |deigs|: 6.066e-04  t[s]:     41.25
	FillingsUpdate:  mu: -0.087620770  nElectrons: 9.000000  magneticMoment: [ Abs: 0.76073  Tot: -0.76000 ]
SCF: Cycle: 18   F: -24.447350415903497   dF: -5.474e-07   |Residual|: 9.563e-05   |deigs|: 1.528e-04  t[s]:     43.23
	FillingsUpdate:  mu: -0.087701548  nElectrons: 9.000000  magneticMoment: [ Abs: 0.76068  Tot: -0.76000 ]
SCF: Cycle: 19   F: -24.447350654538155   dF: -2.386e-07   |Residual|: 6.136e-05   |deigs|: 1.562e-04  t[s]:     45.17
	FillingsUpdate:  mu: -0.087750594  nElectrons: 9.000000  magneticMoment: [ Abs: 0.76047  Tot: -0.76000 ]
SCF: Cycle: 20   F: -24.447350803490036   dF: -1.490e-07   |Residual|: 3.832e-05   |deigs|: 1.080e-04  t[s]:     47.15
	FillingsUpdate:  mu: -0.087790404  nElectrons: 9.000000  magneticMoment: [ Abs: 0.76048  Tot: -0.76000 ]
SCF: Cycle: 21   F: -24.447350872769224   dF: -6.928e-08   |Residual|: 2.647e-05   |deigs|: 8.236e-05  t[s]:     49.11
	FillingsUpdate:  mu: -0.087803800  nElectrons: 9.000000  magneticMoment: [ Abs: 0.76043  Tot: -0.76000 ]
SCF: Cycle: 22   F: -24.447350896867999   dF: -2.410e-08   |Residual|: 1.893e-05   |deigs|: 6.970e-05  t[s]:     51.06
	FillingsUpdate:  mu: -0.087784777  nElectrons: 9.000000  magneticMoment: [ Abs: 0.76037  Tot: -0.76000 ]
SCF: Cycle: 23   F: -24.447350922669674   dF: -2.580e-08   |Residual|: 1.645e-05   |deigs|: 6.116e-05  t[s]:     53.04
	FillingsUpdate:  mu: -0.087769282  nElectrons: 9.000000  magneticMoment: [ Abs: 0.76029  Tot: -0.76000 ]
SCF: Cycle: 24   F: -24.447350931178541   dF: -8.509e-09   |Residual|: 1.644e-05   |deigs|: 5.524e-05  t[s]:     55.00
	FillingsUpdate:  mu: -0.087752117  nElectrons: 9.000000  magneticMoment: [ Abs: 0.76021  Tot: -0.76000 ]
SCF: Cycle: 25   F: -24.447350949326843   dF: -1.815e-08   |Residual|: 1.338e-05   |deigs|: 5.000e-05  t[s]:     57.13
	FillingsUpdate:  mu: -0.087751384  nElectrons: 9.000000  magneticMoment: [ Abs: 0.76014  Tot: -0.76000 ]
SCF: Cycle: 26   F: -24.447350954329625   dF: -5.003e-09   |Residual|: 7.669e-06   |deigs|: 3.436e-05  t[s]:     59.17
	FillingsUpdate:  mu: -0.087751591  nElectrons: 9.000000  magneticMoment: [ Abs: 0.76010  Tot: -0.76000 ]
SCF: Cycle: 27   F: -24.447350958331842   dF: -4.002e-09   |Residual|: 4.235e-06   |deigs|: 4.255e-05  t[s]:     61.16
SCF: Converged (|Delta E|<1.000000e-08 for 2 iters).


# Ionic positions in lattice coordinates:
ion Rb   0.000000000000000   0.000000000000000   0.000000000000000 0

# Forces in Lattice coordinates:
force Rb  -0.000000000000000   0.000000000000000   0.000000000000000 0

# Energy components:
   Eewald =      -18.0480261003326561
       EH =        1.6515488447501308
     Eloc =      -10.5630595051368221
      Enl =       -0.7987553721478675
   Epulay =        0.0000000035676145
      Exc =       -3.6811067215567741
       KE =        6.9920483918078862
-------------------------------------
     Etot =      -24.4473504590484865
       TS =        0.0000004992833547
-------------------------------------
        F =      -24.4473509583318425

IonicMinimize: Iter:   0  F: -24.447350958331842  |grad|_K:  0.000e+00  t[s]:     61.32
IonicMinimize: Converged (|grad|_K<1.000000e-04).

#--- Lowdin population analysis ---
# oxidation-state Rb +0.114
# magnetic-moments Rb -0.651

End date and time: Sun Feb  6 12:35:53 2022  (Duration: 0-0:01:01.35)
Done!
scale=3
magnetization=-0.76
--------------------------------------------------------------------------
The library attempted to open the following supporting CUDA libraries,
but each of them failed.  CUDA-aware support is disabled.
libcuda.so.1: cannot open shared object file: No such file or directory
libcuda.dylib: cannot open shared object file: No such file or directory
/usr/lib64/libcuda.so.1: cannot open shared object file: No such file or directory
/usr/lib64/libcuda.dylib: cannot open shared object file: No such file or directory
If you are not interested in CUDA-aware support, then run with
--mca opal_warn_on_missing_libcuda 0 to suppress this message.  If you are interested
in CUDA-aware support, then try setting LD_LIBRARY_PATH to the location
of libcuda.so.1 to get passed this issue.
--------------------------------------------------------------------------
--------------------------------------------------------------------------
No OpenFabrics connection schemes reported that they were able to be
used on a specific port.  As such, the openib BTL (OpenFabrics
support) will be disabled for this port.

  Local host:           d-16-8-3
  Local device:         mlx5_1
  Local port:           1
  CPCs attempted:       rdmacm, udcm
--------------------------------------------------------------------------

*************** JDFTx 1.6.0 (git hash 42ebbcc2) ***************

Start date and time: Sun Feb  6 12:35:55 2022
Executable jdftx with command-line: -i Alkali.in
Running on hosts (process indices):  d-16-8-3 (0-18)
Divided in process groups (process indices):  0 (0)  1 (1)  2 (2)  3 (3)  4 (4)  5 (5)  6 (6)  7 (7)  8 (8)  9 (9)  10 (10)  11 (11)  12 (12)  13 (13)  14 (14)  15 (15)  16 (16)  17 (17)  18 (18)
Resource initialization completed at t[s]:      0.00
Run totals: 19 processes, 48 threads, 0 GPUs


Input parsed successfully to the following command list (including defaults):

basis kpoint-dependent
coords-type Lattice
core-overlap-check vector
coulomb-interaction Slab 001
davidson-band-ratio 1.1
dump End None
dump-name $INPUT.$VAR
elec-cutoff 20
elec-eigen-algo Davidson
elec-ex-corr gga-PBE
elec-initial-magnetization -0.760000 yes
elec-smearing Fermi 1e-05
electronic-minimize  \
	dirUpdateScheme      FletcherReeves \
	linminMethod         DirUpdateRecommended \
	nIterations          100 \
	history              15 \
	knormThreshold       0 \
	energyDiffThreshold  1e-08 \
	nEnergyDiff          2 \
	alphaTstart          1 \
	alphaTmin            1e-10 \
	updateTestStepSize   yes \
	alphaTreduceFactor   0.1 \
	alphaTincreaseFactor 3 \
	nAlphaAdjustMax      3 \
	wolfeEnergy          0.0001 \
	wolfeGradient        0.9 \
	fdTest               no
electronic-scf  \
	nIterations	10000 \
	energyDiffThreshold	1e-08 \
	residualThreshold	1e-07 \
	mixFraction	0.5 \
	qMetric	0.8 \
	history	10 \
	nEigSteps	2 \
	eigDiffThreshold	1e-08 \
	mixedVariable	Density \
	qKerker	0.8 \
	qKappa	-1 \
	verbose	no \
	mixFractionMag	1.5
exchange-regularization WignerSeitzTruncated
fluid None
fluid-ex-corr (null) lda-PZ
fluid-gummel-loop 10 1.000000e-05
fluid-minimize  \
	dirUpdateScheme      PolakRibiere \
	linminMethod         DirUpdateRecommended \
	nIterations          100 \
	history              15 \
	knormThreshold       0 \
	energyDiffThreshold  0 \
	nEnergyDiff          2 \
	alphaTstart          1 \
	alphaTmin            1e-10 \
	updateTestStepSize   yes \
	alphaTreduceFactor   0.1 \
	alphaTincreaseFactor 3 \
	nAlphaAdjustMax      3 \
	wolfeEnergy          0.0001 \
	wolfeGradient        0.9 \
	fdTest               no
fluid-solvent H2O 55.338 ScalarEOS \
	epsBulk 78.4 \
	pMol 0.92466 \
	epsInf 1.77 \
	Pvap 1.06736e-10 \
	sigmaBulk 4.62e-05 \
	Rvdw 2.61727 \
	Res 1.42 \
	tauNuc 343133 \
	poleEl 15 7 1
forces-output-coords Positions
ion Rb   0.000000000000000   0.000000000000000   0.000000000000000 0
ion-species SG15/$ID_ONCV_PBE.upf
ion-width 0
ionic-minimize  \
	dirUpdateScheme      L-BFGS \
	linminMethod         DirUpdateRecommended \
	nIterations          0 \
	history              15 \
	knormThreshold       0.0001 \
	energyDiffThreshold  1e-06 \
	nEnergyDiff          2 \
	alphaTstart          1 \
	alphaTmin            1e-10 \
	updateTestStepSize   yes \
	alphaTreduceFactor   0.1 \
	alphaTincreaseFactor 3 \
	nAlphaAdjustMax      3 \
	wolfeEnergy          0.0001 \
	wolfeGradient        0.9 \
	fdTest               no
kpoint   0.000000000000   0.000000000000   0.000000000000  1.00000000000000
kpoint-folding 12 12 1 
latt-move-scale 1 1 1
latt-scale 3 3 1 
lattice  \
	   4.727486978767153   -2.363743489383575    0.000000000000000  \
	  -0.000000000000000    4.094123819672498    0.000000000000000  \
	   0.000000000000000    0.000000000000000   40.000000000000000 
lattice-minimize  \
	dirUpdateScheme      L-BFGS \
	linminMethod         DirUpdateRecommended \
	nIterations          0 \
	history              15 \
	knormThreshold       0 \
	energyDiffThreshold  1e-06 \
	nEnergyDiff          2 \
	alphaTstart          1 \
	alphaTmin            1e-10 \
	updateTestStepSize   yes \
	alphaTreduceFactor   0.1 \
	alphaTincreaseFactor 3 \
	nAlphaAdjustMax      3 \
	wolfeEnergy          0.0001 \
	wolfeGradient        0.9 \
	fdTest               no
lcao-params -1 1e-06 1e-05
pcm-variant GLSSA13
spintype z-spin
subspace-rotation-factor 1 yes
symmetries automatic
symmetry-threshold 0.0001



---------- Setting up symmetries ----------

Found 24 point-group symmetries of the bravais lattice
Found 24 space-group symmetries with basis
Applied RMS atom displacement 0 bohrs to make symmetries exact.

---------- Initializing the Grid ----------
R = 
[      14.1825     -7.09123            0  ]
[            0      12.2824            0  ]
[            0            0           40  ]
unit cell volume = 6967.77
G =
[   0.443025   0.255781         -0  ]
[          0   0.511561         -0  ]
[         -0         -0    0.15708  ]
Minimum fftbox size, Smin = [  60  60  164  ]
Chosen fftbox size, S = [  60  60  168  ]

---------- Exchange Correlation functional ----------
Initalized PBE GGA exchange.
Initalized PBE GGA correlation.

---------- Setting up pseudopotentials ----------
Width of ionic core gaussian charges (only for fluid interactions / plotting) set to 0

Reading pseudopotential file '/home/gridsan/aligho/DFT/build-Nov24/pseudopotentials/SG15/Rb_ONCV_PBE.upf':
  'Rb' pseudopotential, 'PBE' functional
  Generated using ONCVPSP code by D. R. Hamann
  Author: Martin Schlipf and Francois Gygi  Date: 150915.
  9 valence electrons, 3 orbitals, 6 projectors, 2308 radial grid points, with lMax = 2
  Transforming local potential to a uniform radial grid of dG=0.02 with 1489 points.
  Transforming nonlocal projectors to a uniform radial grid of dG=0.02 with 432 points.
    4S    l: 0   occupation:  2.0   eigenvalue: -1.172069
    4P    l: 1   occupation:  6.0   eigenvalue: -0.586674
    5S    l: 0   occupation:  1.0   eigenvalue: -0.082006
  Transforming atomic orbitals to a uniform radial grid of dG=0.02 with 432 points.
  Core radius for overlap checks: 2.60 bohrs.
  Reading pulay file /home/gridsan/aligho/DFT/build-Nov24/pseudopotentials/SG15/Rb_ONCV_PBE.pulay ... using dE_dnG = -1.360715e-05 computed for Ecut = 20.

Initialized 1 species with 1 total atoms.

Folded 1 k-points by 12x12x1 to 144 k-points.

---------- Setting up k-points, bands, fillings ----------
Reduced to 19 k-points under symmetry. 
Computing the number of bands and number of electrons
Calculating initial fillings.
nElectrons:   9.000000   nBands: 6   nStates: 38

----- Setting up reduced wavefunction bases (one per k-point) -----
average nbasis = 29766.104 , ideal nbasis = 29766.845

---------- Setting up coulomb interaction ----------
Initialized slab truncation along lattice direction 001

---------- Setting up 2D ewald sum ----------
Optimum gaussian width for ewald sums = 7.873530 bohr.
Real space sums over 289 unit cells with max indices [  8  8  0  ]
Reciprocal space sums over 81 terms with max indices [  4  4  0  ]

---------- Allocating electronic variables ----------
Initializing wave functions:  linear combination of atomic orbitals
Note: number of bands (6) exceeds available atomic orbitals (5)
Rb pseudo-atom occupations:   s ( 2 1 )  p ( 6 )
[d-16-8-3:53714] 18 more processes have sent help message help-mpi-common-cuda.txt / dlopen failed
[d-16-8-3:53714] Set MCA parameter "orte_base_help_aggregate" to 0 to see all help / error messages
[d-16-8-3:53714] 18 more processes have sent help message help-mpi-btl-openib-cpc-base.txt / no cpcs for port
	FillingsUpdate:  mu: -0.085892389  nElectrons: 9.000000  magneticMoment: [ Abs: 0.76000  Tot: -0.76000 ]
LCAOMinimize: Iter:   0  F: -24.4350138167370012  |grad|_K:  1.015e-05  alpha:  1.000e+00
	FillingsUpdate:  mu: -0.085891241  nElectrons: 9.000000  magneticMoment: [ Abs: 0.76000  Tot: -0.76000 ]
LCAOMinimize: Iter:   1  F: -24.4350138867314151  |grad|_K:  7.396e-08  alpha:  9.934e-01  linmin: -7.121e-03  cgtest:  1.451e-01  t[s]:      8.71
LCAOMinimize: Encountered beta<0, resetting CG.
	FillingsUpdate:  mu: -0.085891255  nElectrons: 9.000000  magneticMoment: [ Abs: 0.76000  Tot: -0.76000 ]
LCAOMinimize: Iter:   2  F: -24.4350138867348825  |grad|_K:  4.189e-09  alpha:  9.396e-01  linmin: -1.497e-01  cgtest:  9.930e-01  t[s]:     11.10
LCAOMinimize: Encountered beta<0, resetting CG.
LCAOMinimize: Converged (|Delta F|<1.000000e-06 for 2 iters).


---- Citations for features of the code used in this run ----

   Software package:
      R. Sundararaman, K. Letchworth-Weaver, K.A. Schwarz, D. Gunceler, Y. Ozhabes and T.A. Arias, 'JDFTx: software for joint density-functional theory', SoftwareX 6, 278 (2017)

   gga-PBE exchange-correlation functional:
      J.P. Perdew, K. Burke and M. Ernzerhof, Phys. Rev. Lett. 77, 3865 (1996)

   Pseudopotentials:
      M Schlipf and F Gygi, Comput. Phys. Commun. 196, 36 (2015)

   Truncated Coulomb potentials:
      R. Sundararaman and T.A. Arias, Phys. Rev. B 87, 165122 (2013)

This list may not be complete. Please suggest additional citations or
report any other bugs at https://github.com/shankar1729/jdftx/issues

Initialization completed successfully at t[s]:     11.26


-------- Electronic minimization -----------
Will mix electronic density at each iteration.
	FillingsUpdate:  mu: -0.085891255  nElectrons: 9.000000  magneticMoment: [ Abs: 0.76000  Tot: -0.76000 ]
	FillingsUpdate:  mu: -0.086721998  nElectrons: 9.000000  magneticMoment: [ Abs: 0.76000  Tot: -0.76000 ]
SCF: Cycle:  0   F: -24.436441933744781   dF: -1.428e-03   |Residual|: 3.851e-03   |deigs|: 1.734e-01  t[s]:     16.01
	FillingsUpdate:  mu: -0.086946573  nElectrons: 9.000000  magneticMoment: [ Abs: 0.76131  Tot: -0.76000 ]
SCF: Cycle:  1   F: -24.436506487273974   dF: -6.455e-05   |Residual|: 2.877e-03   |deigs|: 4.526e-03  t[s]:     19.79
	FillingsUpdate:  mu: -0.087173956  nElectrons: 9.000000  magneticMoment: [ Abs: 0.76333  Tot: -0.76000 ]
SCF: Cycle:  2   F: -24.436547035448992   dF: -4.055e-05   |Residual|: 2.201e-03   |deigs|: 2.188e-03  t[s]:     23.56
	FillingsUpdate:  mu: -0.087479885  nElectrons: 9.000000  magneticMoment: [ Abs: 0.76433  Tot: -0.76000 ]
SCF: Cycle:  3   F: -24.436580382309845   dF: -3.335e-05   |Residual|: 1.619e-03   |deigs|: 3.424e-03  t[s]:     27.40
	FillingsUpdate:  mu: -0.087424474  nElectrons: 9.000000  magneticMoment: [ Abs: 0.76264  Tot: -0.76000 ]
SCF: Cycle:  4   F: -24.436599618130050   dF: -1.924e-05   |Residual|: 8.993e-04   |deigs|: 1.901e-03  t[s]:     31.24
	FillingsUpdate:  mu: -0.087391501  nElectrons: 9.000000  magneticMoment: [ Abs: 0.76334  Tot: -0.76000 ]
SCF: Cycle:  5   F: -24.436606180935698   dF: -6.563e-06   |Residual|: 5.212e-04   |deigs|: 1.245e-03  t[s]:     35.16
	FillingsUpdate:  mu: -0.087325030  nElectrons: 9.000000  magneticMoment: [ Abs: 0.76295  Tot: -0.76000 ]
SCF: Cycle:  6   F: -24.436610340315394   dF: -4.159e-06   |Residual|: 3.827e-04   |deigs|: 8.578e-04  t[s]:     39.12
	FillingsUpdate:  mu: -0.087139997  nElectrons: 9.000000  magneticMoment: [ Abs: 0.76332  Tot: -0.76000 ]
SCF: Cycle:  7   F: -24.436612157178512   dF: -1.817e-06   |Residual|: 2.964e-04   |deigs|: 2.967e-04  t[s]:     43.10
	FillingsUpdate:  mu: -0.086844046  nElectrons: 9.000000  magneticMoment: [ Abs: 0.76396  Tot: -0.76000 ]
SCF: Cycle:  8   F: -24.436611881750284   dF: +2.754e-07   |Residual|: 2.457e-04   |deigs|: 3.475e-04  t[s]:     47.20
	FillingsUpdate:  mu: -0.086458085  nElectrons: 9.000000  magneticMoment: [ Abs: 0.76435  Tot: -0.76000 ]
SCF: Cycle:  9   F: -24.436611163564823   dF: +7.182e-07   |Residual|: 2.236e-04   |deigs|: 4.795e-04  t[s]:     51.29
	FillingsUpdate:  mu: -0.086245209  nElectrons: 9.000000  magneticMoment: [ Abs: 0.76377  Tot: -0.76000 ]
SCF: Cycle: 10   F: -24.436612041441077   dF: -8.779e-07   |Residual|: 1.953e-04   |deigs|: 3.117e-04  t[s]:     55.51
	FillingsUpdate:  mu: -0.086218163  nElectrons: 9.000000  magneticMoment: [ Abs: 0.76406  Tot: -0.76000 ]
SCF: Cycle: 11   F: -24.436613766441980   dF: -1.725e-06   |Residual|: 1.387e-04   |deigs|: 2.914e-04  t[s]:     59.76
	FillingsUpdate:  mu: -0.085995068  nElectrons: 9.000000  magneticMoment: [ Abs: 0.76447  Tot: -0.76000 ]
SCF: Cycle: 12   F: -24.436613883692921   dF: -1.173e-07   |Residual|: 1.332e-04   |deigs|: 2.760e-04  t[s]:     63.94
	FillingsUpdate:  mu: -0.085672260  nElectrons: 9.000000  magneticMoment: [ Abs: 0.76440  Tot: -0.76000 ]
SCF: Cycle: 13   F: -24.436613921777706   dF: -3.808e-08   |Residual|: 1.326e-04   |deigs|: 4.701e-04  t[s]:     68.12
	FillingsUpdate:  mu: -0.085443775  nElectrons: 9.000000  magneticMoment: [ Abs: 0.76420  Tot: -0.76000 ]
SCF: Cycle: 14   F: -24.436613771804421   dF: +1.500e-07   |Residual|: 1.214e-04   |deigs|: 4.218e-04  t[s]:     72.42
	FillingsUpdate:  mu: -0.085323591  nElectrons: 9.000000  magneticMoment: [ Abs: 0.76415  Tot: -0.76000 ]
SCF: Cycle: 15   F: -24.436614492273151   dF: -7.205e-07   |Residual|: 1.018e-04   |deigs|: 2.388e-04  t[s]:     76.65
	FillingsUpdate:  mu: -0.085106579  nElectrons: 9.000000  magneticMoment: [ Abs: 0.76336  Tot: -0.76000 ]
SCF: Cycle: 16   F: -24.436615101996022   dF: -6.097e-07   |Residual|: 8.169e-05   |deigs|: 2.762e-04  t[s]:     80.84
	FillingsUpdate:  mu: -0.085014702  nElectrons: 9.000000  magneticMoment: [ Abs: 0.76313  Tot: -0.76000 ]
SCF: Cycle: 17   F: -24.436615290166888   dF: -1.882e-07   |Residual|: 6.378e-05   |deigs|: 1.120e-04  t[s]:     85.07
	FillingsUpdate:  mu: -0.084996215  nElectrons: 9.000000  magneticMoment: [ Abs: 0.76315  Tot: -0.76000 ]
SCF: Cycle: 18   F: -24.436615372100842   dF: -8.193e-08   |Residual|: 4.290e-05   |deigs|: 4.373e-05  t[s]:     89.26
	FillingsUpdate:  mu: -0.084976774  nElectrons: 9.000000  magneticMoment: [ Abs: 0.76317  Tot: -0.76000 ]
SCF: Cycle: 19   F: -24.436615579008567   dF: -2.069e-07   |Residual|: 2.587e-05   |deigs|: 2.915e-05  t[s]:     93.51
	FillingsUpdate:  mu: -0.084967667  nElectrons: 9.000000  magneticMoment: [ Abs: 0.76318  Tot: -0.76000 ]
SCF: Cycle: 20   F: -24.436615613255380   dF: -3.425e-08   |Residual|: 1.544e-05   |deigs|: 1.514e-05  t[s]:     97.76
	FillingsUpdate:  mu: -0.084970751  nElectrons: 9.000000  magneticMoment: [ Abs: 0.76319  Tot: -0.76000 ]
SCF: Cycle: 21   F: -24.436615637142840   dF: -2.389e-08   |Residual|: 9.779e-06   |deigs|: 9.068e-06  t[s]:    101.98
	FillingsUpdate:  mu: -0.084971530  nElectrons: 9.000000  magneticMoment: [ Abs: 0.76318  Tot: -0.76000 ]
SCF: Cycle: 22   F: -24.436615645333291   dF: -8.190e-09   |Residual|: 6.852e-06   |deigs|: 5.548e-06  t[s]:    106.18
	FillingsUpdate:  mu: -0.084975832  nElectrons: 9.000000  magneticMoment: [ Abs: 0.76319  Tot: -0.76000 ]
SCF: Cycle: 23   F: -24.436615651156824   dF: -5.824e-09   |Residual|: 4.447e-06   |deigs|: 6.511e-06  t[s]:    110.37
SCF: Converged (|Delta E|<1.000000e-08 for 2 iters).


# Ionic positions in lattice coordinates:
ion Rb   0.000000000000000   0.000000000000000   0.000000000000000 0

# Forces in Lattice coordinates:
force Rb   0.000000000000000   0.000000000000000   0.000000000000000 0

# Energy components:
   Eewald =      -12.0320174002217755
       EH =        7.5154172199231679
     Eloc =      -22.4285638240163721
      Enl =       -0.7961895558473683
   Epulay =       -0.0000000014467880
      Exc =       -3.6511278265966336
       KE =        6.9558662736844923
-------------------------------------
     Etot =      -24.4366151145212811
       TS =        0.0000005366355437
-------------------------------------
        F =      -24.4366156511568242

IonicMinimize: Iter:   0  F: -24.436615651156824  |grad|_K:  0.000e+00  t[s]:    110.63
IonicMinimize: Converged (|grad|_K<1.000000e-04).

#--- Lowdin population analysis ---
# oxidation-state Rb +0.034
# magnetic-moments Rb -0.729

End date and time: Sun Feb  6 12:37:46 2022  (Duration: 0-0:01:50.68)
Done!
scale=4
magnetization=-0.76
--------------------------------------------------------------------------
The library attempted to open the following supporting CUDA libraries,
but each of them failed.  CUDA-aware support is disabled.
libcuda.so.1: cannot open shared object file: No such file or directory
libcuda.dylib: cannot open shared object file: No such file or directory
/usr/lib64/libcuda.so.1: cannot open shared object file: No such file or directory
/usr/lib64/libcuda.dylib: cannot open shared object file: No such file or directory
If you are not interested in CUDA-aware support, then run with
--mca opal_warn_on_missing_libcuda 0 to suppress this message.  If you are interested
in CUDA-aware support, then try setting LD_LIBRARY_PATH to the location
of libcuda.so.1 to get passed this issue.
--------------------------------------------------------------------------
--------------------------------------------------------------------------
No OpenFabrics connection schemes reported that they were able to be
used on a specific port.  As such, the openib BTL (OpenFabrics
support) will be disabled for this port.

  Local host:           d-16-8-3
  Local device:         mlx5_1
  Local port:           1
  CPCs attempted:       rdmacm, udcm
--------------------------------------------------------------------------

*************** JDFTx 1.6.0 (git hash 42ebbcc2) ***************

Start date and time: Sun Feb  6 12:37:47 2022
Executable jdftx with command-line: -i Alkali.in
Running on hosts (process indices):  d-16-8-3 (0-18)
Divided in process groups (process indices):  0 (0)  1 (1)  2 (2)  3 (3)  4 (4)  5 (5)  6 (6)  7 (7)  8 (8)  9 (9)  10 (10)  11 (11)  12 (12)  13 (13)  14 (14)  15 (15)  16 (16)  17 (17)  18 (18)
Resource initialization completed at t[s]:      0.00
Run totals: 19 processes, 48 threads, 0 GPUs


Input parsed successfully to the following command list (including defaults):

basis kpoint-dependent
coords-type Lattice
core-overlap-check vector
coulomb-interaction Slab 001
davidson-band-ratio 1.1
dump End None
dump-name $INPUT.$VAR
elec-cutoff 20
elec-eigen-algo Davidson
elec-ex-corr gga-PBE
elec-initial-magnetization -0.760000 yes
elec-smearing Fermi 1e-05
electronic-minimize  \
	dirUpdateScheme      FletcherReeves \
	linminMethod         DirUpdateRecommended \
	nIterations          100 \
	history              15 \
	knormThreshold       0 \
	energyDiffThreshold  1e-08 \
	nEnergyDiff          2 \
	alphaTstart          1 \
	alphaTmin            1e-10 \
	updateTestStepSize   yes \
	alphaTreduceFactor   0.1 \
	alphaTincreaseFactor 3 \
	nAlphaAdjustMax      3 \
	wolfeEnergy          0.0001 \
	wolfeGradient        0.9 \
	fdTest               no
electronic-scf  \
	nIterations	10000 \
	energyDiffThreshold	1e-08 \
	residualThreshold	1e-07 \
	mixFraction	0.5 \
	qMetric	0.8 \
	history	10 \
	nEigSteps	2 \
	eigDiffThreshold	1e-08 \
	mixedVariable	Density \
	qKerker	0.8 \
	qKappa	-1 \
	verbose	no \
	mixFractionMag	1.5
exchange-regularization WignerSeitzTruncated
fluid None
fluid-ex-corr (null) lda-PZ
fluid-gummel-loop 10 1.000000e-05
fluid-minimize  \
	dirUpdateScheme      PolakRibiere \
	linminMethod         DirUpdateRecommended \
	nIterations          100 \
	history              15 \
	knormThreshold       0 \
	energyDiffThreshold  0 \
	nEnergyDiff          2 \
	alphaTstart          1 \
	alphaTmin            1e-10 \
	updateTestStepSize   yes \
	alphaTreduceFactor   0.1 \
	alphaTincreaseFactor 3 \
	nAlphaAdjustMax      3 \
	wolfeEnergy          0.0001 \
	wolfeGradient        0.9 \
	fdTest               no
fluid-solvent H2O 55.338 ScalarEOS \
	epsBulk 78.4 \
	pMol 0.92466 \
	epsInf 1.77 \
	Pvap 1.06736e-10 \
	sigmaBulk 4.62e-05 \
	Rvdw 2.61727 \
	Res 1.42 \
	tauNuc 343133 \
	poleEl 15 7 1
forces-output-coords Positions
ion Rb   0.000000000000000   0.000000000000000   0.000000000000000 0
ion-species SG15/$ID_ONCV_PBE.upf
ion-width 0
ionic-minimize  \
	dirUpdateScheme      L-BFGS \
	linminMethod         DirUpdateRecommended \
	nIterations          0 \
	history              15 \
	knormThreshold       0.0001 \
	energyDiffThreshold  1e-06 \
	nEnergyDiff          2 \
	alphaTstart          1 \
	alphaTmin            1e-10 \
	updateTestStepSize   yes \
	alphaTreduceFactor   0.1 \
	alphaTincreaseFactor 3 \
	nAlphaAdjustMax      3 \
	wolfeEnergy          0.0001 \
	wolfeGradient        0.9 \
	fdTest               no
kpoint   0.000000000000   0.000000000000   0.000000000000  1.00000000000000
kpoint-folding 12 12 1 
latt-move-scale 1 1 1
latt-scale 4 4 1 
lattice  \
	   4.727486978767153   -2.363743489383575    0.000000000000000  \
	  -0.000000000000000    4.094123819672498    0.000000000000000  \
	   0.000000000000000    0.000000000000000   40.000000000000000 
lattice-minimize  \
	dirUpdateScheme      L-BFGS \
	linminMethod         DirUpdateRecommended \
	nIterations          0 \
	history              15 \
	knormThreshold       0 \
	energyDiffThreshold  1e-06 \
	nEnergyDiff          2 \
	alphaTstart          1 \
	alphaTmin            1e-10 \
	updateTestStepSize   yes \
	alphaTreduceFactor   0.1 \
	alphaTincreaseFactor 3 \
	nAlphaAdjustMax      3 \
	wolfeEnergy          0.0001 \
	wolfeGradient        0.9 \
	fdTest               no
lcao-params -1 1e-06 1e-05
pcm-variant GLSSA13
spintype z-spin
subspace-rotation-factor 1 yes
symmetries automatic
symmetry-threshold 0.0001



---------- Setting up symmetries ----------

Found 24 point-group symmetries of the bravais lattice
Found 24 space-group symmetries with basis
Applied RMS atom displacement 0 bohrs to make symmetries exact.

---------- Initializing the Grid ----------
R = 
[      18.9099     -9.45497            0  ]
[            0      16.3765            0  ]
[            0            0           40  ]
unit cell volume = 12387.1
G =
[   0.332269   0.191835         -0  ]
[          0   0.383671         -0  ]
[         -0         -0    0.15708  ]
Minimum fftbox size, Smin = [  80  80  164  ]
Chosen fftbox size, S = [  80  80  168  ]

---------- Exchange Correlation functional ----------
Initalized PBE GGA exchange.
Initalized PBE GGA correlation.

---------- Setting up pseudopotentials ----------
Width of ionic core gaussian charges (only for fluid interactions / plotting) set to 0

Reading pseudopotential file '/home/gridsan/aligho/DFT/build-Nov24/pseudopotentials/SG15/Rb_ONCV_PBE.upf':
  'Rb' pseudopotential, 'PBE' functional
  Generated using ONCVPSP code by D. R. Hamann
  Author: Martin Schlipf and Francois Gygi  Date: 150915.
  9 valence electrons, 3 orbitals, 6 projectors, 2308 radial grid points, with lMax = 2
  Transforming local potential to a uniform radial grid of dG=0.02 with 1489 points.
  Transforming nonlocal projectors to a uniform radial grid of dG=0.02 with 432 points.
    4S    l: 0   occupation:  2.0   eigenvalue: -1.172069
    4P    l: 1   occupation:  6.0   eigenvalue: -0.586674
    5S    l: 0   occupation:  1.0   eigenvalue: -0.082006
  Transforming atomic orbitals to a uniform radial grid of dG=0.02 with 432 points.
  Core radius for overlap checks: 2.60 bohrs.
  Reading pulay file /home/gridsan/aligho/DFT/build-Nov24/pseudopotentials/SG15/Rb_ONCV_PBE.pulay ... using dE_dnG = -1.360715e-05 computed for Ecut = 20.

Initialized 1 species with 1 total atoms.

Folded 1 k-points by 12x12x1 to 144 k-points.

---------- Setting up k-points, bands, fillings ----------
Reduced to 19 k-points under symmetry. 
Computing the number of bands and number of electrons
Calculating initial fillings.
nElectrons:   9.000000   nBands: 6   nStates: 38

----- Setting up reduced wavefunction bases (one per k-point) -----
average nbasis = 52924.021 , ideal nbasis = 52918.836

---------- Setting up coulomb interaction ----------
Initialized slab truncation along lattice direction 001

---------- Setting up 2D ewald sum ----------
Optimum gaussian width for ewald sums = 10.498040 bohr.
Real space sums over 289 unit cells with max indices [  8  8  0  ]
Reciprocal space sums over 81 terms with max indices [  4  4  0  ]

---------- Allocating electronic variables ----------
Initializing wave functions:  linear combination of atomic orbitals
Note: number of bands (6) exceeds available atomic orbitals (5)
Rb pseudo-atom occupations:   s ( 2 1 )  p ( 6 )
[d-16-8-3:06303] 18 more processes have sent help message help-mpi-common-cuda.txt / dlopen failed
[d-16-8-3:06303] Set MCA parameter "orte_base_help_aggregate" to 0 to see all help / error messages
[d-16-8-3:06303] 18 more processes have sent help message help-mpi-btl-openib-cpc-base.txt / no cpcs for port
	FillingsUpdate:  mu: -0.082635148  nElectrons: 9.000000  magneticMoment: [ Abs: 0.76000  Tot: -0.76000 ]
LCAOMinimize: Iter:   0  F: -24.4324538956141488  |grad|_K:  2.424e-06  alpha:  1.000e+00
	FillingsUpdate:  mu: -0.082634625  nElectrons: 9.000000  magneticMoment: [ Abs: 0.76000  Tot: -0.76000 ]
LCAOMinimize: Iter:   1  F: -24.4324538995951706  |grad|_K:  1.313e-08  alpha:  9.908e-01  linmin: -2.386e-03  cgtest:  6.454e-02  t[s]:     14.85
LCAOMinimize: Encountered beta<0, resetting CG.
	FillingsUpdate:  mu: -0.082634626  nElectrons: 9.000000  magneticMoment: [ Abs: 0.76000  Tot: -0.76000 ]
LCAOMinimize: Iter:   2  F: -24.4324538995953375  |grad|_K:  3.608e-09  alpha:  7.236e-01  linmin: -5.208e-02  cgtest:  9.999e-01  t[s]:     18.79
LCAOMinimize: Encountered beta<0, resetting CG.
LCAOMinimize: Converged (|Delta F|<1.000000e-06 for 2 iters).


---- Citations for features of the code used in this run ----

   Software package:
      R. Sundararaman, K. Letchworth-Weaver, K.A. Schwarz, D. Gunceler, Y. Ozhabes and T.A. Arias, 'JDFTx: software for joint density-functional theory', SoftwareX 6, 278 (2017)

   gga-PBE exchange-correlation functional:
      J.P. Perdew, K. Burke and M. Ernzerhof, Phys. Rev. Lett. 77, 3865 (1996)

   Pseudopotentials:
      M Schlipf and F Gygi, Comput. Phys. Commun. 196, 36 (2015)

   Truncated Coulomb potentials:
      R. Sundararaman and T.A. Arias, Phys. Rev. B 87, 165122 (2013)

This list may not be complete. Please suggest additional citations or
report any other bugs at https://github.com/shankar1729/jdftx/issues

Initialization completed successfully at t[s]:     19.04


-------- Electronic minimization -----------
Will mix electronic density at each iteration.
	FillingsUpdate:  mu: -0.082634626  nElectrons: 9.000000  magneticMoment: [ Abs: 0.76000  Tot: -0.76000 ]
	FillingsUpdate:  mu: -0.082734235  nElectrons: 9.000000  magneticMoment: [ Abs: 0.76000  Tot: -0.76000 ]
SCF: Cycle:  0   F: -24.432566263423901   dF: -1.124e-04   |Residual|: 1.735e-03   |deigs|: 1.694e-01  t[s]:     27.09
	FillingsUpdate:  mu: -0.082724338  nElectrons: 9.000000  magneticMoment: [ Abs: 0.76412  Tot: -0.76000 ]
SCF: Cycle:  1   F: -24.432568578396197   dF: -2.315e-06   |Residual|: 4.149e-04   |deigs|: 9.647e-03  t[s]:     33.45
	FillingsUpdate:  mu: -0.082694273  nElectrons: 9.000000  magneticMoment: [ Abs: 0.76413  Tot: -0.76000 ]
SCF: Cycle:  2   F: -24.432569147985500   dF: -5.696e-07   |Residual|: 2.448e-04   |deigs|: 1.709e-03  t[s]:     39.89
	FillingsUpdate:  mu: -0.082671005  nElectrons: 9.000000  magneticMoment: [ Abs: 0.76473  Tot: -0.76000 ]
SCF: Cycle:  3   F: -24.432569465967042   dF: -3.180e-07   |Residual|: 1.843e-04   |deigs|: 7.760e-04  t[s]:     46.44
	FillingsUpdate:  mu: -0.082609108  nElectrons: 9.000000  magneticMoment: [ Abs: 0.76469  Tot: -0.76000 ]
SCF: Cycle:  4   F: -24.432569724627101   dF: -2.587e-07   |Residual|: 1.342e-04   |deigs|: 5.503e-04  t[s]:     53.03
	FillingsUpdate:  mu: -0.082520233  nElectrons: 9.000000  magneticMoment: [ Abs: 0.76471  Tot: -0.76000 ]
SCF: Cycle:  5   F: -24.432569837134430   dF: -1.125e-07   |Residual|: 8.861e-05   |deigs|: 5.500e-04  t[s]:     59.80
	FillingsUpdate:  mu: -0.082465665  nElectrons: 9.000000  magneticMoment: [ Abs: 0.76462  Tot: -0.76000 ]
SCF: Cycle:  6   F: -24.432569907598882   dF: -7.046e-08   |Residual|: 6.938e-05   |deigs|: 3.811e-04  t[s]:     66.73
	FillingsUpdate:  mu: -0.082443415  nElectrons: 9.000000  magneticMoment: [ Abs: 0.76465  Tot: -0.76000 ]
SCF: Cycle:  7   F: -24.432569961324642   dF: -5.373e-08   |Residual|: 5.602e-05   |deigs|: 4.675e-04  t[s]:     73.72
	FillingsUpdate:  mu: -0.082417149  nElectrons: 9.000000  magneticMoment: [ Abs: 0.76465  Tot: -0.76000 ]
SCF: Cycle:  8   F: -24.432570005490589   dF: -4.417e-08   |Residual|: 4.823e-05   |deigs|: 2.034e-04  t[s]:     80.78
	FillingsUpdate:  mu: -0.082388315  nElectrons: 9.000000  magneticMoment: [ Abs: 0.76464  Tot: -0.76000 ]
SCF: Cycle:  9   F: -24.432570020134786   dF: -1.464e-08   |Residual|: 3.995e-05   |deigs|: 1.735e-04  t[s]:     87.98
	FillingsUpdate:  mu: -0.082368710  nElectrons: 9.000000  magneticMoment: [ Abs: 0.76468  Tot: -0.76000 ]
SCF: Cycle: 10   F: -24.432569978975867   dF: +4.116e-08   |Residual|: 3.437e-05   |deigs|: 1.357e-04  t[s]:     95.30
	FillingsUpdate:  mu: -0.082337661  nElectrons: 9.000000  magneticMoment: [ Abs: 0.76474  Tot: -0.76000 ]
SCF: Cycle: 11   F: -24.432569902097679   dF: +7.688e-08   |Residual|: 2.959e-05   |deigs|: 9.100e-05  t[s]:    102.63
	FillingsUpdate:  mu: -0.082317795  nElectrons: 9.000000  magneticMoment: [ Abs: 0.76484  Tot: -0.76000 ]
SCF: Cycle: 12   F: -24.432569540730061   dF: +3.614e-07   |Residual|: 2.671e-05   |deigs|: 9.304e-05  t[s]:    110.02
	FillingsUpdate:  mu: -0.082323876  nElectrons: 9.000000  magneticMoment: [ Abs: 0.76480  Tot: -0.76000 ]
SCF: Cycle: 13   F: -24.432569896037535   dF: -3.553e-07   |Residual|: 2.755e-05   |deigs|: 3.079e-05  t[s]:    117.29
	FillingsUpdate:  mu: -0.082275795  nElectrons: 9.000000  magneticMoment: [ Abs: 0.76485  Tot: -0.76000 ]
SCF: Cycle: 14   F: -24.432570044996602   dF: -1.490e-07   |Residual|: 2.224e-05   |deigs|: 5.359e-05  t[s]:    124.22
	FillingsUpdate:  mu: -0.082227640  nElectrons: 9.000000  magneticMoment: [ Abs: 0.76483  Tot: -0.76000 ]
SCF: Cycle: 15   F: -24.432569837291766   dF: +2.077e-07   |Residual|: 2.280e-05   |deigs|: 5.788e-05  t[s]:    131.42
	FillingsUpdate:  mu: -0.082198191  nElectrons: 9.000000  magneticMoment: [ Abs: 0.76472  Tot: -0.76000 ]
SCF: Cycle: 16   F: -24.432569964549707   dF: -1.273e-07   |Residual|: 1.882e-05   |deigs|: 3.501e-05  t[s]:    138.51
	FillingsUpdate:  mu: -0.082183737  nElectrons: 9.000000  magneticMoment: [ Abs: 0.76472  Tot: -0.76000 ]
SCF: Cycle: 17   F: -24.432569996234523   dF: -3.168e-08   |Residual|: 1.146e-05   |deigs|: 2.211e-05  t[s]:    145.80
	FillingsUpdate:  mu: -0.082175597  nElectrons: 9.000000  magneticMoment: [ Abs: 0.76468  Tot: -0.76000 ]
SCF: Cycle: 18   F: -24.432570054957445   dF: -5.872e-08   |Residual|: 7.649e-06   |deigs|: 1.385e-05  t[s]:    153.18
	FillingsUpdate:  mu: -0.082166624  nElectrons: 9.000000  magneticMoment: [ Abs: 0.76465  Tot: -0.76000 ]
SCF: Cycle: 19   F: -24.432570103382773   dF: -4.843e-08   |Residual|: 4.281e-06   |deigs|: 1.586e-05  t[s]:    160.13
	FillingsUpdate:  mu: -0.082164081  nElectrons: 9.000000  magneticMoment: [ Abs: 0.76465  Tot: -0.76000 ]
SCF: Cycle: 20   F: -24.432570110901842   dF: -7.519e-09   |Residual|: 3.129e-06   |deigs|: 1.802e-05  t[s]:    166.63
	FillingsUpdate:  mu: -0.082163976  nElectrons: 9.000000  magneticMoment: [ Abs: 0.76465  Tot: -0.76000 ]
SCF: Cycle: 21   F: -24.432570115410769   dF: -4.509e-09   |Residual|: 2.338e-06   |deigs|: 2.577e-05  t[s]:    173.79
SCF: Converged (|Delta E|<1.000000e-08 for 2 iters).


# Ionic positions in lattice coordinates:
ion Rb   0.000000000000000   0.000000000000000   0.000000000000000 0

# Forces in Lattice coordinates:
force Rb   0.000000000000000   0.000000000000000   0.000000000000000 0

# Energy components:
   Eewald =       -9.0240130501663280
       EH =       10.5428800796715496
     Eloc =      -28.4685892047544229
      Enl =       -0.7923615058667814
   Epulay =        0.0000000056959385
      Exc =       -3.6526516925158727
       KE =        6.9621657891609434
-------------------------------------
     Etot =      -24.4325695787749737
       TS =        0.0000005366357941
-------------------------------------
        F =      -24.4325701154107691

IonicMinimize: Iter:   0  F: -24.432570115410769  |grad|_K:  0.000e+00  t[s]:    174.20
IonicMinimize: Converged (|grad|_K<1.000000e-04).

#--- Lowdin population analysis ---
# oxidation-state Rb +0.001
# magnetic-moments Rb -0.759

End date and time: Sun Feb  6 12:40:41 2022  (Duration: 0-0:02:54.25)
Done!
