The alkali metal is Rb
scale=2
magnetization=0.62
--------------------------------------------------------------------------
The library attempted to open the following supporting CUDA libraries,
but each of them failed.  CUDA-aware support is disabled.
libcuda.so.1: cannot open shared object file: No such file or directory
libcuda.dylib: cannot open shared object file: No such file or directory
/usr/lib64/libcuda.so.1: cannot open shared object file: No such file or directory
/usr/lib64/libcuda.dylib: cannot open shared object file: No such file or directory
If you are not interested in CUDA-aware support, then run with
--mca opal_warn_on_missing_libcuda 0 to suppress this message.  If you are interested
in CUDA-aware support, then try setting LD_LIBRARY_PATH to the location
of libcuda.so.1 to get passed this issue.
--------------------------------------------------------------------------
--------------------------------------------------------------------------
No OpenFabrics connection schemes reported that they were able to be
used on a specific port.  As such, the openib BTL (OpenFabrics
support) will be disabled for this port.

  Local host:           d-6-7-4
  Local device:         mlx5_1
  Local port:           1
  CPCs attempted:       rdmacm, udcm
--------------------------------------------------------------------------

*************** JDFTx 1.6.0 (git hash 42ebbcc2) ***************

Start date and time: Sun Feb  6 12:54:15 2022
Executable jdftx with command-line: -i Alkali.in
Running on hosts (process indices):  d-6-7-4 (0-18)
Divided in process groups (process indices):  0 (0)  1 (1)  2 (2)  3 (3)  4 (4)  5 (5)  6 (6)  7 (7)  8 (8)  9 (9)  10 (10)  11 (11)  12 (12)  13 (13)  14 (14)  15 (15)  16 (16)  17 (17)  18 (18)
Resource initialization completed at t[s]:      0.00
Run totals: 19 processes, 48 threads, 0 GPUs


Input parsed successfully to the following command list (including defaults):

basis kpoint-dependent
coords-type Lattice
core-overlap-check vector
coulomb-interaction Slab 001
davidson-band-ratio 1.1
dump End None
dump-name $INPUT.$VAR
elec-cutoff 20
elec-eigen-algo Davidson
elec-ex-corr gga-PBE
elec-initial-magnetization 0.620000 yes
elec-smearing Fermi 1e-05
electronic-minimize  \
	dirUpdateScheme      FletcherReeves \
	linminMethod         DirUpdateRecommended \
	nIterations          100 \
	history              15 \
	knormThreshold       0 \
	energyDiffThreshold  1e-08 \
	nEnergyDiff          2 \
	alphaTstart          1 \
	alphaTmin            1e-10 \
	updateTestStepSize   yes \
	alphaTreduceFactor   0.1 \
	alphaTincreaseFactor 3 \
	nAlphaAdjustMax      3 \
	wolfeEnergy          0.0001 \
	wolfeGradient        0.9 \
	fdTest               no
electronic-scf  \
	nIterations	10000 \
	energyDiffThreshold	1e-08 \
	residualThreshold	1e-07 \
	mixFraction	0.5 \
	qMetric	0.8 \
	history	10 \
	nEigSteps	2 \
	eigDiffThreshold	1e-08 \
	mixedVariable	Density \
	qKerker	0.8 \
	qKappa	-1 \
	verbose	no \
	mixFractionMag	1.5
exchange-regularization WignerSeitzTruncated
fluid None
fluid-ex-corr (null) lda-PZ
fluid-gummel-loop 10 1.000000e-05
fluid-minimize  \
	dirUpdateScheme      PolakRibiere \
	linminMethod         DirUpdateRecommended \
	nIterations          100 \
	history              15 \
	knormThreshold       0 \
	energyDiffThreshold  0 \
	nEnergyDiff          2 \
	alphaTstart          1 \
	alphaTmin            1e-10 \
	updateTestStepSize   yes \
	alphaTreduceFactor   0.1 \
	alphaTincreaseFactor 3 \
	nAlphaAdjustMax      3 \
	wolfeEnergy          0.0001 \
	wolfeGradient        0.9 \
	fdTest               no
fluid-solvent H2O 55.338 ScalarEOS \
	epsBulk 78.4 \
	pMol 0.92466 \
	epsInf 1.77 \
	Pvap 1.06736e-10 \
	sigmaBulk 4.62e-05 \
	Rvdw 2.61727 \
	Res 1.42 \
	tauNuc 343133 \
	poleEl 15 7 1
forces-output-coords Positions
ion Rb   0.000000000000000   0.000000000000000   0.000000000000000 0
ion-species SG15/$ID_ONCV_PBE.upf
ion-width 0
ionic-minimize  \
	dirUpdateScheme      L-BFGS \
	linminMethod         DirUpdateRecommended \
	nIterations          0 \
	history              15 \
	knormThreshold       0.0001 \
	energyDiffThreshold  1e-06 \
	nEnergyDiff          2 \
	alphaTstart          1 \
	alphaTmin            1e-10 \
	updateTestStepSize   yes \
	alphaTreduceFactor   0.1 \
	alphaTincreaseFactor 3 \
	nAlphaAdjustMax      3 \
	wolfeEnergy          0.0001 \
	wolfeGradient        0.9 \
	fdTest               no
kpoint   0.000000000000   0.000000000000   0.000000000000  1.00000000000000
kpoint-folding 12 12 1 
latt-move-scale 1 1 1
latt-scale 2 2 1 
lattice  \
	   4.727486978767153   -2.363743489383575    0.000000000000000  \
	  -0.000000000000000    4.094123819672498    0.000000000000000  \
	   0.000000000000000    0.000000000000000   40.000000000000000 
lattice-minimize  \
	dirUpdateScheme      L-BFGS \
	linminMethod         DirUpdateRecommended \
	nIterations          0 \
	history              15 \
	knormThreshold       0 \
	energyDiffThreshold  1e-06 \
	nEnergyDiff          2 \
	alphaTstart          1 \
	alphaTmin            1e-10 \
	updateTestStepSize   yes \
	alphaTreduceFactor   0.1 \
	alphaTincreaseFactor 3 \
	nAlphaAdjustMax      3 \
	wolfeEnergy          0.0001 \
	wolfeGradient        0.9 \
	fdTest               no
lcao-params -1 1e-06 1e-05
pcm-variant GLSSA13
spintype z-spin
subspace-rotation-factor 1 yes
symmetries automatic
symmetry-threshold 0.0001



---------- Setting up symmetries ----------

Found 24 point-group symmetries of the bravais lattice
Found 24 space-group symmetries with basis
Applied RMS atom displacement 0 bohrs to make symmetries exact.

---------- Initializing the Grid ----------
R = 
[      9.45497     -4.72749            0  ]
[            0      8.18825            0  ]
[            0            0           40  ]
unit cell volume = 3096.79
G =
[   0.664538   0.383671         -0  ]
[          0   0.767342         -0  ]
[         -0         -0    0.15708  ]
Minimum fftbox size, Smin = [  40  40  164  ]
Chosen fftbox size, S = [  40  40  168  ]

---------- Exchange Correlation functional ----------
Initalized PBE GGA exchange.
Initalized PBE GGA correlation.

---------- Setting up pseudopotentials ----------
Width of ionic core gaussian charges (only for fluid interactions / plotting) set to 0

Reading pseudopotential file '/home/gridsan/aligho/DFT/build-Nov24/pseudopotentials/SG15/Rb_ONCV_PBE.upf':
  'Rb' pseudopotential, 'PBE' functional
  Generated using ONCVPSP code by D. R. Hamann
  Author: Martin Schlipf and Francois Gygi  Date: 150915.
  9 valence electrons, 3 orbitals, 6 projectors, 2308 radial grid points, with lMax = 2
  Transforming local potential to a uniform radial grid of dG=0.02 with 1489 points.
  Transforming nonlocal projectors to a uniform radial grid of dG=0.02 with 432 points.
    4S    l: 0   occupation:  2.0   eigenvalue: -1.172069
    4P    l: 1   occupation:  6.0   eigenvalue: -0.586674
    5S    l: 0   occupation:  1.0   eigenvalue: -0.082006
  Transforming atomic orbitals to a uniform radial grid of dG=0.02 with 432 points.
  Core radius for overlap checks: 2.60 bohrs.
  Reading pulay file /home/gridsan/aligho/DFT/build-Nov24/pseudopotentials/SG15/Rb_ONCV_PBE.pulay ... using dE_dnG = -1.360715e-05 computed for Ecut = 20.

Initialized 1 species with 1 total atoms.

Folded 1 k-points by 12x12x1 to 144 k-points.

---------- Setting up k-points, bands, fillings ----------
Reduced to 19 k-points under symmetry. 
Computing the number of bands and number of electrons
Calculating initial fillings.
nElectrons:   9.000000   nBands: 6   nStates: 38

----- Setting up reduced wavefunction bases (one per k-point) -----
average nbasis = 13230.521 , ideal nbasis = 13229.709

---------- Setting up coulomb interaction ----------
Initialized slab truncation along lattice direction 001

---------- Setting up 2D ewald sum ----------
Optimum gaussian width for ewald sums = 5.249020 bohr.
Real space sums over 289 unit cells with max indices [  8  8  0  ]
Reciprocal space sums over 81 terms with max indices [  4  4  0  ]

---------- Allocating electronic variables ----------
Initializing wave functions:  linear combination of atomic orbitals
Note: number of bands (6) exceeds available atomic orbitals (5)
Rb pseudo-atom occupations:   s ( 2 1 )  p ( 6 )
	FillingsUpdate:  mu: -0.096440913  nElectrons: 9.000000  magneticMoment: [ Abs: 0.62000  Tot: +0.62000 ]
LCAOMinimize: Iter:   0  F: -24.4414420749944910  |grad|_K:  2.594e-05  alpha:  1.000e+00
	FillingsUpdate:  mu: -0.096432000  nElectrons: 9.000000  magneticMoment: [ Abs: 0.62000  Tot: +0.62000 ]
LCAOMinimize: Iter:   1  F: -24.4414425258867709  |grad|_K:  2.669e-07  alpha:  9.795e-01  linmin: -2.206e-02  cgtest:  2.874e-01  t[s]:      4.34
LCAOMinimize: Encountered beta<0, resetting CG.
[d-6-7-4:24944] 18 more processes have sent help message help-mpi-common-cuda.txt / dlopen failed
[d-6-7-4:24944] Set MCA parameter "orte_base_help_aggregate" to 0 to see all help / error messages
[d-6-7-4:24944] 18 more processes have sent help message help-mpi-btl-openib-cpc-base.txt / no cpcs for port
	FillingsUpdate:  mu: -0.096432058  nElectrons: 9.000000  magneticMoment: [ Abs: 0.62000  Tot: +0.62000 ]
LCAOMinimize: Iter:   2  F: -24.4414425259353507  |grad|_K:  1.229e-09  alpha:  1.001e+00  linmin: -3.274e-03  cgtest:  1.999e-02  t[s]:      5.47
LCAOMinimize: Encountered beta<0, resetting CG.
LCAOMinimize: Converged (|Delta F|<1.000000e-06 for 2 iters).


---- Citations for features of the code used in this run ----

   Software package:
      R. Sundararaman, K. Letchworth-Weaver, K.A. Schwarz, D. Gunceler, Y. Ozhabes and T.A. Arias, 'JDFTx: software for joint density-functional theory', SoftwareX 6, 278 (2017)

   gga-PBE exchange-correlation functional:
      J.P. Perdew, K. Burke and M. Ernzerhof, Phys. Rev. Lett. 77, 3865 (1996)

   Pseudopotentials:
      M Schlipf and F Gygi, Comput. Phys. Commun. 196, 36 (2015)

   Truncated Coulomb potentials:
      R. Sundararaman and T.A. Arias, Phys. Rev. B 87, 165122 (2013)

This list may not be complete. Please suggest additional citations or
report any other bugs at https://github.com/shankar1729/jdftx/issues

Initialization completed successfully at t[s]:      5.56


-------- Electronic minimization -----------
Will mix electronic density at each iteration.
	FillingsUpdate:  mu: -0.096432058  nElectrons: 9.000000  magneticMoment: [ Abs: 0.62000  Tot: +0.62000 ]
	FillingsUpdate:  mu: -0.106715147  nElectrons: 9.000000  magneticMoment: [ Abs: 0.62000  Tot: +0.62000 ]
SCF: Cycle:  0   F: -24.449198878576251   dF: -7.756e-03   |Residual|: 1.295e-02   |deigs|: 1.782e-01  t[s]:      8.00
	FillingsUpdate:  mu: -0.106902670  nElectrons: 9.000000  magneticMoment: [ Abs: 0.62000  Tot: +0.62000 ]
SCF: Cycle:  1   F: -24.449540224192006   dF: -3.413e-04   |Residual|: 9.232e-03   |deigs|: 7.043e-03  t[s]:      9.78
	FillingsUpdate:  mu: -0.105566434  nElectrons: 9.000000  magneticMoment: [ Abs: 0.62266  Tot: +0.62000 ]
SCF: Cycle:  2   F: -24.449677794644675   dF: -1.376e-04   |Residual|: 5.489e-03   |deigs|: 2.765e-03  t[s]:     11.58
	FillingsUpdate:  mu: -0.104187709  nElectrons: 9.000000  magneticMoment: [ Abs: 0.62007  Tot: +0.62000 ]
SCF: Cycle:  3   F: -24.449752864547602   dF: -7.507e-05   |Residual|: 3.315e-03   |deigs|: 1.520e-03  t[s]:     13.47
	FillingsUpdate:  mu: -0.102267015  nElectrons: 9.000000  magneticMoment: [ Abs: 0.62009  Tot: +0.62000 ]
SCF: Cycle:  4   F: -24.449799808699062   dF: -4.694e-05   |Residual|: 2.249e-03   |deigs|: 1.975e-03  t[s]:     15.34
	FillingsUpdate:  mu: -0.100660924  nElectrons: 9.000000  magneticMoment: [ Abs: 0.62090  Tot: +0.62000 ]
SCF: Cycle:  5   F: -24.449819823511234   dF: -2.001e-05   |Residual|: 1.699e-03   |deigs|: 3.468e-03  t[s]:     17.22
	FillingsUpdate:  mu: -0.098174014  nElectrons: 9.000000  magneticMoment: [ Abs: 0.62693  Tot: +0.62000 ]
SCF: Cycle:  6   F: -24.449818431983282   dF: +1.392e-06   |Residual|: 1.284e-03   |deigs|: 3.217e-03  t[s]:     19.10
	FillingsUpdate:  mu: -0.095728296  nElectrons: 9.000000  magneticMoment: [ Abs: 0.62841  Tot: +0.62000 ]
SCF: Cycle:  7   F: -24.449841331780199   dF: -2.290e-05   |Residual|: 1.173e-03   |deigs|: 3.033e-03  t[s]:     21.03
	FillingsUpdate:  mu: -0.096184383  nElectrons: 9.000000  magneticMoment: [ Abs: 0.62100  Tot: +0.62000 ]
SCF: Cycle:  8   F: -24.449854670068888   dF: -1.334e-05   |Residual|: 9.057e-04   |deigs|: 2.057e-03  t[s]:     22.99
	FillingsUpdate:  mu: -0.094832345  nElectrons: 9.000000  magneticMoment: [ Abs: 0.62263  Tot: +0.62000 ]
SCF: Cycle:  9   F: -24.449858541451547   dF: -3.871e-06   |Residual|: 7.262e-04   |deigs|: 1.505e-03  t[s]:     24.95
	FillingsUpdate:  mu: -0.093416764  nElectrons: 9.000000  magneticMoment: [ Abs: 0.62444  Tot: +0.62000 ]
SCF: Cycle: 10   F: -24.449861209239366   dF: -2.668e-06   |Residual|: 6.174e-04   |deigs|: 1.467e-03  t[s]:     26.91
	FillingsUpdate:  mu: -0.092633269  nElectrons: 9.000000  magneticMoment: [ Abs: 0.62361  Tot: +0.62000 ]
SCF: Cycle: 11   F: -24.449862450948380   dF: -1.242e-06   |Residual|: 5.774e-04   |deigs|: 8.202e-04  t[s]:     28.99
	FillingsUpdate:  mu: -0.091493411  nElectrons: 9.000000  magneticMoment: [ Abs: 0.62392  Tot: +0.62000 ]
SCF: Cycle: 12   F: -24.449870605187758   dF: -8.154e-06   |Residual|: 5.197e-04   |deigs|: 1.131e-03  t[s]:     31.02
	FillingsUpdate:  mu: -0.089594511  nElectrons: 9.000000  magneticMoment: [ Abs: 0.62530  Tot: +0.62000 ]
SCF: Cycle: 13   F: -24.449878256097342   dF: -7.651e-06   |Residual|: 4.579e-04   |deigs|: 1.913e-03  t[s]:     33.03
	FillingsUpdate:  mu: -0.088478230  nElectrons: 9.000000  magneticMoment: [ Abs: 0.62335  Tot: +0.62000 ]
SCF: Cycle: 14   F: -24.449881780892476   dF: -3.525e-06   |Residual|: 4.196e-04   |deigs|: 1.166e-03  t[s]:     35.04
	FillingsUpdate:  mu: -0.087138016  nElectrons: 9.000000  magneticMoment: [ Abs: 0.62112  Tot: +0.62000 ]
SCF: Cycle: 15   F: -24.449885191076547   dF: -3.410e-06   |Residual|: 3.139e-04   |deigs|: 1.435e-03  t[s]:     37.01
	FillingsUpdate:  mu: -0.086759974  nElectrons: 9.000000  magneticMoment: [ Abs: 0.62097  Tot: +0.62000 ]
SCF: Cycle: 16   F: -24.449886853529101   dF: -1.662e-06   |Residual|: 2.214e-04   |deigs|: 5.331e-04  t[s]:     38.96
	FillingsUpdate:  mu: -0.086516150  nElectrons: 9.000000  magneticMoment: [ Abs: 0.62046  Tot: +0.62000 ]
SCF: Cycle: 17   F: -24.449888148222399   dF: -1.295e-06   |Residual|: 1.506e-04   |deigs|: 2.754e-04  t[s]:     40.89
	FillingsUpdate:  mu: -0.086458379  nElectrons: 9.000000  magneticMoment: [ Abs: 0.62019  Tot: +0.62000 ]
SCF: Cycle: 18   F: -24.449888489089908   dF: -3.409e-07   |Residual|: 1.062e-04   |deigs|: 3.065e-04  t[s]:     42.83
	FillingsUpdate:  mu: -0.086401841  nElectrons: 9.000000  magneticMoment: [ Abs: 0.62045  Tot: +0.62000 ]
SCF: Cycle: 19   F: -24.449888789061017   dF: -3.000e-07   |Residual|: 4.745e-05   |deigs|: 1.186e-04  t[s]:     44.78
	FillingsUpdate:  mu: -0.086403225  nElectrons: 9.000000  magneticMoment: [ Abs: 0.62043  Tot: +0.62000 ]
SCF: Cycle: 20   F: -24.449888849477475   dF: -6.042e-08   |Residual|: 2.884e-05   |deigs|: 1.966e-05  t[s]:     46.72
	FillingsUpdate:  mu: -0.086390483  nElectrons: 9.000000  magneticMoment: [ Abs: 0.62041  Tot: +0.62000 ]
SCF: Cycle: 21   F: -24.449888891814147   dF: -4.234e-08   |Residual|: 2.011e-05   |deigs|: 1.743e-05  t[s]:     48.69
	FillingsUpdate:  mu: -0.086410123  nElectrons: 9.000000  magneticMoment: [ Abs: 0.62040  Tot: +0.62000 ]
SCF: Cycle: 22   F: -24.449888913586474   dF: -2.177e-08   |Residual|: 1.395e-05   |deigs|: 2.194e-05  t[s]:     50.64
	FillingsUpdate:  mu: -0.086419577  nElectrons: 9.000000  magneticMoment: [ Abs: 0.62035  Tot: +0.62000 ]
SCF: Cycle: 23   F: -24.449888915829874   dF: -2.243e-09   |Residual|: 1.191e-05   |deigs|: 1.519e-05  t[s]:     52.65
	FillingsUpdate:  mu: -0.086427335  nElectrons: 9.000000  magneticMoment: [ Abs: 0.62028  Tot: +0.62000 ]
SCF: Cycle: 24   F: -24.449888928892538   dF: -1.306e-08   |Residual|: 1.027e-05   |deigs|: 1.324e-05  t[s]:     54.68
	FillingsUpdate:  mu: -0.086410292  nElectrons: 9.000000  magneticMoment: [ Abs: 0.62018  Tot: +0.62000 ]
SCF: Cycle: 25   F: -24.449888933321375   dF: -4.429e-09   |Residual|: 9.893e-06   |deigs|: 1.753e-05  t[s]:     56.64
	FillingsUpdate:  mu: -0.086400937  nElectrons: 9.000000  magneticMoment: [ Abs: 0.62013  Tot: +0.62000 ]
SCF: Cycle: 26   F: -24.449888936232387   dF: -2.911e-09   |Residual|: 6.476e-06   |deigs|: 9.972e-06  t[s]:     58.60
SCF: Converged (|Delta E|<1.000000e-08 for 2 iters).


# Ionic positions in lattice coordinates:
ion Rb   0.000000000000000   0.000000000000000   0.000000000000000 0

# Forces in Lattice coordinates:
force Rb  -0.000000000000000  -0.000000000000000   0.000000000000000 0

# Energy components:
   Eewald =      -18.0480261003326561
       EH =        1.6662880568540603
     Eloc =      -10.5780930227835075
      Enl =       -0.7977773482400310
   Epulay =        0.0000000035676145
      Exc =       -3.6800389082293408
       KE =        6.9877594404099987
-------------------------------------
     Etot =      -24.4498878787538665
       TS =        0.0000010574785198
-------------------------------------
        F =      -24.4498889362323872

IonicMinimize: Iter:   0  F: -24.449888936232387  |grad|_K:  0.000e+00  t[s]:     58.72
IonicMinimize: Converged (|grad|_K<1.000000e-04).

#--- Lowdin population analysis ---
# oxidation-state Rb +0.082
# magnetic-moments Rb +0.544

End date and time: Sun Feb  6 12:55:14 2022  (Duration: 0-0:00:58.74)
Done!
scale=3
magnetization=0.62
--------------------------------------------------------------------------
The library attempted to open the following supporting CUDA libraries,
but each of them failed.  CUDA-aware support is disabled.
libcuda.so.1: cannot open shared object file: No such file or directory
libcuda.dylib: cannot open shared object file: No such file or directory
/usr/lib64/libcuda.so.1: cannot open shared object file: No such file or directory
/usr/lib64/libcuda.dylib: cannot open shared object file: No such file or directory
If you are not interested in CUDA-aware support, then run with
--mca opal_warn_on_missing_libcuda 0 to suppress this message.  If you are interested
in CUDA-aware support, then try setting LD_LIBRARY_PATH to the location
of libcuda.so.1 to get passed this issue.
--------------------------------------------------------------------------
--------------------------------------------------------------------------
No OpenFabrics connection schemes reported that they were able to be
used on a specific port.  As such, the openib BTL (OpenFabrics
support) will be disabled for this port.

  Local host:           d-6-7-4
  Local device:         mlx5_1
  Local port:           1
  CPCs attempted:       rdmacm, udcm
--------------------------------------------------------------------------

*************** JDFTx 1.6.0 (git hash 42ebbcc2) ***************

Start date and time: Sun Feb  6 12:55:15 2022
Executable jdftx with command-line: -i Alkali.in
Running on hosts (process indices):  d-6-7-4 (0-18)
Divided in process groups (process indices):  0 (0)  1 (1)  2 (2)  3 (3)  4 (4)  5 (5)  6 (6)  7 (7)  8 (8)  9 (9)  10 (10)  11 (11)  12 (12)  13 (13)  14 (14)  15 (15)  16 (16)  17 (17)  18 (18)
Resource initialization completed at t[s]:      0.00
Run totals: 19 processes, 48 threads, 0 GPUs


Input parsed successfully to the following command list (including defaults):

basis kpoint-dependent
coords-type Lattice
core-overlap-check vector
coulomb-interaction Slab 001
davidson-band-ratio 1.1
dump End None
dump-name $INPUT.$VAR
elec-cutoff 20
elec-eigen-algo Davidson
elec-ex-corr gga-PBE
elec-initial-magnetization 0.620000 yes
elec-smearing Fermi 1e-05
electronic-minimize  \
	dirUpdateScheme      FletcherReeves \
	linminMethod         DirUpdateRecommended \
	nIterations          100 \
	history              15 \
	knormThreshold       0 \
	energyDiffThreshold  1e-08 \
	nEnergyDiff          2 \
	alphaTstart          1 \
	alphaTmin            1e-10 \
	updateTestStepSize   yes \
	alphaTreduceFactor   0.1 \
	alphaTincreaseFactor 3 \
	nAlphaAdjustMax      3 \
	wolfeEnergy          0.0001 \
	wolfeGradient        0.9 \
	fdTest               no
electronic-scf  \
	nIterations	10000 \
	energyDiffThreshold	1e-08 \
	residualThreshold	1e-07 \
	mixFraction	0.5 \
	qMetric	0.8 \
	history	10 \
	nEigSteps	2 \
	eigDiffThreshold	1e-08 \
	mixedVariable	Density \
	qKerker	0.8 \
	qKappa	-1 \
	verbose	no \
	mixFractionMag	1.5
exchange-regularization WignerSeitzTruncated
fluid None
fluid-ex-corr (null) lda-PZ
fluid-gummel-loop 10 1.000000e-05
fluid-minimize  \
	dirUpdateScheme      PolakRibiere \
	linminMethod         DirUpdateRecommended \
	nIterations          100 \
	history              15 \
	knormThreshold       0 \
	energyDiffThreshold  0 \
	nEnergyDiff          2 \
	alphaTstart          1 \
	alphaTmin            1e-10 \
	updateTestStepSize   yes \
	alphaTreduceFactor   0.1 \
	alphaTincreaseFactor 3 \
	nAlphaAdjustMax      3 \
	wolfeEnergy          0.0001 \
	wolfeGradient        0.9 \
	fdTest               no
fluid-solvent H2O 55.338 ScalarEOS \
	epsBulk 78.4 \
	pMol 0.92466 \
	epsInf 1.77 \
	Pvap 1.06736e-10 \
	sigmaBulk 4.62e-05 \
	Rvdw 2.61727 \
	Res 1.42 \
	tauNuc 343133 \
	poleEl 15 7 1
forces-output-coords Positions
ion Rb   0.000000000000000   0.000000000000000   0.000000000000000 0
ion-species SG15/$ID_ONCV_PBE.upf
ion-width 0
ionic-minimize  \
	dirUpdateScheme      L-BFGS \
	linminMethod         DirUpdateRecommended \
	nIterations          0 \
	history              15 \
	knormThreshold       0.0001 \
	energyDiffThreshold  1e-06 \
	nEnergyDiff          2 \
	alphaTstart          1 \
	alphaTmin            1e-10 \
	updateTestStepSize   yes \
	alphaTreduceFactor   0.1 \
	alphaTincreaseFactor 3 \
	nAlphaAdjustMax      3 \
	wolfeEnergy          0.0001 \
	wolfeGradient        0.9 \
	fdTest               no
kpoint   0.000000000000   0.000000000000   0.000000000000  1.00000000000000
kpoint-folding 12 12 1 
latt-move-scale 1 1 1
latt-scale 3 3 1 
lattice  \
	   4.727486978767153   -2.363743489383575    0.000000000000000  \
	  -0.000000000000000    4.094123819672498    0.000000000000000  \
	   0.000000000000000    0.000000000000000   40.000000000000000 
lattice-minimize  \
	dirUpdateScheme      L-BFGS \
	linminMethod         DirUpdateRecommended \
	nIterations          0 \
	history              15 \
	knormThreshold       0 \
	energyDiffThreshold  1e-06 \
	nEnergyDiff          2 \
	alphaTstart          1 \
	alphaTmin            1e-10 \
	updateTestStepSize   yes \
	alphaTreduceFactor   0.1 \
	alphaTincreaseFactor 3 \
	nAlphaAdjustMax      3 \
	wolfeEnergy          0.0001 \
	wolfeGradient        0.9 \
	fdTest               no
lcao-params -1 1e-06 1e-05
pcm-variant GLSSA13
spintype z-spin
subspace-rotation-factor 1 yes
symmetries automatic
symmetry-threshold 0.0001



---------- Setting up symmetries ----------

Found 24 point-group symmetries of the bravais lattice
Found 24 space-group symmetries with basis
Applied RMS atom displacement 0 bohrs to make symmetries exact.

---------- Initializing the Grid ----------
R = 
[      14.1825     -7.09123            0  ]
[            0      12.2824            0  ]
[            0            0           40  ]
unit cell volume = 6967.77
G =
[   0.443025   0.255781         -0  ]
[          0   0.511561         -0  ]
[         -0         -0    0.15708  ]
Minimum fftbox size, Smin = [  60  60  164  ]
Chosen fftbox size, S = [  60  60  168  ]

---------- Exchange Correlation functional ----------
Initalized PBE GGA exchange.
Initalized PBE GGA correlation.

---------- Setting up pseudopotentials ----------
Width of ionic core gaussian charges (only for fluid interactions / plotting) set to 0

Reading pseudopotential file '/home/gridsan/aligho/DFT/build-Nov24/pseudopotentials/SG15/Rb_ONCV_PBE.upf':
  'Rb' pseudopotential, 'PBE' functional
  Generated using ONCVPSP code by D. R. Hamann
  Author: Martin Schlipf and Francois Gygi  Date: 150915.
  9 valence electrons, 3 orbitals, 6 projectors, 2308 radial grid points, with lMax = 2
  Transforming local potential to a uniform radial grid of dG=0.02 with 1489 points.
  Transforming nonlocal projectors to a uniform radial grid of dG=0.02 with 432 points.
    4S    l: 0   occupation:  2.0   eigenvalue: -1.172069
    4P    l: 1   occupation:  6.0   eigenvalue: -0.586674
    5S    l: 0   occupation:  1.0   eigenvalue: -0.082006
  Transforming atomic orbitals to a uniform radial grid of dG=0.02 with 432 points.
  Core radius for overlap checks: 2.60 bohrs.
  Reading pulay file /home/gridsan/aligho/DFT/build-Nov24/pseudopotentials/SG15/Rb_ONCV_PBE.pulay ... using dE_dnG = -1.360715e-05 computed for Ecut = 20.

Initialized 1 species with 1 total atoms.

Folded 1 k-points by 12x12x1 to 144 k-points.

---------- Setting up k-points, bands, fillings ----------
Reduced to 19 k-points under symmetry. 
Computing the number of bands and number of electrons
Calculating initial fillings.
nElectrons:   9.000000   nBands: 6   nStates: 38

----- Setting up reduced wavefunction bases (one per k-point) -----
average nbasis = 29766.104 , ideal nbasis = 29766.845

---------- Setting up coulomb interaction ----------
Initialized slab truncation along lattice direction 001

---------- Setting up 2D ewald sum ----------
Optimum gaussian width for ewald sums = 7.873530 bohr.
Real space sums over 289 unit cells with max indices [  8  8  0  ]
Reciprocal space sums over 81 terms with max indices [  4  4  0  ]

---------- Allocating electronic variables ----------
Initializing wave functions:  linear combination of atomic orbitals
Note: number of bands (6) exceeds available atomic orbitals (5)
Rb pseudo-atom occupations:   s ( 2 1 )  p ( 6 )
[d-6-7-4:88798] 18 more processes have sent help message help-mpi-common-cuda.txt / dlopen failed
[d-6-7-4:88798] Set MCA parameter "orte_base_help_aggregate" to 0 to see all help / error messages
[d-6-7-4:88798] 18 more processes have sent help message help-mpi-btl-openib-cpc-base.txt / no cpcs for port
	FillingsUpdate:  mu: -0.086004763  nElectrons: 9.000000  magneticMoment: [ Abs: 0.62000  Tot: +0.62000 ]
LCAOMinimize: Iter:   0  F: -24.4355328369261073  |grad|_K:  1.319e-05  alpha:  1.000e+00
	FillingsUpdate:  mu: -0.086002192  nElectrons: 9.000000  magneticMoment: [ Abs: 0.62000  Tot: +0.62000 ]
LCAOMinimize: Iter:   1  F: -24.4355329545736275  |grad|_K:  9.556e-08  alpha:  9.887e-01  linmin: -1.233e-02  cgtest:  2.855e-01  t[s]:      8.67
LCAOMinimize: Encountered beta<0, resetting CG.
	FillingsUpdate:  mu: -0.086002198  nElectrons: 9.000000  magneticMoment: [ Abs: 0.62000  Tot: +0.62000 ]
LCAOMinimize: Iter:   2  F: -24.4355329545795676  |grad|_K:  2.280e-09  alpha:  9.760e-01  linmin: -6.918e-02  cgtest:  9.833e-01  t[s]:     11.02
LCAOMinimize: Encountered beta<0, resetting CG.
LCAOMinimize: Converged (|Delta F|<1.000000e-06 for 2 iters).


---- Citations for features of the code used in this run ----

   Software package:
      R. Sundararaman, K. Letchworth-Weaver, K.A. Schwarz, D. Gunceler, Y. Ozhabes and T.A. Arias, 'JDFTx: software for joint density-functional theory', SoftwareX 6, 278 (2017)

   gga-PBE exchange-correlation functional:
      J.P. Perdew, K. Burke and M. Ernzerhof, Phys. Rev. Lett. 77, 3865 (1996)

   Pseudopotentials:
      M Schlipf and F Gygi, Comput. Phys. Commun. 196, 36 (2015)

   Truncated Coulomb potentials:
      R. Sundararaman and T.A. Arias, Phys. Rev. B 87, 165122 (2013)

This list may not be complete. Please suggest additional citations or
report any other bugs at https://github.com/shankar1729/jdftx/issues

Initialization completed successfully at t[s]:     11.18


-------- Electronic minimization -----------
Will mix electronic density at each iteration.
	FillingsUpdate:  mu: -0.086002198  nElectrons: 9.000000  magneticMoment: [ Abs: 0.62000  Tot: +0.62000 ]
	FillingsUpdate:  mu: -0.087185578  nElectrons: 9.000000  magneticMoment: [ Abs: 0.62000  Tot: +0.62000 ]
SCF: Cycle:  0   F: -24.437084654875882   dF: -1.552e-03   |Residual|: 3.990e-03   |deigs|: 1.735e-01  t[s]:     15.81
	FillingsUpdate:  mu: -0.087363092  nElectrons: 9.000000  magneticMoment: [ Abs: 0.62066  Tot: +0.62000 ]
SCF: Cycle:  1   F: -24.437145974050985   dF: -6.132e-05   |Residual|: 3.125e-03   |deigs|: 4.872e-03  t[s]:     19.52
	FillingsUpdate:  mu: -0.087523235  nElectrons: 9.000000  magneticMoment: [ Abs: 0.62268  Tot: +0.62000 ]
SCF: Cycle:  2   F: -24.437186302805337   dF: -4.033e-05   |Residual|: 2.299e-03   |deigs|: 1.873e-03  t[s]:     23.21
	FillingsUpdate:  mu: -0.087760478  nElectrons: 9.000000  magneticMoment: [ Abs: 0.62348  Tot: +0.62000 ]
SCF: Cycle:  3   F: -24.437213474125429   dF: -2.717e-05   |Residual|: 1.582e-03   |deigs|: 2.373e-03  t[s]:     27.01
	FillingsUpdate:  mu: -0.087809790  nElectrons: 9.000000  magneticMoment: [ Abs: 0.62168  Tot: +0.62000 ]
SCF: Cycle:  4   F: -24.437225763157915   dF: -1.229e-05   |Residual|: 8.324e-04   |deigs|: 1.962e-03  t[s]:     30.82
	FillingsUpdate:  mu: -0.087882736  nElectrons: 9.000000  magneticMoment: [ Abs: 0.62246  Tot: +0.62000 ]
SCF: Cycle:  5   F: -24.437232485800763   dF: -6.723e-06   |Residual|: 5.179e-04   |deigs|: 2.166e-03  t[s]:     34.75
	FillingsUpdate:  mu: -0.087805159  nElectrons: 9.000000  magneticMoment: [ Abs: 0.62217  Tot: +0.62000 ]
SCF: Cycle:  6   F: -24.437236884825762   dF: -4.399e-06   |Residual|: 3.748e-04   |deigs|: 1.337e-03  t[s]:     38.63
	FillingsUpdate:  mu: -0.087642876  nElectrons: 9.000000  magneticMoment: [ Abs: 0.62249  Tot: +0.62000 ]
SCF: Cycle:  7   F: -24.437238029311139   dF: -1.144e-06   |Residual|: 3.020e-04   |deigs|: 8.853e-04  t[s]:     42.62
	FillingsUpdate:  mu: -0.087395723  nElectrons: 9.000000  magneticMoment: [ Abs: 0.62319  Tot: +0.62000 ]
SCF: Cycle:  8   F: -24.437238231813154   dF: -2.025e-07   |Residual|: 2.429e-04   |deigs|: 3.846e-04  t[s]:     46.74
	FillingsUpdate:  mu: -0.087010558  nElectrons: 9.000000  magneticMoment: [ Abs: 0.62356  Tot: +0.62000 ]
SCF: Cycle:  9   F: -24.437237414580657   dF: +8.172e-07   |Residual|: 2.163e-04   |deigs|: 4.873e-04  t[s]:     50.96
	FillingsUpdate:  mu: -0.086778170  nElectrons: 9.000000  magneticMoment: [ Abs: 0.62326  Tot: +0.62000 ]
SCF: Cycle: 10   F: -24.437237462136796   dF: -4.756e-08   |Residual|: 1.940e-04   |deigs|: 2.530e-04  t[s]:     55.23
	FillingsUpdate:  mu: -0.086678159  nElectrons: 9.000000  magneticMoment: [ Abs: 0.62321  Tot: +0.62000 ]
SCF: Cycle: 11   F: -24.437239132936934   dF: -1.671e-06   |Residual|: 1.444e-04   |deigs|: 3.671e-04  t[s]:     59.36
	FillingsUpdate:  mu: -0.086483804  nElectrons: 9.000000  magneticMoment: [ Abs: 0.62362  Tot: +0.62000 ]
SCF: Cycle: 12   F: -24.437239350413478   dF: -2.175e-07   |Residual|: 1.380e-04   |deigs|: 2.639e-04  t[s]:     63.51
	FillingsUpdate:  mu: -0.086079147  nElectrons: 9.000000  magneticMoment: [ Abs: 0.62337  Tot: +0.62000 ]
SCF: Cycle: 13   F: -24.437239066857558   dF: +2.836e-07   |Residual|: 1.352e-04   |deigs|: 4.273e-04  t[s]:     67.71
	FillingsUpdate:  mu: -0.085860940  nElectrons: 9.000000  magneticMoment: [ Abs: 0.62329  Tot: +0.62000 ]
SCF: Cycle: 14   F: -24.437238865896227   dF: +2.010e-07   |Residual|: 1.248e-04   |deigs|: 5.266e-04  t[s]:     71.90
	FillingsUpdate:  mu: -0.085793103  nElectrons: 9.000000  magneticMoment: [ Abs: 0.62311  Tot: +0.62000 ]
SCF: Cycle: 15   F: -24.437239770661236   dF: -9.048e-07   |Residual|: 1.040e-04   |deigs|: 1.665e-04  t[s]:     76.09
	FillingsUpdate:  mu: -0.085575222  nElectrons: 9.000000  magneticMoment: [ Abs: 0.62245  Tot: +0.62000 ]
SCF: Cycle: 16   F: -24.437240521999328   dF: -7.513e-07   |Residual|: 7.342e-05   |deigs|: 2.466e-04  t[s]:     80.33
	FillingsUpdate:  mu: -0.085410696  nElectrons: 9.000000  magneticMoment: [ Abs: 0.62235  Tot: +0.62000 ]
SCF: Cycle: 17   F: -24.437240654693362   dF: -1.327e-07   |Residual|: 5.495e-05   |deigs|: 1.919e-04  t[s]:     84.49
	FillingsUpdate:  mu: -0.085429449  nElectrons: 9.000000  magneticMoment: [ Abs: 0.62232  Tot: +0.62000 ]
SCF: Cycle: 18   F: -24.437240788033982   dF: -1.333e-07   |Residual|: 3.917e-05   |deigs|: 1.114e-04  t[s]:     88.64
	FillingsUpdate:  mu: -0.085437537  nElectrons: 9.000000  magneticMoment: [ Abs: 0.62232  Tot: +0.62000 ]
SCF: Cycle: 19   F: -24.437240896524919   dF: -1.085e-07   |Residual|: 2.349e-05   |deigs|: 1.036e-04  t[s]:     92.80
	FillingsUpdate:  mu: -0.085416515  nElectrons: 9.000000  magneticMoment: [ Abs: 0.62232  Tot: +0.62000 ]
SCF: Cycle: 20   F: -24.437240916853607   dF: -2.033e-08   |Residual|: 1.576e-05   |deigs|: 9.218e-05  t[s]:     96.92
	FillingsUpdate:  mu: -0.085418058  nElectrons: 9.000000  magneticMoment: [ Abs: 0.62233  Tot: +0.62000 ]
SCF: Cycle: 21   F: -24.437240929786860   dF: -1.293e-08   |Residual|: 9.953e-06   |deigs|: 6.604e-05  t[s]:    100.99
	FillingsUpdate:  mu: -0.085418971  nElectrons: 9.000000  magneticMoment: [ Abs: 0.62234  Tot: +0.62000 ]
SCF: Cycle: 22   F: -24.437240939118986   dF: -9.332e-09   |Residual|: 6.229e-06   |deigs|: 3.548e-05  t[s]:    105.16
	FillingsUpdate:  mu: -0.085422784  nElectrons: 9.000000  magneticMoment: [ Abs: 0.62234  Tot: +0.62000 ]
SCF: Cycle: 23   F: -24.437240941280848   dF: -2.162e-09   |Residual|: 4.321e-06   |deigs|: 2.374e-05  t[s]:    109.27
SCF: Converged (|Delta E|<1.000000e-08 for 2 iters).


# Ionic positions in lattice coordinates:
ion Rb   0.000000000000000   0.000000000000000   0.000000000000000 0

# Forces in Lattice coordinates:
force Rb   0.000000000000000  -0.000000000000000   0.000000000000000 0

# Energy components:
   Eewald =      -12.0320174002217755
       EH =        7.5045855175254772
     Eloc =      -22.4164857246398910
      Enl =       -0.7968661469391368
   Epulay =       -0.0000000014467880
      Exc =       -3.6494740471363118
       KE =        6.9530179190560997
-------------------------------------
     Etot =      -24.4372398838023273
       TS =        0.0000010574785198
-------------------------------------
        F =      -24.4372409412808480

IonicMinimize: Iter:   0  F: -24.437240941280848  |grad|_K:  0.000e+00  t[s]:    109.52
IonicMinimize: Converged (|grad|_K<1.000000e-04).

#--- Lowdin population analysis ---
# oxidation-state Rb +0.035
# magnetic-moments Rb +0.589

End date and time: Sun Feb  6 12:57:05 2022  (Duration: 0-0:01:49.57)
Done!
scale=4
magnetization=0.62
--------------------------------------------------------------------------
The library attempted to open the following supporting CUDA libraries,
but each of them failed.  CUDA-aware support is disabled.
libcuda.so.1: cannot open shared object file: No such file or directory
libcuda.dylib: cannot open shared object file: No such file or directory
/usr/lib64/libcuda.so.1: cannot open shared object file: No such file or directory
/usr/lib64/libcuda.dylib: cannot open shared object file: No such file or directory
If you are not interested in CUDA-aware support, then run with
--mca opal_warn_on_missing_libcuda 0 to suppress this message.  If you are interested
in CUDA-aware support, then try setting LD_LIBRARY_PATH to the location
of libcuda.so.1 to get passed this issue.
--------------------------------------------------------------------------
--------------------------------------------------------------------------
No OpenFabrics connection schemes reported that they were able to be
used on a specific port.  As such, the openib BTL (OpenFabrics
support) will be disabled for this port.

  Local host:           d-6-7-4
  Local device:         mlx5_1
  Local port:           1
  CPCs attempted:       rdmacm, udcm
--------------------------------------------------------------------------

*************** JDFTx 1.6.0 (git hash 42ebbcc2) ***************

Start date and time: Sun Feb  6 12:57:06 2022
Executable jdftx with command-line: -i Alkali.in
Running on hosts (process indices):  d-6-7-4 (0-18)
Divided in process groups (process indices):  0 (0)  1 (1)  2 (2)  3 (3)  4 (4)  5 (5)  6 (6)  7 (7)  8 (8)  9 (9)  10 (10)  11 (11)  12 (12)  13 (13)  14 (14)  15 (15)  16 (16)  17 (17)  18 (18)
Resource initialization completed at t[s]:      0.00
Run totals: 19 processes, 48 threads, 0 GPUs


Input parsed successfully to the following command list (including defaults):

basis kpoint-dependent
coords-type Lattice
core-overlap-check vector
coulomb-interaction Slab 001
davidson-band-ratio 1.1
dump End None
dump-name $INPUT.$VAR
elec-cutoff 20
elec-eigen-algo Davidson
elec-ex-corr gga-PBE
elec-initial-magnetization 0.620000 yes
elec-smearing Fermi 1e-05
electronic-minimize  \
	dirUpdateScheme      FletcherReeves \
	linminMethod         DirUpdateRecommended \
	nIterations          100 \
	history              15 \
	knormThreshold       0 \
	energyDiffThreshold  1e-08 \
	nEnergyDiff          2 \
	alphaTstart          1 \
	alphaTmin            1e-10 \
	updateTestStepSize   yes \
	alphaTreduceFactor   0.1 \
	alphaTincreaseFactor 3 \
	nAlphaAdjustMax      3 \
	wolfeEnergy          0.0001 \
	wolfeGradient        0.9 \
	fdTest               no
electronic-scf  \
	nIterations	10000 \
	energyDiffThreshold	1e-08 \
	residualThreshold	1e-07 \
	mixFraction	0.5 \
	qMetric	0.8 \
	history	10 \
	nEigSteps	2 \
	eigDiffThreshold	1e-08 \
	mixedVariable	Density \
	qKerker	0.8 \
	qKappa	-1 \
	verbose	no \
	mixFractionMag	1.5
exchange-regularization WignerSeitzTruncated
fluid None
fluid-ex-corr (null) lda-PZ
fluid-gummel-loop 10 1.000000e-05
fluid-minimize  \
	dirUpdateScheme      PolakRibiere \
	linminMethod         DirUpdateRecommended \
	nIterations          100 \
	history              15 \
	knormThreshold       0 \
	energyDiffThreshold  0 \
	nEnergyDiff          2 \
	alphaTstart          1 \
	alphaTmin            1e-10 \
	updateTestStepSize   yes \
	alphaTreduceFactor   0.1 \
	alphaTincreaseFactor 3 \
	nAlphaAdjustMax      3 \
	wolfeEnergy          0.0001 \
	wolfeGradient        0.9 \
	fdTest               no
fluid-solvent H2O 55.338 ScalarEOS \
	epsBulk 78.4 \
	pMol 0.92466 \
	epsInf 1.77 \
	Pvap 1.06736e-10 \
	sigmaBulk 4.62e-05 \
	Rvdw 2.61727 \
	Res 1.42 \
	tauNuc 343133 \
	poleEl 15 7 1
forces-output-coords Positions
ion Rb   0.000000000000000   0.000000000000000   0.000000000000000 0
ion-species SG15/$ID_ONCV_PBE.upf
ion-width 0
ionic-minimize  \
	dirUpdateScheme      L-BFGS \
	linminMethod         DirUpdateRecommended \
	nIterations          0 \
	history              15 \
	knormThreshold       0.0001 \
	energyDiffThreshold  1e-06 \
	nEnergyDiff          2 \
	alphaTstart          1 \
	alphaTmin            1e-10 \
	updateTestStepSize   yes \
	alphaTreduceFactor   0.1 \
	alphaTincreaseFactor 3 \
	nAlphaAdjustMax      3 \
	wolfeEnergy          0.0001 \
	wolfeGradient        0.9 \
	fdTest               no
kpoint   0.000000000000   0.000000000000   0.000000000000  1.00000000000000
kpoint-folding 12 12 1 
latt-move-scale 1 1 1
latt-scale 4 4 1 
lattice  \
	   4.727486978767153   -2.363743489383575    0.000000000000000  \
	  -0.000000000000000    4.094123819672498    0.000000000000000  \
	   0.000000000000000    0.000000000000000   40.000000000000000 
lattice-minimize  \
	dirUpdateScheme      L-BFGS \
	linminMethod         DirUpdateRecommended \
	nIterations          0 \
	history              15 \
	knormThreshold       0 \
	energyDiffThreshold  1e-06 \
	nEnergyDiff          2 \
	alphaTstart          1 \
	alphaTmin            1e-10 \
	updateTestStepSize   yes \
	alphaTreduceFactor   0.1 \
	alphaTincreaseFactor 3 \
	nAlphaAdjustMax      3 \
	wolfeEnergy          0.0001 \
	wolfeGradient        0.9 \
	fdTest               no
lcao-params -1 1e-06 1e-05
pcm-variant GLSSA13
spintype z-spin
subspace-rotation-factor 1 yes
symmetries automatic
symmetry-threshold 0.0001



---------- Setting up symmetries ----------

Found 24 point-group symmetries of the bravais lattice
Found 24 space-group symmetries with basis
Applied RMS atom displacement 0 bohrs to make symmetries exact.

---------- Initializing the Grid ----------
R = 
[      18.9099     -9.45497            0  ]
[            0      16.3765            0  ]
[            0            0           40  ]
unit cell volume = 12387.1
G =
[   0.332269   0.191835         -0  ]
[          0   0.383671         -0  ]
[         -0         -0    0.15708  ]
Minimum fftbox size, Smin = [  80  80  164  ]
Chosen fftbox size, S = [  80  80  168  ]

---------- Exchange Correlation functional ----------
Initalized PBE GGA exchange.
Initalized PBE GGA correlation.

---------- Setting up pseudopotentials ----------
Width of ionic core gaussian charges (only for fluid interactions / plotting) set to 0

Reading pseudopotential file '/home/gridsan/aligho/DFT/build-Nov24/pseudopotentials/SG15/Rb_ONCV_PBE.upf':
  'Rb' pseudopotential, 'PBE' functional
  Generated using ONCVPSP code by D. R. Hamann
  Author: Martin Schlipf and Francois Gygi  Date: 150915.
  9 valence electrons, 3 orbitals, 6 projectors, 2308 radial grid points, with lMax = 2
  Transforming local potential to a uniform radial grid of dG=0.02 with 1489 points.
  Transforming nonlocal projectors to a uniform radial grid of dG=0.02 with 432 points.
    4S    l: 0   occupation:  2.0   eigenvalue: -1.172069
    4P    l: 1   occupation:  6.0   eigenvalue: -0.586674
    5S    l: 0   occupation:  1.0   eigenvalue: -0.082006
  Transforming atomic orbitals to a uniform radial grid of dG=0.02 with 432 points.
  Core radius for overlap checks: 2.60 bohrs.
  Reading pulay file /home/gridsan/aligho/DFT/build-Nov24/pseudopotentials/SG15/Rb_ONCV_PBE.pulay ... using dE_dnG = -1.360715e-05 computed for Ecut = 20.

Initialized 1 species with 1 total atoms.

Folded 1 k-points by 12x12x1 to 144 k-points.

---------- Setting up k-points, bands, fillings ----------
Reduced to 19 k-points under symmetry. 
Computing the number of bands and number of electrons
Calculating initial fillings.
nElectrons:   9.000000   nBands: 6   nStates: 38

----- Setting up reduced wavefunction bases (one per k-point) -----
average nbasis = 52924.021 , ideal nbasis = 52918.836

---------- Setting up coulomb interaction ----------
Initialized slab truncation along lattice direction 001

---------- Setting up 2D ewald sum ----------
Optimum gaussian width for ewald sums = 10.498040 bohr.
Real space sums over 289 unit cells with max indices [  8  8  0  ]
Reciprocal space sums over 81 terms with max indices [  4  4  0  ]

---------- Allocating electronic variables ----------
Initializing wave functions:  linear combination of atomic orbitals
Note: number of bands (6) exceeds available atomic orbitals (5)
Rb pseudo-atom occupations:   s ( 2 1 )  p ( 6 )
[d-6-7-4:41033] 18 more processes have sent help message help-mpi-common-cuda.txt / dlopen failed
[d-6-7-4:41033] Set MCA parameter "orte_base_help_aggregate" to 0 to see all help / error messages
[d-6-7-4:41033] 18 more processes have sent help message help-mpi-btl-openib-cpc-base.txt / no cpcs for port
	FillingsUpdate:  mu: -0.082849439  nElectrons: 9.000000  magneticMoment: [ Abs: 0.62000  Tot: +0.62000 ]
LCAOMinimize: Iter:   0  F: -24.4318123009705026  |grad|_K:  3.417e-06  alpha:  1.000e+00
	FillingsUpdate:  mu: -0.082848687  nElectrons: 9.000000  magneticMoment: [ Abs: 0.62000  Tot: +0.62000 ]
LCAOMinimize: Iter:   1  F: -24.4318123088724093  |grad|_K:  1.805e-08  alpha:  9.893e-01  linmin: -8.897e-04  cgtest:  1.542e-01  t[s]:     14.86
LCAOMinimize: Encountered beta<0, resetting CG.
	FillingsUpdate:  mu: -0.082848687  nElectrons: 9.000000  magneticMoment: [ Abs: 0.62000  Tot: +0.62000 ]
LCAOMinimize: Iter:   2  F: -24.4318123088725585  |grad|_K:  1.019e-08  alpha:  4.352e-01  linmin: -5.894e-03  cgtest:  1.000e+00  t[s]:     18.84
LCAOMinimize: Encountered beta<0, resetting CG.
LCAOMinimize: Converged (|Delta F|<1.000000e-06 for 2 iters).


---- Citations for features of the code used in this run ----

   Software package:
      R. Sundararaman, K. Letchworth-Weaver, K.A. Schwarz, D. Gunceler, Y. Ozhabes and T.A. Arias, 'JDFTx: software for joint density-functional theory', SoftwareX 6, 278 (2017)

   gga-PBE exchange-correlation functional:
      J.P. Perdew, K. Burke and M. Ernzerhof, Phys. Rev. Lett. 77, 3865 (1996)

   Pseudopotentials:
      M Schlipf and F Gygi, Comput. Phys. Commun. 196, 36 (2015)

   Truncated Coulomb potentials:
      R. Sundararaman and T.A. Arias, Phys. Rev. B 87, 165122 (2013)

This list may not be complete. Please suggest additional citations or
report any other bugs at https://github.com/shankar1729/jdftx/issues

Initialization completed successfully at t[s]:     19.08


-------- Electronic minimization -----------
Will mix electronic density at each iteration.
	FillingsUpdate:  mu: -0.082848687  nElectrons: 9.000000  magneticMoment: [ Abs: 0.62000  Tot: +0.62000 ]
	FillingsUpdate:  mu: -0.082945783  nElectrons: 9.000000  magneticMoment: [ Abs: 0.62000  Tot: +0.62000 ]
SCF: Cycle:  0   F: -24.431914997628898   dF: -1.027e-04   |Residual|: 1.424e-03   |deigs|: 1.724e-01  t[s]:     27.08
	FillingsUpdate:  mu: -0.082950545  nElectrons: 9.000000  magneticMoment: [ Abs: 0.62311  Tot: +0.62000 ]
SCF: Cycle:  1   F: -24.431916944384458   dF: -1.947e-06   |Residual|: 3.733e-04   |deigs|: 7.287e-03  t[s]:     33.42
	FillingsUpdate:  mu: -0.082946041  nElectrons: 9.000000  magneticMoment: [ Abs: 0.62322  Tot: +0.62000 ]
SCF: Cycle:  2   F: -24.431917425586285   dF: -4.812e-07   |Residual|: 2.212e-04   |deigs|: 1.578e-03  t[s]:     39.85
	FillingsUpdate:  mu: -0.082945806  nElectrons: 9.000000  magneticMoment: [ Abs: 0.62375  Tot: +0.62000 ]
SCF: Cycle:  3   F: -24.431917702935475   dF: -2.773e-07   |Residual|: 1.648e-04   |deigs|: 5.435e-04  t[s]:     46.36
	FillingsUpdate:  mu: -0.082929360  nElectrons: 9.000000  magneticMoment: [ Abs: 0.62369  Tot: +0.62000 ]
SCF: Cycle:  4   F: -24.431917963619263   dF: -2.607e-07   |Residual|: 1.258e-04   |deigs|: 2.444e-04  t[s]:     52.97
	FillingsUpdate:  mu: -0.082913369  nElectrons: 9.000000  magneticMoment: [ Abs: 0.62374  Tot: +0.62000 ]
SCF: Cycle:  5   F: -24.431918132152905   dF: -1.685e-07   |Residual|: 9.145e-05   |deigs|: 4.294e-04  t[s]:     59.70
	FillingsUpdate:  mu: -0.082886914  nElectrons: 9.000000  magneticMoment: [ Abs: 0.62368  Tot: +0.62000 ]
SCF: Cycle:  6   F: -24.431918243373275   dF: -1.112e-07   |Residual|: 6.433e-05   |deigs|: 3.295e-04  t[s]:     66.55
	FillingsUpdate:  mu: -0.082866978  nElectrons: 9.000000  magneticMoment: [ Abs: 0.62370  Tot: +0.62000 ]
SCF: Cycle:  7   F: -24.431918310783324   dF: -6.741e-08   |Residual|: 5.104e-05   |deigs|: 4.650e-04  t[s]:     73.57
	FillingsUpdate:  mu: -0.082852096  nElectrons: 9.000000  magneticMoment: [ Abs: 0.62369  Tot: +0.62000 ]
SCF: Cycle:  8   F: -24.431918351674710   dF: -4.089e-08   |Residual|: 4.312e-05   |deigs|: 6.322e-04  t[s]:     80.66
	FillingsUpdate:  mu: -0.082827049  nElectrons: 9.000000  magneticMoment: [ Abs: 0.62368  Tot: +0.62000 ]
SCF: Cycle:  9   F: -24.431918389316898   dF: -3.764e-08   |Residual|: 3.247e-05   |deigs|: 2.437e-04  t[s]:     87.87
	FillingsUpdate:  mu: -0.082806952  nElectrons: 9.000000  magneticMoment: [ Abs: 0.62371  Tot: +0.62000 ]
SCF: Cycle: 10   F: -24.431918374122091   dF: +1.519e-08   |Residual|: 2.859e-05   |deigs|: 1.948e-04  t[s]:     95.14
	FillingsUpdate:  mu: -0.082783486  nElectrons: 9.000000  magneticMoment: [ Abs: 0.62380  Tot: +0.62000 ]
SCF: Cycle: 11   F: -24.431918305719826   dF: +6.840e-08   |Residual|: 2.780e-05   |deigs|: 1.441e-04  t[s]:    102.44
	FillingsUpdate:  mu: -0.082764691  nElectrons: 9.000000  magneticMoment: [ Abs: 0.62385  Tot: +0.62000 ]
SCF: Cycle: 12   F: -24.431918150506611   dF: +1.552e-07   |Residual|: 2.512e-05   |deigs|: 7.543e-05  t[s]:    109.65
	FillingsUpdate:  mu: -0.082732632  nElectrons: 9.000000  magneticMoment: [ Abs: 0.62390  Tot: +0.62000 ]
SCF: Cycle: 13   F: -24.431918248647300   dF: -9.814e-08   |Residual|: 2.401e-05   |deigs|: 4.988e-05  t[s]:    116.92
	FillingsUpdate:  mu: -0.082696908  nElectrons: 9.000000  magneticMoment: [ Abs: 0.62395  Tot: +0.62000 ]
SCF: Cycle: 14   F: -24.431918384450157   dF: -1.358e-07   |Residual|: 1.891e-05   |deigs|: 4.295e-05  t[s]:    124.09
	FillingsUpdate:  mu: -0.082646279  nElectrons: 9.000000  magneticMoment: [ Abs: 0.62397  Tot: +0.62000 ]
SCF: Cycle: 15   F: -24.431918210015692   dF: +1.744e-07   |Residual|: 1.954e-05   |deigs|: 5.836e-05  t[s]:    131.16
	FillingsUpdate:  mu: -0.082617724  nElectrons: 9.000000  magneticMoment: [ Abs: 0.62384  Tot: +0.62000 ]
SCF: Cycle: 16   F: -24.431918363894258   dF: -1.539e-07   |Residual|: 1.510e-05   |deigs|: 3.362e-05  t[s]:    138.13
	FillingsUpdate:  mu: -0.082618226  nElectrons: 9.000000  magneticMoment: [ Abs: 0.62377  Tot: +0.62000 ]
SCF: Cycle: 17   F: -24.431918369235916   dF: -5.342e-09   |Residual|: 1.206e-05   |deigs|: 1.686e-05  t[s]:    145.14
	FillingsUpdate:  mu: -0.082613921  nElectrons: 9.000000  magneticMoment: [ Abs: 0.62373  Tot: +0.62000 ]
SCF: Cycle: 18   F: -24.431918419740398   dF: -5.050e-08   |Residual|: 8.855e-06   |deigs|: 1.805e-05  t[s]:    152.44
	FillingsUpdate:  mu: -0.082606356  nElectrons: 9.000000  magneticMoment: [ Abs: 0.62369  Tot: +0.62000 ]
SCF: Cycle: 19   F: -24.431918428497674   dF: -8.757e-09   |Residual|: 6.708e-06   |deigs|: 2.040e-05  t[s]:    159.56
	FillingsUpdate:  mu: -0.082606173  nElectrons: 9.000000  magneticMoment: [ Abs: 0.62369  Tot: +0.62000 ]
SCF: Cycle: 20   F: -24.431918459144054   dF: -3.065e-08   |Residual|: 5.508e-06   |deigs|: 2.578e-05  t[s]:    166.83
	FillingsUpdate:  mu: -0.082610883  nElectrons: 9.000000  magneticMoment: [ Abs: 0.62370  Tot: +0.62000 ]
SCF: Cycle: 21   F: -24.431918445331398   dF: +1.381e-08   |Residual|: 3.995e-06   |deigs|: 3.314e-05  t[s]:    173.56
	FillingsUpdate:  mu: -0.082612110  nElectrons: 9.000000  magneticMoment: [ Abs: 0.62370  Tot: +0.62000 ]
SCF: Cycle: 22   F: -24.431918462575588   dF: -1.724e-08   |Residual|: 2.499e-06   |deigs|: 3.473e-05  t[s]:    180.73
	FillingsUpdate:  mu: -0.082611351  nElectrons: 9.000000  magneticMoment: [ Abs: 0.62370  Tot: +0.62000 ]
SCF: Cycle: 23   F: -24.431918460219162   dF: +2.356e-09   |Residual|: 1.858e-06   |deigs|: 3.521e-05  t[s]:    187.38
	FillingsUpdate:  mu: -0.082610484  nElectrons: 9.000000  magneticMoment: [ Abs: 0.62370  Tot: +0.62000 ]
SCF: Cycle: 24   F: -24.431918463594968   dF: -3.376e-09   |Residual|: 1.020e-06   |deigs|: 3.365e-05  t[s]:    194.27
	FillingsUpdate:  mu: -0.082609782  nElectrons: 9.000000  magneticMoment: [ Abs: 0.62370  Tot: +0.62000 ]
SCF: Cycle: 25   F: -24.431918464280731   dF: -6.858e-10   |Residual|: 6.662e-07   |deigs|: 2.971e-05  t[s]:    200.87
SCF: Converged (|Delta E|<1.000000e-08 for 2 iters).


# Ionic positions in lattice coordinates:
ion Rb   0.000000000000000   0.000000000000000   0.000000000000000 0

# Forces in Lattice coordinates:
force Rb  -0.000000000000000   0.000000000000000   0.000000000000000 0

# Energy components:
   Eewald =       -9.0240130501663280
       EH =       10.5345650744014954
     Eloc =      -28.4596423207226401
      Enl =       -0.7926434424747335
   Epulay =        0.0000000056959385
      Exc =       -3.6509171017765958
       KE =        6.9607338808522172
-------------------------------------
     Etot =      -24.4319169541906476
       TS =        0.0000015100900840
-------------------------------------
        F =      -24.4319184642807308

IonicMinimize: Iter:   0  F: -24.431918464280731  |grad|_K:  0.000e+00  t[s]:    201.27
IonicMinimize: Converged (|grad|_K<1.000000e-04).

#--- Lowdin population analysis ---
# oxidation-state Rb +0.001
# magnetic-moments Rb +0.619

End date and time: Sun Feb  6 13:00:27 2022  (Duration: 0-0:03:21.33)
Done!
