The alkali metal is Rb
scale=2
magnetization=0.26
--------------------------------------------------------------------------
The library attempted to open the following supporting CUDA libraries,
but each of them failed.  CUDA-aware support is disabled.
libcuda.so.1: cannot open shared object file: No such file or directory
libcuda.dylib: cannot open shared object file: No such file or directory
/usr/lib64/libcuda.so.1: cannot open shared object file: No such file or directory
/usr/lib64/libcuda.dylib: cannot open shared object file: No such file or directory
If you are not interested in CUDA-aware support, then run with
--mca opal_warn_on_missing_libcuda 0 to suppress this message.  If you are interested
in CUDA-aware support, then try setting LD_LIBRARY_PATH to the location
of libcuda.so.1 to get passed this issue.
--------------------------------------------------------------------------
--------------------------------------------------------------------------
No OpenFabrics connection schemes reported that they were able to be
used on a specific port.  As such, the openib BTL (OpenFabrics
support) will be disabled for this port.

  Local host:           d-6-13-4
  Local device:         mlx5_1
  Local port:           1
  CPCs attempted:       rdmacm, udcm
--------------------------------------------------------------------------

*************** JDFTx 1.6.0 (git hash 42ebbcc2) ***************

Start date and time: Sun Feb  6 12:48:06 2022
Executable jdftx with command-line: -i Alkali.in
Running on hosts (process indices):  d-6-13-4 (0-18)
Divided in process groups (process indices):  0 (0)  1 (1)  2 (2)  3 (3)  4 (4)  5 (5)  6 (6)  7 (7)  8 (8)  9 (9)  10 (10)  11 (11)  12 (12)  13 (13)  14 (14)  15 (15)  16 (16)  17 (17)  18 (18)
Resource initialization completed at t[s]:      0.00
Run totals: 19 processes, 48 threads, 0 GPUs


Input parsed successfully to the following command list (including defaults):

basis kpoint-dependent
coords-type Lattice
core-overlap-check vector
coulomb-interaction Slab 001
davidson-band-ratio 1.1
dump End None
dump-name $INPUT.$VAR
elec-cutoff 20
elec-eigen-algo Davidson
elec-ex-corr gga-PBE
elec-initial-magnetization 0.260000 yes
elec-smearing Fermi 1e-05
electronic-minimize  \
	dirUpdateScheme      FletcherReeves \
	linminMethod         DirUpdateRecommended \
	nIterations          100 \
	history              15 \
	knormThreshold       0 \
	energyDiffThreshold  1e-08 \
	nEnergyDiff          2 \
	alphaTstart          1 \
	alphaTmin            1e-10 \
	updateTestStepSize   yes \
	alphaTreduceFactor   0.1 \
	alphaTincreaseFactor 3 \
	nAlphaAdjustMax      3 \
	wolfeEnergy          0.0001 \
	wolfeGradient        0.9 \
	fdTest               no
electronic-scf  \
	nIterations	10000 \
	energyDiffThreshold	1e-08 \
	residualThreshold	1e-07 \
	mixFraction	0.5 \
	qMetric	0.8 \
	history	10 \
	nEigSteps	2 \
	eigDiffThreshold	1e-08 \
	mixedVariable	Density \
	qKerker	0.8 \
	qKappa	-1 \
	verbose	no \
	mixFractionMag	1.5
exchange-regularization WignerSeitzTruncated
fluid None
fluid-ex-corr (null) lda-PZ
fluid-gummel-loop 10 1.000000e-05
fluid-minimize  \
	dirUpdateScheme      PolakRibiere \
	linminMethod         DirUpdateRecommended \
	nIterations          100 \
	history              15 \
	knormThreshold       0 \
	energyDiffThreshold  0 \
	nEnergyDiff          2 \
	alphaTstart          1 \
	alphaTmin            1e-10 \
	updateTestStepSize   yes \
	alphaTreduceFactor   0.1 \
	alphaTincreaseFactor 3 \
	nAlphaAdjustMax      3 \
	wolfeEnergy          0.0001 \
	wolfeGradient        0.9 \
	fdTest               no
fluid-solvent H2O 55.338 ScalarEOS \
	epsBulk 78.4 \
	pMol 0.92466 \
	epsInf 1.77 \
	Pvap 1.06736e-10 \
	sigmaBulk 4.62e-05 \
	Rvdw 2.61727 \
	Res 1.42 \
	tauNuc 343133 \
	poleEl 15 7 1
forces-output-coords Positions
ion Rb   0.000000000000000   0.000000000000000   0.000000000000000 0
ion-species SG15/$ID_ONCV_PBE.upf
ion-width 0
ionic-minimize  \
	dirUpdateScheme      L-BFGS \
	linminMethod         DirUpdateRecommended \
	nIterations          0 \
	history              15 \
	knormThreshold       0.0001 \
	energyDiffThreshold  1e-06 \
	nEnergyDiff          2 \
	alphaTstart          1 \
	alphaTmin            1e-10 \
	updateTestStepSize   yes \
	alphaTreduceFactor   0.1 \
	alphaTincreaseFactor 3 \
	nAlphaAdjustMax      3 \
	wolfeEnergy          0.0001 \
	wolfeGradient        0.9 \
	fdTest               no
kpoint   0.000000000000   0.000000000000   0.000000000000  1.00000000000000
kpoint-folding 12 12 1 
latt-move-scale 1 1 1
latt-scale 2 2 1 
lattice  \
	   4.727486978767153   -2.363743489383575    0.000000000000000  \
	  -0.000000000000000    4.094123819672498    0.000000000000000  \
	   0.000000000000000    0.000000000000000   40.000000000000000 
lattice-minimize  \
	dirUpdateScheme      L-BFGS \
	linminMethod         DirUpdateRecommended \
	nIterations          0 \
	history              15 \
	knormThreshold       0 \
	energyDiffThreshold  1e-06 \
	nEnergyDiff          2 \
	alphaTstart          1 \
	alphaTmin            1e-10 \
	updateTestStepSize   yes \
	alphaTreduceFactor   0.1 \
	alphaTincreaseFactor 3 \
	nAlphaAdjustMax      3 \
	wolfeEnergy          0.0001 \
	wolfeGradient        0.9 \
	fdTest               no
lcao-params -1 1e-06 1e-05
pcm-variant GLSSA13
spintype z-spin
subspace-rotation-factor 1 yes
symmetries automatic
symmetry-threshold 0.0001



---------- Setting up symmetries ----------

Found 24 point-group symmetries of the bravais lattice
Found 24 space-group symmetries with basis
Applied RMS atom displacement 0 bohrs to make symmetries exact.

---------- Initializing the Grid ----------
R = 
[      9.45497     -4.72749            0  ]
[            0      8.18825            0  ]
[            0            0           40  ]
unit cell volume = 3096.79
G =
[   0.664538   0.383671         -0  ]
[          0   0.767342         -0  ]
[         -0         -0    0.15708  ]
Minimum fftbox size, Smin = [  40  40  164  ]
Chosen fftbox size, S = [  40  40  168  ]

---------- Exchange Correlation functional ----------
Initalized PBE GGA exchange.
Initalized PBE GGA correlation.

---------- Setting up pseudopotentials ----------
Width of ionic core gaussian charges (only for fluid interactions / plotting) set to 0

Reading pseudopotential file '/home/gridsan/aligho/DFT/build-Nov24/pseudopotentials/SG15/Rb_ONCV_PBE.upf':
  'Rb' pseudopotential, 'PBE' functional
  Generated using ONCVPSP code by D. R. Hamann
  Author: Martin Schlipf and Francois Gygi  Date: 150915.
  9 valence electrons, 3 orbitals, 6 projectors, 2308 radial grid points, with lMax = 2
  Transforming local potential to a uniform radial grid of dG=0.02 with 1489 points.
  Transforming nonlocal projectors to a uniform radial grid of dG=0.02 with 432 points.
    4S    l: 0   occupation:  2.0   eigenvalue: -1.172069
    4P    l: 1   occupation:  6.0   eigenvalue: -0.586674
    5S    l: 0   occupation:  1.0   eigenvalue: -0.082006
  Transforming atomic orbitals to a uniform radial grid of dG=0.02 with 432 points.
  Core radius for overlap checks: 2.60 bohrs.
  Reading pulay file /home/gridsan/aligho/DFT/build-Nov24/pseudopotentials/SG15/Rb_ONCV_PBE.pulay ... using dE_dnG = -1.360715e-05 computed for Ecut = 20.

Initialized 1 species with 1 total atoms.

Folded 1 k-points by 12x12x1 to 144 k-points.

---------- Setting up k-points, bands, fillings ----------
Reduced to 19 k-points under symmetry. 
Computing the number of bands and number of electrons
Calculating initial fillings.
nElectrons:   9.000000   nBands: 6   nStates: 38

----- Setting up reduced wavefunction bases (one per k-point) -----
average nbasis = 13230.521 , ideal nbasis = 13229.709

---------- Setting up coulomb interaction ----------
Initialized slab truncation along lattice direction 001

---------- Setting up 2D ewald sum ----------
Optimum gaussian width for ewald sums = 5.249020 bohr.
Real space sums over 289 unit cells with max indices [  8  8  0  ]
Reciprocal space sums over 81 terms with max indices [  4  4  0  ]

---------- Allocating electronic variables ----------
Initializing wave functions:  linear combination of atomic orbitals
Note: number of bands (6) exceeds available atomic orbitals (5)
Rb pseudo-atom occupations:   s ( 2 1 )  p ( 6 )
	FillingsUpdate:  mu: -0.097110078  nElectrons: 9.000000  magneticMoment: [ Abs: 0.26000  Tot: +0.26000 ]
LCAOMinimize: Iter:   0  F: -24.4491404722096739  |grad|_K:  4.177e-05  alpha:  1.000e+00
	FillingsUpdate:  mu: -0.097096563  nElectrons: 9.000000  magneticMoment: [ Abs: 0.26000  Tot: +0.26000 ]
LCAOMinimize: Iter:   1  F: -24.4491416377297313  |grad|_K:  4.641e-07  alpha:  9.768e-01  linmin: -3.478e-02  cgtest:  4.323e-01  t[s]:      4.55
LCAOMinimize: Encountered beta<0, resetting CG.
[d-6-13-4:81158] 18 more processes have sent help message help-mpi-common-cuda.txt / dlopen failed
[d-6-13-4:81158] Set MCA parameter "orte_base_help_aggregate" to 0 to see all help / error messages
[d-6-13-4:81158] 18 more processes have sent help message help-mpi-btl-openib-cpc-base.txt / no cpcs for port
	FillingsUpdate:  mu: -0.097096656  nElectrons: 9.000000  magneticMoment: [ Abs: 0.26000  Tot: +0.26000 ]
LCAOMinimize: Iter:   2  F: -24.4491416378772861  |grad|_K:  1.342e-09  alpha:  1.004e+00  linmin:  1.462e-01  cgtest: -9.475e-01  t[s]:      5.76
LCAOMinimize: 	Wrong curvature in test step, increasing alphaT to 3.011825e+00.
	FillingsUpdate:  mu: -0.097096656  nElectrons: 9.000000  magneticMoment: [ Abs: 0.26000  Tot: +0.26000 ]
LCAOMinimize: Iter:   3  F: -24.4491416378777835  |grad|_K:  1.275e-09  alpha: -2.491e-04  linmin:  1.759e-04  cgtest:  9.450e-01  t[s]:      7.04
LCAOMinimize: Converged (|Delta F|<1.000000e-06 for 2 iters).


---- Citations for features of the code used in this run ----

   Software package:
      R. Sundararaman, K. Letchworth-Weaver, K.A. Schwarz, D. Gunceler, Y. Ozhabes and T.A. Arias, 'JDFTx: software for joint density-functional theory', SoftwareX 6, 278 (2017)

   gga-PBE exchange-correlation functional:
      J.P. Perdew, K. Burke and M. Ernzerhof, Phys. Rev. Lett. 77, 3865 (1996)

   Pseudopotentials:
      M Schlipf and F Gygi, Comput. Phys. Commun. 196, 36 (2015)

   Truncated Coulomb potentials:
      R. Sundararaman and T.A. Arias, Phys. Rev. B 87, 165122 (2013)

This list may not be complete. Please suggest additional citations or
report any other bugs at https://github.com/shankar1729/jdftx/issues

Initialization completed successfully at t[s]:      7.14


-------- Electronic minimization -----------
Will mix electronic density at each iteration.
	FillingsUpdate:  mu: -0.097096656  nElectrons: 9.000000  magneticMoment: [ Abs: 0.26000  Tot: +0.26000 ]
	FillingsUpdate:  mu: -0.105943417  nElectrons: 9.000000  magneticMoment: [ Abs: 0.26000  Tot: +0.26000 ]
SCF: Cycle:  0   F: -24.453824769679500   dF: -4.683e-03   |Residual|: 9.294e-03   |deigs|: 1.792e-01  t[s]:      9.68
	FillingsUpdate:  mu: -0.105693231  nElectrons: 9.000000  magneticMoment: [ Abs: 0.26000  Tot: +0.26000 ]
SCF: Cycle:  1   F: -24.454007134283394   dF: -1.824e-04   |Residual|: 7.151e-03   |deigs|: 6.779e-03  t[s]:     11.53
	FillingsUpdate:  mu: -0.103898475  nElectrons: 9.000000  magneticMoment: [ Abs: 0.26327  Tot: +0.26000 ]
SCF: Cycle:  2   F: -24.454103228512778   dF: -9.609e-05   |Residual|: 3.513e-03   |deigs|: 2.145e-03  t[s]:     13.45
	FillingsUpdate:  mu: -0.102731979  nElectrons: 9.000000  magneticMoment: [ Abs: 0.26004  Tot: +0.26000 ]
SCF: Cycle:  3   F: -24.454155116044362   dF: -5.189e-05   |Residual|: 2.307e-03   |deigs|: 2.258e-03  t[s]:     15.36
	FillingsUpdate:  mu: -0.101119385  nElectrons: 9.000000  magneticMoment: [ Abs: 0.26002  Tot: +0.26000 ]
SCF: Cycle:  4   F: -24.454185738038205   dF: -3.062e-05   |Residual|: 1.924e-03   |deigs|: 2.578e-03  t[s]:     17.31
	FillingsUpdate:  mu: -0.099485838  nElectrons: 9.000000  magneticMoment: [ Abs: 0.26239  Tot: +0.26000 ]
SCF: Cycle:  5   F: -24.454202490689479   dF: -1.675e-05   |Residual|: 1.389e-03   |deigs|: 3.790e-03  t[s]:     19.28
	FillingsUpdate:  mu: -0.097262247  nElectrons: 9.000000  magneticMoment: [ Abs: 0.26564  Tot: +0.26000 ]
SCF: Cycle:  6   F: -24.454204946207849   dF: -2.456e-06   |Residual|: 1.034e-03   |deigs|: 2.931e-03  t[s]:     21.23
	FillingsUpdate:  mu: -0.096000222  nElectrons: 9.000000  magneticMoment: [ Abs: 0.26404  Tot: +0.26000 ]
SCF: Cycle:  7   F: -24.454221902816002   dF: -1.696e-05   |Residual|: 9.424e-04   |deigs|: 2.068e-03  t[s]:     23.22
	FillingsUpdate:  mu: -0.095870326  nElectrons: 9.000000  magneticMoment: [ Abs: 0.26092  Tot: +0.26000 ]
SCF: Cycle:  8   F: -24.454232125715052   dF: -1.022e-05   |Residual|: 7.726e-04   |deigs|: 1.257e-03  t[s]:     25.35
	FillingsUpdate:  mu: -0.094306893  nElectrons: 9.000000  magneticMoment: [ Abs: 0.26273  Tot: +0.26000 ]
SCF: Cycle:  9   F: -24.454231282157899   dF: +8.436e-07   |Residual|: 6.310e-04   |deigs|: 1.596e-03  t[s]:     27.40
	FillingsUpdate:  mu: -0.092992945  nElectrons: 9.000000  magneticMoment: [ Abs: 0.26321  Tot: +0.26000 ]
SCF: Cycle: 10   F: -24.454227698907104   dF: +3.583e-06   |Residual|: 5.695e-04   |deigs|: 1.444e-03  t[s]:     29.51
	FillingsUpdate:  mu: -0.091739506  nElectrons: 9.000000  magneticMoment: [ Abs: 0.26201  Tot: +0.26000 ]
SCF: Cycle: 11   F: -24.454235892212708   dF: -8.193e-06   |Residual|: 4.968e-04   |deigs|: 1.342e-03  t[s]:     31.62
	FillingsUpdate:  mu: -0.090606003  nElectrons: 9.000000  magneticMoment: [ Abs: 0.26264  Tot: +0.26000 ]
SCF: Cycle: 12   F: -24.454248154779396   dF: -1.226e-05   |Residual|: 4.755e-04   |deigs|: 1.066e-03  t[s]:     33.72
	FillingsUpdate:  mu: -0.089206072  nElectrons: 9.000000  magneticMoment: [ Abs: 0.26193  Tot: +0.26000 ]
SCF: Cycle: 13   F: -24.454252189594829   dF: -4.035e-06   |Residual|: 4.159e-04   |deigs|: 1.465e-03  t[s]:     35.79
	FillingsUpdate:  mu: -0.087921145  nElectrons: 9.000000  magneticMoment: [ Abs: 0.26026  Tot: +0.26000 ]
SCF: Cycle: 14   F: -24.454256068302712   dF: -3.879e-06   |Residual|: 3.504e-04   |deigs|: 1.338e-03  t[s]:     37.83
	FillingsUpdate:  mu: -0.087390833  nElectrons: 9.000000  magneticMoment: [ Abs: 0.26064  Tot: +0.26000 ]
SCF: Cycle: 15   F: -24.454258382670755   dF: -2.314e-06   |Residual|: 2.452e-04   |deigs|: 5.696e-04  t[s]:     39.87
	FillingsUpdate:  mu: -0.087012778  nElectrons: 9.000000  magneticMoment: [ Abs: 0.26054  Tot: +0.26000 ]
SCF: Cycle: 16   F: -24.454259520479951   dF: -1.138e-06   |Residual|: 1.563e-04   |deigs|: 1.376e-03  t[s]:     41.97
	FillingsUpdate:  mu: -0.087004397  nElectrons: 9.000000  magneticMoment: [ Abs: 0.26003  Tot: +0.26000 ]
SCF: Cycle: 17   F: -24.454259854518160   dF: -3.340e-07   |Residual|: 8.954e-05   |deigs|: 2.286e-04  t[s]:     44.05
	FillingsUpdate:  mu: -0.086991200  nElectrons: 9.000000  magneticMoment: [ Abs: 0.26017  Tot: +0.26000 ]
SCF: Cycle: 18   F: -24.454259998012731   dF: -1.435e-07   |Residual|: 5.694e-05   |deigs|: 1.123e-03  t[s]:     46.15
	FillingsUpdate:  mu: -0.086995941  nElectrons: 9.000000  magneticMoment: [ Abs: 0.26010  Tot: +0.26000 ]
SCF: Cycle: 19   F: -24.454260044248066   dF: -4.624e-08   |Residual|: 2.699e-05   |deigs|: 3.275e-04  t[s]:     48.20
	FillingsUpdate:  mu: -0.086996995  nElectrons: 9.000000  magneticMoment: [ Abs: 0.26007  Tot: +0.26000 ]
SCF: Cycle: 20   F: -24.454260067455415   dF: -2.321e-08   |Residual|: 1.404e-05   |deigs|: 6.786e-05  t[s]:     50.30
	FillingsUpdate:  mu: -0.086982732  nElectrons: 9.000000  magneticMoment: [ Abs: 0.26008  Tot: +0.26000 ]
SCF: Cycle: 21   F: -24.454260075538564   dF: -8.083e-09   |Residual|: 8.099e-06   |deigs|: 4.380e-05  t[s]:     52.29
	FillingsUpdate:  mu: -0.086980848  nElectrons: 9.000000  magneticMoment: [ Abs: 0.26010  Tot: +0.26000 ]
SCF: Cycle: 22   F: -24.454260079676132   dF: -4.138e-09   |Residual|: 4.577e-06   |deigs|: 3.679e-05  t[s]:     54.33
SCF: Converged (|Delta E|<1.000000e-08 for 2 iters).


# Ionic positions in lattice coordinates:
ion Rb   0.000000000000000   0.000000000000000   0.000000000000000 0

# Forces in Lattice coordinates:
force Rb   0.000000000000000  -0.000000000000000   0.000000000000000 0

# Energy components:
   Eewald =      -18.0480261003326561
       EH =        1.6483272208952069
     Eloc =      -10.5599089680757938
      Enl =       -0.7959110619870895
   Epulay =        0.0000000035676145
      Exc =       -3.6764119084709370
       KE =        6.9776711557767577
-------------------------------------
     Etot =      -24.4542596586268957
       TS =        0.0000004210492348
-------------------------------------
        F =      -24.4542600796761320

IonicMinimize: Iter:   0  F: -24.454260079676132  |grad|_K:  0.000e+00  t[s]:     54.45
IonicMinimize: Converged (|grad|_K<1.000000e-04).

#--- Lowdin population analysis ---
# oxidation-state Rb +0.040
# magnetic-moments Rb +0.235

End date and time: Sun Feb  6 12:49:01 2022  (Duration: 0-0:00:54.47)
Done!
scale=3
magnetization=0.26
--------------------------------------------------------------------------
The library attempted to open the following supporting CUDA libraries,
but each of them failed.  CUDA-aware support is disabled.
libcuda.so.1: cannot open shared object file: No such file or directory
libcuda.dylib: cannot open shared object file: No such file or directory
/usr/lib64/libcuda.so.1: cannot open shared object file: No such file or directory
/usr/lib64/libcuda.dylib: cannot open shared object file: No such file or directory
If you are not interested in CUDA-aware support, then run with
--mca opal_warn_on_missing_libcuda 0 to suppress this message.  If you are interested
in CUDA-aware support, then try setting LD_LIBRARY_PATH to the location
of libcuda.so.1 to get passed this issue.
--------------------------------------------------------------------------
--------------------------------------------------------------------------
No OpenFabrics connection schemes reported that they were able to be
used on a specific port.  As such, the openib BTL (OpenFabrics
support) will be disabled for this port.

  Local host:           d-6-13-4
  Local device:         mlx5_1
  Local port:           1
  CPCs attempted:       rdmacm, udcm
--------------------------------------------------------------------------

*************** JDFTx 1.6.0 (git hash 42ebbcc2) ***************

Start date and time: Sun Feb  6 12:49:02 2022
Executable jdftx with command-line: -i Alkali.in
Running on hosts (process indices):  d-6-13-4 (0-18)
Divided in process groups (process indices):  0 (0)  1 (1)  2 (2)  3 (3)  4 (4)  5 (5)  6 (6)  7 (7)  8 (8)  9 (9)  10 (10)  11 (11)  12 (12)  13 (13)  14 (14)  15 (15)  16 (16)  17 (17)  18 (18)
Resource initialization completed at t[s]:      0.00
Run totals: 19 processes, 48 threads, 0 GPUs


Input parsed successfully to the following command list (including defaults):

basis kpoint-dependent
coords-type Lattice
core-overlap-check vector
coulomb-interaction Slab 001
davidson-band-ratio 1.1
dump End None
dump-name $INPUT.$VAR
elec-cutoff 20
elec-eigen-algo Davidson
elec-ex-corr gga-PBE
elec-initial-magnetization 0.260000 yes
elec-smearing Fermi 1e-05
electronic-minimize  \
	dirUpdateScheme      FletcherReeves \
	linminMethod         DirUpdateRecommended \
	nIterations          100 \
	history              15 \
	knormThreshold       0 \
	energyDiffThreshold  1e-08 \
	nEnergyDiff          2 \
	alphaTstart          1 \
	alphaTmin            1e-10 \
	updateTestStepSize   yes \
	alphaTreduceFactor   0.1 \
	alphaTincreaseFactor 3 \
	nAlphaAdjustMax      3 \
	wolfeEnergy          0.0001 \
	wolfeGradient        0.9 \
	fdTest               no
electronic-scf  \
	nIterations	10000 \
	energyDiffThreshold	1e-08 \
	residualThreshold	1e-07 \
	mixFraction	0.5 \
	qMetric	0.8 \
	history	10 \
	nEigSteps	2 \
	eigDiffThreshold	1e-08 \
	mixedVariable	Density \
	qKerker	0.8 \
	qKappa	-1 \
	verbose	no \
	mixFractionMag	1.5
exchange-regularization WignerSeitzTruncated
fluid None
fluid-ex-corr (null) lda-PZ
fluid-gummel-loop 10 1.000000e-05
fluid-minimize  \
	dirUpdateScheme      PolakRibiere \
	linminMethod         DirUpdateRecommended \
	nIterations          100 \
	history              15 \
	knormThreshold       0 \
	energyDiffThreshold  0 \
	nEnergyDiff          2 \
	alphaTstart          1 \
	alphaTmin            1e-10 \
	updateTestStepSize   yes \
	alphaTreduceFactor   0.1 \
	alphaTincreaseFactor 3 \
	nAlphaAdjustMax      3 \
	wolfeEnergy          0.0001 \
	wolfeGradient        0.9 \
	fdTest               no
fluid-solvent H2O 55.338 ScalarEOS \
	epsBulk 78.4 \
	pMol 0.92466 \
	epsInf 1.77 \
	Pvap 1.06736e-10 \
	sigmaBulk 4.62e-05 \
	Rvdw 2.61727 \
	Res 1.42 \
	tauNuc 343133 \
	poleEl 15 7 1
forces-output-coords Positions
ion Rb   0.000000000000000   0.000000000000000   0.000000000000000 0
ion-species SG15/$ID_ONCV_PBE.upf
ion-width 0
ionic-minimize  \
	dirUpdateScheme      L-BFGS \
	linminMethod         DirUpdateRecommended \
	nIterations          0 \
	history              15 \
	knormThreshold       0.0001 \
	energyDiffThreshold  1e-06 \
	nEnergyDiff          2 \
	alphaTstart          1 \
	alphaTmin            1e-10 \
	updateTestStepSize   yes \
	alphaTreduceFactor   0.1 \
	alphaTincreaseFactor 3 \
	nAlphaAdjustMax      3 \
	wolfeEnergy          0.0001 \
	wolfeGradient        0.9 \
	fdTest               no
kpoint   0.000000000000   0.000000000000   0.000000000000  1.00000000000000
kpoint-folding 12 12 1 
latt-move-scale 1 1 1
latt-scale 3 3 1 
lattice  \
	   4.727486978767153   -2.363743489383575    0.000000000000000  \
	  -0.000000000000000    4.094123819672498    0.000000000000000  \
	   0.000000000000000    0.000000000000000   40.000000000000000 
lattice-minimize  \
	dirUpdateScheme      L-BFGS \
	linminMethod         DirUpdateRecommended \
	nIterations          0 \
	history              15 \
	knormThreshold       0 \
	energyDiffThreshold  1e-06 \
	nEnergyDiff          2 \
	alphaTstart          1 \
	alphaTmin            1e-10 \
	updateTestStepSize   yes \
	alphaTreduceFactor   0.1 \
	alphaTincreaseFactor 3 \
	nAlphaAdjustMax      3 \
	wolfeEnergy          0.0001 \
	wolfeGradient        0.9 \
	fdTest               no
lcao-params -1 1e-06 1e-05
pcm-variant GLSSA13
spintype z-spin
subspace-rotation-factor 1 yes
symmetries automatic
symmetry-threshold 0.0001



---------- Setting up symmetries ----------

Found 24 point-group symmetries of the bravais lattice
Found 24 space-group symmetries with basis
Applied RMS atom displacement 0 bohrs to make symmetries exact.

---------- Initializing the Grid ----------
R = 
[      14.1825     -7.09123            0  ]
[            0      12.2824            0  ]
[            0            0           40  ]
unit cell volume = 6967.77
G =
[   0.443025   0.255781         -0  ]
[          0   0.511561         -0  ]
[         -0         -0    0.15708  ]
Minimum fftbox size, Smin = [  60  60  164  ]
Chosen fftbox size, S = [  60  60  168  ]

---------- Exchange Correlation functional ----------
Initalized PBE GGA exchange.
Initalized PBE GGA correlation.

---------- Setting up pseudopotentials ----------
Width of ionic core gaussian charges (only for fluid interactions / plotting) set to 0

Reading pseudopotential file '/home/gridsan/aligho/DFT/build-Nov24/pseudopotentials/SG15/Rb_ONCV_PBE.upf':
  'Rb' pseudopotential, 'PBE' functional
  Generated using ONCVPSP code by D. R. Hamann
  Author: Martin Schlipf and Francois Gygi  Date: 150915.
  9 valence electrons, 3 orbitals, 6 projectors, 2308 radial grid points, with lMax = 2
  Transforming local potential to a uniform radial grid of dG=0.02 with 1489 points.
  Transforming nonlocal projectors to a uniform radial grid of dG=0.02 with 432 points.
    4S    l: 0   occupation:  2.0   eigenvalue: -1.172069
    4P    l: 1   occupation:  6.0   eigenvalue: -0.586674
    5S    l: 0   occupation:  1.0   eigenvalue: -0.082006
  Transforming atomic orbitals to a uniform radial grid of dG=0.02 with 432 points.
  Core radius for overlap checks: 2.60 bohrs.
  Reading pulay file /home/gridsan/aligho/DFT/build-Nov24/pseudopotentials/SG15/Rb_ONCV_PBE.pulay ... using dE_dnG = -1.360715e-05 computed for Ecut = 20.

Initialized 1 species with 1 total atoms.

Folded 1 k-points by 12x12x1 to 144 k-points.

---------- Setting up k-points, bands, fillings ----------
Reduced to 19 k-points under symmetry. 
Computing the number of bands and number of electrons
Calculating initial fillings.
nElectrons:   9.000000   nBands: 6   nStates: 38

----- Setting up reduced wavefunction bases (one per k-point) -----
average nbasis = 29766.104 , ideal nbasis = 29766.845

---------- Setting up coulomb interaction ----------
Initialized slab truncation along lattice direction 001

---------- Setting up 2D ewald sum ----------
Optimum gaussian width for ewald sums = 7.873530 bohr.
Real space sums over 289 unit cells with max indices [  8  8  0  ]
Reciprocal space sums over 81 terms with max indices [  4  4  0  ]

---------- Allocating electronic variables ----------
Initializing wave functions:  linear combination of atomic orbitals
Note: number of bands (6) exceeds available atomic orbitals (5)
Rb pseudo-atom occupations:   s ( 2 1 )  p ( 6 )
[d-6-13-4:96579] 18 more processes have sent help message help-mpi-common-cuda.txt / dlopen failed
[d-6-13-4:96579] Set MCA parameter "orte_base_help_aggregate" to 0 to see all help / error messages
[d-6-13-4:96579] 18 more processes have sent help message help-mpi-btl-openib-cpc-base.txt / no cpcs for port
	FillingsUpdate:  mu: -0.084890819  nElectrons: 9.000000  magneticMoment: [ Abs: 0.26000  Tot: +0.26000 ]
LCAOMinimize: Iter:   0  F: -24.4366926999631957  |grad|_K:  2.085e-05  alpha:  1.000e+00
	FillingsUpdate:  mu: -0.084886425  nElectrons: 9.000000  magneticMoment: [ Abs: 0.26000  Tot: +0.26000 ]
LCAOMinimize: Iter:   1  F: -24.4366929928232750  |grad|_K:  1.645e-07  alpha:  9.854e-01  linmin: -1.928e-02  cgtest:  4.791e-01  t[s]:      8.84
LCAOMinimize: Encountered beta<0, resetting CG.
	FillingsUpdate:  mu: -0.084886424  nElectrons: 9.000000  magneticMoment: [ Abs: 0.26000  Tot: +0.26000 ]
LCAOMinimize: Iter:   2  F: -24.4366929928416496  |grad|_K:  6.752e-10  alpha:  1.005e+00  linmin:  4.655e-02  cgtest: -9.762e-01  t[s]:     11.28
LCAOMinimize: Converged (|Delta F|<1.000000e-06 for 2 iters).


---- Citations for features of the code used in this run ----

   Software package:
      R. Sundararaman, K. Letchworth-Weaver, K.A. Schwarz, D. Gunceler, Y. Ozhabes and T.A. Arias, 'JDFTx: software for joint density-functional theory', SoftwareX 6, 278 (2017)

   gga-PBE exchange-correlation functional:
      J.P. Perdew, K. Burke and M. Ernzerhof, Phys. Rev. Lett. 77, 3865 (1996)

   Pseudopotentials:
      M Schlipf and F Gygi, Comput. Phys. Commun. 196, 36 (2015)

   Truncated Coulomb potentials:
      R. Sundararaman and T.A. Arias, Phys. Rev. B 87, 165122 (2013)

This list may not be complete. Please suggest additional citations or
report any other bugs at https://github.com/shankar1729/jdftx/issues

Initialization completed successfully at t[s]:     11.44


-------- Electronic minimization -----------
Will mix electronic density at each iteration.
	FillingsUpdate:  mu: -0.084886424  nElectrons: 9.000000  magneticMoment: [ Abs: 0.26000  Tot: +0.26000 ]
	FillingsUpdate:  mu: -0.086858182  nElectrons: 9.000000  magneticMoment: [ Abs: 0.26000  Tot: +0.26000 ]
SCF: Cycle:  0   F: -24.438414487499294   dF: -1.721e-03   |Residual|: 3.817e-03   |deigs|: 1.737e-01  t[s]:     16.33
	FillingsUpdate:  mu: -0.087076167  nElectrons: 9.000000  magneticMoment: [ Abs: 0.26011  Tot: +0.26000 ]
SCF: Cycle:  1   F: -24.438458032618755   dF: -4.355e-05   |Residual|: 3.264e-03   |deigs|: 4.542e-03  t[s]:     20.08
	FillingsUpdate:  mu: -0.087469347  nElectrons: 9.000000  magneticMoment: [ Abs: 0.26198  Tot: +0.26000 ]
SCF: Cycle:  2   F: -24.438491711929803   dF: -3.368e-05   |Residual|: 1.880e-03   |deigs|: 2.711e-03  t[s]:     23.92
	FillingsUpdate:  mu: -0.087661753  nElectrons: 9.000000  magneticMoment: [ Abs: 0.26172  Tot: +0.26000 ]
SCF: Cycle:  3   F: -24.438505190164161   dF: -1.348e-05   |Residual|: 1.093e-03   |deigs|: 1.929e-03  t[s]:     27.89
	FillingsUpdate:  mu: -0.087615106  nElectrons: 9.000000  magneticMoment: [ Abs: 0.26036  Tot: +0.26000 ]
SCF: Cycle:  4   F: -24.438512161465955   dF: -6.971e-06   |Residual|: 6.110e-04   |deigs|: 2.307e-03  t[s]:     31.87
	FillingsUpdate:  mu: -0.087570051  nElectrons: 9.000000  magneticMoment: [ Abs: 0.26087  Tot: +0.26000 ]
SCF: Cycle:  5   F: -24.438515554614554   dF: -3.393e-06   |Residual|: 4.622e-04   |deigs|: 1.814e-03  t[s]:     35.87
	FillingsUpdate:  mu: -0.087403637  nElectrons: 9.000000  magneticMoment: [ Abs: 0.26082  Tot: +0.26000 ]
SCF: Cycle:  6   F: -24.438517272663553   dF: -1.718e-06   |Residual|: 3.460e-04   |deigs|: 1.229e-03  t[s]:     39.91
	FillingsUpdate:  mu: -0.087165477  nElectrons: 9.000000  magneticMoment: [ Abs: 0.26108  Tot: +0.26000 ]
SCF: Cycle:  7   F: -24.438517654601412   dF: -3.819e-07   |Residual|: 2.761e-04   |deigs|: 5.104e-04  t[s]:     44.12
	FillingsUpdate:  mu: -0.086901469  nElectrons: 9.000000  magneticMoment: [ Abs: 0.26184  Tot: +0.26000 ]
SCF: Cycle:  8   F: -24.438517659908072   dF: -5.307e-09   |Residual|: 2.276e-04   |deigs|: 3.198e-04  t[s]:     48.36
	FillingsUpdate:  mu: -0.086612951  nElectrons: 9.000000  magneticMoment: [ Abs: 0.26165  Tot: +0.26000 ]
SCF: Cycle:  9   F: -24.438516829270608   dF: +8.306e-07   |Residual|: 2.080e-04   |deigs|: 5.855e-04  t[s]:     52.62
	FillingsUpdate:  mu: -0.086349789  nElectrons: 9.000000  magneticMoment: [ Abs: 0.26159  Tot: +0.26000 ]
SCF: Cycle: 10   F: -24.438517390430242   dF: -5.612e-07   |Residual|: 1.855e-04   |deigs|: 3.468e-04  t[s]:     56.96
	FillingsUpdate:  mu: -0.086196148  nElectrons: 9.000000  magneticMoment: [ Abs: 0.26161  Tot: +0.26000 ]
SCF: Cycle: 11   F: -24.438517928218552   dF: -5.378e-07   |Residual|: 1.470e-04   |deigs|: 1.869e-04  t[s]:     61.30
	FillingsUpdate:  mu: -0.085993503  nElectrons: 9.000000  magneticMoment: [ Abs: 0.26170  Tot: +0.26000 ]
SCF: Cycle: 12   F: -24.438518170116822   dF: -2.419e-07   |Residual|: 1.337e-04   |deigs|: 2.435e-04  t[s]:     65.68
	FillingsUpdate:  mu: -0.085578389  nElectrons: 9.000000  magneticMoment: [ Abs: 0.26116  Tot: +0.26000 ]
SCF: Cycle: 13   F: -24.438517377249887   dF: +7.929e-07   |Residual|: 1.343e-04   |deigs|: 4.458e-04  t[s]:     69.96
	FillingsUpdate:  mu: -0.085421885  nElectrons: 9.000000  magneticMoment: [ Abs: 0.26105  Tot: +0.26000 ]
SCF: Cycle: 14   F: -24.438517745871021   dF: -3.686e-07   |Residual|: 1.225e-04   |deigs|: 2.427e-04  t[s]:     74.25
	FillingsUpdate:  mu: -0.085342327  nElectrons: 9.000000  magneticMoment: [ Abs: 0.26132  Tot: +0.26000 ]
SCF: Cycle: 15   F: -24.438518869880578   dF: -1.124e-06   |Residual|: 9.122e-05   |deigs|: 3.194e-04  t[s]:     78.63
	FillingsUpdate:  mu: -0.085128247  nElectrons: 9.000000  magneticMoment: [ Abs: 0.26100  Tot: +0.26000 ]
SCF: Cycle: 16   F: -24.438519327488855   dF: -4.576e-07   |Residual|: 6.616e-05   |deigs|: 2.279e-04  t[s]:     83.01
	FillingsUpdate:  mu: -0.085010379  nElectrons: 9.000000  magneticMoment: [ Abs: 0.26085  Tot: +0.26000 ]
SCF: Cycle: 17   F: -24.438519454724677   dF: -1.272e-07   |Residual|: 4.500e-05   |deigs|: 6.155e-04  t[s]:     87.24
	FillingsUpdate:  mu: -0.085010649  nElectrons: 9.000000  magneticMoment: [ Abs: 0.26083  Tot: +0.26000 ]
SCF: Cycle: 18   F: -24.438519526998149   dF: -7.227e-08   |Residual|: 3.023e-05   |deigs|: 3.539e-05  t[s]:     91.61
	FillingsUpdate:  mu: -0.085028143  nElectrons: 9.000000  magneticMoment: [ Abs: 0.26085  Tot: +0.26000 ]
SCF: Cycle: 19   F: -24.438519581385513   dF: -5.439e-08   |Residual|: 1.574e-05   |deigs|: 2.766e-05  t[s]:     95.87
	FillingsUpdate:  mu: -0.085023996  nElectrons: 9.000000  magneticMoment: [ Abs: 0.26085  Tot: +0.26000 ]
SCF: Cycle: 20   F: -24.438519591308236   dF: -9.923e-09   |Residual|: 1.100e-05   |deigs|: 1.071e-05  t[s]:     99.99
	FillingsUpdate:  mu: -0.085029333  nElectrons: 9.000000  magneticMoment: [ Abs: 0.26085  Tot: +0.26000 ]
SCF: Cycle: 21   F: -24.438519599357690   dF: -8.049e-09   |Residual|: 5.252e-06   |deigs|: 1.220e-05  t[s]:    104.25
SCF: Converged (|Delta E|<1.000000e-08 for 2 iters).


# Ionic positions in lattice coordinates:
ion Rb   0.000000000000000   0.000000000000000   0.000000000000000 0

# Forces in Lattice coordinates:
force Rb   0.000000000000000  -0.000000000000000   0.000000000000000 0

# Energy components:
   Eewald =      -12.0320174002217755
       EH =        7.4884289751240782
     Eloc =      -22.3984752603454993
      Enl =       -0.7977892565756093
   Epulay =       -0.0000000014467880
      Exc =       -3.6469715788095254
       KE =        6.9483053439666680
-------------------------------------
     Etot =      -24.4385191783084537
       TS =        0.0000004210492349
-------------------------------------
        F =      -24.4385195993576900

IonicMinimize: Iter:   0  F: -24.438519599357690  |grad|_K:  0.000e+00  t[s]:    104.51
IonicMinimize: Converged (|grad|_K<1.000000e-04).

#--- Lowdin population analysis ---
# oxidation-state Rb +0.031
# magnetic-moments Rb +0.244

End date and time: Sun Feb  6 12:50:46 2022  (Duration: 0-0:01:44.56)
Done!
scale=4
magnetization=0.26
--------------------------------------------------------------------------
The library attempted to open the following supporting CUDA libraries,
but each of them failed.  CUDA-aware support is disabled.
libcuda.so.1: cannot open shared object file: No such file or directory
libcuda.dylib: cannot open shared object file: No such file or directory
/usr/lib64/libcuda.so.1: cannot open shared object file: No such file or directory
/usr/lib64/libcuda.dylib: cannot open shared object file: No such file or directory
If you are not interested in CUDA-aware support, then run with
--mca opal_warn_on_missing_libcuda 0 to suppress this message.  If you are interested
in CUDA-aware support, then try setting LD_LIBRARY_PATH to the location
of libcuda.so.1 to get passed this issue.
--------------------------------------------------------------------------
--------------------------------------------------------------------------
No OpenFabrics connection schemes reported that they were able to be
used on a specific port.  As such, the openib BTL (OpenFabrics
support) will be disabled for this port.

  Local host:           d-6-13-4
  Local device:         mlx5_1
  Local port:           1
  CPCs attempted:       rdmacm, udcm
--------------------------------------------------------------------------

*************** JDFTx 1.6.0 (git hash 42ebbcc2) ***************

Start date and time: Sun Feb  6 12:50:47 2022
Executable jdftx with command-line: -i Alkali.in
Running on hosts (process indices):  d-6-13-4 (0-18)
Divided in process groups (process indices):  0 (0)  1 (1)  2 (2)  3 (3)  4 (4)  5 (5)  6 (6)  7 (7)  8 (8)  9 (9)  10 (10)  11 (11)  12 (12)  13 (13)  14 (14)  15 (15)  16 (16)  17 (17)  18 (18)
Resource initialization completed at t[s]:      0.00
Run totals: 19 processes, 48 threads, 0 GPUs


Input parsed successfully to the following command list (including defaults):

basis kpoint-dependent
coords-type Lattice
core-overlap-check vector
coulomb-interaction Slab 001
davidson-band-ratio 1.1
dump End None
dump-name $INPUT.$VAR
elec-cutoff 20
elec-eigen-algo Davidson
elec-ex-corr gga-PBE
elec-initial-magnetization 0.260000 yes
elec-smearing Fermi 1e-05
electronic-minimize  \
	dirUpdateScheme      FletcherReeves \
	linminMethod         DirUpdateRecommended \
	nIterations          100 \
	history              15 \
	knormThreshold       0 \
	energyDiffThreshold  1e-08 \
	nEnergyDiff          2 \
	alphaTstart          1 \
	alphaTmin            1e-10 \
	updateTestStepSize   yes \
	alphaTreduceFactor   0.1 \
	alphaTincreaseFactor 3 \
	nAlphaAdjustMax      3 \
	wolfeEnergy          0.0001 \
	wolfeGradient        0.9 \
	fdTest               no
electronic-scf  \
	nIterations	10000 \
	energyDiffThreshold	1e-08 \
	residualThreshold	1e-07 \
	mixFraction	0.5 \
	qMetric	0.8 \
	history	10 \
	nEigSteps	2 \
	eigDiffThreshold	1e-08 \
	mixedVariable	Density \
	qKerker	0.8 \
	qKappa	-1 \
	verbose	no \
	mixFractionMag	1.5
exchange-regularization WignerSeitzTruncated
fluid None
fluid-ex-corr (null) lda-PZ
fluid-gummel-loop 10 1.000000e-05
fluid-minimize  \
	dirUpdateScheme      PolakRibiere \
	linminMethod         DirUpdateRecommended \
	nIterations          100 \
	history              15 \
	knormThreshold       0 \
	energyDiffThreshold  0 \
	nEnergyDiff          2 \
	alphaTstart          1 \
	alphaTmin            1e-10 \
	updateTestStepSize   yes \
	alphaTreduceFactor   0.1 \
	alphaTincreaseFactor 3 \
	nAlphaAdjustMax      3 \
	wolfeEnergy          0.0001 \
	wolfeGradient        0.9 \
	fdTest               no
fluid-solvent H2O 55.338 ScalarEOS \
	epsBulk 78.4 \
	pMol 0.92466 \
	epsInf 1.77 \
	Pvap 1.06736e-10 \
	sigmaBulk 4.62e-05 \
	Rvdw 2.61727 \
	Res 1.42 \
	tauNuc 343133 \
	poleEl 15 7 1
forces-output-coords Positions
ion Rb   0.000000000000000   0.000000000000000   0.000000000000000 0
ion-species SG15/$ID_ONCV_PBE.upf
ion-width 0
ionic-minimize  \
	dirUpdateScheme      L-BFGS \
	linminMethod         DirUpdateRecommended \
	nIterations          0 \
	history              15 \
	knormThreshold       0.0001 \
	energyDiffThreshold  1e-06 \
	nEnergyDiff          2 \
	alphaTstart          1 \
	alphaTmin            1e-10 \
	updateTestStepSize   yes \
	alphaTreduceFactor   0.1 \
	alphaTincreaseFactor 3 \
	nAlphaAdjustMax      3 \
	wolfeEnergy          0.0001 \
	wolfeGradient        0.9 \
	fdTest               no
kpoint   0.000000000000   0.000000000000   0.000000000000  1.00000000000000
kpoint-folding 12 12 1 
latt-move-scale 1 1 1
latt-scale 4 4 1 
lattice  \
	   4.727486978767153   -2.363743489383575    0.000000000000000  \
	  -0.000000000000000    4.094123819672498    0.000000000000000  \
	   0.000000000000000    0.000000000000000   40.000000000000000 
lattice-minimize  \
	dirUpdateScheme      L-BFGS \
	linminMethod         DirUpdateRecommended \
	nIterations          0 \
	history              15 \
	knormThreshold       0 \
	energyDiffThreshold  1e-06 \
	nEnergyDiff          2 \
	alphaTstart          1 \
	alphaTmin            1e-10 \
	updateTestStepSize   yes \
	alphaTreduceFactor   0.1 \
	alphaTincreaseFactor 3 \
	nAlphaAdjustMax      3 \
	wolfeEnergy          0.0001 \
	wolfeGradient        0.9 \
	fdTest               no
lcao-params -1 1e-06 1e-05
pcm-variant GLSSA13
spintype z-spin
subspace-rotation-factor 1 yes
symmetries automatic
symmetry-threshold 0.0001



---------- Setting up symmetries ----------

Found 24 point-group symmetries of the bravais lattice
Found 24 space-group symmetries with basis
Applied RMS atom displacement 0 bohrs to make symmetries exact.

---------- Initializing the Grid ----------
R = 
[      18.9099     -9.45497            0  ]
[            0      16.3765            0  ]
[            0            0           40  ]
unit cell volume = 12387.1
G =
[   0.332269   0.191835         -0  ]
[          0   0.383671         -0  ]
[         -0         -0    0.15708  ]
Minimum fftbox size, Smin = [  80  80  164  ]
Chosen fftbox size, S = [  80  80  168  ]

---------- Exchange Correlation functional ----------
Initalized PBE GGA exchange.
Initalized PBE GGA correlation.

---------- Setting up pseudopotentials ----------
Width of ionic core gaussian charges (only for fluid interactions / plotting) set to 0

Reading pseudopotential file '/home/gridsan/aligho/DFT/build-Nov24/pseudopotentials/SG15/Rb_ONCV_PBE.upf':
  'Rb' pseudopotential, 'PBE' functional
  Generated using ONCVPSP code by D. R. Hamann
  Author: Martin Schlipf and Francois Gygi  Date: 150915.
  9 valence electrons, 3 orbitals, 6 projectors, 2308 radial grid points, with lMax = 2
  Transforming local potential to a uniform radial grid of dG=0.02 with 1489 points.
  Transforming nonlocal projectors to a uniform radial grid of dG=0.02 with 432 points.
    4S    l: 0   occupation:  2.0   eigenvalue: -1.172069
    4P    l: 1   occupation:  6.0   eigenvalue: -0.586674
    5S    l: 0   occupation:  1.0   eigenvalue: -0.082006
  Transforming atomic orbitals to a uniform radial grid of dG=0.02 with 432 points.
  Core radius for overlap checks: 2.60 bohrs.
  Reading pulay file /home/gridsan/aligho/DFT/build-Nov24/pseudopotentials/SG15/Rb_ONCV_PBE.pulay ... using dE_dnG = -1.360715e-05 computed for Ecut = 20.

Initialized 1 species with 1 total atoms.

Folded 1 k-points by 12x12x1 to 144 k-points.

---------- Setting up k-points, bands, fillings ----------
Reduced to 19 k-points under symmetry. 
Computing the number of bands and number of electrons
Calculating initial fillings.
nElectrons:   9.000000   nBands: 6   nStates: 38

----- Setting up reduced wavefunction bases (one per k-point) -----
average nbasis = 52924.021 , ideal nbasis = 52918.836

---------- Setting up coulomb interaction ----------
Initialized slab truncation along lattice direction 001

---------- Setting up 2D ewald sum ----------
Optimum gaussian width for ewald sums = 10.498040 bohr.
Real space sums over 289 unit cells with max indices [  8  8  0  ]
Reciprocal space sums over 81 terms with max indices [  4  4  0  ]

---------- Allocating electronic variables ----------
Initializing wave functions:  linear combination of atomic orbitals
Note: number of bands (6) exceeds available atomic orbitals (5)
Rb pseudo-atom occupations:   s ( 2 1 )  p ( 6 )
[d-6-13-4:19154] 18 more processes have sent help message help-mpi-common-cuda.txt / dlopen failed
[d-6-13-4:19154] Set MCA parameter "orte_base_help_aggregate" to 0 to see all help / error messages
[d-6-13-4:19154] 18 more processes have sent help message help-mpi-btl-openib-cpc-base.txt / no cpcs for port
	FillingsUpdate:  mu: -0.082817018  nElectrons: 9.000000  magneticMoment: [ Abs: 0.26000  Tot: +0.26000 ]
LCAOMinimize: Iter:   0  F: -24.4307870604691502  |grad|_K:  5.116e-06  alpha:  1.000e+00
	FillingsUpdate:  mu: -0.082815928  nElectrons: 9.000000  magneticMoment: [ Abs: 0.26000  Tot: +0.26000 ]
LCAOMinimize: Iter:   1  F: -24.4307870781482812  |grad|_K:  2.633e-08  alpha:  9.874e-01  linmin: -8.066e-03  cgtest:  2.696e-01  t[s]:     15.29
LCAOMinimize: Encountered beta<0, resetting CG.
	FillingsUpdate:  mu: -0.082815928  nElectrons: 9.000000  magneticMoment: [ Abs: 0.26000  Tot: +0.26000 ]
LCAOMinimize: Iter:   2  F: -24.4307870781487857  |grad|_K:  4.370e-09  alpha:  8.342e-01  linmin: -2.141e-02  cgtest:  1.000e+00  t[s]:     19.38
LCAOMinimize: Encountered beta<0, resetting CG.
LCAOMinimize: Converged (|Delta F|<1.000000e-06 for 2 iters).


---- Citations for features of the code used in this run ----

   Software package:
      R. Sundararaman, K. Letchworth-Weaver, K.A. Schwarz, D. Gunceler, Y. Ozhabes and T.A. Arias, 'JDFTx: software for joint density-functional theory', SoftwareX 6, 278 (2017)

   gga-PBE exchange-correlation functional:
      J.P. Perdew, K. Burke and M. Ernzerhof, Phys. Rev. Lett. 77, 3865 (1996)

   Pseudopotentials:
      M Schlipf and F Gygi, Comput. Phys. Commun. 196, 36 (2015)

   Truncated Coulomb potentials:
      R. Sundararaman and T.A. Arias, Phys. Rev. B 87, 165122 (2013)

This list may not be complete. Please suggest additional citations or
report any other bugs at https://github.com/shankar1729/jdftx/issues

Initialization completed successfully at t[s]:     19.65


-------- Electronic minimization -----------
Will mix electronic density at each iteration.
	FillingsUpdate:  mu: -0.082815928  nElectrons: 9.000000  magneticMoment: [ Abs: 0.26000  Tot: +0.26000 ]
	FillingsUpdate:  mu: -0.082918477  nElectrons: 9.000000  magneticMoment: [ Abs: 0.26000  Tot: +0.26000 ]
SCF: Cycle:  0   F: -24.430900756607652   dF: -1.137e-04   |Residual|: 8.332e-04   |deigs|: 1.754e-01  t[s]:     27.87
	FillingsUpdate:  mu: -0.082955297  nElectrons: 9.000000  magneticMoment: [ Abs: 0.26116  Tot: +0.26000 ]
SCF: Cycle:  1   F: -24.430902662346664   dF: -1.906e-06   |Residual|: 4.916e-04   |deigs|: 4.387e-03  t[s]:     34.40
	FillingsUpdate:  mu: -0.082998337  nElectrons: 9.000000  magneticMoment: [ Abs: 0.26125  Tot: +0.26000 ]
SCF: Cycle:  2   F: -24.430903268339637   dF: -6.060e-07   |Residual|: 3.923e-04   |deigs|: 1.257e-03  t[s]:     40.99
	FillingsUpdate:  mu: -0.083075843  nElectrons: 9.000000  magneticMoment: [ Abs: 0.26177  Tot: +0.26000 ]
SCF: Cycle:  3   F: -24.430903815024358   dF: -5.467e-07   |Residual|: 2.796e-04   |deigs|: 9.771e-04  t[s]:     47.66
	FillingsUpdate:  mu: -0.083167306  nElectrons: 9.000000  magneticMoment: [ Abs: 0.26160  Tot: +0.26000 ]
SCF: Cycle:  4   F: -24.430904518795835   dF: -7.038e-07   |Residual|: 1.818e-04   |deigs|: 4.108e-04  t[s]:     54.48
	FillingsUpdate:  mu: -0.083226585  nElectrons: 9.000000  magneticMoment: [ Abs: 0.26178  Tot: +0.26000 ]
SCF: Cycle:  5   F: -24.430904931418940   dF: -4.126e-07   |Residual|: 1.218e-04   |deigs|: 7.009e-04  t[s]:     61.40
	FillingsUpdate:  mu: -0.083229762  nElectrons: 9.000000  magneticMoment: [ Abs: 0.26172  Tot: +0.26000 ]
SCF: Cycle:  6   F: -24.430905170151004   dF: -2.387e-07   |Residual|: 7.888e-05   |deigs|: 6.205e-04  t[s]:     68.45
	FillingsUpdate:  mu: -0.083225448  nElectrons: 9.000000  magneticMoment: [ Abs: 0.26164  Tot: +0.26000 ]
SCF: Cycle:  7   F: -24.430905309867079   dF: -1.397e-07   |Residual|: 5.745e-05   |deigs|: 6.094e-04  t[s]:     75.62
	FillingsUpdate:  mu: -0.083210033  nElectrons: 9.000000  magneticMoment: [ Abs: 0.26159  Tot: +0.26000 ]
SCF: Cycle:  8   F: -24.430905382766458   dF: -7.290e-08   |Residual|: 4.434e-05   |deigs|: 4.768e-04  t[s]:     82.83
	FillingsUpdate:  mu: -0.083182627  nElectrons: 9.000000  magneticMoment: [ Abs: 0.26149  Tot: +0.26000 ]
SCF: Cycle:  9   F: -24.430905415046048   dF: -3.228e-08   |Residual|: 3.252e-05   |deigs|: 1.392e-04  t[s]:     90.24
	FillingsUpdate:  mu: -0.083162780  nElectrons: 9.000000  magneticMoment: [ Abs: 0.26152  Tot: +0.26000 ]
SCF: Cycle: 10   F: -24.430905418958712   dF: -3.913e-09   |Residual|: 2.980e-05   |deigs|: 4.793e-05  t[s]:     97.75
	FillingsUpdate:  mu: -0.083141542  nElectrons: 9.000000  magneticMoment: [ Abs: 0.26162  Tot: +0.26000 ]
SCF: Cycle: 11   F: -24.430905404432934   dF: +1.453e-08   |Residual|: 2.690e-05   |deigs|: 4.297e-05  t[s]:    105.23
	FillingsUpdate:  mu: -0.083108477  nElectrons: 9.000000  magneticMoment: [ Abs: 0.26162  Tot: +0.26000 ]
SCF: Cycle: 12   F: -24.430905356223665   dF: +4.821e-08   |Residual|: 2.443e-05   |deigs|: 8.853e-05  t[s]:    112.81
	FillingsUpdate:  mu: -0.083081547  nElectrons: 9.000000  magneticMoment: [ Abs: 0.26158  Tot: +0.26000 ]
SCF: Cycle: 13   F: -24.430905369440033   dF: -1.322e-08   |Residual|: 2.177e-05   |deigs|: 1.297e-04  t[s]:    120.21
	FillingsUpdate:  mu: -0.083056739  nElectrons: 9.000000  magneticMoment: [ Abs: 0.26159  Tot: +0.26000 ]
SCF: Cycle: 14   F: -24.430905341672172   dF: +2.777e-08   |Residual|: 2.034e-05   |deigs|: 1.126e-04  t[s]:    127.73
	FillingsUpdate:  mu: -0.083039243  nElectrons: 9.000000  magneticMoment: [ Abs: 0.26155  Tot: +0.26000 ]
SCF: Cycle: 15   F: -24.430905384836581   dF: -4.316e-08   |Residual|: 1.782e-05   |deigs|: 6.707e-05  t[s]:    135.17
	FillingsUpdate:  mu: -0.083012750  nElectrons: 9.000000  magneticMoment: [ Abs: 0.26155  Tot: +0.26000 ]
SCF: Cycle: 16   F: -24.430905409809849   dF: -2.497e-08   |Residual|: 1.625e-05   |deigs|: 4.042e-05  t[s]:    142.76
	FillingsUpdate:  mu: -0.082991396  nElectrons: 9.000000  magneticMoment: [ Abs: 0.26152  Tot: +0.26000 ]
SCF: Cycle: 17   F: -24.430905373096092   dF: +3.671e-08   |Residual|: 1.419e-05   |deigs|: 2.475e-05  t[s]:    150.22
	FillingsUpdate:  mu: -0.082987299  nElectrons: 9.000000  magneticMoment: [ Abs: 0.26148  Tot: +0.26000 ]
SCF: Cycle: 18   F: -24.430905406152540   dF: -3.306e-08   |Residual|: 1.152e-05   |deigs|: 8.786e-06  t[s]:    157.52
	FillingsUpdate:  mu: -0.082982077  nElectrons: 9.000000  magneticMoment: [ Abs: 0.26149  Tot: +0.26000 ]
SCF: Cycle: 19   F: -24.430905426429643   dF: -2.028e-08   |Residual|: 8.801e-06   |deigs|: 7.356e-06  t[s]:    164.43
	FillingsUpdate:  mu: -0.082973388  nElectrons: 9.000000  magneticMoment: [ Abs: 0.26151  Tot: +0.26000 ]
SCF: Cycle: 20   F: -24.430905450886090   dF: -2.446e-08   |Residual|: 5.660e-06   |deigs|: 1.031e-05  t[s]:    171.91
	FillingsUpdate:  mu: -0.082971709  nElectrons: 9.000000  magneticMoment: [ Abs: 0.26150  Tot: +0.26000 ]
SCF: Cycle: 21   F: -24.430905466896480   dF: -1.601e-08   |Residual|: 4.288e-06   |deigs|: 5.190e-06  t[s]:    178.66
	FillingsUpdate:  mu: -0.082970997  nElectrons: 9.000000  magneticMoment: [ Abs: 0.26149  Tot: +0.26000 ]
SCF: Cycle: 22   F: -24.430905468289421   dF: -1.393e-09   |Residual|: 3.186e-06   |deigs|: 6.645e-06  t[s]:    185.61
	FillingsUpdate:  mu: -0.082970967  nElectrons: 9.000000  magneticMoment: [ Abs: 0.26150  Tot: +0.26000 ]
SCF: Cycle: 23   F: -24.430905472467352   dF: -4.178e-09   |Residual|: 2.109e-06   |deigs|: 8.833e-06  t[s]:    192.98
SCF: Converged (|Delta E|<1.000000e-08 for 2 iters).


# Ionic positions in lattice coordinates:
ion Rb   0.000000000000000   0.000000000000000   0.000000000000000 0

# Forces in Lattice coordinates:
force Rb   0.000000000000000   0.000000000000000   0.000000000000000 0

# Energy components:
   Eewald =       -9.0240130501663280
       EH =       10.5189295675366612
     Eloc =      -28.4428143625857004
      Enl =       -0.7931559704344672
   Epulay =        0.0000000056959385
      Exc =       -3.6479105894146748
       KE =        6.9580593479504635
-------------------------------------
     Etot =      -24.4309050514181045
       TS =        0.0000004210492476
-------------------------------------
        F =      -24.4309054724673516

IonicMinimize: Iter:   0  F: -24.430905472467352  |grad|_K:  0.000e+00  t[s]:    193.39
IonicMinimize: Converged (|grad|_K<1.000000e-04).

#--- Lowdin population analysis ---
# oxidation-state Rb +0.002
# magnetic-moments Rb +0.260

End date and time: Sun Feb  6 12:54:01 2022  (Duration: 0-0:03:13.46)
Done!
