The alkali metal is Rb
scale=2
magnetization=-0.56
--------------------------------------------------------------------------
The library attempted to open the following supporting CUDA libraries,
but each of them failed.  CUDA-aware support is disabled.
libcuda.so.1: cannot open shared object file: No such file or directory
libcuda.dylib: cannot open shared object file: No such file or directory
/usr/lib64/libcuda.so.1: cannot open shared object file: No such file or directory
/usr/lib64/libcuda.dylib: cannot open shared object file: No such file or directory
If you are not interested in CUDA-aware support, then run with
--mca opal_warn_on_missing_libcuda 0 to suppress this message.  If you are interested
in CUDA-aware support, then try setting LD_LIBRARY_PATH to the location
of libcuda.so.1 to get passed this issue.
--------------------------------------------------------------------------
--------------------------------------------------------------------------
No OpenFabrics connection schemes reported that they were able to be
used on a specific port.  As such, the openib BTL (OpenFabrics
support) will be disabled for this port.

  Local host:           d-18-13-1
  Local device:         mlx5_1
  Local port:           1
  CPCs attempted:       rdmacm, udcm
--------------------------------------------------------------------------

*************** JDFTx 1.6.0 (git hash 42ebbcc2) ***************

Start date and time: Sun Feb  6 12:34:51 2022
Executable jdftx with command-line: -i Alkali.in
Running on hosts (process indices):  d-18-13-1 (0-18)
Divided in process groups (process indices):  0 (0)  1 (1)  2 (2)  3 (3)  4 (4)  5 (5)  6 (6)  7 (7)  8 (8)  9 (9)  10 (10)  11 (11)  12 (12)  13 (13)  14 (14)  15 (15)  16 (16)  17 (17)  18 (18)
Resource initialization completed at t[s]:      0.00
Run totals: 19 processes, 48 threads, 0 GPUs


Input parsed successfully to the following command list (including defaults):

basis kpoint-dependent
coords-type Lattice
core-overlap-check vector
coulomb-interaction Slab 001
davidson-band-ratio 1.1
dump End None
dump-name $INPUT.$VAR
elec-cutoff 20
elec-eigen-algo Davidson
elec-ex-corr gga-PBE
elec-initial-magnetization -0.560000 yes
elec-smearing Fermi 1e-05
electronic-minimize  \
	dirUpdateScheme      FletcherReeves \
	linminMethod         DirUpdateRecommended \
	nIterations          100 \
	history              15 \
	knormThreshold       0 \
	energyDiffThreshold  1e-08 \
	nEnergyDiff          2 \
	alphaTstart          1 \
	alphaTmin            1e-10 \
	updateTestStepSize   yes \
	alphaTreduceFactor   0.1 \
	alphaTincreaseFactor 3 \
	nAlphaAdjustMax      3 \
	wolfeEnergy          0.0001 \
	wolfeGradient        0.9 \
	fdTest               no
electronic-scf  \
	nIterations	10000 \
	energyDiffThreshold	1e-08 \
	residualThreshold	1e-07 \
	mixFraction	0.5 \
	qMetric	0.8 \
	history	10 \
	nEigSteps	2 \
	eigDiffThreshold	1e-08 \
	mixedVariable	Density \
	qKerker	0.8 \
	qKappa	-1 \
	verbose	no \
	mixFractionMag	1.5
exchange-regularization WignerSeitzTruncated
fluid None
fluid-ex-corr (null) lda-PZ
fluid-gummel-loop 10 1.000000e-05
fluid-minimize  \
	dirUpdateScheme      PolakRibiere \
	linminMethod         DirUpdateRecommended \
	nIterations          100 \
	history              15 \
	knormThreshold       0 \
	energyDiffThreshold  0 \
	nEnergyDiff          2 \
	alphaTstart          1 \
	alphaTmin            1e-10 \
	updateTestStepSize   yes \
	alphaTreduceFactor   0.1 \
	alphaTincreaseFactor 3 \
	nAlphaAdjustMax      3 \
	wolfeEnergy          0.0001 \
	wolfeGradient        0.9 \
	fdTest               no
fluid-solvent H2O 55.338 ScalarEOS \
	epsBulk 78.4 \
	pMol 0.92466 \
	epsInf 1.77 \
	Pvap 1.06736e-10 \
	sigmaBulk 4.62e-05 \
	Rvdw 2.61727 \
	Res 1.42 \
	tauNuc 343133 \
	poleEl 15 7 1
forces-output-coords Positions
ion Rb   0.000000000000000   0.000000000000000   0.000000000000000 0
ion-species SG15/$ID_ONCV_PBE.upf
ion-width 0
ionic-minimize  \
	dirUpdateScheme      L-BFGS \
	linminMethod         DirUpdateRecommended \
	nIterations          0 \
	history              15 \
	knormThreshold       0.0001 \
	energyDiffThreshold  1e-06 \
	nEnergyDiff          2 \
	alphaTstart          1 \
	alphaTmin            1e-10 \
	updateTestStepSize   yes \
	alphaTreduceFactor   0.1 \
	alphaTincreaseFactor 3 \
	nAlphaAdjustMax      3 \
	wolfeEnergy          0.0001 \
	wolfeGradient        0.9 \
	fdTest               no
kpoint   0.000000000000   0.000000000000   0.000000000000  1.00000000000000
kpoint-folding 12 12 1 
latt-move-scale 1 1 1
latt-scale 2 2 1 
lattice  \
	   4.727486978767153   -2.363743489383575    0.000000000000000  \
	  -0.000000000000000    4.094123819672498    0.000000000000000  \
	   0.000000000000000    0.000000000000000   40.000000000000000 
lattice-minimize  \
	dirUpdateScheme      L-BFGS \
	linminMethod         DirUpdateRecommended \
	nIterations          0 \
	history              15 \
	knormThreshold       0 \
	energyDiffThreshold  1e-06 \
	nEnergyDiff          2 \
	alphaTstart          1 \
	alphaTmin            1e-10 \
	updateTestStepSize   yes \
	alphaTreduceFactor   0.1 \
	alphaTincreaseFactor 3 \
	nAlphaAdjustMax      3 \
	wolfeEnergy          0.0001 \
	wolfeGradient        0.9 \
	fdTest               no
lcao-params -1 1e-06 1e-05
pcm-variant GLSSA13
spintype z-spin
subspace-rotation-factor 1 yes
symmetries automatic
symmetry-threshold 0.0001



---------- Setting up symmetries ----------

Found 24 point-group symmetries of the bravais lattice
Found 24 space-group symmetries with basis
Applied RMS atom displacement 0 bohrs to make symmetries exact.

---------- Initializing the Grid ----------
R = 
[      9.45497     -4.72749            0  ]
[            0      8.18825            0  ]
[            0            0           40  ]
unit cell volume = 3096.79
G =
[   0.664538   0.383671         -0  ]
[          0   0.767342         -0  ]
[         -0         -0    0.15708  ]
Minimum fftbox size, Smin = [  40  40  164  ]
Chosen fftbox size, S = [  40  40  168  ]

---------- Exchange Correlation functional ----------
Initalized PBE GGA exchange.
Initalized PBE GGA correlation.

---------- Setting up pseudopotentials ----------
Width of ionic core gaussian charges (only for fluid interactions / plotting) set to 0

Reading pseudopotential file '/home/gridsan/aligho/DFT/build-Nov24/pseudopotentials/SG15/Rb_ONCV_PBE.upf':
  'Rb' pseudopotential, 'PBE' functional
  Generated using ONCVPSP code by D. R. Hamann
  Author: Martin Schlipf and Francois Gygi  Date: 150915.
  9 valence electrons, 3 orbitals, 6 projectors, 2308 radial grid points, with lMax = 2
  Transforming local potential to a uniform radial grid of dG=0.02 with 1489 points.
  Transforming nonlocal projectors to a uniform radial grid of dG=0.02 with 432 points.
    4S    l: 0   occupation:  2.0   eigenvalue: -1.172069
    4P    l: 1   occupation:  6.0   eigenvalue: -0.586674
    5S    l: 0   occupation:  1.0   eigenvalue: -0.082006
  Transforming atomic orbitals to a uniform radial grid of dG=0.02 with 432 points.
  Core radius for overlap checks: 2.60 bohrs.
  Reading pulay file /home/gridsan/aligho/DFT/build-Nov24/pseudopotentials/SG15/Rb_ONCV_PBE.pulay ... using dE_dnG = -1.360715e-05 computed for Ecut = 20.

Initialized 1 species with 1 total atoms.

Folded 1 k-points by 12x12x1 to 144 k-points.

---------- Setting up k-points, bands, fillings ----------
Reduced to 19 k-points under symmetry. 
Computing the number of bands and number of electrons
Calculating initial fillings.
nElectrons:   9.000000   nBands: 6   nStates: 38

----- Setting up reduced wavefunction bases (one per k-point) -----
average nbasis = 13230.521 , ideal nbasis = 13229.709

---------- Setting up coulomb interaction ----------
Initialized slab truncation along lattice direction 001

---------- Setting up 2D ewald sum ----------
Optimum gaussian width for ewald sums = 5.249020 bohr.
Real space sums over 289 unit cells with max indices [  8  8  0  ]
Reciprocal space sums over 81 terms with max indices [  4  4  0  ]

---------- Allocating electronic variables ----------
Initializing wave functions:  linear combination of atomic orbitals
Note: number of bands (6) exceeds available atomic orbitals (5)
Rb pseudo-atom occupations:   s ( 2 1 )  p ( 6 )
	FillingsUpdate:  mu: -0.094108268  nElectrons: 9.000000  magneticMoment: [ Abs: 0.56000  Tot: -0.56000 ]
LCAOMinimize: Iter:   0  F: -24.4430191894770168  |grad|_K:  2.859e-05  alpha:  1.000e+00
	FillingsUpdate:  mu: -0.094098280  nElectrons: 9.000000  magneticMoment: [ Abs: 0.56000  Tot: -0.56000 ]
LCAOMinimize: Iter:   1  F: -24.4430197360735981  |grad|_K:  2.749e-07  alpha:  9.779e-01  linmin: -2.872e-02  cgtest:  3.532e-01  t[s]:      4.60
LCAOMinimize: Encountered beta<0, resetting CG.
[d-18-13-1:27975] 18 more processes have sent help message help-mpi-common-cuda.txt / dlopen failed
[d-18-13-1:27975] Set MCA parameter "orte_base_help_aggregate" to 0 to see all help / error messages
[d-18-13-1:27975] 18 more processes have sent help message help-mpi-btl-openib-cpc-base.txt / no cpcs for port
	FillingsUpdate:  mu: -0.094098337  nElectrons: 9.000000  magneticMoment: [ Abs: 0.56000  Tot: -0.56000 ]
LCAOMinimize: Iter:   2  F: -24.4430197361257449  |grad|_K:  3.384e-09  alpha:  1.013e+00  linmin:  1.075e-01  cgtest: -9.873e-01  t[s]:      5.76
LCAOMinimize: Converged (|Delta F|<1.000000e-06 for 2 iters).


---- Citations for features of the code used in this run ----

   Software package:
      R. Sundararaman, K. Letchworth-Weaver, K.A. Schwarz, D. Gunceler, Y. Ozhabes and T.A. Arias, 'JDFTx: software for joint density-functional theory', SoftwareX 6, 278 (2017)

   gga-PBE exchange-correlation functional:
      J.P. Perdew, K. Burke and M. Ernzerhof, Phys. Rev. Lett. 77, 3865 (1996)

   Pseudopotentials:
      M Schlipf and F Gygi, Comput. Phys. Commun. 196, 36 (2015)

   Truncated Coulomb potentials:
      R. Sundararaman and T.A. Arias, Phys. Rev. B 87, 165122 (2013)

This list may not be complete. Please suggest additional citations or
report any other bugs at https://github.com/shankar1729/jdftx/issues

Initialization completed successfully at t[s]:      5.85


-------- Electronic minimization -----------
Will mix electronic density at each iteration.
	FillingsUpdate:  mu: -0.094098337  nElectrons: 9.000000  magneticMoment: [ Abs: 0.56000  Tot: -0.56000 ]
	FillingsUpdate:  mu: -0.104390865  nElectrons: 9.000000  magneticMoment: [ Abs: 0.56000  Tot: -0.56000 ]
SCF: Cycle:  0   F: -24.450247188445413   dF: -7.227e-03   |Residual|: 1.223e-02   |deigs|: 1.783e-01  t[s]:      8.19
	FillingsUpdate:  mu: -0.104305806  nElectrons: 9.000000  magneticMoment: [ Abs: 0.56000  Tot: -0.56000 ]
SCF: Cycle:  1   F: -24.450557015030906   dF: -3.098e-04   |Residual|: 8.744e-03   |deigs|: 7.156e-03  t[s]:     10.04
	FillingsUpdate:  mu: -0.102830393  nElectrons: 9.000000  magneticMoment: [ Abs: 0.56269  Tot: -0.56000 ]
SCF: Cycle:  2   F: -24.450670081991401   dF: -1.131e-04   |Residual|: 5.105e-03   |deigs|: 1.762e-03  t[s]:     11.85
	FillingsUpdate:  mu: -0.101799671  nElectrons: 9.000000  magneticMoment: [ Abs: 0.56008  Tot: -0.56000 ]
SCF: Cycle:  3   F: -24.450742845584337   dF: -7.276e-05   |Residual|: 3.206e-03   |deigs|: 1.733e-03  t[s]:     13.76
	FillingsUpdate:  mu: -0.099949083  nElectrons: 9.000000  magneticMoment: [ Abs: 0.56011  Tot: -0.56000 ]
SCF: Cycle:  4   F: -24.450786100369410   dF: -4.325e-05   |Residual|: 2.211e-03   |deigs|: 2.739e-03  t[s]:     15.58
	FillingsUpdate:  mu: -0.098600813  nElectrons: 9.000000  magneticMoment: [ Abs: 0.56061  Tot: -0.56000 ]
SCF: Cycle:  5   F: -24.450805059306251   dF: -1.896e-05   |Residual|: 1.664e-03   |deigs|: 2.751e-03  t[s]:     17.48
	FillingsUpdate:  mu: -0.096154079  nElectrons: 9.000000  magneticMoment: [ Abs: 0.56666  Tot: -0.56000 ]
SCF: Cycle:  6   F: -24.450803401645263   dF: +1.658e-06   |Residual|: 1.227e-03   |deigs|: 3.500e-03  t[s]:     19.41
	FillingsUpdate:  mu: -0.093750400  nElectrons: 9.000000  magneticMoment: [ Abs: 0.56800  Tot: -0.56000 ]
SCF: Cycle:  7   F: -24.450821590141761   dF: -1.819e-05   |Residual|: 1.157e-03   |deigs|: 3.150e-03  t[s]:     21.34
	FillingsUpdate:  mu: -0.093988426  nElectrons: 9.000000  magneticMoment: [ Abs: 0.56181  Tot: -0.56000 ]
SCF: Cycle:  8   F: -24.450835557301819   dF: -1.397e-05   |Residual|: 9.044e-04   |deigs|: 5.977e-04  t[s]:     23.31
	FillingsUpdate:  mu: -0.092880419  nElectrons: 9.000000  magneticMoment: [ Abs: 0.56223  Tot: -0.56000 ]
SCF: Cycle:  9   F: -24.450839521713451   dF: -3.964e-06   |Residual|: 7.446e-04   |deigs|: 1.100e-03  t[s]:     25.29
	FillingsUpdate:  mu: -0.091473741  nElectrons: 9.000000  magneticMoment: [ Abs: 0.56438  Tot: -0.56000 ]
SCF: Cycle: 10   F: -24.450840817325076   dF: -1.296e-06   |Residual|: 6.173e-04   |deigs|: 1.466e-03  t[s]:     27.39
	FillingsUpdate:  mu: -0.090466676  nElectrons: 9.000000  magneticMoment: [ Abs: 0.56386  Tot: -0.56000 ]
SCF: Cycle: 11   F: -24.450840602765332   dF: +2.146e-07   |Residual|: 5.570e-04   |deigs|: 1.175e-03  t[s]:     29.37
	FillingsUpdate:  mu: -0.089214799  nElectrons: 9.000000  magneticMoment: [ Abs: 0.56383  Tot: -0.56000 ]
SCF: Cycle: 12   F: -24.450849426972816   dF: -8.824e-06   |Residual|: 4.891e-04   |deigs|: 1.265e-03  t[s]:     31.37
	FillingsUpdate:  mu: -0.087577738  nElectrons: 9.000000  magneticMoment: [ Abs: 0.56491  Tot: -0.56000 ]
SCF: Cycle: 13   F: -24.450857493086293   dF: -8.066e-06   |Residual|: 4.492e-04   |deigs|: 1.637e-03  t[s]:     33.36
	FillingsUpdate:  mu: -0.086383404  nElectrons: 9.000000  magneticMoment: [ Abs: 0.56301  Tot: -0.56000 ]
SCF: Cycle: 14   F: -24.450861432816481   dF: -3.940e-06   |Residual|: 4.097e-04   |deigs|: 1.233e-03  t[s]:     35.36
	FillingsUpdate:  mu: -0.085022196  nElectrons: 9.000000  magneticMoment: [ Abs: 0.56107  Tot: -0.56000 ]
SCF: Cycle: 15   F: -24.450864921889309   dF: -3.489e-06   |Residual|: 3.017e-04   |deigs|: 1.467e-03  t[s]:     37.37
	FillingsUpdate:  mu: -0.084708933  nElectrons: 9.000000  magneticMoment: [ Abs: 0.56104  Tot: -0.56000 ]
SCF: Cycle: 16   F: -24.450866298467897   dF: -1.377e-06   |Residual|: 2.174e-04   |deigs|: 5.764e-04  t[s]:     39.34
	FillingsUpdate:  mu: -0.084541464  nElectrons: 9.000000  magneticMoment: [ Abs: 0.56031  Tot: -0.56000 ]
SCF: Cycle: 17   F: -24.450867495386937   dF: -1.197e-06   |Residual|: 1.427e-04   |deigs|: 2.976e-04  t[s]:     41.35
	FillingsUpdate:  mu: -0.084499009  nElectrons: 9.000000  magneticMoment: [ Abs: 0.56013  Tot: -0.56000 ]
SCF: Cycle: 18   F: -24.450867821857077   dF: -3.265e-07   |Residual|: 1.022e-04   |deigs|: 8.426e-04  t[s]:     43.32
	FillingsUpdate:  mu: -0.084442880  nElectrons: 9.000000  magneticMoment: [ Abs: 0.56032  Tot: -0.56000 ]
SCF: Cycle: 19   F: -24.450867978060959   dF: -1.562e-07   |Residual|: 4.347e-05   |deigs|: 1.935e-04  t[s]:     45.36
	FillingsUpdate:  mu: -0.084419374  nElectrons: 9.000000  magneticMoment: [ Abs: 0.56031  Tot: -0.56000 ]
SCF: Cycle: 20   F: -24.450868035650384   dF: -5.759e-08   |Residual|: 2.666e-05   |deigs|: 3.314e-05  t[s]:     47.40
	FillingsUpdate:  mu: -0.084409135  nElectrons: 9.000000  magneticMoment: [ Abs: 0.56031  Tot: -0.56000 ]
SCF: Cycle: 21   F: -24.450868065296500   dF: -2.965e-08   |Residual|: 1.821e-05   |deigs|: 1.786e-05  t[s]:     49.37
	FillingsUpdate:  mu: -0.084421568  nElectrons: 9.000000  magneticMoment: [ Abs: 0.56032  Tot: -0.56000 ]
SCF: Cycle: 22   F: -24.450868086559232   dF: -2.126e-08   |Residual|: 1.226e-05   |deigs|: 1.437e-05  t[s]:     51.45
	FillingsUpdate:  mu: -0.084435557  nElectrons: 9.000000  magneticMoment: [ Abs: 0.56029  Tot: -0.56000 ]
SCF: Cycle: 23   F: -24.450868092338180   dF: -5.779e-09   |Residual|: 9.223e-06   |deigs|: 2.076e-05  t[s]:     53.40
	FillingsUpdate:  mu: -0.084440722  nElectrons: 9.000000  magneticMoment: [ Abs: 0.56025  Tot: -0.56000 ]
SCF: Cycle: 24   F: -24.450868095955105   dF: -3.617e-09   |Residual|: 8.340e-06   |deigs|: 1.630e-05  t[s]:     55.43
SCF: Converged (|Delta E|<1.000000e-08 for 2 iters).


# Ionic positions in lattice coordinates:
ion Rb   0.000000000000000   0.000000000000000   0.000000000000000 0

# Forces in Lattice coordinates:
force Rb   0.000000000000000   0.000000000000000   0.000000000000000 0

# Energy components:
   Eewald =      -18.0480261003326561
       EH =        1.6617656853283334
     Eloc =      -10.5735164523416199
      Enl =       -0.7974446349015554
   Epulay =        0.0000000035676145
      Exc =       -3.6792469384824220
       KE =        6.9856009799502043
-------------------------------------
     Etot =      -24.4508674572121052
       TS =        0.0000006387429985
-------------------------------------
        F =      -24.4508680959551050

IonicMinimize: Iter:   0  F: -24.450868095955105  |grad|_K:  0.000e+00  t[s]:     55.55
IonicMinimize: Converged (|grad|_K<1.000000e-04).

#--- Lowdin population analysis ---
# oxidation-state Rb +0.074
# magnetic-moments Rb -0.493

End date and time: Sun Feb  6 12:35:47 2022  (Duration: 0-0:00:55.58)
Done!
scale=3
magnetization=-0.56
--------------------------------------------------------------------------
The library attempted to open the following supporting CUDA libraries,
but each of them failed.  CUDA-aware support is disabled.
libcuda.so.1: cannot open shared object file: No such file or directory
libcuda.dylib: cannot open shared object file: No such file or directory
/usr/lib64/libcuda.so.1: cannot open shared object file: No such file or directory
/usr/lib64/libcuda.dylib: cannot open shared object file: No such file or directory
If you are not interested in CUDA-aware support, then run with
--mca opal_warn_on_missing_libcuda 0 to suppress this message.  If you are interested
in CUDA-aware support, then try setting LD_LIBRARY_PATH to the location
of libcuda.so.1 to get passed this issue.
--------------------------------------------------------------------------
--------------------------------------------------------------------------
No OpenFabrics connection schemes reported that they were able to be
used on a specific port.  As such, the openib BTL (OpenFabrics
support) will be disabled for this port.

  Local host:           d-18-13-1
  Local device:         mlx5_1
  Local port:           1
  CPCs attempted:       rdmacm, udcm
--------------------------------------------------------------------------

*************** JDFTx 1.6.0 (git hash 42ebbcc2) ***************

Start date and time: Sun Feb  6 12:35:55 2022
Executable jdftx with command-line: -i Alkali.in
Running on hosts (process indices):  d-18-13-1 (0-18)
Divided in process groups (process indices):  0 (0)  1 (1)  2 (2)  3 (3)  4 (4)  5 (5)  6 (6)  7 (7)  8 (8)  9 (9)  10 (10)  11 (11)  12 (12)  13 (13)  14 (14)  15 (15)  16 (16)  17 (17)  18 (18)
Resource initialization completed at t[s]:      0.00
Run totals: 19 processes, 48 threads, 0 GPUs


Input parsed successfully to the following command list (including defaults):

basis kpoint-dependent
coords-type Lattice
core-overlap-check vector
coulomb-interaction Slab 001
davidson-band-ratio 1.1
dump End None
dump-name $INPUT.$VAR
elec-cutoff 20
elec-eigen-algo Davidson
elec-ex-corr gga-PBE
elec-initial-magnetization -0.560000 yes
elec-smearing Fermi 1e-05
electronic-minimize  \
	dirUpdateScheme      FletcherReeves \
	linminMethod         DirUpdateRecommended \
	nIterations          100 \
	history              15 \
	knormThreshold       0 \
	energyDiffThreshold  1e-08 \
	nEnergyDiff          2 \
	alphaTstart          1 \
	alphaTmin            1e-10 \
	updateTestStepSize   yes \
	alphaTreduceFactor   0.1 \
	alphaTincreaseFactor 3 \
	nAlphaAdjustMax      3 \
	wolfeEnergy          0.0001 \
	wolfeGradient        0.9 \
	fdTest               no
electronic-scf  \
	nIterations	10000 \
	energyDiffThreshold	1e-08 \
	residualThreshold	1e-07 \
	mixFraction	0.5 \
	qMetric	0.8 \
	history	10 \
	nEigSteps	2 \
	eigDiffThreshold	1e-08 \
	mixedVariable	Density \
	qKerker	0.8 \
	qKappa	-1 \
	verbose	no \
	mixFractionMag	1.5
exchange-regularization WignerSeitzTruncated
fluid None
fluid-ex-corr (null) lda-PZ
fluid-gummel-loop 10 1.000000e-05
fluid-minimize  \
	dirUpdateScheme      PolakRibiere \
	linminMethod         DirUpdateRecommended \
	nIterations          100 \
	history              15 \
	knormThreshold       0 \
	energyDiffThreshold  0 \
	nEnergyDiff          2 \
	alphaTstart          1 \
	alphaTmin            1e-10 \
	updateTestStepSize   yes \
	alphaTreduceFactor   0.1 \
	alphaTincreaseFactor 3 \
	nAlphaAdjustMax      3 \
	wolfeEnergy          0.0001 \
	wolfeGradient        0.9 \
	fdTest               no
fluid-solvent H2O 55.338 ScalarEOS \
	epsBulk 78.4 \
	pMol 0.92466 \
	epsInf 1.77 \
	Pvap 1.06736e-10 \
	sigmaBulk 4.62e-05 \
	Rvdw 2.61727 \
	Res 1.42 \
	tauNuc 343133 \
	poleEl 15 7 1
forces-output-coords Positions
ion Rb   0.000000000000000   0.000000000000000   0.000000000000000 0
ion-species SG15/$ID_ONCV_PBE.upf
ion-width 0
ionic-minimize  \
	dirUpdateScheme      L-BFGS \
	linminMethod         DirUpdateRecommended \
	nIterations          0 \
	history              15 \
	knormThreshold       0.0001 \
	energyDiffThreshold  1e-06 \
	nEnergyDiff          2 \
	alphaTstart          1 \
	alphaTmin            1e-10 \
	updateTestStepSize   yes \
	alphaTreduceFactor   0.1 \
	alphaTincreaseFactor 3 \
	nAlphaAdjustMax      3 \
	wolfeEnergy          0.0001 \
	wolfeGradient        0.9 \
	fdTest               no
kpoint   0.000000000000   0.000000000000   0.000000000000  1.00000000000000
kpoint-folding 12 12 1 
latt-move-scale 1 1 1
latt-scale 3 3 1 
lattice  \
	   4.727486978767153   -2.363743489383575    0.000000000000000  \
	  -0.000000000000000    4.094123819672498    0.000000000000000  \
	   0.000000000000000    0.000000000000000   40.000000000000000 
lattice-minimize  \
	dirUpdateScheme      L-BFGS \
	linminMethod         DirUpdateRecommended \
	nIterations          0 \
	history              15 \
	knormThreshold       0 \
	energyDiffThreshold  1e-06 \
	nEnergyDiff          2 \
	alphaTstart          1 \
	alphaTmin            1e-10 \
	updateTestStepSize   yes \
	alphaTreduceFactor   0.1 \
	alphaTincreaseFactor 3 \
	nAlphaAdjustMax      3 \
	wolfeEnergy          0.0001 \
	wolfeGradient        0.9 \
	fdTest               no
lcao-params -1 1e-06 1e-05
pcm-variant GLSSA13
spintype z-spin
subspace-rotation-factor 1 yes
symmetries automatic
symmetry-threshold 0.0001



---------- Setting up symmetries ----------

Found 24 point-group symmetries of the bravais lattice
Found 24 space-group symmetries with basis
Applied RMS atom displacement 0 bohrs to make symmetries exact.

---------- Initializing the Grid ----------
R = 
[      14.1825     -7.09123            0  ]
[            0      12.2824            0  ]
[            0            0           40  ]
unit cell volume = 6967.77
G =
[   0.443025   0.255781         -0  ]
[          0   0.511561         -0  ]
[         -0         -0    0.15708  ]
Minimum fftbox size, Smin = [  60  60  164  ]
Chosen fftbox size, S = [  60  60  168  ]

---------- Exchange Correlation functional ----------
Initalized PBE GGA exchange.
Initalized PBE GGA correlation.

---------- Setting up pseudopotentials ----------
Width of ionic core gaussian charges (only for fluid interactions / plotting) set to 0

Reading pseudopotential file '/home/gridsan/aligho/DFT/build-Nov24/pseudopotentials/SG15/Rb_ONCV_PBE.upf':
  'Rb' pseudopotential, 'PBE' functional
  Generated using ONCVPSP code by D. R. Hamann
  Author: Martin Schlipf and Francois Gygi  Date: 150915.
  9 valence electrons, 3 orbitals, 6 projectors, 2308 radial grid points, with lMax = 2
  Transforming local potential to a uniform radial grid of dG=0.02 with 1489 points.
  Transforming nonlocal projectors to a uniform radial grid of dG=0.02 with 432 points.
    4S    l: 0   occupation:  2.0   eigenvalue: -1.172069
    4P    l: 1   occupation:  6.0   eigenvalue: -0.586674
    5S    l: 0   occupation:  1.0   eigenvalue: -0.082006
  Transforming atomic orbitals to a uniform radial grid of dG=0.02 with 432 points.
  Core radius for overlap checks: 2.60 bohrs.
  Reading pulay file /home/gridsan/aligho/DFT/build-Nov24/pseudopotentials/SG15/Rb_ONCV_PBE.pulay ... using dE_dnG = -1.360715e-05 computed for Ecut = 20.

Initialized 1 species with 1 total atoms.

Folded 1 k-points by 12x12x1 to 144 k-points.

---------- Setting up k-points, bands, fillings ----------
Reduced to 19 k-points under symmetry. 
Computing the number of bands and number of electrons
Calculating initial fillings.
nElectrons:   9.000000   nBands: 6   nStates: 38

----- Setting up reduced wavefunction bases (one per k-point) -----
average nbasis = 29766.104 , ideal nbasis = 29766.845

---------- Setting up coulomb interaction ----------
Initialized slab truncation along lattice direction 001

---------- Setting up 2D ewald sum ----------
Optimum gaussian width for ewald sums = 7.873530 bohr.
Real space sums over 289 unit cells with max indices [  8  8  0  ]
Reciprocal space sums over 81 terms with max indices [  4  4  0  ]

---------- Allocating electronic variables ----------
Initializing wave functions:  linear combination of atomic orbitals
Note: number of bands (6) exceeds available atomic orbitals (5)
Rb pseudo-atom occupations:   s ( 2 1 )  p ( 6 )
[d-18-13-1:65826] 18 more processes have sent help message help-mpi-common-cuda.txt / dlopen failed
[d-18-13-1:65826] Set MCA parameter "orte_base_help_aggregate" to 0 to see all help / error messages
[d-18-13-1:65826] 18 more processes have sent help message help-mpi-btl-openib-cpc-base.txt / no cpcs for port
	FillingsUpdate:  mu: -0.085179203  nElectrons: 9.000000  magneticMoment: [ Abs: 0.56000  Tot: -0.56000 ]
LCAOMinimize: Iter:   0  F: -24.4357664668863777  |grad|_K:  1.537e-05  alpha:  1.000e+00
	FillingsUpdate:  mu: -0.085176606  nElectrons: 9.000000  magneticMoment: [ Abs: 0.56000  Tot: -0.56000 ]
LCAOMinimize: Iter:   1  F: -24.4357666266958091  |grad|_K:  1.182e-07  alpha:  9.894e-01  linmin: -1.344e-02  cgtest:  2.933e-01  t[s]:      8.68
LCAOMinimize: Encountered beta<0, resetting CG.
	FillingsUpdate:  mu: -0.085176618  nElectrons: 9.000000  magneticMoment: [ Abs: 0.56000  Tot: -0.56000 ]
LCAOMinimize: Iter:   2  F: -24.4357666267051563  |grad|_K:  4.669e-09  alpha:  9.599e-01  linmin: -8.950e-02  cgtest:  9.919e-01  t[s]:     11.03
LCAOMinimize: Encountered beta<0, resetting CG.
LCAOMinimize: Converged (|Delta F|<1.000000e-06 for 2 iters).


---- Citations for features of the code used in this run ----

   Software package:
      R. Sundararaman, K. Letchworth-Weaver, K.A. Schwarz, D. Gunceler, Y. Ozhabes and T.A. Arias, 'JDFTx: software for joint density-functional theory', SoftwareX 6, 278 (2017)

   gga-PBE exchange-correlation functional:
      J.P. Perdew, K. Burke and M. Ernzerhof, Phys. Rev. Lett. 77, 3865 (1996)

   Pseudopotentials:
      M Schlipf and F Gygi, Comput. Phys. Commun. 196, 36 (2015)

   Truncated Coulomb potentials:
      R. Sundararaman and T.A. Arias, Phys. Rev. B 87, 165122 (2013)

This list may not be complete. Please suggest additional citations or
report any other bugs at https://github.com/shankar1729/jdftx/issues

Initialization completed successfully at t[s]:     11.19


-------- Electronic minimization -----------
Will mix electronic density at each iteration.
	FillingsUpdate:  mu: -0.085176618  nElectrons: 9.000000  magneticMoment: [ Abs: 0.56000  Tot: -0.56000 ]
	FillingsUpdate:  mu: -0.086494521  nElectrons: 9.000000  magneticMoment: [ Abs: 0.56000  Tot: -0.56000 ]
SCF: Cycle:  0   F: -24.437357928456255   dF: -1.591e-03   |Residual|: 4.011e-03   |deigs|: 1.736e-01  t[s]:     15.94
	FillingsUpdate:  mu: -0.086663890  nElectrons: 9.000000  magneticMoment: [ Abs: 0.56048  Tot: -0.56000 ]
SCF: Cycle:  1   F: -24.437416683987454   dF: -5.876e-05   |Residual|: 3.187e-03   |deigs|: 4.546e-03  t[s]:     19.59
	FillingsUpdate:  mu: -0.086822650  nElectrons: 9.000000  magneticMoment: [ Abs: 0.56246  Tot: -0.56000 ]
SCF: Cycle:  2   F: -24.437456088223190   dF: -3.940e-05   |Residual|: 2.295e-03   |deigs|: 2.082e-03  t[s]:     23.32
	FillingsUpdate:  mu: -0.087036530  nElectrons: 9.000000  magneticMoment: [ Abs: 0.56319  Tot: -0.56000 ]
SCF: Cycle:  3   F: -24.437480345707637   dF: -2.426e-05   |Residual|: 1.540e-03   |deigs|: 3.114e-03  t[s]:     27.11
	FillingsUpdate:  mu: -0.087082308  nElectrons: 9.000000  magneticMoment: [ Abs: 0.56134  Tot: -0.56000 ]
SCF: Cycle:  4   F: -24.437491155996362   dF: -1.081e-05   |Residual|: 8.043e-04   |deigs|: 2.137e-03  t[s]:     31.01
	FillingsUpdate:  mu: -0.087145350  nElectrons: 9.000000  magneticMoment: [ Abs: 0.56213  Tot: -0.56000 ]
SCF: Cycle:  5   F: -24.437497883552986   dF: -6.728e-06   |Residual|: 5.147e-04   |deigs|: 1.426e-03  t[s]:     34.97
	FillingsUpdate:  mu: -0.087056525  nElectrons: 9.000000  magneticMoment: [ Abs: 0.56190  Tot: -0.56000 ]
SCF: Cycle:  6   F: -24.437502027283347   dF: -4.144e-06   |Residual|: 3.702e-04   |deigs|: 1.352e-03  t[s]:     39.00
	FillingsUpdate:  mu: -0.086891384  nElectrons: 9.000000  magneticMoment: [ Abs: 0.56217  Tot: -0.56000 ]
SCF: Cycle:  7   F: -24.437502963186457   dF: -9.359e-07   |Residual|: 3.017e-04   |deigs|: 6.168e-04  t[s]:     42.97
	FillingsUpdate:  mu: -0.086645438  nElectrons: 9.000000  magneticMoment: [ Abs: 0.56295  Tot: -0.56000 ]
SCF: Cycle:  8   F: -24.437503179659277   dF: -2.165e-07   |Residual|: 2.424e-04   |deigs|: 3.354e-04  t[s]:     47.09
	FillingsUpdate:  mu: -0.086267117  nElectrons: 9.000000  magneticMoment: [ Abs: 0.56326  Tot: -0.56000 ]
SCF: Cycle:  9   F: -24.437502312540435   dF: +8.671e-07   |Residual|: 2.162e-04   |deigs|: 4.889e-04  t[s]:     51.31
	FillingsUpdate:  mu: -0.086038625  nElectrons: 9.000000  magneticMoment: [ Abs: 0.56301  Tot: -0.56000 ]
SCF: Cycle: 10   F: -24.437502205478150   dF: +1.071e-07   |Residual|: 1.931e-04   |deigs|: 4.193e-04  t[s]:     55.62
	FillingsUpdate:  mu: -0.085927688  nElectrons: 9.000000  magneticMoment: [ Abs: 0.56292  Tot: -0.56000 ]
SCF: Cycle: 11   F: -24.437503887207736   dF: -1.682e-06   |Residual|: 1.440e-04   |deigs|: 3.299e-04  t[s]:     59.85
	FillingsUpdate:  mu: -0.085727008  nElectrons: 9.000000  magneticMoment: [ Abs: 0.56328  Tot: -0.56000 ]
SCF: Cycle: 12   F: -24.437504173341669   dF: -2.861e-07   |Residual|: 1.384e-04   |deigs|: 3.922e-04  t[s]:     64.09
	FillingsUpdate:  mu: -0.085309255  nElectrons: 9.000000  magneticMoment: [ Abs: 0.56299  Tot: -0.56000 ]
SCF: Cycle: 13   F: -24.437503806586189   dF: +3.668e-07   |Residual|: 1.356e-04   |deigs|: 5.380e-04  t[s]:     68.39
	FillingsUpdate:  mu: -0.085094516  nElectrons: 9.000000  magneticMoment: [ Abs: 0.56282  Tot: -0.56000 ]
SCF: Cycle: 14   F: -24.437503607192145   dF: +1.994e-07   |Residual|: 1.253e-04   |deigs|: 3.941e-04  t[s]:     72.61
	FillingsUpdate:  mu: -0.085013799  nElectrons: 9.000000  magneticMoment: [ Abs: 0.56279  Tot: -0.56000 ]
SCF: Cycle: 15   F: -24.437504458887592   dF: -8.517e-07   |Residual|: 1.059e-04   |deigs|: 1.309e-04  t[s]:     76.84
	FillingsUpdate:  mu: -0.084813093  nElectrons: 9.000000  magneticMoment: [ Abs: 0.56215  Tot: -0.56000 ]
SCF: Cycle: 16   F: -24.437505243945836   dF: -7.851e-07   |Residual|: 7.278e-05   |deigs|: 2.286e-04  t[s]:     81.10
	FillingsUpdate:  mu: -0.084659663  nElectrons: 9.000000  magneticMoment: [ Abs: 0.56206  Tot: -0.56000 ]
SCF: Cycle: 17   F: -24.437505426971423   dF: -1.830e-07   |Residual|: 5.421e-05   |deigs|: 1.685e-04  t[s]:     85.23
	FillingsUpdate:  mu: -0.084663890  nElectrons: 9.000000  magneticMoment: [ Abs: 0.56201  Tot: -0.56000 ]
SCF: Cycle: 18   F: -24.437505553038530   dF: -1.261e-07   |Residual|: 3.734e-05   |deigs|: 2.390e-05  t[s]:     89.47
	FillingsUpdate:  mu: -0.084676288  nElectrons: 9.000000  magneticMoment: [ Abs: 0.56204  Tot: -0.56000 ]
SCF: Cycle: 19   F: -24.437505645203494   dF: -9.216e-08   |Residual|: 2.002e-05   |deigs|: 2.506e-05  t[s]:     93.73
	FillingsUpdate:  mu: -0.084654502  nElectrons: 9.000000  magneticMoment: [ Abs: 0.56203  Tot: -0.56000 ]
SCF: Cycle: 20   F: -24.437505662504417   dF: -1.730e-08   |Residual|: 1.467e-05   |deigs|: 2.204e-05  t[s]:     97.92
	FillingsUpdate:  mu: -0.084661281  nElectrons: 9.000000  magneticMoment: [ Abs: 0.56203  Tot: -0.56000 ]
SCF: Cycle: 21   F: -24.437505669204871   dF: -6.700e-09   |Residual|: 9.551e-06   |deigs|: 8.244e-06  t[s]:    102.19
	FillingsUpdate:  mu: -0.084662779  nElectrons: 9.000000  magneticMoment: [ Abs: 0.56205  Tot: -0.56000 ]
SCF: Cycle: 22   F: -24.437505680429588   dF: -1.122e-08   |Residual|: 5.644e-06   |deigs|: 3.608e-06  t[s]:    106.49
	FillingsUpdate:  mu: -0.084664237  nElectrons: 9.000000  magneticMoment: [ Abs: 0.56205  Tot: -0.56000 ]
SCF: Cycle: 23   F: -24.437505682262962   dF: -1.833e-09   |Residual|: 4.190e-06   |deigs|: 3.059e-06  t[s]:    110.60
	FillingsUpdate:  mu: -0.084665429  nElectrons: 9.000000  magneticMoment: [ Abs: 0.56205  Tot: -0.56000 ]
SCF: Cycle: 24   F: -24.437505682957514   dF: -6.946e-10   |Residual|: 3.032e-06   |deigs|: 3.776e-06  t[s]:    114.82
SCF: Converged (|Delta E|<1.000000e-08 for 2 iters).


# Ionic positions in lattice coordinates:
ion Rb   0.000000000000000   0.000000000000000   0.000000000000000 0

# Forces in Lattice coordinates:
force Rb   0.000000000000000   0.000000000000000   0.000000000000000 0

# Energy components:
   Eewald =      -12.0320174002217755
       EH =        7.5007445708326772
     Eloc =      -22.4122094572997916
      Enl =       -0.7970936499206789
   Epulay =       -0.0000000014467880
      Exc =       -3.6488904696264890
       KE =        6.9519613634683353
-------------------------------------
     Etot =      -24.4375050442145145
       TS =        0.0000006387429985
-------------------------------------
        F =      -24.4375056829575144

IonicMinimize: Iter:   0  F: -24.437505682957514  |grad|_K:  0.000e+00  t[s]:    115.08
IonicMinimize: Converged (|grad|_K<1.000000e-04).

#--- Lowdin population analysis ---
# oxidation-state Rb +0.035
# magnetic-moments Rb -0.530

End date and time: Sun Feb  6 12:37:50 2022  (Duration: 0-0:01:55.13)
Done!
scale=4
magnetization=-0.56
--------------------------------------------------------------------------
The library attempted to open the following supporting CUDA libraries,
but each of them failed.  CUDA-aware support is disabled.
libcuda.so.1: cannot open shared object file: No such file or directory
libcuda.dylib: cannot open shared object file: No such file or directory
/usr/lib64/libcuda.so.1: cannot open shared object file: No such file or directory
/usr/lib64/libcuda.dylib: cannot open shared object file: No such file or directory
If you are not interested in CUDA-aware support, then run with
--mca opal_warn_on_missing_libcuda 0 to suppress this message.  If you are interested
in CUDA-aware support, then try setting LD_LIBRARY_PATH to the location
of libcuda.so.1 to get passed this issue.
--------------------------------------------------------------------------
--------------------------------------------------------------------------
No OpenFabrics connection schemes reported that they were able to be
used on a specific port.  As such, the openib BTL (OpenFabrics
support) will be disabled for this port.

  Local host:           d-18-13-1
  Local device:         mlx5_1
  Local port:           1
  CPCs attempted:       rdmacm, udcm
--------------------------------------------------------------------------

*************** JDFTx 1.6.0 (git hash 42ebbcc2) ***************

Start date and time: Sun Feb  6 12:37:51 2022
Executable jdftx with command-line: -i Alkali.in
Running on hosts (process indices):  d-18-13-1 (0-18)
Divided in process groups (process indices):  0 (0)  1 (1)  2 (2)  3 (3)  4 (4)  5 (5)  6 (6)  7 (7)  8 (8)  9 (9)  10 (10)  11 (11)  12 (12)  13 (13)  14 (14)  15 (15)  16 (16)  17 (17)  18 (18)
Resource initialization completed at t[s]:      0.00
Run totals: 19 processes, 48 threads, 0 GPUs


Input parsed successfully to the following command list (including defaults):

basis kpoint-dependent
coords-type Lattice
core-overlap-check vector
coulomb-interaction Slab 001
davidson-band-ratio 1.1
dump End None
dump-name $INPUT.$VAR
elec-cutoff 20
elec-eigen-algo Davidson
elec-ex-corr gga-PBE
elec-initial-magnetization -0.560000 yes
elec-smearing Fermi 1e-05
electronic-minimize  \
	dirUpdateScheme      FletcherReeves \
	linminMethod         DirUpdateRecommended \
	nIterations          100 \
	history              15 \
	knormThreshold       0 \
	energyDiffThreshold  1e-08 \
	nEnergyDiff          2 \
	alphaTstart          1 \
	alphaTmin            1e-10 \
	updateTestStepSize   yes \
	alphaTreduceFactor   0.1 \
	alphaTincreaseFactor 3 \
	nAlphaAdjustMax      3 \
	wolfeEnergy          0.0001 \
	wolfeGradient        0.9 \
	fdTest               no
electronic-scf  \
	nIterations	10000 \
	energyDiffThreshold	1e-08 \
	residualThreshold	1e-07 \
	mixFraction	0.5 \
	qMetric	0.8 \
	history	10 \
	nEigSteps	2 \
	eigDiffThreshold	1e-08 \
	mixedVariable	Density \
	qKerker	0.8 \
	qKappa	-1 \
	verbose	no \
	mixFractionMag	1.5
exchange-regularization WignerSeitzTruncated
fluid None
fluid-ex-corr (null) lda-PZ
fluid-gummel-loop 10 1.000000e-05
fluid-minimize  \
	dirUpdateScheme      PolakRibiere \
	linminMethod         DirUpdateRecommended \
	nIterations          100 \
	history              15 \
	knormThreshold       0 \
	energyDiffThreshold  0 \
	nEnergyDiff          2 \
	alphaTstart          1 \
	alphaTmin            1e-10 \
	updateTestStepSize   yes \
	alphaTreduceFactor   0.1 \
	alphaTincreaseFactor 3 \
	nAlphaAdjustMax      3 \
	wolfeEnergy          0.0001 \
	wolfeGradient        0.9 \
	fdTest               no
fluid-solvent H2O 55.338 ScalarEOS \
	epsBulk 78.4 \
	pMol 0.92466 \
	epsInf 1.77 \
	Pvap 1.06736e-10 \
	sigmaBulk 4.62e-05 \
	Rvdw 2.61727 \
	Res 1.42 \
	tauNuc 343133 \
	poleEl 15 7 1
forces-output-coords Positions
ion Rb   0.000000000000000   0.000000000000000   0.000000000000000 0
ion-species SG15/$ID_ONCV_PBE.upf
ion-width 0
ionic-minimize  \
	dirUpdateScheme      L-BFGS \
	linminMethod         DirUpdateRecommended \
	nIterations          0 \
	history              15 \
	knormThreshold       0.0001 \
	energyDiffThreshold  1e-06 \
	nEnergyDiff          2 \
	alphaTstart          1 \
	alphaTmin            1e-10 \
	updateTestStepSize   yes \
	alphaTreduceFactor   0.1 \
	alphaTincreaseFactor 3 \
	nAlphaAdjustMax      3 \
	wolfeEnergy          0.0001 \
	wolfeGradient        0.9 \
	fdTest               no
kpoint   0.000000000000   0.000000000000   0.000000000000  1.00000000000000
kpoint-folding 12 12 1 
latt-move-scale 1 1 1
latt-scale 4 4 1 
lattice  \
	   4.727486978767153   -2.363743489383575    0.000000000000000  \
	  -0.000000000000000    4.094123819672498    0.000000000000000  \
	   0.000000000000000    0.000000000000000   40.000000000000000 
lattice-minimize  \
	dirUpdateScheme      L-BFGS \
	linminMethod         DirUpdateRecommended \
	nIterations          0 \
	history              15 \
	knormThreshold       0 \
	energyDiffThreshold  1e-06 \
	nEnergyDiff          2 \
	alphaTstart          1 \
	alphaTmin            1e-10 \
	updateTestStepSize   yes \
	alphaTreduceFactor   0.1 \
	alphaTincreaseFactor 3 \
	nAlphaAdjustMax      3 \
	wolfeEnergy          0.0001 \
	wolfeGradient        0.9 \
	fdTest               no
lcao-params -1 1e-06 1e-05
pcm-variant GLSSA13
spintype z-spin
subspace-rotation-factor 1 yes
symmetries automatic
symmetry-threshold 0.0001



---------- Setting up symmetries ----------

Found 24 point-group symmetries of the bravais lattice
Found 24 space-group symmetries with basis
Applied RMS atom displacement 0 bohrs to make symmetries exact.

---------- Initializing the Grid ----------
R = 
[      18.9099     -9.45497            0  ]
[            0      16.3765            0  ]
[            0            0           40  ]
unit cell volume = 12387.1
G =
[   0.332269   0.191835         -0  ]
[          0   0.383671         -0  ]
[         -0         -0    0.15708  ]
Minimum fftbox size, Smin = [  80  80  164  ]
Chosen fftbox size, S = [  80  80  168  ]

---------- Exchange Correlation functional ----------
Initalized PBE GGA exchange.
Initalized PBE GGA correlation.

---------- Setting up pseudopotentials ----------
Width of ionic core gaussian charges (only for fluid interactions / plotting) set to 0

Reading pseudopotential file '/home/gridsan/aligho/DFT/build-Nov24/pseudopotentials/SG15/Rb_ONCV_PBE.upf':
  'Rb' pseudopotential, 'PBE' functional
  Generated using ONCVPSP code by D. R. Hamann
  Author: Martin Schlipf and Francois Gygi  Date: 150915.
  9 valence electrons, 3 orbitals, 6 projectors, 2308 radial grid points, with lMax = 2
  Transforming local potential to a uniform radial grid of dG=0.02 with 1489 points.
  Transforming nonlocal projectors to a uniform radial grid of dG=0.02 with 432 points.
    4S    l: 0   occupation:  2.0   eigenvalue: -1.172069
    4P    l: 1   occupation:  6.0   eigenvalue: -0.586674
    5S    l: 0   occupation:  1.0   eigenvalue: -0.082006
  Transforming atomic orbitals to a uniform radial grid of dG=0.02 with 432 points.
  Core radius for overlap checks: 2.60 bohrs.
  Reading pulay file /home/gridsan/aligho/DFT/build-Nov24/pseudopotentials/SG15/Rb_ONCV_PBE.pulay ... using dE_dnG = -1.360715e-05 computed for Ecut = 20.

Initialized 1 species with 1 total atoms.

Folded 1 k-points by 12x12x1 to 144 k-points.

---------- Setting up k-points, bands, fillings ----------
Reduced to 19 k-points under symmetry. 
Computing the number of bands and number of electrons
Calculating initial fillings.
nElectrons:   9.000000   nBands: 6   nStates: 38

----- Setting up reduced wavefunction bases (one per k-point) -----
average nbasis = 52924.021 , ideal nbasis = 52918.836

---------- Setting up coulomb interaction ----------
Initialized slab truncation along lattice direction 001

---------- Setting up 2D ewald sum ----------
Optimum gaussian width for ewald sums = 10.498040 bohr.
Real space sums over 289 unit cells with max indices [  8  8  0  ]
Reciprocal space sums over 81 terms with max indices [  4  4  0  ]

---------- Allocating electronic variables ----------
Initializing wave functions:  linear combination of atomic orbitals
Note: number of bands (6) exceeds available atomic orbitals (5)
Rb pseudo-atom occupations:   s ( 2 1 )  p ( 6 )
[d-18-13-1:31309] 18 more processes have sent help message help-mpi-common-cuda.txt / dlopen failed
[d-18-13-1:31309] Set MCA parameter "orte_base_help_aggregate" to 0 to see all help / error messages
[d-18-13-1:31309] 18 more processes have sent help message help-mpi-btl-openib-cpc-base.txt / no cpcs for port
	FillingsUpdate:  mu: -0.082758076  nElectrons: 9.000000  magneticMoment: [ Abs: 0.56000  Tot: -0.56000 ]
LCAOMinimize: Iter:   0  F: -24.4315843018331407  |grad|_K:  3.795e-06  alpha:  1.000e+00
	FillingsUpdate:  mu: -0.082757226  nElectrons: 9.000000  magneticMoment: [ Abs: 0.56000  Tot: -0.56000 ]
LCAOMinimize: Iter:   1  F: -24.4315843115763265  |grad|_K:  2.007e-08  alpha:  9.888e-01  linmin: -7.277e-04  cgtest:  1.743e-01  t[s]:     14.99
LCAOMinimize: Encountered beta<0, resetting CG.
LCAOMinimize: 	Step increased F by 3.197442e-14, reducing alpha to 2.298327e-01.
LCAOMinimize: 	Step increased F by 1.776357e-14, reducing alpha to 2.298327e-02.
	FillingsUpdate:  mu: -0.082757226  nElectrons: 9.000000  magneticMoment: [ Abs: 0.56000  Tot: -0.56000 ]
LCAOMinimize: Iter:   2  F: -24.4315843115764864  |grad|_K:  1.961e-08  alpha:  2.298e-02  linmin: -3.927e-03  cgtest:  1.000e+00  t[s]:     23.65
LCAOMinimize: Encountered beta<0, resetting CG.
LCAOMinimize: Converged (|Delta F|<1.000000e-06 for 2 iters).


---- Citations for features of the code used in this run ----

   Software package:
      R. Sundararaman, K. Letchworth-Weaver, K.A. Schwarz, D. Gunceler, Y. Ozhabes and T.A. Arias, 'JDFTx: software for joint density-functional theory', SoftwareX 6, 278 (2017)

   gga-PBE exchange-correlation functional:
      J.P. Perdew, K. Burke and M. Ernzerhof, Phys. Rev. Lett. 77, 3865 (1996)

   Pseudopotentials:
      M Schlipf and F Gygi, Comput. Phys. Commun. 196, 36 (2015)

   Truncated Coulomb potentials:
      R. Sundararaman and T.A. Arias, Phys. Rev. B 87, 165122 (2013)

This list may not be complete. Please suggest additional citations or
report any other bugs at https://github.com/shankar1729/jdftx/issues

Initialization completed successfully at t[s]:     23.91


-------- Electronic minimization -----------
Will mix electronic density at each iteration.
	FillingsUpdate:  mu: -0.082757226  nElectrons: 9.000000  magneticMoment: [ Abs: 0.56000  Tot: -0.56000 ]
	FillingsUpdate:  mu: -0.082855855  nElectrons: 9.000000  magneticMoment: [ Abs: 0.56000  Tot: -0.56000 ]
SCF: Cycle:  0   F: -24.431686014898400   dF: -1.017e-04   |Residual|: 1.305e-03   |deigs|: 1.734e-01  t[s]:     32.05
	FillingsUpdate:  mu: -0.082865808  nElectrons: 9.000000  magneticMoment: [ Abs: 0.56273  Tot: -0.56000 ]
SCF: Cycle:  1   F: -24.431687838776817   dF: -1.824e-06   |Residual|: 3.771e-04   |deigs|: 6.136e-03  t[s]:     38.42
	FillingsUpdate:  mu: -0.082870890  nElectrons: 9.000000  magneticMoment: [ Abs: 0.56286  Tot: -0.56000 ]
SCF: Cycle:  2   F: -24.431688313063507   dF: -4.743e-07   |Residual|: 2.395e-04   |deigs|: 1.677e-03  t[s]:     44.86
	FillingsUpdate:  mu: -0.082879358  nElectrons: 9.000000  magneticMoment: [ Abs: 0.56337  Tot: -0.56000 ]
SCF: Cycle:  3   F: -24.431688585390933   dF: -2.723e-07   |Residual|: 1.821e-04   |deigs|: 8.563e-04  t[s]:     51.40
	FillingsUpdate:  mu: -0.082878153  nElectrons: 9.000000  magneticMoment: [ Abs: 0.56330  Tot: -0.56000 ]
SCF: Cycle:  4   F: -24.431688879901024   dF: -2.945e-07   |Residual|: 1.369e-04   |deigs|: 2.041e-04  t[s]:     58.17
	FillingsUpdate:  mu: -0.082882149  nElectrons: 9.000000  magneticMoment: [ Abs: 0.56335  Tot: -0.56000 ]
SCF: Cycle:  5   F: -24.431689093506552   dF: -2.136e-07   |Residual|: 9.653e-05   |deigs|: 5.024e-04  t[s]:     65.00
	FillingsUpdate:  mu: -0.082873216  nElectrons: 9.000000  magneticMoment: [ Abs: 0.56332  Tot: -0.56000 ]
SCF: Cycle:  6   F: -24.431689245508835   dF: -1.520e-07   |Residual|: 6.576e-05   |deigs|: 5.108e-04  t[s]:     71.90
	FillingsUpdate:  mu: -0.082864054  nElectrons: 9.000000  magneticMoment: [ Abs: 0.56332  Tot: -0.56000 ]
SCF: Cycle:  7   F: -24.431689325556768   dF: -8.005e-08   |Residual|: 5.018e-05   |deigs|: 5.249e-04  t[s]:     78.93
	FillingsUpdate:  mu: -0.082850629  nElectrons: 9.000000  magneticMoment: [ Abs: 0.56331  Tot: -0.56000 ]
SCF: Cycle:  8   F: -24.431689369517319   dF: -4.396e-08   |Residual|: 4.088e-05   |deigs|: 3.256e-04  t[s]:     86.10
	FillingsUpdate:  mu: -0.082822762  nElectrons: 9.000000  magneticMoment: [ Abs: 0.56330  Tot: -0.56000 ]
SCF: Cycle:  9   F: -24.431689405720441   dF: -3.620e-08   |Residual|: 3.129e-05   |deigs|: 3.604e-04  t[s]:     93.32
	FillingsUpdate:  mu: -0.082799760  nElectrons: 9.000000  magneticMoment: [ Abs: 0.56333  Tot: -0.56000 ]
SCF: Cycle: 10   F: -24.431689396517278   dF: +9.203e-09   |Residual|: 2.844e-05   |deigs|: 1.129e-04  t[s]:    100.68
	FillingsUpdate:  mu: -0.082771449  nElectrons: 9.000000  magneticMoment: [ Abs: 0.56345  Tot: -0.56000 ]
SCF: Cycle: 11   F: -24.431689340234993   dF: +5.628e-08   |Residual|: 2.793e-05   |deigs|: 1.144e-04  t[s]:    108.12
	FillingsUpdate:  mu: -0.082743297  nElectrons: 9.000000  magneticMoment: [ Abs: 0.56352  Tot: -0.56000 ]
SCF: Cycle: 12   F: -24.431689187812168   dF: +1.524e-07   |Residual|: 2.496e-05   |deigs|: 9.935e-05  t[s]:    115.46
	FillingsUpdate:  mu: -0.082714265  nElectrons: 9.000000  magneticMoment: [ Abs: 0.56351  Tot: -0.56000 ]
SCF: Cycle: 13   F: -24.431689285344554   dF: -9.753e-08   |Residual|: 2.297e-05   |deigs|: 6.111e-05  t[s]:    122.77
	FillingsUpdate:  mu: -0.082687149  nElectrons: 9.000000  magneticMoment: [ Abs: 0.56354  Tot: -0.56000 ]
SCF: Cycle: 14   F: -24.431689409237997   dF: -1.239e-07   |Residual|: 1.804e-05   |deigs|: 3.935e-05  t[s]:    129.80
	FillingsUpdate:  mu: -0.082643505  nElectrons: 9.000000  magneticMoment: [ Abs: 0.56355  Tot: -0.56000 ]
SCF: Cycle: 15   F: -24.431689244614187   dF: +1.646e-07   |Residual|: 1.910e-05   |deigs|: 5.112e-05  t[s]:    136.99
	FillingsUpdate:  mu: -0.082614968  nElectrons: 9.000000  magneticMoment: [ Abs: 0.56344  Tot: -0.56000 ]
SCF: Cycle: 16   F: -24.431689379300433   dF: -1.347e-07   |Residual|: 1.559e-05   |deigs|: 3.421e-05  t[s]:    144.02
	FillingsUpdate:  mu: -0.082616443  nElectrons: 9.000000  magneticMoment: [ Abs: 0.56338  Tot: -0.56000 ]
SCF: Cycle: 17   F: -24.431689392358027   dF: -1.306e-08   |Residual|: 1.258e-05   |deigs|: 1.727e-05  t[s]:    150.97
	FillingsUpdate:  mu: -0.082610889  nElectrons: 9.000000  magneticMoment: [ Abs: 0.56334  Tot: -0.56000 ]
SCF: Cycle: 18   F: -24.431689430266946   dF: -3.791e-08   |Residual|: 8.992e-06   |deigs|: 1.124e-05  t[s]:    158.32
	FillingsUpdate:  mu: -0.082601545  nElectrons: 9.000000  magneticMoment: [ Abs: 0.56330  Tot: -0.56000 ]
SCF: Cycle: 19   F: -24.431689437789537   dF: -7.523e-09   |Residual|: 6.944e-06   |deigs|: 9.279e-06  t[s]:    165.49
	FillingsUpdate:  mu: -0.082600770  nElectrons: 9.000000  magneticMoment: [ Abs: 0.56331  Tot: -0.56000 ]
SCF: Cycle: 20   F: -24.431689464249686   dF: -2.646e-08   |Residual|: 5.365e-06   |deigs|: 3.345e-06  t[s]:    172.85
	FillingsUpdate:  mu: -0.082603827  nElectrons: 9.000000  magneticMoment: [ Abs: 0.56331  Tot: -0.56000 ]
SCF: Cycle: 21   F: -24.431689466321298   dF: -2.072e-09   |Residual|: 3.531e-06   |deigs|: 7.887e-06  t[s]:    179.77
	FillingsUpdate:  mu: -0.082605732  nElectrons: 9.000000  magneticMoment: [ Abs: 0.56331  Tot: -0.56000 ]
SCF: Cycle: 22   F: -24.431689475445406   dF: -9.124e-09   |Residual|: 2.377e-06   |deigs|: 7.837e-06  t[s]:    186.99
SCF: Converged (|Delta E|<1.000000e-08 for 2 iters).


# Ionic positions in lattice coordinates:
ion Rb   0.000000000000000   0.000000000000000   0.000000000000000 0

# Forces in Lattice coordinates:
force Rb  -0.000000000000000   0.000000000000000   0.000000000000000 0

# Energy components:
   Eewald =       -9.0240130501663280
       EH =       10.5312722430945271
     Eloc =      -28.4561000687095067
      Enl =       -0.7927517565672834
   Epulay =        0.0000000056959385
      Exc =       -3.6502611428233864
       KE =        6.9601656166148782
-------------------------------------
     Etot =      -24.4316881528611631
       TS =        0.0000013225842433
-------------------------------------
        F =      -24.4316894754454061

IonicMinimize: Iter:   0  F: -24.431689475445406  |grad|_K:  0.000e+00  t[s]:    187.40
IonicMinimize: Converged (|grad|_K<1.000000e-04).

#--- Lowdin population analysis ---
# oxidation-state Rb +0.001
# magnetic-moments Rb -0.559

End date and time: Sun Feb  6 12:40:59 2022  (Duration: 0-0:03:07.46)
Done!
