The alkali metal is Rb
scale=2
magnetization=-0.38
--------------------------------------------------------------------------
The library attempted to open the following supporting CUDA libraries,
but each of them failed.  CUDA-aware support is disabled.
libcuda.so.1: cannot open shared object file: No such file or directory
libcuda.dylib: cannot open shared object file: No such file or directory
/usr/lib64/libcuda.so.1: cannot open shared object file: No such file or directory
/usr/lib64/libcuda.dylib: cannot open shared object file: No such file or directory
If you are not interested in CUDA-aware support, then run with
--mca opal_warn_on_missing_libcuda 0 to suppress this message.  If you are interested
in CUDA-aware support, then try setting LD_LIBRARY_PATH to the location
of libcuda.so.1 to get passed this issue.
--------------------------------------------------------------------------
--------------------------------------------------------------------------
No OpenFabrics connection schemes reported that they were able to be
used on a specific port.  As such, the openib BTL (OpenFabrics
support) will be disabled for this port.

  Local host:           d-6-7-4
  Local device:         mlx5_1
  Local port:           1
  CPCs attempted:       rdmacm, udcm
--------------------------------------------------------------------------

*************** JDFTx 1.6.0 (git hash 42ebbcc2) ***************

Start date and time: Sun Feb  6 12:41:28 2022
Executable jdftx with command-line: -i Alkali.in
Running on hosts (process indices):  d-6-7-4 (0-18)
Divided in process groups (process indices):  0 (0)  1 (1)  2 (2)  3 (3)  4 (4)  5 (5)  6 (6)  7 (7)  8 (8)  9 (9)  10 (10)  11 (11)  12 (12)  13 (13)  14 (14)  15 (15)  16 (16)  17 (17)  18 (18)
Resource initialization completed at t[s]:      0.00
Run totals: 19 processes, 48 threads, 0 GPUs


Input parsed successfully to the following command list (including defaults):

basis kpoint-dependent
coords-type Lattice
core-overlap-check vector
coulomb-interaction Slab 001
davidson-band-ratio 1.1
dump End None
dump-name $INPUT.$VAR
elec-cutoff 20
elec-eigen-algo Davidson
elec-ex-corr gga-PBE
elec-initial-magnetization -0.380000 yes
elec-smearing Fermi 1e-05
electronic-minimize  \
	dirUpdateScheme      FletcherReeves \
	linminMethod         DirUpdateRecommended \
	nIterations          100 \
	history              15 \
	knormThreshold       0 \
	energyDiffThreshold  1e-08 \
	nEnergyDiff          2 \
	alphaTstart          1 \
	alphaTmin            1e-10 \
	updateTestStepSize   yes \
	alphaTreduceFactor   0.1 \
	alphaTincreaseFactor 3 \
	nAlphaAdjustMax      3 \
	wolfeEnergy          0.0001 \
	wolfeGradient        0.9 \
	fdTest               no
electronic-scf  \
	nIterations	10000 \
	energyDiffThreshold	1e-08 \
	residualThreshold	1e-07 \
	mixFraction	0.5 \
	qMetric	0.8 \
	history	10 \
	nEigSteps	2 \
	eigDiffThreshold	1e-08 \
	mixedVariable	Density \
	qKerker	0.8 \
	qKappa	-1 \
	verbose	no \
	mixFractionMag	1.5
exchange-regularization WignerSeitzTruncated
fluid None
fluid-ex-corr (null) lda-PZ
fluid-gummel-loop 10 1.000000e-05
fluid-minimize  \
	dirUpdateScheme      PolakRibiere \
	linminMethod         DirUpdateRecommended \
	nIterations          100 \
	history              15 \
	knormThreshold       0 \
	energyDiffThreshold  0 \
	nEnergyDiff          2 \
	alphaTstart          1 \
	alphaTmin            1e-10 \
	updateTestStepSize   yes \
	alphaTreduceFactor   0.1 \
	alphaTincreaseFactor 3 \
	nAlphaAdjustMax      3 \
	wolfeEnergy          0.0001 \
	wolfeGradient        0.9 \
	fdTest               no
fluid-solvent H2O 55.338 ScalarEOS \
	epsBulk 78.4 \
	pMol 0.92466 \
	epsInf 1.77 \
	Pvap 1.06736e-10 \
	sigmaBulk 4.62e-05 \
	Rvdw 2.61727 \
	Res 1.42 \
	tauNuc 343133 \
	poleEl 15 7 1
forces-output-coords Positions
ion Rb   0.000000000000000   0.000000000000000   0.000000000000000 0
ion-species SG15/$ID_ONCV_PBE.upf
ion-width 0
ionic-minimize  \
	dirUpdateScheme      L-BFGS \
	linminMethod         DirUpdateRecommended \
	nIterations          0 \
	history              15 \
	knormThreshold       0.0001 \
	energyDiffThreshold  1e-06 \
	nEnergyDiff          2 \
	alphaTstart          1 \
	alphaTmin            1e-10 \
	updateTestStepSize   yes \
	alphaTreduceFactor   0.1 \
	alphaTincreaseFactor 3 \
	nAlphaAdjustMax      3 \
	wolfeEnergy          0.0001 \
	wolfeGradient        0.9 \
	fdTest               no
kpoint   0.000000000000   0.000000000000   0.000000000000  1.00000000000000
kpoint-folding 12 12 1 
latt-move-scale 1 1 1
latt-scale 2 2 1 
lattice  \
	   4.727486978767153   -2.363743489383575    0.000000000000000  \
	  -0.000000000000000    4.094123819672498    0.000000000000000  \
	   0.000000000000000    0.000000000000000   40.000000000000000 
lattice-minimize  \
	dirUpdateScheme      L-BFGS \
	linminMethod         DirUpdateRecommended \
	nIterations          0 \
	history              15 \
	knormThreshold       0 \
	energyDiffThreshold  1e-06 \
	nEnergyDiff          2 \
	alphaTstart          1 \
	alphaTmin            1e-10 \
	updateTestStepSize   yes \
	alphaTreduceFactor   0.1 \
	alphaTincreaseFactor 3 \
	nAlphaAdjustMax      3 \
	wolfeEnergy          0.0001 \
	wolfeGradient        0.9 \
	fdTest               no
lcao-params -1 1e-06 1e-05
pcm-variant GLSSA13
spintype z-spin
subspace-rotation-factor 1 yes
symmetries automatic
symmetry-threshold 0.0001



---------- Setting up symmetries ----------

Found 24 point-group symmetries of the bravais lattice
Found 24 space-group symmetries with basis
Applied RMS atom displacement 0 bohrs to make symmetries exact.

---------- Initializing the Grid ----------
R = 
[      9.45497     -4.72749            0  ]
[            0      8.18825            0  ]
[            0            0           40  ]
unit cell volume = 3096.79
G =
[   0.664538   0.383671         -0  ]
[          0   0.767342         -0  ]
[         -0         -0    0.15708  ]
Minimum fftbox size, Smin = [  40  40  164  ]
Chosen fftbox size, S = [  40  40  168  ]

---------- Exchange Correlation functional ----------
Initalized PBE GGA exchange.
Initalized PBE GGA correlation.

---------- Setting up pseudopotentials ----------
Width of ionic core gaussian charges (only for fluid interactions / plotting) set to 0

Reading pseudopotential file '/home/gridsan/aligho/DFT/build-Nov24/pseudopotentials/SG15/Rb_ONCV_PBE.upf':
  'Rb' pseudopotential, 'PBE' functional
  Generated using ONCVPSP code by D. R. Hamann
  Author: Martin Schlipf and Francois Gygi  Date: 150915.
  9 valence electrons, 3 orbitals, 6 projectors, 2308 radial grid points, with lMax = 2
  Transforming local potential to a uniform radial grid of dG=0.02 with 1489 points.
  Transforming nonlocal projectors to a uniform radial grid of dG=0.02 with 432 points.
    4S    l: 0   occupation:  2.0   eigenvalue: -1.172069
    4P    l: 1   occupation:  6.0   eigenvalue: -0.586674
    5S    l: 0   occupation:  1.0   eigenvalue: -0.082006
  Transforming atomic orbitals to a uniform radial grid of dG=0.02 with 432 points.
  Core radius for overlap checks: 2.60 bohrs.
  Reading pulay file /home/gridsan/aligho/DFT/build-Nov24/pseudopotentials/SG15/Rb_ONCV_PBE.pulay ... using dE_dnG = -1.360715e-05 computed for Ecut = 20.

Initialized 1 species with 1 total atoms.

Folded 1 k-points by 12x12x1 to 144 k-points.

---------- Setting up k-points, bands, fillings ----------
Reduced to 19 k-points under symmetry. 
Computing the number of bands and number of electrons
Calculating initial fillings.
nElectrons:   9.000000   nBands: 6   nStates: 38

----- Setting up reduced wavefunction bases (one per k-point) -----
average nbasis = 13230.521 , ideal nbasis = 13229.709

---------- Setting up coulomb interaction ----------
Initialized slab truncation along lattice direction 001

---------- Setting up 2D ewald sum ----------
Optimum gaussian width for ewald sums = 5.249020 bohr.
Real space sums over 289 unit cells with max indices [  8  8  0  ]
Reciprocal space sums over 81 terms with max indices [  4  4  0  ]

---------- Allocating electronic variables ----------
Initializing wave functions:  linear combination of atomic orbitals
Note: number of bands (6) exceeds available atomic orbitals (5)
Rb pseudo-atom occupations:   s ( 2 1 )  p ( 6 )
	FillingsUpdate:  mu: -0.091191100  nElectrons: 9.000000  magneticMoment: [ Abs: 0.38000  Tot: -0.38000 ]
LCAOMinimize: Iter:   0  F: -24.4468729210401605  |grad|_K:  3.635e-05  alpha:  1.000e+00
	FillingsUpdate:  mu: -0.091177702  nElectrons: 9.000000  magneticMoment: [ Abs: 0.38000  Tot: -0.38000 ]
LCAOMinimize: Iter:   1  F: -24.4468738033036743  |grad|_K:  3.598e-07  alpha:  9.764e-01  linmin: -3.785e-02  cgtest:  4.352e-01  t[s]:      4.44
LCAOMinimize: Encountered beta<0, resetting CG.
[d-6-7-4:39626] 18 more processes have sent help message help-mpi-common-cuda.txt / dlopen failed
[d-6-7-4:39626] Set MCA parameter "orte_base_help_aggregate" to 0 to see all help / error messages
[d-6-7-4:39626] 18 more processes have sent help message help-mpi-btl-openib-cpc-base.txt / no cpcs for port
	FillingsUpdate:  mu: -0.091177747  nElectrons: 9.000000  magneticMoment: [ Abs: 0.38000  Tot: -0.38000 ]
LCAOMinimize: Iter:   2  F: -24.4468738033921795  |grad|_K:  2.992e-09  alpha:  9.930e-01  linmin: -1.151e-01  cgtest:  9.879e-01  t[s]:      5.60
LCAOMinimize: Encountered beta<0, resetting CG.
LCAOMinimize: Converged (|Delta F|<1.000000e-06 for 2 iters).


---- Citations for features of the code used in this run ----

   Software package:
      R. Sundararaman, K. Letchworth-Weaver, K.A. Schwarz, D. Gunceler, Y. Ozhabes and T.A. Arias, 'JDFTx: software for joint density-functional theory', SoftwareX 6, 278 (2017)

   gga-PBE exchange-correlation functional:
      J.P. Perdew, K. Burke and M. Ernzerhof, Phys. Rev. Lett. 77, 3865 (1996)

   Pseudopotentials:
      M Schlipf and F Gygi, Comput. Phys. Commun. 196, 36 (2015)

   Truncated Coulomb potentials:
      R. Sundararaman and T.A. Arias, Phys. Rev. B 87, 165122 (2013)

This list may not be complete. Please suggest additional citations or
report any other bugs at https://github.com/shankar1729/jdftx/issues

Initialization completed successfully at t[s]:      5.69


-------- Electronic minimization -----------
Will mix electronic density at each iteration.
	FillingsUpdate:  mu: -0.091177747  nElectrons: 9.000000  magneticMoment: [ Abs: 0.38000  Tot: -0.38000 ]
	FillingsUpdate:  mu: -0.102156777  nElectrons: 9.000000  magneticMoment: [ Abs: 0.38000  Tot: -0.38000 ]
SCF: Cycle:  0   F: -24.452519358497870   dF: -5.646e-03   |Residual|: 1.032e-02   |deigs|: 1.792e-01  t[s]:      8.03
	FillingsUpdate:  mu: -0.101879672  nElectrons: 9.000000  magneticMoment: [ Abs: 0.38000  Tot: -0.38000 ]
SCF: Cycle:  1   F: -24.452744649304755   dF: -2.253e-04   |Residual|: 7.608e-03   |deigs|: 7.046e-03  t[s]:      9.87
	FillingsUpdate:  mu: -0.100408215  nElectrons: 9.000000  magneticMoment: [ Abs: 0.38291  Tot: -0.38000 ]
SCF: Cycle:  2   F: -24.452842714606788   dF: -9.807e-05   |Residual|: 4.161e-03   |deigs|: 2.049e-03  t[s]:     11.73
	FillingsUpdate:  mu: -0.099345413  nElectrons: 9.000000  magneticMoment: [ Abs: 0.38010  Tot: -0.38000 ]
SCF: Cycle:  3   F: -24.452901344634736   dF: -5.863e-05   |Residual|: 2.652e-03   |deigs|: 1.781e-03  t[s]:     13.58
	FillingsUpdate:  mu: -0.097632843  nElectrons: 9.000000  magneticMoment: [ Abs: 0.38005  Tot: -0.38000 ]
SCF: Cycle:  4   F: -24.452934979074183   dF: -3.363e-05   |Residual|: 2.054e-03   |deigs|: 3.183e-03  t[s]:     15.46
	FillingsUpdate:  mu: -0.096418857  nElectrons: 9.000000  magneticMoment: [ Abs: 0.38087  Tot: -0.38000 ]
SCF: Cycle:  5   F: -24.452952120792244   dF: -1.714e-05   |Residual|: 1.512e-03   |deigs|: 3.470e-03  t[s]:     17.37
	FillingsUpdate:  mu: -0.093906024  nElectrons: 9.000000  magneticMoment: [ Abs: 0.38636  Tot: -0.38000 ]
SCF: Cycle:  6   F: -24.452951302823152   dF: +8.180e-07   |Residual|: 1.084e-03   |deigs|: 3.411e-03  t[s]:     19.27
	FillingsUpdate:  mu: -0.092174672  nElectrons: 9.000000  magneticMoment: [ Abs: 0.38576  Tot: -0.38000 ]
SCF: Cycle:  7   F: -24.452967455853202   dF: -1.615e-05   |Residual|: 1.038e-03   |deigs|: 2.014e-03  t[s]:     21.20
	FillingsUpdate:  mu: -0.092242191  nElectrons: 9.000000  magneticMoment: [ Abs: 0.38142  Tot: -0.38000 ]
SCF: Cycle:  8   F: -24.452975986376401   dF: -8.531e-06   |Residual|: 8.507e-04   |deigs|: 5.526e-04  t[s]:     23.20
	FillingsUpdate:  mu: -0.090896321  nElectrons: 9.000000  magneticMoment: [ Abs: 0.38265  Tot: -0.38000 ]
SCF: Cycle:  9   F: -24.452979520249322   dF: -3.534e-06   |Residual|: 7.188e-04   |deigs|: 1.352e-03  t[s]:     25.17
	FillingsUpdate:  mu: -0.089605732  nElectrons: 9.000000  magneticMoment: [ Abs: 0.38383  Tot: -0.38000 ]
SCF: Cycle: 10   F: -24.452977680760071   dF: +1.839e-06   |Residual|: 5.947e-04   |deigs|: 1.360e-03  t[s]:     27.19
	FillingsUpdate:  mu: -0.088485066  nElectrons: 9.000000  magneticMoment: [ Abs: 0.38312  Tot: -0.38000 ]
SCF: Cycle: 11   F: -24.452981466179388   dF: -3.785e-06   |Residual|: 5.245e-04   |deigs|: 1.192e-03  t[s]:     29.29
	FillingsUpdate:  mu: -0.087031693  nElectrons: 9.000000  magneticMoment: [ Abs: 0.38288  Tot: -0.38000 ]
SCF: Cycle: 12   F: -24.452993473872574   dF: -1.201e-05   |Residual|: 4.646e-04   |deigs|: 1.448e-03  t[s]:     31.27
	FillingsUpdate:  mu: -0.085758984  nElectrons: 9.000000  magneticMoment: [ Abs: 0.38288  Tot: -0.38000 ]
SCF: Cycle: 13   F: -24.452999151333749   dF: -5.677e-06   |Residual|: 4.379e-04   |deigs|: 1.278e-03  t[s]:     33.21
	FillingsUpdate:  mu: -0.084442865  nElectrons: 9.000000  magneticMoment: [ Abs: 0.38103  Tot: -0.38000 ]
SCF: Cycle: 14   F: -24.453003255111099   dF: -4.104e-06   |Residual|: 3.804e-04   |deigs|: 1.344e-03  t[s]:     35.13
	FillingsUpdate:  mu: -0.083474786  nElectrons: 9.000000  magneticMoment: [ Abs: 0.38055  Tot: -0.38000 ]
SCF: Cycle: 15   F: -24.453006314888363   dF: -3.060e-06   |Residual|: 2.721e-04   |deigs|: 1.034e-03  t[s]:     37.05
	FillingsUpdate:  mu: -0.083126755  nElectrons: 9.000000  magneticMoment: [ Abs: 0.38076  Tot: -0.38000 ]
SCF: Cycle: 16   F: -24.453007599857553   dF: -1.285e-06   |Residual|: 1.891e-04   |deigs|: 5.493e-04  t[s]:     39.00
	FillingsUpdate:  mu: -0.083143037  nElectrons: 9.000000  magneticMoment: [ Abs: 0.38003  Tot: -0.38000 ]
SCF: Cycle: 17   F: -24.453008153430240   dF: -5.536e-07   |Residual|: 1.108e-04   |deigs|: 5.666e-04  t[s]:     40.94
	FillingsUpdate:  mu: -0.083085745  nElectrons: 9.000000  magneticMoment: [ Abs: 0.38010  Tot: -0.38000 ]
SCF: Cycle: 18   F: -24.453008403464157   dF: -2.500e-07   |Residual|: 7.318e-05   |deigs|: 3.009e-04  t[s]:     42.91
	FillingsUpdate:  mu: -0.083071028  nElectrons: 9.000000  magneticMoment: [ Abs: 0.38012  Tot: -0.38000 ]
SCF: Cycle: 19   F: -24.453008459484064   dF: -5.602e-08   |Residual|: 4.415e-05   |deigs|: 2.393e-04  t[s]:     44.83
	FillingsUpdate:  mu: -0.083046611  nElectrons: 9.000000  magneticMoment: [ Abs: 0.38016  Tot: -0.38000 ]
SCF: Cycle: 20   F: -24.453008526456841   dF: -6.697e-08   |Residual|: 2.352e-05   |deigs|: 1.786e-04  t[s]:     46.82
	FillingsUpdate:  mu: -0.083041369  nElectrons: 9.000000  magneticMoment: [ Abs: 0.38020  Tot: -0.38000 ]
SCF: Cycle: 21   F: -24.453008538262733   dF: -1.181e-08   |Residual|: 1.368e-05   |deigs|: 1.606e-04  t[s]:     48.74
	FillingsUpdate:  mu: -0.083035364  nElectrons: 9.000000  magneticMoment: [ Abs: 0.38020  Tot: -0.38000 ]
SCF: Cycle: 22   F: -24.453008545636123   dF: -7.373e-09   |Residual|: 8.874e-06   |deigs|: 1.531e-04  t[s]:     50.75
	FillingsUpdate:  mu: -0.083032964  nElectrons: 9.000000  magneticMoment: [ Abs: 0.38019  Tot: -0.38000 ]
SCF: Cycle: 23   F: -24.453008547440810   dF: -1.805e-09   |Residual|: 5.823e-06   |deigs|: 1.160e-04  t[s]:     52.67
SCF: Converged (|Delta E|<1.000000e-08 for 2 iters).


# Ionic positions in lattice coordinates:
ion Rb   0.000000000000000   0.000000000000000   0.000000000000000 0

# Forces in Lattice coordinates:
force Rb  -0.000000000000000   0.000000000000000   0.000000000000000 0

# Energy components:
   Eewald =      -18.0480261003326561
       EH =        1.6520711461857978
     Eloc =      -10.5637214788119209
      Enl =       -0.7964881864076516
   Epulay =        0.0000000035676145
      Exc =       -3.6773156294120870
       KE =        6.9804724432806253
-------------------------------------
     Etot =      -24.4530078019302763
       TS =        0.0000007455105331
-------------------------------------
        F =      -24.4530085474408097

IonicMinimize: Iter:   0  F: -24.453008547440810  |grad|_K:  0.000e+00  t[s]:     52.78
IonicMinimize: Converged (|grad|_K<1.000000e-04).

#--- Lowdin population analysis ---
# oxidation-state Rb +0.052
# magnetic-moments Rb -0.339

End date and time: Sun Feb  6 12:42:21 2022  (Duration: 0-0:00:52.81)
Done!
scale=3
magnetization=-0.38
--------------------------------------------------------------------------
The library attempted to open the following supporting CUDA libraries,
but each of them failed.  CUDA-aware support is disabled.
libcuda.so.1: cannot open shared object file: No such file or directory
libcuda.dylib: cannot open shared object file: No such file or directory
/usr/lib64/libcuda.so.1: cannot open shared object file: No such file or directory
/usr/lib64/libcuda.dylib: cannot open shared object file: No such file or directory
If you are not interested in CUDA-aware support, then run with
--mca opal_warn_on_missing_libcuda 0 to suppress this message.  If you are interested
in CUDA-aware support, then try setting LD_LIBRARY_PATH to the location
of libcuda.so.1 to get passed this issue.
--------------------------------------------------------------------------
--------------------------------------------------------------------------
No OpenFabrics connection schemes reported that they were able to be
used on a specific port.  As such, the openib BTL (OpenFabrics
support) will be disabled for this port.

  Local host:           d-6-7-4
  Local device:         mlx5_1
  Local port:           1
  CPCs attempted:       rdmacm, udcm
--------------------------------------------------------------------------

*************** JDFTx 1.6.0 (git hash 42ebbcc2) ***************

Start date and time: Sun Feb  6 12:42:22 2022
Executable jdftx with command-line: -i Alkali.in
Running on hosts (process indices):  d-6-7-4 (0-18)
Divided in process groups (process indices):  0 (0)  1 (1)  2 (2)  3 (3)  4 (4)  5 (5)  6 (6)  7 (7)  8 (8)  9 (9)  10 (10)  11 (11)  12 (12)  13 (13)  14 (14)  15 (15)  16 (16)  17 (17)  18 (18)
Resource initialization completed at t[s]:      0.00
Run totals: 19 processes, 48 threads, 0 GPUs


Input parsed successfully to the following command list (including defaults):

basis kpoint-dependent
coords-type Lattice
core-overlap-check vector
coulomb-interaction Slab 001
davidson-band-ratio 1.1
dump End None
dump-name $INPUT.$VAR
elec-cutoff 20
elec-eigen-algo Davidson
elec-ex-corr gga-PBE
elec-initial-magnetization -0.380000 yes
elec-smearing Fermi 1e-05
electronic-minimize  \
	dirUpdateScheme      FletcherReeves \
	linminMethod         DirUpdateRecommended \
	nIterations          100 \
	history              15 \
	knormThreshold       0 \
	energyDiffThreshold  1e-08 \
	nEnergyDiff          2 \
	alphaTstart          1 \
	alphaTmin            1e-10 \
	updateTestStepSize   yes \
	alphaTreduceFactor   0.1 \
	alphaTincreaseFactor 3 \
	nAlphaAdjustMax      3 \
	wolfeEnergy          0.0001 \
	wolfeGradient        0.9 \
	fdTest               no
electronic-scf  \
	nIterations	10000 \
	energyDiffThreshold	1e-08 \
	residualThreshold	1e-07 \
	mixFraction	0.5 \
	qMetric	0.8 \
	history	10 \
	nEigSteps	2 \
	eigDiffThreshold	1e-08 \
	mixedVariable	Density \
	qKerker	0.8 \
	qKappa	-1 \
	verbose	no \
	mixFractionMag	1.5
exchange-regularization WignerSeitzTruncated
fluid None
fluid-ex-corr (null) lda-PZ
fluid-gummel-loop 10 1.000000e-05
fluid-minimize  \
	dirUpdateScheme      PolakRibiere \
	linminMethod         DirUpdateRecommended \
	nIterations          100 \
	history              15 \
	knormThreshold       0 \
	energyDiffThreshold  0 \
	nEnergyDiff          2 \
	alphaTstart          1 \
	alphaTmin            1e-10 \
	updateTestStepSize   yes \
	alphaTreduceFactor   0.1 \
	alphaTincreaseFactor 3 \
	nAlphaAdjustMax      3 \
	wolfeEnergy          0.0001 \
	wolfeGradient        0.9 \
	fdTest               no
fluid-solvent H2O 55.338 ScalarEOS \
	epsBulk 78.4 \
	pMol 0.92466 \
	epsInf 1.77 \
	Pvap 1.06736e-10 \
	sigmaBulk 4.62e-05 \
	Rvdw 2.61727 \
	Res 1.42 \
	tauNuc 343133 \
	poleEl 15 7 1
forces-output-coords Positions
ion Rb   0.000000000000000   0.000000000000000   0.000000000000000 0
ion-species SG15/$ID_ONCV_PBE.upf
ion-width 0
ionic-minimize  \
	dirUpdateScheme      L-BFGS \
	linminMethod         DirUpdateRecommended \
	nIterations          0 \
	history              15 \
	knormThreshold       0.0001 \
	energyDiffThreshold  1e-06 \
	nEnergyDiff          2 \
	alphaTstart          1 \
	alphaTmin            1e-10 \
	updateTestStepSize   yes \
	alphaTreduceFactor   0.1 \
	alphaTincreaseFactor 3 \
	nAlphaAdjustMax      3 \
	wolfeEnergy          0.0001 \
	wolfeGradient        0.9 \
	fdTest               no
kpoint   0.000000000000   0.000000000000   0.000000000000  1.00000000000000
kpoint-folding 12 12 1 
latt-move-scale 1 1 1
latt-scale 3 3 1 
lattice  \
	   4.727486978767153   -2.363743489383575    0.000000000000000  \
	  -0.000000000000000    4.094123819672498    0.000000000000000  \
	   0.000000000000000    0.000000000000000   40.000000000000000 
lattice-minimize  \
	dirUpdateScheme      L-BFGS \
	linminMethod         DirUpdateRecommended \
	nIterations          0 \
	history              15 \
	knormThreshold       0 \
	energyDiffThreshold  1e-06 \
	nEnergyDiff          2 \
	alphaTstart          1 \
	alphaTmin            1e-10 \
	updateTestStepSize   yes \
	alphaTreduceFactor   0.1 \
	alphaTincreaseFactor 3 \
	nAlphaAdjustMax      3 \
	wolfeEnergy          0.0001 \
	wolfeGradient        0.9 \
	fdTest               no
lcao-params -1 1e-06 1e-05
pcm-variant GLSSA13
spintype z-spin
subspace-rotation-factor 1 yes
symmetries automatic
symmetry-threshold 0.0001



---------- Setting up symmetries ----------

Found 24 point-group symmetries of the bravais lattice
Found 24 space-group symmetries with basis
Applied RMS atom displacement 0 bohrs to make symmetries exact.

---------- Initializing the Grid ----------
R = 
[      14.1825     -7.09123            0  ]
[            0      12.2824            0  ]
[            0            0           40  ]
unit cell volume = 6967.77
G =
[   0.443025   0.255781         -0  ]
[          0   0.511561         -0  ]
[         -0         -0    0.15708  ]
Minimum fftbox size, Smin = [  60  60  164  ]
Chosen fftbox size, S = [  60  60  168  ]

---------- Exchange Correlation functional ----------
Initalized PBE GGA exchange.
Initalized PBE GGA correlation.

---------- Setting up pseudopotentials ----------
Width of ionic core gaussian charges (only for fluid interactions / plotting) set to 0

Reading pseudopotential file '/home/gridsan/aligho/DFT/build-Nov24/pseudopotentials/SG15/Rb_ONCV_PBE.upf':
  'Rb' pseudopotential, 'PBE' functional
  Generated using ONCVPSP code by D. R. Hamann
  Author: Martin Schlipf and Francois Gygi  Date: 150915.
  9 valence electrons, 3 orbitals, 6 projectors, 2308 radial grid points, with lMax = 2
  Transforming local potential to a uniform radial grid of dG=0.02 with 1489 points.
  Transforming nonlocal projectors to a uniform radial grid of dG=0.02 with 432 points.
    4S    l: 0   occupation:  2.0   eigenvalue: -1.172069
    4P    l: 1   occupation:  6.0   eigenvalue: -0.586674
    5S    l: 0   occupation:  1.0   eigenvalue: -0.082006
  Transforming atomic orbitals to a uniform radial grid of dG=0.02 with 432 points.
  Core radius for overlap checks: 2.60 bohrs.
  Reading pulay file /home/gridsan/aligho/DFT/build-Nov24/pseudopotentials/SG15/Rb_ONCV_PBE.pulay ... using dE_dnG = -1.360715e-05 computed for Ecut = 20.

Initialized 1 species with 1 total atoms.

Folded 1 k-points by 12x12x1 to 144 k-points.

---------- Setting up k-points, bands, fillings ----------
Reduced to 19 k-points under symmetry. 
Computing the number of bands and number of electrons
Calculating initial fillings.
nElectrons:   9.000000   nBands: 6   nStates: 38

----- Setting up reduced wavefunction bases (one per k-point) -----
average nbasis = 29766.104 , ideal nbasis = 29766.845

---------- Setting up coulomb interaction ----------
Initialized slab truncation along lattice direction 001

---------- Setting up 2D ewald sum ----------
Optimum gaussian width for ewald sums = 7.873530 bohr.
Real space sums over 289 unit cells with max indices [  8  8  0  ]
Reciprocal space sums over 81 terms with max indices [  4  4  0  ]

---------- Allocating electronic variables ----------
Initializing wave functions:  linear combination of atomic orbitals
Note: number of bands (6) exceeds available atomic orbitals (5)
Rb pseudo-atom occupations:   s ( 2 1 )  p ( 6 )
[d-6-7-4:62493] 18 more processes have sent help message help-mpi-common-cuda.txt / dlopen failed
[d-6-7-4:62493] Set MCA parameter "orte_base_help_aggregate" to 0 to see all help / error messages
[d-6-7-4:62493] 18 more processes have sent help message help-mpi-btl-openib-cpc-base.txt / no cpcs for port
	FillingsUpdate:  mu: -0.083580683  nElectrons: 9.000000  magneticMoment: [ Abs: 0.38000  Tot: -0.38000 ]
LCAOMinimize: Iter:   0  F: -24.4363148243967103  |grad|_K:  1.895e-05  alpha:  1.000e+00
	FillingsUpdate:  mu: -0.083576929  nElectrons: 9.000000  magneticMoment: [ Abs: 0.38000  Tot: -0.38000 ]
LCAOMinimize: Iter:   1  F: -24.4363150668177838  |grad|_K:  1.499e-07  alpha:  9.870e-01  linmin: -1.691e-02  cgtest:  4.005e-01  t[s]:      8.66
LCAOMinimize: Encountered beta<0, resetting CG.
	FillingsUpdate:  mu: -0.083576935  nElectrons: 9.000000  magneticMoment: [ Abs: 0.38000  Tot: -0.38000 ]
LCAOMinimize: Iter:   2  F: -24.4363150668329610  |grad|_K:  1.988e-09  alpha:  9.874e-01  linmin: -5.751e-02  cgtest:  9.764e-01  t[s]:     11.00
LCAOMinimize: Encountered beta<0, resetting CG.
LCAOMinimize: Converged (|Delta F|<1.000000e-06 for 2 iters).


---- Citations for features of the code used in this run ----

   Software package:
      R. Sundararaman, K. Letchworth-Weaver, K.A. Schwarz, D. Gunceler, Y. Ozhabes and T.A. Arias, 'JDFTx: software for joint density-functional theory', SoftwareX 6, 278 (2017)

   gga-PBE exchange-correlation functional:
      J.P. Perdew, K. Burke and M. Ernzerhof, Phys. Rev. Lett. 77, 3865 (1996)

   Pseudopotentials:
      M Schlipf and F Gygi, Comput. Phys. Commun. 196, 36 (2015)

   Truncated Coulomb potentials:
      R. Sundararaman and T.A. Arias, Phys. Rev. B 87, 165122 (2013)

This list may not be complete. Please suggest additional citations or
report any other bugs at https://github.com/shankar1729/jdftx/issues

Initialization completed successfully at t[s]:     11.15


-------- Electronic minimization -----------
Will mix electronic density at each iteration.
	FillingsUpdate:  mu: -0.083576935  nElectrons: 9.000000  magneticMoment: [ Abs: 0.38000  Tot: -0.38000 ]
	FillingsUpdate:  mu: -0.085500443  nElectrons: 9.000000  magneticMoment: [ Abs: 0.38000  Tot: -0.38000 ]
SCF: Cycle:  0   F: -24.437994758539343   dF: -1.680e-03   |Residual|: 3.897e-03   |deigs|: 1.737e-01  t[s]:     15.90
	FillingsUpdate:  mu: -0.085681035  nElectrons: 9.000000  magneticMoment: [ Abs: 0.38023  Tot: -0.38000 ]
SCF: Cycle:  1   F: -24.438047341224298   dF: -5.258e-05   |Residual|: 3.259e-03   |deigs|: 4.671e-03  t[s]:     19.53
	FillingsUpdate:  mu: -0.085959529  nElectrons: 9.000000  magneticMoment: [ Abs: 0.38200  Tot: -0.38000 ]
SCF: Cycle:  2   F: -24.438084044093003   dF: -3.670e-05   |Residual|: 2.106e-03   |deigs|: 2.013e-03  t[s]:     23.26
	FillingsUpdate:  mu: -0.086170360  nElectrons: 9.000000  magneticMoment: [ Abs: 0.38249  Tot: -0.38000 ]
SCF: Cycle:  3   F: -24.438099848612143   dF: -1.580e-05   |Residual|: 1.277e-03   |deigs|: 2.756e-03  t[s]:     27.03
	FillingsUpdate:  mu: -0.086179133  nElectrons: 9.000000  magneticMoment: [ Abs: 0.38063  Tot: -0.38000 ]
SCF: Cycle:  4   F: -24.438108294413148   dF: -8.446e-06   |Residual|: 6.850e-04   |deigs|: 2.240e-03  t[s]:     30.91
	FillingsUpdate:  mu: -0.086174369  nElectrons: 9.000000  magneticMoment: [ Abs: 0.38131  Tot: -0.38000 ]
SCF: Cycle:  5   F: -24.438113217819570   dF: -4.923e-06   |Residual|: 4.778e-04   |deigs|: 2.221e-03  t[s]:     34.82
	FillingsUpdate:  mu: -0.086038754  nElectrons: 9.000000  magneticMoment: [ Abs: 0.38123  Tot: -0.38000 ]
SCF: Cycle:  6   F: -24.438115856233459   dF: -2.638e-06   |Residual|: 3.524e-04   |deigs|: 1.123e-03  t[s]:     38.79
	FillingsUpdate:  mu: -0.085831031  nElectrons: 9.000000  magneticMoment: [ Abs: 0.38145  Tot: -0.38000 ]
SCF: Cycle:  7   F: -24.438116380093259   dF: -5.239e-07   |Residual|: 2.862e-04   |deigs|: 3.360e-04  t[s]:     42.80
	FillingsUpdate:  mu: -0.085572942  nElectrons: 9.000000  magneticMoment: [ Abs: 0.38235  Tot: -0.38000 ]
SCF: Cycle:  8   F: -24.438116527815325   dF: -1.477e-07   |Residual|: 2.345e-04   |deigs|: 3.267e-04  t[s]:     46.98
	FillingsUpdate:  mu: -0.085249326  nElectrons: 9.000000  magneticMoment: [ Abs: 0.38229  Tot: -0.38000 ]
SCF: Cycle:  9   F: -24.438115619498198   dF: +9.083e-07   |Residual|: 2.047e-04   |deigs|: 3.859e-04  t[s]:     51.11
	FillingsUpdate:  mu: -0.084988513  nElectrons: 9.000000  magneticMoment: [ Abs: 0.38213  Tot: -0.38000 ]
SCF: Cycle: 10   F: -24.438115860888601   dF: -2.414e-07   |Residual|: 1.870e-04   |deigs|: 4.678e-04  t[s]:     55.30
	FillingsUpdate:  mu: -0.084897158  nElectrons: 9.000000  magneticMoment: [ Abs: 0.38209  Tot: -0.38000 ]
SCF: Cycle: 11   F: -24.438116915699617   dF: -1.055e-06   |Residual|: 1.423e-04   |deigs|: 2.740e-04  t[s]:     59.44
	FillingsUpdate:  mu: -0.084663746  nElectrons: 9.000000  magneticMoment: [ Abs: 0.38229  Tot: -0.38000 ]
SCF: Cycle: 12   F: -24.438117218426292   dF: -3.027e-07   |Residual|: 1.327e-04   |deigs|: 4.676e-04  t[s]:     63.64
	FillingsUpdate:  mu: -0.084237541  nElectrons: 9.000000  magneticMoment: [ Abs: 0.38192  Tot: -0.38000 ]
SCF: Cycle: 13   F: -24.438116537187256   dF: +6.812e-07   |Residual|: 1.341e-04   |deigs|: 4.655e-04  t[s]:     67.79
	FillingsUpdate:  mu: -0.084091846  nElectrons: 9.000000  magneticMoment: [ Abs: 0.38157  Tot: -0.38000 ]
SCF: Cycle: 14   F: -24.438116769863154   dF: -2.327e-07   |Residual|: 1.225e-04   |deigs|: 2.246e-04  t[s]:     71.92
	FillingsUpdate:  mu: -0.083999112  nElectrons: 9.000000  magneticMoment: [ Abs: 0.38185  Tot: -0.38000 ]
SCF: Cycle: 15   F: -24.438117694954684   dF: -9.251e-07   |Residual|: 1.033e-04   |deigs|: 1.811e-04  t[s]:     76.13
	FillingsUpdate:  mu: -0.083763663  nElectrons: 9.000000  magneticMoment: [ Abs: 0.38146  Tot: -0.38000 ]
SCF: Cycle: 16   F: -24.438118262865643   dF: -5.679e-07   |Residual|: 7.529e-05   |deigs|: 2.608e-04  t[s]:     80.28
	FillingsUpdate:  mu: -0.083613391  nElectrons: 9.000000  magneticMoment: [ Abs: 0.38128  Tot: -0.38000 ]
SCF: Cycle: 17   F: -24.438118451183563   dF: -1.883e-07   |Residual|: 4.851e-05   |deigs|: 2.746e-04  t[s]:     84.39
	FillingsUpdate:  mu: -0.083634806  nElectrons: 9.000000  magneticMoment: [ Abs: 0.38127  Tot: -0.38000 ]
SCF: Cycle: 18   F: -24.438118565894058   dF: -1.147e-07   |Residual|: 3.222e-05   |deigs|: 2.778e-04  t[s]:     88.60
	FillingsUpdate:  mu: -0.083653140  nElectrons: 9.000000  magneticMoment: [ Abs: 0.38128  Tot: -0.38000 ]
SCF: Cycle: 19   F: -24.438118620398178   dF: -5.450e-08   |Residual|: 2.025e-05   |deigs|: 5.294e-05  t[s]:     92.78
	FillingsUpdate:  mu: -0.083649321  nElectrons: 9.000000  magneticMoment: [ Abs: 0.38127  Tot: -0.38000 ]
SCF: Cycle: 20   F: -24.438118638396027   dF: -1.800e-08   |Residual|: 1.309e-05   |deigs|: 2.231e-05  t[s]:     96.89
	FillingsUpdate:  mu: -0.083655645  nElectrons: 9.000000  magneticMoment: [ Abs: 0.38129  Tot: -0.38000 ]
SCF: Cycle: 21   F: -24.438118654321784   dF: -1.593e-08   |Residual|: 6.015e-06   |deigs|: 1.711e-05  t[s]:    101.06
	FillingsUpdate:  mu: -0.083657999  nElectrons: 9.000000  magneticMoment: [ Abs: 0.38129  Tot: -0.38000 ]
SCF: Cycle: 22   F: -24.438118657112653   dF: -2.791e-09   |Residual|: 4.052e-06   |deigs|: 8.499e-06  t[s]:    105.12
	FillingsUpdate:  mu: -0.083657674  nElectrons: 9.000000  magneticMoment: [ Abs: 0.38129  Tot: -0.38000 ]
SCF: Cycle: 23   F: -24.438118658290513   dF: -1.178e-09   |Residual|: 3.341e-06   |deigs|: 4.666e-06  t[s]:    109.25
SCF: Converged (|Delta E|<1.000000e-08 for 2 iters).


# Ionic positions in lattice coordinates:
ion Rb   0.000000000000000   0.000000000000000   0.000000000000000 0

# Forces in Lattice coordinates:
force Rb  -0.000000000000000   0.000000000000000   0.000000000000000 0

# Energy components:
   Eewald =      -12.0320174002217755
       EH =        7.4923352819993054
     Eloc =      -22.4028492488401909
      Enl =       -0.7975668945122040
   Epulay =       -0.0000000014467880
      Exc =       -3.6475755100652396
       KE =        6.9495558603069156
-------------------------------------
     Etot =      -24.4381179127799797
       TS =        0.0000007455105331
-------------------------------------
        F =      -24.4381186582905130

IonicMinimize: Iter:   0  F: -24.438118658290513  |grad|_K:  0.000e+00  t[s]:    109.50
IonicMinimize: Converged (|grad|_K<1.000000e-04).

#--- Lowdin population analysis ---
# oxidation-state Rb +0.033
# magnetic-moments Rb -0.358

End date and time: Sun Feb  6 12:44:11 2022  (Duration: 0-0:01:49.55)
Done!
scale=4
magnetization=-0.38
--------------------------------------------------------------------------
The library attempted to open the following supporting CUDA libraries,
but each of them failed.  CUDA-aware support is disabled.
libcuda.so.1: cannot open shared object file: No such file or directory
libcuda.dylib: cannot open shared object file: No such file or directory
/usr/lib64/libcuda.so.1: cannot open shared object file: No such file or directory
/usr/lib64/libcuda.dylib: cannot open shared object file: No such file or directory
If you are not interested in CUDA-aware support, then run with
--mca opal_warn_on_missing_libcuda 0 to suppress this message.  If you are interested
in CUDA-aware support, then try setting LD_LIBRARY_PATH to the location
of libcuda.so.1 to get passed this issue.
--------------------------------------------------------------------------
--------------------------------------------------------------------------
No OpenFabrics connection schemes reported that they were able to be
used on a specific port.  As such, the openib BTL (OpenFabrics
support) will be disabled for this port.

  Local host:           d-6-7-4
  Local device:         mlx5_1
  Local port:           1
  CPCs attempted:       rdmacm, udcm
--------------------------------------------------------------------------

*************** JDFTx 1.6.0 (git hash 42ebbcc2) ***************

Start date and time: Sun Feb  6 12:44:13 2022
Executable jdftx with command-line: -i Alkali.in
Running on hosts (process indices):  d-6-7-4 (0-18)
Divided in process groups (process indices):  0 (0)  1 (1)  2 (2)  3 (3)  4 (4)  5 (5)  6 (6)  7 (7)  8 (8)  9 (9)  10 (10)  11 (11)  12 (12)  13 (13)  14 (14)  15 (15)  16 (16)  17 (17)  18 (18)
Resource initialization completed at t[s]:      0.00
Run totals: 19 processes, 48 threads, 0 GPUs


Input parsed successfully to the following command list (including defaults):

basis kpoint-dependent
coords-type Lattice
core-overlap-check vector
coulomb-interaction Slab 001
davidson-band-ratio 1.1
dump End None
dump-name $INPUT.$VAR
elec-cutoff 20
elec-eigen-algo Davidson
elec-ex-corr gga-PBE
elec-initial-magnetization -0.380000 yes
elec-smearing Fermi 1e-05
electronic-minimize  \
	dirUpdateScheme      FletcherReeves \
	linminMethod         DirUpdateRecommended \
	nIterations          100 \
	history              15 \
	knormThreshold       0 \
	energyDiffThreshold  1e-08 \
	nEnergyDiff          2 \
	alphaTstart          1 \
	alphaTmin            1e-10 \
	updateTestStepSize   yes \
	alphaTreduceFactor   0.1 \
	alphaTincreaseFactor 3 \
	nAlphaAdjustMax      3 \
	wolfeEnergy          0.0001 \
	wolfeGradient        0.9 \
	fdTest               no
electronic-scf  \
	nIterations	10000 \
	energyDiffThreshold	1e-08 \
	residualThreshold	1e-07 \
	mixFraction	0.5 \
	qMetric	0.8 \
	history	10 \
	nEigSteps	2 \
	eigDiffThreshold	1e-08 \
	mixedVariable	Density \
	qKerker	0.8 \
	qKappa	-1 \
	verbose	no \
	mixFractionMag	1.5
exchange-regularization WignerSeitzTruncated
fluid None
fluid-ex-corr (null) lda-PZ
fluid-gummel-loop 10 1.000000e-05
fluid-minimize  \
	dirUpdateScheme      PolakRibiere \
	linminMethod         DirUpdateRecommended \
	nIterations          100 \
	history              15 \
	knormThreshold       0 \
	energyDiffThreshold  0 \
	nEnergyDiff          2 \
	alphaTstart          1 \
	alphaTmin            1e-10 \
	updateTestStepSize   yes \
	alphaTreduceFactor   0.1 \
	alphaTincreaseFactor 3 \
	nAlphaAdjustMax      3 \
	wolfeEnergy          0.0001 \
	wolfeGradient        0.9 \
	fdTest               no
fluid-solvent H2O 55.338 ScalarEOS \
	epsBulk 78.4 \
	pMol 0.92466 \
	epsInf 1.77 \
	Pvap 1.06736e-10 \
	sigmaBulk 4.62e-05 \
	Rvdw 2.61727 \
	Res 1.42 \
	tauNuc 343133 \
	poleEl 15 7 1
forces-output-coords Positions
ion Rb   0.000000000000000   0.000000000000000   0.000000000000000 0
ion-species SG15/$ID_ONCV_PBE.upf
ion-width 0
ionic-minimize  \
	dirUpdateScheme      L-BFGS \
	linminMethod         DirUpdateRecommended \
	nIterations          0 \
	history              15 \
	knormThreshold       0.0001 \
	energyDiffThreshold  1e-06 \
	nEnergyDiff          2 \
	alphaTstart          1 \
	alphaTmin            1e-10 \
	updateTestStepSize   yes \
	alphaTreduceFactor   0.1 \
	alphaTincreaseFactor 3 \
	nAlphaAdjustMax      3 \
	wolfeEnergy          0.0001 \
	wolfeGradient        0.9 \
	fdTest               no
kpoint   0.000000000000   0.000000000000   0.000000000000  1.00000000000000
kpoint-folding 12 12 1 
latt-move-scale 1 1 1
latt-scale 4 4 1 
lattice  \
	   4.727486978767153   -2.363743489383575    0.000000000000000  \
	  -0.000000000000000    4.094123819672498    0.000000000000000  \
	   0.000000000000000    0.000000000000000   40.000000000000000 
lattice-minimize  \
	dirUpdateScheme      L-BFGS \
	linminMethod         DirUpdateRecommended \
	nIterations          0 \
	history              15 \
	knormThreshold       0 \
	energyDiffThreshold  1e-06 \
	nEnergyDiff          2 \
	alphaTstart          1 \
	alphaTmin            1e-10 \
	updateTestStepSize   yes \
	alphaTreduceFactor   0.1 \
	alphaTincreaseFactor 3 \
	nAlphaAdjustMax      3 \
	wolfeEnergy          0.0001 \
	wolfeGradient        0.9 \
	fdTest               no
lcao-params -1 1e-06 1e-05
pcm-variant GLSSA13
spintype z-spin
subspace-rotation-factor 1 yes
symmetries automatic
symmetry-threshold 0.0001



---------- Setting up symmetries ----------

Found 24 point-group symmetries of the bravais lattice
Found 24 space-group symmetries with basis
Applied RMS atom displacement 0 bohrs to make symmetries exact.

---------- Initializing the Grid ----------
R = 
[      18.9099     -9.45497            0  ]
[            0      16.3765            0  ]
[            0            0           40  ]
unit cell volume = 12387.1
G =
[   0.332269   0.191835         -0  ]
[          0   0.383671         -0  ]
[         -0         -0    0.15708  ]
Minimum fftbox size, Smin = [  80  80  164  ]
Chosen fftbox size, S = [  80  80  168  ]

---------- Exchange Correlation functional ----------
Initalized PBE GGA exchange.
Initalized PBE GGA correlation.

---------- Setting up pseudopotentials ----------
Width of ionic core gaussian charges (only for fluid interactions / plotting) set to 0

Reading pseudopotential file '/home/gridsan/aligho/DFT/build-Nov24/pseudopotentials/SG15/Rb_ONCV_PBE.upf':
  'Rb' pseudopotential, 'PBE' functional
  Generated using ONCVPSP code by D. R. Hamann
  Author: Martin Schlipf and Francois Gygi  Date: 150915.
  9 valence electrons, 3 orbitals, 6 projectors, 2308 radial grid points, with lMax = 2
  Transforming local potential to a uniform radial grid of dG=0.02 with 1489 points.
  Transforming nonlocal projectors to a uniform radial grid of dG=0.02 with 432 points.
    4S    l: 0   occupation:  2.0   eigenvalue: -1.172069
    4P    l: 1   occupation:  6.0   eigenvalue: -0.586674
    5S    l: 0   occupation:  1.0   eigenvalue: -0.082006
  Transforming atomic orbitals to a uniform radial grid of dG=0.02 with 432 points.
  Core radius for overlap checks: 2.60 bohrs.
  Reading pulay file /home/gridsan/aligho/DFT/build-Nov24/pseudopotentials/SG15/Rb_ONCV_PBE.pulay ... using dE_dnG = -1.360715e-05 computed for Ecut = 20.

Initialized 1 species with 1 total atoms.

Folded 1 k-points by 12x12x1 to 144 k-points.

---------- Setting up k-points, bands, fillings ----------
Reduced to 19 k-points under symmetry. 
Computing the number of bands and number of electrons
Calculating initial fillings.
nElectrons:   9.000000   nBands: 6   nStates: 38

----- Setting up reduced wavefunction bases (one per k-point) -----
average nbasis = 52924.021 , ideal nbasis = 52918.836

---------- Setting up coulomb interaction ----------
Initialized slab truncation along lattice direction 001

---------- Setting up 2D ewald sum ----------
Optimum gaussian width for ewald sums = 10.498040 bohr.
Real space sums over 289 unit cells with max indices [  8  8  0  ]
Reciprocal space sums over 81 terms with max indices [  4  4  0  ]

---------- Allocating electronic variables ----------
Initializing wave functions:  linear combination of atomic orbitals
Note: number of bands (6) exceeds available atomic orbitals (5)
Rb pseudo-atom occupations:   s ( 2 1 )  p ( 6 )
[d-6-7-4:14538] 18 more processes have sent help message help-mpi-common-cuda.txt / dlopen failed
[d-6-7-4:14538] Set MCA parameter "orte_base_help_aggregate" to 0 to see all help / error messages
[d-6-7-4:14538] 18 more processes have sent help message help-mpi-btl-openib-cpc-base.txt / no cpcs for port
	FillingsUpdate:  mu: -0.082571901  nElectrons: 9.000000  magneticMoment: [ Abs: 0.38000  Tot: -0.38000 ]
LCAOMinimize: Iter:   0  F: -24.4310249420357373  |grad|_K:  4.607e-06  alpha:  1.000e+00
	FillingsUpdate:  mu: -0.082570873  nElectrons: 9.000000  magneticMoment: [ Abs: 0.38000  Tot: -0.38000 ]
LCAOMinimize: Iter:   1  F: -24.4310249563692921  |grad|_K:  2.292e-08  alpha:  9.875e-01  linmin: -1.214e-03  cgtest:  2.535e-01  t[s]:     14.93
LCAOMinimize: Encountered beta<0, resetting CG.
	FillingsUpdate:  mu: -0.082570872  nElectrons: 9.000000  magneticMoment: [ Abs: 0.38000  Tot: -0.38000 ]
LCAOMinimize: Iter:   2  F: -24.4310249563695407  |grad|_K:  4.696e-09  alpha:  7.952e-01  linmin: -3.419e-03  cgtest:  1.000e+00  t[s]:     18.83
LCAOMinimize: Encountered beta<0, resetting CG.
LCAOMinimize: Converged (|Delta F|<1.000000e-06 for 2 iters).


---- Citations for features of the code used in this run ----

   Software package:
      R. Sundararaman, K. Letchworth-Weaver, K.A. Schwarz, D. Gunceler, Y. Ozhabes and T.A. Arias, 'JDFTx: software for joint density-functional theory', SoftwareX 6, 278 (2017)

   gga-PBE exchange-correlation functional:
      J.P. Perdew, K. Burke and M. Ernzerhof, Phys. Rev. Lett. 77, 3865 (1996)

   Pseudopotentials:
      M Schlipf and F Gygi, Comput. Phys. Commun. 196, 36 (2015)

   Truncated Coulomb potentials:
      R. Sundararaman and T.A. Arias, Phys. Rev. B 87, 165122 (2013)

This list may not be complete. Please suggest additional citations or
report any other bugs at https://github.com/shankar1729/jdftx/issues

Initialization completed successfully at t[s]:     19.07


-------- Electronic minimization -----------
Will mix electronic density at each iteration.
	FillingsUpdate:  mu: -0.082570872  nElectrons: 9.000000  magneticMoment: [ Abs: 0.38000  Tot: -0.38000 ]
	FillingsUpdate:  mu: -0.082669378  nElectrons: 9.000000  magneticMoment: [ Abs: 0.38000  Tot: -0.38000 ]
SCF: Cycle:  0   F: -24.431131750214853   dF: -1.068e-04   |Residual|: 9.923e-04   |deigs|: 1.750e-01  t[s]:     27.05
	FillingsUpdate:  mu: -0.082695490  nElectrons: 9.000000  magneticMoment: [ Abs: 0.38173  Tot: -0.38000 ]
SCF: Cycle:  1   F: -24.431133492804356   dF: -1.743e-06   |Residual|: 4.369e-04   |deigs|: 4.666e-03  t[s]:     33.34
	FillingsUpdate:  mu: -0.082723956  nElectrons: 9.000000  magneticMoment: [ Abs: 0.38186  Tot: -0.38000 ]
SCF: Cycle:  2   F: -24.431134027846166   dF: -5.350e-07   |Residual|: 3.349e-04   |deigs|: 1.536e-03  t[s]:     39.80
	FillingsUpdate:  mu: -0.082765565  nElectrons: 9.000000  magneticMoment: [ Abs: 0.38237  Tot: -0.38000 ]
SCF: Cycle:  3   F: -24.431134379382240   dF: -3.515e-07   |Residual|: 2.539e-04   |deigs|: 9.390e-04  t[s]:     46.30
	FillingsUpdate:  mu: -0.082822017  nElectrons: 9.000000  magneticMoment: [ Abs: 0.38223  Tot: -0.38000 ]
SCF: Cycle:  4   F: -24.431134906653739   dF: -5.273e-07   |Residual|: 1.723e-04   |deigs|: 3.677e-04  t[s]:     53.03
	FillingsUpdate:  mu: -0.082874949  nElectrons: 9.000000  magneticMoment: [ Abs: 0.38242  Tot: -0.38000 ]
SCF: Cycle:  5   F: -24.431135263265716   dF: -3.566e-07   |Residual|: 1.117e-04   |deigs|: 4.569e-04  t[s]:     59.79
	FillingsUpdate:  mu: -0.082881671  nElectrons: 9.000000  magneticMoment: [ Abs: 0.38240  Tot: -0.38000 ]
SCF: Cycle:  6   F: -24.431135464921102   dF: -2.017e-07   |Residual|: 7.395e-05   |deigs|: 6.453e-04  t[s]:     66.57
	FillingsUpdate:  mu: -0.082880350  nElectrons: 9.000000  magneticMoment: [ Abs: 0.38234  Tot: -0.38000 ]
SCF: Cycle:  7   F: -24.431135587878629   dF: -1.230e-07   |Residual|: 5.366e-05   |deigs|: 6.394e-04  t[s]:     73.53
	FillingsUpdate:  mu: -0.082865507  nElectrons: 9.000000  magneticMoment: [ Abs: 0.38230  Tot: -0.38000 ]
SCF: Cycle:  8   F: -24.431135652279206   dF: -6.440e-08   |Residual|: 4.179e-05   |deigs|: 2.207e-04  t[s]:     80.66
	FillingsUpdate:  mu: -0.082837081  nElectrons: 9.000000  magneticMoment: [ Abs: 0.38220  Tot: -0.38000 ]
SCF: Cycle:  9   F: -24.431135687416333   dF: -3.514e-08   |Residual|: 3.177e-05   |deigs|: 1.676e-04  t[s]:     87.88
	FillingsUpdate:  mu: -0.082814432  nElectrons: 9.000000  magneticMoment: [ Abs: 0.38222  Tot: -0.38000 ]
SCF: Cycle: 10   F: -24.431135684669833   dF: +2.746e-09   |Residual|: 2.909e-05   |deigs|: 1.404e-04  t[s]:     95.21
	FillingsUpdate:  mu: -0.082790387  nElectrons: 9.000000  magneticMoment: [ Abs: 0.38235  Tot: -0.38000 ]
SCF: Cycle: 11   F: -24.431135652457293   dF: +3.221e-08   |Residual|: 2.713e-05   |deigs|: 9.984e-05  t[s]:    102.51
	FillingsUpdate:  mu: -0.082757530  nElectrons: 9.000000  magneticMoment: [ Abs: 0.38236  Tot: -0.38000 ]
SCF: Cycle: 12   F: -24.431135556278058   dF: +9.618e-08   |Residual|: 2.415e-05   |deigs|: 1.149e-04  t[s]:    109.85
	FillingsUpdate:  mu: -0.082726281  nElectrons: 9.000000  magneticMoment: [ Abs: 0.38233  Tot: -0.38000 ]
SCF: Cycle: 13   F: -24.431135601507147   dF: -4.523e-08   |Residual|: 2.183e-05   |deigs|: 9.635e-05  t[s]:    117.15
	FillingsUpdate:  mu: -0.082703603  nElectrons: 9.000000  magneticMoment: [ Abs: 0.38234  Tot: -0.38000 ]
SCF: Cycle: 14   F: -24.431135608220469   dF: -6.713e-09   |Residual|: 1.993e-05   |deigs|: 6.714e-05  t[s]:    124.43
	FillingsUpdate:  mu: -0.082684858  nElectrons: 9.000000  magneticMoment: [ Abs: 0.38231  Tot: -0.38000 ]
SCF: Cycle: 15   F: -24.431135647529253   dF: -3.931e-08   |Residual|: 1.733e-05   |deigs|: 3.660e-05  t[s]:    131.79
	FillingsUpdate:  mu: -0.082659425  nElectrons: 9.000000  magneticMoment: [ Abs: 0.38229  Tot: -0.38000 ]
SCF: Cycle: 16   F: -24.431135664499806   dF: -1.697e-08   |Residual|: 1.680e-05   |deigs|: 2.978e-05  t[s]:    139.09
	FillingsUpdate:  mu: -0.082641572  nElectrons: 9.000000  magneticMoment: [ Abs: 0.38225  Tot: -0.38000 ]
SCF: Cycle: 17   F: -24.431135604480779   dF: +6.002e-08   |Residual|: 1.412e-05   |deigs|: 2.019e-05  t[s]:    146.37
	FillingsUpdate:  mu: -0.082635318  nElectrons: 9.000000  magneticMoment: [ Abs: 0.38220  Tot: -0.38000 ]
SCF: Cycle: 18   F: -24.431135691212042   dF: -8.673e-08   |Residual|: 1.096e-05   |deigs|: 8.646e-06  t[s]:    153.22
	FillingsUpdate:  mu: -0.082630492  nElectrons: 9.000000  magneticMoment: [ Abs: 0.38219  Tot: -0.38000 ]
SCF: Cycle: 19   F: -24.431135712908688   dF: -2.170e-08   |Residual|: 8.280e-06   |deigs|: 6.021e-06  t[s]:    159.98
	FillingsUpdate:  mu: -0.082624214  nElectrons: 9.000000  magneticMoment: [ Abs: 0.38222  Tot: -0.38000 ]
SCF: Cycle: 20   F: -24.431135726934347   dF: -1.403e-08   |Residual|: 5.562e-06   |deigs|: 6.740e-06  t[s]:    167.29
	FillingsUpdate:  mu: -0.082623155  nElectrons: 9.000000  magneticMoment: [ Abs: 0.38221  Tot: -0.38000 ]
SCF: Cycle: 21   F: -24.431135745566458   dF: -1.863e-08   |Residual|: 3.886e-06   |deigs|: 3.300e-06  t[s]:    174.52
	FillingsUpdate:  mu: -0.082622681  nElectrons: 9.000000  magneticMoment: [ Abs: 0.38220  Tot: -0.38000 ]
SCF: Cycle: 22   F: -24.431135747252899   dF: -1.686e-09   |Residual|: 2.746e-06   |deigs|: 4.124e-06  t[s]:    181.15
	FillingsUpdate:  mu: -0.082622819  nElectrons: 9.000000  magneticMoment: [ Abs: 0.38221  Tot: -0.38000 ]
SCF: Cycle: 23   F: -24.431135750061223   dF: -2.808e-09   |Residual|: 1.856e-06   |deigs|: 6.346e-06  t[s]:    188.34
SCF: Converged (|Delta E|<1.000000e-08 for 2 iters).


# Ionic positions in lattice coordinates:
ion Rb   0.000000000000000   0.000000000000000   0.000000000000000 0

# Forces in Lattice coordinates:
force Rb   0.000000000000000   0.000000000000000   0.000000000000000 0

# Energy components:
   Eewald =       -9.0240130501663280
       EH =       10.5231766160647737
     Eloc =      -28.4473877201326246
      Enl =       -0.7930141768936880
   Epulay =        0.0000000056959385
      Exc =       -3.6486806032311749
       KE =        6.9587845427602062
-------------------------------------
     Etot =      -24.4311343859028973
       TS =        0.0000013641583252
-------------------------------------
        F =      -24.4311357500612232

IonicMinimize: Iter:   0  F: -24.431135750061223  |grad|_K:  0.000e+00  t[s]:    188.74
IonicMinimize: Converged (|grad|_K<1.000000e-04).

#--- Lowdin population analysis ---
# oxidation-state Rb +0.002
# magnetic-moments Rb -0.380

End date and time: Sun Feb  6 12:47:21 2022  (Duration: 0-0:03:08.80)
Done!
