The alkali metal is Rb
scale=2
magnetization=-0.64
--------------------------------------------------------------------------
The library attempted to open the following supporting CUDA libraries,
but each of them failed.  CUDA-aware support is disabled.
libcuda.so.1: cannot open shared object file: No such file or directory
libcuda.dylib: cannot open shared object file: No such file or directory
/usr/lib64/libcuda.so.1: cannot open shared object file: No such file or directory
/usr/lib64/libcuda.dylib: cannot open shared object file: No such file or directory
If you are not interested in CUDA-aware support, then run with
--mca opal_warn_on_missing_libcuda 0 to suppress this message.  If you are interested
in CUDA-aware support, then try setting LD_LIBRARY_PATH to the location
of libcuda.so.1 to get passed this issue.
--------------------------------------------------------------------------
--------------------------------------------------------------------------
No OpenFabrics connection schemes reported that they were able to be
used on a specific port.  As such, the openib BTL (OpenFabrics
support) will be disabled for this port.

  Local host:           d-17-11-3
  Local device:         mlx5_1
  Local port:           1
  CPCs attempted:       rdmacm, udcm
--------------------------------------------------------------------------

*************** JDFTx 1.6.0 (git hash 42ebbcc2) ***************

Start date and time: Sun Feb  6 12:34:51 2022
Executable jdftx with command-line: -i Alkali.in
Running on hosts (process indices):  d-17-11-3 (0-18)
Divided in process groups (process indices):  0 (0)  1 (1)  2 (2)  3 (3)  4 (4)  5 (5)  6 (6)  7 (7)  8 (8)  9 (9)  10 (10)  11 (11)  12 (12)  13 (13)  14 (14)  15 (15)  16 (16)  17 (17)  18 (18)
Resource initialization completed at t[s]:      0.00
Run totals: 19 processes, 48 threads, 0 GPUs


Input parsed successfully to the following command list (including defaults):

basis kpoint-dependent
coords-type Lattice
core-overlap-check vector
coulomb-interaction Slab 001
davidson-band-ratio 1.1
dump End None
dump-name $INPUT.$VAR
elec-cutoff 20
elec-eigen-algo Davidson
elec-ex-corr gga-PBE
elec-initial-magnetization -0.640000 yes
elec-smearing Fermi 1e-05
electronic-minimize  \
	dirUpdateScheme      FletcherReeves \
	linminMethod         DirUpdateRecommended \
	nIterations          100 \
	history              15 \
	knormThreshold       0 \
	energyDiffThreshold  1e-08 \
	nEnergyDiff          2 \
	alphaTstart          1 \
	alphaTmin            1e-10 \
	updateTestStepSize   yes \
	alphaTreduceFactor   0.1 \
	alphaTincreaseFactor 3 \
	nAlphaAdjustMax      3 \
	wolfeEnergy          0.0001 \
	wolfeGradient        0.9 \
	fdTest               no
electronic-scf  \
	nIterations	10000 \
	energyDiffThreshold	1e-08 \
	residualThreshold	1e-07 \
	mixFraction	0.5 \
	qMetric	0.8 \
	history	10 \
	nEigSteps	2 \
	eigDiffThreshold	1e-08 \
	mixedVariable	Density \
	qKerker	0.8 \
	qKappa	-1 \
	verbose	no \
	mixFractionMag	1.5
exchange-regularization WignerSeitzTruncated
fluid None
fluid-ex-corr (null) lda-PZ
fluid-gummel-loop 10 1.000000e-05
fluid-minimize  \
	dirUpdateScheme      PolakRibiere \
	linminMethod         DirUpdateRecommended \
	nIterations          100 \
	history              15 \
	knormThreshold       0 \
	energyDiffThreshold  0 \
	nEnergyDiff          2 \
	alphaTstart          1 \
	alphaTmin            1e-10 \
	updateTestStepSize   yes \
	alphaTreduceFactor   0.1 \
	alphaTincreaseFactor 3 \
	nAlphaAdjustMax      3 \
	wolfeEnergy          0.0001 \
	wolfeGradient        0.9 \
	fdTest               no
fluid-solvent H2O 55.338 ScalarEOS \
	epsBulk 78.4 \
	pMol 0.92466 \
	epsInf 1.77 \
	Pvap 1.06736e-10 \
	sigmaBulk 4.62e-05 \
	Rvdw 2.61727 \
	Res 1.42 \
	tauNuc 343133 \
	poleEl 15 7 1
forces-output-coords Positions
ion Rb   0.000000000000000   0.000000000000000   0.000000000000000 0
ion-species SG15/$ID_ONCV_PBE.upf
ion-width 0
ionic-minimize  \
	dirUpdateScheme      L-BFGS \
	linminMethod         DirUpdateRecommended \
	nIterations          0 \
	history              15 \
	knormThreshold       0.0001 \
	energyDiffThreshold  1e-06 \
	nEnergyDiff          2 \
	alphaTstart          1 \
	alphaTmin            1e-10 \
	updateTestStepSize   yes \
	alphaTreduceFactor   0.1 \
	alphaTincreaseFactor 3 \
	nAlphaAdjustMax      3 \
	wolfeEnergy          0.0001 \
	wolfeGradient        0.9 \
	fdTest               no
kpoint   0.000000000000   0.000000000000   0.000000000000  1.00000000000000
kpoint-folding 12 12 1 
latt-move-scale 1 1 1
latt-scale 2 2 1 
lattice  \
	   4.727486978767153   -2.363743489383575    0.000000000000000  \
	  -0.000000000000000    4.094123819672498    0.000000000000000  \
	   0.000000000000000    0.000000000000000   40.000000000000000 
lattice-minimize  \
	dirUpdateScheme      L-BFGS \
	linminMethod         DirUpdateRecommended \
	nIterations          0 \
	history              15 \
	knormThreshold       0 \
	energyDiffThreshold  1e-06 \
	nEnergyDiff          2 \
	alphaTstart          1 \
	alphaTmin            1e-10 \
	updateTestStepSize   yes \
	alphaTreduceFactor   0.1 \
	alphaTincreaseFactor 3 \
	nAlphaAdjustMax      3 \
	wolfeEnergy          0.0001 \
	wolfeGradient        0.9 \
	fdTest               no
lcao-params -1 1e-06 1e-05
pcm-variant GLSSA13
spintype z-spin
subspace-rotation-factor 1 yes
symmetries automatic
symmetry-threshold 0.0001



---------- Setting up symmetries ----------

Found 24 point-group symmetries of the bravais lattice
Found 24 space-group symmetries with basis
Applied RMS atom displacement 0 bohrs to make symmetries exact.

---------- Initializing the Grid ----------
R = 
[      9.45497     -4.72749            0  ]
[            0      8.18825            0  ]
[            0            0           40  ]
unit cell volume = 3096.79
G =
[   0.664538   0.383671         -0  ]
[          0   0.767342         -0  ]
[         -0         -0    0.15708  ]
Minimum fftbox size, Smin = [  40  40  164  ]
Chosen fftbox size, S = [  40  40  168  ]

---------- Exchange Correlation functional ----------
Initalized PBE GGA exchange.
Initalized PBE GGA correlation.

---------- Setting up pseudopotentials ----------
Width of ionic core gaussian charges (only for fluid interactions / plotting) set to 0

Reading pseudopotential file '/home/gridsan/aligho/DFT/build-Nov24/pseudopotentials/SG15/Rb_ONCV_PBE.upf':
  'Rb' pseudopotential, 'PBE' functional
  Generated using ONCVPSP code by D. R. Hamann
  Author: Martin Schlipf and Francois Gygi  Date: 150915.
  9 valence electrons, 3 orbitals, 6 projectors, 2308 radial grid points, with lMax = 2
  Transforming local potential to a uniform radial grid of dG=0.02 with 1489 points.
  Transforming nonlocal projectors to a uniform radial grid of dG=0.02 with 432 points.
    4S    l: 0   occupation:  2.0   eigenvalue: -1.172069
    4P    l: 1   occupation:  6.0   eigenvalue: -0.586674
    5S    l: 0   occupation:  1.0   eigenvalue: -0.082006
  Transforming atomic orbitals to a uniform radial grid of dG=0.02 with 432 points.
  Core radius for overlap checks: 2.60 bohrs.
  Reading pulay file /home/gridsan/aligho/DFT/build-Nov24/pseudopotentials/SG15/Rb_ONCV_PBE.pulay ... using dE_dnG = -1.360715e-05 computed for Ecut = 20.

Initialized 1 species with 1 total atoms.

Folded 1 k-points by 12x12x1 to 144 k-points.

---------- Setting up k-points, bands, fillings ----------
Reduced to 19 k-points under symmetry. 
Computing the number of bands and number of electrons
Calculating initial fillings.
nElectrons:   9.000000   nBands: 6   nStates: 38

----- Setting up reduced wavefunction bases (one per k-point) -----
average nbasis = 13230.521 , ideal nbasis = 13229.709

---------- Setting up coulomb interaction ----------
Initialized slab truncation along lattice direction 001

---------- Setting up 2D ewald sum ----------
Optimum gaussian width for ewald sums = 5.249020 bohr.
Real space sums over 289 unit cells with max indices [  8  8  0  ]
Reciprocal space sums over 81 terms with max indices [  4  4  0  ]

---------- Allocating electronic variables ----------
Initializing wave functions:  linear combination of atomic orbitals
Note: number of bands (6) exceeds available atomic orbitals (5)
Rb pseudo-atom occupations:   s ( 2 1 )  p ( 6 )
	FillingsUpdate:  mu: -0.096429319  nElectrons: 9.000000  magneticMoment: [ Abs: 0.64000  Tot: -0.64000 ]
LCAOMinimize: Iter:   0  F: -24.4409114064964399  |grad|_K:  2.461e-05  alpha:  1.000e+00
	FillingsUpdate:  mu: -0.096421083  nElectrons: 9.000000  magneticMoment: [ Abs: 0.64000  Tot: -0.64000 ]
LCAOMinimize: Iter:   1  F: -24.4409118118093112  |grad|_K:  2.351e-07  alpha:  9.787e-01  linmin: -2.475e-02  cgtest:  3.098e-01  t[s]:      4.65
LCAOMinimize: Encountered beta<0, resetting CG.
[d-17-11-3:74973] 18 more processes have sent help message help-mpi-common-cuda.txt / dlopen failed
[d-17-11-3:74973] Set MCA parameter "orte_base_help_aggregate" to 0 to see all help / error messages
[d-17-11-3:74973] 18 more processes have sent help message help-mpi-btl-openib-cpc-base.txt / no cpcs for port
	FillingsUpdate:  mu: -0.096421141  nElectrons: 9.000000  magneticMoment: [ Abs: 0.64000  Tot: -0.64000 ]
LCAOMinimize: Iter:   2  F: -24.4409118118473323  |grad|_K:  1.150e-09  alpha:  1.005e+00  linmin:  9.853e-02  cgtest: -7.671e-01  t[s]:      5.89
LCAOMinimize: Converged (|Delta F|<1.000000e-06 for 2 iters).


---- Citations for features of the code used in this run ----

   Software package:
      R. Sundararaman, K. Letchworth-Weaver, K.A. Schwarz, D. Gunceler, Y. Ozhabes and T.A. Arias, 'JDFTx: software for joint density-functional theory', SoftwareX 6, 278 (2017)

   gga-PBE exchange-correlation functional:
      J.P. Perdew, K. Burke and M. Ernzerhof, Phys. Rev. Lett. 77, 3865 (1996)

   Pseudopotentials:
      M Schlipf and F Gygi, Comput. Phys. Commun. 196, 36 (2015)

   Truncated Coulomb potentials:
      R. Sundararaman and T.A. Arias, Phys. Rev. B 87, 165122 (2013)

This list may not be complete. Please suggest additional citations or
report any other bugs at https://github.com/shankar1729/jdftx/issues

Initialization completed successfully at t[s]:      5.98


-------- Electronic minimization -----------
Will mix electronic density at each iteration.
	FillingsUpdate:  mu: -0.096421141  nElectrons: 9.000000  magneticMoment: [ Abs: 0.64000  Tot: -0.64000 ]
	FillingsUpdate:  mu: -0.106658203  nElectrons: 9.000000  magneticMoment: [ Abs: 0.64000  Tot: -0.64000 ]
SCF: Cycle:  0   F: -24.448866840185829   dF: -7.955e-03   |Residual|: 1.315e-02   |deigs|: 1.779e-01  t[s]:      8.49
	FillingsUpdate:  mu: -0.107050210  nElectrons: 9.000000  magneticMoment: [ Abs: 0.64000  Tot: -0.64000 ]
SCF: Cycle:  1   F: -24.449218032698717   dF: -3.512e-04   |Residual|: 9.367e-03   |deigs|: 7.414e-03  t[s]:     10.36
	FillingsUpdate:  mu: -0.105864766  nElectrons: 9.000000  magneticMoment: [ Abs: 0.64264  Tot: -0.64000 ]
SCF: Cycle:  2   F: -24.449359506265814   dF: -1.415e-04   |Residual|: 5.626e-03   |deigs|: 2.060e-03  t[s]:     12.24
	FillingsUpdate:  mu: -0.104306398  nElectrons: 9.000000  magneticMoment: [ Abs: 0.64007  Tot: -0.64000 ]
SCF: Cycle:  3   F: -24.449431538503479   dF: -7.203e-05   |Residual|: 3.404e-03   |deigs|: 1.790e-03  t[s]:     14.15
	FillingsUpdate:  mu: -0.102282360  nElectrons: 9.000000  magneticMoment: [ Abs: 0.64014  Tot: -0.64000 ]
SCF: Cycle:  4   F: -24.449477376402896   dF: -4.584e-05   |Residual|: 2.296e-03   |deigs|: 2.695e-03  t[s]:     16.18
	FillingsUpdate:  mu: -0.100770886  nElectrons: 9.000000  magneticMoment: [ Abs: 0.64053  Tot: -0.64000 ]
SCF: Cycle:  5   F: -24.449495714757553   dF: -1.834e-05   |Residual|: 1.722e-03   |deigs|: 2.565e-03  t[s]:     18.14
	FillingsUpdate:  mu: -0.098182652  nElectrons: 9.000000  magneticMoment: [ Abs: 0.64648  Tot: -0.64000 ]
SCF: Cycle:  6   F: -24.449493219965120   dF: +2.495e-06   |Residual|: 1.310e-03   |deigs|: 3.499e-03  t[s]:     20.18
	FillingsUpdate:  mu: -0.095633901  nElectrons: 9.000000  magneticMoment: [ Abs: 0.64831  Tot: -0.64000 ]
SCF: Cycle:  7   F: -24.449515007543564   dF: -2.179e-05   |Residual|: 1.208e-03   |deigs|: 3.354e-03  t[s]:     22.25
	FillingsUpdate:  mu: -0.096128026  nElectrons: 9.000000  magneticMoment: [ Abs: 0.64104  Tot: -0.64000 ]
SCF: Cycle:  8   F: -24.449529225565684   dF: -1.422e-05   |Residual|: 9.267e-04   |deigs|: 9.111e-04  t[s]:     24.27
	FillingsUpdate:  mu: -0.094868475  nElectrons: 9.000000  magneticMoment: [ Abs: 0.64224  Tot: -0.64000 ]
SCF: Cycle:  9   F: -24.449533842076875   dF: -4.617e-06   |Residual|: 7.590e-04   |deigs|: 1.261e-03  t[s]:     26.37
	FillingsUpdate:  mu: -0.093425320  nElectrons: 9.000000  magneticMoment: [ Abs: 0.64430  Tot: -0.64000 ]
SCF: Cycle: 10   F: -24.449535891859750   dF: -2.050e-06   |Residual|: 6.293e-04   |deigs|: 1.502e-03  t[s]:     28.48
	FillingsUpdate:  mu: -0.092593623  nElectrons: 9.000000  magneticMoment: [ Abs: 0.64381  Tot: -0.64000 ]
SCF: Cycle: 11   F: -24.449537004689393   dF: -1.113e-06   |Residual|: 5.799e-04   |deigs|: 9.190e-04  t[s]:     30.58
	FillingsUpdate:  mu: -0.091466824  nElectrons: 9.000000  magneticMoment: [ Abs: 0.64391  Tot: -0.64000 ]
SCF: Cycle: 12   F: -24.449544883449335   dF: -7.879e-06   |Residual|: 5.199e-04   |deigs|: 1.153e-03  t[s]:     32.69
	FillingsUpdate:  mu: -0.089582962  nElectrons: 9.000000  magneticMoment: [ Abs: 0.64520  Tot: -0.64000 ]
SCF: Cycle: 13   F: -24.449552844330455   dF: -7.961e-06   |Residual|: 4.643e-04   |deigs|: 1.891e-03  t[s]:     34.85
	FillingsUpdate:  mu: -0.088461665  nElectrons: 9.000000  magneticMoment: [ Abs: 0.64328  Tot: -0.64000 ]
SCF: Cycle: 14   F: -24.449556400935229   dF: -3.557e-06   |Residual|: 4.234e-04   |deigs|: 1.179e-03  t[s]:     36.91
	FillingsUpdate:  mu: -0.087079740  nElectrons: 9.000000  magneticMoment: [ Abs: 0.64123  Tot: -0.64000 ]
SCF: Cycle: 15   F: -24.449559973295223   dF: -3.572e-06   |Residual|: 3.170e-04   |deigs|: 1.490e-03  t[s]:     38.96
	FillingsUpdate:  mu: -0.086666292  nElectrons: 9.000000  magneticMoment: [ Abs: 0.64103  Tot: -0.64000 ]
SCF: Cycle: 16   F: -24.449561531943754   dF: -1.559e-06   |Residual|: 2.318e-04   |deigs|: 5.733e-04  t[s]:     41.02
	FillingsUpdate:  mu: -0.086396676  nElectrons: 9.000000  magneticMoment: [ Abs: 0.64040  Tot: -0.64000 ]
SCF: Cycle: 17   F: -24.449563114891333   dF: -1.583e-06   |Residual|: 1.615e-04   |deigs|: 3.936e-04  t[s]:     43.09
	FillingsUpdate:  mu: -0.086394336  nElectrons: 9.000000  magneticMoment: [ Abs: 0.64020  Tot: -0.64000 ]
SCF: Cycle: 18   F: -24.449563434559977   dF: -3.197e-07   |Residual|: 1.148e-04   |deigs|: 6.851e-04  t[s]:     45.15
	FillingsUpdate:  mu: -0.086329735  nElectrons: 9.000000  magneticMoment: [ Abs: 0.64048  Tot: -0.64000 ]
SCF: Cycle: 19   F: -24.449563663527648   dF: -2.290e-07   |Residual|: 5.448e-05   |deigs|: 2.140e-04  t[s]:     47.28
	FillingsUpdate:  mu: -0.086277911  nElectrons: 9.000000  magneticMoment: [ Abs: 0.64040  Tot: -0.64000 ]
SCF: Cycle: 20   F: -24.449563732328812   dF: -6.880e-08   |Residual|: 3.237e-05   |deigs|: 6.454e-05  t[s]:     49.42
	FillingsUpdate:  mu: -0.086259412  nElectrons: 9.000000  magneticMoment: [ Abs: 0.64041  Tot: -0.64000 ]
SCF: Cycle: 21   F: -24.449563773313905   dF: -4.099e-08   |Residual|: 1.921e-05   |deigs|: 2.878e-05  t[s]:     51.58
	FillingsUpdate:  mu: -0.086273560  nElectrons: 9.000000  magneticMoment: [ Abs: 0.64041  Tot: -0.64000 ]
SCF: Cycle: 22   F: -24.449563787704250   dF: -1.439e-08   |Residual|: 1.552e-05   |deigs|: 1.907e-05  t[s]:     53.65
	FillingsUpdate:  mu: -0.086292097  nElectrons: 9.000000  magneticMoment: [ Abs: 0.64040  Tot: -0.64000 ]
SCF: Cycle: 23   F: -24.449563800172925   dF: -1.247e-08   |Residual|: 1.211e-05   |deigs|: 2.373e-05  t[s]:     55.76
	FillingsUpdate:  mu: -0.086274022  nElectrons: 9.000000  magneticMoment: [ Abs: 0.64034  Tot: -0.64000 ]
SCF: Cycle: 24   F: -24.449563807689234   dF: -7.516e-09   |Residual|: 1.278e-05   |deigs|: 2.112e-05  t[s]:     57.83
	FillingsUpdate:  mu: -0.086267731  nElectrons: 9.000000  magneticMoment: [ Abs: 0.64027  Tot: -0.64000 ]
SCF: Cycle: 25   F: -24.449563812637855   dF: -4.949e-09   |Residual|: 1.162e-05   |deigs|: 1.212e-05  t[s]:     59.93
SCF: Converged (|Delta E|<1.000000e-08 for 2 iters).


# Ionic positions in lattice coordinates:
ion Rb   0.000000000000000   0.000000000000000   0.000000000000000 0

# Forces in Lattice coordinates:
force Rb  -0.000000000000000   0.000000000000000   0.000000000000000 0

# Energy components:
   Eewald =      -18.0480261003326561
       EH =        1.6678877162389103
     Eloc =      -10.5797109591991898
      Enl =       -0.7978914780301893
   Epulay =        0.0000000035676145
      Exc =       -3.6803150641949713
       KE =        6.9884930995100856
-------------------------------------
     Etot =      -24.4495627824403954
       TS =        0.0000010301974605
-------------------------------------
        F =      -24.4495638126378552

IonicMinimize: Iter:   0  F: -24.449563812637855  |grad|_K:  0.000e+00  t[s]:     60.05
IonicMinimize: Converged (|grad|_K<1.000000e-04).

#--- Lowdin population analysis ---
# oxidation-state Rb +0.085
# magnetic-moments Rb -0.561

End date and time: Sun Feb  6 12:35:51 2022  (Duration: 0-0:01:00.07)
Done!
scale=3
magnetization=-0.64
--------------------------------------------------------------------------
The library attempted to open the following supporting CUDA libraries,
but each of them failed.  CUDA-aware support is disabled.
libcuda.so.1: cannot open shared object file: No such file or directory
libcuda.dylib: cannot open shared object file: No such file or directory
/usr/lib64/libcuda.so.1: cannot open shared object file: No such file or directory
/usr/lib64/libcuda.dylib: cannot open shared object file: No such file or directory
If you are not interested in CUDA-aware support, then run with
--mca opal_warn_on_missing_libcuda 0 to suppress this message.  If you are interested
in CUDA-aware support, then try setting LD_LIBRARY_PATH to the location
of libcuda.so.1 to get passed this issue.
--------------------------------------------------------------------------
--------------------------------------------------------------------------
No OpenFabrics connection schemes reported that they were able to be
used on a specific port.  As such, the openib BTL (OpenFabrics
support) will be disabled for this port.

  Local host:           d-17-11-3
  Local device:         mlx5_1
  Local port:           1
  CPCs attempted:       rdmacm, udcm
--------------------------------------------------------------------------

*************** JDFTx 1.6.0 (git hash 42ebbcc2) ***************

Start date and time: Sun Feb  6 12:35:55 2022
Executable jdftx with command-line: -i Alkali.in
Running on hosts (process indices):  d-17-11-3 (0-18)
Divided in process groups (process indices):  0 (0)  1 (1)  2 (2)  3 (3)  4 (4)  5 (5)  6 (6)  7 (7)  8 (8)  9 (9)  10 (10)  11 (11)  12 (12)  13 (13)  14 (14)  15 (15)  16 (16)  17 (17)  18 (18)
Resource initialization completed at t[s]:      0.00
Run totals: 19 processes, 48 threads, 0 GPUs


Input parsed successfully to the following command list (including defaults):

basis kpoint-dependent
coords-type Lattice
core-overlap-check vector
coulomb-interaction Slab 001
davidson-band-ratio 1.1
dump End None
dump-name $INPUT.$VAR
elec-cutoff 20
elec-eigen-algo Davidson
elec-ex-corr gga-PBE
elec-initial-magnetization -0.640000 yes
elec-smearing Fermi 1e-05
electronic-minimize  \
	dirUpdateScheme      FletcherReeves \
	linminMethod         DirUpdateRecommended \
	nIterations          100 \
	history              15 \
	knormThreshold       0 \
	energyDiffThreshold  1e-08 \
	nEnergyDiff          2 \
	alphaTstart          1 \
	alphaTmin            1e-10 \
	updateTestStepSize   yes \
	alphaTreduceFactor   0.1 \
	alphaTincreaseFactor 3 \
	nAlphaAdjustMax      3 \
	wolfeEnergy          0.0001 \
	wolfeGradient        0.9 \
	fdTest               no
electronic-scf  \
	nIterations	10000 \
	energyDiffThreshold	1e-08 \
	residualThreshold	1e-07 \
	mixFraction	0.5 \
	qMetric	0.8 \
	history	10 \
	nEigSteps	2 \
	eigDiffThreshold	1e-08 \
	mixedVariable	Density \
	qKerker	0.8 \
	qKappa	-1 \
	verbose	no \
	mixFractionMag	1.5
exchange-regularization WignerSeitzTruncated
fluid None
fluid-ex-corr (null) lda-PZ
fluid-gummel-loop 10 1.000000e-05
fluid-minimize  \
	dirUpdateScheme      PolakRibiere \
	linminMethod         DirUpdateRecommended \
	nIterations          100 \
	history              15 \
	knormThreshold       0 \
	energyDiffThreshold  0 \
	nEnergyDiff          2 \
	alphaTstart          1 \
	alphaTmin            1e-10 \
	updateTestStepSize   yes \
	alphaTreduceFactor   0.1 \
	alphaTincreaseFactor 3 \
	nAlphaAdjustMax      3 \
	wolfeEnergy          0.0001 \
	wolfeGradient        0.9 \
	fdTest               no
fluid-solvent H2O 55.338 ScalarEOS \
	epsBulk 78.4 \
	pMol 0.92466 \
	epsInf 1.77 \
	Pvap 1.06736e-10 \
	sigmaBulk 4.62e-05 \
	Rvdw 2.61727 \
	Res 1.42 \
	tauNuc 343133 \
	poleEl 15 7 1
forces-output-coords Positions
ion Rb   0.000000000000000   0.000000000000000   0.000000000000000 0
ion-species SG15/$ID_ONCV_PBE.upf
ion-width 0
ionic-minimize  \
	dirUpdateScheme      L-BFGS \
	linminMethod         DirUpdateRecommended \
	nIterations          0 \
	history              15 \
	knormThreshold       0.0001 \
	energyDiffThreshold  1e-06 \
	nEnergyDiff          2 \
	alphaTstart          1 \
	alphaTmin            1e-10 \
	updateTestStepSize   yes \
	alphaTreduceFactor   0.1 \
	alphaTincreaseFactor 3 \
	nAlphaAdjustMax      3 \
	wolfeEnergy          0.0001 \
	wolfeGradient        0.9 \
	fdTest               no
kpoint   0.000000000000   0.000000000000   0.000000000000  1.00000000000000
kpoint-folding 12 12 1 
latt-move-scale 1 1 1
latt-scale 3 3 1 
lattice  \
	   4.727486978767153   -2.363743489383575    0.000000000000000  \
	  -0.000000000000000    4.094123819672498    0.000000000000000  \
	   0.000000000000000    0.000000000000000   40.000000000000000 
lattice-minimize  \
	dirUpdateScheme      L-BFGS \
	linminMethod         DirUpdateRecommended \
	nIterations          0 \
	history              15 \
	knormThreshold       0 \
	energyDiffThreshold  1e-06 \
	nEnergyDiff          2 \
	alphaTstart          1 \
	alphaTmin            1e-10 \
	updateTestStepSize   yes \
	alphaTreduceFactor   0.1 \
	alphaTincreaseFactor 3 \
	nAlphaAdjustMax      3 \
	wolfeEnergy          0.0001 \
	wolfeGradient        0.9 \
	fdTest               no
lcao-params -1 1e-06 1e-05
pcm-variant GLSSA13
spintype z-spin
subspace-rotation-factor 1 yes
symmetries automatic
symmetry-threshold 0.0001



---------- Setting up symmetries ----------

Found 24 point-group symmetries of the bravais lattice
Found 24 space-group symmetries with basis
Applied RMS atom displacement 0 bohrs to make symmetries exact.

---------- Initializing the Grid ----------
R = 
[      14.1825     -7.09123            0  ]
[            0      12.2824            0  ]
[            0            0           40  ]
unit cell volume = 6967.77
G =
[   0.443025   0.255781         -0  ]
[          0   0.511561         -0  ]
[         -0         -0    0.15708  ]
Minimum fftbox size, Smin = [  60  60  164  ]
Chosen fftbox size, S = [  60  60  168  ]

---------- Exchange Correlation functional ----------
Initalized PBE GGA exchange.
Initalized PBE GGA correlation.

---------- Setting up pseudopotentials ----------
Width of ionic core gaussian charges (only for fluid interactions / plotting) set to 0

Reading pseudopotential file '/home/gridsan/aligho/DFT/build-Nov24/pseudopotentials/SG15/Rb_ONCV_PBE.upf':
  'Rb' pseudopotential, 'PBE' functional
  Generated using ONCVPSP code by D. R. Hamann
  Author: Martin Schlipf and Francois Gygi  Date: 150915.
  9 valence electrons, 3 orbitals, 6 projectors, 2308 radial grid points, with lMax = 2
  Transforming local potential to a uniform radial grid of dG=0.02 with 1489 points.
  Transforming nonlocal projectors to a uniform radial grid of dG=0.02 with 432 points.
    4S    l: 0   occupation:  2.0   eigenvalue: -1.172069
    4P    l: 1   occupation:  6.0   eigenvalue: -0.586674
    5S    l: 0   occupation:  1.0   eigenvalue: -0.082006
  Transforming atomic orbitals to a uniform radial grid of dG=0.02 with 432 points.
  Core radius for overlap checks: 2.60 bohrs.
  Reading pulay file /home/gridsan/aligho/DFT/build-Nov24/pseudopotentials/SG15/Rb_ONCV_PBE.pulay ... using dE_dnG = -1.360715e-05 computed for Ecut = 20.

Initialized 1 species with 1 total atoms.

Folded 1 k-points by 12x12x1 to 144 k-points.

---------- Setting up k-points, bands, fillings ----------
Reduced to 19 k-points under symmetry. 
Computing the number of bands and number of electrons
Calculating initial fillings.
nElectrons:   9.000000   nBands: 6   nStates: 38

----- Setting up reduced wavefunction bases (one per k-point) -----
average nbasis = 29766.104 , ideal nbasis = 29766.845

---------- Setting up coulomb interaction ----------
Initialized slab truncation along lattice direction 001

---------- Setting up 2D ewald sum ----------
Optimum gaussian width for ewald sums = 7.873530 bohr.
Real space sums over 289 unit cells with max indices [  8  8  0  ]
Reciprocal space sums over 81 terms with max indices [  4  4  0  ]

---------- Allocating electronic variables ----------
Initializing wave functions:  linear combination of atomic orbitals
Note: number of bands (6) exceeds available atomic orbitals (5)
Rb pseudo-atom occupations:   s ( 2 1 )  p ( 6 )
[d-17-11-3:29907] 18 more processes have sent help message help-mpi-common-cuda.txt / dlopen failed
[d-17-11-3:29907] Set MCA parameter "orte_base_help_aggregate" to 0 to see all help / error messages
[d-17-11-3:29907] 18 more processes have sent help message help-mpi-btl-openib-cpc-base.txt / no cpcs for port
	FillingsUpdate:  mu: -0.085952786  nElectrons: 9.000000  magneticMoment: [ Abs: 0.64000  Tot: -0.64000 ]
LCAOMinimize: Iter:   0  F: -24.4354589836842599  |grad|_K:  1.351e-05  alpha:  1.000e+00
	FillingsUpdate:  mu: -0.085950921  nElectrons: 9.000000  magneticMoment: [ Abs: 0.64000  Tot: -0.64000 ]
LCAOMinimize: Iter:   1  F: -24.4354591074898622  |grad|_K:  1.028e-07  alpha:  9.911e-01  linmin: -1.094e-02  cgtest:  2.276e-01  t[s]:      8.93
LCAOMinimize: Encountered beta<0, resetting CG.
	FillingsUpdate:  mu: -0.085950938  nElectrons: 9.000000  magneticMoment: [ Abs: 0.64000  Tot: -0.64000 ]
LCAOMinimize: Iter:   2  F: -24.4354591074972731  |grad|_K:  2.899e-09  alpha:  1.025e+00  linmin:  1.337e-01  cgtest: -9.727e-01  t[s]:     11.39
LCAOMinimize: Converged (|Delta F|<1.000000e-06 for 2 iters).


---- Citations for features of the code used in this run ----

   Software package:
      R. Sundararaman, K. Letchworth-Weaver, K.A. Schwarz, D. Gunceler, Y. Ozhabes and T.A. Arias, 'JDFTx: software for joint density-functional theory', SoftwareX 6, 278 (2017)

   gga-PBE exchange-correlation functional:
      J.P. Perdew, K. Burke and M. Ernzerhof, Phys. Rev. Lett. 77, 3865 (1996)

   Pseudopotentials:
      M Schlipf and F Gygi, Comput. Phys. Commun. 196, 36 (2015)

   Truncated Coulomb potentials:
      R. Sundararaman and T.A. Arias, Phys. Rev. B 87, 165122 (2013)

This list may not be complete. Please suggest additional citations or
report any other bugs at https://github.com/shankar1729/jdftx/issues

Initialization completed successfully at t[s]:     11.56


-------- Electronic minimization -----------
Will mix electronic density at each iteration.
	FillingsUpdate:  mu: -0.085950938  nElectrons: 9.000000  magneticMoment: [ Abs: 0.64000  Tot: -0.64000 ]
	FillingsUpdate:  mu: -0.087117649  nElectrons: 9.000000  magneticMoment: [ Abs: 0.64000  Tot: -0.64000 ]
SCF: Cycle:  0   F: -24.436995363851580   dF: -1.536e-03   |Residual|: 3.975e-03   |deigs|: 1.735e-01  t[s]:     16.55
	FillingsUpdate:  mu: -0.087305095  nElectrons: 9.000000  magneticMoment: [ Abs: 0.64073  Tot: -0.64000 ]
SCF: Cycle:  1   F: -24.437058337274713   dF: -6.297e-05   |Residual|: 3.101e-03   |deigs|: 4.505e-03  t[s]:     20.36
	FillingsUpdate:  mu: -0.087470975  nElectrons: 9.000000  magneticMoment: [ Abs: 0.64274  Tot: -0.64000 ]
SCF: Cycle:  2   F: -24.437099164851332   dF: -4.083e-05   |Residual|: 2.294e-03   |deigs|: 2.057e-03  t[s]:     24.25
	FillingsUpdate:  mu: -0.087717814  nElectrons: 9.000000  magneticMoment: [ Abs: 0.64359  Tot: -0.64000 ]
SCF: Cycle:  3   F: -24.437127459055088   dF: -2.829e-05   |Residual|: 1.598e-03   |deigs|: 3.575e-03  t[s]:     28.18
	FillingsUpdate:  mu: -0.087767271  nElectrons: 9.000000  magneticMoment: [ Abs: 0.64179  Tot: -0.64000 ]
SCF: Cycle:  4   F: -24.437140722677061   dF: -1.326e-05   |Residual|: 8.433e-04   |deigs|: 1.766e-03  t[s]:     32.21
	FillingsUpdate:  mu: -0.087836777  nElectrons: 9.000000  magneticMoment: [ Abs: 0.64258  Tot: -0.64000 ]
SCF: Cycle:  5   F: -24.437147439131820   dF: -6.716e-06   |Residual|: 5.194e-04   |deigs|: 1.317e-03  t[s]:     36.25
	FillingsUpdate:  mu: -0.087760285  nElectrons: 9.000000  magneticMoment: [ Abs: 0.64227  Tot: -0.64000 ]
SCF: Cycle:  6   F: -24.437151880949756   dF: -4.442e-06   |Residual|: 3.759e-04   |deigs|: 1.156e-03  t[s]:     40.34
	FillingsUpdate:  mu: -0.087595561  nElectrons: 9.000000  magneticMoment: [ Abs: 0.64260  Tot: -0.64000 ]
SCF: Cycle:  7   F: -24.437153069269765   dF: -1.188e-06   |Residual|: 3.016e-04   |deigs|: 4.945e-04  t[s]:     44.56
	FillingsUpdate:  mu: -0.087346082  nElectrons: 9.000000  magneticMoment: [ Abs: 0.64330  Tot: -0.64000 ]
SCF: Cycle:  8   F: -24.437153303267294   dF: -2.340e-07   |Residual|: 2.444e-04   |deigs|: 3.223e-04  t[s]:     48.86
	FillingsUpdate:  mu: -0.086956143  nElectrons: 9.000000  magneticMoment: [ Abs: 0.64365  Tot: -0.64000 ]
SCF: Cycle:  9   F: -24.437152528320492   dF: +7.749e-07   |Residual|: 2.207e-04   |deigs|: 5.044e-04  t[s]:     53.18
	FillingsUpdate:  mu: -0.086730820  nElectrons: 9.000000  magneticMoment: [ Abs: 0.64333  Tot: -0.64000 ]
SCF: Cycle: 10   F: -24.437152710798223   dF: -1.825e-07   |Residual|: 1.951e-04   |deigs|: 3.985e-04  t[s]:     57.58
	FillingsUpdate:  mu: -0.086643816  nElectrons: 9.000000  magneticMoment: [ Abs: 0.64327  Tot: -0.64000 ]
SCF: Cycle: 11   F: -24.437154327009651   dF: -1.616e-06   |Residual|: 1.445e-04   |deigs|: 2.181e-04  t[s]:     62.00
	FillingsUpdate:  mu: -0.086444032  nElectrons: 9.000000  magneticMoment: [ Abs: 0.64372  Tot: -0.64000 ]
SCF: Cycle: 12   F: -24.437154543926432   dF: -2.169e-07   |Residual|: 1.379e-04   |deigs|: 2.559e-04  t[s]:     66.33
	FillingsUpdate:  mu: -0.086057540  nElectrons: 9.000000  magneticMoment: [ Abs: 0.64353  Tot: -0.64000 ]
SCF: Cycle: 13   F: -24.437154311149541   dF: +2.328e-07   |Residual|: 1.352e-04   |deigs|: 5.232e-04  t[s]:     70.82
	FillingsUpdate:  mu: -0.085822972  nElectrons: 9.000000  magneticMoment: [ Abs: 0.64343  Tot: -0.64000 ]
SCF: Cycle: 14   F: -24.437154068159664   dF: +2.430e-07   |Residual|: 1.246e-04   |deigs|: 4.524e-04  t[s]:     75.33
	FillingsUpdate:  mu: -0.085734285  nElectrons: 9.000000  magneticMoment: [ Abs: 0.64327  Tot: -0.64000 ]
SCF: Cycle: 15   F: -24.437154945145348   dF: -8.770e-07   |Residual|: 1.041e-04   |deigs|: 1.821e-04  t[s]:     79.83
	FillingsUpdate:  mu: -0.085534259  nElectrons: 9.000000  magneticMoment: [ Abs: 0.64256  Tot: -0.64000 ]
SCF: Cycle: 16   F: -24.437155696442368   dF: -7.513e-07   |Residual|: 7.476e-05   |deigs|: 2.381e-04  t[s]:     84.26
	FillingsUpdate:  mu: -0.085385074  nElectrons: 9.000000  magneticMoment: [ Abs: 0.64245  Tot: -0.64000 ]
SCF: Cycle: 17   F: -24.437155848490402   dF: -1.520e-07   |Residual|: 5.789e-05   |deigs|: 1.743e-04  t[s]:     88.59
	FillingsUpdate:  mu: -0.085392622  nElectrons: 9.000000  magneticMoment: [ Abs: 0.64242  Tot: -0.64000 ]
SCF: Cycle: 18   F: -24.437155975119232   dF: -1.266e-07   |Residual|: 3.958e-05   |deigs|: 1.393e-04  t[s]:     93.02
	FillingsUpdate:  mu: -0.085391436  nElectrons: 9.000000  magneticMoment: [ Abs: 0.64245  Tot: -0.64000 ]
SCF: Cycle: 19   F: -24.437156106086547   dF: -1.310e-07   |Residual|: 2.271e-05   |deigs|: 6.717e-05  t[s]:     97.42
	FillingsUpdate:  mu: -0.085370622  nElectrons: 9.000000  magneticMoment: [ Abs: 0.64243  Tot: -0.64000 ]
SCF: Cycle: 20   F: -24.437156123966915   dF: -1.788e-08   |Residual|: 1.570e-05   |deigs|: 2.842e-05  t[s]:    101.62
	FillingsUpdate:  mu: -0.085374553  nElectrons: 9.000000  magneticMoment: [ Abs: 0.64245  Tot: -0.64000 ]
SCF: Cycle: 21   F: -24.437156137276475   dF: -1.331e-08   |Residual|: 9.617e-06   |deigs|: 1.236e-05  t[s]:    106.06
	FillingsUpdate:  mu: -0.085376426  nElectrons: 9.000000  magneticMoment: [ Abs: 0.64245  Tot: -0.64000 ]
SCF: Cycle: 22   F: -24.437156147151558   dF: -9.875e-09   |Residual|: 6.576e-06   |deigs|: 6.512e-06  t[s]:    110.47
	FillingsUpdate:  mu: -0.085380661  nElectrons: 9.000000  magneticMoment: [ Abs: 0.64245  Tot: -0.64000 ]
SCF: Cycle: 23   F: -24.437156149957190   dF: -2.806e-09   |Residual|: 4.367e-06   |deigs|: 5.987e-06  t[s]:    114.74
SCF: Converged (|Delta E|<1.000000e-08 for 2 iters).


# Ionic positions in lattice coordinates:
ion Rb   0.000000000000000   0.000000000000000   0.000000000000000 0

# Forces in Lattice coordinates:
force Rb  -0.000000000000000   0.000000000000000   0.000000000000000 0

# Energy components:
   Eewald =      -12.0320174002217755
       EH =        7.5059164146400290
     Eloc =      -22.4179667227275701
      Enl =       -0.7967872675326055
   Epulay =       -0.0000000014467880
      Exc =       -3.6496797755769981
       KE =        6.9533796331059801
-------------------------------------
     Etot =      -24.4371551197597299
       TS =        0.0000010301974605
-------------------------------------
        F =      -24.4371561499571897

IonicMinimize: Iter:   0  F: -24.437156149957190  |grad|_K:  0.000e+00  t[s]:    115.00
IonicMinimize: Converged (|grad|_K<1.000000e-04).

#--- Lowdin population analysis ---
# oxidation-state Rb +0.035
# magnetic-moments Rb -0.609

End date and time: Sun Feb  6 12:37:50 2022  (Duration: 0-0:01:55.05)
Done!
scale=4
magnetization=-0.64
--------------------------------------------------------------------------
The library attempted to open the following supporting CUDA libraries,
but each of them failed.  CUDA-aware support is disabled.
libcuda.so.1: cannot open shared object file: No such file or directory
libcuda.dylib: cannot open shared object file: No such file or directory
/usr/lib64/libcuda.so.1: cannot open shared object file: No such file or directory
/usr/lib64/libcuda.dylib: cannot open shared object file: No such file or directory
If you are not interested in CUDA-aware support, then run with
--mca opal_warn_on_missing_libcuda 0 to suppress this message.  If you are interested
in CUDA-aware support, then try setting LD_LIBRARY_PATH to the location
of libcuda.so.1 to get passed this issue.
--------------------------------------------------------------------------
--------------------------------------------------------------------------
No OpenFabrics connection schemes reported that they were able to be
used on a specific port.  As such, the openib BTL (OpenFabrics
support) will be disabled for this port.

  Local host:           d-17-11-3
  Local device:         mlx5_1
  Local port:           1
  CPCs attempted:       rdmacm, udcm
--------------------------------------------------------------------------

*************** JDFTx 1.6.0 (git hash 42ebbcc2) ***************

Start date and time: Sun Feb  6 12:37:52 2022
Executable jdftx with command-line: -i Alkali.in
Running on hosts (process indices):  d-17-11-3 (0-18)
Divided in process groups (process indices):  0 (0)  1 (1)  2 (2)  3 (3)  4 (4)  5 (5)  6 (6)  7 (7)  8 (8)  9 (9)  10 (10)  11 (11)  12 (12)  13 (13)  14 (14)  15 (15)  16 (16)  17 (17)  18 (18)
Resource initialization completed at t[s]:      0.00
Run totals: 19 processes, 48 threads, 0 GPUs


Input parsed successfully to the following command list (including defaults):

basis kpoint-dependent
coords-type Lattice
core-overlap-check vector
coulomb-interaction Slab 001
davidson-band-ratio 1.1
dump End None
dump-name $INPUT.$VAR
elec-cutoff 20
elec-eigen-algo Davidson
elec-ex-corr gga-PBE
elec-initial-magnetization -0.640000 yes
elec-smearing Fermi 1e-05
electronic-minimize  \
	dirUpdateScheme      FletcherReeves \
	linminMethod         DirUpdateRecommended \
	nIterations          100 \
	history              15 \
	knormThreshold       0 \
	energyDiffThreshold  1e-08 \
	nEnergyDiff          2 \
	alphaTstart          1 \
	alphaTmin            1e-10 \
	updateTestStepSize   yes \
	alphaTreduceFactor   0.1 \
	alphaTincreaseFactor 3 \
	nAlphaAdjustMax      3 \
	wolfeEnergy          0.0001 \
	wolfeGradient        0.9 \
	fdTest               no
electronic-scf  \
	nIterations	10000 \
	energyDiffThreshold	1e-08 \
	residualThreshold	1e-07 \
	mixFraction	0.5 \
	qMetric	0.8 \
	history	10 \
	nEigSteps	2 \
	eigDiffThreshold	1e-08 \
	mixedVariable	Density \
	qKerker	0.8 \
	qKappa	-1 \
	verbose	no \
	mixFractionMag	1.5
exchange-regularization WignerSeitzTruncated
fluid None
fluid-ex-corr (null) lda-PZ
fluid-gummel-loop 10 1.000000e-05
fluid-minimize  \
	dirUpdateScheme      PolakRibiere \
	linminMethod         DirUpdateRecommended \
	nIterations          100 \
	history              15 \
	knormThreshold       0 \
	energyDiffThreshold  0 \
	nEnergyDiff          2 \
	alphaTstart          1 \
	alphaTmin            1e-10 \
	updateTestStepSize   yes \
	alphaTreduceFactor   0.1 \
	alphaTincreaseFactor 3 \
	nAlphaAdjustMax      3 \
	wolfeEnergy          0.0001 \
	wolfeGradient        0.9 \
	fdTest               no
fluid-solvent H2O 55.338 ScalarEOS \
	epsBulk 78.4 \
	pMol 0.92466 \
	epsInf 1.77 \
	Pvap 1.06736e-10 \
	sigmaBulk 4.62e-05 \
	Rvdw 2.61727 \
	Res 1.42 \
	tauNuc 343133 \
	poleEl 15 7 1
forces-output-coords Positions
ion Rb   0.000000000000000   0.000000000000000   0.000000000000000 0
ion-species SG15/$ID_ONCV_PBE.upf
ion-width 0
ionic-minimize  \
	dirUpdateScheme      L-BFGS \
	linminMethod         DirUpdateRecommended \
	nIterations          0 \
	history              15 \
	knormThreshold       0.0001 \
	energyDiffThreshold  1e-06 \
	nEnergyDiff          2 \
	alphaTstart          1 \
	alphaTmin            1e-10 \
	updateTestStepSize   yes \
	alphaTreduceFactor   0.1 \
	alphaTincreaseFactor 3 \
	nAlphaAdjustMax      3 \
	wolfeEnergy          0.0001 \
	wolfeGradient        0.9 \
	fdTest               no
kpoint   0.000000000000   0.000000000000   0.000000000000  1.00000000000000
kpoint-folding 12 12 1 
latt-move-scale 1 1 1
latt-scale 4 4 1 
lattice  \
	   4.727486978767153   -2.363743489383575    0.000000000000000  \
	  -0.000000000000000    4.094123819672498    0.000000000000000  \
	   0.000000000000000    0.000000000000000   40.000000000000000 
lattice-minimize  \
	dirUpdateScheme      L-BFGS \
	linminMethod         DirUpdateRecommended \
	nIterations          0 \
	history              15 \
	knormThreshold       0 \
	energyDiffThreshold  1e-06 \
	nEnergyDiff          2 \
	alphaTstart          1 \
	alphaTmin            1e-10 \
	updateTestStepSize   yes \
	alphaTreduceFactor   0.1 \
	alphaTincreaseFactor 3 \
	nAlphaAdjustMax      3 \
	wolfeEnergy          0.0001 \
	wolfeGradient        0.9 \
	fdTest               no
lcao-params -1 1e-06 1e-05
pcm-variant GLSSA13
spintype z-spin
subspace-rotation-factor 1 yes
symmetries automatic
symmetry-threshold 0.0001



---------- Setting up symmetries ----------

Found 24 point-group symmetries of the bravais lattice
Found 24 space-group symmetries with basis
Applied RMS atom displacement 0 bohrs to make symmetries exact.

---------- Initializing the Grid ----------
R = 
[      18.9099     -9.45497            0  ]
[            0      16.3765            0  ]
[            0            0           40  ]
unit cell volume = 12387.1
G =
[   0.332269   0.191835         -0  ]
[          0   0.383671         -0  ]
[         -0         -0    0.15708  ]
Minimum fftbox size, Smin = [  80  80  164  ]
Chosen fftbox size, S = [  80  80  168  ]

---------- Exchange Correlation functional ----------
Initalized PBE GGA exchange.
Initalized PBE GGA correlation.

---------- Setting up pseudopotentials ----------
Width of ionic core gaussian charges (only for fluid interactions / plotting) set to 0

Reading pseudopotential file '/home/gridsan/aligho/DFT/build-Nov24/pseudopotentials/SG15/Rb_ONCV_PBE.upf':
  'Rb' pseudopotential, 'PBE' functional
  Generated using ONCVPSP code by D. R. Hamann
  Author: Martin Schlipf and Francois Gygi  Date: 150915.
  9 valence electrons, 3 orbitals, 6 projectors, 2308 radial grid points, with lMax = 2
  Transforming local potential to a uniform radial grid of dG=0.02 with 1489 points.
  Transforming nonlocal projectors to a uniform radial grid of dG=0.02 with 432 points.
    4S    l: 0   occupation:  2.0   eigenvalue: -1.172069
    4P    l: 1   occupation:  6.0   eigenvalue: -0.586674
    5S    l: 0   occupation:  1.0   eigenvalue: -0.082006
  Transforming atomic orbitals to a uniform radial grid of dG=0.02 with 432 points.
  Core radius for overlap checks: 2.60 bohrs.
  Reading pulay file /home/gridsan/aligho/DFT/build-Nov24/pseudopotentials/SG15/Rb_ONCV_PBE.pulay ... using dE_dnG = -1.360715e-05 computed for Ecut = 20.

Initialized 1 species with 1 total atoms.

Folded 1 k-points by 12x12x1 to 144 k-points.

---------- Setting up k-points, bands, fillings ----------
Reduced to 19 k-points under symmetry. 
Computing the number of bands and number of electrons
Calculating initial fillings.
nElectrons:   9.000000   nBands: 6   nStates: 38

----- Setting up reduced wavefunction bases (one per k-point) -----
average nbasis = 52924.021 , ideal nbasis = 52918.836

---------- Setting up coulomb interaction ----------
Initialized slab truncation along lattice direction 001

---------- Setting up 2D ewald sum ----------
Optimum gaussian width for ewald sums = 10.498040 bohr.
Real space sums over 289 unit cells with max indices [  8  8  0  ]
Reciprocal space sums over 81 terms with max indices [  4  4  0  ]

---------- Allocating electronic variables ----------
Initializing wave functions:  linear combination of atomic orbitals
Note: number of bands (6) exceeds available atomic orbitals (5)
Rb pseudo-atom occupations:   s ( 2 1 )  p ( 6 )
[d-17-11-3:78921] 18 more processes have sent help message help-mpi-common-cuda.txt / dlopen failed
[d-17-11-3:78921] Set MCA parameter "orte_base_help_aggregate" to 0 to see all help / error messages
[d-17-11-3:78921] 18 more processes have sent help message help-mpi-btl-openib-cpc-base.txt / no cpcs for port
	FillingsUpdate:  mu: -0.082807819  nElectrons: 9.000000  magneticMoment: [ Abs: 0.64000  Tot: -0.64000 ]
LCAOMinimize: Iter:   0  F: -24.4318947357797072  |grad|_K:  3.280e-06  alpha:  1.000e+00
	FillingsUpdate:  mu: -0.082807090  nElectrons: 9.000000  magneticMoment: [ Abs: 0.64000  Tot: -0.64000 ]
LCAOMinimize: Iter:   1  F: -24.4318947430628164  |grad|_K:  1.751e-08  alpha:  9.896e-01  linmin: -8.881e-04  cgtest:  1.270e-01  t[s]:     15.44
LCAOMinimize: Encountered beta<0, resetting CG.
LCAOMinimize: 	Step increased F by 2.131628e-13, reducing alpha to 6.420263e-02.
LCAOMinimize: 	Step increased F by 4.334311e-13, reducing alpha to 6.420263e-03.
LCAOMinimize: 	Step increased F by 3.907985e-13, reducing alpha to 6.420263e-04.
LCAOMinimize: 	Step failed to reduce F after 3 attempts. Quitting step.
LCAOMinimize: 	Undoing step.
LCAOMinimize: 	Step failed along negative gradient direction.
LCAOMinimize: Probably at roundoff error limit. (Stopping)


---- Citations for features of the code used in this run ----

   Software package:
      R. Sundararaman, K. Letchworth-Weaver, K.A. Schwarz, D. Gunceler, Y. Ozhabes and T.A. Arias, 'JDFTx: software for joint density-functional theory', SoftwareX 6, 278 (2017)

   gga-PBE exchange-correlation functional:
      J.P. Perdew, K. Burke and M. Ernzerhof, Phys. Rev. Lett. 77, 3865 (1996)

   Pseudopotentials:
      M Schlipf and F Gygi, Comput. Phys. Commun. 196, 36 (2015)

   Truncated Coulomb potentials:
      R. Sundararaman and T.A. Arias, Phys. Rev. B 87, 165122 (2013)

This list may not be complete. Please suggest additional citations or
report any other bugs at https://github.com/shankar1729/jdftx/issues

Initialization completed successfully at t[s]:     26.91


-------- Electronic minimization -----------
Will mix electronic density at each iteration.
	FillingsUpdate:  mu: -0.082807090  nElectrons: 9.000000  magneticMoment: [ Abs: 0.64000  Tot: -0.64000 ]
	FillingsUpdate:  mu: -0.082905909  nElectrons: 9.000000  magneticMoment: [ Abs: 0.64000  Tot: -0.64000 ]
SCF: Cycle:  0   F: -24.431998177532549   dF: -1.034e-04   |Residual|: 1.465e-03   |deigs|: 1.721e-01  t[s]:     35.26
	FillingsUpdate:  mu: -0.082909042  nElectrons: 9.000000  magneticMoment: [ Abs: 0.64324  Tot: -0.64000 ]
SCF: Cycle:  1   F: -24.432000153857423   dF: -1.976e-06   |Residual|: 3.747e-04   |deigs|: 7.324e-03  t[s]:     41.84
	FillingsUpdate:  mu: -0.082901131  nElectrons: 9.000000  magneticMoment: [ Abs: 0.64334  Tot: -0.64000 ]
SCF: Cycle:  2   F: -24.432000645252412   dF: -4.914e-07   |Residual|: 2.185e-04   |deigs|: 1.841e-03  t[s]:     48.47
	FillingsUpdate:  mu: -0.082897916  nElectrons: 9.000000  magneticMoment: [ Abs: 0.64388  Tot: -0.64000 ]
SCF: Cycle:  3   F: -24.432000924240231   dF: -2.790e-07   |Residual|: 1.618e-04   |deigs|: 7.567e-04  t[s]:     55.32
	FillingsUpdate:  mu: -0.082876136  nElectrons: 9.000000  magneticMoment: [ Abs: 0.64383  Tot: -0.64000 ]
SCF: Cycle:  4   F: -24.432001179959819   dF: -2.557e-07   |Residual|: 1.236e-04   |deigs|: 3.012e-04  t[s]:     62.23
	FillingsUpdate:  mu: -0.082852740  nElectrons: 9.000000  magneticMoment: [ Abs: 0.64387  Tot: -0.64000 ]
SCF: Cycle:  5   F: -24.432001338110751   dF: -1.582e-07   |Residual|: 8.997e-05   |deigs|: 6.710e-04  t[s]:     69.26
	FillingsUpdate:  mu: -0.082819204  nElectrons: 9.000000  magneticMoment: [ Abs: 0.64381  Tot: -0.64000 ]
SCF: Cycle:  6   F: -24.432001436540752   dF: -9.843e-08   |Residual|: 6.418e-05   |deigs|: 3.960e-04  t[s]:     76.37
	FillingsUpdate:  mu: -0.082796118  nElectrons: 9.000000  magneticMoment: [ Abs: 0.64383  Tot: -0.64000 ]
SCF: Cycle:  7   F: -24.432001500372479   dF: -6.383e-08   |Residual|: 5.175e-05   |deigs|: 5.467e-04  t[s]:     83.59
	FillingsUpdate:  mu: -0.082779861  nElectrons: 9.000000  magneticMoment: [ Abs: 0.64382  Tot: -0.64000 ]
SCF: Cycle:  8   F: -24.432001540376405   dF: -4.000e-08   |Residual|: 4.392e-05   |deigs|: 2.573e-04  t[s]:     91.00
	FillingsUpdate:  mu: -0.082755111  nElectrons: 9.000000  magneticMoment: [ Abs: 0.64382  Tot: -0.64000 ]
SCF: Cycle:  9   F: -24.432001577339637   dF: -3.696e-08   |Residual|: 3.317e-05   |deigs|: 9.935e-05  t[s]:     98.56
	FillingsUpdate:  mu: -0.082737013  nElectrons: 9.000000  magneticMoment: [ Abs: 0.64384  Tot: -0.64000 ]
SCF: Cycle: 10   F: -24.432001556305973   dF: +2.103e-08   |Residual|: 2.881e-05   |deigs|: 1.191e-04  t[s]:    106.15
	FillingsUpdate:  mu: -0.082714082  nElectrons: 9.000000  magneticMoment: [ Abs: 0.64392  Tot: -0.64000 ]
SCF: Cycle: 11   F: -24.432001481870305   dF: +7.444e-08   |Residual|: 2.789e-05   |deigs|: 1.720e-04  t[s]:    113.67
	FillingsUpdate:  mu: -0.082698476  nElectrons: 9.000000  magneticMoment: [ Abs: 0.64397  Tot: -0.64000 ]
SCF: Cycle: 12   F: -24.432001393195879   dF: +8.867e-08   |Residual|: 2.556e-05   |deigs|: 1.432e-04  t[s]:    121.23
	FillingsUpdate:  mu: -0.082662045  nElectrons: 9.000000  magneticMoment: [ Abs: 0.64403  Tot: -0.64000 ]
SCF: Cycle: 13   F: -24.432001406127554   dF: -1.293e-08   |Residual|: 2.498e-05   |deigs|: 1.034e-04  t[s]:    128.84
	FillingsUpdate:  mu: -0.082624249  nElectrons: 9.000000  magneticMoment: [ Abs: 0.64409  Tot: -0.64000 ]
SCF: Cycle: 14   F: -24.432001553860744   dF: -1.477e-07   |Residual|: 1.950e-05   |deigs|: 5.975e-05  t[s]:    136.41
	FillingsUpdate:  mu: -0.082572281  nElectrons: 9.000000  magneticMoment: [ Abs: 0.64409  Tot: -0.64000 ]
SCF: Cycle: 15   F: -24.432001381762863   dF: +1.721e-07   |Residual|: 1.986e-05   |deigs|: 6.285e-05  t[s]:    143.79
	FillingsUpdate:  mu: -0.082546948  nElectrons: 9.000000  magneticMoment: [ Abs: 0.64397  Tot: -0.64000 ]
SCF: Cycle: 16   F: -24.432001552999690   dF: -1.712e-07   |Residual|: 1.528e-05   |deigs|: 3.104e-05  t[s]:    151.16
	FillingsUpdate:  mu: -0.082546003  nElectrons: 9.000000  magneticMoment: [ Abs: 0.64390  Tot: -0.64000 ]
SCF: Cycle: 17   F: -24.432001548627625   dF: +4.372e-09   |Residual|: 1.212e-05   |deigs|: 1.558e-05  t[s]:    158.47
	FillingsUpdate:  mu: -0.082542934  nElectrons: 9.000000  magneticMoment: [ Abs: 0.64388  Tot: -0.64000 ]
SCF: Cycle: 18   F: -24.432001619522023   dF: -7.089e-08   |Residual|: 8.111e-06   |deigs|: 1.429e-05  t[s]:    166.06
	FillingsUpdate:  mu: -0.082536469  nElectrons: 9.000000  magneticMoment: [ Abs: 0.64383  Tot: -0.64000 ]
SCF: Cycle: 19   F: -24.432001615193080   dF: +4.329e-09   |Residual|: 6.332e-06   |deigs|: 8.031e-06  t[s]:    173.03
	FillingsUpdate:  mu: -0.082536165  nElectrons: 9.000000  magneticMoment: [ Abs: 0.64382  Tot: -0.64000 ]
SCF: Cycle: 20   F: -24.432001651269399   dF: -3.608e-08   |Residual|: 5.097e-06   |deigs|: 7.507e-06  t[s]:    180.65
	FillingsUpdate:  mu: -0.082540555  nElectrons: 9.000000  magneticMoment: [ Abs: 0.64383  Tot: -0.64000 ]
SCF: Cycle: 21   F: -24.432001641210629   dF: +1.006e-08   |Residual|: 3.964e-06   |deigs|: 1.282e-05  t[s]:    187.55
	FillingsUpdate:  mu: -0.082541009  nElectrons: 9.000000  magneticMoment: [ Abs: 0.64383  Tot: -0.64000 ]
SCF: Cycle: 22   F: -24.432001650678341   dF: -9.468e-09   |Residual|: 2.723e-06   |deigs|: 1.482e-05  t[s]:    194.86
	FillingsUpdate:  mu: -0.082540627  nElectrons: 9.000000  magneticMoment: [ Abs: 0.64383  Tot: -0.64000 ]
SCF: Cycle: 23   F: -24.432001650773532   dF: -9.519e-11   |Residual|: 2.091e-06   |deigs|: 2.000e-05  t[s]:    201.90
SCF: Converged (|Delta E|<1.000000e-08 for 2 iters).


# Ionic positions in lattice coordinates:
ion Rb   0.000000000000000   0.000000000000000   0.000000000000000 0

# Forces in Lattice coordinates:
force Rb   0.000000000000000   0.000000000000000   0.000000000000000 0

# Energy components:
   Eewald =       -9.0240130501663280
       EH =       10.5356862625685856
     Eloc =      -28.4608493767299393
      Enl =       -0.7926062648837795
   Epulay =        0.0000000056959385
      Exc =       -3.6511464422568105
       KE =        6.9609286822039520
-------------------------------------
     Etot =      -24.4320001835683804
       TS =        0.0000014672051534
-------------------------------------
        F =      -24.4320016507735325

IonicMinimize: Iter:   0  F: -24.432001650773532  |grad|_K:  0.000e+00  t[s]:    202.32
IonicMinimize: Converged (|grad|_K<1.000000e-04).

#--- Lowdin population analysis ---
# oxidation-state Rb +0.001
# magnetic-moments Rb -0.639

End date and time: Sun Feb  6 12:41:14 2022  (Duration: 0-0:03:22.39)
Done!
