The alkali metal is Rb
scale=2
magnetization=0.72
--------------------------------------------------------------------------
The library attempted to open the following supporting CUDA libraries,
but each of them failed.  CUDA-aware support is disabled.
libcuda.so.1: cannot open shared object file: No such file or directory
libcuda.dylib: cannot open shared object file: No such file or directory
/usr/lib64/libcuda.so.1: cannot open shared object file: No such file or directory
/usr/lib64/libcuda.dylib: cannot open shared object file: No such file or directory
If you are not interested in CUDA-aware support, then run with
--mca opal_warn_on_missing_libcuda 0 to suppress this message.  If you are interested
in CUDA-aware support, then try setting LD_LIBRARY_PATH to the location
of libcuda.so.1 to get passed this issue.
--------------------------------------------------------------------------
--------------------------------------------------------------------------
No OpenFabrics connection schemes reported that they were able to be
used on a specific port.  As such, the openib BTL (OpenFabrics
support) will be disabled for this port.

  Local host:           d-16-12-3
  Local device:         mlx5_1
  Local port:           1
  CPCs attempted:       rdmacm, udcm
--------------------------------------------------------------------------

*************** JDFTx 1.6.0 (git hash 42ebbcc2) ***************

Start date and time: Sun Feb  6 12:54:17 2022
Executable jdftx with command-line: -i Alkali.in
Running on hosts (process indices):  d-16-12-3 (0-18)
Divided in process groups (process indices):  0 (0)  1 (1)  2 (2)  3 (3)  4 (4)  5 (5)  6 (6)  7 (7)  8 (8)  9 (9)  10 (10)  11 (11)  12 (12)  13 (13)  14 (14)  15 (15)  16 (16)  17 (17)  18 (18)
Resource initialization completed at t[s]:      0.00
Run totals: 19 processes, 48 threads, 0 GPUs


Input parsed successfully to the following command list (including defaults):

basis kpoint-dependent
coords-type Lattice
core-overlap-check vector
coulomb-interaction Slab 001
davidson-band-ratio 1.1
dump End None
dump-name $INPUT.$VAR
elec-cutoff 20
elec-eigen-algo Davidson
elec-ex-corr gga-PBE
elec-initial-magnetization 0.720000 yes
elec-smearing Fermi 1e-05
electronic-minimize  \
	dirUpdateScheme      FletcherReeves \
	linminMethod         DirUpdateRecommended \
	nIterations          100 \
	history              15 \
	knormThreshold       0 \
	energyDiffThreshold  1e-08 \
	nEnergyDiff          2 \
	alphaTstart          1 \
	alphaTmin            1e-10 \
	updateTestStepSize   yes \
	alphaTreduceFactor   0.1 \
	alphaTincreaseFactor 3 \
	nAlphaAdjustMax      3 \
	wolfeEnergy          0.0001 \
	wolfeGradient        0.9 \
	fdTest               no
electronic-scf  \
	nIterations	10000 \
	energyDiffThreshold	1e-08 \
	residualThreshold	1e-07 \
	mixFraction	0.5 \
	qMetric	0.8 \
	history	10 \
	nEigSteps	2 \
	eigDiffThreshold	1e-08 \
	mixedVariable	Density \
	qKerker	0.8 \
	qKappa	-1 \
	verbose	no \
	mixFractionMag	1.5
exchange-regularization WignerSeitzTruncated
fluid None
fluid-ex-corr (null) lda-PZ
fluid-gummel-loop 10 1.000000e-05
fluid-minimize  \
	dirUpdateScheme      PolakRibiere \
	linminMethod         DirUpdateRecommended \
	nIterations          100 \
	history              15 \
	knormThreshold       0 \
	energyDiffThreshold  0 \
	nEnergyDiff          2 \
	alphaTstart          1 \
	alphaTmin            1e-10 \
	updateTestStepSize   yes \
	alphaTreduceFactor   0.1 \
	alphaTincreaseFactor 3 \
	nAlphaAdjustMax      3 \
	wolfeEnergy          0.0001 \
	wolfeGradient        0.9 \
	fdTest               no
fluid-solvent H2O 55.338 ScalarEOS \
	epsBulk 78.4 \
	pMol 0.92466 \
	epsInf 1.77 \
	Pvap 1.06736e-10 \
	sigmaBulk 4.62e-05 \
	Rvdw 2.61727 \
	Res 1.42 \
	tauNuc 343133 \
	poleEl 15 7 1
forces-output-coords Positions
ion Rb   0.000000000000000   0.000000000000000   0.000000000000000 0
ion-species SG15/$ID_ONCV_PBE.upf
ion-width 0
ionic-minimize  \
	dirUpdateScheme      L-BFGS \
	linminMethod         DirUpdateRecommended \
	nIterations          0 \
	history              15 \
	knormThreshold       0.0001 \
	energyDiffThreshold  1e-06 \
	nEnergyDiff          2 \
	alphaTstart          1 \
	alphaTmin            1e-10 \
	updateTestStepSize   yes \
	alphaTreduceFactor   0.1 \
	alphaTincreaseFactor 3 \
	nAlphaAdjustMax      3 \
	wolfeEnergy          0.0001 \
	wolfeGradient        0.9 \
	fdTest               no
kpoint   0.000000000000   0.000000000000   0.000000000000  1.00000000000000
kpoint-folding 12 12 1 
latt-move-scale 1 1 1
latt-scale 2 2 1 
lattice  \
	   4.727486978767153   -2.363743489383575    0.000000000000000  \
	  -0.000000000000000    4.094123819672498    0.000000000000000  \
	   0.000000000000000    0.000000000000000   40.000000000000000 
lattice-minimize  \
	dirUpdateScheme      L-BFGS \
	linminMethod         DirUpdateRecommended \
	nIterations          0 \
	history              15 \
	knormThreshold       0 \
	energyDiffThreshold  1e-06 \
	nEnergyDiff          2 \
	alphaTstart          1 \
	alphaTmin            1e-10 \
	updateTestStepSize   yes \
	alphaTreduceFactor   0.1 \
	alphaTincreaseFactor 3 \
	nAlphaAdjustMax      3 \
	wolfeEnergy          0.0001 \
	wolfeGradient        0.9 \
	fdTest               no
lcao-params -1 1e-06 1e-05
pcm-variant GLSSA13
spintype z-spin
subspace-rotation-factor 1 yes
symmetries automatic
symmetry-threshold 0.0001



---------- Setting up symmetries ----------

Found 24 point-group symmetries of the bravais lattice
Found 24 space-group symmetries with basis
Applied RMS atom displacement 0 bohrs to make symmetries exact.

---------- Initializing the Grid ----------
R = 
[      9.45497     -4.72749            0  ]
[            0      8.18825            0  ]
[            0            0           40  ]
unit cell volume = 3096.79
G =
[   0.664538   0.383671         -0  ]
[          0   0.767342         -0  ]
[         -0         -0    0.15708  ]
Minimum fftbox size, Smin = [  40  40  164  ]
Chosen fftbox size, S = [  40  40  168  ]

---------- Exchange Correlation functional ----------
Initalized PBE GGA exchange.
Initalized PBE GGA correlation.

---------- Setting up pseudopotentials ----------
Width of ionic core gaussian charges (only for fluid interactions / plotting) set to 0

Reading pseudopotential file '/home/gridsan/aligho/DFT/build-Nov24/pseudopotentials/SG15/Rb_ONCV_PBE.upf':
  'Rb' pseudopotential, 'PBE' functional
  Generated using ONCVPSP code by D. R. Hamann
  Author: Martin Schlipf and Francois Gygi  Date: 150915.
  9 valence electrons, 3 orbitals, 6 projectors, 2308 radial grid points, with lMax = 2
  Transforming local potential to a uniform radial grid of dG=0.02 with 1489 points.
  Transforming nonlocal projectors to a uniform radial grid of dG=0.02 with 432 points.
    4S    l: 0   occupation:  2.0   eigenvalue: -1.172069
    4P    l: 1   occupation:  6.0   eigenvalue: -0.586674
    5S    l: 0   occupation:  1.0   eigenvalue: -0.082006
  Transforming atomic orbitals to a uniform radial grid of dG=0.02 with 432 points.
  Core radius for overlap checks: 2.60 bohrs.
  Reading pulay file /home/gridsan/aligho/DFT/build-Nov24/pseudopotentials/SG15/Rb_ONCV_PBE.pulay ... using dE_dnG = -1.360715e-05 computed for Ecut = 20.

Initialized 1 species with 1 total atoms.

Folded 1 k-points by 12x12x1 to 144 k-points.

---------- Setting up k-points, bands, fillings ----------
Reduced to 19 k-points under symmetry. 
Computing the number of bands and number of electrons
Calculating initial fillings.
nElectrons:   9.000000   nBands: 6   nStates: 38

----- Setting up reduced wavefunction bases (one per k-point) -----
average nbasis = 13230.521 , ideal nbasis = 13229.709

---------- Setting up coulomb interaction ----------
Initialized slab truncation along lattice direction 001

---------- Setting up 2D ewald sum ----------
Optimum gaussian width for ewald sums = 5.249020 bohr.
Real space sums over 289 unit cells with max indices [  8  8  0  ]
Reciprocal space sums over 81 terms with max indices [  4  4  0  ]

---------- Allocating electronic variables ----------
Initializing wave functions:  linear combination of atomic orbitals
Note: number of bands (6) exceeds available atomic orbitals (5)
Rb pseudo-atom occupations:   s ( 2 1 )  p ( 6 )
	FillingsUpdate:  mu: -0.095213748  nElectrons: 9.000000  magneticMoment: [ Abs: 0.72000  Tot: +0.72000 ]
LCAOMinimize: Iter:   0  F: -24.4387980964168001  |grad|_K:  2.106e-05  alpha:  1.000e+00
[d-16-12-3:09352] 18 more processes have sent help message help-mpi-common-cuda.txt / dlopen failed
[d-16-12-3:09352] Set MCA parameter "orte_base_help_aggregate" to 0 to see all help / error messages
[d-16-12-3:09352] 18 more processes have sent help message help-mpi-btl-openib-cpc-base.txt / no cpcs for port
	FillingsUpdate:  mu: -0.095207038  nElectrons: 9.000000  magneticMoment: [ Abs: 0.72000  Tot: +0.72000 ]
LCAOMinimize: Iter:   1  F: -24.4387983940403508  |grad|_K:  2.182e-07  alpha:  9.807e-01  linmin: -1.740e-02  cgtest:  2.391e-01  t[s]:      5.35
LCAOMinimize: Encountered beta<0, resetting CG.
	FillingsUpdate:  mu: -0.095207099  nElectrons: 9.000000  magneticMoment: [ Abs: 0.72000  Tot: +0.72000 ]
LCAOMinimize: Iter:   2  F: -24.4387983940730784  |grad|_K:  1.680e-09  alpha:  1.005e+00  linmin:  1.169e-01  cgtest: -6.079e-01  t[s]:      6.54
LCAOMinimize: Converged (|Delta F|<1.000000e-06 for 2 iters).


---- Citations for features of the code used in this run ----

   Software package:
      R. Sundararaman, K. Letchworth-Weaver, K.A. Schwarz, D. Gunceler, Y. Ozhabes and T.A. Arias, 'JDFTx: software for joint density-functional theory', SoftwareX 6, 278 (2017)

   gga-PBE exchange-correlation functional:
      J.P. Perdew, K. Burke and M. Ernzerhof, Phys. Rev. Lett. 77, 3865 (1996)

   Pseudopotentials:
      M Schlipf and F Gygi, Comput. Phys. Commun. 196, 36 (2015)

   Truncated Coulomb potentials:
      R. Sundararaman and T.A. Arias, Phys. Rev. B 87, 165122 (2013)

This list may not be complete. Please suggest additional citations or
report any other bugs at https://github.com/shankar1729/jdftx/issues

Initialization completed successfully at t[s]:      6.64


-------- Electronic minimization -----------
Will mix electronic density at each iteration.
	FillingsUpdate:  mu: -0.095207099  nElectrons: 9.000000  magneticMoment: [ Abs: 0.72000  Tot: +0.72000 ]
	FillingsUpdate:  mu: -0.104565535  nElectrons: 9.000000  magneticMoment: [ Abs: 0.72000  Tot: +0.72000 ]
SCF: Cycle:  0   F: -24.447417289382930   dF: -8.619e-03   |Residual|: 1.410e-02   |deigs|: 1.777e-01  t[s]:      9.12
	FillingsUpdate:  mu: -0.106154894  nElectrons: 9.000000  magneticMoment: [ Abs: 0.72000  Tot: +0.72000 ]
SCF: Cycle:  1   F: -24.447799551002554   dF: -3.823e-04   |Residual|: 1.005e-02   |deigs|: 7.449e-03  t[s]:     10.95
	FillingsUpdate:  mu: -0.105163099  nElectrons: 9.000000  magneticMoment: [ Abs: 0.72259  Tot: +0.72000 ]
SCF: Cycle:  2   F: -24.447969736605142   dF: -1.702e-04   |Residual|: 6.222e-03   |deigs|: 2.850e-03  t[s]:     12.84
	FillingsUpdate:  mu: -0.102221698  nElectrons: 9.000000  magneticMoment: [ Abs: 0.72007  Tot: +0.72000 ]
SCF: Cycle:  3   F: -24.448062401662202   dF: -9.267e-05   |Residual|: 3.511e-03   |deigs|: 2.161e-03  t[s]:     14.74
	FillingsUpdate:  mu: -0.100012326  nElectrons: 9.000000  magneticMoment: [ Abs: 0.72014  Tot: +0.72000 ]
SCF: Cycle:  4   F: -24.448114375491862   dF: -5.197e-05   |Residual|: 2.377e-03   |deigs|: 2.089e-03  t[s]:     16.70
	FillingsUpdate:  mu: -0.098248124  nElectrons: 9.000000  magneticMoment: [ Abs: 0.72050  Tot: +0.72000 ]
SCF: Cycle:  5   F: -24.448132875018672   dF: -1.850e-05   |Residual|: 1.798e-03   |deigs|: 3.471e-03  t[s]:     18.70
	FillingsUpdate:  mu: -0.095320852  nElectrons: 9.000000  magneticMoment: [ Abs: 0.72671  Tot: +0.72000 ]
SCF: Cycle:  6   F: -24.448131897535095   dF: +9.775e-07   |Residual|: 1.399e-03   |deigs|: 3.224e-03  t[s]:     20.78
	FillingsUpdate:  mu: -0.092973110  nElectrons: 9.000000  magneticMoment: [ Abs: 0.72776  Tot: +0.72000 ]
SCF: Cycle:  7   F: -24.448157877326960   dF: -2.598e-05   |Residual|: 1.221e-03   |deigs|: 2.997e-03  t[s]:     22.78
	FillingsUpdate:  mu: -0.093442071  nElectrons: 9.000000  magneticMoment: [ Abs: 0.72060  Tot: +0.72000 ]
SCF: Cycle:  8   F: -24.448173833559050   dF: -1.596e-05   |Residual|: 9.252e-04   |deigs|: 1.883e-03  t[s]:     24.87
	FillingsUpdate:  mu: -0.091930016  nElectrons: 9.000000  magneticMoment: [ Abs: 0.72232  Tot: +0.72000 ]
SCF: Cycle:  9   F: -24.448177496078856   dF: -3.663e-06   |Residual|: 7.475e-04   |deigs|: 1.514e-03  t[s]:     26.95
	FillingsUpdate:  mu: -0.090488120  nElectrons: 9.000000  magneticMoment: [ Abs: 0.72416  Tot: +0.72000 ]
SCF: Cycle: 10   F: -24.448179787462003   dF: -2.291e-06   |Residual|: 6.410e-04   |deigs|: 1.499e-03  t[s]:     29.01
	FillingsUpdate:  mu: -0.089862422  nElectrons: 9.000000  magneticMoment: [ Abs: 0.72367  Tot: +0.72000 ]
SCF: Cycle: 11   F: -24.448183840105560   dF: -4.053e-06   |Residual|: 5.886e-04   |deigs|: 7.023e-04  t[s]:     31.12
	FillingsUpdate:  mu: -0.088852094  nElectrons: 9.000000  magneticMoment: [ Abs: 0.72418  Tot: +0.72000 ]
SCF: Cycle: 12   F: -24.448191871227138   dF: -8.031e-06   |Residual|: 5.411e-04   |deigs|: 1.016e-03  t[s]:     33.32
	FillingsUpdate:  mu: -0.086888681  nElectrons: 9.000000  magneticMoment: [ Abs: 0.72524  Tot: +0.72000 ]
SCF: Cycle: 13   F: -24.448197877046578   dF: -6.006e-06   |Residual|: 4.768e-04   |deigs|: 1.971e-03  t[s]:     35.51
	FillingsUpdate:  mu: -0.085797069  nElectrons: 9.000000  magneticMoment: [ Abs: 0.72341  Tot: +0.72000 ]
SCF: Cycle: 14   F: -24.448201048661247   dF: -3.172e-06   |Residual|: 4.376e-04   |deigs|: 1.157e-03  t[s]:     37.55
	FillingsUpdate:  mu: -0.084362944  nElectrons: 9.000000  magneticMoment: [ Abs: 0.72146  Tot: +0.72000 ]
SCF: Cycle: 15   F: -24.448205152799840   dF: -4.104e-06   |Residual|: 3.282e-04   |deigs|: 1.559e-03  t[s]:     39.63
	FillingsUpdate:  mu: -0.083896473  nElectrons: 9.000000  magneticMoment: [ Abs: 0.72116  Tot: +0.72000 ]
SCF: Cycle: 16   F: -24.448206876587587   dF: -1.724e-06   |Residual|: 2.434e-04   |deigs|: 8.254e-04  t[s]:     41.68
	FillingsUpdate:  mu: -0.083582166  nElectrons: 9.000000  magneticMoment: [ Abs: 0.72047  Tot: +0.72000 ]
SCF: Cycle: 17   F: -24.448208655613062   dF: -1.779e-06   |Residual|: 1.707e-04   |deigs|: 4.012e-04  t[s]:     43.78
	FillingsUpdate:  mu: -0.083574996  nElectrons: 9.000000  magneticMoment: [ Abs: 0.72028  Tot: +0.72000 ]
SCF: Cycle: 18   F: -24.448208997836623   dF: -3.422e-07   |Residual|: 1.229e-04   |deigs|: 3.857e-04  t[s]:     45.80
	FillingsUpdate:  mu: -0.083462340  nElectrons: 9.000000  magneticMoment: [ Abs: 0.72067  Tot: +0.72000 ]
SCF: Cycle: 19   F: -24.448209287293341   dF: -2.895e-07   |Residual|: 5.986e-05   |deigs|: 1.504e-04  t[s]:     48.01
	FillingsUpdate:  mu: -0.083403812  nElectrons: 9.000000  magneticMoment: [ Abs: 0.72064  Tot: +0.72000 ]
SCF: Cycle: 20   F: -24.448209383917902   dF: -9.662e-08   |Residual|: 3.296e-05   |deigs|: 7.278e-05  t[s]:     50.09
	FillingsUpdate:  mu: -0.083388514  nElectrons: 9.000000  magneticMoment: [ Abs: 0.72064  Tot: +0.72000 ]
SCF: Cycle: 21   F: -24.448209414611707   dF: -3.069e-08   |Residual|: 2.210e-05   |deigs|: 2.640e-05  t[s]:     52.20
	FillingsUpdate:  mu: -0.083404223  nElectrons: 9.000000  magneticMoment: [ Abs: 0.72060  Tot: +0.72000 ]
SCF: Cycle: 22   F: -24.448209445661544   dF: -3.105e-08   |Residual|: 1.854e-05   |deigs|: 2.623e-05  t[s]:     54.33
	FillingsUpdate:  mu: -0.083455647  nElectrons: 9.000000  magneticMoment: [ Abs: 0.72047  Tot: +0.72000 ]
SCF: Cycle: 23   F: -24.448209457523866   dF: -1.186e-08   |Residual|: 1.671e-05   |deigs|: 6.015e-05  t[s]:     56.42
	FillingsUpdate:  mu: -0.083443700  nElectrons: 9.000000  magneticMoment: [ Abs: 0.72038  Tot: +0.72000 ]
SCF: Cycle: 24   F: -24.448209471008841   dF: -1.348e-08   |Residual|: 1.482e-05   |deigs|: 2.750e-05  t[s]:     58.59
	FillingsUpdate:  mu: -0.083436914  nElectrons: 9.000000  magneticMoment: [ Abs: 0.72027  Tot: +0.72000 ]
SCF: Cycle: 25   F: -24.448209473882013   dF: -2.873e-09   |Residual|: 1.352e-05   |deigs|: 9.489e-05  t[s]:     60.64
	FillingsUpdate:  mu: -0.083426506  nElectrons: 9.000000  magneticMoment: [ Abs: 0.72017  Tot: +0.72000 ]
SCF: Cycle: 26   F: -24.448209484398934   dF: -1.052e-08   |Residual|: 9.245e-06   |deigs|: 2.821e-05  t[s]:     62.70
	FillingsUpdate:  mu: -0.083417457  nElectrons: 9.000000  magneticMoment: [ Abs: 0.72013  Tot: +0.72000 ]
SCF: Cycle: 27   F: -24.448209486750063   dF: -2.351e-09   |Residual|: 6.190e-06   |deigs|: 1.783e-05  t[s]:     64.79
	FillingsUpdate:  mu: -0.083413333  nElectrons: 9.000000  magneticMoment: [ Abs: 0.72013  Tot: +0.72000 ]
SCF: Cycle: 28   F: -24.448209487760170   dF: -1.010e-09   |Residual|: 4.740e-06   |deigs|: 2.109e-05  t[s]:     66.89
SCF: Converged (|Delta E|<1.000000e-08 for 2 iters).


# Ionic positions in lattice coordinates:
ion Rb   0.000000000000000   0.000000000000000   0.000000000000000 0

# Forces in Lattice coordinates:
force Rb  -0.000000000000000   0.000000000000000   0.000000000000000 0

# Energy components:
   Eewald =      -18.0480261003326561
       EH =        1.6760129954949816
     Eloc =      -10.5878994072937189
      Enl =       -0.7982068121615866
   Epulay =        0.0000000035676145
      Exc =       -3.6814818571002732
       KE =        6.9913919981908119
-------------------------------------
     Etot =      -24.4482091796348300
       TS =        0.0000003081253407
-------------------------------------
        F =      -24.4482094877601703

IonicMinimize: Iter:   0  F: -24.448209487760170  |grad|_K:  0.000e+00  t[s]:     67.02
IonicMinimize: Converged (|grad|_K<1.000000e-04).

#--- Lowdin population analysis ---
# oxidation-state Rb +0.094
# magnetic-moments Rb +0.630

End date and time: Sun Feb  6 12:55:24 2022  (Duration: 0-0:01:07.04)
Done!
scale=3
magnetization=0.72
--------------------------------------------------------------------------
The library attempted to open the following supporting CUDA libraries,
but each of them failed.  CUDA-aware support is disabled.
libcuda.so.1: cannot open shared object file: No such file or directory
libcuda.dylib: cannot open shared object file: No such file or directory
/usr/lib64/libcuda.so.1: cannot open shared object file: No such file or directory
/usr/lib64/libcuda.dylib: cannot open shared object file: No such file or directory
If you are not interested in CUDA-aware support, then run with
--mca opal_warn_on_missing_libcuda 0 to suppress this message.  If you are interested
in CUDA-aware support, then try setting LD_LIBRARY_PATH to the location
of libcuda.so.1 to get passed this issue.
--------------------------------------------------------------------------
--------------------------------------------------------------------------
No OpenFabrics connection schemes reported that they were able to be
used on a specific port.  As such, the openib BTL (OpenFabrics
support) will be disabled for this port.

  Local host:           d-16-12-3
  Local device:         mlx5_1
  Local port:           1
  CPCs attempted:       rdmacm, udcm
--------------------------------------------------------------------------

*************** JDFTx 1.6.0 (git hash 42ebbcc2) ***************

Start date and time: Sun Feb  6 12:55:25 2022
Executable jdftx with command-line: -i Alkali.in
Running on hosts (process indices):  d-16-12-3 (0-18)
Divided in process groups (process indices):  0 (0)  1 (1)  2 (2)  3 (3)  4 (4)  5 (5)  6 (6)  7 (7)  8 (8)  9 (9)  10 (10)  11 (11)  12 (12)  13 (13)  14 (14)  15 (15)  16 (16)  17 (17)  18 (18)
Resource initialization completed at t[s]:      0.00
Run totals: 19 processes, 48 threads, 0 GPUs


Input parsed successfully to the following command list (including defaults):

basis kpoint-dependent
coords-type Lattice
core-overlap-check vector
coulomb-interaction Slab 001
davidson-band-ratio 1.1
dump End None
dump-name $INPUT.$VAR
elec-cutoff 20
elec-eigen-algo Davidson
elec-ex-corr gga-PBE
elec-initial-magnetization 0.720000 yes
elec-smearing Fermi 1e-05
electronic-minimize  \
	dirUpdateScheme      FletcherReeves \
	linminMethod         DirUpdateRecommended \
	nIterations          100 \
	history              15 \
	knormThreshold       0 \
	energyDiffThreshold  1e-08 \
	nEnergyDiff          2 \
	alphaTstart          1 \
	alphaTmin            1e-10 \
	updateTestStepSize   yes \
	alphaTreduceFactor   0.1 \
	alphaTincreaseFactor 3 \
	nAlphaAdjustMax      3 \
	wolfeEnergy          0.0001 \
	wolfeGradient        0.9 \
	fdTest               no
electronic-scf  \
	nIterations	10000 \
	energyDiffThreshold	1e-08 \
	residualThreshold	1e-07 \
	mixFraction	0.5 \
	qMetric	0.8 \
	history	10 \
	nEigSteps	2 \
	eigDiffThreshold	1e-08 \
	mixedVariable	Density \
	qKerker	0.8 \
	qKappa	-1 \
	verbose	no \
	mixFractionMag	1.5
exchange-regularization WignerSeitzTruncated
fluid None
fluid-ex-corr (null) lda-PZ
fluid-gummel-loop 10 1.000000e-05
fluid-minimize  \
	dirUpdateScheme      PolakRibiere \
	linminMethod         DirUpdateRecommended \
	nIterations          100 \
	history              15 \
	knormThreshold       0 \
	energyDiffThreshold  0 \
	nEnergyDiff          2 \
	alphaTstart          1 \
	alphaTmin            1e-10 \
	updateTestStepSize   yes \
	alphaTreduceFactor   0.1 \
	alphaTincreaseFactor 3 \
	nAlphaAdjustMax      3 \
	wolfeEnergy          0.0001 \
	wolfeGradient        0.9 \
	fdTest               no
fluid-solvent H2O 55.338 ScalarEOS \
	epsBulk 78.4 \
	pMol 0.92466 \
	epsInf 1.77 \
	Pvap 1.06736e-10 \
	sigmaBulk 4.62e-05 \
	Rvdw 2.61727 \
	Res 1.42 \
	tauNuc 343133 \
	poleEl 15 7 1
forces-output-coords Positions
ion Rb   0.000000000000000   0.000000000000000   0.000000000000000 0
ion-species SG15/$ID_ONCV_PBE.upf
ion-width 0
ionic-minimize  \
	dirUpdateScheme      L-BFGS \
	linminMethod         DirUpdateRecommended \
	nIterations          0 \
	history              15 \
	knormThreshold       0.0001 \
	energyDiffThreshold  1e-06 \
	nEnergyDiff          2 \
	alphaTstart          1 \
	alphaTmin            1e-10 \
	updateTestStepSize   yes \
	alphaTreduceFactor   0.1 \
	alphaTincreaseFactor 3 \
	nAlphaAdjustMax      3 \
	wolfeEnergy          0.0001 \
	wolfeGradient        0.9 \
	fdTest               no
kpoint   0.000000000000   0.000000000000   0.000000000000  1.00000000000000
kpoint-folding 12 12 1 
latt-move-scale 1 1 1
latt-scale 3 3 1 
lattice  \
	   4.727486978767153   -2.363743489383575    0.000000000000000  \
	  -0.000000000000000    4.094123819672498    0.000000000000000  \
	   0.000000000000000    0.000000000000000   40.000000000000000 
lattice-minimize  \
	dirUpdateScheme      L-BFGS \
	linminMethod         DirUpdateRecommended \
	nIterations          0 \
	history              15 \
	knormThreshold       0 \
	energyDiffThreshold  1e-06 \
	nEnergyDiff          2 \
	alphaTstart          1 \
	alphaTmin            1e-10 \
	updateTestStepSize   yes \
	alphaTreduceFactor   0.1 \
	alphaTincreaseFactor 3 \
	nAlphaAdjustMax      3 \
	wolfeEnergy          0.0001 \
	wolfeGradient        0.9 \
	fdTest               no
lcao-params -1 1e-06 1e-05
pcm-variant GLSSA13
spintype z-spin
subspace-rotation-factor 1 yes
symmetries automatic
symmetry-threshold 0.0001



---------- Setting up symmetries ----------

Found 24 point-group symmetries of the bravais lattice
Found 24 space-group symmetries with basis
Applied RMS atom displacement 0 bohrs to make symmetries exact.

---------- Initializing the Grid ----------
R = 
[      14.1825     -7.09123            0  ]
[            0      12.2824            0  ]
[            0            0           40  ]
unit cell volume = 6967.77
G =
[   0.443025   0.255781         -0  ]
[          0   0.511561         -0  ]
[         -0         -0    0.15708  ]
Minimum fftbox size, Smin = [  60  60  164  ]
Chosen fftbox size, S = [  60  60  168  ]

---------- Exchange Correlation functional ----------
Initalized PBE GGA exchange.
Initalized PBE GGA correlation.

---------- Setting up pseudopotentials ----------
Width of ionic core gaussian charges (only for fluid interactions / plotting) set to 0

Reading pseudopotential file '/home/gridsan/aligho/DFT/build-Nov24/pseudopotentials/SG15/Rb_ONCV_PBE.upf':
  'Rb' pseudopotential, 'PBE' functional
  Generated using ONCVPSP code by D. R. Hamann
  Author: Martin Schlipf and Francois Gygi  Date: 150915.
  9 valence electrons, 3 orbitals, 6 projectors, 2308 radial grid points, with lMax = 2
  Transforming local potential to a uniform radial grid of dG=0.02 with 1489 points.
  Transforming nonlocal projectors to a uniform radial grid of dG=0.02 with 432 points.
    4S    l: 0   occupation:  2.0   eigenvalue: -1.172069
    4P    l: 1   occupation:  6.0   eigenvalue: -0.586674
    5S    l: 0   occupation:  1.0   eigenvalue: -0.082006
  Transforming atomic orbitals to a uniform radial grid of dG=0.02 with 432 points.
  Core radius for overlap checks: 2.60 bohrs.
  Reading pulay file /home/gridsan/aligho/DFT/build-Nov24/pseudopotentials/SG15/Rb_ONCV_PBE.pulay ... using dE_dnG = -1.360715e-05 computed for Ecut = 20.

Initialized 1 species with 1 total atoms.

Folded 1 k-points by 12x12x1 to 144 k-points.

---------- Setting up k-points, bands, fillings ----------
Reduced to 19 k-points under symmetry. 
Computing the number of bands and number of electrons
Calculating initial fillings.
nElectrons:   9.000000   nBands: 6   nStates: 38

----- Setting up reduced wavefunction bases (one per k-point) -----
average nbasis = 29766.104 , ideal nbasis = 29766.845

---------- Setting up coulomb interaction ----------
Initialized slab truncation along lattice direction 001

---------- Setting up 2D ewald sum ----------
Optimum gaussian width for ewald sums = 7.873530 bohr.
Real space sums over 289 unit cells with max indices [  8  8  0  ]
Reciprocal space sums over 81 terms with max indices [  4  4  0  ]

---------- Allocating electronic variables ----------
Initializing wave functions:  linear combination of atomic orbitals
Note: number of bands (6) exceeds available atomic orbitals (5)
Rb pseudo-atom occupations:   s ( 2 1 )  p ( 6 )
[d-16-12-3:01776] 18 more processes have sent help message help-mpi-common-cuda.txt / dlopen failed
[d-16-12-3:01776] Set MCA parameter "orte_base_help_aggregate" to 0 to see all help / error messages
[d-16-12-3:01776] 18 more processes have sent help message help-mpi-btl-openib-cpc-base.txt / no cpcs for port
	FillingsUpdate:  mu: -0.085637676  nElectrons: 9.000000  magneticMoment: [ Abs: 0.72000  Tot: +0.72000 ]
LCAOMinimize: Iter:   0  F: -24.4351973740325370  |grad|_K:  1.047e-05  alpha:  1.000e+00
	FillingsUpdate:  mu: -0.085635663  nElectrons: 9.000000  magneticMoment: [ Abs: 0.72000  Tot: +0.72000 ]
LCAOMinimize: Iter:   1  F: -24.4351974482203858  |grad|_K:  7.389e-08  alpha:  9.901e-01  linmin: -9.276e-03  cgtest:  2.120e-01  t[s]:      8.89
LCAOMinimize: Encountered beta<0, resetting CG.
	FillingsUpdate:  mu: -0.085635671  nElectrons: 9.000000  magneticMoment: [ Abs: 0.72000  Tot: +0.72000 ]
LCAOMinimize: Iter:   2  F: -24.4351974482239420  |grad|_K:  2.181e-09  alpha:  1.027e+00  linmin:  9.285e-02  cgtest: -9.815e-01  t[s]:     11.27
LCAOMinimize: Converged (|Delta F|<1.000000e-06 for 2 iters).


---- Citations for features of the code used in this run ----

   Software package:
      R. Sundararaman, K. Letchworth-Weaver, K.A. Schwarz, D. Gunceler, Y. Ozhabes and T.A. Arias, 'JDFTx: software for joint density-functional theory', SoftwareX 6, 278 (2017)

   gga-PBE exchange-correlation functional:
      J.P. Perdew, K. Burke and M. Ernzerhof, Phys. Rev. Lett. 77, 3865 (1996)

   Pseudopotentials:
      M Schlipf and F Gygi, Comput. Phys. Commun. 196, 36 (2015)

   Truncated Coulomb potentials:
      R. Sundararaman and T.A. Arias, Phys. Rev. B 87, 165122 (2013)

This list may not be complete. Please suggest additional citations or
report any other bugs at https://github.com/shankar1729/jdftx/issues

Initialization completed successfully at t[s]:     11.43


-------- Electronic minimization -----------
Will mix electronic density at each iteration.
	FillingsUpdate:  mu: -0.085635671  nElectrons: 9.000000  magneticMoment: [ Abs: 0.72000  Tot: +0.72000 ]
	FillingsUpdate:  mu: -0.086644131  nElectrons: 9.000000  magneticMoment: [ Abs: 0.72000  Tot: +0.72000 ]
SCF: Cycle:  0   F: -24.436668167195617   dF: -1.471e-03   |Residual|: 3.917e-03   |deigs|: 1.735e-01  t[s]:     16.35
	FillingsUpdate:  mu: -0.086853876  nElectrons: 9.000000  magneticMoment: [ Abs: 0.72107  Tot: +0.72000 ]
SCF: Cycle:  1   F: -24.436732280562516   dF: -6.411e-05   |Residual|: 2.970e-03   |deigs|: 5.001e-03  t[s]:     20.22
	FillingsUpdate:  mu: -0.087053076  nElectrons: 9.000000  magneticMoment: [ Abs: 0.72313  Tot: +0.72000 ]
SCF: Cycle:  2   F: -24.436773398841591   dF: -4.112e-05   |Residual|: 2.251e-03   |deigs|: 1.782e-03  t[s]:     24.10
	FillingsUpdate:  mu: -0.087340640  nElectrons: 9.000000  magneticMoment: [ Abs: 0.72405  Tot: +0.72000 ]
SCF: Cycle:  3   F: -24.436805388494054   dF: -3.199e-05   |Residual|: 1.624e-03   |deigs|: 2.441e-03  t[s]:     28.05
	FillingsUpdate:  mu: -0.087348254  nElectrons: 9.000000  magneticMoment: [ Abs: 0.72234  Tot: +0.72000 ]
SCF: Cycle:  4   F: -24.436822420351529   dF: -1.703e-05   |Residual|: 8.825e-04   |deigs|: 2.414e-03  t[s]:     32.00
	FillingsUpdate:  mu: -0.087369882  nElectrons: 9.000000  magneticMoment: [ Abs: 0.72305  Tot: +0.72000 ]
SCF: Cycle:  5   F: -24.436828715739626   dF: -6.295e-06   |Residual|: 5.242e-04   |deigs|: 1.257e-03  t[s]:     36.04
	FillingsUpdate:  mu: -0.087296271  nElectrons: 9.000000  magneticMoment: [ Abs: 0.72267  Tot: +0.72000 ]
SCF: Cycle:  6   F: -24.436833031695311   dF: -4.316e-06   |Residual|: 3.854e-04   |deigs|: 1.675e-03  t[s]:     40.11
	FillingsUpdate:  mu: -0.087119509  nElectrons: 9.000000  magneticMoment: [ Abs: 0.72305  Tot: +0.72000 ]
SCF: Cycle:  7   F: -24.436834669217220   dF: -1.638e-06   |Residual|: 2.993e-04   |deigs|: 9.912e-04  t[s]:     44.27
	FillingsUpdate:  mu: -0.086851155  nElectrons: 9.000000  magneticMoment: [ Abs: 0.72366  Tot: +0.72000 ]
SCF: Cycle:  8   F: -24.436834669538854   dF: -3.216e-10   |Residual|: 2.478e-04   |deigs|: 3.628e-04  t[s]:     48.46
	FillingsUpdate:  mu: -0.086460936  nElectrons: 9.000000  magneticMoment: [ Abs: 0.72411  Tot: +0.72000 ]
SCF: Cycle:  9   F: -24.436833961358097   dF: +7.082e-07   |Residual|: 2.208e-04   |deigs|: 4.780e-04  t[s]:     52.78
	FillingsUpdate:  mu: -0.086235370  nElectrons: 9.000000  magneticMoment: [ Abs: 0.72367  Tot: +0.72000 ]
SCF: Cycle: 10   F: -24.436834469113553   dF: -5.078e-07   |Residual|: 1.978e-04   |deigs|: 2.298e-04  t[s]:     57.16
	FillingsUpdate:  mu: -0.086183672  nElectrons: 9.000000  magneticMoment: [ Abs: 0.72373  Tot: +0.72000 ]
SCF: Cycle: 11   F: -24.436836249846241   dF: -1.781e-06   |Residual|: 1.439e-04   |deigs|: 2.979e-04  t[s]:     61.55
	FillingsUpdate:  mu: -0.085984165  nElectrons: 9.000000  magneticMoment: [ Abs: 0.72422  Tot: +0.72000 ]
SCF: Cycle: 12   F: -24.436836428520259   dF: -1.787e-07   |Residual|: 1.353e-04   |deigs|: 2.593e-04  t[s]:     65.83
	FillingsUpdate:  mu: -0.085619786  nElectrons: 9.000000  magneticMoment: [ Abs: 0.72414  Tot: +0.72000 ]
SCF: Cycle: 13   F: -24.436836316616425   dF: +1.119e-07   |Residual|: 1.343e-04   |deigs|: 3.943e-04  t[s]:     70.20
	FillingsUpdate:  mu: -0.085394511  nElectrons: 9.000000  magneticMoment: [ Abs: 0.72393  Tot: +0.72000 ]
SCF: Cycle: 14   F: -24.436836131274184   dF: +1.853e-07   |Residual|: 1.235e-04   |deigs|: 4.656e-04  t[s]:     74.58
	FillingsUpdate:  mu: -0.085296756  nElectrons: 9.000000  magneticMoment: [ Abs: 0.72382  Tot: +0.72000 ]
SCF: Cycle: 15   F: -24.436836952994817   dF: -8.217e-07   |Residual|: 1.040e-04   |deigs|: 2.486e-04  t[s]:     78.94
	FillingsUpdate:  mu: -0.085068734  nElectrons: 9.000000  magneticMoment: [ Abs: 0.72306  Tot: +0.72000 ]
SCF: Cycle: 16   F: -24.436837630412104   dF: -6.774e-07   |Residual|: 7.972e-05   |deigs|: 2.707e-04  t[s]:     83.28
	FillingsUpdate:  mu: -0.084948970  nElectrons: 9.000000  magneticMoment: [ Abs: 0.72288  Tot: +0.72000 ]
SCF: Cycle: 17   F: -24.436837787683714   dF: -1.573e-07   |Residual|: 6.240e-05   |deigs|: 1.386e-04  t[s]:     87.61
	FillingsUpdate:  mu: -0.084948909  nElectrons: 9.000000  magneticMoment: [ Abs: 0.72287  Tot: +0.72000 ]
SCF: Cycle: 18   F: -24.436837916085075   dF: -1.284e-07   |Residual|: 4.230e-05   |deigs|: 6.414e-05  t[s]:     91.96
	FillingsUpdate:  mu: -0.084931970  nElectrons: 9.000000  magneticMoment: [ Abs: 0.72291  Tot: +0.72000 ]
SCF: Cycle: 19   F: -24.436838078598246   dF: -1.625e-07   |Residual|: 2.561e-05   |deigs|: 5.719e-05  t[s]:     96.26
	FillingsUpdate:  mu: -0.084916109  nElectrons: 9.000000  magneticMoment: [ Abs: 0.72290  Tot: +0.72000 ]
SCF: Cycle: 20   F: -24.436838105114663   dF: -2.652e-08   |Residual|: 1.651e-05   |deigs|: 3.822e-05  t[s]:    100.51
	FillingsUpdate:  mu: -0.084919923  nElectrons: 9.000000  magneticMoment: [ Abs: 0.72292  Tot: +0.72000 ]
SCF: Cycle: 21   F: -24.436838125108896   dF: -1.999e-08   |Residual|: 1.054e-05   |deigs|: 2.142e-05  t[s]:    104.82
	FillingsUpdate:  mu: -0.084921609  nElectrons: 9.000000  magneticMoment: [ Abs: 0.72291  Tot: +0.72000 ]
SCF: Cycle: 22   F: -24.436838136697769   dF: -1.159e-08   |Residual|: 6.774e-06   |deigs|: 1.161e-05  t[s]:    109.16
	FillingsUpdate:  mu: -0.084926491  nElectrons: 9.000000  magneticMoment: [ Abs: 0.72291  Tot: +0.72000 ]
SCF: Cycle: 23   F: -24.436838140219894   dF: -3.522e-09   |Residual|: 4.449e-06   |deigs|: 9.112e-06  t[s]:    113.49
	FillingsUpdate:  mu: -0.084927959  nElectrons: 9.000000  magneticMoment: [ Abs: 0.72292  Tot: +0.72000 ]
SCF: Cycle: 24   F: -24.436838141268769   dF: -1.049e-09   |Residual|: 3.621e-06   |deigs|: 6.334e-06  t[s]:    117.82
SCF: Converged (|Delta E|<1.000000e-08 for 2 iters).


# Ionic positions in lattice coordinates:
ion Rb   0.000000000000000   0.000000000000000   0.000000000000000 0

# Forces in Lattice coordinates:
force Rb  -0.000000000000000   0.000000000000000   0.000000000000000 0

# Energy components:
   Eewald =      -12.0320174002217755
       EH =        7.5118184506624770
     Eloc =      -22.4245357455913528
      Enl =       -0.7964278887820135
   Epulay =       -0.0000000014467880
      Exc =       -3.6505873927698715
       KE =        6.9549121450058937
-------------------------------------
     Etot =      -24.4368378331434286
       TS =        0.0000003081253408
-------------------------------------
        F =      -24.4368381412687690

IonicMinimize: Iter:   0  F: -24.436838141268769  |grad|_K:  0.000e+00  t[s]:    118.08
IonicMinimize: Converged (|grad|_K<1.000000e-04).

#--- Lowdin population analysis ---
# oxidation-state Rb +0.034
# magnetic-moments Rb +0.688

End date and time: Sun Feb  6 12:57:23 2022  (Duration: 0-0:01:58.13)
Done!
scale=4
magnetization=0.72
--------------------------------------------------------------------------
The library attempted to open the following supporting CUDA libraries,
but each of them failed.  CUDA-aware support is disabled.
libcuda.so.1: cannot open shared object file: No such file or directory
libcuda.dylib: cannot open shared object file: No such file or directory
/usr/lib64/libcuda.so.1: cannot open shared object file: No such file or directory
/usr/lib64/libcuda.dylib: cannot open shared object file: No such file or directory
If you are not interested in CUDA-aware support, then run with
--mca opal_warn_on_missing_libcuda 0 to suppress this message.  If you are interested
in CUDA-aware support, then try setting LD_LIBRARY_PATH to the location
of libcuda.so.1 to get passed this issue.
--------------------------------------------------------------------------
--------------------------------------------------------------------------
No OpenFabrics connection schemes reported that they were able to be
used on a specific port.  As such, the openib BTL (OpenFabrics
support) will be disabled for this port.

  Local host:           d-16-12-3
  Local device:         mlx5_1
  Local port:           1
  CPCs attempted:       rdmacm, udcm
--------------------------------------------------------------------------

*************** JDFTx 1.6.0 (git hash 42ebbcc2) ***************

Start date and time: Sun Feb  6 12:57:24 2022
Executable jdftx with command-line: -i Alkali.in
Running on hosts (process indices):  d-16-12-3 (0-18)
Divided in process groups (process indices):  0 (0)  1 (1)  2 (2)  3 (3)  4 (4)  5 (5)  6 (6)  7 (7)  8 (8)  9 (9)  10 (10)  11 (11)  12 (12)  13 (13)  14 (14)  15 (15)  16 (16)  17 (17)  18 (18)
Resource initialization completed at t[s]:      0.00
Run totals: 19 processes, 48 threads, 0 GPUs


Input parsed successfully to the following command list (including defaults):

basis kpoint-dependent
coords-type Lattice
core-overlap-check vector
coulomb-interaction Slab 001
davidson-band-ratio 1.1
dump End None
dump-name $INPUT.$VAR
elec-cutoff 20
elec-eigen-algo Davidson
elec-ex-corr gga-PBE
elec-initial-magnetization 0.720000 yes
elec-smearing Fermi 1e-05
electronic-minimize  \
	dirUpdateScheme      FletcherReeves \
	linminMethod         DirUpdateRecommended \
	nIterations          100 \
	history              15 \
	knormThreshold       0 \
	energyDiffThreshold  1e-08 \
	nEnergyDiff          2 \
	alphaTstart          1 \
	alphaTmin            1e-10 \
	updateTestStepSize   yes \
	alphaTreduceFactor   0.1 \
	alphaTincreaseFactor 3 \
	nAlphaAdjustMax      3 \
	wolfeEnergy          0.0001 \
	wolfeGradient        0.9 \
	fdTest               no
electronic-scf  \
	nIterations	10000 \
	energyDiffThreshold	1e-08 \
	residualThreshold	1e-07 \
	mixFraction	0.5 \
	qMetric	0.8 \
	history	10 \
	nEigSteps	2 \
	eigDiffThreshold	1e-08 \
	mixedVariable	Density \
	qKerker	0.8 \
	qKappa	-1 \
	verbose	no \
	mixFractionMag	1.5
exchange-regularization WignerSeitzTruncated
fluid None
fluid-ex-corr (null) lda-PZ
fluid-gummel-loop 10 1.000000e-05
fluid-minimize  \
	dirUpdateScheme      PolakRibiere \
	linminMethod         DirUpdateRecommended \
	nIterations          100 \
	history              15 \
	knormThreshold       0 \
	energyDiffThreshold  0 \
	nEnergyDiff          2 \
	alphaTstart          1 \
	alphaTmin            1e-10 \
	updateTestStepSize   yes \
	alphaTreduceFactor   0.1 \
	alphaTincreaseFactor 3 \
	nAlphaAdjustMax      3 \
	wolfeEnergy          0.0001 \
	wolfeGradient        0.9 \
	fdTest               no
fluid-solvent H2O 55.338 ScalarEOS \
	epsBulk 78.4 \
	pMol 0.92466 \
	epsInf 1.77 \
	Pvap 1.06736e-10 \
	sigmaBulk 4.62e-05 \
	Rvdw 2.61727 \
	Res 1.42 \
	tauNuc 343133 \
	poleEl 15 7 1
forces-output-coords Positions
ion Rb   0.000000000000000   0.000000000000000   0.000000000000000 0
ion-species SG15/$ID_ONCV_PBE.upf
ion-width 0
ionic-minimize  \
	dirUpdateScheme      L-BFGS \
	linminMethod         DirUpdateRecommended \
	nIterations          0 \
	history              15 \
	knormThreshold       0.0001 \
	energyDiffThreshold  1e-06 \
	nEnergyDiff          2 \
	alphaTstart          1 \
	alphaTmin            1e-10 \
	updateTestStepSize   yes \
	alphaTreduceFactor   0.1 \
	alphaTincreaseFactor 3 \
	nAlphaAdjustMax      3 \
	wolfeEnergy          0.0001 \
	wolfeGradient        0.9 \
	fdTest               no
kpoint   0.000000000000   0.000000000000   0.000000000000  1.00000000000000
kpoint-folding 12 12 1 
latt-move-scale 1 1 1
latt-scale 4 4 1 
lattice  \
	   4.727486978767153   -2.363743489383575    0.000000000000000  \
	  -0.000000000000000    4.094123819672498    0.000000000000000  \
	   0.000000000000000    0.000000000000000   40.000000000000000 
lattice-minimize  \
	dirUpdateScheme      L-BFGS \
	linminMethod         DirUpdateRecommended \
	nIterations          0 \
	history              15 \
	knormThreshold       0 \
	energyDiffThreshold  1e-06 \
	nEnergyDiff          2 \
	alphaTstart          1 \
	alphaTmin            1e-10 \
	updateTestStepSize   yes \
	alphaTreduceFactor   0.1 \
	alphaTincreaseFactor 3 \
	nAlphaAdjustMax      3 \
	wolfeEnergy          0.0001 \
	wolfeGradient        0.9 \
	fdTest               no
lcao-params -1 1e-06 1e-05
pcm-variant GLSSA13
spintype z-spin
subspace-rotation-factor 1 yes
symmetries automatic
symmetry-threshold 0.0001



---------- Setting up symmetries ----------

Found 24 point-group symmetries of the bravais lattice
Found 24 space-group symmetries with basis
Applied RMS atom displacement 0 bohrs to make symmetries exact.

---------- Initializing the Grid ----------
R = 
[      18.9099     -9.45497            0  ]
[            0      16.3765            0  ]
[            0            0           40  ]
unit cell volume = 12387.1
G =
[   0.332269   0.191835         -0  ]
[          0   0.383671         -0  ]
[         -0         -0    0.15708  ]
Minimum fftbox size, Smin = [  80  80  164  ]
Chosen fftbox size, S = [  80  80  168  ]

---------- Exchange Correlation functional ----------
Initalized PBE GGA exchange.
Initalized PBE GGA correlation.

---------- Setting up pseudopotentials ----------
Width of ionic core gaussian charges (only for fluid interactions / plotting) set to 0

Reading pseudopotential file '/home/gridsan/aligho/DFT/build-Nov24/pseudopotentials/SG15/Rb_ONCV_PBE.upf':
  'Rb' pseudopotential, 'PBE' functional
  Generated using ONCVPSP code by D. R. Hamann
  Author: Martin Schlipf and Francois Gygi  Date: 150915.
  9 valence electrons, 3 orbitals, 6 projectors, 2308 radial grid points, with lMax = 2
  Transforming local potential to a uniform radial grid of dG=0.02 with 1489 points.
  Transforming nonlocal projectors to a uniform radial grid of dG=0.02 with 432 points.
    4S    l: 0   occupation:  2.0   eigenvalue: -1.172069
    4P    l: 1   occupation:  6.0   eigenvalue: -0.586674
    5S    l: 0   occupation:  1.0   eigenvalue: -0.082006
  Transforming atomic orbitals to a uniform radial grid of dG=0.02 with 432 points.
  Core radius for overlap checks: 2.60 bohrs.
  Reading pulay file /home/gridsan/aligho/DFT/build-Nov24/pseudopotentials/SG15/Rb_ONCV_PBE.pulay ... using dE_dnG = -1.360715e-05 computed for Ecut = 20.

Initialized 1 species with 1 total atoms.

Folded 1 k-points by 12x12x1 to 144 k-points.

---------- Setting up k-points, bands, fillings ----------
Reduced to 19 k-points under symmetry. 
Computing the number of bands and number of electrons
Calculating initial fillings.
nElectrons:   9.000000   nBands: 6   nStates: 38

----- Setting up reduced wavefunction bases (one per k-point) -----
average nbasis = 52924.021 , ideal nbasis = 52918.836

---------- Setting up coulomb interaction ----------
Initialized slab truncation along lattice direction 001

---------- Setting up 2D ewald sum ----------
Optimum gaussian width for ewald sums = 10.498040 bohr.
Real space sums over 289 unit cells with max indices [  8  8  0  ]
Reciprocal space sums over 81 terms with max indices [  4  4  0  ]

---------- Allocating electronic variables ----------
Initializing wave functions:  linear combination of atomic orbitals
Note: number of bands (6) exceeds available atomic orbitals (5)
Rb pseudo-atom occupations:   s ( 2 1 )  p ( 6 )
[d-16-12-3:65455] 18 more processes have sent help message help-mpi-common-cuda.txt / dlopen failed
[d-16-12-3:65455] Set MCA parameter "orte_base_help_aggregate" to 0 to see all help / error messages
[d-16-12-3:65455] 18 more processes have sent help message help-mpi-btl-openib-cpc-base.txt / no cpcs for port
	FillingsUpdate:  mu: -0.082587849  nElectrons: 9.000000  magneticMoment: [ Abs: 0.72000  Tot: +0.72000 ]
LCAOMinimize: Iter:   0  F: -24.4322607705138566  |grad|_K:  2.731e-06  alpha:  1.000e+00
	FillingsUpdate:  mu: -0.082587240  nElectrons: 9.000000  magneticMoment: [ Abs: 0.72000  Tot: +0.72000 ]
LCAOMinimize: Iter:   1  F: -24.4322607755649877  |grad|_K:  1.429e-08  alpha:  9.900e-01  linmin: -3.976e-03  cgtest:  1.177e-01  t[s]:     15.36
LCAOMinimize: Encountered beta<0, resetting CG.
LCAOMinimize: 	Wrong curvature in test step, increasing alphaT to 2.969874e+00.
	FillingsUpdate:  mu: -0.082587241  nElectrons: 9.000000  magneticMoment: [ Abs: 0.72000  Tot: +0.72000 ]
LCAOMinimize: Iter:   2  F: -24.4322607755653749  |grad|_K:  1.388e-10  alpha: -1.243e+00  linmin: -3.405e-02  cgtest:  8.987e-01  t[s]:     19.45
LCAOMinimize: Encountered beta<0, resetting CG.
LCAOMinimize: Converged (|Delta F|<1.000000e-06 for 2 iters).


---- Citations for features of the code used in this run ----

   Software package:
      R. Sundararaman, K. Letchworth-Weaver, K.A. Schwarz, D. Gunceler, Y. Ozhabes and T.A. Arias, 'JDFTx: software for joint density-functional theory', SoftwareX 6, 278 (2017)

   gga-PBE exchange-correlation functional:
      J.P. Perdew, K. Burke and M. Ernzerhof, Phys. Rev. Lett. 77, 3865 (1996)

   Pseudopotentials:
      M Schlipf and F Gygi, Comput. Phys. Commun. 196, 36 (2015)

   Truncated Coulomb potentials:
      R. Sundararaman and T.A. Arias, Phys. Rev. B 87, 165122 (2013)

This list may not be complete. Please suggest additional citations or
report any other bugs at https://github.com/shankar1729/jdftx/issues

Initialization completed successfully at t[s]:     19.72


-------- Electronic minimization -----------
Will mix electronic density at each iteration.
	FillingsUpdate:  mu: -0.082587241  nElectrons: 9.000000  magneticMoment: [ Abs: 0.72000  Tot: +0.72000 ]
	FillingsUpdate:  mu: -0.082695908  nElectrons: 9.000000  magneticMoment: [ Abs: 0.72000  Tot: +0.72000 ]
SCF: Cycle:  0   F: -24.432369184712222   dF: -1.084e-04   |Residual|: 1.641e-03   |deigs|: 1.704e-01  t[s]:     28.10
	FillingsUpdate:  mu: -0.082690769  nElectrons: 9.000000  magneticMoment: [ Abs: 0.72381  Tot: +0.72000 ]
SCF: Cycle:  1   F: -24.432371394462262   dF: -2.210e-06   |Residual|: 3.962e-04   |deigs|: 9.024e-03  t[s]:     34.73
	FillingsUpdate:  mu: -0.082668582  nElectrons: 9.000000  magneticMoment: [ Abs: 0.72386  Tot: +0.72000 ]
SCF: Cycle:  2   F: -24.432371932478031   dF: -5.380e-07   |Residual|: 2.283e-04   |deigs|: 1.440e-03  t[s]:     41.38
	FillingsUpdate:  mu: -0.082652725  nElectrons: 9.000000  magneticMoment: [ Abs: 0.72443  Tot: +0.72000 ]
SCF: Cycle:  3   F: -24.432372236158031   dF: -3.037e-07   |Residual|: 1.694e-04   |deigs|: 5.861e-04  t[s]:     48.22
	FillingsUpdate:  mu: -0.082606584  nElectrons: 9.000000  magneticMoment: [ Abs: 0.72439  Tot: +0.72000 ]
SCF: Cycle:  4   F: -24.432372492194173   dF: -2.560e-07   |Residual|: 1.267e-04   |deigs|: 6.042e-04  t[s]:     55.14
	FillingsUpdate:  mu: -0.082544192  nElectrons: 9.000000  magneticMoment: [ Abs: 0.72443  Tot: +0.72000 ]
SCF: Cycle:  5   F: -24.432372619845879   dF: -1.277e-07   |Residual|: 8.740e-05   |deigs|: 6.479e-04  t[s]:     62.14
	FillingsUpdate:  mu: -0.082490551  nElectrons: 9.000000  magneticMoment: [ Abs: 0.72434  Tot: +0.72000 ]
SCF: Cycle:  6   F: -24.432372687170236   dF: -6.732e-08   |Residual|: 6.653e-05   |deigs|: 3.970e-04  t[s]:     69.21
	FillingsUpdate:  mu: -0.082464922  nElectrons: 9.000000  magneticMoment: [ Abs: 0.72437  Tot: +0.72000 ]
SCF: Cycle:  7   F: -24.432372740147500   dF: -5.298e-08   |Residual|: 5.485e-05   |deigs|: 4.938e-04  t[s]:     76.41
	FillingsUpdate:  mu: -0.082441125  nElectrons: 9.000000  magneticMoment: [ Abs: 0.72437  Tot: +0.72000 ]
SCF: Cycle:  8   F: -24.432372781431855   dF: -4.128e-08   |Residual|: 4.699e-05   |deigs|: 1.865e-04  t[s]:     83.79
	FillingsUpdate:  mu: -0.082413099  nElectrons: 9.000000  magneticMoment: [ Abs: 0.72435  Tot: +0.72000 ]
SCF: Cycle:  9   F: -24.432372809038384   dF: -2.761e-08   |Residual|: 3.769e-05   |deigs|: 1.145e-04  t[s]:     91.30
	FillingsUpdate:  mu: -0.082395908  nElectrons: 9.000000  magneticMoment: [ Abs: 0.72439  Tot: +0.72000 ]
SCF: Cycle: 10   F: -24.432372772240655   dF: +3.680e-08   |Residual|: 3.235e-05   |deigs|: 1.013e-04  t[s]:     98.90
	FillingsUpdate:  mu: -0.082369655  nElectrons: 9.000000  magneticMoment: [ Abs: 0.72445  Tot: +0.72000 ]
SCF: Cycle: 11   F: -24.432372657410451   dF: +1.148e-07   |Residual|: 2.880e-05   |deigs|: 7.446e-05  t[s]:    106.55
	FillingsUpdate:  mu: -0.082354373  nElectrons: 9.000000  magneticMoment: [ Abs: 0.72450  Tot: +0.72000 ]
SCF: Cycle: 12   F: -24.432372624540470   dF: +3.287e-08   |Residual|: 2.601e-05   |deigs|: 6.076e-05  t[s]:    113.97
	FillingsUpdate:  mu: -0.082335342  nElectrons: 9.000000  magneticMoment: [ Abs: 0.72456  Tot: +0.72000 ]
SCF: Cycle: 13   F: -24.432372624677498   dF: -1.370e-10   |Residual|: 2.634e-05   |deigs|: 3.667e-05  t[s]:    121.61
	FillingsUpdate:  mu: -0.082292961  nElectrons: 9.000000  magneticMoment: [ Abs: 0.72459  Tot: +0.72000 ]
SCF: Cycle: 14   F: -24.432372803154109   dF: -1.785e-07   |Residual|: 2.162e-05   |deigs|: 4.685e-05  t[s]:    129.25
	FillingsUpdate:  mu: -0.082221296  nElectrons: 9.000000  magneticMoment: [ Abs: 0.72460  Tot: +0.72000 ]
SCF: Cycle: 15   F: -24.432372639021597   dF: +1.641e-07   |Residual|: 2.210e-05   |deigs|: 8.211e-05  t[s]:    136.74
	FillingsUpdate:  mu: -0.082213052  nElectrons: 9.000000  magneticMoment: [ Abs: 0.72447  Tot: +0.72000 ]
SCF: Cycle: 16   F: -24.432372786003040   dF: -1.470e-07   |Residual|: 1.700e-05   |deigs|: 1.727e-05  t[s]:    143.93
	FillingsUpdate:  mu: -0.082206940  nElectrons: 9.000000  magneticMoment: [ Abs: 0.72442  Tot: +0.72000 ]
SCF: Cycle: 17   F: -24.432372791933634   dF: -5.931e-09   |Residual|: 1.090e-05   |deigs|: 1.919e-05  t[s]:    151.27
	FillingsUpdate:  mu: -0.082198564  nElectrons: 9.000000  magneticMoment: [ Abs: 0.72441  Tot: +0.72000 ]
SCF: Cycle: 18   F: -24.432372847541135   dF: -5.561e-08   |Residual|: 6.853e-06   |deigs|: 1.806e-05  t[s]:    158.85
	FillingsUpdate:  mu: -0.082189989  nElectrons: 9.000000  magneticMoment: [ Abs: 0.72437  Tot: +0.72000 ]
SCF: Cycle: 19   F: -24.432372875460636   dF: -2.792e-08   |Residual|: 4.097e-06   |deigs|: 2.273e-05  t[s]:    165.72
	FillingsUpdate:  mu: -0.082189857  nElectrons: 9.000000  magneticMoment: [ Abs: 0.72437  Tot: +0.72000 ]
SCF: Cycle: 20   F: -24.432372889901092   dF: -1.444e-08   |Residual|: 3.022e-06   |deigs|: 2.658e-05  t[s]:    173.05
	FillingsUpdate:  mu: -0.082193014  nElectrons: 9.000000  magneticMoment: [ Abs: 0.72437  Tot: +0.72000 ]
SCF: Cycle: 21   F: -24.432372893293277   dF: -3.392e-09   |Residual|: 2.211e-06   |deigs|: 3.447e-05  t[s]:    179.89
	FillingsUpdate:  mu: -0.082194027  nElectrons: 9.000000  magneticMoment: [ Abs: 0.72437  Tot: +0.72000 ]
SCF: Cycle: 22   F: -24.432372897590241   dF: -4.297e-09   |Residual|: 1.644e-06   |deigs|: 3.560e-05  t[s]:    187.49
SCF: Converged (|Delta E|<1.000000e-08 for 2 iters).


# Ionic positions in lattice coordinates:
ion Rb   0.000000000000000   0.000000000000000   0.000000000000000 0

# Forces in Lattice coordinates:
force Rb   0.000000000000000  -0.000000000000000   0.000000000000000 0

# Energy components:
   Eewald =       -9.0240130501663280
       EH =       10.5402960750860650
     Eloc =      -28.4658082894235775
      Enl =       -0.7924519533887830
   Epulay =        0.0000000056959385
      Exc =       -3.6521131570333476
       KE =        6.9617178015479411
-------------------------------------
     Etot =      -24.4323725676820942
       TS =        0.0000003299081483
-------------------------------------
        F =      -24.4323728975902412

IonicMinimize: Iter:   0  F: -24.432372897590241  |grad|_K:  0.000e+00  t[s]:    187.91
IonicMinimize: Converged (|grad|_K<1.000000e-04).

#--- Lowdin population analysis ---
# oxidation-state Rb +0.001
# magnetic-moments Rb +0.719

End date and time: Sun Feb  6 13:00:32 2022  (Duration: 0-0:03:07.98)
Done!
