The alkali metal is Rb
scale=2
magnetization=-0.46
--------------------------------------------------------------------------
The library attempted to open the following supporting CUDA libraries,
but each of them failed.  CUDA-aware support is disabled.
libcuda.so.1: cannot open shared object file: No such file or directory
libcuda.dylib: cannot open shared object file: No such file or directory
/usr/lib64/libcuda.so.1: cannot open shared object file: No such file or directory
/usr/lib64/libcuda.dylib: cannot open shared object file: No such file or directory
If you are not interested in CUDA-aware support, then run with
--mca opal_warn_on_missing_libcuda 0 to suppress this message.  If you are interested
in CUDA-aware support, then try setting LD_LIBRARY_PATH to the location
of libcuda.so.1 to get passed this issue.
--------------------------------------------------------------------------
--------------------------------------------------------------------------
No OpenFabrics connection schemes reported that they were able to be
used on a specific port.  As such, the openib BTL (OpenFabrics
support) will be disabled for this port.

  Local host:           d-16-6-2
  Local device:         mlx5_1
  Local port:           1
  CPCs attempted:       rdmacm, udcm
--------------------------------------------------------------------------

*************** JDFTx 1.6.0 (git hash 42ebbcc2) ***************

Start date and time: Sun Feb  6 12:40:57 2022
Executable jdftx with command-line: -i Alkali.in
Running on hosts (process indices):  d-16-6-2 (0-18)
Divided in process groups (process indices):  0 (0)  1 (1)  2 (2)  3 (3)  4 (4)  5 (5)  6 (6)  7 (7)  8 (8)  9 (9)  10 (10)  11 (11)  12 (12)  13 (13)  14 (14)  15 (15)  16 (16)  17 (17)  18 (18)
Resource initialization completed at t[s]:      0.00
Run totals: 19 processes, 48 threads, 0 GPUs


Input parsed successfully to the following command list (including defaults):

basis kpoint-dependent
coords-type Lattice
core-overlap-check vector
coulomb-interaction Slab 001
davidson-band-ratio 1.1
dump End None
dump-name $INPUT.$VAR
elec-cutoff 20
elec-eigen-algo Davidson
elec-ex-corr gga-PBE
elec-initial-magnetization -0.460000 yes
elec-smearing Fermi 1e-05
electronic-minimize  \
	dirUpdateScheme      FletcherReeves \
	linminMethod         DirUpdateRecommended \
	nIterations          100 \
	history              15 \
	knormThreshold       0 \
	energyDiffThreshold  1e-08 \
	nEnergyDiff          2 \
	alphaTstart          1 \
	alphaTmin            1e-10 \
	updateTestStepSize   yes \
	alphaTreduceFactor   0.1 \
	alphaTincreaseFactor 3 \
	nAlphaAdjustMax      3 \
	wolfeEnergy          0.0001 \
	wolfeGradient        0.9 \
	fdTest               no
electronic-scf  \
	nIterations	10000 \
	energyDiffThreshold	1e-08 \
	residualThreshold	1e-07 \
	mixFraction	0.5 \
	qMetric	0.8 \
	history	10 \
	nEigSteps	2 \
	eigDiffThreshold	1e-08 \
	mixedVariable	Density \
	qKerker	0.8 \
	qKappa	-1 \
	verbose	no \
	mixFractionMag	1.5
exchange-regularization WignerSeitzTruncated
fluid None
fluid-ex-corr (null) lda-PZ
fluid-gummel-loop 10 1.000000e-05
fluid-minimize  \
	dirUpdateScheme      PolakRibiere \
	linminMethod         DirUpdateRecommended \
	nIterations          100 \
	history              15 \
	knormThreshold       0 \
	energyDiffThreshold  0 \
	nEnergyDiff          2 \
	alphaTstart          1 \
	alphaTmin            1e-10 \
	updateTestStepSize   yes \
	alphaTreduceFactor   0.1 \
	alphaTincreaseFactor 3 \
	nAlphaAdjustMax      3 \
	wolfeEnergy          0.0001 \
	wolfeGradient        0.9 \
	fdTest               no
fluid-solvent H2O 55.338 ScalarEOS \
	epsBulk 78.4 \
	pMol 0.92466 \
	epsInf 1.77 \
	Pvap 1.06736e-10 \
	sigmaBulk 4.62e-05 \
	Rvdw 2.61727 \
	Res 1.42 \
	tauNuc 343133 \
	poleEl 15 7 1
forces-output-coords Positions
ion Rb   0.000000000000000   0.000000000000000   0.000000000000000 0
ion-species SG15/$ID_ONCV_PBE.upf
ion-width 0
ionic-minimize  \
	dirUpdateScheme      L-BFGS \
	linminMethod         DirUpdateRecommended \
	nIterations          0 \
	history              15 \
	knormThreshold       0.0001 \
	energyDiffThreshold  1e-06 \
	nEnergyDiff          2 \
	alphaTstart          1 \
	alphaTmin            1e-10 \
	updateTestStepSize   yes \
	alphaTreduceFactor   0.1 \
	alphaTincreaseFactor 3 \
	nAlphaAdjustMax      3 \
	wolfeEnergy          0.0001 \
	wolfeGradient        0.9 \
	fdTest               no
kpoint   0.000000000000   0.000000000000   0.000000000000  1.00000000000000
kpoint-folding 12 12 1 
latt-move-scale 1 1 1
latt-scale 2 2 1 
lattice  \
	   4.727486978767153   -2.363743489383575    0.000000000000000  \
	  -0.000000000000000    4.094123819672498    0.000000000000000  \
	   0.000000000000000    0.000000000000000   40.000000000000000 
lattice-minimize  \
	dirUpdateScheme      L-BFGS \
	linminMethod         DirUpdateRecommended \
	nIterations          0 \
	history              15 \
	knormThreshold       0 \
	energyDiffThreshold  1e-06 \
	nEnergyDiff          2 \
	alphaTstart          1 \
	alphaTmin            1e-10 \
	updateTestStepSize   yes \
	alphaTreduceFactor   0.1 \
	alphaTincreaseFactor 3 \
	nAlphaAdjustMax      3 \
	wolfeEnergy          0.0001 \
	wolfeGradient        0.9 \
	fdTest               no
lcao-params -1 1e-06 1e-05
pcm-variant GLSSA13
spintype z-spin
subspace-rotation-factor 1 yes
symmetries automatic
symmetry-threshold 0.0001



---------- Setting up symmetries ----------

Found 24 point-group symmetries of the bravais lattice
Found 24 space-group symmetries with basis
Applied RMS atom displacement 0 bohrs to make symmetries exact.

---------- Initializing the Grid ----------
R = 
[      9.45497     -4.72749            0  ]
[            0      8.18825            0  ]
[            0            0           40  ]
unit cell volume = 3096.79
G =
[   0.664538   0.383671         -0  ]
[          0   0.767342         -0  ]
[         -0         -0    0.15708  ]
Minimum fftbox size, Smin = [  40  40  164  ]
Chosen fftbox size, S = [  40  40  168  ]

---------- Exchange Correlation functional ----------
Initalized PBE GGA exchange.
Initalized PBE GGA correlation.

---------- Setting up pseudopotentials ----------
Width of ionic core gaussian charges (only for fluid interactions / plotting) set to 0

Reading pseudopotential file '/home/gridsan/aligho/DFT/build-Nov24/pseudopotentials/SG15/Rb_ONCV_PBE.upf':
  'Rb' pseudopotential, 'PBE' functional
  Generated using ONCVPSP code by D. R. Hamann
  Author: Martin Schlipf and Francois Gygi  Date: 150915.
  9 valence electrons, 3 orbitals, 6 projectors, 2308 radial grid points, with lMax = 2
  Transforming local potential to a uniform radial grid of dG=0.02 with 1489 points.
  Transforming nonlocal projectors to a uniform radial grid of dG=0.02 with 432 points.
    4S    l: 0   occupation:  2.0   eigenvalue: -1.172069
    4P    l: 1   occupation:  6.0   eigenvalue: -0.586674
    5S    l: 0   occupation:  1.0   eigenvalue: -0.082006
  Transforming atomic orbitals to a uniform radial grid of dG=0.02 with 432 points.
  Core radius for overlap checks: 2.60 bohrs.
  Reading pulay file /home/gridsan/aligho/DFT/build-Nov24/pseudopotentials/SG15/Rb_ONCV_PBE.pulay ... using dE_dnG = -1.360715e-05 computed for Ecut = 20.

Initialized 1 species with 1 total atoms.

Folded 1 k-points by 12x12x1 to 144 k-points.

---------- Setting up k-points, bands, fillings ----------
Reduced to 19 k-points under symmetry. 
Computing the number of bands and number of electrons
Calculating initial fillings.
nElectrons:   9.000000   nBands: 6   nStates: 38

----- Setting up reduced wavefunction bases (one per k-point) -----
average nbasis = 13230.521 , ideal nbasis = 13229.709

---------- Setting up coulomb interaction ----------
Initialized slab truncation along lattice direction 001

---------- Setting up 2D ewald sum ----------
Optimum gaussian width for ewald sums = 5.249020 bohr.
Real space sums over 289 unit cells with max indices [  8  8  0  ]
Reciprocal space sums over 81 terms with max indices [  4  4  0  ]

---------- Allocating electronic variables ----------
Initializing wave functions:  linear combination of atomic orbitals
Note: number of bands (6) exceeds available atomic orbitals (5)
Rb pseudo-atom occupations:   s ( 2 1 )  p ( 6 )
	FillingsUpdate:  mu: -0.092363730  nElectrons: 9.000000  magneticMoment: [ Abs: 0.46000  Tot: -0.46000 ]
LCAOMinimize: Iter:   0  F: -24.4453076797658717  |grad|_K:  3.310e-05  alpha:  1.000e+00
	FillingsUpdate:  mu: -0.092351948  nElectrons: 9.000000  magneticMoment: [ Abs: 0.46000  Tot: -0.46000 ]
LCAOMinimize: Iter:   1  F: -24.4453084116116308  |grad|_K:  3.242e-07  alpha:  9.770e-01  linmin: -3.398e-02  cgtest:  4.006e-01  t[s]:      4.45
LCAOMinimize: Encountered beta<0, resetting CG.
[d-16-6-2:55867] 18 more processes have sent help message help-mpi-common-cuda.txt / dlopen failed
[d-16-6-2:55867] Set MCA parameter "orte_base_help_aggregate" to 0 to see all help / error messages
[d-16-6-2:55867] 18 more processes have sent help message help-mpi-btl-openib-cpc-base.txt / no cpcs for port
	FillingsUpdate:  mu: -0.092352006  nElectrons: 9.000000  magneticMoment: [ Abs: 0.46000  Tot: -0.46000 ]
LCAOMinimize: Iter:   2  F: -24.4453084116840031  |grad|_K:  3.440e-09  alpha:  1.012e+00  linmin:  1.135e-01  cgtest: -9.930e-01  t[s]:      5.68
LCAOMinimize: Converged (|Delta F|<1.000000e-06 for 2 iters).


---- Citations for features of the code used in this run ----

   Software package:
      R. Sundararaman, K. Letchworth-Weaver, K.A. Schwarz, D. Gunceler, Y. Ozhabes and T.A. Arias, 'JDFTx: software for joint density-functional theory', SoftwareX 6, 278 (2017)

   gga-PBE exchange-correlation functional:
      J.P. Perdew, K. Burke and M. Ernzerhof, Phys. Rev. Lett. 77, 3865 (1996)

   Pseudopotentials:
      M Schlipf and F Gygi, Comput. Phys. Commun. 196, 36 (2015)

   Truncated Coulomb potentials:
      R. Sundararaman and T.A. Arias, Phys. Rev. B 87, 165122 (2013)

This list may not be complete. Please suggest additional citations or
report any other bugs at https://github.com/shankar1729/jdftx/issues

Initialization completed successfully at t[s]:      5.77


-------- Electronic minimization -----------
Will mix electronic density at each iteration.
	FillingsUpdate:  mu: -0.092352006  nElectrons: 9.000000  magneticMoment: [ Abs: 0.46000  Tot: -0.46000 ]
	FillingsUpdate:  mu: -0.103136700  nElectrons: 9.000000  magneticMoment: [ Abs: 0.46000  Tot: -0.46000 ]
SCF: Cycle:  0   F: -24.451639532309247   dF: -6.331e-03   |Residual|: 1.113e-02   |deigs|: 1.789e-01  t[s]:      8.10
	FillingsUpdate:  mu: -0.102859990  nElectrons: 9.000000  magneticMoment: [ Abs: 0.46000  Tot: -0.46000 ]
SCF: Cycle:  1   F: -24.451899714663611   dF: -2.602e-04   |Residual|: 8.067e-03   |deigs|: 7.020e-03  t[s]:      9.94
	FillingsUpdate:  mu: -0.101409954  nElectrons: 9.000000  magneticMoment: [ Abs: 0.46278  Tot: -0.46000 ]
SCF: Cycle:  2   F: -24.451999417983707   dF: -9.970e-05   |Residual|: 4.575e-03   |deigs|: 2.008e-03  t[s]:     11.81
	FillingsUpdate:  mu: -0.100430445  nElectrons: 9.000000  magneticMoment: [ Abs: 0.46010  Tot: -0.46000 ]
SCF: Cycle:  3   F: -24.452066299434957   dF: -6.688e-05   |Residual|: 2.908e-03   |deigs|: 1.705e-03  t[s]:     13.66
	FillingsUpdate:  mu: -0.098662523  nElectrons: 9.000000  magneticMoment: [ Abs: 0.46007  Tot: -0.46000 ]
SCF: Cycle:  4   F: -24.452103801279961   dF: -3.750e-05   |Residual|: 2.122e-03   |deigs|: 2.907e-03  t[s]:     15.51
	FillingsUpdate:  mu: -0.097445314  nElectrons: 9.000000  magneticMoment: [ Abs: 0.46069  Tot: -0.46000 ]
SCF: Cycle:  5   F: -24.452122004597879   dF: -1.820e-05   |Residual|: 1.578e-03   |deigs|: 3.342e-03  t[s]:     17.39
	FillingsUpdate:  mu: -0.094958828  nElectrons: 9.000000  magneticMoment: [ Abs: 0.46683  Tot: -0.46000 ]
SCF: Cycle:  6   F: -24.452120373029683   dF: +1.632e-06   |Residual|: 1.139e-03   |deigs|: 3.236e-03  t[s]:     19.28
	FillingsUpdate:  mu: -0.092931709  nElectrons: 9.000000  magneticMoment: [ Abs: 0.46702  Tot: -0.46000 ]
SCF: Cycle:  7   F: -24.452136680929645   dF: -1.631e-05   |Residual|: 1.089e-03   |deigs|: 2.604e-03  t[s]:     21.23
	FillingsUpdate:  mu: -0.093038563  nElectrons: 9.000000  magneticMoment: [ Abs: 0.46187  Tot: -0.46000 ]
SCF: Cycle:  8   F: -24.452148352403373   dF: -1.167e-05   |Residual|: 8.844e-04   |deigs|: 5.233e-04  t[s]:     23.14
	FillingsUpdate:  mu: -0.091894792  nElectrons: 9.000000  magneticMoment: [ Abs: 0.46249  Tot: -0.46000 ]
SCF: Cycle:  9   F: -24.452151638994859   dF: -3.287e-06   |Residual|: 7.400e-04   |deigs|: 1.122e-03  t[s]:     25.13
	FillingsUpdate:  mu: -0.090507068  nElectrons: 9.000000  magneticMoment: [ Abs: 0.46421  Tot: -0.46000 ]
SCF: Cycle: 10   F: -24.452152534945174   dF: -8.960e-07   |Residual|: 5.986e-04   |deigs|: 1.459e-03  t[s]:     27.12
	FillingsUpdate:  mu: -0.089487113  nElectrons: 9.000000  magneticMoment: [ Abs: 0.46354  Tot: -0.46000 ]
SCF: Cycle: 11   F: -24.452153313705004   dF: -7.788e-07   |Residual|: 5.475e-04   |deigs|: 1.082e-03  t[s]:     29.14
	FillingsUpdate:  mu: -0.088109644  nElectrons: 9.000000  magneticMoment: [ Abs: 0.46340  Tot: -0.46000 ]
SCF: Cycle: 12   F: -24.452163436643147   dF: -1.012e-05   |Residual|: 4.787e-04   |deigs|: 1.381e-03  t[s]:     31.22
	FillingsUpdate:  mu: -0.086636248  nElectrons: 9.000000  magneticMoment: [ Abs: 0.46405  Tot: -0.46000 ]
SCF: Cycle: 13   F: -24.452170503234385   dF: -7.067e-06   |Residual|: 4.422e-04   |deigs|: 1.474e-03  t[s]:     33.18
	FillingsUpdate:  mu: -0.085432157  nElectrons: 9.000000  magneticMoment: [ Abs: 0.46230  Tot: -0.46000 ]
SCF: Cycle: 14   F: -24.452174491140376   dF: -3.988e-06   |Residual|: 3.956e-04   |deigs|: 1.229e-03  t[s]:     35.17
	FillingsUpdate:  mu: -0.084155540  nElectrons: 9.000000  magneticMoment: [ Abs: 0.46080  Tot: -0.46000 ]
SCF: Cycle: 15   F: -24.452177988457542   dF: -3.497e-06   |Residual|: 2.826e-04   |deigs|: 1.388e-03  t[s]:     37.17
	FillingsUpdate:  mu: -0.083900485  nElectrons: 9.000000  magneticMoment: [ Abs: 0.46084  Tot: -0.46000 ]
SCF: Cycle: 16   F: -24.452179238270727   dF: -1.250e-06   |Residual|: 2.081e-04   |deigs|: 8.364e-04  t[s]:     39.08
	FillingsUpdate:  mu: -0.083896402  nElectrons: 9.000000  magneticMoment: [ Abs: 0.46011  Tot: -0.46000 ]
SCF: Cycle: 17   F: -24.452180000247857   dF: -7.620e-07   |Residual|: 1.248e-04   |deigs|: 3.529e-04  t[s]:     41.09
	FillingsUpdate:  mu: -0.083767154  nElectrons: 9.000000  magneticMoment: [ Abs: 0.46006  Tot: -0.46000 ]
SCF: Cycle: 18   F: -24.452180283564395   dF: -2.833e-07   |Residual|: 8.891e-05   |deigs|: 1.693e-04  t[s]:     43.07
	FillingsUpdate:  mu: -0.083705114  nElectrons: 9.000000  magneticMoment: [ Abs: 0.46009  Tot: -0.46000 ]
SCF: Cycle: 19   F: -24.452180387642777   dF: -1.041e-07   |Residual|: 4.369e-05   |deigs|: 1.351e-04  t[s]:     45.07
	FillingsUpdate:  mu: -0.083696678  nElectrons: 9.000000  magneticMoment: [ Abs: 0.46019  Tot: -0.46000 ]
SCF: Cycle: 20   F: -24.452180432063173   dF: -4.442e-08   |Residual|: 2.437e-05   |deigs|: 1.957e-04  t[s]:     47.07
	FillingsUpdate:  mu: -0.083692802  nElectrons: 9.000000  magneticMoment: [ Abs: 0.46022  Tot: -0.46000 ]
SCF: Cycle: 21   F: -24.452180456765731   dF: -2.470e-08   |Residual|: 1.389e-05   |deigs|: 1.909e-04  t[s]:     49.12
	FillingsUpdate:  mu: -0.083704697  nElectrons: 9.000000  magneticMoment: [ Abs: 0.46024  Tot: -0.46000 ]
SCF: Cycle: 22   F: -24.452180464232097   dF: -7.466e-09   |Residual|: 8.461e-06   |deigs|: 1.470e-04  t[s]:     51.09
	FillingsUpdate:  mu: -0.083702367  nElectrons: 9.000000  magneticMoment: [ Abs: 0.46021  Tot: -0.46000 ]
SCF: Cycle: 23   F: -24.452180470783397   dF: -6.551e-09   |Residual|: 6.018e-06   |deigs|: 1.159e-04  t[s]:     53.08
SCF: Converged (|Delta E|<1.000000e-08 for 2 iters).


# Ionic positions in lattice coordinates:
ion Rb   0.000000000000000   0.000000000000000   0.000000000000000 0

# Forces in Lattice coordinates:
force Rb   0.000000000000000  -0.000000000000000   0.000000000000000 0

# Energy components:
   Eewald =      -18.0480261003326561
       EH =        1.6557000993901725
     Eloc =      -10.5673857790754884
      Enl =       -0.7968997797619678
   Epulay =        0.0000000035676145
      Exc =       -3.6780871658765517
       KE =        6.9825190348283535
-------------------------------------
     Etot =      -24.4521796872605215
       TS =        0.0000007835228744
-------------------------------------
        F =      -24.4521804707833965

IonicMinimize: Iter:   0  F: -24.452180470783397  |grad|_K:  0.000e+00  t[s]:     53.20
IonicMinimize: Converged (|grad|_K<1.000000e-04).

#--- Lowdin population analysis ---
# oxidation-state Rb +0.061
# magnetic-moments Rb -0.408

End date and time: Sun Feb  6 12:41:50 2022  (Duration: 0-0:00:53.22)
Done!
scale=3
magnetization=-0.46
--------------------------------------------------------------------------
The library attempted to open the following supporting CUDA libraries,
but each of them failed.  CUDA-aware support is disabled.
libcuda.so.1: cannot open shared object file: No such file or directory
libcuda.dylib: cannot open shared object file: No such file or directory
/usr/lib64/libcuda.so.1: cannot open shared object file: No such file or directory
/usr/lib64/libcuda.dylib: cannot open shared object file: No such file or directory
If you are not interested in CUDA-aware support, then run with
--mca opal_warn_on_missing_libcuda 0 to suppress this message.  If you are interested
in CUDA-aware support, then try setting LD_LIBRARY_PATH to the location
of libcuda.so.1 to get passed this issue.
--------------------------------------------------------------------------
--------------------------------------------------------------------------
No OpenFabrics connection schemes reported that they were able to be
used on a specific port.  As such, the openib BTL (OpenFabrics
support) will be disabled for this port.

  Local host:           d-16-6-2
  Local device:         mlx5_1
  Local port:           1
  CPCs attempted:       rdmacm, udcm
--------------------------------------------------------------------------

*************** JDFTx 1.6.0 (git hash 42ebbcc2) ***************

Start date and time: Sun Feb  6 12:41:51 2022
Executable jdftx with command-line: -i Alkali.in
Running on hosts (process indices):  d-16-6-2 (0-18)
Divided in process groups (process indices):  0 (0)  1 (1)  2 (2)  3 (3)  4 (4)  5 (5)  6 (6)  7 (7)  8 (8)  9 (9)  10 (10)  11 (11)  12 (12)  13 (13)  14 (14)  15 (15)  16 (16)  17 (17)  18 (18)
Resource initialization completed at t[s]:      0.00
Run totals: 19 processes, 48 threads, 0 GPUs


Input parsed successfully to the following command list (including defaults):

basis kpoint-dependent
coords-type Lattice
core-overlap-check vector
coulomb-interaction Slab 001
davidson-band-ratio 1.1
dump End None
dump-name $INPUT.$VAR
elec-cutoff 20
elec-eigen-algo Davidson
elec-ex-corr gga-PBE
elec-initial-magnetization -0.460000 yes
elec-smearing Fermi 1e-05
electronic-minimize  \
	dirUpdateScheme      FletcherReeves \
	linminMethod         DirUpdateRecommended \
	nIterations          100 \
	history              15 \
	knormThreshold       0 \
	energyDiffThreshold  1e-08 \
	nEnergyDiff          2 \
	alphaTstart          1 \
	alphaTmin            1e-10 \
	updateTestStepSize   yes \
	alphaTreduceFactor   0.1 \
	alphaTincreaseFactor 3 \
	nAlphaAdjustMax      3 \
	wolfeEnergy          0.0001 \
	wolfeGradient        0.9 \
	fdTest               no
electronic-scf  \
	nIterations	10000 \
	energyDiffThreshold	1e-08 \
	residualThreshold	1e-07 \
	mixFraction	0.5 \
	qMetric	0.8 \
	history	10 \
	nEigSteps	2 \
	eigDiffThreshold	1e-08 \
	mixedVariable	Density \
	qKerker	0.8 \
	qKappa	-1 \
	verbose	no \
	mixFractionMag	1.5
exchange-regularization WignerSeitzTruncated
fluid None
fluid-ex-corr (null) lda-PZ
fluid-gummel-loop 10 1.000000e-05
fluid-minimize  \
	dirUpdateScheme      PolakRibiere \
	linminMethod         DirUpdateRecommended \
	nIterations          100 \
	history              15 \
	knormThreshold       0 \
	energyDiffThreshold  0 \
	nEnergyDiff          2 \
	alphaTstart          1 \
	alphaTmin            1e-10 \
	updateTestStepSize   yes \
	alphaTreduceFactor   0.1 \
	alphaTincreaseFactor 3 \
	nAlphaAdjustMax      3 \
	wolfeEnergy          0.0001 \
	wolfeGradient        0.9 \
	fdTest               no
fluid-solvent H2O 55.338 ScalarEOS \
	epsBulk 78.4 \
	pMol 0.92466 \
	epsInf 1.77 \
	Pvap 1.06736e-10 \
	sigmaBulk 4.62e-05 \
	Rvdw 2.61727 \
	Res 1.42 \
	tauNuc 343133 \
	poleEl 15 7 1
forces-output-coords Positions
ion Rb   0.000000000000000   0.000000000000000   0.000000000000000 0
ion-species SG15/$ID_ONCV_PBE.upf
ion-width 0
ionic-minimize  \
	dirUpdateScheme      L-BFGS \
	linminMethod         DirUpdateRecommended \
	nIterations          0 \
	history              15 \
	knormThreshold       0.0001 \
	energyDiffThreshold  1e-06 \
	nEnergyDiff          2 \
	alphaTstart          1 \
	alphaTmin            1e-10 \
	updateTestStepSize   yes \
	alphaTreduceFactor   0.1 \
	alphaTincreaseFactor 3 \
	nAlphaAdjustMax      3 \
	wolfeEnergy          0.0001 \
	wolfeGradient        0.9 \
	fdTest               no
kpoint   0.000000000000   0.000000000000   0.000000000000  1.00000000000000
kpoint-folding 12 12 1 
latt-move-scale 1 1 1
latt-scale 3 3 1 
lattice  \
	   4.727486978767153   -2.363743489383575    0.000000000000000  \
	  -0.000000000000000    4.094123819672498    0.000000000000000  \
	   0.000000000000000    0.000000000000000   40.000000000000000 
lattice-minimize  \
	dirUpdateScheme      L-BFGS \
	linminMethod         DirUpdateRecommended \
	nIterations          0 \
	history              15 \
	knormThreshold       0 \
	energyDiffThreshold  1e-06 \
	nEnergyDiff          2 \
	alphaTstart          1 \
	alphaTmin            1e-10 \
	updateTestStepSize   yes \
	alphaTreduceFactor   0.1 \
	alphaTincreaseFactor 3 \
	nAlphaAdjustMax      3 \
	wolfeEnergy          0.0001 \
	wolfeGradient        0.9 \
	fdTest               no
lcao-params -1 1e-06 1e-05
pcm-variant GLSSA13
spintype z-spin
subspace-rotation-factor 1 yes
symmetries automatic
symmetry-threshold 0.0001



---------- Setting up symmetries ----------

Found 24 point-group symmetries of the bravais lattice
Found 24 space-group symmetries with basis
Applied RMS atom displacement 0 bohrs to make symmetries exact.

---------- Initializing the Grid ----------
R = 
[      14.1825     -7.09123            0  ]
[            0      12.2824            0  ]
[            0            0           40  ]
unit cell volume = 6967.77
G =
[   0.443025   0.255781         -0  ]
[          0   0.511561         -0  ]
[         -0         -0    0.15708  ]
Minimum fftbox size, Smin = [  60  60  164  ]
Chosen fftbox size, S = [  60  60  168  ]

---------- Exchange Correlation functional ----------
Initalized PBE GGA exchange.
Initalized PBE GGA correlation.

---------- Setting up pseudopotentials ----------
Width of ionic core gaussian charges (only for fluid interactions / plotting) set to 0

Reading pseudopotential file '/home/gridsan/aligho/DFT/build-Nov24/pseudopotentials/SG15/Rb_ONCV_PBE.upf':
  'Rb' pseudopotential, 'PBE' functional
  Generated using ONCVPSP code by D. R. Hamann
  Author: Martin Schlipf and Francois Gygi  Date: 150915.
  9 valence electrons, 3 orbitals, 6 projectors, 2308 radial grid points, with lMax = 2
  Transforming local potential to a uniform radial grid of dG=0.02 with 1489 points.
  Transforming nonlocal projectors to a uniform radial grid of dG=0.02 with 432 points.
    4S    l: 0   occupation:  2.0   eigenvalue: -1.172069
    4P    l: 1   occupation:  6.0   eigenvalue: -0.586674
    5S    l: 0   occupation:  1.0   eigenvalue: -0.082006
  Transforming atomic orbitals to a uniform radial grid of dG=0.02 with 432 points.
  Core radius for overlap checks: 2.60 bohrs.
  Reading pulay file /home/gridsan/aligho/DFT/build-Nov24/pseudopotentials/SG15/Rb_ONCV_PBE.pulay ... using dE_dnG = -1.360715e-05 computed for Ecut = 20.

Initialized 1 species with 1 total atoms.

Folded 1 k-points by 12x12x1 to 144 k-points.

---------- Setting up k-points, bands, fillings ----------
Reduced to 19 k-points under symmetry. 
Computing the number of bands and number of electrons
Calculating initial fillings.
nElectrons:   9.000000   nBands: 6   nStates: 38

----- Setting up reduced wavefunction bases (one per k-point) -----
average nbasis = 29766.104 , ideal nbasis = 29766.845

---------- Setting up coulomb interaction ----------
Initialized slab truncation along lattice direction 001

---------- Setting up 2D ewald sum ----------
Optimum gaussian width for ewald sums = 7.873530 bohr.
Real space sums over 289 unit cells with max indices [  8  8  0  ]
Reciprocal space sums over 81 terms with max indices [  4  4  0  ]

---------- Allocating electronic variables ----------
Initializing wave functions:  linear combination of atomic orbitals
Note: number of bands (6) exceeds available atomic orbitals (5)
Rb pseudo-atom occupations:   s ( 2 1 )  p ( 6 )
[d-16-6-2:79327] 18 more processes have sent help message help-mpi-common-cuda.txt / dlopen failed
[d-16-6-2:79327] Set MCA parameter "orte_base_help_aggregate" to 0 to see all help / error messages
[d-16-6-2:79327] 18 more processes have sent help message help-mpi-btl-openib-cpc-base.txt / no cpcs for port
	FillingsUpdate:  mu: -0.083937357  nElectrons: 9.000000  magneticMoment: [ Abs: 0.46000  Tot: -0.46000 ]
LCAOMinimize: Iter:   0  F: -24.4360956781494174  |grad|_K:  1.740e-05  alpha:  1.000e+00
	FillingsUpdate:  mu: -0.083934029  nElectrons: 9.000000  magneticMoment: [ Abs: 0.46000  Tot: -0.46000 ]
LCAOMinimize: Iter:   1  F: -24.4360958825830608  |grad|_K:  1.355e-07  alpha:  9.877e-01  linmin: -1.547e-02  cgtest:  3.629e-01  t[s]:      8.78
LCAOMinimize: Encountered beta<0, resetting CG.
	FillingsUpdate:  mu: -0.083934037  nElectrons: 9.000000  magneticMoment: [ Abs: 0.46000  Tot: -0.46000 ]
LCAOMinimize: Iter:   2  F: -24.4360958825960033  |grad|_K:  5.778e-10  alpha:  1.002e+00  linmin:  4.366e-02  cgtest: -4.951e-01  t[s]:     11.18
LCAOMinimize: Converged (|Delta F|<1.000000e-06 for 2 iters).


---- Citations for features of the code used in this run ----

   Software package:
      R. Sundararaman, K. Letchworth-Weaver, K.A. Schwarz, D. Gunceler, Y. Ozhabes and T.A. Arias, 'JDFTx: software for joint density-functional theory', SoftwareX 6, 278 (2017)

   gga-PBE exchange-correlation functional:
      J.P. Perdew, K. Burke and M. Ernzerhof, Phys. Rev. Lett. 77, 3865 (1996)

   Pseudopotentials:
      M Schlipf and F Gygi, Comput. Phys. Commun. 196, 36 (2015)

   Truncated Coulomb potentials:
      R. Sundararaman and T.A. Arias, Phys. Rev. B 87, 165122 (2013)

This list may not be complete. Please suggest additional citations or
report any other bugs at https://github.com/shankar1729/jdftx/issues

Initialization completed successfully at t[s]:     11.34


-------- Electronic minimization -----------
Will mix electronic density at each iteration.
	FillingsUpdate:  mu: -0.083934037  nElectrons: 9.000000  magneticMoment: [ Abs: 0.46000  Tot: -0.46000 ]
	FillingsUpdate:  mu: -0.085770969  nElectrons: 9.000000  magneticMoment: [ Abs: 0.46000  Tot: -0.46000 ]
SCF: Cycle:  0   F: -24.437741481244696   dF: -1.646e-03   |Residual|: 4.000e-03   |deigs|: 1.736e-01  t[s]:     16.10
	FillingsUpdate:  mu: -0.085950861  nElectrons: 9.000000  magneticMoment: [ Abs: 0.46029  Tot: -0.46000 ]
SCF: Cycle:  1   F: -24.437795846255085   dF: -5.437e-05   |Residual|: 3.240e-03   |deigs|: 4.614e-03  t[s]:     19.83
	FillingsUpdate:  mu: -0.086174166  nElectrons: 9.000000  magneticMoment: [ Abs: 0.46225  Tot: -0.46000 ]
SCF: Cycle:  2   F: -24.437833454245077   dF: -3.761e-05   |Residual|: 2.230e-03   |deigs|: 2.084e-03  t[s]:     23.56
	FillingsUpdate:  mu: -0.086404824  nElectrons: 9.000000  magneticMoment: [ Abs: 0.46274  Tot: -0.46000 ]
SCF: Cycle:  3   F: -24.437852674534955   dF: -1.922e-05   |Residual|: 1.408e-03   |deigs|: 2.666e-03  t[s]:     27.32
	FillingsUpdate:  mu: -0.086447381  nElectrons: 9.000000  magneticMoment: [ Abs: 0.46092  Tot: -0.46000 ]
SCF: Cycle:  4   F: -24.437861929533273   dF: -9.255e-06   |Residual|: 7.464e-04   |deigs|: 2.541e-03  t[s]:     31.20
	FillingsUpdate:  mu: -0.086468172  nElectrons: 9.000000  magneticMoment: [ Abs: 0.46163  Tot: -0.46000 ]
SCF: Cycle:  5   F: -24.437867908036967   dF: -5.979e-06   |Residual|: 4.960e-04   |deigs|: 1.390e-03  t[s]:     35.05
	FillingsUpdate:  mu: -0.086350621  nElectrons: 9.000000  magneticMoment: [ Abs: 0.46148  Tot: -0.46000 ]
SCF: Cycle:  6   F: -24.437871245233392   dF: -3.337e-06   |Residual|: 3.617e-04   |deigs|: 1.521e-03  t[s]:     39.08
	FillingsUpdate:  mu: -0.086164271  nElectrons: 9.000000  magneticMoment: [ Abs: 0.46173  Tot: -0.46000 ]
SCF: Cycle:  7   F: -24.437871976791079   dF: -7.316e-07   |Residual|: 2.937e-04   |deigs|: 6.332e-04  t[s]:     43.17
	FillingsUpdate:  mu: -0.085919597  nElectrons: 9.000000  magneticMoment: [ Abs: 0.46259  Tot: -0.46000 ]
SCF: Cycle:  8   F: -24.437872192000658   dF: -2.152e-07   |Residual|: 2.388e-04   |deigs|: 3.391e-04  t[s]:     47.31
	FillingsUpdate:  mu: -0.085564777  nElectrons: 9.000000  magneticMoment: [ Abs: 0.46272  Tot: -0.46000 ]
SCF: Cycle:  9   F: -24.437871231742449   dF: +9.603e-07   |Residual|: 2.071e-04   |deigs|: 4.323e-04  t[s]:     51.48
	FillingsUpdate:  mu: -0.085321848  nElectrons: 9.000000  magneticMoment: [ Abs: 0.46253  Tot: -0.46000 ]
SCF: Cycle: 10   F: -24.437871115582727   dF: +1.162e-07   |Residual|: 1.898e-04   |deigs|: 4.370e-04  t[s]:     55.74
	FillingsUpdate:  mu: -0.085235070  nElectrons: 9.000000  magneticMoment: [ Abs: 0.46241  Tot: -0.46000 ]
SCF: Cycle: 11   F: -24.437872665376847   dF: -1.550e-06   |Residual|: 1.427e-04   |deigs|: 4.443e-04  t[s]:     59.95
	FillingsUpdate:  mu: -0.085002624  nElectrons: 9.000000  magneticMoment: [ Abs: 0.46275  Tot: -0.46000 ]
SCF: Cycle: 12   F: -24.437872958264489   dF: -2.929e-07   |Residual|: 1.339e-04   |deigs|: 3.725e-04  t[s]:     64.18
	FillingsUpdate:  mu: -0.084580058  nElectrons: 9.000000  magneticMoment: [ Abs: 0.46243  Tot: -0.46000 ]
SCF: Cycle: 13   F: -24.437872485070226   dF: +4.732e-07   |Residual|: 1.348e-04   |deigs|: 4.624e-04  t[s]:     68.53
	FillingsUpdate:  mu: -0.084402276  nElectrons: 9.000000  magneticMoment: [ Abs: 0.46204  Tot: -0.46000 ]
SCF: Cycle: 14   F: -24.437872442583689   dF: +4.249e-08   |Residual|: 1.250e-04   |deigs|: 2.729e-04  t[s]:     72.74
	FillingsUpdate:  mu: -0.084292396  nElectrons: 9.000000  magneticMoment: [ Abs: 0.46230  Tot: -0.46000 ]
SCF: Cycle: 15   F: -24.437873247190442   dF: -8.046e-07   |Residual|: 1.077e-04   |deigs|: 2.243e-04  t[s]:     76.96
	FillingsUpdate:  mu: -0.084080001  nElectrons: 9.000000  magneticMoment: [ Abs: 0.46175  Tot: -0.46000 ]
SCF: Cycle: 16   F: -24.437873960132702   dF: -7.129e-07   |Residual|: 7.464e-05   |deigs|: 2.558e-04  t[s]:     81.18
	FillingsUpdate:  mu: -0.083967801  nElectrons: 9.000000  magneticMoment: [ Abs: 0.46161  Tot: -0.46000 ]
SCF: Cycle: 17   F: -24.437874242595765   dF: -2.825e-07   |Residual|: 5.173e-05   |deigs|: 1.373e-04  t[s]:     85.44
	FillingsUpdate:  mu: -0.083957796  nElectrons: 9.000000  magneticMoment: [ Abs: 0.46158  Tot: -0.46000 ]
SCF: Cycle: 18   F: -24.437874327549373   dF: -8.495e-08   |Residual|: 3.480e-05   |deigs|: 5.300e-05  t[s]:     89.54
	FillingsUpdate:  mu: -0.083957649  nElectrons: 9.000000  magneticMoment: [ Abs: 0.46160  Tot: -0.46000 ]
SCF: Cycle: 19   F: -24.437874410324543   dF: -8.278e-08   |Residual|: 1.872e-05   |deigs|: 2.751e-05  t[s]:     93.80
	FillingsUpdate:  mu: -0.083952612  nElectrons: 9.000000  magneticMoment: [ Abs: 0.46159  Tot: -0.46000 ]
SCF: Cycle: 20   F: -24.437874425020553   dF: -1.470e-08   |Residual|: 1.286e-05   |deigs|: 1.457e-05  t[s]:     97.95
	FillingsUpdate:  mu: -0.083958330  nElectrons: 9.000000  magneticMoment: [ Abs: 0.46159  Tot: -0.46000 ]
SCF: Cycle: 21   F: -24.437874435582735   dF: -1.056e-08   |Residual|: 8.137e-06   |deigs|: 1.349e-05  t[s]:    102.21
	FillingsUpdate:  mu: -0.083958594  nElectrons: 9.000000  magneticMoment: [ Abs: 0.46160  Tot: -0.46000 ]
SCF: Cycle: 22   F: -24.437874440736199   dF: -5.153e-09   |Residual|: 5.678e-06   |deigs|: 6.951e-06  t[s]:    106.46
	FillingsUpdate:  mu: -0.083957861  nElectrons: 9.000000  magneticMoment: [ Abs: 0.46160  Tot: -0.46000 ]
SCF: Cycle: 23   F: -24.437874442811808   dF: -2.076e-09   |Residual|: 3.379e-06   |deigs|: 6.412e-06  t[s]:    110.64
SCF: Converged (|Delta E|<1.000000e-08 for 2 iters).


# Ionic positions in lattice coordinates:
ion Rb   0.000000000000000   0.000000000000000   0.000000000000000 0

# Forces in Lattice coordinates:
force Rb   0.000000000000000   0.000000000000000   0.000000000000000 0

# Energy components:
   Eewald =      -12.0320174002217755
       EH =        7.4955798033170842
     Eloc =      -22.4064604333721782
      Enl =       -0.7973889919019037
   Epulay =       -0.0000000014467880
      Exc =       -3.6480874601376652
       KE =        6.9505008244742967
-------------------------------------
     Etot =      -24.4378736592889325
       TS =        0.0000007835228744
-------------------------------------
        F =      -24.4378744428118075

IonicMinimize: Iter:   0  F: -24.437874442811808  |grad|_K:  0.000e+00  t[s]:    110.90
IonicMinimize: Converged (|grad|_K<1.000000e-04).

#--- Lowdin population analysis ---
# oxidation-state Rb +0.034
# magnetic-moments Rb -0.434

End date and time: Sun Feb  6 12:43:42 2022  (Duration: 0-0:01:50.94)
Done!
scale=4
magnetization=-0.46
--------------------------------------------------------------------------
The library attempted to open the following supporting CUDA libraries,
but each of them failed.  CUDA-aware support is disabled.
libcuda.so.1: cannot open shared object file: No such file or directory
libcuda.dylib: cannot open shared object file: No such file or directory
/usr/lib64/libcuda.so.1: cannot open shared object file: No such file or directory
/usr/lib64/libcuda.dylib: cannot open shared object file: No such file or directory
If you are not interested in CUDA-aware support, then run with
--mca opal_warn_on_missing_libcuda 0 to suppress this message.  If you are interested
in CUDA-aware support, then try setting LD_LIBRARY_PATH to the location
of libcuda.so.1 to get passed this issue.
--------------------------------------------------------------------------
--------------------------------------------------------------------------
No OpenFabrics connection schemes reported that they were able to be
used on a specific port.  As such, the openib BTL (OpenFabrics
support) will be disabled for this port.

  Local host:           d-16-6-2
  Local device:         mlx5_1
  Local port:           1
  CPCs attempted:       rdmacm, udcm
--------------------------------------------------------------------------

*************** JDFTx 1.6.0 (git hash 42ebbcc2) ***************

Start date and time: Sun Feb  6 12:43:43 2022
Executable jdftx with command-line: -i Alkali.in
Running on hosts (process indices):  d-16-6-2 (0-18)
Divided in process groups (process indices):  0 (0)  1 (1)  2 (2)  3 (3)  4 (4)  5 (5)  6 (6)  7 (7)  8 (8)  9 (9)  10 (10)  11 (11)  12 (12)  13 (13)  14 (14)  15 (15)  16 (16)  17 (17)  18 (18)
Resource initialization completed at t[s]:      0.00
Run totals: 19 processes, 48 threads, 0 GPUs


Input parsed successfully to the following command list (including defaults):

basis kpoint-dependent
coords-type Lattice
core-overlap-check vector
coulomb-interaction Slab 001
davidson-band-ratio 1.1
dump End None
dump-name $INPUT.$VAR
elec-cutoff 20
elec-eigen-algo Davidson
elec-ex-corr gga-PBE
elec-initial-magnetization -0.460000 yes
elec-smearing Fermi 1e-05
electronic-minimize  \
	dirUpdateScheme      FletcherReeves \
	linminMethod         DirUpdateRecommended \
	nIterations          100 \
	history              15 \
	knormThreshold       0 \
	energyDiffThreshold  1e-08 \
	nEnergyDiff          2 \
	alphaTstart          1 \
	alphaTmin            1e-10 \
	updateTestStepSize   yes \
	alphaTreduceFactor   0.1 \
	alphaTincreaseFactor 3 \
	nAlphaAdjustMax      3 \
	wolfeEnergy          0.0001 \
	wolfeGradient        0.9 \
	fdTest               no
electronic-scf  \
	nIterations	10000 \
	energyDiffThreshold	1e-08 \
	residualThreshold	1e-07 \
	mixFraction	0.5 \
	qMetric	0.8 \
	history	10 \
	nEigSteps	2 \
	eigDiffThreshold	1e-08 \
	mixedVariable	Density \
	qKerker	0.8 \
	qKappa	-1 \
	verbose	no \
	mixFractionMag	1.5
exchange-regularization WignerSeitzTruncated
fluid None
fluid-ex-corr (null) lda-PZ
fluid-gummel-loop 10 1.000000e-05
fluid-minimize  \
	dirUpdateScheme      PolakRibiere \
	linminMethod         DirUpdateRecommended \
	nIterations          100 \
	history              15 \
	knormThreshold       0 \
	energyDiffThreshold  0 \
	nEnergyDiff          2 \
	alphaTstart          1 \
	alphaTmin            1e-10 \
	updateTestStepSize   yes \
	alphaTreduceFactor   0.1 \
	alphaTincreaseFactor 3 \
	nAlphaAdjustMax      3 \
	wolfeEnergy          0.0001 \
	wolfeGradient        0.9 \
	fdTest               no
fluid-solvent H2O 55.338 ScalarEOS \
	epsBulk 78.4 \
	pMol 0.92466 \
	epsInf 1.77 \
	Pvap 1.06736e-10 \
	sigmaBulk 4.62e-05 \
	Rvdw 2.61727 \
	Res 1.42 \
	tauNuc 343133 \
	poleEl 15 7 1
forces-output-coords Positions
ion Rb   0.000000000000000   0.000000000000000   0.000000000000000 0
ion-species SG15/$ID_ONCV_PBE.upf
ion-width 0
ionic-minimize  \
	dirUpdateScheme      L-BFGS \
	linminMethod         DirUpdateRecommended \
	nIterations          0 \
	history              15 \
	knormThreshold       0.0001 \
	energyDiffThreshold  1e-06 \
	nEnergyDiff          2 \
	alphaTstart          1 \
	alphaTmin            1e-10 \
	updateTestStepSize   yes \
	alphaTreduceFactor   0.1 \
	alphaTincreaseFactor 3 \
	nAlphaAdjustMax      3 \
	wolfeEnergy          0.0001 \
	wolfeGradient        0.9 \
	fdTest               no
kpoint   0.000000000000   0.000000000000   0.000000000000  1.00000000000000
kpoint-folding 12 12 1 
latt-move-scale 1 1 1
latt-scale 4 4 1 
lattice  \
	   4.727486978767153   -2.363743489383575    0.000000000000000  \
	  -0.000000000000000    4.094123819672498    0.000000000000000  \
	   0.000000000000000    0.000000000000000   40.000000000000000 
lattice-minimize  \
	dirUpdateScheme      L-BFGS \
	linminMethod         DirUpdateRecommended \
	nIterations          0 \
	history              15 \
	knormThreshold       0 \
	energyDiffThreshold  1e-06 \
	nEnergyDiff          2 \
	alphaTstart          1 \
	alphaTmin            1e-10 \
	updateTestStepSize   yes \
	alphaTreduceFactor   0.1 \
	alphaTincreaseFactor 3 \
	nAlphaAdjustMax      3 \
	wolfeEnergy          0.0001 \
	wolfeGradient        0.9 \
	fdTest               no
lcao-params -1 1e-06 1e-05
pcm-variant GLSSA13
spintype z-spin
subspace-rotation-factor 1 yes
symmetries automatic
symmetry-threshold 0.0001



---------- Setting up symmetries ----------

Found 24 point-group symmetries of the bravais lattice
Found 24 space-group symmetries with basis
Applied RMS atom displacement 0 bohrs to make symmetries exact.

---------- Initializing the Grid ----------
R = 
[      18.9099     -9.45497            0  ]
[            0      16.3765            0  ]
[            0            0           40  ]
unit cell volume = 12387.1
G =
[   0.332269   0.191835         -0  ]
[          0   0.383671         -0  ]
[         -0         -0    0.15708  ]
Minimum fftbox size, Smin = [  80  80  164  ]
Chosen fftbox size, S = [  80  80  168  ]

---------- Exchange Correlation functional ----------
Initalized PBE GGA exchange.
Initalized PBE GGA correlation.

---------- Setting up pseudopotentials ----------
Width of ionic core gaussian charges (only for fluid interactions / plotting) set to 0

Reading pseudopotential file '/home/gridsan/aligho/DFT/build-Nov24/pseudopotentials/SG15/Rb_ONCV_PBE.upf':
  'Rb' pseudopotential, 'PBE' functional
  Generated using ONCVPSP code by D. R. Hamann
  Author: Martin Schlipf and Francois Gygi  Date: 150915.
  9 valence electrons, 3 orbitals, 6 projectors, 2308 radial grid points, with lMax = 2
  Transforming local potential to a uniform radial grid of dG=0.02 with 1489 points.
  Transforming nonlocal projectors to a uniform radial grid of dG=0.02 with 432 points.
    4S    l: 0   occupation:  2.0   eigenvalue: -1.172069
    4P    l: 1   occupation:  6.0   eigenvalue: -0.586674
    5S    l: 0   occupation:  1.0   eigenvalue: -0.082006
  Transforming atomic orbitals to a uniform radial grid of dG=0.02 with 432 points.
  Core radius for overlap checks: 2.60 bohrs.
  Reading pulay file /home/gridsan/aligho/DFT/build-Nov24/pseudopotentials/SG15/Rb_ONCV_PBE.pulay ... using dE_dnG = -1.360715e-05 computed for Ecut = 20.

Initialized 1 species with 1 total atoms.

Folded 1 k-points by 12x12x1 to 144 k-points.

---------- Setting up k-points, bands, fillings ----------
Reduced to 19 k-points under symmetry. 
Computing the number of bands and number of electrons
Calculating initial fillings.
nElectrons:   9.000000   nBands: 6   nStates: 38

----- Setting up reduced wavefunction bases (one per k-point) -----
average nbasis = 52924.021 , ideal nbasis = 52918.836

---------- Setting up coulomb interaction ----------
Initialized slab truncation along lattice direction 001

---------- Setting up 2D ewald sum ----------
Optimum gaussian width for ewald sums = 10.498040 bohr.
Real space sums over 289 unit cells with max indices [  8  8  0  ]
Reciprocal space sums over 81 terms with max indices [  4  4  0  ]

---------- Allocating electronic variables ----------
Initializing wave functions:  linear combination of atomic orbitals
Note: number of bands (6) exceeds available atomic orbitals (5)
Rb pseudo-atom occupations:   s ( 2 1 )  p ( 6 )
[d-16-6-2:31663] 18 more processes have sent help message help-mpi-common-cuda.txt / dlopen failed
[d-16-6-2:31663] Set MCA parameter "orte_base_help_aggregate" to 0 to see all help / error messages
[d-16-6-2:31663] 18 more processes have sent help message help-mpi-btl-openib-cpc-base.txt / no cpcs for port
	FillingsUpdate:  mu: -0.082574932  nElectrons: 9.000000  magneticMoment: [ Abs: 0.46000  Tot: -0.46000 ]
LCAOMinimize: Iter:   0  F: -24.4312494598493686  |grad|_K:  4.289e-06  alpha:  1.000e+00
	FillingsUpdate:  mu: -0.082573969  nElectrons: 9.000000  magneticMoment: [ Abs: 0.46000  Tot: -0.46000 ]
LCAOMinimize: Iter:   1  F: -24.4312494722834863  |grad|_K:  2.184e-08  alpha:  9.880e-01  linmin: -8.261e-04  cgtest:  2.264e-01  t[s]:     14.80
LCAOMinimize: Encountered beta<0, resetting CG.
	FillingsUpdate:  mu: -0.082573969  nElectrons: 9.000000  magneticMoment: [ Abs: 0.46000  Tot: -0.46000 ]
LCAOMinimize: Iter:   2  F: -24.4312494722838700  |grad|_K:  8.146e-09  alpha:  6.270e-01  linmin: -2.866e-03  cgtest:  1.000e+00  t[s]:     18.72
LCAOMinimize: Encountered beta<0, resetting CG.
LCAOMinimize: Converged (|Delta F|<1.000000e-06 for 2 iters).


---- Citations for features of the code used in this run ----

   Software package:
      R. Sundararaman, K. Letchworth-Weaver, K.A. Schwarz, D. Gunceler, Y. Ozhabes and T.A. Arias, 'JDFTx: software for joint density-functional theory', SoftwareX 6, 278 (2017)

   gga-PBE exchange-correlation functional:
      J.P. Perdew, K. Burke and M. Ernzerhof, Phys. Rev. Lett. 77, 3865 (1996)

   Pseudopotentials:
      M Schlipf and F Gygi, Comput. Phys. Commun. 196, 36 (2015)

   Truncated Coulomb potentials:
      R. Sundararaman and T.A. Arias, Phys. Rev. B 87, 165122 (2013)

This list may not be complete. Please suggest additional citations or
report any other bugs at https://github.com/shankar1729/jdftx/issues

Initialization completed successfully at t[s]:     18.98


-------- Electronic minimization -----------
Will mix electronic density at each iteration.
	FillingsUpdate:  mu: -0.082573969  nElectrons: 9.000000  magneticMoment: [ Abs: 0.46000  Tot: -0.46000 ]
	FillingsUpdate:  mu: -0.082674244  nElectrons: 9.000000  magneticMoment: [ Abs: 0.46000  Tot: -0.46000 ]
SCF: Cycle:  0   F: -24.431352881481061   dF: -1.034e-04   |Residual|: 1.123e-03   |deigs|: 1.744e-01  t[s]:     27.06
	FillingsUpdate:  mu: -0.082692987  nElectrons: 9.000000  magneticMoment: [ Abs: 0.46215  Tot: -0.46000 ]
SCF: Cycle:  1   F: -24.431354616699288   dF: -1.735e-06   |Residual|: 4.045e-04   |deigs|: 5.148e-03  t[s]:     33.44
	FillingsUpdate:  mu: -0.082711940  nElectrons: 9.000000  magneticMoment: [ Abs: 0.46229  Tot: -0.46000 ]
SCF: Cycle:  2   F: -24.431355106448635   dF: -4.897e-07   |Residual|: 2.900e-04   |deigs|: 1.482e-03  t[s]:     39.93
	FillingsUpdate:  mu: -0.082736890  nElectrons: 9.000000  magneticMoment: [ Abs: 0.46280  Tot: -0.46000 ]
SCF: Cycle:  3   F: -24.431355402975690   dF: -2.965e-07   |Residual|: 2.234e-04   |deigs|: 9.441e-04  t[s]:     46.52
	FillingsUpdate:  mu: -0.082765889  nElectrons: 9.000000  magneticMoment: [ Abs: 0.46268  Tot: -0.46000 ]
SCF: Cycle:  4   F: -24.431355821721397   dF: -4.187e-07   |Residual|: 1.597e-04   |deigs|: 2.592e-04  t[s]:     53.16
	FillingsUpdate:  mu: -0.082801351  nElectrons: 9.000000  magneticMoment: [ Abs: 0.46281  Tot: -0.46000 ]
SCF: Cycle:  5   F: -24.431356119326963   dF: -2.976e-07   |Residual|: 1.052e-04   |deigs|: 4.698e-04  t[s]:     59.95
	FillingsUpdate:  mu: -0.082806570  nElectrons: 9.000000  magneticMoment: [ Abs: 0.46280  Tot: -0.46000 ]
SCF: Cycle:  6   F: -24.431356298052521   dF: -1.787e-07   |Residual|: 6.989e-05   |deigs|: 5.834e-04  t[s]:     66.91
	FillingsUpdate:  mu: -0.082805440  nElectrons: 9.000000  magneticMoment: [ Abs: 0.46278  Tot: -0.46000 ]
SCF: Cycle:  7   F: -24.431356405307852   dF: -1.073e-07   |Residual|: 5.127e-05   |deigs|: 7.640e-04  t[s]:     73.87
	FillingsUpdate:  mu: -0.082791296  nElectrons: 9.000000  magneticMoment: [ Abs: 0.46275  Tot: -0.46000 ]
SCF: Cycle:  8   F: -24.431356460109850   dF: -5.480e-08   |Residual|: 4.061e-05   |deigs|: 3.677e-04  t[s]:     81.04
	FillingsUpdate:  mu: -0.082762142  nElectrons: 9.000000  magneticMoment: [ Abs: 0.46268  Tot: -0.46000 ]
SCF: Cycle:  9   F: -24.431356495467860   dF: -3.536e-08   |Residual|: 3.130e-05   |deigs|: 8.577e-05  t[s]:     88.34
	FillingsUpdate:  mu: -0.082738225  nElectrons: 9.000000  magneticMoment: [ Abs: 0.46270  Tot: -0.46000 ]
SCF: Cycle: 10   F: -24.431356488769616   dF: +6.698e-09   |Residual|: 2.881e-05   |deigs|: 4.873e-05  t[s]:     95.73
	FillingsUpdate:  mu: -0.082710748  nElectrons: 9.000000  magneticMoment: [ Abs: 0.46284  Tot: -0.46000 ]
SCF: Cycle: 11   F: -24.431356464362789   dF: +2.441e-08   |Residual|: 2.732e-05   |deigs|: 5.636e-05  t[s]:    103.03
	FillingsUpdate:  mu: -0.082676899  nElectrons: 9.000000  magneticMoment: [ Abs: 0.46288  Tot: -0.46000 ]
SCF: Cycle: 12   F: -24.431356296140624   dF: +1.682e-07   |Residual|: 2.411e-05   |deigs|: 9.276e-05  t[s]:    110.44
	FillingsUpdate:  mu: -0.082642960  nElectrons: 9.000000  magneticMoment: [ Abs: 0.46285  Tot: -0.46000 ]
SCF: Cycle: 13   F: -24.431356378009934   dF: -8.187e-08   |Residual|: 2.258e-05   |deigs|: 1.059e-04  t[s]:    117.63
	FillingsUpdate:  mu: -0.082620522  nElectrons: 9.000000  magneticMoment: [ Abs: 0.46287  Tot: -0.46000 ]
SCF: Cycle: 14   F: -24.431356456135614   dF: -7.813e-08   |Residual|: 1.941e-05   |deigs|: 9.461e-05  t[s]:    124.78
	FillingsUpdate:  mu: -0.082598910  nElectrons: 9.000000  magneticMoment: [ Abs: 0.46285  Tot: -0.46000 ]
SCF: Cycle: 15   F: -24.431356437310804   dF: +1.882e-08   |Residual|: 1.765e-05   |deigs|: 6.269e-05  t[s]:    132.10
	FillingsUpdate:  mu: -0.082574353  nElectrons: 9.000000  magneticMoment: [ Abs: 0.46279  Tot: -0.46000 ]
SCF: Cycle: 16   F: -24.431356451997114   dF: -1.469e-08   |Residual|: 1.637e-05   |deigs|: 3.949e-05  t[s]:    139.42
	FillingsUpdate:  mu: -0.082560051  nElectrons: 9.000000  magneticMoment: [ Abs: 0.46275  Tot: -0.46000 ]
SCF: Cycle: 17   F: -24.431356436340124   dF: +1.566e-08   |Residual|: 1.307e-05   |deigs|: 2.302e-05  t[s]:    146.71
	FillingsUpdate:  mu: -0.082553205  nElectrons: 9.000000  magneticMoment: [ Abs: 0.46271  Tot: -0.46000 ]
SCF: Cycle: 18   F: -24.431356507911289   dF: -7.157e-08   |Residual|: 9.830e-06   |deigs|: 1.167e-05  t[s]:    153.81
	FillingsUpdate:  mu: -0.082548467  nElectrons: 9.000000  magneticMoment: [ Abs: 0.46268  Tot: -0.46000 ]
SCF: Cycle: 19   F: -24.431356519721763   dF: -1.181e-08   |Residual|: 7.663e-06   |deigs|: 6.030e-06  t[s]:    160.46
	FillingsUpdate:  mu: -0.082544709  nElectrons: 9.000000  magneticMoment: [ Abs: 0.46270  Tot: -0.46000 ]
SCF: Cycle: 20   F: -24.431356548295330   dF: -2.857e-08   |Residual|: 5.304e-06   |deigs|: 4.221e-06  t[s]:    167.79
	FillingsUpdate:  mu: -0.082543597  nElectrons: 9.000000  magneticMoment: [ Abs: 0.46269  Tot: -0.46000 ]
SCF: Cycle: 21   F: -24.431356556079354   dF: -7.784e-09   |Residual|: 3.927e-06   |deigs|: 5.403e-06  t[s]:    174.47
	FillingsUpdate:  mu: -0.082542912  nElectrons: 9.000000  magneticMoment: [ Abs: 0.46268  Tot: -0.46000 ]
SCF: Cycle: 22   F: -24.431356558523696   dF: -2.444e-09   |Residual|: 2.982e-06   |deigs|: 8.566e-06  t[s]:    181.70
SCF: Converged (|Delta E|<1.000000e-08 for 2 iters).


# Ionic positions in lattice coordinates:
ion Rb   0.000000000000000   0.000000000000000   0.000000000000000 0

# Forces in Lattice coordinates:
force Rb   0.000000000000000   0.000000000000000   0.000000000000000 0

# Energy components:
   Eewald =       -9.0240130501663280
       EH =       10.5264486628439240
     Eloc =      -28.4509088369902656
      Enl =       -0.7929083995249971
   Epulay =        0.0000000056959385
      Exc =       -3.6493113684484690
       KE =        6.9593378945342286
-------------------------------------
     Etot =      -24.4313550920559699
       TS =        0.0000014664677268
-------------------------------------
        F =      -24.4313565585236958

IonicMinimize: Iter:   0  F: -24.431356558523696  |grad|_K:  0.000e+00  t[s]:    182.10
IonicMinimize: Converged (|grad|_K<1.000000e-04).

#--- Lowdin population analysis ---
# oxidation-state Rb +0.002
# magnetic-moments Rb -0.459

End date and time: Sun Feb  6 12:46:45 2022  (Duration: 0-0:03:02.16)
Done!
