The alkali metal is Rb
scale=2
magnetization=0.56
--------------------------------------------------------------------------
The library attempted to open the following supporting CUDA libraries,
but each of them failed.  CUDA-aware support is disabled.
libcuda.so.1: cannot open shared object file: No such file or directory
libcuda.dylib: cannot open shared object file: No such file or directory
/usr/lib64/libcuda.so.1: cannot open shared object file: No such file or directory
/usr/lib64/libcuda.dylib: cannot open shared object file: No such file or directory
If you are not interested in CUDA-aware support, then run with
--mca opal_warn_on_missing_libcuda 0 to suppress this message.  If you are interested
in CUDA-aware support, then try setting LD_LIBRARY_PATH to the location
of libcuda.so.1 to get passed this issue.
--------------------------------------------------------------------------
--------------------------------------------------------------------------
No OpenFabrics connection schemes reported that they were able to be
used on a specific port.  As such, the openib BTL (OpenFabrics
support) will be disabled for this port.

  Local host:           d-16-12-2
  Local device:         mlx5_1
  Local port:           1
  CPCs attempted:       rdmacm, udcm
--------------------------------------------------------------------------

*************** JDFTx 1.6.0 (git hash 42ebbcc2) ***************

Start date and time: Sun Feb  6 12:53:46 2022
Executable jdftx with command-line: -i Alkali.in
Running on hosts (process indices):  d-16-12-2 (0-18)
Divided in process groups (process indices):  0 (0)  1 (1)  2 (2)  3 (3)  4 (4)  5 (5)  6 (6)  7 (7)  8 (8)  9 (9)  10 (10)  11 (11)  12 (12)  13 (13)  14 (14)  15 (15)  16 (16)  17 (17)  18 (18)
Resource initialization completed at t[s]:      0.00
Run totals: 19 processes, 48 threads, 0 GPUs


Input parsed successfully to the following command list (including defaults):

basis kpoint-dependent
coords-type Lattice
core-overlap-check vector
coulomb-interaction Slab 001
davidson-band-ratio 1.1
dump End None
dump-name $INPUT.$VAR
elec-cutoff 20
elec-eigen-algo Davidson
elec-ex-corr gga-PBE
elec-initial-magnetization 0.560000 yes
elec-smearing Fermi 1e-05
electronic-minimize  \
	dirUpdateScheme      FletcherReeves \
	linminMethod         DirUpdateRecommended \
	nIterations          100 \
	history              15 \
	knormThreshold       0 \
	energyDiffThreshold  1e-08 \
	nEnergyDiff          2 \
	alphaTstart          1 \
	alphaTmin            1e-10 \
	updateTestStepSize   yes \
	alphaTreduceFactor   0.1 \
	alphaTincreaseFactor 3 \
	nAlphaAdjustMax      3 \
	wolfeEnergy          0.0001 \
	wolfeGradient        0.9 \
	fdTest               no
electronic-scf  \
	nIterations	10000 \
	energyDiffThreshold	1e-08 \
	residualThreshold	1e-07 \
	mixFraction	0.5 \
	qMetric	0.8 \
	history	10 \
	nEigSteps	2 \
	eigDiffThreshold	1e-08 \
	mixedVariable	Density \
	qKerker	0.8 \
	qKappa	-1 \
	verbose	no \
	mixFractionMag	1.5
exchange-regularization WignerSeitzTruncated
fluid None
fluid-ex-corr (null) lda-PZ
fluid-gummel-loop 10 1.000000e-05
fluid-minimize  \
	dirUpdateScheme      PolakRibiere \
	linminMethod         DirUpdateRecommended \
	nIterations          100 \
	history              15 \
	knormThreshold       0 \
	energyDiffThreshold  0 \
	nEnergyDiff          2 \
	alphaTstart          1 \
	alphaTmin            1e-10 \
	updateTestStepSize   yes \
	alphaTreduceFactor   0.1 \
	alphaTincreaseFactor 3 \
	nAlphaAdjustMax      3 \
	wolfeEnergy          0.0001 \
	wolfeGradient        0.9 \
	fdTest               no
fluid-solvent H2O 55.338 ScalarEOS \
	epsBulk 78.4 \
	pMol 0.92466 \
	epsInf 1.77 \
	Pvap 1.06736e-10 \
	sigmaBulk 4.62e-05 \
	Rvdw 2.61727 \
	Res 1.42 \
	tauNuc 343133 \
	poleEl 15 7 1
forces-output-coords Positions
ion Rb   0.000000000000000   0.000000000000000   0.000000000000000 0
ion-species SG15/$ID_ONCV_PBE.upf
ion-width 0
ionic-minimize  \
	dirUpdateScheme      L-BFGS \
	linminMethod         DirUpdateRecommended \
	nIterations          0 \
	history              15 \
	knormThreshold       0.0001 \
	energyDiffThreshold  1e-06 \
	nEnergyDiff          2 \
	alphaTstart          1 \
	alphaTmin            1e-10 \
	updateTestStepSize   yes \
	alphaTreduceFactor   0.1 \
	alphaTincreaseFactor 3 \
	nAlphaAdjustMax      3 \
	wolfeEnergy          0.0001 \
	wolfeGradient        0.9 \
	fdTest               no
kpoint   0.000000000000   0.000000000000   0.000000000000  1.00000000000000
kpoint-folding 12 12 1 
latt-move-scale 1 1 1
latt-scale 2 2 1 
lattice  \
	   4.727486978767153   -2.363743489383575    0.000000000000000  \
	  -0.000000000000000    4.094123819672498    0.000000000000000  \
	   0.000000000000000    0.000000000000000   40.000000000000000 
lattice-minimize  \
	dirUpdateScheme      L-BFGS \
	linminMethod         DirUpdateRecommended \
	nIterations          0 \
	history              15 \
	knormThreshold       0 \
	energyDiffThreshold  1e-06 \
	nEnergyDiff          2 \
	alphaTstart          1 \
	alphaTmin            1e-10 \
	updateTestStepSize   yes \
	alphaTreduceFactor   0.1 \
	alphaTincreaseFactor 3 \
	nAlphaAdjustMax      3 \
	wolfeEnergy          0.0001 \
	wolfeGradient        0.9 \
	fdTest               no
lcao-params -1 1e-06 1e-05
pcm-variant GLSSA13
spintype z-spin
subspace-rotation-factor 1 yes
symmetries automatic
symmetry-threshold 0.0001



---------- Setting up symmetries ----------

Found 24 point-group symmetries of the bravais lattice
Found 24 space-group symmetries with basis
Applied RMS atom displacement 0 bohrs to make symmetries exact.

---------- Initializing the Grid ----------
R = 
[      9.45497     -4.72749            0  ]
[            0      8.18825            0  ]
[            0            0           40  ]
unit cell volume = 3096.79
G =
[   0.664538   0.383671         -0  ]
[          0   0.767342         -0  ]
[         -0         -0    0.15708  ]
Minimum fftbox size, Smin = [  40  40  164  ]
Chosen fftbox size, S = [  40  40  168  ]

---------- Exchange Correlation functional ----------
Initalized PBE GGA exchange.
Initalized PBE GGA correlation.

---------- Setting up pseudopotentials ----------
Width of ionic core gaussian charges (only for fluid interactions / plotting) set to 0

Reading pseudopotential file '/home/gridsan/aligho/DFT/build-Nov24/pseudopotentials/SG15/Rb_ONCV_PBE.upf':
  'Rb' pseudopotential, 'PBE' functional
  Generated using ONCVPSP code by D. R. Hamann
  Author: Martin Schlipf and Francois Gygi  Date: 150915.
  9 valence electrons, 3 orbitals, 6 projectors, 2308 radial grid points, with lMax = 2
  Transforming local potential to a uniform radial grid of dG=0.02 with 1489 points.
  Transforming nonlocal projectors to a uniform radial grid of dG=0.02 with 432 points.
    4S    l: 0   occupation:  2.0   eigenvalue: -1.172069
    4P    l: 1   occupation:  6.0   eigenvalue: -0.586674
    5S    l: 0   occupation:  1.0   eigenvalue: -0.082006
  Transforming atomic orbitals to a uniform radial grid of dG=0.02 with 432 points.
  Core radius for overlap checks: 2.60 bohrs.
  Reading pulay file /home/gridsan/aligho/DFT/build-Nov24/pseudopotentials/SG15/Rb_ONCV_PBE.pulay ... using dE_dnG = -1.360715e-05 computed for Ecut = 20.

Initialized 1 species with 1 total atoms.

Folded 1 k-points by 12x12x1 to 144 k-points.

---------- Setting up k-points, bands, fillings ----------
Reduced to 19 k-points under symmetry. 
Computing the number of bands and number of electrons
Calculating initial fillings.
nElectrons:   9.000000   nBands: 6   nStates: 38

----- Setting up reduced wavefunction bases (one per k-point) -----
average nbasis = 13230.521 , ideal nbasis = 13229.709

---------- Setting up coulomb interaction ----------
Initialized slab truncation along lattice direction 001

---------- Setting up 2D ewald sum ----------
Optimum gaussian width for ewald sums = 5.249020 bohr.
Real space sums over 289 unit cells with max indices [  8  8  0  ]
Reciprocal space sums over 81 terms with max indices [  4  4  0  ]

---------- Allocating electronic variables ----------
Initializing wave functions:  linear combination of atomic orbitals
Note: number of bands (6) exceeds available atomic orbitals (5)
Rb pseudo-atom occupations:   s ( 2 1 )  p ( 6 )
	FillingsUpdate:  mu: -0.094078977  nElectrons: 9.000000  magneticMoment: [ Abs: 0.56000  Tot: +0.56000 ]
LCAOMinimize: Iter:   0  F: -24.4430228039033928  |grad|_K:  2.898e-05  alpha:  1.000e+00
[d-16-12-2:70314] 18 more processes have sent help message help-mpi-common-cuda.txt / dlopen failed
[d-16-12-2:70314] Set MCA parameter "orte_base_help_aggregate" to 0 to see all help / error messages
[d-16-12-2:70314] 18 more processes have sent help message help-mpi-btl-openib-cpc-base.txt / no cpcs for port
	FillingsUpdate:  mu: -0.094068523  nElectrons: 9.000000  magneticMoment: [ Abs: 0.56000  Tot: +0.56000 ]
LCAOMinimize: Iter:   1  F: -24.4430233660019418  |grad|_K:  2.988e-07  alpha:  9.789e-01  linmin: -2.470e-02  cgtest:  3.190e-01  t[s]:      4.91
LCAOMinimize: Encountered beta<0, resetting CG.
	FillingsUpdate:  mu: -0.094068579  nElectrons: 9.000000  magneticMoment: [ Abs: 0.56000  Tot: +0.56000 ]
LCAOMinimize: Iter:   2  F: -24.4430233660631053  |grad|_K:  1.352e-09  alpha:  9.984e-01  linmin: -7.611e-02  cgtest:  5.703e-01  t[s]:      6.10
LCAOMinimize: Encountered beta<0, resetting CG.
LCAOMinimize: Converged (|Delta F|<1.000000e-06 for 2 iters).


---- Citations for features of the code used in this run ----

   Software package:
      R. Sundararaman, K. Letchworth-Weaver, K.A. Schwarz, D. Gunceler, Y. Ozhabes and T.A. Arias, 'JDFTx: software for joint density-functional theory', SoftwareX 6, 278 (2017)

   gga-PBE exchange-correlation functional:
      J.P. Perdew, K. Burke and M. Ernzerhof, Phys. Rev. Lett. 77, 3865 (1996)

   Pseudopotentials:
      M Schlipf and F Gygi, Comput. Phys. Commun. 196, 36 (2015)

   Truncated Coulomb potentials:
      R. Sundararaman and T.A. Arias, Phys. Rev. B 87, 165122 (2013)

This list may not be complete. Please suggest additional citations or
report any other bugs at https://github.com/shankar1729/jdftx/issues

Initialization completed successfully at t[s]:      6.19


-------- Electronic minimization -----------
Will mix electronic density at each iteration.
	FillingsUpdate:  mu: -0.094068579  nElectrons: 9.000000  magneticMoment: [ Abs: 0.56000  Tot: +0.56000 ]
	FillingsUpdate:  mu: -0.104400769  nElectrons: 9.000000  magneticMoment: [ Abs: 0.56000  Tot: +0.56000 ]
SCF: Cycle:  0   F: -24.450232081899731   dF: -7.209e-03   |Residual|: 1.225e-02   |deigs|: 1.786e-01  t[s]:      8.58
	FillingsUpdate:  mu: -0.104287059  nElectrons: 9.000000  magneticMoment: [ Abs: 0.56000  Tot: +0.56000 ]
SCF: Cycle:  1   F: -24.450542559990939   dF: -3.105e-04   |Residual|: 8.769e-03   |deigs|: 6.846e-03  t[s]:     10.37
	FillingsUpdate:  mu: -0.102826258  nElectrons: 9.000000  magneticMoment: [ Abs: 0.56269  Tot: +0.56000 ]
SCF: Cycle:  2   F: -24.450660866786979   dF: -1.183e-04   |Residual|: 5.107e-03   |deigs|: 2.607e-03  t[s]:     12.21
	FillingsUpdate:  mu: -0.101740442  nElectrons: 9.000000  magneticMoment: [ Abs: 0.56008  Tot: +0.56000 ]
SCF: Cycle:  3   F: -24.450736469321011   dF: -7.560e-05   |Residual|: 3.171e-03   |deigs|: 1.502e-03  t[s]:     14.10
	FillingsUpdate:  mu: -0.099931096  nElectrons: 9.000000  magneticMoment: [ Abs: 0.56006  Tot: +0.56000 ]
SCF: Cycle:  4   F: -24.450781942270925   dF: -4.547e-05   |Residual|: 2.188e-03   |deigs|: 2.023e-03  t[s]:     15.98
	FillingsUpdate:  mu: -0.098455355  nElectrons: 9.000000  magneticMoment: [ Abs: 0.56096  Tot: +0.56000 ]
SCF: Cycle:  5   F: -24.450802422079061   dF: -2.048e-05   |Residual|: 1.649e-03   |deigs|: 3.529e-03  t[s]:     17.88
	FillingsUpdate:  mu: -0.096041579  nElectrons: 9.000000  magneticMoment: [ Abs: 0.56702  Tot: +0.56000 ]
SCF: Cycle:  6   F: -24.450801762423314   dF: +6.597e-07   |Residual|: 1.224e-03   |deigs|: 2.981e-03  t[s]:     19.83
	FillingsUpdate:  mu: -0.093716594  nElectrons: 9.000000  magneticMoment: [ Abs: 0.56803  Tot: +0.56000 ]
SCF: Cycle:  7   F: -24.450822030391166   dF: -2.027e-05   |Residual|: 1.134e-03   |deigs|: 2.910e-03  t[s]:     21.81
	FillingsUpdate:  mu: -0.093988755  nElectrons: 9.000000  magneticMoment: [ Abs: 0.56151  Tot: +0.56000 ]
SCF: Cycle:  8   F: -24.450835378252737   dF: -1.335e-05   |Residual|: 8.899e-04   |deigs|: 2.057e-03  t[s]:     23.76
	FillingsUpdate:  mu: -0.092734988  nElectrons: 9.000000  magneticMoment: [ Abs: 0.56254  Tot: +0.56000 ]
SCF: Cycle:  9   F: -24.450838602749780   dF: -3.224e-06   |Residual|: 7.110e-04   |deigs|: 1.385e-03  t[s]:     25.74
	FillingsUpdate:  mu: -0.091322665  nElectrons: 9.000000  magneticMoment: [ Abs: 0.56443  Tot: +0.56000 ]
SCF: Cycle: 10   F: -24.450840439228720   dF: -1.836e-06   |Residual|: 6.042e-04   |deigs|: 1.466e-03  t[s]:     27.78
	FillingsUpdate:  mu: -0.090440448  nElectrons: 9.000000  magneticMoment: [ Abs: 0.56361  Tot: +0.56000 ]
SCF: Cycle: 11   F: -24.450841167972410   dF: -7.287e-07   |Residual|: 5.607e-04   |deigs|: 1.001e-03  t[s]:     29.80
	FillingsUpdate:  mu: -0.089200815  nElectrons: 9.000000  magneticMoment: [ Abs: 0.56386  Tot: +0.56000 ]
SCF: Cycle: 12   F: -24.450850013216353   dF: -8.845e-06   |Residual|: 4.931e-04   |deigs|: 1.235e-03  t[s]:     31.86
	FillingsUpdate:  mu: -0.087492977  nElectrons: 9.000000  magneticMoment: [ Abs: 0.56503  Tot: +0.56000 ]
SCF: Cycle: 13   F: -24.450857697959723   dF: -7.685e-06   |Residual|: 4.486e-04   |deigs|: 1.713e-03  t[s]:     33.85
	FillingsUpdate:  mu: -0.086310002  nElectrons: 9.000000  magneticMoment: [ Abs: 0.56303  Tot: +0.56000 ]
SCF: Cycle: 14   F: -24.450861525648257   dF: -3.828e-06   |Residual|: 4.084e-04   |deigs|: 1.221e-03  t[s]:     35.84
	FillingsUpdate:  mu: -0.085019646  nElectrons: 9.000000  magneticMoment: [ Abs: 0.56098  Tot: +0.56000 ]
SCF: Cycle: 15   F: -24.450864795568638   dF: -3.270e-06   |Residual|: 3.025e-04   |deigs|: 1.385e-03  t[s]:     37.89
	FillingsUpdate:  mu: -0.084705845  nElectrons: 9.000000  magneticMoment: [ Abs: 0.56094  Tot: +0.56000 ]
SCF: Cycle: 16   F: -24.450866250903363   dF: -1.455e-06   |Residual|: 2.125e-04   |deigs|: 4.450e-04  t[s]:     39.88
	FillingsUpdate:  mu: -0.084509000  nElectrons: 9.000000  magneticMoment: [ Abs: 0.56036  Tot: +0.56000 ]
SCF: Cycle: 17   F: -24.450867438600138   dF: -1.188e-06   |Residual|: 1.405e-04   |deigs|: 2.288e-04  t[s]:     41.90
	FillingsUpdate:  mu: -0.084456699  nElectrons: 9.000000  magneticMoment: [ Abs: 0.56015  Tot: +0.56000 ]
SCF: Cycle: 18   F: -24.450867769976906   dF: -3.314e-07   |Residual|: 9.821e-05   |deigs|: 1.777e-04  t[s]:     43.89
	FillingsUpdate:  mu: -0.084426194  nElectrons: 9.000000  magneticMoment: [ Abs: 0.56036  Tot: +0.56000 ]
SCF: Cycle: 19   F: -24.450867974767601   dF: -2.048e-07   |Residual|: 4.204e-05   |deigs|: 1.031e-04  t[s]:     46.02
	FillingsUpdate:  mu: -0.084416891  nElectrons: 9.000000  magneticMoment: [ Abs: 0.56033  Tot: +0.56000 ]
SCF: Cycle: 20   F: -24.450868023337950   dF: -4.857e-08   |Residual|: 2.627e-05   |deigs|: 3.717e-05  t[s]:     48.10
	FillingsUpdate:  mu: -0.084412750  nElectrons: 9.000000  magneticMoment: [ Abs: 0.56031  Tot: +0.56000 ]
SCF: Cycle: 21   F: -24.450868061810436   dF: -3.847e-08   |Residual|: 1.869e-05   |deigs|: 2.309e-05  t[s]:     50.13
	FillingsUpdate:  mu: -0.084429916  nElectrons: 9.000000  magneticMoment: [ Abs: 0.56032  Tot: +0.56000 ]
SCF: Cycle: 22   F: -24.450868081687883   dF: -1.988e-08   |Residual|: 1.239e-05   |deigs|: 2.137e-05  t[s]:     52.16
	FillingsUpdate:  mu: -0.084442508  nElectrons: 9.000000  magneticMoment: [ Abs: 0.56029  Tot: +0.56000 ]
SCF: Cycle: 23   F: -24.450868087756422   dF: -6.069e-09   |Residual|: 9.275e-06   |deigs|: 1.855e-05  t[s]:     54.15
	FillingsUpdate:  mu: -0.084439385  nElectrons: 9.000000  magneticMoment: [ Abs: 0.56025  Tot: +0.56000 ]
SCF: Cycle: 24   F: -24.450868093175455   dF: -5.419e-09   |Residual|: 8.440e-06   |deigs|: 8.687e-06  t[s]:     56.19
SCF: Converged (|Delta E|<1.000000e-08 for 2 iters).


# Ionic positions in lattice coordinates:
ion Rb   0.000000000000000   0.000000000000000   0.000000000000000 0

# Forces in Lattice coordinates:
force Rb   0.000000000000000  -0.000000000000000   0.000000000000000 0

# Energy components:
   Eewald =      -18.0480261003326561
       EH =        1.6617761980500536
     Eloc =      -10.5735294971389298
      Enl =       -0.7974453453578803
   Epulay =        0.0000000035676145
      Exc =       -3.6792483728406813
       KE =        6.9856056596200258
-------------------------------------
     Etot =      -24.4508674544324549
       TS =        0.0000006387429985
-------------------------------------
        F =      -24.4508680931754547

IonicMinimize: Iter:   0  F: -24.450868093175455  |grad|_K:  0.000e+00  t[s]:     56.31
IonicMinimize: Converged (|grad|_K<1.000000e-04).

#--- Lowdin population analysis ---
# oxidation-state Rb +0.074
# magnetic-moments Rb +0.493

End date and time: Sun Feb  6 12:54:42 2022  (Duration: 0-0:00:56.33)
Done!
scale=3
magnetization=0.56
--------------------------------------------------------------------------
The library attempted to open the following supporting CUDA libraries,
but each of them failed.  CUDA-aware support is disabled.
libcuda.so.1: cannot open shared object file: No such file or directory
libcuda.dylib: cannot open shared object file: No such file or directory
/usr/lib64/libcuda.so.1: cannot open shared object file: No such file or directory
/usr/lib64/libcuda.dylib: cannot open shared object file: No such file or directory
If you are not interested in CUDA-aware support, then run with
--mca opal_warn_on_missing_libcuda 0 to suppress this message.  If you are interested
in CUDA-aware support, then try setting LD_LIBRARY_PATH to the location
of libcuda.so.1 to get passed this issue.
--------------------------------------------------------------------------
--------------------------------------------------------------------------
No OpenFabrics connection schemes reported that they were able to be
used on a specific port.  As such, the openib BTL (OpenFabrics
support) will be disabled for this port.

  Local host:           d-16-12-2
  Local device:         mlx5_1
  Local port:           1
  CPCs attempted:       rdmacm, udcm
--------------------------------------------------------------------------

*************** JDFTx 1.6.0 (git hash 42ebbcc2) ***************

Start date and time: Sun Feb  6 12:54:43 2022
Executable jdftx with command-line: -i Alkali.in
Running on hosts (process indices):  d-16-12-2 (0-18)
Divided in process groups (process indices):  0 (0)  1 (1)  2 (2)  3 (3)  4 (4)  5 (5)  6 (6)  7 (7)  8 (8)  9 (9)  10 (10)  11 (11)  12 (12)  13 (13)  14 (14)  15 (15)  16 (16)  17 (17)  18 (18)
Resource initialization completed at t[s]:      0.00
Run totals: 19 processes, 48 threads, 0 GPUs


Input parsed successfully to the following command list (including defaults):

basis kpoint-dependent
coords-type Lattice
core-overlap-check vector
coulomb-interaction Slab 001
davidson-band-ratio 1.1
dump End None
dump-name $INPUT.$VAR
elec-cutoff 20
elec-eigen-algo Davidson
elec-ex-corr gga-PBE
elec-initial-magnetization 0.560000 yes
elec-smearing Fermi 1e-05
electronic-minimize  \
	dirUpdateScheme      FletcherReeves \
	linminMethod         DirUpdateRecommended \
	nIterations          100 \
	history              15 \
	knormThreshold       0 \
	energyDiffThreshold  1e-08 \
	nEnergyDiff          2 \
	alphaTstart          1 \
	alphaTmin            1e-10 \
	updateTestStepSize   yes \
	alphaTreduceFactor   0.1 \
	alphaTincreaseFactor 3 \
	nAlphaAdjustMax      3 \
	wolfeEnergy          0.0001 \
	wolfeGradient        0.9 \
	fdTest               no
electronic-scf  \
	nIterations	10000 \
	energyDiffThreshold	1e-08 \
	residualThreshold	1e-07 \
	mixFraction	0.5 \
	qMetric	0.8 \
	history	10 \
	nEigSteps	2 \
	eigDiffThreshold	1e-08 \
	mixedVariable	Density \
	qKerker	0.8 \
	qKappa	-1 \
	verbose	no \
	mixFractionMag	1.5
exchange-regularization WignerSeitzTruncated
fluid None
fluid-ex-corr (null) lda-PZ
fluid-gummel-loop 10 1.000000e-05
fluid-minimize  \
	dirUpdateScheme      PolakRibiere \
	linminMethod         DirUpdateRecommended \
	nIterations          100 \
	history              15 \
	knormThreshold       0 \
	energyDiffThreshold  0 \
	nEnergyDiff          2 \
	alphaTstart          1 \
	alphaTmin            1e-10 \
	updateTestStepSize   yes \
	alphaTreduceFactor   0.1 \
	alphaTincreaseFactor 3 \
	nAlphaAdjustMax      3 \
	wolfeEnergy          0.0001 \
	wolfeGradient        0.9 \
	fdTest               no
fluid-solvent H2O 55.338 ScalarEOS \
	epsBulk 78.4 \
	pMol 0.92466 \
	epsInf 1.77 \
	Pvap 1.06736e-10 \
	sigmaBulk 4.62e-05 \
	Rvdw 2.61727 \
	Res 1.42 \
	tauNuc 343133 \
	poleEl 15 7 1
forces-output-coords Positions
ion Rb   0.000000000000000   0.000000000000000   0.000000000000000 0
ion-species SG15/$ID_ONCV_PBE.upf
ion-width 0
ionic-minimize  \
	dirUpdateScheme      L-BFGS \
	linminMethod         DirUpdateRecommended \
	nIterations          0 \
	history              15 \
	knormThreshold       0.0001 \
	energyDiffThreshold  1e-06 \
	nEnergyDiff          2 \
	alphaTstart          1 \
	alphaTmin            1e-10 \
	updateTestStepSize   yes \
	alphaTreduceFactor   0.1 \
	alphaTincreaseFactor 3 \
	nAlphaAdjustMax      3 \
	wolfeEnergy          0.0001 \
	wolfeGradient        0.9 \
	fdTest               no
kpoint   0.000000000000   0.000000000000   0.000000000000  1.00000000000000
kpoint-folding 12 12 1 
latt-move-scale 1 1 1
latt-scale 3 3 1 
lattice  \
	   4.727486978767153   -2.363743489383575    0.000000000000000  \
	  -0.000000000000000    4.094123819672498    0.000000000000000  \
	   0.000000000000000    0.000000000000000   40.000000000000000 
lattice-minimize  \
	dirUpdateScheme      L-BFGS \
	linminMethod         DirUpdateRecommended \
	nIterations          0 \
	history              15 \
	knormThreshold       0 \
	energyDiffThreshold  1e-06 \
	nEnergyDiff          2 \
	alphaTstart          1 \
	alphaTmin            1e-10 \
	updateTestStepSize   yes \
	alphaTreduceFactor   0.1 \
	alphaTincreaseFactor 3 \
	nAlphaAdjustMax      3 \
	wolfeEnergy          0.0001 \
	wolfeGradient        0.9 \
	fdTest               no
lcao-params -1 1e-06 1e-05
pcm-variant GLSSA13
spintype z-spin
subspace-rotation-factor 1 yes
symmetries automatic
symmetry-threshold 0.0001



---------- Setting up symmetries ----------

Found 24 point-group symmetries of the bravais lattice
Found 24 space-group symmetries with basis
Applied RMS atom displacement 0 bohrs to make symmetries exact.

---------- Initializing the Grid ----------
R = 
[      14.1825     -7.09123            0  ]
[            0      12.2824            0  ]
[            0            0           40  ]
unit cell volume = 6967.77
G =
[   0.443025   0.255781         -0  ]
[          0   0.511561         -0  ]
[         -0         -0    0.15708  ]
Minimum fftbox size, Smin = [  60  60  164  ]
Chosen fftbox size, S = [  60  60  168  ]

---------- Exchange Correlation functional ----------
Initalized PBE GGA exchange.
Initalized PBE GGA correlation.

---------- Setting up pseudopotentials ----------
Width of ionic core gaussian charges (only for fluid interactions / plotting) set to 0

Reading pseudopotential file '/home/gridsan/aligho/DFT/build-Nov24/pseudopotentials/SG15/Rb_ONCV_PBE.upf':
  'Rb' pseudopotential, 'PBE' functional
  Generated using ONCVPSP code by D. R. Hamann
  Author: Martin Schlipf and Francois Gygi  Date: 150915.
  9 valence electrons, 3 orbitals, 6 projectors, 2308 radial grid points, with lMax = 2
  Transforming local potential to a uniform radial grid of dG=0.02 with 1489 points.
  Transforming nonlocal projectors to a uniform radial grid of dG=0.02 with 432 points.
    4S    l: 0   occupation:  2.0   eigenvalue: -1.172069
    4P    l: 1   occupation:  6.0   eigenvalue: -0.586674
    5S    l: 0   occupation:  1.0   eigenvalue: -0.082006
  Transforming atomic orbitals to a uniform radial grid of dG=0.02 with 432 points.
  Core radius for overlap checks: 2.60 bohrs.
  Reading pulay file /home/gridsan/aligho/DFT/build-Nov24/pseudopotentials/SG15/Rb_ONCV_PBE.pulay ... using dE_dnG = -1.360715e-05 computed for Ecut = 20.

Initialized 1 species with 1 total atoms.

Folded 1 k-points by 12x12x1 to 144 k-points.

---------- Setting up k-points, bands, fillings ----------
Reduced to 19 k-points under symmetry. 
Computing the number of bands and number of electrons
Calculating initial fillings.
nElectrons:   9.000000   nBands: 6   nStates: 38

----- Setting up reduced wavefunction bases (one per k-point) -----
average nbasis = 29766.104 , ideal nbasis = 29766.845

---------- Setting up coulomb interaction ----------
Initialized slab truncation along lattice direction 001

---------- Setting up 2D ewald sum ----------
Optimum gaussian width for ewald sums = 7.873530 bohr.
Real space sums over 289 unit cells with max indices [  8  8  0  ]
Reciprocal space sums over 81 terms with max indices [  4  4  0  ]

---------- Allocating electronic variables ----------
Initializing wave functions:  linear combination of atomic orbitals
Note: number of bands (6) exceeds available atomic orbitals (5)
Rb pseudo-atom occupations:   s ( 2 1 )  p ( 6 )
[d-16-12-2:10344] 18 more processes have sent help message help-mpi-common-cuda.txt / dlopen failed
[d-16-12-2:10344] Set MCA parameter "orte_base_help_aggregate" to 0 to see all help / error messages
[d-16-12-2:10344] 18 more processes have sent help message help-mpi-btl-openib-cpc-base.txt / no cpcs for port
	FillingsUpdate:  mu: -0.085175846  nElectrons: 9.000000  magneticMoment: [ Abs: 0.56000  Tot: +0.56000 ]
LCAOMinimize: Iter:   0  F: -24.4357664126588077  |grad|_K:  1.480e-05  alpha:  1.000e+00
	FillingsUpdate:  mu: -0.085172913  nElectrons: 9.000000  magneticMoment: [ Abs: 0.56000  Tot: +0.56000 ]
LCAOMinimize: Iter:   1  F: -24.4357665606665506  |grad|_K:  1.088e-07  alpha:  9.880e-01  linmin: -1.350e-02  cgtest:  3.273e-01  t[s]:      8.90
LCAOMinimize: Encountered beta<0, resetting CG.
	FillingsUpdate:  mu: -0.085172919  nElectrons: 9.000000  magneticMoment: [ Abs: 0.56000  Tot: +0.56000 ]
LCAOMinimize: Iter:   2  F: -24.4357665606748284  |grad|_K:  7.005e-10  alpha:  9.947e-01  linmin: -5.146e-02  cgtest:  8.163e-01  t[s]:     11.30
LCAOMinimize: Encountered beta<0, resetting CG.
LCAOMinimize: Converged (|Delta F|<1.000000e-06 for 2 iters).


---- Citations for features of the code used in this run ----

   Software package:
      R. Sundararaman, K. Letchworth-Weaver, K.A. Schwarz, D. Gunceler, Y. Ozhabes and T.A. Arias, 'JDFTx: software for joint density-functional theory', SoftwareX 6, 278 (2017)

   gga-PBE exchange-correlation functional:
      J.P. Perdew, K. Burke and M. Ernzerhof, Phys. Rev. Lett. 77, 3865 (1996)

   Pseudopotentials:
      M Schlipf and F Gygi, Comput. Phys. Commun. 196, 36 (2015)

   Truncated Coulomb potentials:
      R. Sundararaman and T.A. Arias, Phys. Rev. B 87, 165122 (2013)

This list may not be complete. Please suggest additional citations or
report any other bugs at https://github.com/shankar1729/jdftx/issues

Initialization completed successfully at t[s]:     11.46


-------- Electronic minimization -----------
Will mix electronic density at each iteration.
	FillingsUpdate:  mu: -0.085172919  nElectrons: 9.000000  magneticMoment: [ Abs: 0.56000  Tot: +0.56000 ]
	FillingsUpdate:  mu: -0.086498010  nElectrons: 9.000000  magneticMoment: [ Abs: 0.56000  Tot: +0.56000 ]
SCF: Cycle:  0   F: -24.437358985129066   dF: -1.592e-03   |Residual|: 4.016e-03   |deigs|: 1.736e-01  t[s]:     16.21
	FillingsUpdate:  mu: -0.086663800  nElectrons: 9.000000  magneticMoment: [ Abs: 0.56048  Tot: +0.56000 ]
SCF: Cycle:  1   F: -24.437417118954802   dF: -5.813e-05   |Residual|: 3.187e-03   |deigs|: 4.763e-03  t[s]:     19.95
	FillingsUpdate:  mu: -0.086822617  nElectrons: 9.000000  magneticMoment: [ Abs: 0.56247  Tot: +0.56000 ]
SCF: Cycle:  2   F: -24.437456257762346   dF: -3.914e-05   |Residual|: 2.295e-03   |deigs|: 1.964e-03  t[s]:     23.76
	FillingsUpdate:  mu: -0.087038994  nElectrons: 9.000000  magneticMoment: [ Abs: 0.56317  Tot: +0.56000 ]
SCF: Cycle:  3   F: -24.437480587875839   dF: -2.433e-05   |Residual|: 1.536e-03   |deigs|: 2.355e-03  t[s]:     27.55
	FillingsUpdate:  mu: -0.087083137  nElectrons: 9.000000  magneticMoment: [ Abs: 0.56135  Tot: +0.56000 ]
SCF: Cycle:  4   F: -24.437491170794228   dF: -1.058e-05   |Residual|: 8.044e-04   |deigs|: 1.834e-03  t[s]:     31.45
	FillingsUpdate:  mu: -0.087144931  nElectrons: 9.000000  magneticMoment: [ Abs: 0.56212  Tot: +0.56000 ]
SCF: Cycle:  5   F: -24.437497878117377   dF: -6.707e-06   |Residual|: 5.136e-04   |deigs|: 2.248e-03  t[s]:     35.32
	FillingsUpdate:  mu: -0.087056497  nElectrons: 9.000000  magneticMoment: [ Abs: 0.56189  Tot: +0.56000 ]
SCF: Cycle:  6   F: -24.437501997335914   dF: -4.119e-06   |Residual|: 3.707e-04   |deigs|: 1.427e-03  t[s]:     39.32
	FillingsUpdate:  mu: -0.086893686  nElectrons: 9.000000  magneticMoment: [ Abs: 0.56217  Tot: +0.56000 ]
SCF: Cycle:  7   F: -24.437502997010107   dF: -9.997e-07   |Residual|: 3.014e-04   |deigs|: 8.114e-04  t[s]:     43.42
	FillingsUpdate:  mu: -0.086643355  nElectrons: 9.000000  magneticMoment: [ Abs: 0.56294  Tot: +0.56000 ]
SCF: Cycle:  8   F: -24.437503185010481   dF: -1.880e-07   |Residual|: 2.419e-04   |deigs|: 4.148e-04  t[s]:     47.62
	FillingsUpdate:  mu: -0.086266548  nElectrons: 9.000000  magneticMoment: [ Abs: 0.56328  Tot: +0.56000 ]
SCF: Cycle:  9   F: -24.437502319437218   dF: +8.656e-07   |Residual|: 2.143e-04   |deigs|: 4.762e-04  t[s]:     51.82
	FillingsUpdate:  mu: -0.086032506  nElectrons: 9.000000  magneticMoment: [ Abs: 0.56301  Tot: +0.56000 ]
SCF: Cycle: 10   F: -24.437502178288316   dF: +1.411e-07   |Residual|: 1.927e-04   |deigs|: 2.510e-04  t[s]:     56.22
	FillingsUpdate:  mu: -0.085933962  nElectrons: 9.000000  magneticMoment: [ Abs: 0.56289  Tot: +0.56000 ]
SCF: Cycle: 11   F: -24.437503919686943   dF: -1.741e-06   |Residual|: 1.441e-04   |deigs|: 3.059e-04  t[s]:     60.57
	FillingsUpdate:  mu: -0.085725384  nElectrons: 9.000000  magneticMoment: [ Abs: 0.56329  Tot: +0.56000 ]
SCF: Cycle: 12   F: -24.437504176103424   dF: -2.564e-07   |Residual|: 1.386e-04   |deigs|: 3.952e-04  t[s]:     64.83
	FillingsUpdate:  mu: -0.085308715  nElectrons: 9.000000  magneticMoment: [ Abs: 0.56298  Tot: +0.56000 ]
SCF: Cycle: 13   F: -24.437503795236452   dF: +3.809e-07   |Residual|: 1.349e-04   |deigs|: 5.175e-04  t[s]:     69.15
	FillingsUpdate:  mu: -0.085098990  nElectrons: 9.000000  magneticMoment: [ Abs: 0.56281  Tot: +0.56000 ]
SCF: Cycle: 14   F: -24.437503613673268   dF: +1.816e-07   |Residual|: 1.252e-04   |deigs|: 4.016e-04  t[s]:     73.45
	FillingsUpdate:  mu: -0.085012528  nElectrons: 9.000000  magneticMoment: [ Abs: 0.56282  Tot: +0.56000 ]
SCF: Cycle: 15   F: -24.437504474163678   dF: -8.605e-07   |Residual|: 1.058e-04   |deigs|: 1.254e-04  t[s]:     77.71
	FillingsUpdate:  mu: -0.084812792  nElectrons: 9.000000  magneticMoment: [ Abs: 0.56216  Tot: +0.56000 ]
SCF: Cycle: 16   F: -24.437505237004029   dF: -7.628e-07   |Residual|: 7.398e-05   |deigs|: 2.294e-04  t[s]:     81.92
	FillingsUpdate:  mu: -0.084664980  nElectrons: 9.000000  magneticMoment: [ Abs: 0.56206  Tot: +0.56000 ]
SCF: Cycle: 17   F: -24.437505428926080   dF: -1.919e-07   |Residual|: 5.334e-05   |deigs|: 1.597e-04  t[s]:     86.16
	FillingsUpdate:  mu: -0.084658846  nElectrons: 9.000000  magneticMoment: [ Abs: 0.56201  Tot: +0.56000 ]
SCF: Cycle: 18   F: -24.437505554469258   dF: -1.255e-07   |Residual|: 3.750e-05   |deigs|: 2.502e-05  t[s]:     90.50
	FillingsUpdate:  mu: -0.084674536  nElectrons: 9.000000  magneticMoment: [ Abs: 0.56203  Tot: +0.56000 ]
SCF: Cycle: 19   F: -24.437505642967107   dF: -8.850e-08   |Residual|: 2.051e-05   |deigs|: 3.048e-05  t[s]:     94.75
	FillingsUpdate:  mu: -0.084655719  nElectrons: 9.000000  magneticMoment: [ Abs: 0.56203  Tot: +0.56000 ]
SCF: Cycle: 20   F: -24.437505664041300   dF: -2.107e-08   |Residual|: 1.458e-05   |deigs|: 1.942e-05  t[s]:     98.88
	FillingsUpdate:  mu: -0.084660895  nElectrons: 9.000000  magneticMoment: [ Abs: 0.56202  Tot: +0.56000 ]
SCF: Cycle: 21   F: -24.437505666258215   dF: -2.217e-09   |Residual|: 1.001e-05   |deigs|: 7.898e-06  t[s]:    103.21
	FillingsUpdate:  mu: -0.084662277  nElectrons: 9.000000  magneticMoment: [ Abs: 0.56204  Tot: +0.56000 ]
SCF: Cycle: 22   F: -24.437505680238669   dF: -1.398e-08   |Residual|: 5.537e-06   |deigs|: 4.421e-06  t[s]:    107.56
	FillingsUpdate:  mu: -0.084664066  nElectrons: 9.000000  magneticMoment: [ Abs: 0.56204  Tot: +0.56000 ]
SCF: Cycle: 23   F: -24.437505681895058   dF: -1.656e-09   |Residual|: 4.233e-06   |deigs|: 3.335e-06  t[s]:    111.62
	FillingsUpdate:  mu: -0.084664731  nElectrons: 9.000000  magneticMoment: [ Abs: 0.56205  Tot: +0.56000 ]
SCF: Cycle: 24   F: -24.437505683069055   dF: -1.174e-09   |Residual|: 3.181e-06   |deigs|: 2.860e-06  t[s]:    115.92
SCF: Converged (|Delta E|<1.000000e-08 for 2 iters).


# Ionic positions in lattice coordinates:
ion Rb   0.000000000000000   0.000000000000000   0.000000000000000 0

# Forces in Lattice coordinates:
force Rb  -0.000000000000000   0.000000000000000   0.000000000000000 0

# Energy components:
   Eewald =      -12.0320174002217755
       EH =        7.5007439876275903
     Eloc =      -22.4122086509980889
      Enl =       -0.7970934417537217
   Epulay =       -0.0000000014467880
      Exc =       -3.6488903345826476
       KE =        6.9519607970493773
-------------------------------------
     Etot =      -24.4375050443260555
       TS =        0.0000006387429985
-------------------------------------
        F =      -24.4375056830690554

IonicMinimize: Iter:   0  F: -24.437505683069055  |grad|_K:  0.000e+00  t[s]:    116.18
IonicMinimize: Converged (|grad|_K<1.000000e-04).

#--- Lowdin population analysis ---
# oxidation-state Rb +0.035
# magnetic-moments Rb +0.530

End date and time: Sun Feb  6 12:56:40 2022  (Duration: 0-0:01:56.23)
Done!
scale=4
magnetization=0.56
--------------------------------------------------------------------------
The library attempted to open the following supporting CUDA libraries,
but each of them failed.  CUDA-aware support is disabled.
libcuda.so.1: cannot open shared object file: No such file or directory
libcuda.dylib: cannot open shared object file: No such file or directory
/usr/lib64/libcuda.so.1: cannot open shared object file: No such file or directory
/usr/lib64/libcuda.dylib: cannot open shared object file: No such file or directory
If you are not interested in CUDA-aware support, then run with
--mca opal_warn_on_missing_libcuda 0 to suppress this message.  If you are interested
in CUDA-aware support, then try setting LD_LIBRARY_PATH to the location
of libcuda.so.1 to get passed this issue.
--------------------------------------------------------------------------
--------------------------------------------------------------------------
No OpenFabrics connection schemes reported that they were able to be
used on a specific port.  As such, the openib BTL (OpenFabrics
support) will be disabled for this port.

  Local host:           d-16-12-2
  Local device:         mlx5_1
  Local port:           1
  CPCs attempted:       rdmacm, udcm
--------------------------------------------------------------------------

*************** JDFTx 1.6.0 (git hash 42ebbcc2) ***************

Start date and time: Sun Feb  6 12:56:41 2022
Executable jdftx with command-line: -i Alkali.in
Running on hosts (process indices):  d-16-12-2 (0-18)
Divided in process groups (process indices):  0 (0)  1 (1)  2 (2)  3 (3)  4 (4)  5 (5)  6 (6)  7 (7)  8 (8)  9 (9)  10 (10)  11 (11)  12 (12)  13 (13)  14 (14)  15 (15)  16 (16)  17 (17)  18 (18)
Resource initialization completed at t[s]:      0.00
Run totals: 19 processes, 48 threads, 0 GPUs


Input parsed successfully to the following command list (including defaults):

basis kpoint-dependent
coords-type Lattice
core-overlap-check vector
coulomb-interaction Slab 001
davidson-band-ratio 1.1
dump End None
dump-name $INPUT.$VAR
elec-cutoff 20
elec-eigen-algo Davidson
elec-ex-corr gga-PBE
elec-initial-magnetization 0.560000 yes
elec-smearing Fermi 1e-05
electronic-minimize  \
	dirUpdateScheme      FletcherReeves \
	linminMethod         DirUpdateRecommended \
	nIterations          100 \
	history              15 \
	knormThreshold       0 \
	energyDiffThreshold  1e-08 \
	nEnergyDiff          2 \
	alphaTstart          1 \
	alphaTmin            1e-10 \
	updateTestStepSize   yes \
	alphaTreduceFactor   0.1 \
	alphaTincreaseFactor 3 \
	nAlphaAdjustMax      3 \
	wolfeEnergy          0.0001 \
	wolfeGradient        0.9 \
	fdTest               no
electronic-scf  \
	nIterations	10000 \
	energyDiffThreshold	1e-08 \
	residualThreshold	1e-07 \
	mixFraction	0.5 \
	qMetric	0.8 \
	history	10 \
	nEigSteps	2 \
	eigDiffThreshold	1e-08 \
	mixedVariable	Density \
	qKerker	0.8 \
	qKappa	-1 \
	verbose	no \
	mixFractionMag	1.5
exchange-regularization WignerSeitzTruncated
fluid None
fluid-ex-corr (null) lda-PZ
fluid-gummel-loop 10 1.000000e-05
fluid-minimize  \
	dirUpdateScheme      PolakRibiere \
	linminMethod         DirUpdateRecommended \
	nIterations          100 \
	history              15 \
	knormThreshold       0 \
	energyDiffThreshold  0 \
	nEnergyDiff          2 \
	alphaTstart          1 \
	alphaTmin            1e-10 \
	updateTestStepSize   yes \
	alphaTreduceFactor   0.1 \
	alphaTincreaseFactor 3 \
	nAlphaAdjustMax      3 \
	wolfeEnergy          0.0001 \
	wolfeGradient        0.9 \
	fdTest               no
fluid-solvent H2O 55.338 ScalarEOS \
	epsBulk 78.4 \
	pMol 0.92466 \
	epsInf 1.77 \
	Pvap 1.06736e-10 \
	sigmaBulk 4.62e-05 \
	Rvdw 2.61727 \
	Res 1.42 \
	tauNuc 343133 \
	poleEl 15 7 1
forces-output-coords Positions
ion Rb   0.000000000000000   0.000000000000000   0.000000000000000 0
ion-species SG15/$ID_ONCV_PBE.upf
ion-width 0
ionic-minimize  \
	dirUpdateScheme      L-BFGS \
	linminMethod         DirUpdateRecommended \
	nIterations          0 \
	history              15 \
	knormThreshold       0.0001 \
	energyDiffThreshold  1e-06 \
	nEnergyDiff          2 \
	alphaTstart          1 \
	alphaTmin            1e-10 \
	updateTestStepSize   yes \
	alphaTreduceFactor   0.1 \
	alphaTincreaseFactor 3 \
	nAlphaAdjustMax      3 \
	wolfeEnergy          0.0001 \
	wolfeGradient        0.9 \
	fdTest               no
kpoint   0.000000000000   0.000000000000   0.000000000000  1.00000000000000
kpoint-folding 12 12 1 
latt-move-scale 1 1 1
latt-scale 4 4 1 
lattice  \
	   4.727486978767153   -2.363743489383575    0.000000000000000  \
	  -0.000000000000000    4.094123819672498    0.000000000000000  \
	   0.000000000000000    0.000000000000000   40.000000000000000 
lattice-minimize  \
	dirUpdateScheme      L-BFGS \
	linminMethod         DirUpdateRecommended \
	nIterations          0 \
	history              15 \
	knormThreshold       0 \
	energyDiffThreshold  1e-06 \
	nEnergyDiff          2 \
	alphaTstart          1 \
	alphaTmin            1e-10 \
	updateTestStepSize   yes \
	alphaTreduceFactor   0.1 \
	alphaTincreaseFactor 3 \
	nAlphaAdjustMax      3 \
	wolfeEnergy          0.0001 \
	wolfeGradient        0.9 \
	fdTest               no
lcao-params -1 1e-06 1e-05
pcm-variant GLSSA13
spintype z-spin
subspace-rotation-factor 1 yes
symmetries automatic
symmetry-threshold 0.0001



---------- Setting up symmetries ----------

Found 24 point-group symmetries of the bravais lattice
Found 24 space-group symmetries with basis
Applied RMS atom displacement 0 bohrs to make symmetries exact.

---------- Initializing the Grid ----------
R = 
[      18.9099     -9.45497            0  ]
[            0      16.3765            0  ]
[            0            0           40  ]
unit cell volume = 12387.1
G =
[   0.332269   0.191835         -0  ]
[          0   0.383671         -0  ]
[         -0         -0    0.15708  ]
Minimum fftbox size, Smin = [  80  80  164  ]
Chosen fftbox size, S = [  80  80  168  ]

---------- Exchange Correlation functional ----------
Initalized PBE GGA exchange.
Initalized PBE GGA correlation.

---------- Setting up pseudopotentials ----------
Width of ionic core gaussian charges (only for fluid interactions / plotting) set to 0

Reading pseudopotential file '/home/gridsan/aligho/DFT/build-Nov24/pseudopotentials/SG15/Rb_ONCV_PBE.upf':
  'Rb' pseudopotential, 'PBE' functional
  Generated using ONCVPSP code by D. R. Hamann
  Author: Martin Schlipf and Francois Gygi  Date: 150915.
  9 valence electrons, 3 orbitals, 6 projectors, 2308 radial grid points, with lMax = 2
  Transforming local potential to a uniform radial grid of dG=0.02 with 1489 points.
  Transforming nonlocal projectors to a uniform radial grid of dG=0.02 with 432 points.
    4S    l: 0   occupation:  2.0   eigenvalue: -1.172069
    4P    l: 1   occupation:  6.0   eigenvalue: -0.586674
    5S    l: 0   occupation:  1.0   eigenvalue: -0.082006
  Transforming atomic orbitals to a uniform radial grid of dG=0.02 with 432 points.
  Core radius for overlap checks: 2.60 bohrs.
  Reading pulay file /home/gridsan/aligho/DFT/build-Nov24/pseudopotentials/SG15/Rb_ONCV_PBE.pulay ... using dE_dnG = -1.360715e-05 computed for Ecut = 20.

Initialized 1 species with 1 total atoms.

Folded 1 k-points by 12x12x1 to 144 k-points.

---------- Setting up k-points, bands, fillings ----------
Reduced to 19 k-points under symmetry. 
Computing the number of bands and number of electrons
Calculating initial fillings.
nElectrons:   9.000000   nBands: 6   nStates: 38

----- Setting up reduced wavefunction bases (one per k-point) -----
average nbasis = 52924.021 , ideal nbasis = 52918.836

---------- Setting up coulomb interaction ----------
Initialized slab truncation along lattice direction 001

---------- Setting up 2D ewald sum ----------
Optimum gaussian width for ewald sums = 10.498040 bohr.
Real space sums over 289 unit cells with max indices [  8  8  0  ]
Reciprocal space sums over 81 terms with max indices [  4  4  0  ]

---------- Allocating electronic variables ----------
Initializing wave functions:  linear combination of atomic orbitals
Note: number of bands (6) exceeds available atomic orbitals (5)
Rb pseudo-atom occupations:   s ( 2 1 )  p ( 6 )
[d-16-12-2:73966] 18 more processes have sent help message help-mpi-common-cuda.txt / dlopen failed
[d-16-12-2:73966] Set MCA parameter "orte_base_help_aggregate" to 0 to see all help / error messages
[d-16-12-2:73966] 18 more processes have sent help message help-mpi-btl-openib-cpc-base.txt / no cpcs for port
	FillingsUpdate:  mu: -0.082758071  nElectrons: 9.000000  magneticMoment: [ Abs: 0.56000  Tot: +0.56000 ]
LCAOMinimize: Iter:   0  F: -24.4315843084639219  |grad|_K:  3.812e-06  alpha:  1.000e+00
	FillingsUpdate:  mu: -0.082757232  nElectrons: 9.000000  magneticMoment: [ Abs: 0.56000  Tot: +0.56000 ]
LCAOMinimize: Iter:   1  F: -24.4315843182920496  |grad|_K:  2.013e-08  alpha:  9.889e-01  linmin: -7.365e-04  cgtest:  1.760e-01  t[s]:     15.20
LCAOMinimize: Encountered beta<0, resetting CG.
LCAOMinimize: 	Step increased F by 2.486900e-13, reducing alpha to 2.243945e-01.
	FillingsUpdate:  mu: -0.082757232  nElectrons: 9.000000  magneticMoment: [ Abs: 0.56000  Tot: +0.56000 ]
LCAOMinimize: Iter:   2  F: -24.4315843182920602  |grad|_K:  1.561e-08  alpha:  2.244e-01  linmin: -3.971e-03  cgtest:  1.000e+00  t[s]:     21.61
LCAOMinimize: Encountered beta<0, resetting CG.
LCAOMinimize: Converged (|Delta F|<1.000000e-06 for 2 iters).


---- Citations for features of the code used in this run ----

   Software package:
      R. Sundararaman, K. Letchworth-Weaver, K.A. Schwarz, D. Gunceler, Y. Ozhabes and T.A. Arias, 'JDFTx: software for joint density-functional theory', SoftwareX 6, 278 (2017)

   gga-PBE exchange-correlation functional:
      J.P. Perdew, K. Burke and M. Ernzerhof, Phys. Rev. Lett. 77, 3865 (1996)

   Pseudopotentials:
      M Schlipf and F Gygi, Comput. Phys. Commun. 196, 36 (2015)

   Truncated Coulomb potentials:
      R. Sundararaman and T.A. Arias, Phys. Rev. B 87, 165122 (2013)

This list may not be complete. Please suggest additional citations or
report any other bugs at https://github.com/shankar1729/jdftx/issues

Initialization completed successfully at t[s]:     21.87


-------- Electronic minimization -----------
Will mix electronic density at each iteration.
	FillingsUpdate:  mu: -0.082757232  nElectrons: 9.000000  magneticMoment: [ Abs: 0.56000  Tot: +0.56000 ]
	FillingsUpdate:  mu: -0.082855818  nElectrons: 9.000000  magneticMoment: [ Abs: 0.56000  Tot: +0.56000 ]
SCF: Cycle:  0   F: -24.431686002212032   dF: -1.017e-04   |Residual|: 1.305e-03   |deigs|: 1.733e-01  t[s]:     30.03
	FillingsUpdate:  mu: -0.082865693  nElectrons: 9.000000  magneticMoment: [ Abs: 0.56273  Tot: +0.56000 ]
SCF: Cycle:  1   F: -24.431687840085537   dF: -1.838e-06   |Residual|: 3.772e-04   |deigs|: 6.414e-03  t[s]:     36.51
	FillingsUpdate:  mu: -0.082870789  nElectrons: 9.000000  magneticMoment: [ Abs: 0.56286  Tot: +0.56000 ]
SCF: Cycle:  2   F: -24.431688314742043   dF: -4.747e-07   |Residual|: 2.396e-04   |deigs|: 1.581e-03  t[s]:     43.07
	FillingsUpdate:  mu: -0.082879279  nElectrons: 9.000000  magneticMoment: [ Abs: 0.56337  Tot: +0.56000 ]
SCF: Cycle:  3   F: -24.431688587394177   dF: -2.727e-07   |Residual|: 1.821e-04   |deigs|: 4.357e-04  t[s]:     49.79
	FillingsUpdate:  mu: -0.082878151  nElectrons: 9.000000  magneticMoment: [ Abs: 0.56330  Tot: +0.56000 ]
SCF: Cycle:  4   F: -24.431688882596013   dF: -2.952e-07   |Residual|: 1.369e-04   |deigs|: 4.097e-04  t[s]:     56.55
	FillingsUpdate:  mu: -0.082882144  nElectrons: 9.000000  magneticMoment: [ Abs: 0.56335  Tot: +0.56000 ]
SCF: Cycle:  5   F: -24.431689093438848   dF: -2.108e-07   |Residual|: 9.643e-05   |deigs|: 5.084e-04  t[s]:     63.43
	FillingsUpdate:  mu: -0.082873393  nElectrons: 9.000000  magneticMoment: [ Abs: 0.56331  Tot: +0.56000 ]
SCF: Cycle:  6   F: -24.431689245457733   dF: -1.520e-07   |Residual|: 6.561e-05   |deigs|: 2.735e-04  t[s]:     70.37
	FillingsUpdate:  mu: -0.082864221  nElectrons: 9.000000  magneticMoment: [ Abs: 0.56332  Tot: +0.56000 ]
SCF: Cycle:  7   F: -24.431689327074356   dF: -8.162e-08   |Residual|: 4.991e-05   |deigs|: 4.448e-04  t[s]:     77.47
	FillingsUpdate:  mu: -0.082850816  nElectrons: 9.000000  magneticMoment: [ Abs: 0.56331  Tot: +0.56000 ]
SCF: Cycle:  8   F: -24.431689369774887   dF: -4.270e-08   |Residual|: 4.110e-05   |deigs|: 7.442e-04  t[s]:     84.66
	FillingsUpdate:  mu: -0.082822414  nElectrons: 9.000000  magneticMoment: [ Abs: 0.56330  Tot: +0.56000 ]
SCF: Cycle:  9   F: -24.431689406673335   dF: -3.690e-08   |Residual|: 3.126e-05   |deigs|: 4.565e-04  t[s]:     92.01
	FillingsUpdate:  mu: -0.082799621  nElectrons: 9.000000  magneticMoment: [ Abs: 0.56333  Tot: +0.56000 ]
SCF: Cycle: 10   F: -24.431689399035349   dF: +7.638e-09   |Residual|: 2.847e-05   |deigs|: 1.669e-04  t[s]:     99.49
	FillingsUpdate:  mu: -0.082772346  nElectrons: 9.000000  magneticMoment: [ Abs: 0.56344  Tot: +0.56000 ]
SCF: Cycle: 11   F: -24.431689348166906   dF: +5.087e-08   |Residual|: 2.766e-05   |deigs|: 6.645e-05  t[s]:    106.88
	FillingsUpdate:  mu: -0.082742855  nElectrons: 9.000000  magneticMoment: [ Abs: 0.56351  Tot: +0.56000 ]
SCF: Cycle: 12   F: -24.431689192321702   dF: +1.558e-07   |Residual|: 2.502e-05   |deigs|: 4.487e-05  t[s]:    114.34
	FillingsUpdate:  mu: -0.082712337  nElectrons: 9.000000  magneticMoment: [ Abs: 0.56351  Tot: +0.56000 ]
SCF: Cycle: 13   F: -24.431689291519323   dF: -9.920e-08   |Residual|: 2.297e-05   |deigs|: 4.035e-05  t[s]:    121.74
	FillingsUpdate:  mu: -0.082684024  nElectrons: 9.000000  magneticMoment: [ Abs: 0.56354  Tot: +0.56000 ]
SCF: Cycle: 14   F: -24.431689402265700   dF: -1.107e-07   |Residual|: 1.820e-05   |deigs|: 3.244e-05  t[s]:    128.77
	FillingsUpdate:  mu: -0.082643331  nElectrons: 9.000000  magneticMoment: [ Abs: 0.56355  Tot: +0.56000 ]
SCF: Cycle: 15   F: -24.431689249414585   dF: +1.529e-07   |Residual|: 1.891e-05   |deigs|: 4.752e-05  t[s]:    135.90
	FillingsUpdate:  mu: -0.082616114  nElectrons: 9.000000  magneticMoment: [ Abs: 0.56343  Tot: +0.56000 ]
SCF: Cycle: 16   F: -24.431689373866963   dF: -1.245e-07   |Residual|: 1.561e-05   |deigs|: 3.178e-05  t[s]:    143.14
	FillingsUpdate:  mu: -0.082617350  nElectrons: 9.000000  magneticMoment: [ Abs: 0.56338  Tot: +0.56000 ]
SCF: Cycle: 17   F: -24.431689401206739   dF: -2.734e-08   |Residual|: 1.241e-05   |deigs|: 1.566e-05  t[s]:    150.10
	FillingsUpdate:  mu: -0.082610797  nElectrons: 9.000000  magneticMoment: [ Abs: 0.56334  Tot: +0.56000 ]
SCF: Cycle: 18   F: -24.431689422419776   dF: -2.121e-08   |Residual|: 8.934e-06   |deigs|: 1.206e-05  t[s]:    157.54
	FillingsUpdate:  mu: -0.082601276  nElectrons: 9.000000  magneticMoment: [ Abs: 0.56330  Tot: +0.56000 ]
SCF: Cycle: 19   F: -24.431689437516525   dF: -1.510e-08   |Residual|: 6.886e-06   |deigs|: 1.224e-05  t[s]:    164.89
	FillingsUpdate:  mu: -0.082600639  nElectrons: 9.000000  magneticMoment: [ Abs: 0.56331  Tot: +0.56000 ]
SCF: Cycle: 20   F: -24.431689461868530   dF: -2.435e-08   |Residual|: 5.276e-06   |deigs|: 1.264e-05  t[s]:    172.15
	FillingsUpdate:  mu: -0.082604322  nElectrons: 9.000000  magneticMoment: [ Abs: 0.56331  Tot: +0.56000 ]
SCF: Cycle: 21   F: -24.431689465905201   dF: -4.037e-09   |Residual|: 3.331e-06   |deigs|: 1.937e-05  t[s]:    179.12
	FillingsUpdate:  mu: -0.082605510  nElectrons: 9.000000  magneticMoment: [ Abs: 0.56331  Tot: +0.56000 ]
SCF: Cycle: 22   F: -24.431689474974473   dF: -9.069e-09   |Residual|: 2.305e-06   |deigs|: 2.241e-05  t[s]:    186.53
SCF: Converged (|Delta E|<1.000000e-08 for 2 iters).


# Ionic positions in lattice coordinates:
ion Rb   0.000000000000000   0.000000000000000   0.000000000000000 0

# Forces in Lattice coordinates:
force Rb   0.000000000000000   0.000000000000000   0.000000000000000 0

# Energy components:
   Eewald =       -9.0240130501663280
       EH =       10.5312749970855073
     Eloc =      -28.4561031278024288
      Enl =       -0.7927518255529273
   Epulay =        0.0000000056959385
      Exc =       -3.6502612368815375
       KE =        6.9601660851822009
-------------------------------------
     Etot =      -24.4316881524395733
       TS =        0.0000013225348993
-------------------------------------
        F =      -24.4316894749744726

IonicMinimize: Iter:   0  F: -24.431689474974473  |grad|_K:  0.000e+00  t[s]:    186.94
IonicMinimize: Converged (|grad|_K<1.000000e-04).

#--- Lowdin population analysis ---
# oxidation-state Rb +0.001
# magnetic-moments Rb +0.559

End date and time: Sun Feb  6 12:59:48 2022  (Duration: 0-0:03:07.02)
Done!
