The alkali metal is Rb
scale=2
magnetization=0.74
--------------------------------------------------------------------------
The library attempted to open the following supporting CUDA libraries,
but each of them failed.  CUDA-aware support is disabled.
libcuda.so.1: cannot open shared object file: No such file or directory
libcuda.dylib: cannot open shared object file: No such file or directory
/usr/lib64/libcuda.so.1: cannot open shared object file: No such file or directory
/usr/lib64/libcuda.dylib: cannot open shared object file: No such file or directory
If you are not interested in CUDA-aware support, then run with
--mca opal_warn_on_missing_libcuda 0 to suppress this message.  If you are interested
in CUDA-aware support, then try setting LD_LIBRARY_PATH to the location
of libcuda.so.1 to get passed this issue.
--------------------------------------------------------------------------
[d-17-2-2:28725] [[21543,0],0] ORTE_ERROR_LOG: Data unpack would read past end of buffer in file util/show_help.c at line 501
--------------------------------------------------------------------------
No OpenFabrics connection schemes reported that they were able to be
used on a specific port.  As such, the openib BTL (OpenFabrics
support) will be disabled for this port.

  Local host:           d-17-2-2
  Local device:         mlx5_1
  Local port:           1
  CPCs attempted:       rdmacm, udcm
--------------------------------------------------------------------------

*************** JDFTx 1.6.0 (git hash 42ebbcc2) ***************

Start date and time: Sun Feb  6 12:54:15 2022
Executable jdftx with command-line: -i Alkali.in
Running on hosts (process indices):  d-17-2-2 (0-18)
Divided in process groups (process indices):  0 (0)  1 (1)  2 (2)  3 (3)  4 (4)  5 (5)  6 (6)  7 (7)  8 (8)  9 (9)  10 (10)  11 (11)  12 (12)  13 (13)  14 (14)  15 (15)  16 (16)  17 (17)  18 (18)
Resource initialization completed at t[s]:      0.00
Run totals: 19 processes, 48 threads, 0 GPUs


Input parsed successfully to the following command list (including defaults):

basis kpoint-dependent
coords-type Lattice
core-overlap-check vector
coulomb-interaction Slab 001
davidson-band-ratio 1.1
dump End None
dump-name $INPUT.$VAR
elec-cutoff 20
elec-eigen-algo Davidson
elec-ex-corr gga-PBE
elec-initial-magnetization 0.740000 yes
elec-smearing Fermi 1e-05
electronic-minimize  \
	dirUpdateScheme      FletcherReeves \
	linminMethod         DirUpdateRecommended \
	nIterations          100 \
	history              15 \
	knormThreshold       0 \
	energyDiffThreshold  1e-08 \
	nEnergyDiff          2 \
	alphaTstart          1 \
	alphaTmin            1e-10 \
	updateTestStepSize   yes \
	alphaTreduceFactor   0.1 \
	alphaTincreaseFactor 3 \
	nAlphaAdjustMax      3 \
	wolfeEnergy          0.0001 \
	wolfeGradient        0.9 \
	fdTest               no
electronic-scf  \
	nIterations	10000 \
	energyDiffThreshold	1e-08 \
	residualThreshold	1e-07 \
	mixFraction	0.5 \
	qMetric	0.8 \
	history	10 \
	nEigSteps	2 \
	eigDiffThreshold	1e-08 \
	mixedVariable	Density \
	qKerker	0.8 \
	qKappa	-1 \
	verbose	no \
	mixFractionMag	1.5
exchange-regularization WignerSeitzTruncated
fluid None
fluid-ex-corr (null) lda-PZ
fluid-gummel-loop 10 1.000000e-05
fluid-minimize  \
	dirUpdateScheme      PolakRibiere \
	linminMethod         DirUpdateRecommended \
	nIterations          100 \
	history              15 \
	knormThreshold       0 \
	energyDiffThreshold  0 \
	nEnergyDiff          2 \
	alphaTstart          1 \
	alphaTmin            1e-10 \
	updateTestStepSize   yes \
	alphaTreduceFactor   0.1 \
	alphaTincreaseFactor 3 \
	nAlphaAdjustMax      3 \
	wolfeEnergy          0.0001 \
	wolfeGradient        0.9 \
	fdTest               no
fluid-solvent H2O 55.338 ScalarEOS \
	epsBulk 78.4 \
	pMol 0.92466 \
	epsInf 1.77 \
	Pvap 1.06736e-10 \
	sigmaBulk 4.62e-05 \
	Rvdw 2.61727 \
	Res 1.42 \
	tauNuc 343133 \
	poleEl 15 7 1
forces-output-coords Positions
ion Rb   0.000000000000000   0.000000000000000   0.000000000000000 0
ion-species SG15/$ID_ONCV_PBE.upf
ion-width 0
ionic-minimize  \
	dirUpdateScheme      L-BFGS \
	linminMethod         DirUpdateRecommended \
	nIterations          0 \
	history              15 \
	knormThreshold       0.0001 \
	energyDiffThreshold  1e-06 \
	nEnergyDiff          2 \
	alphaTstart          1 \
	alphaTmin            1e-10 \
	updateTestStepSize   yes \
	alphaTreduceFactor   0.1 \
	alphaTincreaseFactor 3 \
	nAlphaAdjustMax      3 \
	wolfeEnergy          0.0001 \
	wolfeGradient        0.9 \
	fdTest               no
kpoint   0.000000000000   0.000000000000   0.000000000000  1.00000000000000
kpoint-folding 12 12 1 
latt-move-scale 1 1 1
latt-scale 2 2 1 
lattice  \
	   4.727486978767153   -2.363743489383575    0.000000000000000  \
	  -0.000000000000000    4.094123819672498    0.000000000000000  \
	   0.000000000000000    0.000000000000000   40.000000000000000 
lattice-minimize  \
	dirUpdateScheme      L-BFGS \
	linminMethod         DirUpdateRecommended \
	nIterations          0 \
	history              15 \
	knormThreshold       0 \
	energyDiffThreshold  1e-06 \
	nEnergyDiff          2 \
	alphaTstart          1 \
	alphaTmin            1e-10 \
	updateTestStepSize   yes \
	alphaTreduceFactor   0.1 \
	alphaTincreaseFactor 3 \
	nAlphaAdjustMax      3 \
	wolfeEnergy          0.0001 \
	wolfeGradient        0.9 \
	fdTest               no
lcao-params -1 1e-06 1e-05
pcm-variant GLSSA13
spintype z-spin
subspace-rotation-factor 1 yes
symmetries automatic
symmetry-threshold 0.0001



---------- Setting up symmetries ----------

Found 24 point-group symmetries of the bravais lattice
Found 24 space-group symmetries with basis
Applied RMS atom displacement 0 bohrs to make symmetries exact.

---------- Initializing the Grid ----------
R = 
[      9.45497     -4.72749            0  ]
[            0      8.18825            0  ]
[            0            0           40  ]
unit cell volume = 3096.79
G =
[   0.664538   0.383671         -0  ]
[          0   0.767342         -0  ]
[         -0         -0    0.15708  ]
Minimum fftbox size, Smin = [  40  40  164  ]
Chosen fftbox size, S = [  40  40  168  ]

---------- Exchange Correlation functional ----------
Initalized PBE GGA exchange.
Initalized PBE GGA correlation.

---------- Setting up pseudopotentials ----------
Width of ionic core gaussian charges (only for fluid interactions / plotting) set to 0

Reading pseudopotential file '/home/gridsan/aligho/DFT/build-Nov24/pseudopotentials/SG15/Rb_ONCV_PBE.upf':
  'Rb' pseudopotential, 'PBE' functional
  Generated using ONCVPSP code by D. R. Hamann
  Author: Martin Schlipf and Francois Gygi  Date: 150915.
  9 valence electrons, 3 orbitals, 6 projectors, 2308 radial grid points, with lMax = 2
  Transforming local potential to a uniform radial grid of dG=0.02 with 1489 points.
  Transforming nonlocal projectors to a uniform radial grid of dG=0.02 with 432 points.
    4S    l: 0   occupation:  2.0   eigenvalue: -1.172069
    4P    l: 1   occupation:  6.0   eigenvalue: -0.586674
    5S    l: 0   occupation:  1.0   eigenvalue: -0.082006
  Transforming atomic orbitals to a uniform radial grid of dG=0.02 with 432 points.
  Core radius for overlap checks: 2.60 bohrs.
  Reading pulay file /home/gridsan/aligho/DFT/build-Nov24/pseudopotentials/SG15/Rb_ONCV_PBE.pulay ... using dE_dnG = -1.360715e-05 computed for Ecut = 20.

Initialized 1 species with 1 total atoms.

Folded 1 k-points by 12x12x1 to 144 k-points.

---------- Setting up k-points, bands, fillings ----------
Reduced to 19 k-points under symmetry. 
Computing the number of bands and number of electrons
Calculating initial fillings.
nElectrons:   9.000000   nBands: 6   nStates: 38

----- Setting up reduced wavefunction bases (one per k-point) -----
average nbasis = 13230.521 , ideal nbasis = 13229.709

---------- Setting up coulomb interaction ----------
Initialized slab truncation along lattice direction 001

---------- Setting up 2D ewald sum ----------
Optimum gaussian width for ewald sums = 5.249020 bohr.
Real space sums over 289 unit cells with max indices [  8  8  0  ]
Reciprocal space sums over 81 terms with max indices [  4  4  0  ]

---------- Allocating electronic variables ----------
Initializing wave functions:  linear combination of atomic orbitals
Note: number of bands (6) exceeds available atomic orbitals (5)
Rb pseudo-atom occupations:   s ( 2 1 )  p ( 6 )
	FillingsUpdate:  mu: -0.092631307  nElectrons: 9.000000  magneticMoment: [ Abs: 0.74000  Tot: +0.74000 ]
LCAOMinimize: Iter:   0  F: -24.4381392647565221  |grad|_K:  1.987e-05  alpha:  1.000e+00
	FillingsUpdate:  mu: -0.092624766  nElectrons: 9.000000  magneticMoment: [ Abs: 0.74000  Tot: +0.74000 ]
LCAOMinimize: Iter:   1  F: -24.4381395295868735  |grad|_K:  2.053e-07  alpha:  9.809e-01  linmin: -1.603e-02  cgtest:  2.298e-01  t[s]:      4.68
LCAOMinimize: Encountered beta<0, resetting CG.
[d-17-2-2:28725] 17 more processes have sent help message help-mpi-common-cuda.txt / dlopen failed
[d-17-2-2:28725] Set MCA parameter "orte_base_help_aggregate" to 0 to see all help / error messages
[d-17-2-2:28725] 18 more processes have sent help message help-mpi-btl-openib-cpc-base.txt / no cpcs for port
	FillingsUpdate:  mu: -0.092624823  nElectrons: 9.000000  magneticMoment: [ Abs: 0.74000  Tot: +0.74000 ]
LCAOMinimize: Iter:   2  F: -24.4381395296158495  |grad|_K:  2.647e-09  alpha:  1.011e+00  linmin:  1.326e-01  cgtest: -8.699e-01  t[s]:      5.91
LCAOMinimize: Converged (|Delta F|<1.000000e-06 for 2 iters).


---- Citations for features of the code used in this run ----

   Software package:
      R. Sundararaman, K. Letchworth-Weaver, K.A. Schwarz, D. Gunceler, Y. Ozhabes and T.A. Arias, 'JDFTx: software for joint density-functional theory', SoftwareX 6, 278 (2017)

   gga-PBE exchange-correlation functional:
      J.P. Perdew, K. Burke and M. Ernzerhof, Phys. Rev. Lett. 77, 3865 (1996)

   Pseudopotentials:
      M Schlipf and F Gygi, Comput. Phys. Commun. 196, 36 (2015)

   Truncated Coulomb potentials:
      R. Sundararaman and T.A. Arias, Phys. Rev. B 87, 165122 (2013)

This list may not be complete. Please suggest additional citations or
report any other bugs at https://github.com/shankar1729/jdftx/issues

Initialization completed successfully at t[s]:      6.00


-------- Electronic minimization -----------
Will mix electronic density at each iteration.
	FillingsUpdate:  mu: -0.092624823  nElectrons: 9.000000  magneticMoment: [ Abs: 0.74000  Tot: +0.74000 ]
	FillingsUpdate:  mu: -0.103473652  nElectrons: 9.000000  magneticMoment: [ Abs: 0.74000  Tot: +0.74000 ]
SCF: Cycle:  0   F: -24.446941343099777   dF: -8.802e-03   |Residual|: 1.435e-02   |deigs|: 1.777e-01  t[s]:      8.44
	FillingsUpdate:  mu: -0.106166047  nElectrons: 9.000000  magneticMoment: [ Abs: 0.74000  Tot: +0.74000 ]
SCF: Cycle:  1   F: -24.447374746598193   dF: -4.334e-04   |Residual|: 1.007e-02   |deigs|: 7.720e-03  t[s]:     10.26
	FillingsUpdate:  mu: -0.105826408  nElectrons: 9.000000  magneticMoment: [ Abs: 0.74243  Tot: +0.74000 ]
SCF: Cycle:  2   F: -24.447575735391556   dF: -2.010e-04   |Residual|: 6.075e-03   |deigs|: 2.797e-03  t[s]:     12.11
	FillingsUpdate:  mu: -0.102935934  nElectrons: 9.000000  magneticMoment: [ Abs: 0.74011  Tot: +0.74000 ]
SCF: Cycle:  3   F: -24.447673300882720   dF: -9.757e-05   |Residual|: 3.379e-03   |deigs|: 2.328e-03  t[s]:     13.99
	FillingsUpdate:  mu: -0.100948107  nElectrons: 9.000000  magneticMoment: [ Abs: 0.74019  Tot: +0.74000 ]
SCF: Cycle:  4   F: -24.447725991237494   dF: -5.269e-05   |Residual|: 2.288e-03   |deigs|: 1.989e-03  t[s]:     15.90
	FillingsUpdate:  mu: -0.099159827  nElectrons: 9.000000  magneticMoment: [ Abs: 0.74023  Tot: +0.74000 ]
SCF: Cycle:  5   F: -24.447746554139822   dF: -2.056e-05   |Residual|: 1.729e-03   |deigs|: 3.391e-03  t[s]:     17.95
	FillingsUpdate:  mu: -0.096085944  nElectrons: 9.000000  magneticMoment: [ Abs: 0.74473  Tot: +0.74000 ]
SCF: Cycle:  6   F: -24.447746075815477   dF: +4.783e-07   |Residual|: 1.341e-03   |deigs|: 3.191e-03  t[s]:     19.98
	FillingsUpdate:  mu: -0.094109864  nElectrons: 9.000000  magneticMoment: [ Abs: 0.74602  Tot: +0.74000 ]
SCF: Cycle:  7   F: -24.447765164980979   dF: -1.909e-05   |Residual|: 1.168e-03   |deigs|: 2.725e-03  t[s]:     22.08
	FillingsUpdate:  mu: -0.094333401  nElectrons: 9.000000  magneticMoment: [ Abs: 0.74059  Tot: +0.74000 ]
SCF: Cycle:  8   F: -24.447784341923320   dF: -1.918e-05   |Residual|: 8.689e-04   |deigs|: 1.880e-03  t[s]:     24.09
	FillingsUpdate:  mu: -0.093413342  nElectrons: 9.000000  magneticMoment: [ Abs: 0.74185  Tot: +0.74000 ]
SCF: Cycle:  9   F: -24.447788692224869   dF: -4.350e-06   |Residual|: 7.210e-04   |deigs|: 1.033e-03  t[s]:     26.20
	FillingsUpdate:  mu: -0.092063263  nElectrons: 9.000000  magneticMoment: [ Abs: 0.74356  Tot: +0.74000 ]
SCF: Cycle: 10   F: -24.447791984209292   dF: -3.292e-06   |Residual|: 6.149e-04   |deigs|: 1.531e-03  t[s]:     28.31
	FillingsUpdate:  mu: -0.091492262  nElectrons: 9.000000  magneticMoment: [ Abs: 0.74334  Tot: +0.74000 ]
SCF: Cycle: 11   F: -24.447795225323500   dF: -3.241e-06   |Residual|: 5.519e-04   |deigs|: 6.597e-04  t[s]:     30.35
	FillingsUpdate:  mu: -0.090659789  nElectrons: 9.000000  magneticMoment: [ Abs: 0.74420  Tot: +0.74000 ]
SCF: Cycle: 12   F: -24.447801940211477   dF: -6.715e-06   |Residual|: 5.126e-04   |deigs|: 9.692e-04  t[s]:     32.38
	FillingsUpdate:  mu: -0.089022366  nElectrons: 9.000000  magneticMoment: [ Abs: 0.74477  Tot: +0.74000 ]
SCF: Cycle: 13   F: -24.447806074397707   dF: -4.134e-06   |Residual|: 4.515e-04   |deigs|: 1.802e-03  t[s]:     34.45
	FillingsUpdate:  mu: -0.088041944  nElectrons: 9.000000  magneticMoment: [ Abs: 0.74287  Tot: +0.74000 ]
SCF: Cycle: 14   F: -24.447809528146319   dF: -3.454e-06   |Residual|: 4.296e-04   |deigs|: 1.168e-03  t[s]:     36.61
	FillingsUpdate:  mu: -0.087166529  nElectrons: 9.000000  magneticMoment: [ Abs: 0.74145  Tot: +0.74000 ]
SCF: Cycle: 15   F: -24.447813377476795   dF: -3.849e-06   |Residual|: 3.231e-04   |deigs|: 1.195e-03  t[s]:     38.76
	FillingsUpdate:  mu: -0.086597967  nElectrons: 9.000000  magneticMoment: [ Abs: 0.74116  Tot: +0.74000 ]
SCF: Cycle: 16   F: -24.447814972487688   dF: -1.595e-06   |Residual|: 2.470e-04   |deigs|: 9.894e-04  t[s]:     40.82
	FillingsUpdate:  mu: -0.086382169  nElectrons: 9.000000  magneticMoment: [ Abs: 0.74042  Tot: +0.74000 ]
SCF: Cycle: 17   F: -24.447816890529058   dF: -1.918e-06   |Residual|: 1.524e-04   |deigs|: 5.333e-04  t[s]:     42.86
	FillingsUpdate:  mu: -0.086460341  nElectrons: 9.000000  magneticMoment: [ Abs: 0.74061  Tot: +0.74000 ]
SCF: Cycle: 18   F: -24.447817287232407   dF: -3.967e-07   |Residual|: 1.133e-04   |deigs|: 2.795e-04  t[s]:     44.93
	FillingsUpdate:  mu: -0.086509009  nElectrons: 9.000000  magneticMoment: [ Abs: 0.74048  Tot: +0.74000 ]
SCF: Cycle: 19   F: -24.447817477376624   dF: -1.901e-07   |Residual|: 7.336e-05   |deigs|: 1.100e-04  t[s]:     47.06
	FillingsUpdate:  mu: -0.086479166  nElectrons: 9.000000  magneticMoment: [ Abs: 0.74046  Tot: +0.74000 ]
SCF: Cycle: 20   F: -24.447817612867222   dF: -1.355e-07   |Residual|: 3.795e-05   |deigs|: 7.902e-05  t[s]:     49.11
	FillingsUpdate:  mu: -0.086473927  nElectrons: 9.000000  magneticMoment: [ Abs: 0.74048  Tot: +0.74000 ]
SCF: Cycle: 21   F: -24.447817659740160   dF: -4.687e-08   |Residual|: 2.400e-05   |deigs|: 2.950e-05  t[s]:     51.13
	FillingsUpdate:  mu: -0.086500263  nElectrons: 9.000000  magneticMoment: [ Abs: 0.74048  Tot: +0.74000 ]
SCF: Cycle: 22   F: -24.447817689955848   dF: -3.022e-08   |Residual|: 1.892e-05   |deigs|: 3.725e-05  t[s]:     53.18
	FillingsUpdate:  mu: -0.086545977  nElectrons: 9.000000  magneticMoment: [ Abs: 0.74046  Tot: +0.74000 ]
SCF: Cycle: 23   F: -24.447817700607427   dF: -1.065e-08   |Residual|: 1.754e-05   |deigs|: 5.234e-05  t[s]:     55.28
	FillingsUpdate:  mu: -0.086529799  nElectrons: 9.000000  magneticMoment: [ Abs: 0.74036  Tot: +0.74000 ]
SCF: Cycle: 24   F: -24.447817723511545   dF: -2.290e-08   |Residual|: 1.502e-05   |deigs|: 1.381e-05  t[s]:     57.36
	FillingsUpdate:  mu: -0.086493699  nElectrons: 9.000000  magneticMoment: [ Abs: 0.74024  Tot: +0.74000 ]
SCF: Cycle: 25   F: -24.447817729745463   dF: -6.234e-09   |Residual|: 1.386e-05   |deigs|: 3.673e-05  t[s]:     59.48
	FillingsUpdate:  mu: -0.086488297  nElectrons: 9.000000  magneticMoment: [ Abs: 0.74018  Tot: +0.74000 ]
SCF: Cycle: 26   F: -24.447817734250474   dF: -4.505e-09   |Residual|: 1.059e-05   |deigs|: 7.154e-06  t[s]:     61.59
SCF: Converged (|Delta E|<1.000000e-08 for 2 iters).


# Ionic positions in lattice coordinates:
ion Rb   0.000000000000000   0.000000000000000   0.000000000000000 0

# Forces in Lattice coordinates:
force Rb  -0.000000000000000   0.000000000000000   0.000000000000000 0

# Energy components:
   Eewald =      -18.0480261003326561
       EH =        1.6645676677763921
     Eloc =      -10.5762758096449794
      Enl =       -0.7984621295098240
   Epulay =        0.0000000035676145
      Exc =       -3.6813176400056173
       KE =        6.9916964310493759
-------------------------------------
     Etot =      -24.4478175770996913
       TS =        0.0000001571507830
-------------------------------------
        F =      -24.4478177342504743

IonicMinimize: Iter:   0  F: -24.447817734250474  |grad|_K:  0.000e+00  t[s]:     61.71
IonicMinimize: Converged (|grad|_K<1.000000e-04).

#--- Lowdin population analysis ---
# oxidation-state Rb +0.104
# magnetic-moments Rb +0.641

End date and time: Sun Feb  6 12:55:17 2022  (Duration: 0-0:01:01.73)
Done!
scale=3
magnetization=0.74
--------------------------------------------------------------------------
The library attempted to open the following supporting CUDA libraries,
but each of them failed.  CUDA-aware support is disabled.
libcuda.so.1: cannot open shared object file: No such file or directory
libcuda.dylib: cannot open shared object file: No such file or directory
/usr/lib64/libcuda.so.1: cannot open shared object file: No such file or directory
/usr/lib64/libcuda.dylib: cannot open shared object file: No such file or directory
If you are not interested in CUDA-aware support, then run with
--mca opal_warn_on_missing_libcuda 0 to suppress this message.  If you are interested
in CUDA-aware support, then try setting LD_LIBRARY_PATH to the location
of libcuda.so.1 to get passed this issue.
--------------------------------------------------------------------------
--------------------------------------------------------------------------
No OpenFabrics connection schemes reported that they were able to be
used on a specific port.  As such, the openib BTL (OpenFabrics
support) will be disabled for this port.

  Local host:           d-17-2-2
  Local device:         mlx5_1
  Local port:           1
  CPCs attempted:       rdmacm, udcm
--------------------------------------------------------------------------

*************** JDFTx 1.6.0 (git hash 42ebbcc2) ***************

Start date and time: Sun Feb  6 12:55:18 2022
Executable jdftx with command-line: -i Alkali.in
Running on hosts (process indices):  d-17-2-2 (0-18)
Divided in process groups (process indices):  0 (0)  1 (1)  2 (2)  3 (3)  4 (4)  5 (5)  6 (6)  7 (7)  8 (8)  9 (9)  10 (10)  11 (11)  12 (12)  13 (13)  14 (14)  15 (15)  16 (16)  17 (17)  18 (18)
Resource initialization completed at t[s]:      0.00
Run totals: 19 processes, 48 threads, 0 GPUs


Input parsed successfully to the following command list (including defaults):

basis kpoint-dependent
coords-type Lattice
core-overlap-check vector
coulomb-interaction Slab 001
davidson-band-ratio 1.1
dump End None
dump-name $INPUT.$VAR
elec-cutoff 20
elec-eigen-algo Davidson
elec-ex-corr gga-PBE
elec-initial-magnetization 0.740000 yes
elec-smearing Fermi 1e-05
electronic-minimize  \
	dirUpdateScheme      FletcherReeves \
	linminMethod         DirUpdateRecommended \
	nIterations          100 \
	history              15 \
	knormThreshold       0 \
	energyDiffThreshold  1e-08 \
	nEnergyDiff          2 \
	alphaTstart          1 \
	alphaTmin            1e-10 \
	updateTestStepSize   yes \
	alphaTreduceFactor   0.1 \
	alphaTincreaseFactor 3 \
	nAlphaAdjustMax      3 \
	wolfeEnergy          0.0001 \
	wolfeGradient        0.9 \
	fdTest               no
electronic-scf  \
	nIterations	10000 \
	energyDiffThreshold	1e-08 \
	residualThreshold	1e-07 \
	mixFraction	0.5 \
	qMetric	0.8 \
	history	10 \
	nEigSteps	2 \
	eigDiffThreshold	1e-08 \
	mixedVariable	Density \
	qKerker	0.8 \
	qKappa	-1 \
	verbose	no \
	mixFractionMag	1.5
exchange-regularization WignerSeitzTruncated
fluid None
fluid-ex-corr (null) lda-PZ
fluid-gummel-loop 10 1.000000e-05
fluid-minimize  \
	dirUpdateScheme      PolakRibiere \
	linminMethod         DirUpdateRecommended \
	nIterations          100 \
	history              15 \
	knormThreshold       0 \
	energyDiffThreshold  0 \
	nEnergyDiff          2 \
	alphaTstart          1 \
	alphaTmin            1e-10 \
	updateTestStepSize   yes \
	alphaTreduceFactor   0.1 \
	alphaTincreaseFactor 3 \
	nAlphaAdjustMax      3 \
	wolfeEnergy          0.0001 \
	wolfeGradient        0.9 \
	fdTest               no
fluid-solvent H2O 55.338 ScalarEOS \
	epsBulk 78.4 \
	pMol 0.92466 \
	epsInf 1.77 \
	Pvap 1.06736e-10 \
	sigmaBulk 4.62e-05 \
	Rvdw 2.61727 \
	Res 1.42 \
	tauNuc 343133 \
	poleEl 15 7 1
forces-output-coords Positions
ion Rb   0.000000000000000   0.000000000000000   0.000000000000000 0
ion-species SG15/$ID_ONCV_PBE.upf
ion-width 0
ionic-minimize  \
	dirUpdateScheme      L-BFGS \
	linminMethod         DirUpdateRecommended \
	nIterations          0 \
	history              15 \
	knormThreshold       0.0001 \
	energyDiffThreshold  1e-06 \
	nEnergyDiff          2 \
	alphaTstart          1 \
	alphaTmin            1e-10 \
	updateTestStepSize   yes \
	alphaTreduceFactor   0.1 \
	alphaTincreaseFactor 3 \
	nAlphaAdjustMax      3 \
	wolfeEnergy          0.0001 \
	wolfeGradient        0.9 \
	fdTest               no
kpoint   0.000000000000   0.000000000000   0.000000000000  1.00000000000000
kpoint-folding 12 12 1 
latt-move-scale 1 1 1
latt-scale 3 3 1 
lattice  \
	   4.727486978767153   -2.363743489383575    0.000000000000000  \
	  -0.000000000000000    4.094123819672498    0.000000000000000  \
	   0.000000000000000    0.000000000000000   40.000000000000000 
lattice-minimize  \
	dirUpdateScheme      L-BFGS \
	linminMethod         DirUpdateRecommended \
	nIterations          0 \
	history              15 \
	knormThreshold       0 \
	energyDiffThreshold  1e-06 \
	nEnergyDiff          2 \
	alphaTstart          1 \
	alphaTmin            1e-10 \
	updateTestStepSize   yes \
	alphaTreduceFactor   0.1 \
	alphaTincreaseFactor 3 \
	nAlphaAdjustMax      3 \
	wolfeEnergy          0.0001 \
	wolfeGradient        0.9 \
	fdTest               no
lcao-params -1 1e-06 1e-05
pcm-variant GLSSA13
spintype z-spin
subspace-rotation-factor 1 yes
symmetries automatic
symmetry-threshold 0.0001



---------- Setting up symmetries ----------

Found 24 point-group symmetries of the bravais lattice
Found 24 space-group symmetries with basis
Applied RMS atom displacement 0 bohrs to make symmetries exact.

---------- Initializing the Grid ----------
R = 
[      14.1825     -7.09123            0  ]
[            0      12.2824            0  ]
[            0            0           40  ]
unit cell volume = 6967.77
G =
[   0.443025   0.255781         -0  ]
[          0   0.511561         -0  ]
[         -0         -0    0.15708  ]
Minimum fftbox size, Smin = [  60  60  164  ]
Chosen fftbox size, S = [  60  60  168  ]

---------- Exchange Correlation functional ----------
Initalized PBE GGA exchange.
Initalized PBE GGA correlation.

---------- Setting up pseudopotentials ----------
Width of ionic core gaussian charges (only for fluid interactions / plotting) set to 0

Reading pseudopotential file '/home/gridsan/aligho/DFT/build-Nov24/pseudopotentials/SG15/Rb_ONCV_PBE.upf':
  'Rb' pseudopotential, 'PBE' functional
  Generated using ONCVPSP code by D. R. Hamann
  Author: Martin Schlipf and Francois Gygi  Date: 150915.
  9 valence electrons, 3 orbitals, 6 projectors, 2308 radial grid points, with lMax = 2
  Transforming local potential to a uniform radial grid of dG=0.02 with 1489 points.
  Transforming nonlocal projectors to a uniform radial grid of dG=0.02 with 432 points.
    4S    l: 0   occupation:  2.0   eigenvalue: -1.172069
    4P    l: 1   occupation:  6.0   eigenvalue: -0.586674
    5S    l: 0   occupation:  1.0   eigenvalue: -0.082006
  Transforming atomic orbitals to a uniform radial grid of dG=0.02 with 432 points.
  Core radius for overlap checks: 2.60 bohrs.
  Reading pulay file /home/gridsan/aligho/DFT/build-Nov24/pseudopotentials/SG15/Rb_ONCV_PBE.pulay ... using dE_dnG = -1.360715e-05 computed for Ecut = 20.

Initialized 1 species with 1 total atoms.

Folded 1 k-points by 12x12x1 to 144 k-points.

---------- Setting up k-points, bands, fillings ----------
Reduced to 19 k-points under symmetry. 
Computing the number of bands and number of electrons
Calculating initial fillings.
nElectrons:   9.000000   nBands: 6   nStates: 38

----- Setting up reduced wavefunction bases (one per k-point) -----
average nbasis = 29766.104 , ideal nbasis = 29766.845

---------- Setting up coulomb interaction ----------
Initialized slab truncation along lattice direction 001

---------- Setting up 2D ewald sum ----------
Optimum gaussian width for ewald sums = 7.873530 bohr.
Real space sums over 289 unit cells with max indices [  8  8  0  ]
Reciprocal space sums over 81 terms with max indices [  4  4  0  ]

---------- Allocating electronic variables ----------
Initializing wave functions:  linear combination of atomic orbitals
Note: number of bands (6) exceeds available atomic orbitals (5)
Rb pseudo-atom occupations:   s ( 2 1 )  p ( 6 )
[d-17-2-2:92952] 18 more processes have sent help message help-mpi-common-cuda.txt / dlopen failed
[d-17-2-2:92952] Set MCA parameter "orte_base_help_aggregate" to 0 to see all help / error messages
[d-17-2-2:92952] 18 more processes have sent help message help-mpi-btl-openib-cpc-base.txt / no cpcs for port
	FillingsUpdate:  mu: -0.085992756  nElectrons: 9.000000  magneticMoment: [ Abs: 0.74000  Tot: +0.74000 ]
LCAOMinimize: Iter:   0  F: -24.4351165795383558  |grad|_K:  9.873e-06  alpha:  1.000e+00
	FillingsUpdate:  mu: -0.085990865  nElectrons: 9.000000  magneticMoment: [ Abs: 0.74000  Tot: +0.74000 ]
LCAOMinimize: Iter:   1  F: -24.4351166455779207  |grad|_K:  6.944e-08  alpha:  9.904e-01  linmin: -8.447e-03  cgtest:  1.955e-01  t[s]:      8.81
LCAOMinimize: Encountered beta<0, resetting CG.
	FillingsUpdate:  mu: -0.085990872  nElectrons: 9.000000  magneticMoment: [ Abs: 0.74000  Tot: +0.74000 ]
LCAOMinimize: Iter:   2  F: -24.4351166455815054  |grad|_K:  1.703e-09  alpha:  1.022e+00  linmin:  9.225e-02  cgtest: -9.712e-01  t[s]:     11.22
LCAOMinimize: Converged (|Delta F|<1.000000e-06 for 2 iters).


---- Citations for features of the code used in this run ----

   Software package:
      R. Sundararaman, K. Letchworth-Weaver, K.A. Schwarz, D. Gunceler, Y. Ozhabes and T.A. Arias, 'JDFTx: software for joint density-functional theory', SoftwareX 6, 278 (2017)

   gga-PBE exchange-correlation functional:
      J.P. Perdew, K. Burke and M. Ernzerhof, Phys. Rev. Lett. 77, 3865 (1996)

   Pseudopotentials:
      M Schlipf and F Gygi, Comput. Phys. Commun. 196, 36 (2015)

   Truncated Coulomb potentials:
      R. Sundararaman and T.A. Arias, Phys. Rev. B 87, 165122 (2013)

This list may not be complete. Please suggest additional citations or
report any other bugs at https://github.com/shankar1729/jdftx/issues

Initialization completed successfully at t[s]:     11.38


-------- Electronic minimization -----------
Will mix electronic density at each iteration.
	FillingsUpdate:  mu: -0.085990872  nElectrons: 9.000000  magneticMoment: [ Abs: 0.74000  Tot: +0.74000 ]
	FillingsUpdate:  mu: -0.086822637  nElectrons: 9.000000  magneticMoment: [ Abs: 0.74000  Tot: +0.74000 ]
SCF: Cycle:  0   F: -24.436566108761074   dF: -1.449e-03   |Residual|: 3.888e-03   |deigs|: 1.734e-01  t[s]:     16.17
	FillingsUpdate:  mu: -0.087025234  nElectrons: 9.000000  magneticMoment: [ Abs: 0.74118  Tot: +0.74000 ]
SCF: Cycle:  1   F: -24.436629916981449   dF: -6.381e-05   |Residual|: 2.922e-03   |deigs|: 5.014e-03  t[s]:     19.93
	FillingsUpdate:  mu: -0.087217059  nElectrons: 9.000000  magneticMoment: [ Abs: 0.74324  Tot: +0.74000 ]
SCF: Cycle:  2   F: -24.436670646241883   dF: -4.073e-05   |Residual|: 2.225e-03   |deigs|: 1.757e-03  t[s]:     23.76
	FillingsUpdate:  mu: -0.087493431  nElectrons: 9.000000  magneticMoment: [ Abs: 0.74418  Tot: +0.74000 ]
SCF: Cycle:  3   F: -24.436703326145700   dF: -3.268e-05   |Residual|: 1.620e-03   |deigs|: 2.869e-03  t[s]:     27.67
	FillingsUpdate:  mu: -0.087453280  nElectrons: 9.000000  magneticMoment: [ Abs: 0.74250  Tot: +0.74000 ]
SCF: Cycle:  4   F: -24.436721487866873   dF: -1.816e-05   |Residual|: 8.903e-04   |deigs|: 1.888e-03  t[s]:     31.73
	FillingsUpdate:  mu: -0.087446795  nElectrons: 9.000000  magneticMoment: [ Abs: 0.74319  Tot: +0.74000 ]
SCF: Cycle:  5   F: -24.436727830983749   dF: -6.343e-06   |Residual|: 5.235e-04   |deigs|: 1.192e-03  t[s]:     35.68
	FillingsUpdate:  mu: -0.087385901  nElectrons: 9.000000  magneticMoment: [ Abs: 0.74280  Tot: +0.74000 ]
SCF: Cycle:  6   F: -24.436732060610321   dF: -4.230e-06   |Residual|: 3.860e-04   |deigs|: 1.522e-03  t[s]:     39.67
	FillingsUpdate:  mu: -0.087209175  nElectrons: 9.000000  magneticMoment: [ Abs: 0.74317  Tot: +0.74000 ]
SCF: Cycle:  7   F: -24.436733827316132   dF: -1.767e-06   |Residual|: 2.975e-04   |deigs|: 9.595e-04  t[s]:     43.74
	FillingsUpdate:  mu: -0.086930974  nElectrons: 9.000000  magneticMoment: [ Abs: 0.74379  Tot: +0.74000 ]
SCF: Cycle:  8   F: -24.436733692545165   dF: +1.348e-07   |Residual|: 2.479e-04   |deigs|: 3.791e-04  t[s]:     47.99
	FillingsUpdate:  mu: -0.086541962  nElectrons: 9.000000  magneticMoment: [ Abs: 0.74424  Tot: +0.74000 ]
SCF: Cycle:  9   F: -24.436733043082203   dF: +6.495e-07   |Residual|: 2.222e-04   |deigs|: 4.657e-04  t[s]:     52.26
	FillingsUpdate:  mu: -0.086318591  nElectrons: 9.000000  magneticMoment: [ Abs: 0.74373  Tot: +0.74000 ]
SCF: Cycle: 10   F: -24.436733717746673   dF: -6.747e-07   |Residual|: 1.970e-04   |deigs|: 2.226e-04  t[s]:     56.61
	FillingsUpdate:  mu: -0.086275392  nElectrons: 9.000000  magneticMoment: [ Abs: 0.74388  Tot: +0.74000 ]
SCF: Cycle: 11   F: -24.436735471692934   dF: -1.754e-06   |Residual|: 1.421e-04   |deigs|: 2.863e-04  t[s]:     60.94
	FillingsUpdate:  mu: -0.086067045  nElectrons: 9.000000  magneticMoment: [ Abs: 0.74436  Tot: +0.74000 ]
SCF: Cycle: 12   F: -24.436735651668656   dF: -1.800e-07   |Residual|: 1.341e-04   |deigs|: 2.598e-04  t[s]:     65.25
	FillingsUpdate:  mu: -0.085717618  nElectrons: 9.000000  magneticMoment: [ Abs: 0.74428  Tot: +0.74000 ]
SCF: Cycle: 13   F: -24.436735586400836   dF: +6.527e-08   |Residual|: 1.335e-04   |deigs|: 3.812e-04  t[s]:     69.59
	FillingsUpdate:  mu: -0.085492784  nElectrons: 9.000000  magneticMoment: [ Abs: 0.74406  Tot: +0.74000 ]
SCF: Cycle: 14   F: -24.436735419833393   dF: +1.666e-07   |Residual|: 1.229e-04   |deigs|: 3.929e-04  t[s]:     73.87
	FillingsUpdate:  mu: -0.085392747  nElectrons: 9.000000  magneticMoment: [ Abs: 0.74397  Tot: +0.74000 ]
SCF: Cycle: 15   F: -24.436736215135671   dF: -7.953e-07   |Residual|: 1.028e-04   |deigs|: 2.907e-04  t[s]:     78.19
	FillingsUpdate:  mu: -0.085171728  nElectrons: 9.000000  magneticMoment: [ Abs: 0.74321  Tot: +0.74000 ]
SCF: Cycle: 16   F: -24.436736857890249   dF: -6.428e-07   |Residual|: 8.106e-05   |deigs|: 2.664e-04  t[s]:     82.48
	FillingsUpdate:  mu: -0.085055221  nElectrons: 9.000000  magneticMoment: [ Abs: 0.74300  Tot: +0.74000 ]
SCF: Cycle: 17   F: -24.436737008946405   dF: -1.511e-07   |Residual|: 6.364e-05   |deigs|: 1.344e-04  t[s]:     86.71
	FillingsUpdate:  mu: -0.085045518  nElectrons: 9.000000  magneticMoment: [ Abs: 0.74300  Tot: +0.74000 ]
SCF: Cycle: 18   F: -24.436737130424984   dF: -1.215e-07   |Residual|: 4.280e-05   |deigs|: 7.093e-05  t[s]:     90.94
	FillingsUpdate:  mu: -0.085028221  nElectrons: 9.000000  magneticMoment: [ Abs: 0.74304  Tot: +0.74000 ]
SCF: Cycle: 19   F: -24.436737315495691   dF: -1.851e-07   |Residual|: 2.583e-05   |deigs|: 8.017e-05  t[s]:     95.21
	FillingsUpdate:  mu: -0.085014751  nElectrons: 9.000000  magneticMoment: [ Abs: 0.74303  Tot: +0.74000 ]
SCF: Cycle: 20   F: -24.436737343611949   dF: -2.812e-08   |Residual|: 1.647e-05   |deigs|: 6.148e-05  t[s]:     99.34
	FillingsUpdate:  mu: -0.085018238  nElectrons: 9.000000  magneticMoment: [ Abs: 0.74304  Tot: +0.74000 ]
SCF: Cycle: 21   F: -24.436737365167733   dF: -2.156e-08   |Residual|: 1.040e-05   |deigs|: 3.630e-05  t[s]:    103.61
	FillingsUpdate:  mu: -0.085019024  nElectrons: 9.000000  magneticMoment: [ Abs: 0.74304  Tot: +0.74000 ]
SCF: Cycle: 22   F: -24.436737376675186   dF: -1.151e-08   |Residual|: 6.521e-06   |deigs|: 1.910e-05  t[s]:    107.87
	FillingsUpdate:  mu: -0.085023143  nElectrons: 9.000000  magneticMoment: [ Abs: 0.74305  Tot: +0.74000 ]
SCF: Cycle: 23   F: -24.436737380692019   dF: -4.017e-09   |Residual|: 4.248e-06   |deigs|: 1.249e-05  t[s]:    112.21
	FillingsUpdate:  mu: -0.085026165  nElectrons: 9.000000  magneticMoment: [ Abs: 0.74306  Tot: +0.74000 ]
SCF: Cycle: 24   F: -24.436737381913321   dF: -1.221e-09   |Residual|: 3.468e-06   |deigs|: 1.006e-05  t[s]:    116.55
SCF: Converged (|Delta E|<1.000000e-08 for 2 iters).


# Ionic positions in lattice coordinates:
ion Rb   0.000000000000000   0.000000000000000   0.000000000000000 0

# Forces in Lattice coordinates:
force Rb   0.000000000000000   0.000000000000000   0.000000000000000 0

# Energy components:
   Eewald =      -12.0320174002217755
       EH =        7.5135684320969576
     Eloc =      -22.4264949192988325
      Enl =       -0.7963117293238812
   Epulay =       -0.0000000014467880
      Exc =       -3.6508509177263218
       KE =        6.9553694485576063
-------------------------------------
     Etot =      -24.4367370873630421
       TS =        0.0000002945502791
-------------------------------------
        F =      -24.4367373819133213

IonicMinimize: Iter:   0  F: -24.436737381913321  |grad|_K:  0.000e+00  t[s]:    116.80
IonicMinimize: Converged (|grad|_K<1.000000e-04).

#--- Lowdin population analysis ---
# oxidation-state Rb +0.034
# magnetic-moments Rb +0.708

End date and time: Sun Feb  6 12:57:15 2022  (Duration: 0-0:01:56.85)
Done!
scale=4
magnetization=0.74
--------------------------------------------------------------------------
The library attempted to open the following supporting CUDA libraries,
but each of them failed.  CUDA-aware support is disabled.
libcuda.so.1: cannot open shared object file: No such file or directory
libcuda.dylib: cannot open shared object file: No such file or directory
/usr/lib64/libcuda.so.1: cannot open shared object file: No such file or directory
/usr/lib64/libcuda.dylib: cannot open shared object file: No such file or directory
If you are not interested in CUDA-aware support, then run with
--mca opal_warn_on_missing_libcuda 0 to suppress this message.  If you are interested
in CUDA-aware support, then try setting LD_LIBRARY_PATH to the location
of libcuda.so.1 to get passed this issue.
--------------------------------------------------------------------------
--------------------------------------------------------------------------
No OpenFabrics connection schemes reported that they were able to be
used on a specific port.  As such, the openib BTL (OpenFabrics
support) will be disabled for this port.

  Local host:           d-17-2-2
  Local device:         mlx5_1
  Local port:           1
  CPCs attempted:       rdmacm, udcm
--------------------------------------------------------------------------

*************** JDFTx 1.6.0 (git hash 42ebbcc2) ***************

Start date and time: Sun Feb  6 12:57:16 2022
Executable jdftx with command-line: -i Alkali.in
Running on hosts (process indices):  d-17-2-2 (0-18)
Divided in process groups (process indices):  0 (0)  1 (1)  2 (2)  3 (3)  4 (4)  5 (5)  6 (6)  7 (7)  8 (8)  9 (9)  10 (10)  11 (11)  12 (12)  13 (13)  14 (14)  15 (15)  16 (16)  17 (17)  18 (18)
Resource initialization completed at t[s]:      0.00
Run totals: 19 processes, 48 threads, 0 GPUs


Input parsed successfully to the following command list (including defaults):

basis kpoint-dependent
coords-type Lattice
core-overlap-check vector
coulomb-interaction Slab 001
davidson-band-ratio 1.1
dump End None
dump-name $INPUT.$VAR
elec-cutoff 20
elec-eigen-algo Davidson
elec-ex-corr gga-PBE
elec-initial-magnetization 0.740000 yes
elec-smearing Fermi 1e-05
electronic-minimize  \
	dirUpdateScheme      FletcherReeves \
	linminMethod         DirUpdateRecommended \
	nIterations          100 \
	history              15 \
	knormThreshold       0 \
	energyDiffThreshold  1e-08 \
	nEnergyDiff          2 \
	alphaTstart          1 \
	alphaTmin            1e-10 \
	updateTestStepSize   yes \
	alphaTreduceFactor   0.1 \
	alphaTincreaseFactor 3 \
	nAlphaAdjustMax      3 \
	wolfeEnergy          0.0001 \
	wolfeGradient        0.9 \
	fdTest               no
electronic-scf  \
	nIterations	10000 \
	energyDiffThreshold	1e-08 \
	residualThreshold	1e-07 \
	mixFraction	0.5 \
	qMetric	0.8 \
	history	10 \
	nEigSteps	2 \
	eigDiffThreshold	1e-08 \
	mixedVariable	Density \
	qKerker	0.8 \
	qKappa	-1 \
	verbose	no \
	mixFractionMag	1.5
exchange-regularization WignerSeitzTruncated
fluid None
fluid-ex-corr (null) lda-PZ
fluid-gummel-loop 10 1.000000e-05
fluid-minimize  \
	dirUpdateScheme      PolakRibiere \
	linminMethod         DirUpdateRecommended \
	nIterations          100 \
	history              15 \
	knormThreshold       0 \
	energyDiffThreshold  0 \
	nEnergyDiff          2 \
	alphaTstart          1 \
	alphaTmin            1e-10 \
	updateTestStepSize   yes \
	alphaTreduceFactor   0.1 \
	alphaTincreaseFactor 3 \
	nAlphaAdjustMax      3 \
	wolfeEnergy          0.0001 \
	wolfeGradient        0.9 \
	fdTest               no
fluid-solvent H2O 55.338 ScalarEOS \
	epsBulk 78.4 \
	pMol 0.92466 \
	epsInf 1.77 \
	Pvap 1.06736e-10 \
	sigmaBulk 4.62e-05 \
	Rvdw 2.61727 \
	Res 1.42 \
	tauNuc 343133 \
	poleEl 15 7 1
forces-output-coords Positions
ion Rb   0.000000000000000   0.000000000000000   0.000000000000000 0
ion-species SG15/$ID_ONCV_PBE.upf
ion-width 0
ionic-minimize  \
	dirUpdateScheme      L-BFGS \
	linminMethod         DirUpdateRecommended \
	nIterations          0 \
	history              15 \
	knormThreshold       0.0001 \
	energyDiffThreshold  1e-06 \
	nEnergyDiff          2 \
	alphaTstart          1 \
	alphaTmin            1e-10 \
	updateTestStepSize   yes \
	alphaTreduceFactor   0.1 \
	alphaTincreaseFactor 3 \
	nAlphaAdjustMax      3 \
	wolfeEnergy          0.0001 \
	wolfeGradient        0.9 \
	fdTest               no
kpoint   0.000000000000   0.000000000000   0.000000000000  1.00000000000000
kpoint-folding 12 12 1 
latt-move-scale 1 1 1
latt-scale 4 4 1 
lattice  \
	   4.727486978767153   -2.363743489383575    0.000000000000000  \
	  -0.000000000000000    4.094123819672498    0.000000000000000  \
	   0.000000000000000    0.000000000000000   40.000000000000000 
lattice-minimize  \
	dirUpdateScheme      L-BFGS \
	linminMethod         DirUpdateRecommended \
	nIterations          0 \
	history              15 \
	knormThreshold       0 \
	energyDiffThreshold  1e-06 \
	nEnergyDiff          2 \
	alphaTstart          1 \
	alphaTmin            1e-10 \
	updateTestStepSize   yes \
	alphaTreduceFactor   0.1 \
	alphaTincreaseFactor 3 \
	nAlphaAdjustMax      3 \
	wolfeEnergy          0.0001 \
	wolfeGradient        0.9 \
	fdTest               no
lcao-params -1 1e-06 1e-05
pcm-variant GLSSA13
spintype z-spin
subspace-rotation-factor 1 yes
symmetries automatic
symmetry-threshold 0.0001



---------- Setting up symmetries ----------

Found 24 point-group symmetries of the bravais lattice
Found 24 space-group symmetries with basis
Applied RMS atom displacement 0 bohrs to make symmetries exact.

---------- Initializing the Grid ----------
R = 
[      18.9099     -9.45497            0  ]
[            0      16.3765            0  ]
[            0            0           40  ]
unit cell volume = 12387.1
G =
[   0.332269   0.191835         -0  ]
[          0   0.383671         -0  ]
[         -0         -0    0.15708  ]
Minimum fftbox size, Smin = [  80  80  164  ]
Chosen fftbox size, S = [  80  80  168  ]

---------- Exchange Correlation functional ----------
Initalized PBE GGA exchange.
Initalized PBE GGA correlation.

---------- Setting up pseudopotentials ----------
Width of ionic core gaussian charges (only for fluid interactions / plotting) set to 0

Reading pseudopotential file '/home/gridsan/aligho/DFT/build-Nov24/pseudopotentials/SG15/Rb_ONCV_PBE.upf':
  'Rb' pseudopotential, 'PBE' functional
  Generated using ONCVPSP code by D. R. Hamann
  Author: Martin Schlipf and Francois Gygi  Date: 150915.
  9 valence electrons, 3 orbitals, 6 projectors, 2308 radial grid points, with lMax = 2
  Transforming local potential to a uniform radial grid of dG=0.02 with 1489 points.
  Transforming nonlocal projectors to a uniform radial grid of dG=0.02 with 432 points.
    4S    l: 0   occupation:  2.0   eigenvalue: -1.172069
    4P    l: 1   occupation:  6.0   eigenvalue: -0.586674
    5S    l: 0   occupation:  1.0   eigenvalue: -0.082006
  Transforming atomic orbitals to a uniform radial grid of dG=0.02 with 432 points.
  Core radius for overlap checks: 2.60 bohrs.
  Reading pulay file /home/gridsan/aligho/DFT/build-Nov24/pseudopotentials/SG15/Rb_ONCV_PBE.pulay ... using dE_dnG = -1.360715e-05 computed for Ecut = 20.

Initialized 1 species with 1 total atoms.

Folded 1 k-points by 12x12x1 to 144 k-points.

---------- Setting up k-points, bands, fillings ----------
Reduced to 19 k-points under symmetry. 
Computing the number of bands and number of electrons
Calculating initial fillings.
nElectrons:   9.000000   nBands: 6   nStates: 38

----- Setting up reduced wavefunction bases (one per k-point) -----
average nbasis = 52924.021 , ideal nbasis = 52918.836

---------- Setting up coulomb interaction ----------
Initialized slab truncation along lattice direction 001

---------- Setting up 2D ewald sum ----------
Optimum gaussian width for ewald sums = 10.498040 bohr.
Real space sums over 289 unit cells with max indices [  8  8  0  ]
Reciprocal space sums over 81 terms with max indices [  4  4  0  ]

---------- Allocating electronic variables ----------
Initializing wave functions:  linear combination of atomic orbitals
Note: number of bands (6) exceeds available atomic orbitals (5)
Rb pseudo-atom occupations:   s ( 2 1 )  p ( 6 )
[d-17-2-2:59625] 18 more processes have sent help message help-mpi-common-cuda.txt / dlopen failed
[d-17-2-2:59625] Set MCA parameter "orte_base_help_aggregate" to 0 to see all help / error messages
[d-17-2-2:59625] 18 more processes have sent help message help-mpi-btl-openib-cpc-base.txt / no cpcs for port
	FillingsUpdate:  mu: -0.082721842  nElectrons: 9.000000  magneticMoment: [ Abs: 0.74000  Tot: +0.74000 ]
LCAOMinimize: Iter:   0  F: -24.4323581293200434  |grad|_K:  2.580e-06  alpha:  1.000e+00
	FillingsUpdate:  mu: -0.082721270  nElectrons: 9.000000  magneticMoment: [ Abs: 0.74000  Tot: +0.74000 ]
LCAOMinimize: Iter:   1  F: -24.4323581338299931  |grad|_K:  1.350e-08  alpha:  9.903e-01  linmin: -2.762e-03  cgtest:  8.005e-02  t[s]:     15.09
LCAOMinimize: Encountered beta<0, resetting CG.
	FillingsUpdate:  mu: -0.082721271  nElectrons: 9.000000  magneticMoment: [ Abs: 0.74000  Tot: +0.74000 ]
LCAOMinimize: Iter:   2  F: -24.4323581338302773  |grad|_K:  3.727e-09  alpha:  1.274e+00  linmin:  4.287e-02  cgtest: -9.998e-01  t[s]:     19.12
LCAOMinimize: Converged (|Delta F|<1.000000e-06 for 2 iters).


---- Citations for features of the code used in this run ----

   Software package:
      R. Sundararaman, K. Letchworth-Weaver, K.A. Schwarz, D. Gunceler, Y. Ozhabes and T.A. Arias, 'JDFTx: software for joint density-functional theory', SoftwareX 6, 278 (2017)

   gga-PBE exchange-correlation functional:
      J.P. Perdew, K. Burke and M. Ernzerhof, Phys. Rev. Lett. 77, 3865 (1996)

   Pseudopotentials:
      M Schlipf and F Gygi, Comput. Phys. Commun. 196, 36 (2015)

   Truncated Coulomb potentials:
      R. Sundararaman and T.A. Arias, Phys. Rev. B 87, 165122 (2013)

This list may not be complete. Please suggest additional citations or
report any other bugs at https://github.com/shankar1729/jdftx/issues

Initialization completed successfully at t[s]:     19.39


-------- Electronic minimization -----------
Will mix electronic density at each iteration.
	FillingsUpdate:  mu: -0.082721271  nElectrons: 9.000000  magneticMoment: [ Abs: 0.74000  Tot: +0.74000 ]
	FillingsUpdate:  mu: -0.082816605  nElectrons: 9.000000  magneticMoment: [ Abs: 0.74000  Tot: +0.74000 ]
SCF: Cycle:  0   F: -24.432468310419903   dF: -1.102e-04   |Residual|: 1.688e-03   |deigs|: 1.699e-01  t[s]:     27.56
	FillingsUpdate:  mu: -0.082809129  nElectrons: 9.000000  magneticMoment: [ Abs: 0.74396  Tot: +0.74000 ]
SCF: Cycle:  1   F: -24.432470579286655   dF: -2.269e-06   |Residual|: 4.051e-04   |deigs|: 9.407e-03  t[s]:     34.01
	FillingsUpdate:  mu: -0.082782846  nElectrons: 9.000000  magneticMoment: [ Abs: 0.74399  Tot: +0.74000 ]
SCF: Cycle:  2   F: -24.432471131836323   dF: -5.525e-07   |Residual|: 2.358e-04   |deigs|: 1.438e-03  t[s]:     40.57
	FillingsUpdate:  mu: -0.082763447  nElectrons: 9.000000  magneticMoment: [ Abs: 0.74458  Tot: +0.74000 ]
SCF: Cycle:  3   F: -24.432471443343371   dF: -3.115e-07   |Residual|: 1.761e-04   |deigs|: 6.008e-04  t[s]:     47.27
	FillingsUpdate:  mu: -0.082710471  nElectrons: 9.000000  magneticMoment: [ Abs: 0.74454  Tot: +0.74000 ]
SCF: Cycle:  4   F: -24.432471701941967   dF: -2.586e-07   |Residual|: 1.300e-04   |deigs|: 6.500e-04  t[s]:     54.12
	FillingsUpdate:  mu: -0.082636016  nElectrons: 9.000000  magneticMoment: [ Abs: 0.74457  Tot: +0.74000 ]
SCF: Cycle:  5   F: -24.432471821499011   dF: -1.196e-07   |Residual|: 8.764e-05   |deigs|: 7.268e-04  t[s]:     61.04
	FillingsUpdate:  mu: -0.082581263  nElectrons: 9.000000  magneticMoment: [ Abs: 0.74448  Tot: +0.74000 ]
SCF: Cycle:  6   F: -24.432471889318464   dF: -6.782e-08   |Residual|: 6.778e-05   |deigs|: 3.302e-04  t[s]:     68.05
	FillingsUpdate:  mu: -0.082557087  nElectrons: 9.000000  magneticMoment: [ Abs: 0.74451  Tot: +0.74000 ]
SCF: Cycle:  7   F: -24.432471941443257   dF: -5.212e-08   |Residual|: 5.542e-05   |deigs|: 2.449e-04  t[s]:     75.25
	FillingsUpdate:  mu: -0.082531970  nElectrons: 9.000000  magneticMoment: [ Abs: 0.74451  Tot: +0.74000 ]
SCF: Cycle:  8   F: -24.432471984372452   dF: -4.293e-08   |Residual|: 4.773e-05   |deigs|: 1.583e-04  t[s]:     82.49
	FillingsUpdate:  mu: -0.082502731  nElectrons: 9.000000  magneticMoment: [ Abs: 0.74449  Tot: +0.74000 ]
SCF: Cycle:  9   F: -24.432472006475880   dF: -2.210e-08   |Residual|: 3.877e-05   |deigs|: 1.390e-04  t[s]:     89.87
	FillingsUpdate:  mu: -0.082485356  nElectrons: 9.000000  magneticMoment: [ Abs: 0.74453  Tot: +0.74000 ]
SCF: Cycle: 10   F: -24.432471968324364   dF: +3.815e-08   |Residual|: 3.334e-05   |deigs|: 1.530e-04  t[s]:     97.38
	FillingsUpdate:  mu: -0.082456256  nElectrons: 9.000000  magneticMoment: [ Abs: 0.74459  Tot: +0.74000 ]
SCF: Cycle: 11   F: -24.432471866220975   dF: +1.021e-07   |Residual|: 2.914e-05   |deigs|: 1.259e-04  t[s]:    104.88
	FillingsUpdate:  mu: -0.082438387  nElectrons: 9.000000  magneticMoment: [ Abs: 0.74467  Tot: +0.74000 ]
SCF: Cycle: 12   F: -24.432471658702099   dF: +2.075e-07   |Residual|: 2.600e-05   |deigs|: 1.086e-04  t[s]:    112.32
	FillingsUpdate:  mu: -0.082437037  nElectrons: 9.000000  magneticMoment: [ Abs: 0.74466  Tot: +0.74000 ]
SCF: Cycle: 13   F: -24.432471863809486   dF: -2.051e-07   |Residual|: 2.732e-05   |deigs|: 3.339e-05  t[s]:    119.78
	FillingsUpdate:  mu: -0.082389297  nElectrons: 9.000000  magneticMoment: [ Abs: 0.74472  Tot: +0.74000 ]
SCF: Cycle: 14   F: -24.432472021676894   dF: -1.579e-07   |Residual|: 2.165e-05   |deigs|: 5.506e-05  t[s]:    126.96
	FillingsUpdate:  mu: -0.082333974  nElectrons: 9.000000  magneticMoment: [ Abs: 0.74471  Tot: +0.74000 ]
SCF: Cycle: 15   F: -24.432471827986586   dF: +1.937e-07   |Residual|: 2.236e-05   |deigs|: 6.476e-05  t[s]:    134.39
	FillingsUpdate:  mu: -0.082311443  nElectrons: 9.000000  magneticMoment: [ Abs: 0.74459  Tot: +0.74000 ]
SCF: Cycle: 16   F: -24.432471967693644   dF: -1.397e-07   |Residual|: 1.779e-05   |deigs|: 2.766e-05  t[s]:    141.62
	FillingsUpdate:  mu: -0.082298639  nElectrons: 9.000000  magneticMoment: [ Abs: 0.74457  Tot: +0.74000 ]
SCF: Cycle: 17   F: -24.432471983080163   dF: -1.539e-08   |Residual|: 1.102e-05   |deigs|: 2.053e-05  t[s]:    148.96
	FillingsUpdate:  mu: -0.082290176  nElectrons: 9.000000  magneticMoment: [ Abs: 0.74454  Tot: +0.74000 ]
SCF: Cycle: 18   F: -24.432472034459387   dF: -5.138e-08   |Residual|: 7.135e-06   |deigs|: 1.392e-05  t[s]:    156.41
	FillingsUpdate:  mu: -0.082281564  nElectrons: 9.000000  magneticMoment: [ Abs: 0.74451  Tot: +0.74000 ]
SCF: Cycle: 19   F: -24.432472080412051   dF: -4.595e-08   |Residual|: 3.939e-06   |deigs|: 1.548e-05  t[s]:    163.40
	FillingsUpdate:  mu: -0.082280012  nElectrons: 9.000000  magneticMoment: [ Abs: 0.74451  Tot: +0.74000 ]
SCF: Cycle: 20   F: -24.432472092372034   dF: -1.196e-08   |Residual|: 2.687e-06   |deigs|: 1.778e-05  t[s]:    170.16
	FillingsUpdate:  mu: -0.082281191  nElectrons: 9.000000  magneticMoment: [ Abs: 0.74451  Tot: +0.74000 ]
SCF: Cycle: 21   F: -24.432472095579328   dF: -3.207e-09   |Residual|: 1.824e-06   |deigs|: 2.487e-05  t[s]:    177.50
	FillingsUpdate:  mu: -0.082281471  nElectrons: 9.000000  magneticMoment: [ Abs: 0.74450  Tot: +0.74000 ]
SCF: Cycle: 22   F: -24.432472098937019   dF: -3.358e-09   |Residual|: 1.337e-06   |deigs|: 3.054e-05  t[s]:    184.77
SCF: Converged (|Delta E|<1.000000e-08 for 2 iters).


# Ionic positions in lattice coordinates:
ion Rb   0.000000000000000   0.000000000000000   0.000000000000000 0

# Forces in Lattice coordinates:
force Rb   0.000000000000000  -0.000000000000000   0.000000000000000 0

# Energy components:
   Eewald =       -9.0240130501663280
       EH =       10.5415398590227110
     Eloc =      -28.4671468312630935
      Enl =       -0.7924087747199028
   Epulay =        0.0000000056959385
      Exc =       -3.6523749927043152
       KE =        6.9619319797483303
-------------------------------------
     Etot =      -24.4324718043866653
       TS =        0.0000002945503538
-------------------------------------
        F =      -24.4324720989370192

IonicMinimize: Iter:   0  F: -24.432472098937019  |grad|_K:  0.000e+00  t[s]:    185.18
IonicMinimize: Converged (|grad|_K<1.000000e-04).

#--- Lowdin population analysis ---
# oxidation-state Rb +0.001
# magnetic-moments Rb +0.739

End date and time: Sun Feb  6 13:00:21 2022  (Duration: 0-0:03:05.24)
Done!
