The alkali metal is Rb
scale=2
magnetization=-0.18
--------------------------------------------------------------------------
The library attempted to open the following supporting CUDA libraries,
but each of them failed.  CUDA-aware support is disabled.
libcuda.so.1: cannot open shared object file: No such file or directory
libcuda.dylib: cannot open shared object file: No such file or directory
/usr/lib64/libcuda.so.1: cannot open shared object file: No such file or directory
/usr/lib64/libcuda.dylib: cannot open shared object file: No such file or directory
If you are not interested in CUDA-aware support, then run with
--mca opal_warn_on_missing_libcuda 0 to suppress this message.  If you are interested
in CUDA-aware support, then try setting LD_LIBRARY_PATH to the location
of libcuda.so.1 to get passed this issue.
--------------------------------------------------------------------------
--------------------------------------------------------------------------
No OpenFabrics connection schemes reported that they were able to be
used on a specific port.  As such, the openib BTL (OpenFabrics
support) will be disabled for this port.

  Local host:           d-18-7-1
  Local device:         mlx5_1
  Local port:           1
  CPCs attempted:       rdmacm, udcm
--------------------------------------------------------------------------

*************** JDFTx 1.6.0 (git hash 42ebbcc2) ***************

Start date and time: Sun Feb  6 12:41:28 2022
Executable jdftx with command-line: -i Alkali.in
Running on hosts (process indices):  d-18-7-1 (0-18)
Divided in process groups (process indices):  0 (0)  1 (1)  2 (2)  3 (3)  4 (4)  5 (5)  6 (6)  7 (7)  8 (8)  9 (9)  10 (10)  11 (11)  12 (12)  13 (13)  14 (14)  15 (15)  16 (16)  17 (17)  18 (18)
Resource initialization completed at t[s]:      0.00
Run totals: 19 processes, 48 threads, 0 GPUs


Input parsed successfully to the following command list (including defaults):

basis kpoint-dependent
coords-type Lattice
core-overlap-check vector
coulomb-interaction Slab 001
davidson-band-ratio 1.1
dump End None
dump-name $INPUT.$VAR
elec-cutoff 20
elec-eigen-algo Davidson
elec-ex-corr gga-PBE
elec-initial-magnetization -0.180000 yes
elec-smearing Fermi 1e-05
electronic-minimize  \
	dirUpdateScheme      FletcherReeves \
	linminMethod         DirUpdateRecommended \
	nIterations          100 \
	history              15 \
	knormThreshold       0 \
	energyDiffThreshold  1e-08 \
	nEnergyDiff          2 \
	alphaTstart          1 \
	alphaTmin            1e-10 \
	updateTestStepSize   yes \
	alphaTreduceFactor   0.1 \
	alphaTincreaseFactor 3 \
	nAlphaAdjustMax      3 \
	wolfeEnergy          0.0001 \
	wolfeGradient        0.9 \
	fdTest               no
electronic-scf  \
	nIterations	10000 \
	energyDiffThreshold	1e-08 \
	residualThreshold	1e-07 \
	mixFraction	0.5 \
	qMetric	0.8 \
	history	10 \
	nEigSteps	2 \
	eigDiffThreshold	1e-08 \
	mixedVariable	Density \
	qKerker	0.8 \
	qKappa	-1 \
	verbose	no \
	mixFractionMag	1.5
exchange-regularization WignerSeitzTruncated
fluid None
fluid-ex-corr (null) lda-PZ
fluid-gummel-loop 10 1.000000e-05
fluid-minimize  \
	dirUpdateScheme      PolakRibiere \
	linminMethod         DirUpdateRecommended \
	nIterations          100 \
	history              15 \
	knormThreshold       0 \
	energyDiffThreshold  0 \
	nEnergyDiff          2 \
	alphaTstart          1 \
	alphaTmin            1e-10 \
	updateTestStepSize   yes \
	alphaTreduceFactor   0.1 \
	alphaTincreaseFactor 3 \
	nAlphaAdjustMax      3 \
	wolfeEnergy          0.0001 \
	wolfeGradient        0.9 \
	fdTest               no
fluid-solvent H2O 55.338 ScalarEOS \
	epsBulk 78.4 \
	pMol 0.92466 \
	epsInf 1.77 \
	Pvap 1.06736e-10 \
	sigmaBulk 4.62e-05 \
	Rvdw 2.61727 \
	Res 1.42 \
	tauNuc 343133 \
	poleEl 15 7 1
forces-output-coords Positions
ion Rb   0.000000000000000   0.000000000000000   0.000000000000000 0
ion-species SG15/$ID_ONCV_PBE.upf
ion-width 0
ionic-minimize  \
	dirUpdateScheme      L-BFGS \
	linminMethod         DirUpdateRecommended \
	nIterations          0 \
	history              15 \
	knormThreshold       0.0001 \
	energyDiffThreshold  1e-06 \
	nEnergyDiff          2 \
	alphaTstart          1 \
	alphaTmin            1e-10 \
	updateTestStepSize   yes \
	alphaTreduceFactor   0.1 \
	alphaTincreaseFactor 3 \
	nAlphaAdjustMax      3 \
	wolfeEnergy          0.0001 \
	wolfeGradient        0.9 \
	fdTest               no
kpoint   0.000000000000   0.000000000000   0.000000000000  1.00000000000000
kpoint-folding 12 12 1 
latt-move-scale 1 1 1
latt-scale 2 2 1 
lattice  \
	   4.727486978767153   -2.363743489383575    0.000000000000000  \
	  -0.000000000000000    4.094123819672498    0.000000000000000  \
	   0.000000000000000    0.000000000000000   40.000000000000000 
lattice-minimize  \
	dirUpdateScheme      L-BFGS \
	linminMethod         DirUpdateRecommended \
	nIterations          0 \
	history              15 \
	knormThreshold       0 \
	energyDiffThreshold  1e-06 \
	nEnergyDiff          2 \
	alphaTstart          1 \
	alphaTmin            1e-10 \
	updateTestStepSize   yes \
	alphaTreduceFactor   0.1 \
	alphaTincreaseFactor 3 \
	nAlphaAdjustMax      3 \
	wolfeEnergy          0.0001 \
	wolfeGradient        0.9 \
	fdTest               no
lcao-params -1 1e-06 1e-05
pcm-variant GLSSA13
spintype z-spin
subspace-rotation-factor 1 yes
symmetries automatic
symmetry-threshold 0.0001



---------- Setting up symmetries ----------

Found 24 point-group symmetries of the bravais lattice
Found 24 space-group symmetries with basis
Applied RMS atom displacement 0 bohrs to make symmetries exact.

---------- Initializing the Grid ----------
R = 
[      9.45497     -4.72749            0  ]
[            0      8.18825            0  ]
[            0            0           40  ]
unit cell volume = 3096.79
G =
[   0.664538   0.383671         -0  ]
[          0   0.767342         -0  ]
[         -0         -0    0.15708  ]
Minimum fftbox size, Smin = [  40  40  164  ]
Chosen fftbox size, S = [  40  40  168  ]

---------- Exchange Correlation functional ----------
Initalized PBE GGA exchange.
Initalized PBE GGA correlation.

---------- Setting up pseudopotentials ----------
Width of ionic core gaussian charges (only for fluid interactions / plotting) set to 0

Reading pseudopotential file '/home/gridsan/aligho/DFT/build-Nov24/pseudopotentials/SG15/Rb_ONCV_PBE.upf':
  'Rb' pseudopotential, 'PBE' functional
  Generated using ONCVPSP code by D. R. Hamann
  Author: Martin Schlipf and Francois Gygi  Date: 150915.
  9 valence electrons, 3 orbitals, 6 projectors, 2308 radial grid points, with lMax = 2
  Transforming local potential to a uniform radial grid of dG=0.02 with 1489 points.
  Transforming nonlocal projectors to a uniform radial grid of dG=0.02 with 432 points.
    4S    l: 0   occupation:  2.0   eigenvalue: -1.172069
    4P    l: 1   occupation:  6.0   eigenvalue: -0.586674
    5S    l: 0   occupation:  1.0   eigenvalue: -0.082006
  Transforming atomic orbitals to a uniform radial grid of dG=0.02 with 432 points.
  Core radius for overlap checks: 2.60 bohrs.
  Reading pulay file /home/gridsan/aligho/DFT/build-Nov24/pseudopotentials/SG15/Rb_ONCV_PBE.pulay ... using dE_dnG = -1.360715e-05 computed for Ecut = 20.

Initialized 1 species with 1 total atoms.

Folded 1 k-points by 12x12x1 to 144 k-points.

---------- Setting up k-points, bands, fillings ----------
Reduced to 19 k-points under symmetry. 
Computing the number of bands and number of electrons
Calculating initial fillings.
nElectrons:   9.000000   nBands: 6   nStates: 38

----- Setting up reduced wavefunction bases (one per k-point) -----
average nbasis = 13230.521 , ideal nbasis = 13229.709

---------- Setting up coulomb interaction ----------
Initialized slab truncation along lattice direction 001

---------- Setting up 2D ewald sum ----------
Optimum gaussian width for ewald sums = 5.249020 bohr.
Real space sums over 289 unit cells with max indices [  8  8  0  ]
Reciprocal space sums over 81 terms with max indices [  4  4  0  ]

---------- Allocating electronic variables ----------
Initializing wave functions:  linear combination of atomic orbitals
Note: number of bands (6) exceeds available atomic orbitals (5)
Rb pseudo-atom occupations:   s ( 2 1 )  p ( 6 )
	FillingsUpdate:  mu: -0.098733829  nElectrons: 9.000000  magneticMoment: [ Abs: 0.18000  Tot: -0.18000 ]
LCAOMinimize: Iter:   0  F: -24.4501043764956236  |grad|_K:  4.307e-05  alpha:  1.000e+00
	FillingsUpdate:  mu: -0.098718384  nElectrons: 9.000000  magneticMoment: [ Abs: 0.18000  Tot: -0.18000 ]
LCAOMinimize: Iter:   1  F: -24.4501056140179145  |grad|_K:  4.511e-07  alpha:  9.755e-01  linmin: -4.043e-02  cgtest:  4.864e-01  t[s]:      4.80
LCAOMinimize: Encountered beta<0, resetting CG.
[d-18-7-1:56429] 18 more processes have sent help message help-mpi-common-cuda.txt / dlopen failed
[d-18-7-1:56429] Set MCA parameter "orte_base_help_aggregate" to 0 to see all help / error messages
[d-18-7-1:56429] 18 more processes have sent help message help-mpi-btl-openib-cpc-base.txt / no cpcs for port
	FillingsUpdate:  mu: -0.098718419  nElectrons: 9.000000  magneticMoment: [ Abs: 0.18000  Tot: -0.18000 ]
LCAOMinimize: Iter:   2  F: -24.4501056141572235  |grad|_K:  9.078e-10  alpha:  1.001e+00  linmin:  7.149e-03  cgtest: -3.771e-02  t[s]:      6.05
LCAOMinimize: 	Step increased F by 7.460699e-14, reducing alpha to 3.870409e-04.
LCAOMinimize: 	Step increased F by 1.669775e-13, reducing alpha to 3.870409e-05.
LCAOMinimize: 	Step increased F by 6.750156e-14, reducing alpha to 3.870409e-06.
LCAOMinimize: 	Step failed to reduce F after 3 attempts. Quitting step.
LCAOMinimize: 	Undoing step.
LCAOMinimize: 	Step failed: resetting search direction.
	FillingsUpdate:  mu: -0.098718419  nElectrons: 9.000000  magneticMoment: [ Abs: 0.18000  Tot: -0.18000 ]
LCAOMinimize: Iter:   3  F: -24.4501056141572235  |grad|_K:  9.077e-10  alpha:  3.870e-06
LCAOMinimize: 	Step increased F by 1.065814e-13, reducing alpha to 5.479715e-04.
	FillingsUpdate:  mu: -0.098718419  nElectrons: 9.000000  magneticMoment: [ Abs: 0.18000  Tot: -0.18000 ]
LCAOMinimize: Iter:   4  F: -24.4501056141573940  |grad|_K:  9.072e-10  alpha:  5.480e-04  linmin: -3.967e-02  cgtest:  1.000e+00  t[s]:     11.35
LCAOMinimize: Encountered beta<0, resetting CG.
LCAOMinimize: 	Step increased F by 9.237056e-14, reducing alpha to 8.651095e-11.
LCAOMinimize: 	Step increased F by 7.105427e-14, reducing alpha to 8.651095e-12.
LCAOMinimize: 	Step increased F by 6.039613e-14, reducing alpha to 8.651095e-13.
LCAOMinimize: 	Step failed to reduce F after 3 attempts. Quitting step.
LCAOMinimize: 	Undoing step.
LCAOMinimize: 	Step failed along negative gradient direction.
LCAOMinimize: Probably at roundoff error limit. (Stopping)


---- Citations for features of the code used in this run ----

   Software package:
      R. Sundararaman, K. Letchworth-Weaver, K.A. Schwarz, D. Gunceler, Y. Ozhabes and T.A. Arias, 'JDFTx: software for joint density-functional theory', SoftwareX 6, 278 (2017)

   gga-PBE exchange-correlation functional:
      J.P. Perdew, K. Burke and M. Ernzerhof, Phys. Rev. Lett. 77, 3865 (1996)

   Pseudopotentials:
      M Schlipf and F Gygi, Comput. Phys. Commun. 196, 36 (2015)

   Truncated Coulomb potentials:
      R. Sundararaman and T.A. Arias, Phys. Rev. B 87, 165122 (2013)

This list may not be complete. Please suggest additional citations or
report any other bugs at https://github.com/shankar1729/jdftx/issues

Initialization completed successfully at t[s]:     14.82


-------- Electronic minimization -----------
Will mix electronic density at each iteration.
	FillingsUpdate:  mu: -0.098718419  nElectrons: 9.000000  magneticMoment: [ Abs: 0.18000  Tot: -0.18000 ]
	FillingsUpdate:  mu: -0.106606679  nElectrons: 9.000000  magneticMoment: [ Abs: 0.18000  Tot: -0.18000 ]
SCF: Cycle:  0   F: -24.454411291451144   dF: -4.306e-03   |Residual|: 8.821e-03   |deigs|: 1.791e-01  t[s]:     17.41
	FillingsUpdate:  mu: -0.106367414  nElectrons: 9.000000  magneticMoment: [ Abs: 0.18000  Tot: -0.18000 ]
SCF: Cycle:  1   F: -24.454570647688030   dF: -1.594e-04   |Residual|: 6.952e-03   |deigs|: 6.603e-03  t[s]:     19.29
	FillingsUpdate:  mu: -0.104258517  nElectrons: 9.000000  magneticMoment: [ Abs: 0.18348  Tot: -0.18000 ]
SCF: Cycle:  2   F: -24.454662540530446   dF: -9.189e-05   |Residual|: 3.128e-03   |deigs|: 2.601e-03  t[s]:     21.21
	FillingsUpdate:  mu: -0.103251761  nElectrons: 9.000000  magneticMoment: [ Abs: 0.18001  Tot: -0.18000 ]
SCF: Cycle:  3   F: -24.454712070984588   dF: -4.953e-05   |Residual|: 2.135e-03   |deigs|: 2.950e-03  t[s]:     23.22
	FillingsUpdate:  mu: -0.101683957  nElectrons: 9.000000  magneticMoment: [ Abs: 0.18004  Tot: -0.18000 ]
SCF: Cycle:  4   F: -24.454738617242597   dF: -2.655e-05   |Residual|: 1.848e-03   |deigs|: 4.403e-03  t[s]:     25.21
	FillingsUpdate:  mu: -0.099890599  nElectrons: 9.000000  magneticMoment: [ Abs: 0.18225  Tot: -0.18000 ]
SCF: Cycle:  5   F: -24.454752135879808   dF: -1.352e-05   |Residual|: 1.337e-03   |deigs|: 2.632e-03  t[s]:     27.22
	FillingsUpdate:  mu: -0.097804969  nElectrons: 9.000000  magneticMoment: [ Abs: 0.18395  Tot: -0.18000 ]
SCF: Cycle:  6   F: -24.454756634583461   dF: -4.499e-06   |Residual|: 1.012e-03   |deigs|: 2.612e-03  t[s]:     29.26
	FillingsUpdate:  mu: -0.096862371  nElectrons: 9.000000  magneticMoment: [ Abs: 0.18254  Tot: -0.18000 ]
SCF: Cycle:  7   F: -24.454773405916477   dF: -1.677e-05   |Residual|: 8.986e-04   |deigs|: 1.018e-03  t[s]:     31.31
	FillingsUpdate:  mu: -0.096425073  nElectrons: 9.000000  magneticMoment: [ Abs: 0.18093  Tot: -0.18000 ]
SCF: Cycle:  8   F: -24.454781268564972   dF: -7.863e-06   |Residual|: 7.643e-04   |deigs|: 3.472e-04  t[s]:     33.47
	FillingsUpdate:  mu: -0.094904902  nElectrons: 9.000000  magneticMoment: [ Abs: 0.18202  Tot: -0.18000 ]
SCF: Cycle:  9   F: -24.454776156737331   dF: +5.112e-06   |Residual|: 6.338e-04   |deigs|: 1.646e-03  t[s]:     35.65
	FillingsUpdate:  mu: -0.093454499  nElectrons: 9.000000  magneticMoment: [ Abs: 0.18227  Tot: -0.18000 ]
SCF: Cycle: 10   F: -24.454774695678001   dF: +1.461e-06   |Residual|: 5.754e-04   |deigs|: 1.602e-03  t[s]:     37.81
	FillingsUpdate:  mu: -0.092458225  nElectrons: 9.000000  magneticMoment: [ Abs: 0.18146  Tot: -0.18000 ]
SCF: Cycle: 11   F: -24.454785283217255   dF: -1.059e-05   |Residual|: 4.901e-04   |deigs|: 1.045e-03  t[s]:     39.96
	FillingsUpdate:  mu: -0.091274532  nElectrons: 9.000000  magneticMoment: [ Abs: 0.18154  Tot: -0.18000 ]
SCF: Cycle: 12   F: -24.454796024847091   dF: -1.074e-05   |Residual|: 4.817e-04   |deigs|: 1.121e-03  t[s]:     42.10
	FillingsUpdate:  mu: -0.089810927  nElectrons: 9.000000  magneticMoment: [ Abs: 0.18096  Tot: -0.18000 ]
SCF: Cycle: 13   F: -24.454800034295562   dF: -4.009e-06   |Residual|: 4.251e-04   |deigs|: 1.553e-03  t[s]:     44.14
	FillingsUpdate:  mu: -0.088659326  nElectrons: 9.000000  magneticMoment: [ Abs: 0.18049  Tot: -0.18000 ]
SCF: Cycle: 14   F: -24.454803574524878   dF: -3.540e-06   |Residual|: 3.556e-04   |deigs|: 1.225e-03  t[s]:     46.27
	FillingsUpdate:  mu: -0.088325046  nElectrons: 9.000000  magneticMoment: [ Abs: 0.18073  Tot: -0.18000 ]
SCF: Cycle: 15   F: -24.454805659324730   dF: -2.085e-06   |Residual|: 2.465e-04   |deigs|: 3.587e-04  t[s]:     48.35
	FillingsUpdate:  mu: -0.087930518  nElectrons: 9.000000  magneticMoment: [ Abs: 0.18050  Tot: -0.18000 ]
SCF: Cycle: 16   F: -24.454806669196362   dF: -1.010e-06   |Residual|: 1.523e-04   |deigs|: 4.573e-04  t[s]:     50.46
	FillingsUpdate:  mu: -0.087803394  nElectrons: 9.000000  magneticMoment: [ Abs: 0.18019  Tot: -0.18000 ]
SCF: Cycle: 17   F: -24.454807008280628   dF: -3.391e-07   |Residual|: 8.587e-05   |deigs|: 4.030e-04  t[s]:     52.56
	FillingsUpdate:  mu: -0.087847459  nElectrons: 9.000000  magneticMoment: [ Abs: 0.18019  Tot: -0.18000 ]
SCF: Cycle: 18   F: -24.454807085320876   dF: -7.704e-08   |Residual|: 5.260e-05   |deigs|: 5.470e-04  t[s]:     54.67
	FillingsUpdate:  mu: -0.087844747  nElectrons: 9.000000  magneticMoment: [ Abs: 0.18008  Tot: -0.18000 ]
SCF: Cycle: 19   F: -24.454807128296444   dF: -4.298e-08   |Residual|: 2.893e-05   |deigs|: 2.593e-04  t[s]:     56.80
	FillingsUpdate:  mu: -0.087851702  nElectrons: 9.000000  magneticMoment: [ Abs: 0.18004  Tot: -0.18000 ]
SCF: Cycle: 20   F: -24.454807145093820   dF: -1.680e-08   |Residual|: 1.619e-05   |deigs|: 1.813e-04  t[s]:     58.99
	FillingsUpdate:  mu: -0.087832275  nElectrons: 9.000000  magneticMoment: [ Abs: 0.18006  Tot: -0.18000 ]
SCF: Cycle: 21   F: -24.454807153381942   dF: -8.288e-09   |Residual|: 7.739e-06   |deigs|: 1.832e-04  t[s]:     61.22
	FillingsUpdate:  mu: -0.087829073  nElectrons: 9.000000  magneticMoment: [ Abs: 0.18007  Tot: -0.18000 ]
SCF: Cycle: 22   F: -24.454807155727597   dF: -2.346e-09   |Residual|: 4.052e-06   |deigs|: 1.759e-04  t[s]:     63.29
SCF: Converged (|Delta E|<1.000000e-08 for 2 iters).


# Ionic positions in lattice coordinates:
ion Rb   0.000000000000000   0.000000000000000   0.000000000000000 0

# Forces in Lattice coordinates:
force Rb  -0.000000000000000  -0.000000000000000   0.000000000000000 0

# Energy components:
   Eewald =      -18.0480261003326561
       EH =        1.6459896055649776
     Eloc =      -10.5575534929849617
      Enl =       -0.7957391843006361
   Epulay =        0.0000000035676145
      Exc =       -3.6759925017080901
       KE =        6.9765147963301608
-------------------------------------
     Etot =      -24.4548068738635926
       TS =        0.0000002818640035
-------------------------------------
        F =      -24.4548071557275968

IonicMinimize: Iter:   0  F: -24.454807155727597  |grad|_K:  0.000e+00  t[s]:     63.41
IonicMinimize: Converged (|grad|_K<1.000000e-04).

#--- Lowdin population analysis ---
# oxidation-state Rb +0.035
# magnetic-moments Rb -0.164

End date and time: Sun Feb  6 12:42:32 2022  (Duration: 0-0:01:03.43)
Done!
scale=3
magnetization=-0.18
--------------------------------------------------------------------------
The library attempted to open the following supporting CUDA libraries,
but each of them failed.  CUDA-aware support is disabled.
libcuda.so.1: cannot open shared object file: No such file or directory
libcuda.dylib: cannot open shared object file: No such file or directory
/usr/lib64/libcuda.so.1: cannot open shared object file: No such file or directory
/usr/lib64/libcuda.dylib: cannot open shared object file: No such file or directory
If you are not interested in CUDA-aware support, then run with
--mca opal_warn_on_missing_libcuda 0 to suppress this message.  If you are interested
in CUDA-aware support, then try setting LD_LIBRARY_PATH to the location
of libcuda.so.1 to get passed this issue.
--------------------------------------------------------------------------
--------------------------------------------------------------------------
No OpenFabrics connection schemes reported that they were able to be
used on a specific port.  As such, the openib BTL (OpenFabrics
support) will be disabled for this port.

  Local host:           d-18-7-1
  Local device:         mlx5_1
  Local port:           1
  CPCs attempted:       rdmacm, udcm
--------------------------------------------------------------------------

*************** JDFTx 1.6.0 (git hash 42ebbcc2) ***************

Start date and time: Sun Feb  6 12:42:33 2022
Executable jdftx with command-line: -i Alkali.in
Running on hosts (process indices):  d-18-7-1 (0-18)
Divided in process groups (process indices):  0 (0)  1 (1)  2 (2)  3 (3)  4 (4)  5 (5)  6 (6)  7 (7)  8 (8)  9 (9)  10 (10)  11 (11)  12 (12)  13 (13)  14 (14)  15 (15)  16 (16)  17 (17)  18 (18)
Resource initialization completed at t[s]:      0.00
Run totals: 19 processes, 48 threads, 0 GPUs


Input parsed successfully to the following command list (including defaults):

basis kpoint-dependent
coords-type Lattice
core-overlap-check vector
coulomb-interaction Slab 001
davidson-band-ratio 1.1
dump End None
dump-name $INPUT.$VAR
elec-cutoff 20
elec-eigen-algo Davidson
elec-ex-corr gga-PBE
elec-initial-magnetization -0.180000 yes
elec-smearing Fermi 1e-05
electronic-minimize  \
	dirUpdateScheme      FletcherReeves \
	linminMethod         DirUpdateRecommended \
	nIterations          100 \
	history              15 \
	knormThreshold       0 \
	energyDiffThreshold  1e-08 \
	nEnergyDiff          2 \
	alphaTstart          1 \
	alphaTmin            1e-10 \
	updateTestStepSize   yes \
	alphaTreduceFactor   0.1 \
	alphaTincreaseFactor 3 \
	nAlphaAdjustMax      3 \
	wolfeEnergy          0.0001 \
	wolfeGradient        0.9 \
	fdTest               no
electronic-scf  \
	nIterations	10000 \
	energyDiffThreshold	1e-08 \
	residualThreshold	1e-07 \
	mixFraction	0.5 \
	qMetric	0.8 \
	history	10 \
	nEigSteps	2 \
	eigDiffThreshold	1e-08 \
	mixedVariable	Density \
	qKerker	0.8 \
	qKappa	-1 \
	verbose	no \
	mixFractionMag	1.5
exchange-regularization WignerSeitzTruncated
fluid None
fluid-ex-corr (null) lda-PZ
fluid-gummel-loop 10 1.000000e-05
fluid-minimize  \
	dirUpdateScheme      PolakRibiere \
	linminMethod         DirUpdateRecommended \
	nIterations          100 \
	history              15 \
	knormThreshold       0 \
	energyDiffThreshold  0 \
	nEnergyDiff          2 \
	alphaTstart          1 \
	alphaTmin            1e-10 \
	updateTestStepSize   yes \
	alphaTreduceFactor   0.1 \
	alphaTincreaseFactor 3 \
	nAlphaAdjustMax      3 \
	wolfeEnergy          0.0001 \
	wolfeGradient        0.9 \
	fdTest               no
fluid-solvent H2O 55.338 ScalarEOS \
	epsBulk 78.4 \
	pMol 0.92466 \
	epsInf 1.77 \
	Pvap 1.06736e-10 \
	sigmaBulk 4.62e-05 \
	Rvdw 2.61727 \
	Res 1.42 \
	tauNuc 343133 \
	poleEl 15 7 1
forces-output-coords Positions
ion Rb   0.000000000000000   0.000000000000000   0.000000000000000 0
ion-species SG15/$ID_ONCV_PBE.upf
ion-width 0
ionic-minimize  \
	dirUpdateScheme      L-BFGS \
	linminMethod         DirUpdateRecommended \
	nIterations          0 \
	history              15 \
	knormThreshold       0.0001 \
	energyDiffThreshold  1e-06 \
	nEnergyDiff          2 \
	alphaTstart          1 \
	alphaTmin            1e-10 \
	updateTestStepSize   yes \
	alphaTreduceFactor   0.1 \
	alphaTincreaseFactor 3 \
	nAlphaAdjustMax      3 \
	wolfeEnergy          0.0001 \
	wolfeGradient        0.9 \
	fdTest               no
kpoint   0.000000000000   0.000000000000   0.000000000000  1.00000000000000
kpoint-folding 12 12 1 
latt-move-scale 1 1 1
latt-scale 3 3 1 
lattice  \
	   4.727486978767153   -2.363743489383575    0.000000000000000  \
	  -0.000000000000000    4.094123819672498    0.000000000000000  \
	   0.000000000000000    0.000000000000000   40.000000000000000 
lattice-minimize  \
	dirUpdateScheme      L-BFGS \
	linminMethod         DirUpdateRecommended \
	nIterations          0 \
	history              15 \
	knormThreshold       0 \
	energyDiffThreshold  1e-06 \
	nEnergyDiff          2 \
	alphaTstart          1 \
	alphaTmin            1e-10 \
	updateTestStepSize   yes \
	alphaTreduceFactor   0.1 \
	alphaTincreaseFactor 3 \
	nAlphaAdjustMax      3 \
	wolfeEnergy          0.0001 \
	wolfeGradient        0.9 \
	fdTest               no
lcao-params -1 1e-06 1e-05
pcm-variant GLSSA13
spintype z-spin
subspace-rotation-factor 1 yes
symmetries automatic
symmetry-threshold 0.0001



---------- Setting up symmetries ----------

Found 24 point-group symmetries of the bravais lattice
Found 24 space-group symmetries with basis
Applied RMS atom displacement 0 bohrs to make symmetries exact.

---------- Initializing the Grid ----------
R = 
[      14.1825     -7.09123            0  ]
[            0      12.2824            0  ]
[            0            0           40  ]
unit cell volume = 6967.77
G =
[   0.443025   0.255781         -0  ]
[          0   0.511561         -0  ]
[         -0         -0    0.15708  ]
Minimum fftbox size, Smin = [  60  60  164  ]
Chosen fftbox size, S = [  60  60  168  ]

---------- Exchange Correlation functional ----------
Initalized PBE GGA exchange.
Initalized PBE GGA correlation.

---------- Setting up pseudopotentials ----------
Width of ionic core gaussian charges (only for fluid interactions / plotting) set to 0

Reading pseudopotential file '/home/gridsan/aligho/DFT/build-Nov24/pseudopotentials/SG15/Rb_ONCV_PBE.upf':
  'Rb' pseudopotential, 'PBE' functional
  Generated using ONCVPSP code by D. R. Hamann
  Author: Martin Schlipf and Francois Gygi  Date: 150915.
  9 valence electrons, 3 orbitals, 6 projectors, 2308 radial grid points, with lMax = 2
  Transforming local potential to a uniform radial grid of dG=0.02 with 1489 points.
  Transforming nonlocal projectors to a uniform radial grid of dG=0.02 with 432 points.
    4S    l: 0   occupation:  2.0   eigenvalue: -1.172069
    4P    l: 1   occupation:  6.0   eigenvalue: -0.586674
    5S    l: 0   occupation:  1.0   eigenvalue: -0.082006
  Transforming atomic orbitals to a uniform radial grid of dG=0.02 with 432 points.
  Core radius for overlap checks: 2.60 bohrs.
  Reading pulay file /home/gridsan/aligho/DFT/build-Nov24/pseudopotentials/SG15/Rb_ONCV_PBE.pulay ... using dE_dnG = -1.360715e-05 computed for Ecut = 20.

Initialized 1 species with 1 total atoms.

Folded 1 k-points by 12x12x1 to 144 k-points.

---------- Setting up k-points, bands, fillings ----------
Reduced to 19 k-points under symmetry. 
Computing the number of bands and number of electrons
Calculating initial fillings.
nElectrons:   9.000000   nBands: 6   nStates: 38

----- Setting up reduced wavefunction bases (one per k-point) -----
average nbasis = 29766.104 , ideal nbasis = 29766.845

---------- Setting up coulomb interaction ----------
Initialized slab truncation along lattice direction 001

---------- Setting up 2D ewald sum ----------
Optimum gaussian width for ewald sums = 7.873530 bohr.
Real space sums over 289 unit cells with max indices [  8  8  0  ]
Reciprocal space sums over 81 terms with max indices [  4  4  0  ]

---------- Allocating electronic variables ----------
Initializing wave functions:  linear combination of atomic orbitals
Note: number of bands (6) exceeds available atomic orbitals (5)
Rb pseudo-atom occupations:   s ( 2 1 )  p ( 6 )
[d-18-7-1:91870] 18 more processes have sent help message help-mpi-common-cuda.txt / dlopen failed
[d-18-7-1:91870] Set MCA parameter "orte_base_help_aggregate" to 0 to see all help / error messages
[d-18-7-1:91870] 18 more processes have sent help message help-mpi-btl-openib-cpc-base.txt / no cpcs for port
	FillingsUpdate:  mu: -0.084716740  nElectrons: 9.000000  magneticMoment: [ Abs: 0.18000  Tot: -0.18000 ]
LCAOMinimize: Iter:   0  F: -24.4368427069552894  |grad|_K:  2.199e-05  alpha:  1.000e+00
	FillingsUpdate:  mu: -0.084712029  nElectrons: 9.000000  magneticMoment: [ Abs: 0.18000  Tot: -0.18000 ]
LCAOMinimize: Iter:   1  F: -24.4368430328437825  |grad|_K:  1.792e-07  alpha:  9.855e-01  linmin: -1.886e-02  cgtest:  4.780e-01  t[s]:      8.98
LCAOMinimize: Encountered beta<0, resetting CG.
	FillingsUpdate:  mu: -0.084712026  nElectrons: 9.000000  magneticMoment: [ Abs: 0.18000  Tot: -0.18000 ]
LCAOMinimize: Iter:   2  F: -24.4368430328654078  |grad|_K:  2.854e-09  alpha:  9.849e-01  linmin: -4.781e-02  cgtest:  9.973e-01  t[s]:     11.41
LCAOMinimize: Encountered beta<0, resetting CG.
LCAOMinimize: Converged (|Delta F|<1.000000e-06 for 2 iters).


---- Citations for features of the code used in this run ----

   Software package:
      R. Sundararaman, K. Letchworth-Weaver, K.A. Schwarz, D. Gunceler, Y. Ozhabes and T.A. Arias, 'JDFTx: software for joint density-functional theory', SoftwareX 6, 278 (2017)

   gga-PBE exchange-correlation functional:
      J.P. Perdew, K. Burke and M. Ernzerhof, Phys. Rev. Lett. 77, 3865 (1996)

   Pseudopotentials:
      M Schlipf and F Gygi, Comput. Phys. Commun. 196, 36 (2015)

   Truncated Coulomb potentials:
      R. Sundararaman and T.A. Arias, Phys. Rev. B 87, 165122 (2013)

This list may not be complete. Please suggest additional citations or
report any other bugs at https://github.com/shankar1729/jdftx/issues

Initialization completed successfully at t[s]:     11.58


-------- Electronic minimization -----------
Will mix electronic density at each iteration.
	FillingsUpdate:  mu: -0.084712026  nElectrons: 9.000000  magneticMoment: [ Abs: 0.18000  Tot: -0.18000 ]
	FillingsUpdate:  mu: -0.087003329  nElectrons: 9.000000  magneticMoment: [ Abs: 0.18000  Tot: -0.18000 ]
SCF: Cycle:  0   F: -24.438595520988539   dF: -1.752e-03   |Residual|: 3.783e-03   |deigs|: 1.737e-01  t[s]:     16.47
	FillingsUpdate:  mu: -0.087235544  nElectrons: 9.000000  magneticMoment: [ Abs: 0.18005  Tot: -0.18000 ]
SCF: Cycle:  1   F: -24.438633058139395   dF: -3.754e-05   |Residual|: 3.276e-03   |deigs|: 4.683e-03  t[s]:     20.33
	FillingsUpdate:  mu: -0.087777941  nElectrons: 9.000000  magneticMoment: [ Abs: 0.18212  Tot: -0.18000 ]
SCF: Cycle:  2   F: -24.438666649779400   dF: -3.359e-05   |Residual|: 1.640e-03   |deigs|: 2.323e-03  t[s]:     24.23
	FillingsUpdate:  mu: -0.087928578  nElectrons: 9.000000  magneticMoment: [ Abs: 0.18110  Tot: -0.18000 ]
SCF: Cycle:  3   F: -24.438678492582415   dF: -1.184e-05   |Residual|: 9.892e-04   |deigs|: 2.629e-03  t[s]:     28.21
	FillingsUpdate:  mu: -0.087840438  nElectrons: 9.000000  magneticMoment: [ Abs: 0.18020  Tot: -0.18000 ]
SCF: Cycle:  4   F: -24.438684159315848   dF: -5.667e-06   |Residual|: 5.870e-04   |deigs|: 2.465e-03  t[s]:     32.22
	FillingsUpdate:  mu: -0.087777290  nElectrons: 9.000000  magneticMoment: [ Abs: 0.18058  Tot: -0.18000 ]
SCF: Cycle:  5   F: -24.438686877955998   dF: -2.719e-06   |Residual|: 4.489e-04   |deigs|: 1.683e-03  t[s]:     36.22
	FillingsUpdate:  mu: -0.087569517  nElectrons: 9.000000  magneticMoment: [ Abs: 0.18046  Tot: -0.18000 ]
SCF: Cycle:  6   F: -24.438688259739237   dF: -1.382e-06   |Residual|: 3.414e-04   |deigs|: 8.620e-04  t[s]:     40.41
	FillingsUpdate:  mu: -0.087277947  nElectrons: 9.000000  magneticMoment: [ Abs: 0.18100  Tot: -0.18000 ]
SCF: Cycle:  7   F: -24.438688587570901   dF: -3.278e-07   |Residual|: 2.929e-04   |deigs|: 8.236e-04  t[s]:     44.59
	FillingsUpdate:  mu: -0.087015870  nElectrons: 9.000000  magneticMoment: [ Abs: 0.18144  Tot: -0.18000 ]
SCF: Cycle:  8   F: -24.438688379406884   dF: +2.082e-07   |Residual|: 2.290e-04   |deigs|: 3.693e-04  t[s]:     48.86
	FillingsUpdate:  mu: -0.086764295  nElectrons: 9.000000  magneticMoment: [ Abs: 0.18108  Tot: -0.18000 ]
SCF: Cycle:  9   F: -24.438687948458988   dF: +4.309e-07   |Residual|: 2.086e-04   |deigs|: 2.863e-04  t[s]:     53.28
	FillingsUpdate:  mu: -0.086533397  nElectrons: 9.000000  magneticMoment: [ Abs: 0.18121  Tot: -0.18000 ]
SCF: Cycle: 10   F: -24.438688674647558   dF: -7.262e-07   |Residual|: 1.837e-04   |deigs|: 4.716e-04  t[s]:     57.70
	FillingsUpdate:  mu: -0.086302255  nElectrons: 9.000000  magneticMoment: [ Abs: 0.18126  Tot: -0.18000 ]
SCF: Cycle: 11   F: -24.438688863358308   dF: -1.887e-07   |Residual|: 1.467e-04   |deigs|: 4.316e-04  t[s]:     62.06
	FillingsUpdate:  mu: -0.086084342  nElectrons: 9.000000  magneticMoment: [ Abs: 0.18125  Tot: -0.18000 ]
SCF: Cycle: 12   F: -24.438688840600541   dF: +2.276e-08   |Residual|: 1.343e-04   |deigs|: 4.126e-04  t[s]:     66.49
	FillingsUpdate:  mu: -0.085771283  nElectrons: 9.000000  magneticMoment: [ Abs: 0.18071  Tot: -0.18000 ]
SCF: Cycle: 13   F: -24.438688284586309   dF: +5.560e-07   |Residual|: 1.331e-04   |deigs|: 3.380e-04  t[s]:     70.88
	FillingsUpdate:  mu: -0.085564861  nElectrons: 9.000000  magneticMoment: [ Abs: 0.18083  Tot: -0.18000 ]
SCF: Cycle: 14   F: -24.438688718846269   dF: -4.343e-07   |Residual|: 1.196e-04   |deigs|: 2.336e-04  t[s]:     75.21
	FillingsUpdate:  mu: -0.085414229  nElectrons: 9.000000  magneticMoment: [ Abs: 0.18092  Tot: -0.18000 ]
SCF: Cycle: 15   F: -24.438689875076520   dF: -1.156e-06   |Residual|: 8.902e-05   |deigs|: 1.910e-04  t[s]:     79.65
	FillingsUpdate:  mu: -0.085291153  nElectrons: 9.000000  magneticMoment: [ Abs: 0.18060  Tot: -0.18000 ]
SCF: Cycle: 16   F: -24.438690230115263   dF: -3.550e-07   |Residual|: 6.524e-05   |deigs|: 1.491e-04  t[s]:     83.98
	FillingsUpdate:  mu: -0.085189924  nElectrons: 9.000000  magneticMoment: [ Abs: 0.18057  Tot: -0.18000 ]
SCF: Cycle: 17   F: -24.438690359656682   dF: -1.295e-07   |Residual|: 3.831e-05   |deigs|: 1.350e-04  t[s]:     88.24
	FillingsUpdate:  mu: -0.085195605  nElectrons: 9.000000  magneticMoment: [ Abs: 0.18056  Tot: -0.18000 ]
SCF: Cycle: 18   F: -24.438690413084352   dF: -5.343e-08   |Residual|: 2.610e-05   |deigs|: 1.583e-04  t[s]:     92.57
	FillingsUpdate:  mu: -0.085213365  nElectrons: 9.000000  magneticMoment: [ Abs: 0.18056  Tot: -0.18000 ]
SCF: Cycle: 19   F: -24.438690441687587   dF: -2.860e-08   |Residual|: 1.539e-05   |deigs|: 4.279e-05  t[s]:     96.92
	FillingsUpdate:  mu: -0.085219734  nElectrons: 9.000000  magneticMoment: [ Abs: 0.18057  Tot: -0.18000 ]
SCF: Cycle: 20   F: -24.438690453885592   dF: -1.220e-08   |Residual|: 9.735e-06   |deigs|: 1.480e-05  t[s]:    101.28
	FillingsUpdate:  mu: -0.085218871  nElectrons: 9.000000  magneticMoment: [ Abs: 0.18056  Tot: -0.18000 ]
SCF: Cycle: 21   F: -24.438690459015060   dF: -5.129e-09   |Residual|: 6.342e-06   |deigs|: 6.779e-06  t[s]:    105.64
	FillingsUpdate:  mu: -0.085219813  nElectrons: 9.000000  magneticMoment: [ Abs: 0.18057  Tot: -0.18000 ]
SCF: Cycle: 22   F: -24.438690461449283   dF: -2.434e-09   |Residual|: 3.894e-06   |deigs|: 6.558e-06  t[s]:    110.03
SCF: Converged (|Delta E|<1.000000e-08 for 2 iters).


# Ionic positions in lattice coordinates:
ion Rb   0.000000000000000   0.000000000000000   0.000000000000000 0

# Forces in Lattice coordinates:
force Rb   0.000000000000000   0.000000000000000   0.000000000000000 0

# Energy components:
   Eewald =      -12.0320174002217755
       EH =        7.4864390109041725
     Eloc =      -22.3962602913498259
      Enl =       -0.7979054091499321
   Epulay =       -0.0000000014467880
      Exc =       -3.6466863050794656
       KE =        6.9477402167583389
-------------------------------------
     Etot =      -24.4386901795852793
       TS =        0.0000002818640035
-------------------------------------
        F =      -24.4386904614492835

IonicMinimize: Iter:   0  F: -24.438690461449283  |grad|_K:  0.000e+00  t[s]:    110.30
IonicMinimize: Converged (|grad|_K<1.000000e-04).

#--- Lowdin population analysis ---
# oxidation-state Rb +0.030
# magnetic-moments Rb -0.169

End date and time: Sun Feb  6 12:44:23 2022  (Duration: 0-0:01:50.34)
Done!
scale=4
magnetization=-0.18
--------------------------------------------------------------------------
The library attempted to open the following supporting CUDA libraries,
but each of them failed.  CUDA-aware support is disabled.
libcuda.so.1: cannot open shared object file: No such file or directory
libcuda.dylib: cannot open shared object file: No such file or directory
/usr/lib64/libcuda.so.1: cannot open shared object file: No such file or directory
/usr/lib64/libcuda.dylib: cannot open shared object file: No such file or directory
If you are not interested in CUDA-aware support, then run with
--mca opal_warn_on_missing_libcuda 0 to suppress this message.  If you are interested
in CUDA-aware support, then try setting LD_LIBRARY_PATH to the location
of libcuda.so.1 to get passed this issue.
--------------------------------------------------------------------------
--------------------------------------------------------------------------
No OpenFabrics connection schemes reported that they were able to be
used on a specific port.  As such, the openib BTL (OpenFabrics
support) will be disabled for this port.

  Local host:           d-18-7-1
  Local device:         mlx5_1
  Local port:           1
  CPCs attempted:       rdmacm, udcm
--------------------------------------------------------------------------

*************** JDFTx 1.6.0 (git hash 42ebbcc2) ***************

Start date and time: Sun Feb  6 12:44:24 2022
Executable jdftx with command-line: -i Alkali.in
Running on hosts (process indices):  d-18-7-1 (0-18)
Divided in process groups (process indices):  0 (0)  1 (1)  2 (2)  3 (3)  4 (4)  5 (5)  6 (6)  7 (7)  8 (8)  9 (9)  10 (10)  11 (11)  12 (12)  13 (13)  14 (14)  15 (15)  16 (16)  17 (17)  18 (18)
Resource initialization completed at t[s]:      0.00
Run totals: 19 processes, 48 threads, 0 GPUs


Input parsed successfully to the following command list (including defaults):

basis kpoint-dependent
coords-type Lattice
core-overlap-check vector
coulomb-interaction Slab 001
davidson-band-ratio 1.1
dump End None
dump-name $INPUT.$VAR
elec-cutoff 20
elec-eigen-algo Davidson
elec-ex-corr gga-PBE
elec-initial-magnetization -0.180000 yes
elec-smearing Fermi 1e-05
electronic-minimize  \
	dirUpdateScheme      FletcherReeves \
	linminMethod         DirUpdateRecommended \
	nIterations          100 \
	history              15 \
	knormThreshold       0 \
	energyDiffThreshold  1e-08 \
	nEnergyDiff          2 \
	alphaTstart          1 \
	alphaTmin            1e-10 \
	updateTestStepSize   yes \
	alphaTreduceFactor   0.1 \
	alphaTincreaseFactor 3 \
	nAlphaAdjustMax      3 \
	wolfeEnergy          0.0001 \
	wolfeGradient        0.9 \
	fdTest               no
electronic-scf  \
	nIterations	10000 \
	energyDiffThreshold	1e-08 \
	residualThreshold	1e-07 \
	mixFraction	0.5 \
	qMetric	0.8 \
	history	10 \
	nEigSteps	2 \
	eigDiffThreshold	1e-08 \
	mixedVariable	Density \
	qKerker	0.8 \
	qKappa	-1 \
	verbose	no \
	mixFractionMag	1.5
exchange-regularization WignerSeitzTruncated
fluid None
fluid-ex-corr (null) lda-PZ
fluid-gummel-loop 10 1.000000e-05
fluid-minimize  \
	dirUpdateScheme      PolakRibiere \
	linminMethod         DirUpdateRecommended \
	nIterations          100 \
	history              15 \
	knormThreshold       0 \
	energyDiffThreshold  0 \
	nEnergyDiff          2 \
	alphaTstart          1 \
	alphaTmin            1e-10 \
	updateTestStepSize   yes \
	alphaTreduceFactor   0.1 \
	alphaTincreaseFactor 3 \
	nAlphaAdjustMax      3 \
	wolfeEnergy          0.0001 \
	wolfeGradient        0.9 \
	fdTest               no
fluid-solvent H2O 55.338 ScalarEOS \
	epsBulk 78.4 \
	pMol 0.92466 \
	epsInf 1.77 \
	Pvap 1.06736e-10 \
	sigmaBulk 4.62e-05 \
	Rvdw 2.61727 \
	Res 1.42 \
	tauNuc 343133 \
	poleEl 15 7 1
forces-output-coords Positions
ion Rb   0.000000000000000   0.000000000000000   0.000000000000000 0
ion-species SG15/$ID_ONCV_PBE.upf
ion-width 0
ionic-minimize  \
	dirUpdateScheme      L-BFGS \
	linminMethod         DirUpdateRecommended \
	nIterations          0 \
	history              15 \
	knormThreshold       0.0001 \
	energyDiffThreshold  1e-06 \
	nEnergyDiff          2 \
	alphaTstart          1 \
	alphaTmin            1e-10 \
	updateTestStepSize   yes \
	alphaTreduceFactor   0.1 \
	alphaTincreaseFactor 3 \
	nAlphaAdjustMax      3 \
	wolfeEnergy          0.0001 \
	wolfeGradient        0.9 \
	fdTest               no
kpoint   0.000000000000   0.000000000000   0.000000000000  1.00000000000000
kpoint-folding 12 12 1 
latt-move-scale 1 1 1
latt-scale 4 4 1 
lattice  \
	   4.727486978767153   -2.363743489383575    0.000000000000000  \
	  -0.000000000000000    4.094123819672498    0.000000000000000  \
	   0.000000000000000    0.000000000000000   40.000000000000000 
lattice-minimize  \
	dirUpdateScheme      L-BFGS \
	linminMethod         DirUpdateRecommended \
	nIterations          0 \
	history              15 \
	knormThreshold       0 \
	energyDiffThreshold  1e-06 \
	nEnergyDiff          2 \
	alphaTstart          1 \
	alphaTmin            1e-10 \
	updateTestStepSize   yes \
	alphaTreduceFactor   0.1 \
	alphaTincreaseFactor 3 \
	nAlphaAdjustMax      3 \
	wolfeEnergy          0.0001 \
	wolfeGradient        0.9 \
	fdTest               no
lcao-params -1 1e-06 1e-05
pcm-variant GLSSA13
spintype z-spin
subspace-rotation-factor 1 yes
symmetries automatic
symmetry-threshold 0.0001



---------- Setting up symmetries ----------

Found 24 point-group symmetries of the bravais lattice
Found 24 space-group symmetries with basis
Applied RMS atom displacement 0 bohrs to make symmetries exact.

---------- Initializing the Grid ----------
R = 
[      18.9099     -9.45497            0  ]
[            0      16.3765            0  ]
[            0            0           40  ]
unit cell volume = 12387.1
G =
[   0.332269   0.191835         -0  ]
[          0   0.383671         -0  ]
[         -0         -0    0.15708  ]
Minimum fftbox size, Smin = [  80  80  164  ]
Chosen fftbox size, S = [  80  80  168  ]

---------- Exchange Correlation functional ----------
Initalized PBE GGA exchange.
Initalized PBE GGA correlation.

---------- Setting up pseudopotentials ----------
Width of ionic core gaussian charges (only for fluid interactions / plotting) set to 0

Reading pseudopotential file '/home/gridsan/aligho/DFT/build-Nov24/pseudopotentials/SG15/Rb_ONCV_PBE.upf':
  'Rb' pseudopotential, 'PBE' functional
  Generated using ONCVPSP code by D. R. Hamann
  Author: Martin Schlipf and Francois Gygi  Date: 150915.
  9 valence electrons, 3 orbitals, 6 projectors, 2308 radial grid points, with lMax = 2
  Transforming local potential to a uniform radial grid of dG=0.02 with 1489 points.
  Transforming nonlocal projectors to a uniform radial grid of dG=0.02 with 432 points.
    4S    l: 0   occupation:  2.0   eigenvalue: -1.172069
    4P    l: 1   occupation:  6.0   eigenvalue: -0.586674
    5S    l: 0   occupation:  1.0   eigenvalue: -0.082006
  Transforming atomic orbitals to a uniform radial grid of dG=0.02 with 432 points.
  Core radius for overlap checks: 2.60 bohrs.
  Reading pulay file /home/gridsan/aligho/DFT/build-Nov24/pseudopotentials/SG15/Rb_ONCV_PBE.pulay ... using dE_dnG = -1.360715e-05 computed for Ecut = 20.

Initialized 1 species with 1 total atoms.

Folded 1 k-points by 12x12x1 to 144 k-points.

---------- Setting up k-points, bands, fillings ----------
Reduced to 19 k-points under symmetry. 
Computing the number of bands and number of electrons
Calculating initial fillings.
nElectrons:   9.000000   nBands: 6   nStates: 38

----- Setting up reduced wavefunction bases (one per k-point) -----
average nbasis = 52924.021 , ideal nbasis = 52918.836

---------- Setting up coulomb interaction ----------
Initialized slab truncation along lattice direction 001

---------- Setting up 2D ewald sum ----------
Optimum gaussian width for ewald sums = 10.498040 bohr.
Real space sums over 289 unit cells with max indices [  8  8  0  ]
Reciprocal space sums over 81 terms with max indices [  4  4  0  ]

---------- Allocating electronic variables ----------
Initializing wave functions:  linear combination of atomic orbitals
Note: number of bands (6) exceeds available atomic orbitals (5)
Rb pseudo-atom occupations:   s ( 2 1 )  p ( 6 )
[d-18-7-1:27864] 18 more processes have sent help message help-mpi-common-cuda.txt / dlopen failed
[d-18-7-1:27864] Set MCA parameter "orte_base_help_aggregate" to 0 to see all help / error messages
[d-18-7-1:27864] 18 more processes have sent help message help-mpi-btl-openib-cpc-base.txt / no cpcs for port
	FillingsUpdate:  mu: -0.082767925  nElectrons: 9.000000  magneticMoment: [ Abs: 0.18000  Tot: -0.18000 ]
LCAOMinimize: Iter:   0  F: -24.4306734010075459  |grad|_K:  5.241e-06  alpha:  1.000e+00
	FillingsUpdate:  mu: -0.082766772  nElectrons: 9.000000  magneticMoment: [ Abs: 0.18000  Tot: -0.18000 ]
LCAOMinimize: Iter:   1  F: -24.4306734195454673  |grad|_K:  2.525e-08  alpha:  9.868e-01  linmin: -8.826e-03  cgtest:  3.061e-01  t[s]:     15.47
LCAOMinimize: Encountered beta<0, resetting CG.
	FillingsUpdate:  mu: -0.082766771  nElectrons: 9.000000  magneticMoment: [ Abs: 0.18000  Tot: -0.18000 ]
LCAOMinimize: Iter:   2  F: -24.4306734195458262  |grad|_K:  2.905e-09  alpha:  8.852e-01  linmin: -1.796e-02  cgtest:  1.000e+00  t[s]:     19.58
LCAOMinimize: Encountered beta<0, resetting CG.
LCAOMinimize: Converged (|Delta F|<1.000000e-06 for 2 iters).


---- Citations for features of the code used in this run ----

   Software package:
      R. Sundararaman, K. Letchworth-Weaver, K.A. Schwarz, D. Gunceler, Y. Ozhabes and T.A. Arias, 'JDFTx: software for joint density-functional theory', SoftwareX 6, 278 (2017)

   gga-PBE exchange-correlation functional:
      J.P. Perdew, K. Burke and M. Ernzerhof, Phys. Rev. Lett. 77, 3865 (1996)

   Pseudopotentials:
      M Schlipf and F Gygi, Comput. Phys. Commun. 196, 36 (2015)

   Truncated Coulomb potentials:
      R. Sundararaman and T.A. Arias, Phys. Rev. B 87, 165122 (2013)

This list may not be complete. Please suggest additional citations or
report any other bugs at https://github.com/shankar1729/jdftx/issues

Initialization completed successfully at t[s]:     19.85


-------- Electronic minimization -----------
Will mix electronic density at each iteration.
	FillingsUpdate:  mu: -0.082766771  nElectrons: 9.000000  magneticMoment: [ Abs: 0.18000  Tot: -0.18000 ]
	FillingsUpdate:  mu: -0.082875701  nElectrons: 9.000000  magneticMoment: [ Abs: 0.18000  Tot: -0.18000 ]
SCF: Cycle:  0   F: -24.430791145635126   dF: -1.177e-04   |Residual|: 7.470e-04   |deigs|: 1.755e-01  t[s]:     28.23
	FillingsUpdate:  mu: -0.082915898  nElectrons: 9.000000  magneticMoment: [ Abs: 0.18082  Tot: -0.18000 ]
SCF: Cycle:  1   F: -24.430793148150457   dF: -2.003e-06   |Residual|: 5.201e-04   |deigs|: 4.279e-03  t[s]:     34.83
	FillingsUpdate:  mu: -0.082971224  nElectrons: 9.000000  magneticMoment: [ Abs: 0.18083  Tot: -0.18000 ]
SCF: Cycle:  2   F: -24.430793809542166   dF: -6.614e-07   |Residual|: 4.128e-04   |deigs|: 1.640e-03  t[s]:     41.53
	FillingsUpdate:  mu: -0.083077389  nElectrons: 9.000000  magneticMoment: [ Abs: 0.18138  Tot: -0.18000 ]
SCF: Cycle:  3   F: -24.430794510456522   dF: -7.009e-07   |Residual|: 2.798e-04   |deigs|: 6.024e-04  t[s]:     48.34
	FillingsUpdate:  mu: -0.083175818  nElectrons: 9.000000  magneticMoment: [ Abs: 0.18110  Tot: -0.18000 ]
SCF: Cycle:  4   F: -24.430795252412182   dF: -7.420e-07   |Residual|: 1.819e-04   |deigs|: 7.328e-04  t[s]:     55.22
	FillingsUpdate:  mu: -0.083229716  nElectrons: 9.000000  magneticMoment: [ Abs: 0.18129  Tot: -0.18000 ]
SCF: Cycle:  5   F: -24.430795678948112   dF: -4.265e-07   |Residual|: 1.259e-04   |deigs|: 8.701e-04  t[s]:     62.15
	FillingsUpdate:  mu: -0.083231390  nElectrons: 9.000000  magneticMoment: [ Abs: 0.18122  Tot: -0.18000 ]
SCF: Cycle:  6   F: -24.430795953046164   dF: -2.741e-07   |Residual|: 7.924e-05   |deigs|: 5.129e-04  t[s]:     69.20
	FillingsUpdate:  mu: -0.083223079  nElectrons: 9.000000  magneticMoment: [ Abs: 0.18114  Tot: -0.18000 ]
SCF: Cycle:  7   F: -24.430796088321625   dF: -1.353e-07   |Residual|: 5.898e-05   |deigs|: 5.948e-04  t[s]:     76.38
	FillingsUpdate:  mu: -0.083204966  nElectrons: 9.000000  magneticMoment: [ Abs: 0.18110  Tot: -0.18000 ]
SCF: Cycle:  8   F: -24.430796162417902   dF: -7.410e-08   |Residual|: 4.394e-05   |deigs|: 2.676e-04  t[s]:     83.72
	FillingsUpdate:  mu: -0.083179470  nElectrons: 9.000000  magneticMoment: [ Abs: 0.18103  Tot: -0.18000 ]
SCF: Cycle:  9   F: -24.430796187606706   dF: -2.519e-08   |Residual|: 3.263e-05   |deigs|: 1.144e-04  t[s]:     91.06
	FillingsUpdate:  mu: -0.083161686  nElectrons: 9.000000  magneticMoment: [ Abs: 0.18106  Tot: -0.18000 ]
SCF: Cycle: 10   F: -24.430796188123850   dF: -5.171e-10   |Residual|: 2.990e-05   |deigs|: 1.306e-04  t[s]:     98.58
	FillingsUpdate:  mu: -0.083138558  nElectrons: 9.000000  magneticMoment: [ Abs: 0.18115  Tot: -0.18000 ]
SCF: Cycle: 11   F: -24.430796164478856   dF: +2.364e-08   |Residual|: 2.675e-05   |deigs|: 1.190e-04  t[s]:    106.12
	FillingsUpdate:  mu: -0.083108664  nElectrons: 9.000000  magneticMoment: [ Abs: 0.18113  Tot: -0.18000 ]
SCF: Cycle: 12   F: -24.430796132706334   dF: +3.177e-08   |Residual|: 2.453e-05   |deigs|: 8.425e-05  t[s]:    113.74
	FillingsUpdate:  mu: -0.083083905  nElectrons: 9.000000  magneticMoment: [ Abs: 0.18109  Tot: -0.18000 ]
SCF: Cycle: 13   F: -24.430796146235480   dF: -1.353e-08   |Residual|: 2.160e-05   |deigs|: 5.272e-05  t[s]:    121.33
	FillingsUpdate:  mu: -0.083057084  nElectrons: 9.000000  magneticMoment: [ Abs: 0.18111  Tot: -0.18000 ]
SCF: Cycle: 14   F: -24.430796104393444   dF: +4.184e-08   |Residual|: 2.051e-05   |deigs|: 6.729e-05  t[s]:    128.96
	FillingsUpdate:  mu: -0.083038367  nElectrons: 9.000000  magneticMoment: [ Abs: 0.18107  Tot: -0.18000 ]
SCF: Cycle: 15   F: -24.430796155840653   dF: -5.145e-08   |Residual|: 1.829e-05   |deigs|: 1.005e-04  t[s]:    136.44
	FillingsUpdate:  mu: -0.083011915  nElectrons: 9.000000  magneticMoment: [ Abs: 0.18107  Tot: -0.18000 ]
SCF: Cycle: 16   F: -24.430796161478924   dF: -5.638e-09   |Residual|: 1.622e-05   |deigs|: 1.043e-04  t[s]:    143.71
	FillingsUpdate:  mu: -0.082988353  nElectrons: 9.000000  magneticMoment: [ Abs: 0.18105  Tot: -0.18000 ]
SCF: Cycle: 17   F: -24.430796105771019   dF: +5.571e-08   |Residual|: 1.458e-05   |deigs|: 7.925e-05  t[s]:    151.26
	FillingsUpdate:  mu: -0.082983889  nElectrons: 9.000000  magneticMoment: [ Abs: 0.18102  Tot: -0.18000 ]
SCF: Cycle: 18   F: -24.430796193869281   dF: -8.810e-08   |Residual|: 1.158e-05   |deigs|: 4.636e-05  t[s]:    158.31
	FillingsUpdate:  mu: -0.082980364  nElectrons: 9.000000  magneticMoment: [ Abs: 0.18103  Tot: -0.18000 ]
SCF: Cycle: 19   F: -24.430796194596240   dF: -7.270e-10   |Residual|: 8.940e-06   |deigs|: 2.528e-05  t[s]:    165.21
	FillingsUpdate:  mu: -0.082974021  nElectrons: 9.000000  magneticMoment: [ Abs: 0.18104  Tot: -0.18000 ]
SCF: Cycle: 20   F: -24.430796223080030   dF: -2.848e-08   |Residual|: 6.298e-06   |deigs|: 1.470e-05  t[s]:    172.73
	FillingsUpdate:  mu: -0.082972755  nElectrons: 9.000000  magneticMoment: [ Abs: 0.18103  Tot: -0.18000 ]
SCF: Cycle: 21   F: -24.430796237190755   dF: -1.411e-08   |Residual|: 4.864e-06   |deigs|: 6.926e-06  t[s]:    179.78
	FillingsUpdate:  mu: -0.082971774  nElectrons: 9.000000  magneticMoment: [ Abs: 0.18104  Tot: -0.18000 ]
SCF: Cycle: 22   F: -24.430796232668392   dF: +4.522e-09   |Residual|: 3.750e-06   |deigs|: 3.906e-06  t[s]:    186.69
	FillingsUpdate:  mu: -0.082970887  nElectrons: 9.000000  magneticMoment: [ Abs: 0.18103  Tot: -0.18000 ]
SCF: Cycle: 23   F: -24.430796240905202   dF: -8.237e-09   |Residual|: 2.540e-06   |deigs|: 3.785e-06  t[s]:    194.02
	FillingsUpdate:  mu: -0.082970881  nElectrons: 9.000000  magneticMoment: [ Abs: 0.18103  Tot: -0.18000 ]
SCF: Cycle: 24   F: -24.430796242243449   dF: -1.338e-09   |Residual|: 1.740e-06   |deigs|: 4.477e-06  t[s]:    200.87
SCF: Converged (|Delta E|<1.000000e-08 for 2 iters).


# Ionic positions in lattice coordinates:
ion Rb   0.000000000000000   0.000000000000000   0.000000000000000 0

# Forces in Lattice coordinates:
force Rb  -0.000000000000000   0.000000000000000   0.000000000000000 0

# Energy components:
   Eewald =       -9.0240130501663280
       EH =       10.5170155479831777
     Eloc =      -28.4407549514595779
      Enl =       -0.7932195454665362
   Epulay =        0.0000000056959385
      Exc =       -3.6475636484129792
       KE =        6.9577396814468608
-------------------------------------
     Etot =      -24.4307959603794451
       TS =        0.0000002818640035
-------------------------------------
        F =      -24.4307962422434493

IonicMinimize: Iter:   0  F: -24.430796242243449  |grad|_K:  0.000e+00  t[s]:    201.29
IonicMinimize: Converged (|grad|_K<1.000000e-04).

#--- Lowdin population analysis ---
# oxidation-state Rb +0.002
# magnetic-moments Rb -0.180

End date and time: Sun Feb  6 12:47:46 2022  (Duration: 0-0:03:21.36)
Done!
