
*************** JDFTx 1.6.0 (git hash 42ebbcc2) ***************

Start date and time: Sun Feb  6 12:34:52 2022
Executable jdftx with command-line: -i Alkali.in
Running on hosts (process indices):  d-17-8-4 (0-18)
Divided in process groups (process indices):  0 (0)  1 (1)  2 (2)  3 (3)  4 (4)  5 (5)  6 (6)  7 (7)  8 (8)  9 (9)  10 (10)  11 (11)  12 (12)  13 (13)  14 (14)  15 (15)  16 (16)  17 (17)  18 (18)
Resource initialization completed at t[s]:      0.00
Run totals: 19 processes, 48 threads, 0 GPUs


Input parsed successfully to the following command list (including defaults):

basis kpoint-dependent
coords-type Lattice
core-overlap-check vector
coulomb-interaction Slab 001
davidson-band-ratio 1.1
dump End None
dump-name $INPUT.$VAR
elec-cutoff 20
elec-eigen-algo Davidson
elec-ex-corr gga-PBE
elec-initial-magnetization -0.680000 yes
elec-smearing Fermi 1e-05
electronic-minimize  \
	dirUpdateScheme      FletcherReeves \
	linminMethod         DirUpdateRecommended \
	nIterations          100 \
	history              15 \
	knormThreshold       0 \
	energyDiffThreshold  1e-08 \
	nEnergyDiff          2 \
	alphaTstart          1 \
	alphaTmin            1e-10 \
	updateTestStepSize   yes \
	alphaTreduceFactor   0.1 \
	alphaTincreaseFactor 3 \
	nAlphaAdjustMax      3 \
	wolfeEnergy          0.0001 \
	wolfeGradient        0.9 \
	fdTest               no
electronic-scf  \
	nIterations	10000 \
	energyDiffThreshold	1e-08 \
	residualThreshold	1e-07 \
	mixFraction	0.5 \
	qMetric	0.8 \
	history	10 \
	nEigSteps	2 \
	eigDiffThreshold	1e-08 \
	mixedVariable	Density \
	qKerker	0.8 \
	qKappa	-1 \
	verbose	no \
	mixFractionMag	1.5
exchange-regularization WignerSeitzTruncated
fluid None
fluid-ex-corr (null) lda-PZ
fluid-gummel-loop 10 1.000000e-05
fluid-minimize  \
	dirUpdateScheme      PolakRibiere \
	linminMethod         DirUpdateRecommended \
	nIterations          100 \
	history              15 \
	knormThreshold       0 \
	energyDiffThreshold  0 \
	nEnergyDiff          2 \
	alphaTstart          1 \
	alphaTmin            1e-10 \
	updateTestStepSize   yes \
	alphaTreduceFactor   0.1 \
	alphaTincreaseFactor 3 \
	nAlphaAdjustMax      3 \
	wolfeEnergy          0.0001 \
	wolfeGradient        0.9 \
	fdTest               no
fluid-solvent H2O 55.338 ScalarEOS \
	epsBulk 78.4 \
	pMol 0.92466 \
	epsInf 1.77 \
	Pvap 1.06736e-10 \
	sigmaBulk 4.62e-05 \
	Rvdw 2.61727 \
	Res 1.42 \
	tauNuc 343133 \
	poleEl 15 7 1
forces-output-coords Positions
ion Rb   0.000000000000000   0.000000000000000   0.000000000000000 0
ion-species SG15/$ID_ONCV_PBE.upf
ion-width 0
ionic-minimize  \
	dirUpdateScheme      L-BFGS \
	linminMethod         DirUpdateRecommended \
	nIterations          0 \
	history              15 \
	knormThreshold       0.0001 \
	energyDiffThreshold  1e-06 \
	nEnergyDiff          2 \
	alphaTstart          1 \
	alphaTmin            1e-10 \
	updateTestStepSize   yes \
	alphaTreduceFactor   0.1 \
	alphaTincreaseFactor 3 \
	nAlphaAdjustMax      3 \
	wolfeEnergy          0.0001 \
	wolfeGradient        0.9 \
	fdTest               no
kpoint   0.000000000000   0.000000000000   0.000000000000  1.00000000000000
kpoint-folding 12 12 1 
latt-move-scale 1 1 1
latt-scale 2 2 1 
lattice  \
	   4.727486978767153   -2.363743489383575    0.000000000000000  \
	  -0.000000000000000    4.094123819672498    0.000000000000000  \
	   0.000000000000000    0.000000000000000   40.000000000000000 
lattice-minimize  \
	dirUpdateScheme      L-BFGS \
	linminMethod         DirUpdateRecommended \
	nIterations          0 \
	history              15 \
	knormThreshold       0 \
	energyDiffThreshold  1e-06 \
	nEnergyDiff          2 \
	alphaTstart          1 \
	alphaTmin            1e-10 \
	updateTestStepSize   yes \
	alphaTreduceFactor   0.1 \
	alphaTincreaseFactor 3 \
	nAlphaAdjustMax      3 \
	wolfeEnergy          0.0001 \
	wolfeGradient        0.9 \
	fdTest               no
lcao-params -1 1e-06 1e-05
pcm-variant GLSSA13
spintype z-spin
subspace-rotation-factor 1 yes
symmetries automatic
symmetry-threshold 0.0001



---------- Setting up symmetries ----------

Found 24 point-group symmetries of the bravais lattice
Found 24 space-group symmetries with basis
Applied RMS atom displacement 0 bohrs to make symmetries exact.

---------- Initializing the Grid ----------
R = 
[      9.45497     -4.72749            0  ]
[            0      8.18825            0  ]
[            0            0           40  ]
unit cell volume = 3096.79
G =
[   0.664538   0.383671         -0  ]
[          0   0.767342         -0  ]
[         -0         -0    0.15708  ]
Minimum fftbox size, Smin = [  40  40  164  ]
Chosen fftbox size, S = [  40  40  168  ]

---------- Exchange Correlation functional ----------
Initalized PBE GGA exchange.
Initalized PBE GGA correlation.

---------- Setting up pseudopotentials ----------
Width of ionic core gaussian charges (only for fluid interactions / plotting) set to 0

Reading pseudopotential file '/home/gridsan/aligho/DFT/build-Nov24/pseudopotentials/SG15/Rb_ONCV_PBE.upf':
  'Rb' pseudopotential, 'PBE' functional
  Generated using ONCVPSP code by D. R. Hamann
  Author: Martin Schlipf and Francois Gygi  Date: 150915.
  9 valence electrons, 3 orbitals, 6 projectors, 2308 radial grid points, with lMax = 2
  Transforming local potential to a uniform radial grid of dG=0.02 with 1489 points.
  Transforming nonlocal projectors to a uniform radial grid of dG=0.02 with 432 points.
    4S    l: 0   occupation:  2.0   eigenvalue: -1.172069
    4P    l: 1   occupation:  6.0   eigenvalue: -0.586674
    5S    l: 0   occupation:  1.0   eigenvalue: -0.082006
  Transforming atomic orbitals to a uniform radial grid of dG=0.02 with 432 points.
  Core radius for overlap checks: 2.60 bohrs.
  Reading pulay file /home/gridsan/aligho/DFT/build-Nov24/pseudopotentials/SG15/Rb_ONCV_PBE.pulay ... using dE_dnG = -1.360715e-05 computed for Ecut = 20.

Initialized 1 species with 1 total atoms.

Folded 1 k-points by 12x12x1 to 144 k-points.

---------- Setting up k-points, bands, fillings ----------
Reduced to 19 k-points under symmetry. 
Computing the number of bands and number of electrons
Calculating initial fillings.
nElectrons:   9.000000   nBands: 6   nStates: 38

----- Setting up reduced wavefunction bases (one per k-point) -----
average nbasis = 13230.521 , ideal nbasis = 13229.709

---------- Setting up coulomb interaction ----------
Initialized slab truncation along lattice direction 001

---------- Setting up 2D ewald sum ----------
Optimum gaussian width for ewald sums = 5.249020 bohr.
Real space sums over 289 unit cells with max indices [  8  8  0  ]
Reciprocal space sums over 81 terms with max indices [  4  4  0  ]

---------- Allocating electronic variables ----------
Initializing wave functions:  linear combination of atomic orbitals
Note: number of bands (6) exceeds available atomic orbitals (5)
Rb pseudo-atom occupations:   s ( 2 1 )  p ( 6 )
	FillingsUpdate:  mu: -0.096338244  nElectrons: 9.000000  magneticMoment: [ Abs: 0.68000  Tot: -0.68000 ]
LCAOMinimize: Iter:   0  F: -24.4398674022471702  |grad|_K:  2.265e-05  alpha:  1.000e+00
	FillingsUpdate:  mu: -0.096330877  nElectrons: 9.000000  magneticMoment: [ Abs: 0.68000  Tot: -0.68000 ]
LCAOMinimize: Iter:   1  F: -24.4398677456675237  |grad|_K:  2.162e-07  alpha:  9.791e-01  linmin: -2.277e-02  cgtest:  2.902e-01  t[s]:      4.73
LCAOMinimize: Encountered beta<0, resetting CG.
	FillingsUpdate:  mu: -0.096330936  nElectrons: 9.000000  magneticMoment: [ Abs: 0.68000  Tot: -0.68000 ]
LCAOMinimize: Iter:   2  F: -24.4398677456998961  |grad|_K:  2.307e-09  alpha:  1.011e+00  linmin:  1.214e-01  cgtest: -9.372e-01  t[s]:      5.93
LCAOMinimize: Converged (|Delta F|<1.000000e-06 for 2 iters).


---- Citations for features of the code used in this run ----

   Software package:
      R. Sundararaman, K. Letchworth-Weaver, K.A. Schwarz, D. Gunceler, Y. Ozhabes and T.A. Arias, 'JDFTx: software for joint density-functional theory', SoftwareX 6, 278 (2017)

   gga-PBE exchange-correlation functional:
      J.P. Perdew, K. Burke and M. Ernzerhof, Phys. Rev. Lett. 77, 3865 (1996)

   Pseudopotentials:
      M Schlipf and F Gygi, Comput. Phys. Commun. 196, 36 (2015)

   Truncated Coulomb potentials:
      R. Sundararaman and T.A. Arias, Phys. Rev. B 87, 165122 (2013)

This list may not be complete. Please suggest additional citations or
report any other bugs at https://github.com/shankar1729/jdftx/issues

Initialization completed successfully at t[s]:      6.02


-------- Electronic minimization -----------
Will mix electronic density at each iteration.
	FillingsUpdate:  mu: -0.096330936  nElectrons: 9.000000  magneticMoment: [ Abs: 0.68000  Tot: -0.68000 ]
	FillingsUpdate:  mu: -0.106596395  nElectrons: 9.000000  magneticMoment: [ Abs: 0.68000  Tot: -0.68000 ]
SCF: Cycle:  0   F: -24.448189780829733   dF: -8.322e-03   |Residual|: 1.363e-02   |deigs|: 1.777e-01  t[s]:      8.52
	FillingsUpdate:  mu: -0.107491300  nElectrons: 9.000000  magneticMoment: [ Abs: 0.68000  Tot: -0.68000 ]
SCF: Cycle:  1   F: -24.448557547241702   dF: -3.678e-04   |Residual|: 9.706e-03   |deigs|: 7.604e-03  t[s]:     10.40
	FillingsUpdate:  mu: -0.106592625  nElectrons: 9.000000  magneticMoment: [ Abs: 0.68262  Tot: -0.68000 ]
SCF: Cycle:  2   F: -24.448711377092636   dF: -1.538e-04   |Residual|: 5.927e-03   |deigs|: 2.236e-03  t[s]:     12.24
	FillingsUpdate:  mu: -0.104410574  nElectrons: 9.000000  magneticMoment: [ Abs: 0.68007  Tot: -0.68000 ]
SCF: Cycle:  3   F: -24.448789265434872   dF: -7.789e-05   |Residual|: 3.485e-03   |deigs|: 1.966e-03  t[s]:     14.13
	FillingsUpdate:  mu: -0.102276438  nElectrons: 9.000000  magneticMoment: [ Abs: 0.68016  Tot: -0.68000 ]
SCF: Cycle:  4   F: -24.448836566867829   dF: -4.730e-05   |Residual|: 2.343e-03   |deigs|: 2.598e-03  t[s]:     16.08
	FillingsUpdate:  mu: -0.100665162  nElectrons: 9.000000  magneticMoment: [ Abs: 0.68046  Tot: -0.68000 ]
SCF: Cycle:  5   F: -24.448854352333345   dF: -1.779e-05   |Residual|: 1.751e-03   |deigs|: 2.827e-03  t[s]:     18.03
	FillingsUpdate:  mu: -0.097932629  nElectrons: 9.000000  magneticMoment: [ Abs: 0.68637  Tot: -0.68000 ]
SCF: Cycle:  6   F: -24.448851925216076   dF: +2.427e-06   |Residual|: 1.359e-03   |deigs|: 3.508e-03  t[s]:     20.06
	FillingsUpdate:  mu: -0.095440023  nElectrons: 9.000000  magneticMoment: [ Abs: 0.68802  Tot: -0.68000 ]
SCF: Cycle:  7   F: -24.448875356508506   dF: -2.343e-05   |Residual|: 1.223e-03   |deigs|: 3.208e-03  t[s]:     22.09
	FillingsUpdate:  mu: -0.095970513  nElectrons: 9.000000  magneticMoment: [ Abs: 0.68071  Tot: -0.68000 ]
SCF: Cycle:  8   F: -24.448889757932356   dF: -1.440e-05   |Residual|: 9.325e-04   |deigs|: 8.637e-04  t[s]:     24.20
	FillingsUpdate:  mu: -0.094583296  nElectrons: 9.000000  magneticMoment: [ Abs: 0.68203  Tot: -0.68000 ]
SCF: Cycle:  9   F: -24.448894439322604   dF: -4.681e-06   |Residual|: 7.534e-04   |deigs|: 1.392e-03  t[s]:     26.23
	FillingsUpdate:  mu: -0.093136884  nElectrons: 9.000000  magneticMoment: [ Abs: 0.68412  Tot: -0.68000 ]
SCF: Cycle: 10   F: -24.448896566427539   dF: -2.127e-06   |Residual|: 6.357e-04   |deigs|: 1.506e-03  t[s]:     28.32
	FillingsUpdate:  mu: -0.092410920  nElectrons: 9.000000  magneticMoment: [ Abs: 0.68377  Tot: -0.68000 ]
SCF: Cycle: 11   F: -24.448898801101805   dF: -2.235e-06   |Residual|: 5.870e-04   |deigs|: 7.937e-04  t[s]:     30.42
	FillingsUpdate:  mu: -0.091351165  nElectrons: 9.000000  magneticMoment: [ Abs: 0.68397  Tot: -0.68000 ]
SCF: Cycle: 12   F: -24.448906520943449   dF: -7.720e-06   |Residual|: 5.319e-04   |deigs|: 1.080e-03  t[s]:     32.49
	FillingsUpdate:  mu: -0.089413242  nElectrons: 9.000000  magneticMoment: [ Abs: 0.68512  Tot: -0.68000 ]
SCF: Cycle: 13   F: -24.448914093807041   dF: -7.573e-06   |Residual|: 4.726e-04   |deigs|: 1.940e-03  t[s]:     34.53
	FillingsUpdate:  mu: -0.088307693  nElectrons: 9.000000  magneticMoment: [ Abs: 0.68331  Tot: -0.68000 ]
SCF: Cycle: 14   F: -24.448917381565654   dF: -3.288e-06   |Residual|: 4.308e-04   |deigs|: 1.174e-03  t[s]:     36.61
	FillingsUpdate:  mu: -0.086908079  nElectrons: 9.000000  magneticMoment: [ Abs: 0.68136  Tot: -0.68000 ]
SCF: Cycle: 15   F: -24.448921085390662   dF: -3.704e-06   |Residual|: 3.216e-04   |deigs|: 1.512e-03  t[s]:     38.73
	FillingsUpdate:  mu: -0.086443944  nElectrons: 9.000000  magneticMoment: [ Abs: 0.68106  Tot: -0.68000 ]
SCF: Cycle: 16   F: -24.448922751681124   dF: -1.666e-06   |Residual|: 2.376e-04   |deigs|: 6.366e-04  t[s]:     40.75
	FillingsUpdate:  mu: -0.086165426  nElectrons: 9.000000  magneticMoment: [ Abs: 0.68044  Tot: -0.68000 ]
SCF: Cycle: 17   F: -24.448924356263809   dF: -1.605e-06   |Residual|: 1.679e-04   |deigs|: 4.246e-04  t[s]:     42.85
	FillingsUpdate:  mu: -0.086134578  nElectrons: 9.000000  magneticMoment: [ Abs: 0.68024  Tot: -0.68000 ]
SCF: Cycle: 18   F: -24.448924709435154   dF: -3.532e-07   |Residual|: 1.199e-04   |deigs|: 7.895e-04  t[s]:     44.87
	FillingsUpdate:  mu: -0.086046988  nElectrons: 9.000000  magneticMoment: [ Abs: 0.68057  Tot: -0.68000 ]
SCF: Cycle: 19   F: -24.448925028270335   dF: -3.188e-07   |Residual|: 5.615e-05   |deigs|: 1.752e-04  t[s]:     46.93
	FillingsUpdate:  mu: -0.086001213  nElectrons: 9.000000  magneticMoment: [ Abs: 0.68053  Tot: -0.68000 ]
SCF: Cycle: 20   F: -24.448925113788100   dF: -8.552e-08   |Residual|: 3.206e-05   |deigs|: 6.378e-05  t[s]:     48.95
	FillingsUpdate:  mu: -0.085982241  nElectrons: 9.000000  magneticMoment: [ Abs: 0.68051  Tot: -0.68000 ]
SCF: Cycle: 21   F: -24.448925165694835   dF: -5.191e-08   |Residual|: 2.150e-05   |deigs|: 3.134e-05  t[s]:     51.03
	FillingsUpdate:  mu: -0.086004719  nElectrons: 9.000000  magneticMoment: [ Abs: 0.68050  Tot: -0.68000 ]
SCF: Cycle: 22   F: -24.448925187023935   dF: -2.133e-08   |Residual|: 1.801e-05   |deigs|: 2.984e-05  t[s]:     53.06
	FillingsUpdate:  mu: -0.086049636  nElectrons: 9.000000  magneticMoment: [ Abs: 0.68046  Tot: -0.68000 ]
SCF: Cycle: 23   F: -24.448925197022437   dF: -9.999e-09   |Residual|: 1.485e-05   |deigs|: 5.351e-05  t[s]:     55.15
	FillingsUpdate:  mu: -0.086033387  nElectrons: 9.000000  magneticMoment: [ Abs: 0.68036  Tot: -0.68000 ]
SCF: Cycle: 24   F: -24.448925204533630   dF: -7.511e-09   |Residual|: 1.417e-05   |deigs|: 1.964e-05  t[s]:     57.22
SCF: Converged (|Delta E|<1.000000e-08 for 2 iters).


# Ionic positions in lattice coordinates:
ion Rb   0.000000000000000   0.000000000000000   0.000000000000000 0

# Forces in Lattice coordinates:
force Rb   0.000000000000000  -0.000000000000000   0.000000000000000 0

# Energy components:
   Eewald =      -18.0480261003326561
       EH =        1.6712460492934305
     Eloc =      -10.5830981459430920
      Enl =       -0.7981231834263764
   Epulay =        0.0000000035676145
      Exc =       -3.6808826316543959
       KE =        6.9899593549119103
-------------------------------------
     Etot =      -24.4489246535835640
       TS =        0.0000005509500668
-------------------------------------
        F =      -24.4489252045336301

IonicMinimize: Iter:   0  F: -24.448925204533630  |grad|_K:  0.000e+00  t[s]:     57.35
IonicMinimize: Converged (|grad|_K<1.000000e-04).

#--- Lowdin population analysis ---
# oxidation-state Rb +0.091
# magnetic-moments Rb -0.595

End date and time: Sun Feb  6 12:35:49 2022  (Duration: 0-0:00:57.37)
Done!
