
*************** JDFTx 1.6.0 (git hash 42ebbcc2) ***************

Start date and time: Sun Feb  6 12:58:52 2022
Executable jdftx with command-line: -i Alkali.in
Running on hosts (process indices):  d-4-6-1 (0-18)
Divided in process groups (process indices):  0 (0)  1 (1)  2 (2)  3 (3)  4 (4)  5 (5)  6 (6)  7 (7)  8 (8)  9 (9)  10 (10)  11 (11)  12 (12)  13 (13)  14 (14)  15 (15)  16 (16)  17 (17)  18 (18)
Resource initialization completed at t[s]:      0.00
Run totals: 19 processes, 48 threads, 0 GPUs


Input parsed successfully to the following command list (including defaults):

basis kpoint-dependent
coords-type Lattice
core-overlap-check vector
coulomb-interaction Slab 001
davidson-band-ratio 1.1
dump End None
dump-name $INPUT.$VAR
elec-cutoff 20
elec-eigen-algo Davidson
elec-ex-corr gga-PBE
elec-initial-magnetization 0.900000 yes
elec-smearing Fermi 1e-05
electronic-minimize  \
	dirUpdateScheme      FletcherReeves \
	linminMethod         DirUpdateRecommended \
	nIterations          100 \
	history              15 \
	knormThreshold       0 \
	energyDiffThreshold  1e-08 \
	nEnergyDiff          2 \
	alphaTstart          1 \
	alphaTmin            1e-10 \
	updateTestStepSize   yes \
	alphaTreduceFactor   0.1 \
	alphaTincreaseFactor 3 \
	nAlphaAdjustMax      3 \
	wolfeEnergy          0.0001 \
	wolfeGradient        0.9 \
	fdTest               no
electronic-scf  \
	nIterations	10000 \
	energyDiffThreshold	1e-08 \
	residualThreshold	1e-07 \
	mixFraction	0.5 \
	qMetric	0.8 \
	history	10 \
	nEigSteps	2 \
	eigDiffThreshold	1e-08 \
	mixedVariable	Density \
	qKerker	0.8 \
	qKappa	-1 \
	verbose	no \
	mixFractionMag	1.5
exchange-regularization WignerSeitzTruncated
fluid None
fluid-ex-corr (null) lda-PZ
fluid-gummel-loop 10 1.000000e-05
fluid-minimize  \
	dirUpdateScheme      PolakRibiere \
	linminMethod         DirUpdateRecommended \
	nIterations          100 \
	history              15 \
	knormThreshold       0 \
	energyDiffThreshold  0 \
	nEnergyDiff          2 \
	alphaTstart          1 \
	alphaTmin            1e-10 \
	updateTestStepSize   yes \
	alphaTreduceFactor   0.1 \
	alphaTincreaseFactor 3 \
	nAlphaAdjustMax      3 \
	wolfeEnergy          0.0001 \
	wolfeGradient        0.9 \
	fdTest               no
fluid-solvent H2O 55.338 ScalarEOS \
	epsBulk 78.4 \
	pMol 0.92466 \
	epsInf 1.77 \
	Pvap 1.06736e-10 \
	sigmaBulk 4.62e-05 \
	Rvdw 2.61727 \
	Res 1.42 \
	tauNuc 343133 \
	poleEl 15 7 1
forces-output-coords Positions
ion Rb   0.000000000000000   0.000000000000000   0.000000000000000 0
ion-species SG15/$ID_ONCV_PBE.upf
ion-width 0
ionic-minimize  \
	dirUpdateScheme      L-BFGS \
	linminMethod         DirUpdateRecommended \
	nIterations          0 \
	history              15 \
	knormThreshold       0.0001 \
	energyDiffThreshold  1e-06 \
	nEnergyDiff          2 \
	alphaTstart          1 \
	alphaTmin            1e-10 \
	updateTestStepSize   yes \
	alphaTreduceFactor   0.1 \
	alphaTincreaseFactor 3 \
	nAlphaAdjustMax      3 \
	wolfeEnergy          0.0001 \
	wolfeGradient        0.9 \
	fdTest               no
kpoint   0.000000000000   0.000000000000   0.000000000000  1.00000000000000
kpoint-folding 12 12 1 
latt-move-scale 1 1 1
latt-scale 2 2 1 
lattice  \
	   4.727486978767153   -2.363743489383575    0.000000000000000  \
	  -0.000000000000000    4.094123819672498    0.000000000000000  \
	   0.000000000000000    0.000000000000000   40.000000000000000 
lattice-minimize  \
	dirUpdateScheme      L-BFGS \
	linminMethod         DirUpdateRecommended \
	nIterations          0 \
	history              15 \
	knormThreshold       0 \
	energyDiffThreshold  1e-06 \
	nEnergyDiff          2 \
	alphaTstart          1 \
	alphaTmin            1e-10 \
	updateTestStepSize   yes \
	alphaTreduceFactor   0.1 \
	alphaTincreaseFactor 3 \
	nAlphaAdjustMax      3 \
	wolfeEnergy          0.0001 \
	wolfeGradient        0.9 \
	fdTest               no
lcao-params -1 1e-06 1e-05
pcm-variant GLSSA13
spintype z-spin
subspace-rotation-factor 1 yes
symmetries automatic
symmetry-threshold 0.0001



---------- Setting up symmetries ----------

Found 24 point-group symmetries of the bravais lattice
Found 24 space-group symmetries with basis
Applied RMS atom displacement 0 bohrs to make symmetries exact.

---------- Initializing the Grid ----------
R = 
[      9.45497     -4.72749            0  ]
[            0      8.18825            0  ]
[            0            0           40  ]
unit cell volume = 3096.79
G =
[   0.664538   0.383671         -0  ]
[          0   0.767342         -0  ]
[         -0         -0    0.15708  ]
Minimum fftbox size, Smin = [  40  40  164  ]
Chosen fftbox size, S = [  40  40  168  ]

---------- Exchange Correlation functional ----------
Initalized PBE GGA exchange.
Initalized PBE GGA correlation.

---------- Setting up pseudopotentials ----------
Width of ionic core gaussian charges (only for fluid interactions / plotting) set to 0

Reading pseudopotential file '/home/gridsan/aligho/DFT/build-Nov24/pseudopotentials/SG15/Rb_ONCV_PBE.upf':
  'Rb' pseudopotential, 'PBE' functional
  Generated using ONCVPSP code by D. R. Hamann
  Author: Martin Schlipf and Francois Gygi  Date: 150915.
  9 valence electrons, 3 orbitals, 6 projectors, 2308 radial grid points, with lMax = 2
  Transforming local potential to a uniform radial grid of dG=0.02 with 1489 points.
  Transforming nonlocal projectors to a uniform radial grid of dG=0.02 with 432 points.
    4S    l: 0   occupation:  2.0   eigenvalue: -1.172069
    4P    l: 1   occupation:  6.0   eigenvalue: -0.586674
    5S    l: 0   occupation:  1.0   eigenvalue: -0.082006
  Transforming atomic orbitals to a uniform radial grid of dG=0.02 with 432 points.
  Core radius for overlap checks: 2.60 bohrs.
  Reading pulay file /home/gridsan/aligho/DFT/build-Nov24/pseudopotentials/SG15/Rb_ONCV_PBE.pulay ... using dE_dnG = -1.360715e-05 computed for Ecut = 20.

Initialized 1 species with 1 total atoms.

Folded 1 k-points by 12x12x1 to 144 k-points.

---------- Setting up k-points, bands, fillings ----------
Reduced to 19 k-points under symmetry. 
Computing the number of bands and number of electrons
Calculating initial fillings.
nElectrons:   9.000000   nBands: 6   nStates: 38

----- Setting up reduced wavefunction bases (one per k-point) -----
average nbasis = 13230.521 , ideal nbasis = 13229.709

---------- Setting up coulomb interaction ----------
Initialized slab truncation along lattice direction 001

---------- Setting up 2D ewald sum ----------
Optimum gaussian width for ewald sums = 5.249020 bohr.
Real space sums over 289 unit cells with max indices [  8  8  0  ]
Reciprocal space sums over 81 terms with max indices [  4  4  0  ]

---------- Allocating electronic variables ----------
Initializing wave functions:  linear combination of atomic orbitals
Note: number of bands (6) exceeds available atomic orbitals (5)
Rb pseudo-atom occupations:   s ( 2 1 )  p ( 6 )
	FillingsUpdate:  mu: -0.090113113  nElectrons: 9.000000  magneticMoment: [ Abs: 0.90000  Tot: +0.90000 ]
LCAOMinimize: Iter:   0  F: -24.4318420566164924  |grad|_K:  9.117e-06  alpha:  1.000e+00
	FillingsUpdate:  mu: -0.090110139  nElectrons: 9.000000  magneticMoment: [ Abs: 0.90000  Tot: +0.90000 ]
LCAOMinimize: Iter:   1  F: -24.4318421124917329  |grad|_K:  9.208e-08  alpha:  9.828e-01  linmin: -8.267e-03  cgtest:  1.681e-01  t[s]:      4.62
LCAOMinimize: Encountered beta<0, resetting CG.
	FillingsUpdate:  mu: -0.090110167  nElectrons: 9.000000  magneticMoment: [ Abs: 0.90000  Tot: +0.90000 ]
LCAOMinimize: Iter:   2  F: -24.4318421124974563  |grad|_K:  1.709e-09  alpha:  1.015e+00  linmin:  6.629e-02  cgtest: -9.035e-01  t[s]:      5.84
LCAOMinimize: Converged (|Delta F|<1.000000e-06 for 2 iters).


---- Citations for features of the code used in this run ----

   Software package:
      R. Sundararaman, K. Letchworth-Weaver, K.A. Schwarz, D. Gunceler, Y. Ozhabes and T.A. Arias, 'JDFTx: software for joint density-functional theory', SoftwareX 6, 278 (2017)

   gga-PBE exchange-correlation functional:
      J.P. Perdew, K. Burke and M. Ernzerhof, Phys. Rev. Lett. 77, 3865 (1996)

   Pseudopotentials:
      M Schlipf and F Gygi, Comput. Phys. Commun. 196, 36 (2015)

   Truncated Coulomb potentials:
      R. Sundararaman and T.A. Arias, Phys. Rev. B 87, 165122 (2013)

This list may not be complete. Please suggest additional citations or
report any other bugs at https://github.com/shankar1729/jdftx/issues

Initialization completed successfully at t[s]:      5.93


-------- Electronic minimization -----------
Will mix electronic density at each iteration.
	FillingsUpdate:  mu: -0.090110167  nElectrons: 9.000000  magneticMoment: [ Abs: 0.90000  Tot: +0.90000 ]
	FillingsUpdate:  mu: -0.105250753  nElectrons: 9.000000  magneticMoment: [ Abs: 0.90000  Tot: +0.90000 ]
SCF: Cycle:  0   F: -24.442521533343335   dF: -1.068e-02   |Residual|: 1.688e-02   |deigs|: 1.776e-01  t[s]:      8.42
	FillingsUpdate:  mu: -0.106950844  nElectrons: 9.000000  magneticMoment: [ Abs: 0.90000  Tot: +0.90000 ]
SCF: Cycle:  1   F: -24.443180538525883   dF: -6.590e-04   |Residual|: 1.209e-02   |deigs|: 7.801e-03  t[s]:     10.33
	FillingsUpdate:  mu: -0.106171856  nElectrons: 9.000000  magneticMoment: [ Abs: 0.90304  Tot: +0.90000 ]
SCF: Cycle:  2   F: -24.443412808948967   dF: -2.323e-04   |Residual|: 7.327e-03   |deigs|: 2.449e-03  t[s]:     12.21
	FillingsUpdate:  mu: -0.107412764  nElectrons: 9.000000  magneticMoment: [ Abs: 0.90010  Tot: +0.90000 ]
SCF: Cycle:  3   F: -24.443514747119018   dF: -1.019e-04   |Residual|: 4.208e-03   |deigs|: 2.515e-03  t[s]:     14.08
	FillingsUpdate:  mu: -0.102352243  nElectrons: 9.000000  magneticMoment: [ Abs: 0.90024  Tot: +0.90000 ]
SCF: Cycle:  4   F: -24.443698679181718   dF: -1.839e-04   |Residual|: 2.778e-03   |deigs|: 3.773e-03  t[s]:     16.11
	FillingsUpdate:  mu: -0.104176853  nElectrons: 9.000000  magneticMoment: [ Abs: 0.90000  Tot: +0.90000 ]
SCF: Cycle:  5   F: -24.443622028122022   dF: +7.665e-05   |Residual|: 3.546e-03   |deigs|: 3.075e-03  t[s]:     18.04
	FillingsUpdate:  mu: -0.102141961  nElectrons: 9.000000  magneticMoment: [ Abs: 0.90156  Tot: +0.90000 ]
SCF: Cycle:  6   F: -24.443636229423632   dF: -1.420e-05   |Residual|: 2.883e-03   |deigs|: 1.886e-03  t[s]:     20.04
	FillingsUpdate:  mu: -0.101236764  nElectrons: 9.000000  magneticMoment: [ Abs: 0.90285  Tot: +0.90000 ]
SCF: Cycle:  7   F: -24.443647414459825   dF: -1.119e-05   |Residual|: 2.772e-03   |deigs|: 1.361e-03  t[s]:     22.02
	FillingsUpdate:  mu: -0.098776014  nElectrons: 9.000000  magneticMoment: [ Abs: 0.90171  Tot: +0.90000 ]
SCF: Cycle:  8   F: -24.443653639434515   dF: -6.225e-06   |Residual|: 1.815e-03   |deigs|: 2.844e-03  t[s]:     24.02
	FillingsUpdate:  mu: -0.097019733  nElectrons: 9.000000  magneticMoment: [ Abs: 0.90013  Tot: +0.90000 ]
SCF: Cycle:  9   F: -24.443664303547173   dF: -1.066e-05   |Residual|: 1.447e-03   |deigs|: 2.001e-03  t[s]:     26.05
	FillingsUpdate:  mu: -0.095480278  nElectrons: 9.000000  magneticMoment: [ Abs: 0.90059  Tot: +0.90000 ]
SCF: Cycle: 10   F: -24.443777867475436   dF: -1.136e-04   |Residual|: 1.483e-03   |deigs|: 1.537e-03  t[s]:     28.19
	FillingsUpdate:  mu: -0.096817515  nElectrons: 9.000000  magneticMoment: [ Abs: 0.90032  Tot: +0.90000 ]
SCF: Cycle: 11   F: -24.443674915285314   dF: +1.030e-04   |Residual|: 1.739e-03   |deigs|: 1.633e-03  t[s]:     30.33
	FillingsUpdate:  mu: -0.095653596  nElectrons: 9.000000  magneticMoment: [ Abs: 0.90102  Tot: +0.90000 ]
SCF: Cycle: 12   F: -24.443792171394723   dF: -1.173e-04   |Residual|: 7.119e-04   |deigs|: 1.146e-03  t[s]:     32.47
	FillingsUpdate:  mu: -0.096518150  nElectrons: 9.000000  magneticMoment: [ Abs: 0.90390  Tot: +0.90000 ]
SCF: Cycle: 13   F: -24.443792852485057   dF: -6.811e-07   |Residual|: 6.303e-04   |deigs|: 1.119e-03  t[s]:     34.54
	FillingsUpdate:  mu: -0.096740481  nElectrons: 9.000000  magneticMoment: [ Abs: 0.90548  Tot: +0.90000 ]
SCF: Cycle: 14   F: -24.443796373233472   dF: -3.521e-06   |Residual|: 9.730e-04   |deigs|: 3.960e-04  t[s]:     36.71
	FillingsUpdate:  mu: -0.096824065  nElectrons: 9.000000  magneticMoment: [ Abs: 0.90268  Tot: +0.90000 ]
SCF: Cycle: 15   F: -24.443800355361674   dF: -3.982e-06   |Residual|: 1.285e-03   |deigs|: 2.439e-04  t[s]:     38.78
	FillingsUpdate:  mu: -0.096389621  nElectrons: 9.000000  magneticMoment: [ Abs: 0.90199  Tot: +0.90000 ]
SCF: Cycle: 16   F: -24.443802687312964   dF: -2.332e-06   |Residual|: 1.281e-03   |deigs|: 4.767e-04  t[s]:     40.84
	FillingsUpdate:  mu: -0.095765299  nElectrons: 9.000000  magneticMoment: [ Abs: 0.90258  Tot: +0.90000 ]
SCF: Cycle: 17   F: -24.443804478449575   dF: -1.791e-06   |Residual|: 1.129e-03   |deigs|: 7.120e-04  t[s]:     42.97
	FillingsUpdate:  mu: -0.094264689  nElectrons: 9.000000  magneticMoment: [ Abs: 0.90280  Tot: +0.90000 ]
SCF: Cycle: 18   F: -24.443807037004948   dF: -2.559e-06   |Residual|: 6.915e-04   |deigs|: 1.594e-03  t[s]:     45.02
	FillingsUpdate:  mu: -0.092999522  nElectrons: 9.000000  magneticMoment: [ Abs: 0.90258  Tot: +0.90000 ]
SCF: Cycle: 19   F: -24.443807958354572   dF: -9.213e-07   |Residual|: 3.275e-04   |deigs|: 1.393e-03  t[s]:     47.09
	FillingsUpdate:  mu: -0.092086006  nElectrons: 9.000000  magneticMoment: [ Abs: 0.90182  Tot: +0.90000 ]
SCF: Cycle: 20   F: -24.443808284046810   dF: -3.257e-07   |Residual|: 1.207e-04   |deigs|: 1.003e-03  t[s]:     49.14
	FillingsUpdate:  mu: -0.091604260  nElectrons: 9.000000  magneticMoment: [ Abs: 0.90094  Tot: +0.90000 ]
SCF: Cycle: 21   F: -24.443808701691186   dF: -4.176e-07   |Residual|: 6.990e-05   |deigs|: 5.079e-04  t[s]:     51.21
	FillingsUpdate:  mu: -0.091791428  nElectrons: 9.000000  magneticMoment: [ Abs: 0.90055  Tot: +0.90000 ]
SCF: Cycle: 22   F: -24.443808949539520   dF: -2.478e-07   |Residual|: 3.861e-05   |deigs|: 2.524e-04  t[s]:     53.30
	FillingsUpdate:  mu: -0.091828345  nElectrons: 9.000000  magneticMoment: [ Abs: 0.90021  Tot: +0.90000 ]
SCF: Cycle: 23   F: -24.443809075616098   dF: -1.261e-07   |Residual|: 2.152e-05   |deigs|: 1.291e-04  t[s]:     55.42
	FillingsUpdate:  mu: -0.091825577  nElectrons: 9.000000  magneticMoment: [ Abs: 0.90010  Tot: +0.90000 ]
SCF: Cycle: 24   F: -24.443809111519453   dF: -3.590e-08   |Residual|: 1.056e-05   |deigs|: 4.325e-05  t[s]:     57.54
	FillingsUpdate:  mu: -0.091826913  nElectrons: 9.000000  magneticMoment: [ Abs: 0.90009  Tot: +0.90000 ]
SCF: Cycle: 25   F: -24.443809120741118   dF: -9.222e-09   |Residual|: 6.614e-06   |deigs|: 4.016e-05  t[s]:     59.58
	FillingsUpdate:  mu: -0.091829700  nElectrons: 9.000000  magneticMoment: [ Abs: 0.90008  Tot: +0.90000 ]
SCF: Cycle: 26   F: -24.443809128243004   dF: -7.502e-09   |Residual|: 5.157e-06   |deigs|: 4.008e-05  t[s]:     61.72
SCF: Converged (|Delta E|<1.000000e-08 for 2 iters).


# Ionic positions in lattice coordinates:
ion Rb   0.000000000000000   0.000000000000000   0.000000000000000 0

# Forces in Lattice coordinates:
force Rb  -0.000000000000000  -0.000000000000000   0.000000000000000 0

# Energy components:
   Eewald =      -18.0480261003326561
       EH =        1.6217550318032965
     Eloc =      -10.5328102284566700
      Enl =       -0.8006366463409764
   Epulay =        0.0000000035676145
      Exc =       -3.6818653885912065
       KE =        6.9977748381608400
-------------------------------------
     Etot =      -24.4438084901897561
       TS =        0.0000006380532459
-------------------------------------
        F =      -24.4438091282430037

IonicMinimize: Iter:   0  F: -24.443809128243004  |grad|_K:  0.000e+00  t[s]:     61.84
IonicMinimize: Converged (|grad|_K<1.000000e-04).

#--- Lowdin population analysis ---
# oxidation-state Rb +0.170
# magnetic-moments Rb +0.733

End date and time: Sun Feb  6 12:59:54 2022  (Duration: 0-0:01:01.86)
Done!
