
*************** JDFTx 1.6.0 (git hash 42ebbcc2) ***************

Start date and time: Sun Feb  6 12:41:28 2022
Executable jdftx with command-line: -i Alkali.in
Running on hosts (process indices):  d-6-2-2 (0-18)
Divided in process groups (process indices):  0 (0)  1 (1)  2 (2)  3 (3)  4 (4)  5 (5)  6 (6)  7 (7)  8 (8)  9 (9)  10 (10)  11 (11)  12 (12)  13 (13)  14 (14)  15 (15)  16 (16)  17 (17)  18 (18)
Resource initialization completed at t[s]:      0.00
Run totals: 19 processes, 48 threads, 0 GPUs


Input parsed successfully to the following command list (including defaults):

basis kpoint-dependent
coords-type Lattice
core-overlap-check vector
coulomb-interaction Slab 001
davidson-band-ratio 1.1
dump End None
dump-name $INPUT.$VAR
elec-cutoff 20
elec-eigen-algo Davidson
elec-ex-corr gga-PBE
elec-initial-magnetization -0.400000 yes
elec-smearing Fermi 1e-05
electronic-minimize  \
	dirUpdateScheme      FletcherReeves \
	linminMethod         DirUpdateRecommended \
	nIterations          100 \
	history              15 \
	knormThreshold       0 \
	energyDiffThreshold  1e-08 \
	nEnergyDiff          2 \
	alphaTstart          1 \
	alphaTmin            1e-10 \
	updateTestStepSize   yes \
	alphaTreduceFactor   0.1 \
	alphaTincreaseFactor 3 \
	nAlphaAdjustMax      3 \
	wolfeEnergy          0.0001 \
	wolfeGradient        0.9 \
	fdTest               no
electronic-scf  \
	nIterations	10000 \
	energyDiffThreshold	1e-08 \
	residualThreshold	1e-07 \
	mixFraction	0.5 \
	qMetric	0.8 \
	history	10 \
	nEigSteps	2 \
	eigDiffThreshold	1e-08 \
	mixedVariable	Density \
	qKerker	0.8 \
	qKappa	-1 \
	verbose	no \
	mixFractionMag	1.5
exchange-regularization WignerSeitzTruncated
fluid None
fluid-ex-corr (null) lda-PZ
fluid-gummel-loop 10 1.000000e-05
fluid-minimize  \
	dirUpdateScheme      PolakRibiere \
	linminMethod         DirUpdateRecommended \
	nIterations          100 \
	history              15 \
	knormThreshold       0 \
	energyDiffThreshold  0 \
	nEnergyDiff          2 \
	alphaTstart          1 \
	alphaTmin            1e-10 \
	updateTestStepSize   yes \
	alphaTreduceFactor   0.1 \
	alphaTincreaseFactor 3 \
	nAlphaAdjustMax      3 \
	wolfeEnergy          0.0001 \
	wolfeGradient        0.9 \
	fdTest               no
fluid-solvent H2O 55.338 ScalarEOS \
	epsBulk 78.4 \
	pMol 0.92466 \
	epsInf 1.77 \
	Pvap 1.06736e-10 \
	sigmaBulk 4.62e-05 \
	Rvdw 2.61727 \
	Res 1.42 \
	tauNuc 343133 \
	poleEl 15 7 1
forces-output-coords Positions
ion Rb   0.000000000000000   0.000000000000000   0.000000000000000 0
ion-species SG15/$ID_ONCV_PBE.upf
ion-width 0
ionic-minimize  \
	dirUpdateScheme      L-BFGS \
	linminMethod         DirUpdateRecommended \
	nIterations          0 \
	history              15 \
	knormThreshold       0.0001 \
	energyDiffThreshold  1e-06 \
	nEnergyDiff          2 \
	alphaTstart          1 \
	alphaTmin            1e-10 \
	updateTestStepSize   yes \
	alphaTreduceFactor   0.1 \
	alphaTincreaseFactor 3 \
	nAlphaAdjustMax      3 \
	wolfeEnergy          0.0001 \
	wolfeGradient        0.9 \
	fdTest               no
kpoint   0.000000000000   0.000000000000   0.000000000000  1.00000000000000
kpoint-folding 12 12 1 
latt-move-scale 1 1 1
latt-scale 2 2 1 
lattice  \
	   4.727486978767153   -2.363743489383575    0.000000000000000  \
	  -0.000000000000000    4.094123819672498    0.000000000000000  \
	   0.000000000000000    0.000000000000000   40.000000000000000 
lattice-minimize  \
	dirUpdateScheme      L-BFGS \
	linminMethod         DirUpdateRecommended \
	nIterations          0 \
	history              15 \
	knormThreshold       0 \
	energyDiffThreshold  1e-06 \
	nEnergyDiff          2 \
	alphaTstart          1 \
	alphaTmin            1e-10 \
	updateTestStepSize   yes \
	alphaTreduceFactor   0.1 \
	alphaTincreaseFactor 3 \
	nAlphaAdjustMax      3 \
	wolfeEnergy          0.0001 \
	wolfeGradient        0.9 \
	fdTest               no
lcao-params -1 1e-06 1e-05
pcm-variant GLSSA13
spintype z-spin
subspace-rotation-factor 1 yes
symmetries automatic
symmetry-threshold 0.0001



---------- Setting up symmetries ----------

Found 24 point-group symmetries of the bravais lattice
Found 24 space-group symmetries with basis
Applied RMS atom displacement 0 bohrs to make symmetries exact.

---------- Initializing the Grid ----------
R = 
[      9.45497     -4.72749            0  ]
[            0      8.18825            0  ]
[            0            0           40  ]
unit cell volume = 3096.79
G =
[   0.664538   0.383671         -0  ]
[          0   0.767342         -0  ]
[         -0         -0    0.15708  ]
Minimum fftbox size, Smin = [  40  40  164  ]
Chosen fftbox size, S = [  40  40  168  ]

---------- Exchange Correlation functional ----------
Initalized PBE GGA exchange.
Initalized PBE GGA correlation.

---------- Setting up pseudopotentials ----------
Width of ionic core gaussian charges (only for fluid interactions / plotting) set to 0

Reading pseudopotential file '/home/gridsan/aligho/DFT/build-Nov24/pseudopotentials/SG15/Rb_ONCV_PBE.upf':
  'Rb' pseudopotential, 'PBE' functional
  Generated using ONCVPSP code by D. R. Hamann
  Author: Martin Schlipf and Francois Gygi  Date: 150915.
  9 valence electrons, 3 orbitals, 6 projectors, 2308 radial grid points, with lMax = 2
  Transforming local potential to a uniform radial grid of dG=0.02 with 1489 points.
  Transforming nonlocal projectors to a uniform radial grid of dG=0.02 with 432 points.
    4S    l: 0   occupation:  2.0   eigenvalue: -1.172069
    4P    l: 1   occupation:  6.0   eigenvalue: -0.586674
    5S    l: 0   occupation:  1.0   eigenvalue: -0.082006
  Transforming atomic orbitals to a uniform radial grid of dG=0.02 with 432 points.
  Core radius for overlap checks: 2.60 bohrs.
  Reading pulay file /home/gridsan/aligho/DFT/build-Nov24/pseudopotentials/SG15/Rb_ONCV_PBE.pulay ... using dE_dnG = -1.360715e-05 computed for Ecut = 20.

Initialized 1 species with 1 total atoms.

Folded 1 k-points by 12x12x1 to 144 k-points.

---------- Setting up k-points, bands, fillings ----------
Reduced to 19 k-points under symmetry. 
Computing the number of bands and number of electrons
Calculating initial fillings.
nElectrons:   9.000000   nBands: 6   nStates: 38

----- Setting up reduced wavefunction bases (one per k-point) -----
average nbasis = 13230.521 , ideal nbasis = 13229.709

---------- Setting up coulomb interaction ----------
Initialized slab truncation along lattice direction 001

---------- Setting up 2D ewald sum ----------
Optimum gaussian width for ewald sums = 5.249020 bohr.
Real space sums over 289 unit cells with max indices [  8  8  0  ]
Reciprocal space sums over 81 terms with max indices [  4  4  0  ]

---------- Allocating electronic variables ----------
Initializing wave functions:  linear combination of atomic orbitals
Note: number of bands (6) exceeds available atomic orbitals (5)
Rb pseudo-atom occupations:   s ( 2 1 )  p ( 6 )
	FillingsUpdate:  mu: -0.091162523  nElectrons: 9.000000  magneticMoment: [ Abs: 0.40000  Tot: -0.40000 ]
LCAOMinimize: Iter:   0  F: -24.4464941809838372  |grad|_K:  3.549e-05  alpha:  1.000e+00
	FillingsUpdate:  mu: -0.091149556  nElectrons: 9.000000  magneticMoment: [ Abs: 0.40000  Tot: -0.40000 ]
LCAOMinimize: Iter:   1  F: -24.4464950218391763  |grad|_K:  3.477e-07  alpha:  9.764e-01  linmin: -3.684e-02  cgtest:  4.306e-01  t[s]:      4.64
LCAOMinimize: Encountered beta<0, resetting CG.
	FillingsUpdate:  mu: -0.091149605  nElectrons: 9.000000  magneticMoment: [ Abs: 0.40000  Tot: -0.40000 ]
LCAOMinimize: Iter:   2  F: -24.4464950219220434  |grad|_K:  4.732e-10  alpha:  1.001e+00  linmin: -1.995e-02  cgtest:  1.660e-01  t[s]:      5.86
LCAOMinimize: Encountered beta<0, resetting CG.
LCAOMinimize: Converged (|Delta F|<1.000000e-06 for 2 iters).


---- Citations for features of the code used in this run ----

   Software package:
      R. Sundararaman, K. Letchworth-Weaver, K.A. Schwarz, D. Gunceler, Y. Ozhabes and T.A. Arias, 'JDFTx: software for joint density-functional theory', SoftwareX 6, 278 (2017)

   gga-PBE exchange-correlation functional:
      J.P. Perdew, K. Burke and M. Ernzerhof, Phys. Rev. Lett. 77, 3865 (1996)

   Pseudopotentials:
      M Schlipf and F Gygi, Comput. Phys. Commun. 196, 36 (2015)

   Truncated Coulomb potentials:
      R. Sundararaman and T.A. Arias, Phys. Rev. B 87, 165122 (2013)

This list may not be complete. Please suggest additional citations or
report any other bugs at https://github.com/shankar1729/jdftx/issues

Initialization completed successfully at t[s]:      5.96


-------- Electronic minimization -----------
Will mix electronic density at each iteration.
	FillingsUpdate:  mu: -0.091149605  nElectrons: 9.000000  magneticMoment: [ Abs: 0.40000  Tot: -0.40000 ]
	FillingsUpdate:  mu: -0.102125447  nElectrons: 9.000000  magneticMoment: [ Abs: 0.40000  Tot: -0.40000 ]
SCF: Cycle:  0   F: -24.452307014632272   dF: -5.812e-03   |Residual|: 1.051e-02   |deigs|: 1.791e-01  t[s]:      8.39
	FillingsUpdate:  mu: -0.101846675  nElectrons: 9.000000  magneticMoment: [ Abs: 0.40000  Tot: -0.40000 ]
SCF: Cycle:  1   F: -24.452540712312160   dF: -2.337e-04   |Residual|: 7.716e-03   |deigs|: 7.021e-03  t[s]:     10.31
	FillingsUpdate:  mu: -0.100390193  nElectrons: 9.000000  magneticMoment: [ Abs: 0.40287  Tot: -0.40000 ]
SCF: Cycle:  2   F: -24.452638846799744   dF: -9.813e-05   |Residual|: 4.269e-03   |deigs|: 2.063e-03  t[s]:     12.29
	FillingsUpdate:  mu: -0.099349391  nElectrons: 9.000000  magneticMoment: [ Abs: 0.40010  Tot: -0.40000 ]
SCF: Cycle:  3   F: -24.452699981890500   dF: -6.114e-05   |Residual|: 2.714e-03   |deigs|: 1.768e-03  t[s]:     14.22
	FillingsUpdate:  mu: -0.097626405  nElectrons: 9.000000  magneticMoment: [ Abs: 0.40006  Tot: -0.40000 ]
SCF: Cycle:  4   F: -24.452734257272446   dF: -3.428e-05   |Residual|: 2.068e-03   |deigs|: 3.128e-03  t[s]:     16.20
	FillingsUpdate:  mu: -0.096412516  nElectrons: 9.000000  magneticMoment: [ Abs: 0.40080  Tot: -0.40000 ]
SCF: Cycle:  5   F: -24.452751542435362   dF: -1.729e-05   |Residual|: 1.529e-03   |deigs|: 3.401e-03  t[s]:     18.18
	FillingsUpdate:  mu: -0.093891996  nElectrons: 9.000000  magneticMoment: [ Abs: 0.40657  Tot: -0.40000 ]
SCF: Cycle:  6   F: -24.452750361364071   dF: +1.181e-06   |Residual|: 1.097e-03   |deigs|: 3.569e-03  t[s]:     20.25
	FillingsUpdate:  mu: -0.092102652  nElectrons: 9.000000  magneticMoment: [ Abs: 0.40608  Tot: -0.40000 ]
SCF: Cycle:  7   F: -24.452766713266186   dF: -1.635e-05   |Residual|: 1.048e-03   |deigs|: 2.085e-03  t[s]:     22.25
	FillingsUpdate:  mu: -0.092175122  nElectrons: 9.000000  magneticMoment: [ Abs: 0.40155  Tot: -0.40000 ]
SCF: Cycle:  8   F: -24.452775741615486   dF: -9.028e-06   |Residual|: 8.577e-04   |deigs|: 5.840e-04  t[s]:     24.40
	FillingsUpdate:  mu: -0.090867986  nElectrons: 9.000000  magneticMoment: [ Abs: 0.40265  Tot: -0.40000 ]
SCF: Cycle:  9   F: -24.452779369946416   dF: -3.628e-06   |Residual|: 7.199e-04   |deigs|: 1.307e-03  t[s]:     26.47
	FillingsUpdate:  mu: -0.089564104  nElectrons: 9.000000  magneticMoment: [ Abs: 0.40394  Tot: -0.40000 ]
SCF: Cycle: 10   F: -24.452778292267549   dF: +1.078e-06   |Residual|: 5.946e-04   |deigs|: 1.373e-03  t[s]:     28.60
	FillingsUpdate:  mu: -0.088468020  nElectrons: 9.000000  magneticMoment: [ Abs: 0.40322  Tot: -0.40000 ]
SCF: Cycle: 11   F: -24.452781155357417   dF: -2.863e-06   |Residual|: 5.287e-04   |deigs|: 1.164e-03  t[s]:     30.69
	FillingsUpdate:  mu: -0.087008456  nElectrons: 9.000000  magneticMoment: [ Abs: 0.40303  Tot: -0.40000 ]
SCF: Cycle: 12   F: -24.452792830917598   dF: -1.168e-05   |Residual|: 4.656e-04   |deigs|: 1.461e-03  t[s]:     32.78
	FillingsUpdate:  mu: -0.085710839  nElectrons: 9.000000  magneticMoment: [ Abs: 0.40316  Tot: -0.40000 ]
SCF: Cycle: 13   F: -24.452798832490689   dF: -6.002e-06   |Residual|: 4.386e-04   |deigs|: 1.299e-03  t[s]:     34.89
	FillingsUpdate:  mu: -0.084426096  nElectrons: 9.000000  magneticMoment: [ Abs: 0.40130  Tot: -0.40000 ]
SCF: Cycle: 14   F: -24.452802931431997   dF: -4.099e-06   |Residual|: 3.832e-04   |deigs|: 1.311e-03  t[s]:     36.98
	FillingsUpdate:  mu: -0.083368709  nElectrons: 9.000000  magneticMoment: [ Abs: 0.40063  Tot: -0.40000 ]
SCF: Cycle: 15   F: -24.452806068243806   dF: -3.137e-06   |Residual|: 2.738e-04   |deigs|: 1.135e-03  t[s]:     39.01
	FillingsUpdate:  mu: -0.083053733  nElectrons: 9.000000  magneticMoment: [ Abs: 0.40079  Tot: -0.40000 ]
SCF: Cycle: 16   F: -24.452807338995743   dF: -1.271e-06   |Residual|: 1.929e-04   |deigs|: 4.505e-04  t[s]:     41.06
	FillingsUpdate:  mu: -0.083069239  nElectrons: 9.000000  magneticMoment: [ Abs: 0.40003  Tot: -0.40000 ]
SCF: Cycle: 17   F: -24.452807947916853   dF: -6.089e-07   |Residual|: 1.139e-04   |deigs|: 5.786e-04  t[s]:     43.11
	FillingsUpdate:  mu: -0.082997196  nElectrons: 9.000000  magneticMoment: [ Abs: 0.40005  Tot: -0.40000 ]
SCF: Cycle: 18   F: -24.452808196236859   dF: -2.483e-07   |Residual|: 7.797e-05   |deigs|: 3.255e-04  t[s]:     45.11
	FillingsUpdate:  mu: -0.082975597  nElectrons: 9.000000  magneticMoment: [ Abs: 0.40011  Tot: -0.40000 ]
SCF: Cycle: 19   F: -24.452808259011022   dF: -6.277e-08   |Residual|: 4.436e-05   |deigs|: 2.560e-04  t[s]:     47.16
	FillingsUpdate:  mu: -0.082949732  nElectrons: 9.000000  magneticMoment: [ Abs: 0.40017  Tot: -0.40000 ]
SCF: Cycle: 20   F: -24.452808325618726   dF: -6.661e-08   |Residual|: 2.340e-05   |deigs|: 1.946e-04  t[s]:     49.23
	FillingsUpdate:  mu: -0.082944645  nElectrons: 9.000000  magneticMoment: [ Abs: 0.40020  Tot: -0.40000 ]
SCF: Cycle: 21   F: -24.452808338137491   dF: -1.252e-08   |Residual|: 1.321e-05   |deigs|: 1.682e-04  t[s]:     51.26
	FillingsUpdate:  mu: -0.082940099  nElectrons: 9.000000  magneticMoment: [ Abs: 0.40021  Tot: -0.40000 ]
SCF: Cycle: 22   F: -24.452808344576994   dF: -6.440e-09   |Residual|: 8.384e-06   |deigs|: 1.534e-04  t[s]:     53.40
	FillingsUpdate:  mu: -0.082936990  nElectrons: 9.000000  magneticMoment: [ Abs: 0.40020  Tot: -0.40000 ]
SCF: Cycle: 23   F: -24.452808345898614   dF: -1.322e-09   |Residual|: 5.960e-06   |deigs|: 1.168e-04  t[s]:     55.45
SCF: Converged (|Delta E|<1.000000e-08 for 2 iters).


# Ionic positions in lattice coordinates:
ion Rb   0.000000000000000   0.000000000000000   0.000000000000000 0

# Forces in Lattice coordinates:
force Rb   0.000000000000000   0.000000000000000   0.000000000000000 0

# Energy components:
   Eewald =      -18.0480261003326561
       EH =        1.6529024177293357
     Eloc =      -10.5645607144055074
      Enl =       -0.7965865708033923
   Epulay =        0.0000000035676145
      Exc =       -3.6774955011570967
       KE =        6.9809587104175765
-------------------------------------
     Etot =      -24.4528077549841285
       TS =        0.0000005909144852
-------------------------------------
        F =      -24.4528083458986139

IonicMinimize: Iter:   0  F: -24.452808345898614  |grad|_K:  0.000e+00  t[s]:     55.57
IonicMinimize: Converged (|grad|_K<1.000000e-04).

#--- Lowdin population analysis ---
# oxidation-state Rb +0.054
# magnetic-moments Rb -0.356

End date and time: Sun Feb  6 12:42:24 2022  (Duration: 0-0:00:55.59)
Done!
