
*************** JDFTx 1.6.0 (git hash 42ebbcc2) ***************

Start date and time: Sun Feb  6 12:48:06 2022
Executable jdftx with command-line: -i Alkali.in
Running on hosts (process indices):  d-18-7-1 (0-18)
Divided in process groups (process indices):  0 (0)  1 (1)  2 (2)  3 (3)  4 (4)  5 (5)  6 (6)  7 (7)  8 (8)  9 (9)  10 (10)  11 (11)  12 (12)  13 (13)  14 (14)  15 (15)  16 (16)  17 (17)  18 (18)
Resource initialization completed at t[s]:      0.00
Run totals: 19 processes, 48 threads, 0 GPUs


Input parsed successfully to the following command list (including defaults):

basis kpoint-dependent
coords-type Lattice
core-overlap-check vector
coulomb-interaction Slab 001
davidson-band-ratio 1.1
dump End None
dump-name $INPUT.$VAR
elec-cutoff 20
elec-eigen-algo Davidson
elec-ex-corr gga-PBE
elec-initial-magnetization 0.340000 yes
elec-smearing Fermi 1e-05
electronic-minimize  \
	dirUpdateScheme      FletcherReeves \
	linminMethod         DirUpdateRecommended \
	nIterations          100 \
	history              15 \
	knormThreshold       0 \
	energyDiffThreshold  1e-08 \
	nEnergyDiff          2 \
	alphaTstart          1 \
	alphaTmin            1e-10 \
	updateTestStepSize   yes \
	alphaTreduceFactor   0.1 \
	alphaTincreaseFactor 3 \
	nAlphaAdjustMax      3 \
	wolfeEnergy          0.0001 \
	wolfeGradient        0.9 \
	fdTest               no
electronic-scf  \
	nIterations	10000 \
	energyDiffThreshold	1e-08 \
	residualThreshold	1e-07 \
	mixFraction	0.5 \
	qMetric	0.8 \
	history	10 \
	nEigSteps	2 \
	eigDiffThreshold	1e-08 \
	mixedVariable	Density \
	qKerker	0.8 \
	qKappa	-1 \
	verbose	no \
	mixFractionMag	1.5
exchange-regularization WignerSeitzTruncated
fluid None
fluid-ex-corr (null) lda-PZ
fluid-gummel-loop 10 1.000000e-05
fluid-minimize  \
	dirUpdateScheme      PolakRibiere \
	linminMethod         DirUpdateRecommended \
	nIterations          100 \
	history              15 \
	knormThreshold       0 \
	energyDiffThreshold  0 \
	nEnergyDiff          2 \
	alphaTstart          1 \
	alphaTmin            1e-10 \
	updateTestStepSize   yes \
	alphaTreduceFactor   0.1 \
	alphaTincreaseFactor 3 \
	nAlphaAdjustMax      3 \
	wolfeEnergy          0.0001 \
	wolfeGradient        0.9 \
	fdTest               no
fluid-solvent H2O 55.338 ScalarEOS \
	epsBulk 78.4 \
	pMol 0.92466 \
	epsInf 1.77 \
	Pvap 1.06736e-10 \
	sigmaBulk 4.62e-05 \
	Rvdw 2.61727 \
	Res 1.42 \
	tauNuc 343133 \
	poleEl 15 7 1
forces-output-coords Positions
ion Rb   0.000000000000000   0.000000000000000   0.000000000000000 0
ion-species SG15/$ID_ONCV_PBE.upf
ion-width 0
ionic-minimize  \
	dirUpdateScheme      L-BFGS \
	linminMethod         DirUpdateRecommended \
	nIterations          0 \
	history              15 \
	knormThreshold       0.0001 \
	energyDiffThreshold  1e-06 \
	nEnergyDiff          2 \
	alphaTstart          1 \
	alphaTmin            1e-10 \
	updateTestStepSize   yes \
	alphaTreduceFactor   0.1 \
	alphaTincreaseFactor 3 \
	nAlphaAdjustMax      3 \
	wolfeEnergy          0.0001 \
	wolfeGradient        0.9 \
	fdTest               no
kpoint   0.000000000000   0.000000000000   0.000000000000  1.00000000000000
kpoint-folding 12 12 1 
latt-move-scale 1 1 1
latt-scale 2 2 1 
lattice  \
	   4.727486978767153   -2.363743489383575    0.000000000000000  \
	  -0.000000000000000    4.094123819672498    0.000000000000000  \
	   0.000000000000000    0.000000000000000   40.000000000000000 
lattice-minimize  \
	dirUpdateScheme      L-BFGS \
	linminMethod         DirUpdateRecommended \
	nIterations          0 \
	history              15 \
	knormThreshold       0 \
	energyDiffThreshold  1e-06 \
	nEnergyDiff          2 \
	alphaTstart          1 \
	alphaTmin            1e-10 \
	updateTestStepSize   yes \
	alphaTreduceFactor   0.1 \
	alphaTincreaseFactor 3 \
	nAlphaAdjustMax      3 \
	wolfeEnergy          0.0001 \
	wolfeGradient        0.9 \
	fdTest               no
lcao-params -1 1e-06 1e-05
pcm-variant GLSSA13
spintype z-spin
subspace-rotation-factor 1 yes
symmetries automatic
symmetry-threshold 0.0001



---------- Setting up symmetries ----------

Found 24 point-group symmetries of the bravais lattice
Found 24 space-group symmetries with basis
Applied RMS atom displacement 0 bohrs to make symmetries exact.

---------- Initializing the Grid ----------
R = 
[      9.45497     -4.72749            0  ]
[            0      8.18825            0  ]
[            0            0           40  ]
unit cell volume = 3096.79
G =
[   0.664538   0.383671         -0  ]
[          0   0.767342         -0  ]
[         -0         -0    0.15708  ]
Minimum fftbox size, Smin = [  40  40  164  ]
Chosen fftbox size, S = [  40  40  168  ]

---------- Exchange Correlation functional ----------
Initalized PBE GGA exchange.
Initalized PBE GGA correlation.

---------- Setting up pseudopotentials ----------
Width of ionic core gaussian charges (only for fluid interactions / plotting) set to 0

Reading pseudopotential file '/home/gridsan/aligho/DFT/build-Nov24/pseudopotentials/SG15/Rb_ONCV_PBE.upf':
  'Rb' pseudopotential, 'PBE' functional
  Generated using ONCVPSP code by D. R. Hamann
  Author: Martin Schlipf and Francois Gygi  Date: 150915.
  9 valence electrons, 3 orbitals, 6 projectors, 2308 radial grid points, with lMax = 2
  Transforming local potential to a uniform radial grid of dG=0.02 with 1489 points.
  Transforming nonlocal projectors to a uniform radial grid of dG=0.02 with 432 points.
    4S    l: 0   occupation:  2.0   eigenvalue: -1.172069
    4P    l: 1   occupation:  6.0   eigenvalue: -0.586674
    5S    l: 0   occupation:  1.0   eigenvalue: -0.082006
  Transforming atomic orbitals to a uniform radial grid of dG=0.02 with 432 points.
  Core radius for overlap checks: 2.60 bohrs.
  Reading pulay file /home/gridsan/aligho/DFT/build-Nov24/pseudopotentials/SG15/Rb_ONCV_PBE.pulay ... using dE_dnG = -1.360715e-05 computed for Ecut = 20.

Initialized 1 species with 1 total atoms.

Folded 1 k-points by 12x12x1 to 144 k-points.

---------- Setting up k-points, bands, fillings ----------
Reduced to 19 k-points under symmetry. 
Computing the number of bands and number of electrons
Calculating initial fillings.
nElectrons:   9.000000   nBands: 6   nStates: 38

----- Setting up reduced wavefunction bases (one per k-point) -----
average nbasis = 13230.521 , ideal nbasis = 13229.709

---------- Setting up coulomb interaction ----------
Initialized slab truncation along lattice direction 001

---------- Setting up 2D ewald sum ----------
Optimum gaussian width for ewald sums = 5.249020 bohr.
Real space sums over 289 unit cells with max indices [  8  8  0  ]
Reciprocal space sums over 81 terms with max indices [  4  4  0  ]

---------- Allocating electronic variables ----------
Initializing wave functions:  linear combination of atomic orbitals
Note: number of bands (6) exceeds available atomic orbitals (5)
Rb pseudo-atom occupations:   s ( 2 1 )  p ( 6 )
	FillingsUpdate:  mu: -0.092166665  nElectrons: 9.000000  magneticMoment: [ Abs: 0.34000  Tot: +0.34000 ]
LCAOMinimize: Iter:   0  F: -24.4476400622669487  |grad|_K:  3.858e-05  alpha:  1.000e+00
	FillingsUpdate:  mu: -0.092153559  nElectrons: 9.000000  magneticMoment: [ Abs: 0.34000  Tot: +0.34000 ]
LCAOMinimize: Iter:   1  F: -24.4476410569869387  |grad|_K:  4.160e-07  alpha:  9.772e-01  linmin: -3.372e-02  cgtest:  4.121e-01  t[s]:      4.72
LCAOMinimize: Encountered beta<0, resetting CG.
	FillingsUpdate:  mu: -0.092153641  nElectrons: 9.000000  magneticMoment: [ Abs: 0.34000  Tot: +0.34000 ]
LCAOMinimize: Iter:   2  F: -24.4476410571061855  |grad|_K:  2.922e-09  alpha:  1.008e+00  linmin:  1.421e-01  cgtest: -9.827e-01  t[s]:      5.92
LCAOMinimize: Converged (|Delta F|<1.000000e-06 for 2 iters).


---- Citations for features of the code used in this run ----

   Software package:
      R. Sundararaman, K. Letchworth-Weaver, K.A. Schwarz, D. Gunceler, Y. Ozhabes and T.A. Arias, 'JDFTx: software for joint density-functional theory', SoftwareX 6, 278 (2017)

   gga-PBE exchange-correlation functional:
      J.P. Perdew, K. Burke and M. Ernzerhof, Phys. Rev. Lett. 77, 3865 (1996)

   Pseudopotentials:
      M Schlipf and F Gygi, Comput. Phys. Commun. 196, 36 (2015)

   Truncated Coulomb potentials:
      R. Sundararaman and T.A. Arias, Phys. Rev. B 87, 165122 (2013)

This list may not be complete. Please suggest additional citations or
report any other bugs at https://github.com/shankar1729/jdftx/issues

Initialization completed successfully at t[s]:      6.02


-------- Electronic minimization -----------
Will mix electronic density at each iteration.
	FillingsUpdate:  mu: -0.092153641  nElectrons: 9.000000  magneticMoment: [ Abs: 0.34000  Tot: +0.34000 ]
	FillingsUpdate:  mu: -0.103005655  nElectrons: 9.000000  magneticMoment: [ Abs: 0.34000  Tot: +0.34000 ]
SCF: Cycle:  0   F: -24.452947985905066   dF: -5.307e-03   |Residual|: 9.956e-03   |deigs|: 1.793e-01  t[s]:      8.56
	FillingsUpdate:  mu: -0.102711067  nElectrons: 9.000000  magneticMoment: [ Abs: 0.34000  Tot: +0.34000 ]
SCF: Cycle:  1   F: -24.453155707711407   dF: -2.077e-04   |Residual|: 7.467e-03   |deigs|: 6.722e-03  t[s]:     10.47
	FillingsUpdate:  mu: -0.101211018  nElectrons: 9.000000  magneticMoment: [ Abs: 0.34308  Tot: +0.34000 ]
SCF: Cycle:  2   F: -24.453254480124937   dF: -9.877e-05   |Residual|: 3.958e-03   |deigs|: 2.435e-03  t[s]:     12.42
	FillingsUpdate:  mu: -0.100091541  nElectrons: 9.000000  magneticMoment: [ Abs: 0.34008  Tot: +0.34000 ]
SCF: Cycle:  3   F: -24.453309799250224   dF: -5.532e-05   |Residual|: 2.531e-03   |deigs|: 2.103e-03  t[s]:     14.37
	FillingsUpdate:  mu: -0.098406669  nElectrons: 9.000000  magneticMoment: [ Abs: 0.34001  Tot: +0.34000 ]
SCF: Cycle:  4   F: -24.453344663347298   dF: -3.486e-05   |Residual|: 2.007e-03   |deigs|: 2.154e-03  t[s]:     16.30
	FillingsUpdate:  mu: -0.097060110  nElectrons: 9.000000  magneticMoment: [ Abs: 0.34160  Tot: +0.34000 ]
SCF: Cycle:  5   F: -24.453363088055180   dF: -1.842e-05   |Residual|: 1.466e-03   |deigs|: 3.706e-03  t[s]:     18.35
	FillingsUpdate:  mu: -0.094647849  nElectrons: 9.000000  magneticMoment: [ Abs: 0.34644  Tot: +0.34000 ]
SCF: Cycle:  6   F: -24.453363742574410   dF: -6.545e-07   |Residual|: 1.065e-03   |deigs|: 3.156e-03  t[s]:     20.46
	FillingsUpdate:  mu: -0.093096134  nElectrons: 9.000000  magneticMoment: [ Abs: 0.34532  Tot: +0.34000 ]
SCF: Cycle:  7   F: -24.453380586462799   dF: -1.684e-05   |Residual|: 9.994e-04   |deigs|: 2.092e-03  t[s]:     22.52
	FillingsUpdate:  mu: -0.093053614  nElectrons: 9.000000  magneticMoment: [ Abs: 0.34121  Tot: +0.34000 ]
SCF: Cycle:  8   F: -24.453389871056626   dF: -9.285e-06   |Residual|: 8.086e-04   |deigs|: 2.128e-03  t[s]:     24.62
	FillingsUpdate:  mu: -0.091611462  nElectrons: 9.000000  magneticMoment: [ Abs: 0.34288  Tot: +0.34000 ]
SCF: Cycle:  9   F: -24.453392142179847   dF: -2.271e-06   |Residual|: 6.587e-04   |deigs|: 1.451e-03  t[s]:     26.72
	FillingsUpdate:  mu: -0.090340930  nElectrons: 9.000000  magneticMoment: [ Abs: 0.34374  Tot: +0.34000 ]
SCF: Cycle: 10   F: -24.453389310096416   dF: +2.832e-06   |Residual|: 5.785e-04   |deigs|: 1.364e-03  t[s]:     28.83
	FillingsUpdate:  mu: -0.089159153  nElectrons: 9.000000  magneticMoment: [ Abs: 0.34268  Tot: +0.34000 ]
SCF: Cycle: 11   F: -24.453395137034441   dF: -5.827e-06   |Residual|: 5.125e-04   |deigs|: 1.239e-03  t[s]:     30.93
	FillingsUpdate:  mu: -0.087790497  nElectrons: 9.000000  magneticMoment: [ Abs: 0.34314  Tot: +0.34000 ]
SCF: Cycle: 12   F: -24.453407687570351   dF: -1.255e-05   |Residual|: 4.672e-04   |deigs|: 1.332e-03  t[s]:     33.04
	FillingsUpdate:  mu: -0.086558394  nElectrons: 9.000000  magneticMoment: [ Abs: 0.34285  Tot: +0.34000 ]
SCF: Cycle: 13   F: -24.453412311917017   dF: -4.624e-06   |Residual|: 4.302e-04   |deigs|: 1.272e-03  t[s]:     35.11
	FillingsUpdate:  mu: -0.085200361  nElectrons: 9.000000  magneticMoment: [ Abs: 0.34070  Tot: +0.34000 ]
SCF: Cycle: 14   F: -24.453416644723870   dF: -4.333e-06   |Residual|: 3.652e-04   |deigs|: 1.407e-03  t[s]:     37.30
	FillingsUpdate:  mu: -0.084483555  nElectrons: 9.000000  magneticMoment: [ Abs: 0.34060  Tot: +0.34000 ]
SCF: Cycle: 15   F: -24.453419228640012   dF: -2.584e-06   |Residual|: 2.569e-04   |deigs|: 7.623e-04  t[s]:     39.38
	FillingsUpdate:  mu: -0.084101721  nElectrons: 9.000000  magneticMoment: [ Abs: 0.34070  Tot: +0.34000 ]
SCF: Cycle: 16   F: -24.453420470620411   dF: -1.242e-06   |Residual|: 1.732e-04   |deigs|: 1.491e-03  t[s]:     41.50
	FillingsUpdate:  mu: -0.084046916  nElectrons: 9.000000  magneticMoment: [ Abs: 0.34003  Tot: +0.34000 ]
SCF: Cycle: 17   F: -24.453420966225153   dF: -4.956e-07   |Residual|: 1.029e-04   |deigs|: 3.283e-04  t[s]:     43.59
	FillingsUpdate:  mu: -0.084035170  nElectrons: 9.000000  magneticMoment: [ Abs: 0.34016  Tot: +0.34000 ]
SCF: Cycle: 18   F: -24.453421177268186   dF: -2.110e-07   |Residual|: 6.626e-05   |deigs|: 7.314e-04  t[s]:     45.71
	FillingsUpdate:  mu: -0.084024271  nElectrons: 9.000000  magneticMoment: [ Abs: 0.34013  Tot: +0.34000 ]
SCF: Cycle: 19   F: -24.453421237094709   dF: -5.983e-08   |Residual|: 3.616e-05   |deigs|: 2.299e-04  t[s]:     47.76
	FillingsUpdate:  mu: -0.084018915  nElectrons: 9.000000  magneticMoment: [ Abs: 0.34012  Tot: +0.34000 ]
SCF: Cycle: 20   F: -24.453421294634872   dF: -5.754e-08   |Residual|: 1.873e-05   |deigs|: 7.223e-05  t[s]:     49.86
	FillingsUpdate:  mu: -0.084025562  nElectrons: 9.000000  magneticMoment: [ Abs: 0.34015  Tot: +0.34000 ]
SCF: Cycle: 21   F: -24.453421305397416   dF: -1.076e-08   |Residual|: 1.105e-05   |deigs|: 4.963e-05  t[s]:     51.91
	FillingsUpdate:  mu: -0.084017598  nElectrons: 9.000000  magneticMoment: [ Abs: 0.34015  Tot: +0.34000 ]
SCF: Cycle: 22   F: -24.453421312655948   dF: -7.259e-09   |Residual|: 7.288e-06   |deigs|: 3.506e-05  t[s]:     54.07
	FillingsUpdate:  mu: -0.084013238  nElectrons: 9.000000  magneticMoment: [ Abs: 0.34015  Tot: +0.34000 ]
SCF: Cycle: 23   F: -24.453421315376385   dF: -2.720e-09   |Residual|: 4.816e-06   |deigs|: 2.894e-05  t[s]:     56.18
SCF: Converged (|Delta E|<1.000000e-08 for 2 iters).


# Ionic positions in lattice coordinates:
ion Rb   0.000000000000000   0.000000000000000   0.000000000000000 0

# Forces in Lattice coordinates:
force Rb  -0.000000000000000  -0.000000000000000   0.000000000000000 0

# Energy components:
   Eewald =      -18.0480261003326561
       EH =        1.6505392547587112
     Eloc =      -10.5621706164687197
      Enl =       -0.7962934391737704
   Epulay =        0.0000000035676145
      Exc =       -3.6769790008664414
       KE =        6.9795092579615829
-------------------------------------
     Etot =      -24.4534206405536807
       TS =        0.0000006748227032
-------------------------------------
        F =      -24.4534213153763851

IonicMinimize: Iter:   0  F: -24.453421315376385  |grad|_K:  0.000e+00  t[s]:     56.31
IonicMinimize: Converged (|grad|_K<1.000000e-04).

#--- Lowdin population analysis ---
# oxidation-state Rb +0.047
# magnetic-moments Rb +0.305

End date and time: Sun Feb  6 12:49:02 2022  (Duration: 0-0:00:56.33)
Done!
