
*************** JDFTx 1.6.0 (git hash 42ebbcc2) ***************

Start date and time: Sun Feb  6 12:34:52 2022
Executable jdftx with command-line: -i Alkali.in
Running on hosts (process indices):  d-16-13-1 (0-18)
Divided in process groups (process indices):  0 (0)  1 (1)  2 (2)  3 (3)  4 (4)  5 (5)  6 (6)  7 (7)  8 (8)  9 (9)  10 (10)  11 (11)  12 (12)  13 (13)  14 (14)  15 (15)  16 (16)  17 (17)  18 (18)
Resource initialization completed at t[s]:      0.00
Run totals: 19 processes, 48 threads, 0 GPUs


Input parsed successfully to the following command list (including defaults):

basis kpoint-dependent
coords-type Lattice
core-overlap-check vector
coulomb-interaction Slab 001
davidson-band-ratio 1.1
dump End None
dump-name $INPUT.$VAR
elec-cutoff 20
elec-eigen-algo Davidson
elec-ex-corr gga-PBE
elec-initial-magnetization -0.740000 yes
elec-smearing Fermi 1e-05
electronic-minimize  \
	dirUpdateScheme      FletcherReeves \
	linminMethod         DirUpdateRecommended \
	nIterations          100 \
	history              15 \
	knormThreshold       0 \
	energyDiffThreshold  1e-08 \
	nEnergyDiff          2 \
	alphaTstart          1 \
	alphaTmin            1e-10 \
	updateTestStepSize   yes \
	alphaTreduceFactor   0.1 \
	alphaTincreaseFactor 3 \
	nAlphaAdjustMax      3 \
	wolfeEnergy          0.0001 \
	wolfeGradient        0.9 \
	fdTest               no
electronic-scf  \
	nIterations	10000 \
	energyDiffThreshold	1e-08 \
	residualThreshold	1e-07 \
	mixFraction	0.5 \
	qMetric	0.8 \
	history	10 \
	nEigSteps	2 \
	eigDiffThreshold	1e-08 \
	mixedVariable	Density \
	qKerker	0.8 \
	qKappa	-1 \
	verbose	no \
	mixFractionMag	1.5
exchange-regularization WignerSeitzTruncated
fluid None
fluid-ex-corr (null) lda-PZ
fluid-gummel-loop 10 1.000000e-05
fluid-minimize  \
	dirUpdateScheme      PolakRibiere \
	linminMethod         DirUpdateRecommended \
	nIterations          100 \
	history              15 \
	knormThreshold       0 \
	energyDiffThreshold  0 \
	nEnergyDiff          2 \
	alphaTstart          1 \
	alphaTmin            1e-10 \
	updateTestStepSize   yes \
	alphaTreduceFactor   0.1 \
	alphaTincreaseFactor 3 \
	nAlphaAdjustMax      3 \
	wolfeEnergy          0.0001 \
	wolfeGradient        0.9 \
	fdTest               no
fluid-solvent H2O 55.338 ScalarEOS \
	epsBulk 78.4 \
	pMol 0.92466 \
	epsInf 1.77 \
	Pvap 1.06736e-10 \
	sigmaBulk 4.62e-05 \
	Rvdw 2.61727 \
	Res 1.42 \
	tauNuc 343133 \
	poleEl 15 7 1
forces-output-coords Positions
ion Rb   0.000000000000000   0.000000000000000   0.000000000000000 0
ion-species SG15/$ID_ONCV_PBE.upf
ion-width 0
ionic-minimize  \
	dirUpdateScheme      L-BFGS \
	linminMethod         DirUpdateRecommended \
	nIterations          0 \
	history              15 \
	knormThreshold       0.0001 \
	energyDiffThreshold  1e-06 \
	nEnergyDiff          2 \
	alphaTstart          1 \
	alphaTmin            1e-10 \
	updateTestStepSize   yes \
	alphaTreduceFactor   0.1 \
	alphaTincreaseFactor 3 \
	nAlphaAdjustMax      3 \
	wolfeEnergy          0.0001 \
	wolfeGradient        0.9 \
	fdTest               no
kpoint   0.000000000000   0.000000000000   0.000000000000  1.00000000000000
kpoint-folding 12 12 1 
latt-move-scale 1 1 1
latt-scale 2 2 1 
lattice  \
	   4.727486978767153   -2.363743489383575    0.000000000000000  \
	  -0.000000000000000    4.094123819672498    0.000000000000000  \
	   0.000000000000000    0.000000000000000   40.000000000000000 
lattice-minimize  \
	dirUpdateScheme      L-BFGS \
	linminMethod         DirUpdateRecommended \
	nIterations          0 \
	history              15 \
	knormThreshold       0 \
	energyDiffThreshold  1e-06 \
	nEnergyDiff          2 \
	alphaTstart          1 \
	alphaTmin            1e-10 \
	updateTestStepSize   yes \
	alphaTreduceFactor   0.1 \
	alphaTincreaseFactor 3 \
	nAlphaAdjustMax      3 \
	wolfeEnergy          0.0001 \
	wolfeGradient        0.9 \
	fdTest               no
lcao-params -1 1e-06 1e-05
pcm-variant GLSSA13
spintype z-spin
subspace-rotation-factor 1 yes
symmetries automatic
symmetry-threshold 0.0001



---------- Setting up symmetries ----------

Found 24 point-group symmetries of the bravais lattice
Found 24 space-group symmetries with basis
Applied RMS atom displacement 0 bohrs to make symmetries exact.

---------- Initializing the Grid ----------
R = 
[      9.45497     -4.72749            0  ]
[            0      8.18825            0  ]
[            0            0           40  ]
unit cell volume = 3096.79
G =
[   0.664538   0.383671         -0  ]
[          0   0.767342         -0  ]
[         -0         -0    0.15708  ]
Minimum fftbox size, Smin = [  40  40  164  ]
Chosen fftbox size, S = [  40  40  168  ]

---------- Exchange Correlation functional ----------
Initalized PBE GGA exchange.
Initalized PBE GGA correlation.

---------- Setting up pseudopotentials ----------
Width of ionic core gaussian charges (only for fluid interactions / plotting) set to 0

Reading pseudopotential file '/home/gridsan/aligho/DFT/build-Nov24/pseudopotentials/SG15/Rb_ONCV_PBE.upf':
  'Rb' pseudopotential, 'PBE' functional
  Generated using ONCVPSP code by D. R. Hamann
  Author: Martin Schlipf and Francois Gygi  Date: 150915.
  9 valence electrons, 3 orbitals, 6 projectors, 2308 radial grid points, with lMax = 2
  Transforming local potential to a uniform radial grid of dG=0.02 with 1489 points.
  Transforming nonlocal projectors to a uniform radial grid of dG=0.02 with 432 points.
    4S    l: 0   occupation:  2.0   eigenvalue: -1.172069
    4P    l: 1   occupation:  6.0   eigenvalue: -0.586674
    5S    l: 0   occupation:  1.0   eigenvalue: -0.082006
  Transforming atomic orbitals to a uniform radial grid of dG=0.02 with 432 points.
  Core radius for overlap checks: 2.60 bohrs.
  Reading pulay file /home/gridsan/aligho/DFT/build-Nov24/pseudopotentials/SG15/Rb_ONCV_PBE.pulay ... using dE_dnG = -1.360715e-05 computed for Ecut = 20.

Initialized 1 species with 1 total atoms.

Folded 1 k-points by 12x12x1 to 144 k-points.

---------- Setting up k-points, bands, fillings ----------
Reduced to 19 k-points under symmetry. 
Computing the number of bands and number of electrons
Calculating initial fillings.
nElectrons:   9.000000   nBands: 6   nStates: 38

----- Setting up reduced wavefunction bases (one per k-point) -----
average nbasis = 13230.521 , ideal nbasis = 13229.709

---------- Setting up coulomb interaction ----------
Initialized slab truncation along lattice direction 001

---------- Setting up 2D ewald sum ----------
Optimum gaussian width for ewald sums = 5.249020 bohr.
Real space sums over 289 unit cells with max indices [  8  8  0  ]
Reciprocal space sums over 81 terms with max indices [  4  4  0  ]

---------- Allocating electronic variables ----------
Initializing wave functions:  linear combination of atomic orbitals
Note: number of bands (6) exceeds available atomic orbitals (5)
Rb pseudo-atom occupations:   s ( 2 1 )  p ( 6 )
	FillingsUpdate:  mu: -0.092680072  nElectrons: 9.000000  magneticMoment: [ Abs: 0.74000  Tot: -0.74000 ]
LCAOMinimize: Iter:   0  F: -24.4381369216969127  |grad|_K:  1.958e-05  alpha:  1.000e+00
	FillingsUpdate:  mu: -0.092673834  nElectrons: 9.000000  magneticMoment: [ Abs: 0.74000  Tot: -0.74000 ]
LCAOMinimize: Iter:   1  F: -24.4381371785129531  |grad|_K:  1.887e-07  alpha:  9.798e-01  linmin: -1.903e-02  cgtest:  2.578e-01  t[s]:      4.74
LCAOMinimize: Encountered beta<0, resetting CG.
	FillingsUpdate:  mu: -0.092673892  nElectrons: 9.000000  magneticMoment: [ Abs: 0.74000  Tot: -0.74000 ]
LCAOMinimize: Iter:   2  F: -24.4381371785373496  |grad|_K:  1.292e-09  alpha:  9.955e-01  linmin: -9.526e-02  cgtest:  7.368e-01  t[s]:      5.99
LCAOMinimize: Encountered beta<0, resetting CG.
LCAOMinimize: Converged (|Delta F|<1.000000e-06 for 2 iters).


---- Citations for features of the code used in this run ----

   Software package:
      R. Sundararaman, K. Letchworth-Weaver, K.A. Schwarz, D. Gunceler, Y. Ozhabes and T.A. Arias, 'JDFTx: software for joint density-functional theory', SoftwareX 6, 278 (2017)

   gga-PBE exchange-correlation functional:
      J.P. Perdew, K. Burke and M. Ernzerhof, Phys. Rev. Lett. 77, 3865 (1996)

   Pseudopotentials:
      M Schlipf and F Gygi, Comput. Phys. Commun. 196, 36 (2015)

   Truncated Coulomb potentials:
      R. Sundararaman and T.A. Arias, Phys. Rev. B 87, 165122 (2013)

This list may not be complete. Please suggest additional citations or
report any other bugs at https://github.com/shankar1729/jdftx/issues

Initialization completed successfully at t[s]:      6.08


-------- Electronic minimization -----------
Will mix electronic density at each iteration.
	FillingsUpdate:  mu: -0.092673892  nElectrons: 9.000000  magneticMoment: [ Abs: 0.74000  Tot: -0.74000 ]
	FillingsUpdate:  mu: -0.103490301  nElectrons: 9.000000  magneticMoment: [ Abs: 0.74000  Tot: -0.74000 ]
SCF: Cycle:  0   F: -24.446939364700484   dF: -8.802e-03   |Residual|: 1.437e-02   |deigs|: 1.775e-01  t[s]:      8.50
	FillingsUpdate:  mu: -0.106773593  nElectrons: 9.000000  magneticMoment: [ Abs: 0.74000  Tot: -0.74000 ]
SCF: Cycle:  1   F: -24.447372785657599   dF: -4.334e-04   |Residual|: 9.954e-03   |deigs|: 8.128e-03  t[s]:     10.36
	FillingsUpdate:  mu: -0.105966782  nElectrons: 9.000000  magneticMoment: [ Abs: 0.74240  Tot: -0.74000 ]
SCF: Cycle:  2   F: -24.447576312887030   dF: -2.035e-04   |Residual|: 6.049e-03   |deigs|: 2.726e-03  t[s]:     12.21
	FillingsUpdate:  mu: -0.103064721  nElectrons: 9.000000  magneticMoment: [ Abs: 0.74017  Tot: -0.74000 ]
SCF: Cycle:  3   F: -24.447672737138372   dF: -9.642e-05   |Residual|: 3.451e-03   |deigs|: 1.953e-03  t[s]:     14.14
	FillingsUpdate:  mu: -0.101036567  nElectrons: 9.000000  magneticMoment: [ Abs: 0.74024  Tot: -0.74000 ]
SCF: Cycle:  4   F: -24.447726379414167   dF: -5.364e-05   |Residual|: 2.310e-03   |deigs|: 2.451e-03  t[s]:     16.07
	FillingsUpdate:  mu: -0.099355649  nElectrons: 9.000000  magneticMoment: [ Abs: 0.74019  Tot: -0.74000 ]
SCF: Cycle:  5   F: -24.447747635200582   dF: -2.126e-05   |Residual|: 1.717e-03   |deigs|: 3.055e-03  t[s]:     17.99
	FillingsUpdate:  mu: -0.096182199  nElectrons: 9.000000  magneticMoment: [ Abs: 0.74427  Tot: -0.74000 ]
SCF: Cycle:  6   F: -24.447746696115455   dF: +9.391e-07   |Residual|: 1.359e-03   |deigs|: 3.824e-03  t[s]:     19.97
	FillingsUpdate:  mu: -0.094176600  nElectrons: 9.000000  magneticMoment: [ Abs: 0.74580  Tot: -0.74000 ]
SCF: Cycle:  7   F: -24.447765134795105   dF: -1.844e-05   |Residual|: 1.179e-03   |deigs|: 2.706e-03  t[s]:     21.97
	FillingsUpdate:  mu: -0.094319590  nElectrons: 9.000000  magneticMoment: [ Abs: 0.74083  Tot: -0.74000 ]
SCF: Cycle:  8   F: -24.447784789817906   dF: -1.966e-05   |Residual|: 8.873e-04   |deigs|: 5.415e-04  t[s]:     23.98
	FillingsUpdate:  mu: -0.093529778  nElectrons: 9.000000  magneticMoment: [ Abs: 0.74137  Tot: -0.74000 ]
SCF: Cycle:  9   F: -24.447790389082300   dF: -5.599e-06   |Residual|: 6.992e-04   |deigs|: 8.498e-04  t[s]:     26.01
	FillingsUpdate:  mu: -0.092107830  nElectrons: 9.000000  magneticMoment: [ Abs: 0.74342  Tot: -0.74000 ]
SCF: Cycle: 10   F: -24.447790960285086   dF: -5.712e-07   |Residual|: 6.128e-04   |deigs|: 1.608e-03  t[s]:     28.06
	FillingsUpdate:  mu: -0.091328298  nElectrons: 9.000000  magneticMoment: [ Abs: 0.74342  Tot: -0.74000 ]
SCF: Cycle: 11   F: -24.447794122180071   dF: -3.162e-06   |Residual|: 5.483e-04   |deigs|: 8.252e-04  t[s]:     30.09
	FillingsUpdate:  mu: -0.090423127  nElectrons: 9.000000  magneticMoment: [ Abs: 0.74425  Tot: -0.74000 ]
SCF: Cycle: 12   F: -24.447800982148649   dF: -6.860e-06   |Residual|: 4.781e-04   |deigs|: 1.052e-03  t[s]:     32.13
	FillingsUpdate:  mu: -0.088881809  nElectrons: 9.000000  magneticMoment: [ Abs: 0.74444  Tot: -0.74000 ]
SCF: Cycle: 13   F: -24.447806076656633   dF: -5.095e-06   |Residual|: 4.583e-04   |deigs|: 1.710e-03  t[s]:     34.13
	FillingsUpdate:  mu: -0.088103694  nElectrons: 9.000000  magneticMoment: [ Abs: 0.74260  Tot: -0.74000 ]
SCF: Cycle: 14   F: -24.447809475183934   dF: -3.399e-06   |Residual|: 4.241e-04   |deigs|: 9.552e-04  t[s]:     36.16
	FillingsUpdate:  mu: -0.087137232  nElectrons: 9.000000  magneticMoment: [ Abs: 0.74140  Tot: -0.74000 ]
SCF: Cycle: 15   F: -24.447813364769981   dF: -3.890e-06   |Residual|: 3.134e-04   |deigs|: 1.292e-03  t[s]:     38.18
	FillingsUpdate:  mu: -0.086597442  nElectrons: 9.000000  magneticMoment: [ Abs: 0.74112  Tot: -0.74000 ]
SCF: Cycle: 16   F: -24.447814978380421   dF: -1.614e-06   |Residual|: 2.499e-04   |deigs|: 7.714e-04  t[s]:     40.21
	FillingsUpdate:  mu: -0.086401655  nElectrons: 9.000000  magneticMoment: [ Abs: 0.74050  Tot: -0.74000 ]
SCF: Cycle: 17   F: -24.447816890361430   dF: -1.912e-06   |Residual|: 1.496e-04   |deigs|: 4.352e-04  t[s]:     42.28
	FillingsUpdate:  mu: -0.086452238  nElectrons: 9.000000  magneticMoment: [ Abs: 0.74069  Tot: -0.74000 ]
SCF: Cycle: 18   F: -24.447817288511068   dF: -3.981e-07   |Residual|: 1.110e-04   |deigs|: 1.637e-04  t[s]:     44.27
	FillingsUpdate:  mu: -0.086520854  nElectrons: 9.000000  magneticMoment: [ Abs: 0.74055  Tot: -0.74000 ]
SCF: Cycle: 19   F: -24.447817484605729   dF: -1.961e-07   |Residual|: 6.981e-05   |deigs|: 1.657e-04  t[s]:     46.33
	FillingsUpdate:  mu: -0.086482766  nElectrons: 9.000000  magneticMoment: [ Abs: 0.74050  Tot: -0.74000 ]
SCF: Cycle: 20   F: -24.447817615808198   dF: -1.312e-07   |Residual|: 3.736e-05   |deigs|: 1.612e-04  t[s]:     48.41
	FillingsUpdate:  mu: -0.086469987  nElectrons: 9.000000  magneticMoment: [ Abs: 0.74052  Tot: -0.74000 ]
SCF: Cycle: 21   F: -24.447817661125825   dF: -4.532e-08   |Residual|: 2.359e-05   |deigs|: 1.413e-04  t[s]:     50.46
	FillingsUpdate:  mu: -0.086497870  nElectrons: 9.000000  magneticMoment: [ Abs: 0.74052  Tot: -0.74000 ]
SCF: Cycle: 22   F: -24.447817687038349   dF: -2.591e-08   |Residual|: 1.874e-05   |deigs|: 1.345e-04  t[s]:     52.50
	FillingsUpdate:  mu: -0.086553377  nElectrons: 9.000000  magneticMoment: [ Abs: 0.74048  Tot: -0.74000 ]
SCF: Cycle: 23   F: -24.447817702843988   dF: -1.581e-08   |Residual|: 1.852e-05   |deigs|: 1.255e-04  t[s]:     54.51
	FillingsUpdate:  mu: -0.086531343  nElectrons: 9.000000  magneticMoment: [ Abs: 0.74039  Tot: -0.74000 ]
SCF: Cycle: 24   F: -24.447817720113839   dF: -1.727e-08   |Residual|: 1.615e-05   |deigs|: 1.714e-04  t[s]:     56.56
	FillingsUpdate:  mu: -0.086507013  nElectrons: 9.000000  magneticMoment: [ Abs: 0.74021  Tot: -0.74000 ]
SCF: Cycle: 25   F: -24.447817727082384   dF: -6.969e-09   |Residual|: 1.400e-05   |deigs|: 2.243e-04  t[s]:     58.66
	FillingsUpdate:  mu: -0.086507931  nElectrons: 9.000000  magneticMoment: [ Abs: 0.74015  Tot: -0.74000 ]
SCF: Cycle: 26   F: -24.447817733517070   dF: -6.435e-09   |Residual|: 1.070e-05   |deigs|: 4.897e-05  t[s]:     60.73
SCF: Converged (|Delta E|<1.000000e-08 for 2 iters).


# Ionic positions in lattice coordinates:
ion Rb   0.000000000000000   0.000000000000000   0.000000000000000 0

# Forces in Lattice coordinates:
force Rb  -0.000000000000000   0.000000000000000   0.000000000000000 0

# Energy components:
   Eewald =      -18.0480261003326561
       EH =        1.6645529684846632
     Eloc =      -10.5762601266559653
      Enl =       -0.7984618049958252
   Epulay =        0.0000000035676145
      Exc =       -3.6813170279029221
       KE =        6.9916945114688041
-------------------------------------
     Etot =      -24.4478175763662868
       TS =        0.0000001571507830
-------------------------------------
        F =      -24.4478177335170699

IonicMinimize: Iter:   0  F: -24.447817733517070  |grad|_K:  0.000e+00  t[s]:     60.89
IonicMinimize: Converged (|grad|_K<1.000000e-04).

#--- Lowdin population analysis ---
# oxidation-state Rb +0.104
# magnetic-moments Rb -0.641

End date and time: Sun Feb  6 12:35:52 2022  (Duration: 0-0:01:00.91)
Done!
