
*************** JDFTx 1.6.0 (git hash 42ebbcc2) ***************

Start date and time: Sun Feb  6 12:40:57 2022
Executable jdftx with command-line: -i Alkali.in
Running on hosts (process indices):  d-4-2-2 (0-18)
Divided in process groups (process indices):  0 (0)  1 (1)  2 (2)  3 (3)  4 (4)  5 (5)  6 (6)  7 (7)  8 (8)  9 (9)  10 (10)  11 (11)  12 (12)  13 (13)  14 (14)  15 (15)  16 (16)  17 (17)  18 (18)
Resource initialization completed at t[s]:      0.00
Run totals: 19 processes, 48 threads, 0 GPUs


Input parsed successfully to the following command list (including defaults):

basis kpoint-dependent
coords-type Lattice
core-overlap-check vector
coulomb-interaction Slab 001
davidson-band-ratio 1.1
dump End None
dump-name $INPUT.$VAR
elec-cutoff 20
elec-eigen-algo Davidson
elec-ex-corr gga-PBE
elec-initial-magnetization -0.520000 yes
elec-smearing Fermi 1e-05
electronic-minimize  \
	dirUpdateScheme      FletcherReeves \
	linminMethod         DirUpdateRecommended \
	nIterations          100 \
	history              15 \
	knormThreshold       0 \
	energyDiffThreshold  1e-08 \
	nEnergyDiff          2 \
	alphaTstart          1 \
	alphaTmin            1e-10 \
	updateTestStepSize   yes \
	alphaTreduceFactor   0.1 \
	alphaTincreaseFactor 3 \
	nAlphaAdjustMax      3 \
	wolfeEnergy          0.0001 \
	wolfeGradient        0.9 \
	fdTest               no
electronic-scf  \
	nIterations	10000 \
	energyDiffThreshold	1e-08 \
	residualThreshold	1e-07 \
	mixFraction	0.5 \
	qMetric	0.8 \
	history	10 \
	nEigSteps	2 \
	eigDiffThreshold	1e-08 \
	mixedVariable	Density \
	qKerker	0.8 \
	qKappa	-1 \
	verbose	no \
	mixFractionMag	1.5
exchange-regularization WignerSeitzTruncated
fluid None
fluid-ex-corr (null) lda-PZ
fluid-gummel-loop 10 1.000000e-05
fluid-minimize  \
	dirUpdateScheme      PolakRibiere \
	linminMethod         DirUpdateRecommended \
	nIterations          100 \
	history              15 \
	knormThreshold       0 \
	energyDiffThreshold  0 \
	nEnergyDiff          2 \
	alphaTstart          1 \
	alphaTmin            1e-10 \
	updateTestStepSize   yes \
	alphaTreduceFactor   0.1 \
	alphaTincreaseFactor 3 \
	nAlphaAdjustMax      3 \
	wolfeEnergy          0.0001 \
	wolfeGradient        0.9 \
	fdTest               no
fluid-solvent H2O 55.338 ScalarEOS \
	epsBulk 78.4 \
	pMol 0.92466 \
	epsInf 1.77 \
	Pvap 1.06736e-10 \
	sigmaBulk 4.62e-05 \
	Rvdw 2.61727 \
	Res 1.42 \
	tauNuc 343133 \
	poleEl 15 7 1
forces-output-coords Positions
ion Rb   0.000000000000000   0.000000000000000   0.000000000000000 0
ion-species SG15/$ID_ONCV_PBE.upf
ion-width 0
ionic-minimize  \
	dirUpdateScheme      L-BFGS \
	linminMethod         DirUpdateRecommended \
	nIterations          0 \
	history              15 \
	knormThreshold       0.0001 \
	energyDiffThreshold  1e-06 \
	nEnergyDiff          2 \
	alphaTstart          1 \
	alphaTmin            1e-10 \
	updateTestStepSize   yes \
	alphaTreduceFactor   0.1 \
	alphaTincreaseFactor 3 \
	nAlphaAdjustMax      3 \
	wolfeEnergy          0.0001 \
	wolfeGradient        0.9 \
	fdTest               no
kpoint   0.000000000000   0.000000000000   0.000000000000  1.00000000000000
kpoint-folding 12 12 1 
latt-move-scale 1 1 1
latt-scale 2 2 1 
lattice  \
	   4.727486978767153   -2.363743489383575    0.000000000000000  \
	  -0.000000000000000    4.094123819672498    0.000000000000000  \
	   0.000000000000000    0.000000000000000   40.000000000000000 
lattice-minimize  \
	dirUpdateScheme      L-BFGS \
	linminMethod         DirUpdateRecommended \
	nIterations          0 \
	history              15 \
	knormThreshold       0 \
	energyDiffThreshold  1e-06 \
	nEnergyDiff          2 \
	alphaTstart          1 \
	alphaTmin            1e-10 \
	updateTestStepSize   yes \
	alphaTreduceFactor   0.1 \
	alphaTincreaseFactor 3 \
	nAlphaAdjustMax      3 \
	wolfeEnergy          0.0001 \
	wolfeGradient        0.9 \
	fdTest               no
lcao-params -1 1e-06 1e-05
pcm-variant GLSSA13
spintype z-spin
subspace-rotation-factor 1 yes
symmetries automatic
symmetry-threshold 0.0001



---------- Setting up symmetries ----------

Found 24 point-group symmetries of the bravais lattice
Found 24 space-group symmetries with basis
Applied RMS atom displacement 0 bohrs to make symmetries exact.

---------- Initializing the Grid ----------
R = 
[      9.45497     -4.72749            0  ]
[            0      8.18825            0  ]
[            0            0           40  ]
unit cell volume = 3096.79
G =
[   0.664538   0.383671         -0  ]
[          0   0.767342         -0  ]
[         -0         -0    0.15708  ]
Minimum fftbox size, Smin = [  40  40  164  ]
Chosen fftbox size, S = [  40  40  168  ]

---------- Exchange Correlation functional ----------
Initalized PBE GGA exchange.
Initalized PBE GGA correlation.

---------- Setting up pseudopotentials ----------
Width of ionic core gaussian charges (only for fluid interactions / plotting) set to 0

Reading pseudopotential file '/home/gridsan/aligho/DFT/build-Nov24/pseudopotentials/SG15/Rb_ONCV_PBE.upf':
  'Rb' pseudopotential, 'PBE' functional
  Generated using ONCVPSP code by D. R. Hamann
  Author: Martin Schlipf and Francois Gygi  Date: 150915.
  9 valence electrons, 3 orbitals, 6 projectors, 2308 radial grid points, with lMax = 2
  Transforming local potential to a uniform radial grid of dG=0.02 with 1489 points.
  Transforming nonlocal projectors to a uniform radial grid of dG=0.02 with 432 points.
    4S    l: 0   occupation:  2.0   eigenvalue: -1.172069
    4P    l: 1   occupation:  6.0   eigenvalue: -0.586674
    5S    l: 0   occupation:  1.0   eigenvalue: -0.082006
  Transforming atomic orbitals to a uniform radial grid of dG=0.02 with 432 points.
  Core radius for overlap checks: 2.60 bohrs.
  Reading pulay file /home/gridsan/aligho/DFT/build-Nov24/pseudopotentials/SG15/Rb_ONCV_PBE.pulay ... using dE_dnG = -1.360715e-05 computed for Ecut = 20.

Initialized 1 species with 1 total atoms.

Folded 1 k-points by 12x12x1 to 144 k-points.

---------- Setting up k-points, bands, fillings ----------
Reduced to 19 k-points under symmetry. 
Computing the number of bands and number of electrons
Calculating initial fillings.
nElectrons:   9.000000   nBands: 6   nStates: 38

----- Setting up reduced wavefunction bases (one per k-point) -----
average nbasis = 13230.521 , ideal nbasis = 13229.709

---------- Setting up coulomb interaction ----------
Initialized slab truncation along lattice direction 001

---------- Setting up 2D ewald sum ----------
Optimum gaussian width for ewald sums = 5.249020 bohr.
Real space sums over 289 unit cells with max indices [  8  8  0  ]
Reciprocal space sums over 81 terms with max indices [  4  4  0  ]

---------- Allocating electronic variables ----------
Initializing wave functions:  linear combination of atomic orbitals
Note: number of bands (6) exceeds available atomic orbitals (5)
Rb pseudo-atom occupations:   s ( 2 1 )  p ( 6 )
	FillingsUpdate:  mu: -0.094214330  nElectrons: 9.000000  magneticMoment: [ Abs: 0.52000  Tot: -0.52000 ]
LCAOMinimize: Iter:   0  F: -24.4440071583810017  |grad|_K:  3.051e-05  alpha:  1.000e+00
	FillingsUpdate:  mu: -0.094203787  nElectrons: 9.000000  magneticMoment: [ Abs: 0.52000  Tot: -0.52000 ]
LCAOMinimize: Iter:   1  F: -24.4440077805074587  |grad|_K:  2.965e-07  alpha:  9.776e-01  linmin: -3.057e-02  cgtest:  3.718e-01  t[s]:      4.76
LCAOMinimize: Encountered beta<0, resetting CG.
	FillingsUpdate:  mu: -0.094203848  nElectrons: 9.000000  magneticMoment: [ Abs: 0.52000  Tot: -0.52000 ]
LCAOMinimize: Iter:   2  F: -24.4440077805679259  |grad|_K:  1.288e-09  alpha:  9.973e-01  linmin: -9.627e-02  cgtest:  9.350e-01  t[s]:      5.98
LCAOMinimize: Encountered beta<0, resetting CG.
LCAOMinimize: Converged (|Delta F|<1.000000e-06 for 2 iters).


---- Citations for features of the code used in this run ----

   Software package:
      R. Sundararaman, K. Letchworth-Weaver, K.A. Schwarz, D. Gunceler, Y. Ozhabes and T.A. Arias, 'JDFTx: software for joint density-functional theory', SoftwareX 6, 278 (2017)

   gga-PBE exchange-correlation functional:
      J.P. Perdew, K. Burke and M. Ernzerhof, Phys. Rev. Lett. 77, 3865 (1996)

   Pseudopotentials:
      M Schlipf and F Gygi, Comput. Phys. Commun. 196, 36 (2015)

   Truncated Coulomb potentials:
      R. Sundararaman and T.A. Arias, Phys. Rev. B 87, 165122 (2013)

This list may not be complete. Please suggest additional citations or
report any other bugs at https://github.com/shankar1729/jdftx/issues

Initialization completed successfully at t[s]:      6.08


-------- Electronic minimization -----------
Will mix electronic density at each iteration.
	FillingsUpdate:  mu: -0.094203848  nElectrons: 9.000000  magneticMoment: [ Abs: 0.52000  Tot: -0.52000 ]
	FillingsUpdate:  mu: -0.104488418  nElectrons: 9.000000  magneticMoment: [ Abs: 0.52000  Tot: -0.52000 ]
SCF: Cycle:  0   F: -24.450880048542565   dF: -6.872e-03   |Residual|: 1.178e-02   |deigs|: 1.786e-01  t[s]:      8.56
	FillingsUpdate:  mu: -0.104303129  nElectrons: 9.000000  magneticMoment: [ Abs: 0.52000  Tot: -0.52000 ]
SCF: Cycle:  1   F: -24.451167262286198   dF: -2.872e-04   |Residual|: 8.458e-03   |deigs|: 7.161e-03  t[s]:     10.46
	FillingsUpdate:  mu: -0.102796398  nElectrons: 9.000000  magneticMoment: [ Abs: 0.52272  Tot: -0.52000 ]
SCF: Cycle:  2   F: -24.451271867744904   dF: -1.046e-04   |Residual|: 4.883e-03   |deigs|: 1.825e-03  t[s]:     12.36
	FillingsUpdate:  mu: -0.101822484  nElectrons: 9.000000  magneticMoment: [ Abs: 0.52009  Tot: -0.52000 ]
SCF: Cycle:  3   F: -24.451343131163629   dF: -7.126e-05   |Residual|: 3.093e-03   |deigs|: 1.698e-03  t[s]:     14.26
	FillingsUpdate:  mu: -0.100015521  nElectrons: 9.000000  magneticMoment: [ Abs: 0.52009  Tot: -0.52000 ]
SCF: Cycle:  4   F: -24.451384245485496   dF: -4.111e-05   |Residual|: 2.173e-03   |deigs|: 2.781e-03  t[s]:     16.22
	FillingsUpdate:  mu: -0.098729481  nElectrons: 9.000000  magneticMoment: [ Abs: 0.52064  Tot: -0.52000 ]
SCF: Cycle:  5   F: -24.451403008330580   dF: -1.876e-05   |Residual|: 1.629e-03   |deigs|: 2.966e-03  t[s]:     18.20
	FillingsUpdate:  mu: -0.096287994  nElectrons: 9.000000  magneticMoment: [ Abs: 0.52673  Tot: -0.52000 ]
SCF: Cycle:  6   F: -24.451401544189967   dF: +1.464e-06   |Residual|: 1.189e-03   |deigs|: 3.364e-03  t[s]:     20.21
	FillingsUpdate:  mu: -0.094015588  nElectrons: 9.000000  magneticMoment: [ Abs: 0.52768  Tot: -0.52000 ]
SCF: Cycle:  7   F: -24.451418516328264   dF: -1.697e-05   |Residual|: 1.128e-03   |deigs|: 2.943e-03  t[s]:     22.29
	FillingsUpdate:  mu: -0.094178519  nElectrons: 9.000000  magneticMoment: [ Abs: 0.52193  Tot: -0.52000 ]
SCF: Cycle:  8   F: -24.451431683197644   dF: -1.317e-05   |Residual|: 8.965e-04   |deigs|: 5.098e-04  t[s]:     24.53
	FillingsUpdate:  mu: -0.093079877  nElectrons: 9.000000  magneticMoment: [ Abs: 0.52226  Tot: -0.52000 ]
SCF: Cycle:  9   F: -24.451435487468590   dF: -3.804e-06   |Residual|: 7.409e-04   |deigs|: 1.080e-03  t[s]:     26.60
	FillingsUpdate:  mu: -0.091676947  nElectrons: 9.000000  magneticMoment: [ Abs: 0.52434  Tot: -0.52000 ]
SCF: Cycle: 10   F: -24.451436524830772   dF: -1.037e-06   |Residual|: 6.097e-04   |deigs|: 1.464e-03  t[s]:     28.80
	FillingsUpdate:  mu: -0.090639331  nElectrons: 9.000000  magneticMoment: [ Abs: 0.52378  Tot: -0.52000 ]
SCF: Cycle: 11   F: -24.451436386833254   dF: +1.380e-07   |Residual|: 5.504e-04   |deigs|: 1.188e-03  t[s]:     30.91
	FillingsUpdate:  mu: -0.089331446  nElectrons: 9.000000  magneticMoment: [ Abs: 0.52370  Tot: -0.52000 ]
SCF: Cycle: 12   F: -24.451445823442640   dF: -9.437e-06   |Residual|: 4.825e-04   |deigs|: 1.345e-03  t[s]:     33.11
	FillingsUpdate:  mu: -0.087797645  nElectrons: 9.000000  magneticMoment: [ Abs: 0.52458  Tot: -0.52000 ]
SCF: Cycle: 13   F: -24.451453567732234   dF: -7.744e-06   |Residual|: 4.455e-04   |deigs|: 1.524e-03  t[s]:     35.33
	FillingsUpdate:  mu: -0.086588828  nElectrons: 9.000000  magneticMoment: [ Abs: 0.52284  Tot: -0.52000 ]
SCF: Cycle: 14   F: -24.451457520012763   dF: -3.952e-06   |Residual|: 4.037e-04   |deigs|: 1.240e-03  t[s]:     37.40
	FillingsUpdate:  mu: -0.085220020  nElectrons: 9.000000  magneticMoment: [ Abs: 0.52100  Tot: -0.52000 ]
SCF: Cycle: 15   F: -24.451461094137631   dF: -3.574e-06   |Residual|: 2.922e-04   |deigs|: 1.479e-03  t[s]:     39.54
	FillingsUpdate:  mu: -0.084957219  nElectrons: 9.000000  magneticMoment: [ Abs: 0.52097  Tot: -0.52000 ]
SCF: Cycle: 16   F: -24.451462383824566   dF: -1.290e-06   |Residual|: 2.130e-04   |deigs|: 3.485e-04  t[s]:     41.65
	FillingsUpdate:  mu: -0.084860142  nElectrons: 9.000000  magneticMoment: [ Abs: 0.52026  Tot: -0.52000 ]
SCF: Cycle: 17   F: -24.451463421299671   dF: -1.037e-06   |Residual|: 1.376e-04   |deigs|: 3.239e-04  t[s]:     43.84
	FillingsUpdate:  mu: -0.084788299  nElectrons: 9.000000  magneticMoment: [ Abs: 0.52012  Tot: -0.52000 ]
SCF: Cycle: 18   F: -24.451463728088779   dF: -3.068e-07   |Residual|: 9.891e-05   |deigs|: 1.576e-04  t[s]:     45.89
	FillingsUpdate:  mu: -0.084727000  nElectrons: 9.000000  magneticMoment: [ Abs: 0.52022  Tot: -0.52000 ]
SCF: Cycle: 19   F: -24.451463863008094   dF: -1.349e-07   |Residual|: 4.172e-05   |deigs|: 1.732e-04  t[s]:     48.09
	FillingsUpdate:  mu: -0.084702280  nElectrons: 9.000000  magneticMoment: [ Abs: 0.52025  Tot: -0.52000 ]
SCF: Cycle: 20   F: -24.451463914966997   dF: -5.196e-08   |Residual|: 2.449e-05   |deigs|: 2.273e-04  t[s]:     50.19
	FillingsUpdate:  mu: -0.084696600  nElectrons: 9.000000  magneticMoment: [ Abs: 0.52027  Tot: -0.52000 ]
SCF: Cycle: 21   F: -24.451463938268500   dF: -2.330e-08   |Residual|: 1.560e-05   |deigs|: 1.935e-04  t[s]:     52.31
	FillingsUpdate:  mu: -0.084708428  nElectrons: 9.000000  magneticMoment: [ Abs: 0.52028  Tot: -0.52000 ]
SCF: Cycle: 22   F: -24.451463956734852   dF: -1.847e-08   |Residual|: 1.054e-05   |deigs|: 8.678e-05  t[s]:     54.43
	FillingsUpdate:  mu: -0.084720463  nElectrons: 9.000000  magneticMoment: [ Abs: 0.52026  Tot: -0.52000 ]
SCF: Cycle: 23   F: -24.451463962477749   dF: -5.743e-09   |Residual|: 8.035e-06   |deigs|: 8.589e-05  t[s]:     56.40
	FillingsUpdate:  mu: -0.084737755  nElectrons: 9.000000  magneticMoment: [ Abs: 0.52022  Tot: -0.52000 ]
SCF: Cycle: 24   F: -24.451463966609889   dF: -4.132e-09   |Residual|: 7.035e-06   |deigs|: 6.296e-05  t[s]:     58.50
SCF: Converged (|Delta E|<1.000000e-08 for 2 iters).


# Ionic positions in lattice coordinates:
ion Rb   0.000000000000000   0.000000000000000   0.000000000000000 0

# Forces in Lattice coordinates:
force Rb  -0.000000000000000  -0.000000000000000   0.000000000000000 0

# Energy components:
   Eewald =      -18.0480261003326561
       EH =        1.6588893450767563
     Eloc =      -10.5706131434155832
      Enl =       -0.7972441762699540
   Epulay =        0.0000000035676145
      Exc =       -3.6787538249467207
       KE =        6.9842843422215797
-------------------------------------
     Etot =      -24.4514635540989644
       TS =        0.0000004125109251
-------------------------------------
        F =      -24.4514639666098894

IonicMinimize: Iter:   0  F: -24.451463966609889  |grad|_K:  0.000e+00  t[s]:     58.63
IonicMinimize: Converged (|grad|_K<1.000000e-04).

#--- Lowdin population analysis ---
# oxidation-state Rb +0.069
# magnetic-moments Rb -0.459

End date and time: Sun Feb  6 12:41:56 2022  (Duration: 0-0:00:58.66)
Done!
