
*************** JDFTx 1.6.0 (git hash 42ebbcc2) ***************

Start date and time: Sun Feb  6 12:41:28 2022
Executable jdftx with command-line: -i Alkali.in
Running on hosts (process indices):  d-17-2-2 (0-18)
Divided in process groups (process indices):  0 (0)  1 (1)  2 (2)  3 (3)  4 (4)  5 (5)  6 (6)  7 (7)  8 (8)  9 (9)  10 (10)  11 (11)  12 (12)  13 (13)  14 (14)  15 (15)  16 (16)  17 (17)  18 (18)
Resource initialization completed at t[s]:      0.00
Run totals: 19 processes, 48 threads, 0 GPUs


Input parsed successfully to the following command list (including defaults):

basis kpoint-dependent
coords-type Lattice
core-overlap-check vector
coulomb-interaction Slab 001
davidson-band-ratio 1.1
dump End None
dump-name $INPUT.$VAR
elec-cutoff 20
elec-eigen-algo Davidson
elec-ex-corr gga-PBE
elec-initial-magnetization -0.280000 yes
elec-smearing Fermi 1e-05
electronic-minimize  \
	dirUpdateScheme      FletcherReeves \
	linminMethod         DirUpdateRecommended \
	nIterations          100 \
	history              15 \
	knormThreshold       0 \
	energyDiffThreshold  1e-08 \
	nEnergyDiff          2 \
	alphaTstart          1 \
	alphaTmin            1e-10 \
	updateTestStepSize   yes \
	alphaTreduceFactor   0.1 \
	alphaTincreaseFactor 3 \
	nAlphaAdjustMax      3 \
	wolfeEnergy          0.0001 \
	wolfeGradient        0.9 \
	fdTest               no
electronic-scf  \
	nIterations	10000 \
	energyDiffThreshold	1e-08 \
	residualThreshold	1e-07 \
	mixFraction	0.5 \
	qMetric	0.8 \
	history	10 \
	nEigSteps	2 \
	eigDiffThreshold	1e-08 \
	mixedVariable	Density \
	qKerker	0.8 \
	qKappa	-1 \
	verbose	no \
	mixFractionMag	1.5
exchange-regularization WignerSeitzTruncated
fluid None
fluid-ex-corr (null) lda-PZ
fluid-gummel-loop 10 1.000000e-05
fluid-minimize  \
	dirUpdateScheme      PolakRibiere \
	linminMethod         DirUpdateRecommended \
	nIterations          100 \
	history              15 \
	knormThreshold       0 \
	energyDiffThreshold  0 \
	nEnergyDiff          2 \
	alphaTstart          1 \
	alphaTmin            1e-10 \
	updateTestStepSize   yes \
	alphaTreduceFactor   0.1 \
	alphaTincreaseFactor 3 \
	nAlphaAdjustMax      3 \
	wolfeEnergy          0.0001 \
	wolfeGradient        0.9 \
	fdTest               no
fluid-solvent H2O 55.338 ScalarEOS \
	epsBulk 78.4 \
	pMol 0.92466 \
	epsInf 1.77 \
	Pvap 1.06736e-10 \
	sigmaBulk 4.62e-05 \
	Rvdw 2.61727 \
	Res 1.42 \
	tauNuc 343133 \
	poleEl 15 7 1
forces-output-coords Positions
ion Rb   0.000000000000000   0.000000000000000   0.000000000000000 0
ion-species SG15/$ID_ONCV_PBE.upf
ion-width 0
ionic-minimize  \
	dirUpdateScheme      L-BFGS \
	linminMethod         DirUpdateRecommended \
	nIterations          0 \
	history              15 \
	knormThreshold       0.0001 \
	energyDiffThreshold  1e-06 \
	nEnergyDiff          2 \
	alphaTstart          1 \
	alphaTmin            1e-10 \
	updateTestStepSize   yes \
	alphaTreduceFactor   0.1 \
	alphaTincreaseFactor 3 \
	nAlphaAdjustMax      3 \
	wolfeEnergy          0.0001 \
	wolfeGradient        0.9 \
	fdTest               no
kpoint   0.000000000000   0.000000000000   0.000000000000  1.00000000000000
kpoint-folding 12 12 1 
latt-move-scale 1 1 1
latt-scale 2 2 1 
lattice  \
	   4.727486978767153   -2.363743489383575    0.000000000000000  \
	  -0.000000000000000    4.094123819672498    0.000000000000000  \
	   0.000000000000000    0.000000000000000   40.000000000000000 
lattice-minimize  \
	dirUpdateScheme      L-BFGS \
	linminMethod         DirUpdateRecommended \
	nIterations          0 \
	history              15 \
	knormThreshold       0 \
	energyDiffThreshold  1e-06 \
	nEnergyDiff          2 \
	alphaTstart          1 \
	alphaTmin            1e-10 \
	updateTestStepSize   yes \
	alphaTreduceFactor   0.1 \
	alphaTincreaseFactor 3 \
	nAlphaAdjustMax      3 \
	wolfeEnergy          0.0001 \
	wolfeGradient        0.9 \
	fdTest               no
lcao-params -1 1e-06 1e-05
pcm-variant GLSSA13
spintype z-spin
subspace-rotation-factor 1 yes
symmetries automatic
symmetry-threshold 0.0001



---------- Setting up symmetries ----------

Found 24 point-group symmetries of the bravais lattice
Found 24 space-group symmetries with basis
Applied RMS atom displacement 0 bohrs to make symmetries exact.

---------- Initializing the Grid ----------
R = 
[      9.45497     -4.72749            0  ]
[            0      8.18825            0  ]
[            0            0           40  ]
unit cell volume = 3096.79
G =
[   0.664538   0.383671         -0  ]
[          0   0.767342         -0  ]
[         -0         -0    0.15708  ]
Minimum fftbox size, Smin = [  40  40  164  ]
Chosen fftbox size, S = [  40  40  168  ]

---------- Exchange Correlation functional ----------
Initalized PBE GGA exchange.
Initalized PBE GGA correlation.

---------- Setting up pseudopotentials ----------
Width of ionic core gaussian charges (only for fluid interactions / plotting) set to 0

Reading pseudopotential file '/home/gridsan/aligho/DFT/build-Nov24/pseudopotentials/SG15/Rb_ONCV_PBE.upf':
  'Rb' pseudopotential, 'PBE' functional
  Generated using ONCVPSP code by D. R. Hamann
  Author: Martin Schlipf and Francois Gygi  Date: 150915.
  9 valence electrons, 3 orbitals, 6 projectors, 2308 radial grid points, with lMax = 2
  Transforming local potential to a uniform radial grid of dG=0.02 with 1489 points.
  Transforming nonlocal projectors to a uniform radial grid of dG=0.02 with 432 points.
    4S    l: 0   occupation:  2.0   eigenvalue: -1.172069
    4P    l: 1   occupation:  6.0   eigenvalue: -0.586674
    5S    l: 0   occupation:  1.0   eigenvalue: -0.082006
  Transforming atomic orbitals to a uniform radial grid of dG=0.02 with 432 points.
  Core radius for overlap checks: 2.60 bohrs.
  Reading pulay file /home/gridsan/aligho/DFT/build-Nov24/pseudopotentials/SG15/Rb_ONCV_PBE.pulay ... using dE_dnG = -1.360715e-05 computed for Ecut = 20.

Initialized 1 species with 1 total atoms.

Folded 1 k-points by 12x12x1 to 144 k-points.

---------- Setting up k-points, bands, fillings ----------
Reduced to 19 k-points under symmetry. 
Computing the number of bands and number of electrons
Calculating initial fillings.
nElectrons:   9.000000   nBands: 6   nStates: 38

----- Setting up reduced wavefunction bases (one per k-point) -----
average nbasis = 13230.521 , ideal nbasis = 13229.709

---------- Setting up coulomb interaction ----------
Initialized slab truncation along lattice direction 001

---------- Setting up 2D ewald sum ----------
Optimum gaussian width for ewald sums = 5.249020 bohr.
Real space sums over 289 unit cells with max indices [  8  8  0  ]
Reciprocal space sums over 81 terms with max indices [  4  4  0  ]

---------- Allocating electronic variables ----------
Initializing wave functions:  linear combination of atomic orbitals
Note: number of bands (6) exceeds available atomic orbitals (5)
Rb pseudo-atom occupations:   s ( 2 1 )  p ( 6 )
	FillingsUpdate:  mu: -0.092294417  nElectrons: 9.000000  magneticMoment: [ Abs: 0.28000  Tot: -0.28000 ]
LCAOMinimize: Iter:   0  F: -24.4487694890569784  |grad|_K:  4.058e-05  alpha:  1.000e+00
	FillingsUpdate:  mu: -0.092279459  nElectrons: 9.000000  magneticMoment: [ Abs: 0.28000  Tot: -0.28000 ]
LCAOMinimize: Iter:   1  F: -24.4487705879702055  |grad|_K:  4.237e-07  alpha:  9.761e-01  linmin: -3.867e-02  cgtest:  4.553e-01  t[s]:      4.64
LCAOMinimize: Encountered beta<0, resetting CG.
	FillingsUpdate:  mu: -0.092279504  nElectrons: 9.000000  magneticMoment: [ Abs: 0.28000  Tot: -0.28000 ]
LCAOMinimize: Iter:   2  F: -24.4487705880931863  |grad|_K:  8.576e-10  alpha:  1.003e+00  linmin:  1.166e-01  cgtest: -8.173e-01  t[s]:      5.82
LCAOMinimize: 	Step increased F by 1.421085e-14, reducing alpha to 1.176935e-03.
LCAOMinimize: 	Step increased F by 3.552714e-15, reducing alpha to 1.176935e-04.
	FillingsUpdate:  mu: -0.092279504  nElectrons: 9.000000  magneticMoment: [ Abs: 0.28000  Tot: -0.28000 ]
LCAOMinimize: Iter:   3  F: -24.4487705880932502  |grad|_K:  8.575e-10  alpha:  1.177e-04  linmin: -1.348e-02  cgtest:  1.000e+00  t[s]:      8.42
LCAOMinimize: Encountered beta<0, resetting CG.
LCAOMinimize: Converged (|Delta F|<1.000000e-06 for 2 iters).


---- Citations for features of the code used in this run ----

   Software package:
      R. Sundararaman, K. Letchworth-Weaver, K.A. Schwarz, D. Gunceler, Y. Ozhabes and T.A. Arias, 'JDFTx: software for joint density-functional theory', SoftwareX 6, 278 (2017)

   gga-PBE exchange-correlation functional:
      J.P. Perdew, K. Burke and M. Ernzerhof, Phys. Rev. Lett. 77, 3865 (1996)

   Pseudopotentials:
      M Schlipf and F Gygi, Comput. Phys. Commun. 196, 36 (2015)

   Truncated Coulomb potentials:
      R. Sundararaman and T.A. Arias, Phys. Rev. B 87, 165122 (2013)

This list may not be complete. Please suggest additional citations or
report any other bugs at https://github.com/shankar1729/jdftx/issues

Initialization completed successfully at t[s]:      8.52


-------- Electronic minimization -----------
Will mix electronic density at each iteration.
	FillingsUpdate:  mu: -0.092279504  nElectrons: 9.000000  magneticMoment: [ Abs: 0.28000  Tot: -0.28000 ]
	FillingsUpdate:  mu: -0.103163897  nElectrons: 9.000000  magneticMoment: [ Abs: 0.28000  Tot: -0.28000 ]
SCF: Cycle:  0   F: -24.453609711655933   dF: -4.839e-03   |Residual|: 9.438e-03   |deigs|: 1.793e-01  t[s]:     10.97
	FillingsUpdate:  mu: -0.102877678  nElectrons: 9.000000  magneticMoment: [ Abs: 0.28000  Tot: -0.28000 ]
SCF: Cycle:  1   F: -24.453800882413422   dF: -1.912e-04   |Residual|: 7.154e-03   |deigs|: 7.357e-03  t[s]:     12.83
	FillingsUpdate:  mu: -0.101230189  nElectrons: 9.000000  magneticMoment: [ Abs: 0.28306  Tot: -0.28000 ]
SCF: Cycle:  2   F: -24.453896197576451   dF: -9.532e-05   |Residual|: 3.608e-03   |deigs|: 1.420e-03  t[s]:     14.82
	FillingsUpdate:  mu: -0.100066421  nElectrons: 9.000000  magneticMoment: [ Abs: 0.28005  Tot: -0.28000 ]
SCF: Cycle:  3   F: -24.453946965977845   dF: -5.077e-05   |Residual|: 2.355e-03   |deigs|: 2.538e-03  t[s]:     16.74
	FillingsUpdate:  mu: -0.098414629  nElectrons: 9.000000  magneticMoment: [ Abs: 0.28002  Tot: -0.28000 ]
SCF: Cycle:  4   F: -24.453977278218698   dF: -3.031e-05   |Residual|: 1.976e-03   |deigs|: 3.060e-03  t[s]:     18.81
	FillingsUpdate:  mu: -0.097037983  nElectrons: 9.000000  magneticMoment: [ Abs: 0.28161  Tot: -0.28000 ]
SCF: Cycle:  5   F: -24.453993542789512   dF: -1.626e-05   |Residual|: 1.405e-03   |deigs|: 3.791e-03  t[s]:     20.75
	FillingsUpdate:  mu: -0.094664067  nElectrons: 9.000000  magneticMoment: [ Abs: 0.28531  Tot: -0.28000 ]
SCF: Cycle:  6   F: -24.453994084821051   dF: -5.420e-07   |Residual|: 1.033e-03   |deigs|: 2.946e-03  t[s]:     22.70
	FillingsUpdate:  mu: -0.093288900  nElectrons: 9.000000  magneticMoment: [ Abs: 0.28415  Tot: -0.28000 ]
SCF: Cycle:  7   F: -24.454011079475837   dF: -1.699e-05   |Residual|: 9.788e-04   |deigs|: 1.558e-03  t[s]:     24.78
	FillingsUpdate:  mu: -0.093303178  nElectrons: 9.000000  magneticMoment: [ Abs: 0.28076  Tot: -0.28000 ]
SCF: Cycle:  8   F: -24.454018584875858   dF: -7.505e-06   |Residual|: 8.133e-04   |deigs|: 4.028e-04  t[s]:     26.78
	FillingsUpdate:  mu: -0.091764134  nElectrons: 9.000000  magneticMoment: [ Abs: 0.28243  Tot: -0.28000 ]
SCF: Cycle:  9   F: -24.454019465180476   dF: -8.803e-07   |Residual|: 6.921e-04   |deigs|: 1.573e-03  t[s]:     28.78
	FillingsUpdate:  mu: -0.090474184  nElectrons: 9.000000  magneticMoment: [ Abs: 0.28311  Tot: -0.28000 ]
SCF: Cycle: 10   F: -24.454016251028971   dF: +3.214e-06   |Residual|: 5.832e-04   |deigs|: 1.426e-03  t[s]:     30.93
	FillingsUpdate:  mu: -0.089332695  nElectrons: 9.000000  magneticMoment: [ Abs: 0.28246  Tot: -0.28000 ]
SCF: Cycle: 11   F: -24.454023527852247   dF: -7.277e-06   |Residual|: 5.077e-04   |deigs|: 1.234e-03  t[s]:     33.00
	FillingsUpdate:  mu: -0.087982265  nElectrons: 9.000000  magneticMoment: [ Abs: 0.28218  Tot: -0.28000 ]
SCF: Cycle: 12   F: -24.454036316006071   dF: -1.279e-05   |Residual|: 4.732e-04   |deigs|: 1.317e-03  t[s]:     35.07
	FillingsUpdate:  mu: -0.086738376  nElectrons: 9.000000  magneticMoment: [ Abs: 0.28181  Tot: -0.28000 ]
SCF: Cycle: 13   F: -24.454040109237756   dF: -3.793e-06   |Residual|: 4.360e-04   |deigs|: 1.293e-03  t[s]:     37.07
	FillingsUpdate:  mu: -0.085319349  nElectrons: 9.000000  magneticMoment: [ Abs: 0.28024  Tot: -0.28000 ]
SCF: Cycle: 14   F: -24.454044420724404   dF: -4.311e-06   |Residual|: 3.669e-04   |deigs|: 1.475e-03  t[s]:     39.17
	FillingsUpdate:  mu: -0.084821387  nElectrons: 9.000000  magneticMoment: [ Abs: 0.28052  Tot: -0.28000 ]
SCF: Cycle: 15   F: -24.454046882168257   dF: -2.461e-06   |Residual|: 2.589e-04   |deigs|: 5.190e-04  t[s]:     41.25
	FillingsUpdate:  mu: -0.084350906  nElectrons: 9.000000  magneticMoment: [ Abs: 0.28064  Tot: -0.28000 ]
SCF: Cycle: 16   F: -24.454048091409128   dF: -1.209e-06   |Residual|: 1.636e-04   |deigs|: 5.515e-04  t[s]:     43.29
	FillingsUpdate:  mu: -0.084248705  nElectrons: 9.000000  magneticMoment: [ Abs: 0.28014  Tot: -0.28000 ]
SCF: Cycle: 17   F: -24.454048495105269   dF: -4.037e-07   |Residual|: 9.659e-05   |deigs|: 1.929e-04  t[s]:     45.34
	FillingsUpdate:  mu: -0.084259740  nElectrons: 9.000000  magneticMoment: [ Abs: 0.28023  Tot: -0.28000 ]
SCF: Cycle: 18   F: -24.454048654680189   dF: -1.596e-07   |Residual|: 6.080e-05   |deigs|: 4.392e-04  t[s]:     47.32
	FillingsUpdate:  mu: -0.084266417  nElectrons: 9.000000  magneticMoment: [ Abs: 0.28013  Tot: -0.28000 ]
SCF: Cycle: 19   F: -24.454048714406778   dF: -5.973e-08   |Residual|: 3.278e-05   |deigs|: 2.751e-04  t[s]:     49.45
	FillingsUpdate:  mu: -0.084277072  nElectrons: 9.000000  magneticMoment: [ Abs: 0.28009  Tot: -0.28000 ]
SCF: Cycle: 20   F: -24.454048748518854   dF: -3.411e-08   |Residual|: 1.641e-05   |deigs|: 1.752e-04  t[s]:     51.50
	FillingsUpdate:  mu: -0.084262796  nElectrons: 9.000000  magneticMoment: [ Abs: 0.28011  Tot: -0.28000 ]
SCF: Cycle: 21   F: -24.454048754233771   dF: -5.715e-09   |Residual|: 1.080e-05   |deigs|: 1.689e-04  t[s]:     53.51
	FillingsUpdate:  mu: -0.084259328  nElectrons: 9.000000  magneticMoment: [ Abs: 0.28012  Tot: -0.28000 ]
SCF: Cycle: 22   F: -24.454048759320901   dF: -5.087e-09   |Residual|: 6.016e-06   |deigs|: 1.562e-04  t[s]:     55.55
SCF: Converged (|Delta E|<1.000000e-08 for 2 iters).


# Ionic positions in lattice coordinates:
ion Rb   0.000000000000000   0.000000000000000   0.000000000000000 0

# Forces in Lattice coordinates:
force Rb  -0.000000000000000   0.000000000000000   0.000000000000000 0

# Energy components:
   Eewald =      -18.0480261003326561
       EH =        1.6488545180825556
     Eloc =      -10.5604498207294633
      Enl =       -0.7959988818912771
   Epulay =        0.0000000035676145
      Exc =       -3.6765419565772439
       KE =        6.9781141635803001
-------------------------------------
     Etot =      -24.4540480743001680
       TS =        0.0000006850207335
-------------------------------------
        F =      -24.4540487593209015

IonicMinimize: Iter:   0  F: -24.454048759320901  |grad|_K:  0.000e+00  t[s]:     55.67
IonicMinimize: Converged (|grad|_K<1.000000e-04).

#--- Lowdin population analysis ---
# oxidation-state Rb +0.041
# magnetic-moments Rb -0.253

End date and time: Sun Feb  6 12:42:24 2022  (Duration: 0-0:00:55.69)
Done!
