
*************** JDFTx 1.6.0 (git hash 42ebbcc2) ***************

Start date and time: Sun Feb  6 12:40:57 2022
Executable jdftx with command-line: -i Alkali.in
Running on hosts (process indices):  d-16-6-2 (0-18)
Divided in process groups (process indices):  0 (0)  1 (1)  2 (2)  3 (3)  4 (4)  5 (5)  6 (6)  7 (7)  8 (8)  9 (9)  10 (10)  11 (11)  12 (12)  13 (13)  14 (14)  15 (15)  16 (16)  17 (17)  18 (18)
Resource initialization completed at t[s]:      0.00
Run totals: 19 processes, 48 threads, 0 GPUs


Input parsed successfully to the following command list (including defaults):

basis kpoint-dependent
coords-type Lattice
core-overlap-check vector
coulomb-interaction Slab 001
davidson-band-ratio 1.1
dump End None
dump-name $INPUT.$VAR
elec-cutoff 20
elec-eigen-algo Davidson
elec-ex-corr gga-PBE
elec-initial-magnetization -0.460000 yes
elec-smearing Fermi 1e-05
electronic-minimize  \
	dirUpdateScheme      FletcherReeves \
	linminMethod         DirUpdateRecommended \
	nIterations          100 \
	history              15 \
	knormThreshold       0 \
	energyDiffThreshold  1e-08 \
	nEnergyDiff          2 \
	alphaTstart          1 \
	alphaTmin            1e-10 \
	updateTestStepSize   yes \
	alphaTreduceFactor   0.1 \
	alphaTincreaseFactor 3 \
	nAlphaAdjustMax      3 \
	wolfeEnergy          0.0001 \
	wolfeGradient        0.9 \
	fdTest               no
electronic-scf  \
	nIterations	10000 \
	energyDiffThreshold	1e-08 \
	residualThreshold	1e-07 \
	mixFraction	0.5 \
	qMetric	0.8 \
	history	10 \
	nEigSteps	2 \
	eigDiffThreshold	1e-08 \
	mixedVariable	Density \
	qKerker	0.8 \
	qKappa	-1 \
	verbose	no \
	mixFractionMag	1.5
exchange-regularization WignerSeitzTruncated
fluid None
fluid-ex-corr (null) lda-PZ
fluid-gummel-loop 10 1.000000e-05
fluid-minimize  \
	dirUpdateScheme      PolakRibiere \
	linminMethod         DirUpdateRecommended \
	nIterations          100 \
	history              15 \
	knormThreshold       0 \
	energyDiffThreshold  0 \
	nEnergyDiff          2 \
	alphaTstart          1 \
	alphaTmin            1e-10 \
	updateTestStepSize   yes \
	alphaTreduceFactor   0.1 \
	alphaTincreaseFactor 3 \
	nAlphaAdjustMax      3 \
	wolfeEnergy          0.0001 \
	wolfeGradient        0.9 \
	fdTest               no
fluid-solvent H2O 55.338 ScalarEOS \
	epsBulk 78.4 \
	pMol 0.92466 \
	epsInf 1.77 \
	Pvap 1.06736e-10 \
	sigmaBulk 4.62e-05 \
	Rvdw 2.61727 \
	Res 1.42 \
	tauNuc 343133 \
	poleEl 15 7 1
forces-output-coords Positions
ion Rb   0.000000000000000   0.000000000000000   0.000000000000000 0
ion-species SG15/$ID_ONCV_PBE.upf
ion-width 0
ionic-minimize  \
	dirUpdateScheme      L-BFGS \
	linminMethod         DirUpdateRecommended \
	nIterations          0 \
	history              15 \
	knormThreshold       0.0001 \
	energyDiffThreshold  1e-06 \
	nEnergyDiff          2 \
	alphaTstart          1 \
	alphaTmin            1e-10 \
	updateTestStepSize   yes \
	alphaTreduceFactor   0.1 \
	alphaTincreaseFactor 3 \
	nAlphaAdjustMax      3 \
	wolfeEnergy          0.0001 \
	wolfeGradient        0.9 \
	fdTest               no
kpoint   0.000000000000   0.000000000000   0.000000000000  1.00000000000000
kpoint-folding 12 12 1 
latt-move-scale 1 1 1
latt-scale 2 2 1 
lattice  \
	   4.727486978767153   -2.363743489383575    0.000000000000000  \
	  -0.000000000000000    4.094123819672498    0.000000000000000  \
	   0.000000000000000    0.000000000000000   40.000000000000000 
lattice-minimize  \
	dirUpdateScheme      L-BFGS \
	linminMethod         DirUpdateRecommended \
	nIterations          0 \
	history              15 \
	knormThreshold       0 \
	energyDiffThreshold  1e-06 \
	nEnergyDiff          2 \
	alphaTstart          1 \
	alphaTmin            1e-10 \
	updateTestStepSize   yes \
	alphaTreduceFactor   0.1 \
	alphaTincreaseFactor 3 \
	nAlphaAdjustMax      3 \
	wolfeEnergy          0.0001 \
	wolfeGradient        0.9 \
	fdTest               no
lcao-params -1 1e-06 1e-05
pcm-variant GLSSA13
spintype z-spin
subspace-rotation-factor 1 yes
symmetries automatic
symmetry-threshold 0.0001



---------- Setting up symmetries ----------

Found 24 point-group symmetries of the bravais lattice
Found 24 space-group symmetries with basis
Applied RMS atom displacement 0 bohrs to make symmetries exact.

---------- Initializing the Grid ----------
R = 
[      9.45497     -4.72749            0  ]
[            0      8.18825            0  ]
[            0            0           40  ]
unit cell volume = 3096.79
G =
[   0.664538   0.383671         -0  ]
[          0   0.767342         -0  ]
[         -0         -0    0.15708  ]
Minimum fftbox size, Smin = [  40  40  164  ]
Chosen fftbox size, S = [  40  40  168  ]

---------- Exchange Correlation functional ----------
Initalized PBE GGA exchange.
Initalized PBE GGA correlation.

---------- Setting up pseudopotentials ----------
Width of ionic core gaussian charges (only for fluid interactions / plotting) set to 0

Reading pseudopotential file '/home/gridsan/aligho/DFT/build-Nov24/pseudopotentials/SG15/Rb_ONCV_PBE.upf':
  'Rb' pseudopotential, 'PBE' functional
  Generated using ONCVPSP code by D. R. Hamann
  Author: Martin Schlipf and Francois Gygi  Date: 150915.
  9 valence electrons, 3 orbitals, 6 projectors, 2308 radial grid points, with lMax = 2
  Transforming local potential to a uniform radial grid of dG=0.02 with 1489 points.
  Transforming nonlocal projectors to a uniform radial grid of dG=0.02 with 432 points.
    4S    l: 0   occupation:  2.0   eigenvalue: -1.172069
    4P    l: 1   occupation:  6.0   eigenvalue: -0.586674
    5S    l: 0   occupation:  1.0   eigenvalue: -0.082006
  Transforming atomic orbitals to a uniform radial grid of dG=0.02 with 432 points.
  Core radius for overlap checks: 2.60 bohrs.
  Reading pulay file /home/gridsan/aligho/DFT/build-Nov24/pseudopotentials/SG15/Rb_ONCV_PBE.pulay ... using dE_dnG = -1.360715e-05 computed for Ecut = 20.

Initialized 1 species with 1 total atoms.

Folded 1 k-points by 12x12x1 to 144 k-points.

---------- Setting up k-points, bands, fillings ----------
Reduced to 19 k-points under symmetry. 
Computing the number of bands and number of electrons
Calculating initial fillings.
nElectrons:   9.000000   nBands: 6   nStates: 38

----- Setting up reduced wavefunction bases (one per k-point) -----
average nbasis = 13230.521 , ideal nbasis = 13229.709

---------- Setting up coulomb interaction ----------
Initialized slab truncation along lattice direction 001

---------- Setting up 2D ewald sum ----------
Optimum gaussian width for ewald sums = 5.249020 bohr.
Real space sums over 289 unit cells with max indices [  8  8  0  ]
Reciprocal space sums over 81 terms with max indices [  4  4  0  ]

---------- Allocating electronic variables ----------
Initializing wave functions:  linear combination of atomic orbitals
Note: number of bands (6) exceeds available atomic orbitals (5)
Rb pseudo-atom occupations:   s ( 2 1 )  p ( 6 )
	FillingsUpdate:  mu: -0.092363730  nElectrons: 9.000000  magneticMoment: [ Abs: 0.46000  Tot: -0.46000 ]
LCAOMinimize: Iter:   0  F: -24.4453076797658717  |grad|_K:  3.310e-05  alpha:  1.000e+00
	FillingsUpdate:  mu: -0.092351948  nElectrons: 9.000000  magneticMoment: [ Abs: 0.46000  Tot: -0.46000 ]
LCAOMinimize: Iter:   1  F: -24.4453084116116308  |grad|_K:  3.242e-07  alpha:  9.770e-01  linmin: -3.398e-02  cgtest:  4.006e-01  t[s]:      4.45
LCAOMinimize: Encountered beta<0, resetting CG.
	FillingsUpdate:  mu: -0.092352006  nElectrons: 9.000000  magneticMoment: [ Abs: 0.46000  Tot: -0.46000 ]
LCAOMinimize: Iter:   2  F: -24.4453084116840031  |grad|_K:  3.440e-09  alpha:  1.012e+00  linmin:  1.135e-01  cgtest: -9.930e-01  t[s]:      5.68
LCAOMinimize: Converged (|Delta F|<1.000000e-06 for 2 iters).


---- Citations for features of the code used in this run ----

   Software package:
      R. Sundararaman, K. Letchworth-Weaver, K.A. Schwarz, D. Gunceler, Y. Ozhabes and T.A. Arias, 'JDFTx: software for joint density-functional theory', SoftwareX 6, 278 (2017)

   gga-PBE exchange-correlation functional:
      J.P. Perdew, K. Burke and M. Ernzerhof, Phys. Rev. Lett. 77, 3865 (1996)

   Pseudopotentials:
      M Schlipf and F Gygi, Comput. Phys. Commun. 196, 36 (2015)

   Truncated Coulomb potentials:
      R. Sundararaman and T.A. Arias, Phys. Rev. B 87, 165122 (2013)

This list may not be complete. Please suggest additional citations or
report any other bugs at https://github.com/shankar1729/jdftx/issues

Initialization completed successfully at t[s]:      5.77


-------- Electronic minimization -----------
Will mix electronic density at each iteration.
	FillingsUpdate:  mu: -0.092352006  nElectrons: 9.000000  magneticMoment: [ Abs: 0.46000  Tot: -0.46000 ]
	FillingsUpdate:  mu: -0.103136700  nElectrons: 9.000000  magneticMoment: [ Abs: 0.46000  Tot: -0.46000 ]
SCF: Cycle:  0   F: -24.451639532309247   dF: -6.331e-03   |Residual|: 1.113e-02   |deigs|: 1.789e-01  t[s]:      8.10
	FillingsUpdate:  mu: -0.102859990  nElectrons: 9.000000  magneticMoment: [ Abs: 0.46000  Tot: -0.46000 ]
SCF: Cycle:  1   F: -24.451899714663611   dF: -2.602e-04   |Residual|: 8.067e-03   |deigs|: 7.020e-03  t[s]:      9.94
	FillingsUpdate:  mu: -0.101409954  nElectrons: 9.000000  magneticMoment: [ Abs: 0.46278  Tot: -0.46000 ]
SCF: Cycle:  2   F: -24.451999417983707   dF: -9.970e-05   |Residual|: 4.575e-03   |deigs|: 2.008e-03  t[s]:     11.81
	FillingsUpdate:  mu: -0.100430445  nElectrons: 9.000000  magneticMoment: [ Abs: 0.46010  Tot: -0.46000 ]
SCF: Cycle:  3   F: -24.452066299434957   dF: -6.688e-05   |Residual|: 2.908e-03   |deigs|: 1.705e-03  t[s]:     13.66
	FillingsUpdate:  mu: -0.098662523  nElectrons: 9.000000  magneticMoment: [ Abs: 0.46007  Tot: -0.46000 ]
SCF: Cycle:  4   F: -24.452103801279961   dF: -3.750e-05   |Residual|: 2.122e-03   |deigs|: 2.907e-03  t[s]:     15.51
	FillingsUpdate:  mu: -0.097445314  nElectrons: 9.000000  magneticMoment: [ Abs: 0.46069  Tot: -0.46000 ]
SCF: Cycle:  5   F: -24.452122004597879   dF: -1.820e-05   |Residual|: 1.578e-03   |deigs|: 3.342e-03  t[s]:     17.39
	FillingsUpdate:  mu: -0.094958828  nElectrons: 9.000000  magneticMoment: [ Abs: 0.46683  Tot: -0.46000 ]
SCF: Cycle:  6   F: -24.452120373029683   dF: +1.632e-06   |Residual|: 1.139e-03   |deigs|: 3.236e-03  t[s]:     19.28
	FillingsUpdate:  mu: -0.092931709  nElectrons: 9.000000  magneticMoment: [ Abs: 0.46702  Tot: -0.46000 ]
SCF: Cycle:  7   F: -24.452136680929645   dF: -1.631e-05   |Residual|: 1.089e-03   |deigs|: 2.604e-03  t[s]:     21.23
	FillingsUpdate:  mu: -0.093038563  nElectrons: 9.000000  magneticMoment: [ Abs: 0.46187  Tot: -0.46000 ]
SCF: Cycle:  8   F: -24.452148352403373   dF: -1.167e-05   |Residual|: 8.844e-04   |deigs|: 5.233e-04  t[s]:     23.14
	FillingsUpdate:  mu: -0.091894792  nElectrons: 9.000000  magneticMoment: [ Abs: 0.46249  Tot: -0.46000 ]
SCF: Cycle:  9   F: -24.452151638994859   dF: -3.287e-06   |Residual|: 7.400e-04   |deigs|: 1.122e-03  t[s]:     25.13
	FillingsUpdate:  mu: -0.090507068  nElectrons: 9.000000  magneticMoment: [ Abs: 0.46421  Tot: -0.46000 ]
SCF: Cycle: 10   F: -24.452152534945174   dF: -8.960e-07   |Residual|: 5.986e-04   |deigs|: 1.459e-03  t[s]:     27.12
	FillingsUpdate:  mu: -0.089487113  nElectrons: 9.000000  magneticMoment: [ Abs: 0.46354  Tot: -0.46000 ]
SCF: Cycle: 11   F: -24.452153313705004   dF: -7.788e-07   |Residual|: 5.475e-04   |deigs|: 1.082e-03  t[s]:     29.14
	FillingsUpdate:  mu: -0.088109644  nElectrons: 9.000000  magneticMoment: [ Abs: 0.46340  Tot: -0.46000 ]
SCF: Cycle: 12   F: -24.452163436643147   dF: -1.012e-05   |Residual|: 4.787e-04   |deigs|: 1.381e-03  t[s]:     31.22
	FillingsUpdate:  mu: -0.086636248  nElectrons: 9.000000  magneticMoment: [ Abs: 0.46405  Tot: -0.46000 ]
SCF: Cycle: 13   F: -24.452170503234385   dF: -7.067e-06   |Residual|: 4.422e-04   |deigs|: 1.474e-03  t[s]:     33.18
	FillingsUpdate:  mu: -0.085432157  nElectrons: 9.000000  magneticMoment: [ Abs: 0.46230  Tot: -0.46000 ]
SCF: Cycle: 14   F: -24.452174491140376   dF: -3.988e-06   |Residual|: 3.956e-04   |deigs|: 1.229e-03  t[s]:     35.17
	FillingsUpdate:  mu: -0.084155540  nElectrons: 9.000000  magneticMoment: [ Abs: 0.46080  Tot: -0.46000 ]
SCF: Cycle: 15   F: -24.452177988457542   dF: -3.497e-06   |Residual|: 2.826e-04   |deigs|: 1.388e-03  t[s]:     37.17
	FillingsUpdate:  mu: -0.083900485  nElectrons: 9.000000  magneticMoment: [ Abs: 0.46084  Tot: -0.46000 ]
SCF: Cycle: 16   F: -24.452179238270727   dF: -1.250e-06   |Residual|: 2.081e-04   |deigs|: 8.364e-04  t[s]:     39.08
	FillingsUpdate:  mu: -0.083896402  nElectrons: 9.000000  magneticMoment: [ Abs: 0.46011  Tot: -0.46000 ]
SCF: Cycle: 17   F: -24.452180000247857   dF: -7.620e-07   |Residual|: 1.248e-04   |deigs|: 3.529e-04  t[s]:     41.09
	FillingsUpdate:  mu: -0.083767154  nElectrons: 9.000000  magneticMoment: [ Abs: 0.46006  Tot: -0.46000 ]
SCF: Cycle: 18   F: -24.452180283564395   dF: -2.833e-07   |Residual|: 8.891e-05   |deigs|: 1.693e-04  t[s]:     43.07
	FillingsUpdate:  mu: -0.083705114  nElectrons: 9.000000  magneticMoment: [ Abs: 0.46009  Tot: -0.46000 ]
SCF: Cycle: 19   F: -24.452180387642777   dF: -1.041e-07   |Residual|: 4.369e-05   |deigs|: 1.351e-04  t[s]:     45.07
	FillingsUpdate:  mu: -0.083696678  nElectrons: 9.000000  magneticMoment: [ Abs: 0.46019  Tot: -0.46000 ]
SCF: Cycle: 20   F: -24.452180432063173   dF: -4.442e-08   |Residual|: 2.437e-05   |deigs|: 1.957e-04  t[s]:     47.07
	FillingsUpdate:  mu: -0.083692802  nElectrons: 9.000000  magneticMoment: [ Abs: 0.46022  Tot: -0.46000 ]
SCF: Cycle: 21   F: -24.452180456765731   dF: -2.470e-08   |Residual|: 1.389e-05   |deigs|: 1.909e-04  t[s]:     49.12
	FillingsUpdate:  mu: -0.083704697  nElectrons: 9.000000  magneticMoment: [ Abs: 0.46024  Tot: -0.46000 ]
SCF: Cycle: 22   F: -24.452180464232097   dF: -7.466e-09   |Residual|: 8.461e-06   |deigs|: 1.470e-04  t[s]:     51.09
	FillingsUpdate:  mu: -0.083702367  nElectrons: 9.000000  magneticMoment: [ Abs: 0.46021  Tot: -0.46000 ]
SCF: Cycle: 23   F: -24.452180470783397   dF: -6.551e-09   |Residual|: 6.018e-06   |deigs|: 1.159e-04  t[s]:     53.08
SCF: Converged (|Delta E|<1.000000e-08 for 2 iters).


# Ionic positions in lattice coordinates:
ion Rb   0.000000000000000   0.000000000000000   0.000000000000000 0

# Forces in Lattice coordinates:
force Rb   0.000000000000000  -0.000000000000000   0.000000000000000 0

# Energy components:
   Eewald =      -18.0480261003326561
       EH =        1.6557000993901725
     Eloc =      -10.5673857790754884
      Enl =       -0.7968997797619678
   Epulay =        0.0000000035676145
      Exc =       -3.6780871658765517
       KE =        6.9825190348283535
-------------------------------------
     Etot =      -24.4521796872605215
       TS =        0.0000007835228744
-------------------------------------
        F =      -24.4521804707833965

IonicMinimize: Iter:   0  F: -24.452180470783397  |grad|_K:  0.000e+00  t[s]:     53.20
IonicMinimize: Converged (|grad|_K<1.000000e-04).

#--- Lowdin population analysis ---
# oxidation-state Rb +0.061
# magnetic-moments Rb -0.408

End date and time: Sun Feb  6 12:41:50 2022  (Duration: 0-0:00:53.22)
Done!
