
*************** JDFTx 1.6.0 (git hash 42ebbcc2) ***************

Start date and time: Sun Feb  6 12:41:28 2022
Executable jdftx with command-line: -i Alkali.in
Running on hosts (process indices):  d-16-8-3 (0-18)
Divided in process groups (process indices):  0 (0)  1 (1)  2 (2)  3 (3)  4 (4)  5 (5)  6 (6)  7 (7)  8 (8)  9 (9)  10 (10)  11 (11)  12 (12)  13 (13)  14 (14)  15 (15)  16 (16)  17 (17)  18 (18)
Resource initialization completed at t[s]:      0.00
Run totals: 19 processes, 48 threads, 0 GPUs


Input parsed successfully to the following command list (including defaults):

basis kpoint-dependent
coords-type Lattice
core-overlap-check vector
coulomb-interaction Slab 001
davidson-band-ratio 1.1
dump End None
dump-name $INPUT.$VAR
elec-cutoff 20
elec-eigen-algo Davidson
elec-ex-corr gga-PBE
elec-initial-magnetization -0.320000 yes
elec-smearing Fermi 1e-05
electronic-minimize  \
	dirUpdateScheme      FletcherReeves \
	linminMethod         DirUpdateRecommended \
	nIterations          100 \
	history              15 \
	knormThreshold       0 \
	energyDiffThreshold  1e-08 \
	nEnergyDiff          2 \
	alphaTstart          1 \
	alphaTmin            1e-10 \
	updateTestStepSize   yes \
	alphaTreduceFactor   0.1 \
	alphaTincreaseFactor 3 \
	nAlphaAdjustMax      3 \
	wolfeEnergy          0.0001 \
	wolfeGradient        0.9 \
	fdTest               no
electronic-scf  \
	nIterations	10000 \
	energyDiffThreshold	1e-08 \
	residualThreshold	1e-07 \
	mixFraction	0.5 \
	qMetric	0.8 \
	history	10 \
	nEigSteps	2 \
	eigDiffThreshold	1e-08 \
	mixedVariable	Density \
	qKerker	0.8 \
	qKappa	-1 \
	verbose	no \
	mixFractionMag	1.5
exchange-regularization WignerSeitzTruncated
fluid None
fluid-ex-corr (null) lda-PZ
fluid-gummel-loop 10 1.000000e-05
fluid-minimize  \
	dirUpdateScheme      PolakRibiere \
	linminMethod         DirUpdateRecommended \
	nIterations          100 \
	history              15 \
	knormThreshold       0 \
	energyDiffThreshold  0 \
	nEnergyDiff          2 \
	alphaTstart          1 \
	alphaTmin            1e-10 \
	updateTestStepSize   yes \
	alphaTreduceFactor   0.1 \
	alphaTincreaseFactor 3 \
	nAlphaAdjustMax      3 \
	wolfeEnergy          0.0001 \
	wolfeGradient        0.9 \
	fdTest               no
fluid-solvent H2O 55.338 ScalarEOS \
	epsBulk 78.4 \
	pMol 0.92466 \
	epsInf 1.77 \
	Pvap 1.06736e-10 \
	sigmaBulk 4.62e-05 \
	Rvdw 2.61727 \
	Res 1.42 \
	tauNuc 343133 \
	poleEl 15 7 1
forces-output-coords Positions
ion Rb   0.000000000000000   0.000000000000000   0.000000000000000 0
ion-species SG15/$ID_ONCV_PBE.upf
ion-width 0
ionic-minimize  \
	dirUpdateScheme      L-BFGS \
	linminMethod         DirUpdateRecommended \
	nIterations          0 \
	history              15 \
	knormThreshold       0.0001 \
	energyDiffThreshold  1e-06 \
	nEnergyDiff          2 \
	alphaTstart          1 \
	alphaTmin            1e-10 \
	updateTestStepSize   yes \
	alphaTreduceFactor   0.1 \
	alphaTincreaseFactor 3 \
	nAlphaAdjustMax      3 \
	wolfeEnergy          0.0001 \
	wolfeGradient        0.9 \
	fdTest               no
kpoint   0.000000000000   0.000000000000   0.000000000000  1.00000000000000
kpoint-folding 12 12 1 
latt-move-scale 1 1 1
latt-scale 2 2 1 
lattice  \
	   4.727486978767153   -2.363743489383575    0.000000000000000  \
	  -0.000000000000000    4.094123819672498    0.000000000000000  \
	   0.000000000000000    0.000000000000000   40.000000000000000 
lattice-minimize  \
	dirUpdateScheme      L-BFGS \
	linminMethod         DirUpdateRecommended \
	nIterations          0 \
	history              15 \
	knormThreshold       0 \
	energyDiffThreshold  1e-06 \
	nEnergyDiff          2 \
	alphaTstart          1 \
	alphaTmin            1e-10 \
	updateTestStepSize   yes \
	alphaTreduceFactor   0.1 \
	alphaTincreaseFactor 3 \
	nAlphaAdjustMax      3 \
	wolfeEnergy          0.0001 \
	wolfeGradient        0.9 \
	fdTest               no
lcao-params -1 1e-06 1e-05
pcm-variant GLSSA13
spintype z-spin
subspace-rotation-factor 1 yes
symmetries automatic
symmetry-threshold 0.0001



---------- Setting up symmetries ----------

Found 24 point-group symmetries of the bravais lattice
Found 24 space-group symmetries with basis
Applied RMS atom displacement 0 bohrs to make symmetries exact.

---------- Initializing the Grid ----------
R = 
[      9.45497     -4.72749            0  ]
[            0      8.18825            0  ]
[            0            0           40  ]
unit cell volume = 3096.79
G =
[   0.664538   0.383671         -0  ]
[          0   0.767342         -0  ]
[         -0         -0    0.15708  ]
Minimum fftbox size, Smin = [  40  40  164  ]
Chosen fftbox size, S = [  40  40  168  ]

---------- Exchange Correlation functional ----------
Initalized PBE GGA exchange.
Initalized PBE GGA correlation.

---------- Setting up pseudopotentials ----------
Width of ionic core gaussian charges (only for fluid interactions / plotting) set to 0

Reading pseudopotential file '/home/gridsan/aligho/DFT/build-Nov24/pseudopotentials/SG15/Rb_ONCV_PBE.upf':
  'Rb' pseudopotential, 'PBE' functional
  Generated using ONCVPSP code by D. R. Hamann
  Author: Martin Schlipf and Francois Gygi  Date: 150915.
  9 valence electrons, 3 orbitals, 6 projectors, 2308 radial grid points, with lMax = 2
  Transforming local potential to a uniform radial grid of dG=0.02 with 1489 points.
  Transforming nonlocal projectors to a uniform radial grid of dG=0.02 with 432 points.
    4S    l: 0   occupation:  2.0   eigenvalue: -1.172069
    4P    l: 1   occupation:  6.0   eigenvalue: -0.586674
    5S    l: 0   occupation:  1.0   eigenvalue: -0.082006
  Transforming atomic orbitals to a uniform radial grid of dG=0.02 with 432 points.
  Core radius for overlap checks: 2.60 bohrs.
  Reading pulay file /home/gridsan/aligho/DFT/build-Nov24/pseudopotentials/SG15/Rb_ONCV_PBE.pulay ... using dE_dnG = -1.360715e-05 computed for Ecut = 20.

Initialized 1 species with 1 total atoms.

Folded 1 k-points by 12x12x1 to 144 k-points.

---------- Setting up k-points, bands, fillings ----------
Reduced to 19 k-points under symmetry. 
Computing the number of bands and number of electrons
Calculating initial fillings.
nElectrons:   9.000000   nBands: 6   nStates: 38

----- Setting up reduced wavefunction bases (one per k-point) -----
average nbasis = 13230.521 , ideal nbasis = 13229.709

---------- Setting up coulomb interaction ----------
Initialized slab truncation along lattice direction 001

---------- Setting up 2D ewald sum ----------
Optimum gaussian width for ewald sums = 5.249020 bohr.
Real space sums over 289 unit cells with max indices [  8  8  0  ]
Reciprocal space sums over 81 terms with max indices [  4  4  0  ]

---------- Allocating electronic variables ----------
Initializing wave functions:  linear combination of atomic orbitals
Note: number of bands (6) exceeds available atomic orbitals (5)
Rb pseudo-atom occupations:   s ( 2 1 )  p ( 6 )
	FillingsUpdate:  mu: -0.092208810  nElectrons: 9.000000  magneticMoment: [ Abs: 0.32000  Tot: -0.32000 ]
LCAOMinimize: Iter:   0  F: -24.4480098656368412  |grad|_K:  3.890e-05  alpha:  1.000e+00
	FillingsUpdate:  mu: -0.092194376  nElectrons: 9.000000  magneticMoment: [ Abs: 0.32000  Tot: -0.32000 ]
LCAOMinimize: Iter:   1  F: -24.4480108760466308  |grad|_K:  3.977e-07  alpha:  9.762e-01  linmin: -3.905e-02  cgtest:  4.479e-01  t[s]:      4.54
LCAOMinimize: Encountered beta<0, resetting CG.
	FillingsUpdate:  mu: -0.092194418  nElectrons: 9.000000  magneticMoment: [ Abs: 0.32000  Tot: -0.32000 ]
LCAOMinimize: Iter:   2  F: -24.4480108761549708  |grad|_K:  2.026e-09  alpha:  1.006e+00  linmin:  1.301e-01  cgtest: -9.708e-01  t[s]:      5.73
	FillingsUpdate:  mu: -0.092194418  nElectrons: 9.000000  magneticMoment: [ Abs: 0.32000  Tot: -0.32000 ]
LCAOMinimize: Iter:   3  F: -24.4480108761551733  |grad|_K:  2.025e-09  alpha:  6.026e-03  linmin: -4.418e-03  cgtest:  1.000e+00  t[s]:      6.89
LCAOMinimize: Encountered beta<0, resetting CG.
LCAOMinimize: Converged (|Delta F|<1.000000e-06 for 2 iters).


---- Citations for features of the code used in this run ----

   Software package:
      R. Sundararaman, K. Letchworth-Weaver, K.A. Schwarz, D. Gunceler, Y. Ozhabes and T.A. Arias, 'JDFTx: software for joint density-functional theory', SoftwareX 6, 278 (2017)

   gga-PBE exchange-correlation functional:
      J.P. Perdew, K. Burke and M. Ernzerhof, Phys. Rev. Lett. 77, 3865 (1996)

   Pseudopotentials:
      M Schlipf and F Gygi, Comput. Phys. Commun. 196, 36 (2015)

   Truncated Coulomb potentials:
      R. Sundararaman and T.A. Arias, Phys. Rev. B 87, 165122 (2013)

This list may not be complete. Please suggest additional citations or
report any other bugs at https://github.com/shankar1729/jdftx/issues

Initialization completed successfully at t[s]:      6.98


-------- Electronic minimization -----------
Will mix electronic density at each iteration.
	FillingsUpdate:  mu: -0.092194418  nElectrons: 9.000000  magneticMoment: [ Abs: 0.32000  Tot: -0.32000 ]
	FillingsUpdate:  mu: -0.103072317  nElectrons: 9.000000  magneticMoment: [ Abs: 0.32000  Tot: -0.32000 ]
SCF: Cycle:  0   F: -24.453167304921351   dF: -5.156e-03   |Residual|: 9.770e-03   |deigs|: 1.793e-01  t[s]:      9.35
	FillingsUpdate:  mu: -0.102777342  nElectrons: 9.000000  magneticMoment: [ Abs: 0.32000  Tot: -0.32000 ]
SCF: Cycle:  1   F: -24.453370710517650   dF: -2.034e-04   |Residual|: 7.318e-03   |deigs|: 7.201e-03  t[s]:     11.14
	FillingsUpdate:  mu: -0.101231642  nElectrons: 9.000000  magneticMoment: [ Abs: 0.32301  Tot: -0.32000 ]
SCF: Cycle:  2   F: -24.453467454152968   dF: -9.674e-05   |Residual|: 3.829e-03   |deigs|: 1.688e-03  t[s]:     12.95
	FillingsUpdate:  mu: -0.100099965  nElectrons: 9.000000  magneticMoment: [ Abs: 0.32007  Tot: -0.32000 ]
SCF: Cycle:  3   F: -24.453520422225349   dF: -5.297e-05   |Residual|: 2.470e-03   |deigs|: 2.238e-03  t[s]:     14.87
	FillingsUpdate:  mu: -0.098413507  nElectrons: 9.000000  magneticMoment: [ Abs: 0.32003  Tot: -0.32000 ]
SCF: Cycle:  4   F: -24.453551864632644   dF: -3.144e-05   |Residual|: 2.009e-03   |deigs|: 2.835e-03  t[s]:     16.76
	FillingsUpdate:  mu: -0.097130001  nElectrons: 9.000000  magneticMoment: [ Abs: 0.32127  Tot: -0.32000 ]
SCF: Cycle:  5   F: -24.453568623574775   dF: -1.676e-05   |Residual|: 1.449e-03   |deigs|: 3.973e-03  t[s]:     18.73
	FillingsUpdate:  mu: -0.094690777  nElectrons: 9.000000  magneticMoment: [ Abs: 0.32575  Tot: -0.32000 ]
SCF: Cycle:  6   F: -24.453568642404719   dF: -1.883e-08   |Residual|: 1.051e-03   |deigs|: 3.049e-03  t[s]:     20.61
	FillingsUpdate:  mu: -0.093161933  nElectrons: 9.000000  magneticMoment: [ Abs: 0.32477  Tot: -0.32000 ]
SCF: Cycle:  7   F: -24.453585046250147   dF: -1.640e-05   |Residual|: 1.003e-03   |deigs|: 1.755e-03  t[s]:     22.58
	FillingsUpdate:  mu: -0.093203200  nElectrons: 9.000000  magneticMoment: [ Abs: 0.32100  Tot: -0.32000 ]
SCF: Cycle:  8   F: -24.453592311875440   dF: -7.266e-06   |Residual|: 8.298e-04   |deigs|: 4.668e-04  t[s]:     24.56
	FillingsUpdate:  mu: -0.091728963  nElectrons: 9.000000  magneticMoment: [ Abs: 0.32255  Tot: -0.32000 ]
SCF: Cycle:  9   F: -24.453595088363762   dF: -2.776e-06   |Residual|: 7.107e-04   |deigs|: 1.500e-03  t[s]:     26.56
	FillingsUpdate:  mu: -0.090468117  nElectrons: 9.000000  magneticMoment: [ Abs: 0.32342  Tot: -0.32000 ]
SCF: Cycle: 10   F: -24.453592191887758   dF: +2.896e-06   |Residual|: 5.886e-04   |deigs|: 1.350e-03  t[s]:     28.60
	FillingsUpdate:  mu: -0.089328371  nElectrons: 9.000000  magneticMoment: [ Abs: 0.32278  Tot: -0.32000 ]
SCF: Cycle: 11   F: -24.453597796546600   dF: -5.605e-06   |Residual|: 5.151e-04   |deigs|: 1.238e-03  t[s]:     30.62
	FillingsUpdate:  mu: -0.087871456  nElectrons: 9.000000  magneticMoment: [ Abs: 0.32247  Tot: -0.32000 ]
SCF: Cycle: 12   F: -24.453610632446825   dF: -1.284e-05   |Residual|: 4.653e-04   |deigs|: 1.447e-03  t[s]:     32.65
	FillingsUpdate:  mu: -0.086659083  nElectrons: 9.000000  magneticMoment: [ Abs: 0.32215  Tot: -0.32000 ]
SCF: Cycle: 13   F: -24.453615179252957   dF: -4.547e-06   |Residual|: 4.355e-04   |deigs|: 1.237e-03  t[s]:     34.63
	FillingsUpdate:  mu: -0.085260152  nElectrons: 9.000000  magneticMoment: [ Abs: 0.32039  Tot: -0.32000 ]
SCF: Cycle: 14   F: -24.453619643658367   dF: -4.464e-06   |Residual|: 3.717e-04   |deigs|: 1.439e-03  t[s]:     36.65
	FillingsUpdate:  mu: -0.084611942  nElectrons: 9.000000  magneticMoment: [ Abs: 0.32049  Tot: -0.32000 ]
SCF: Cycle: 15   F: -24.453622166485303   dF: -2.523e-06   |Residual|: 2.637e-04   |deigs|: 6.844e-04  t[s]:     38.66
	FillingsUpdate:  mu: -0.084167679  nElectrons: 9.000000  magneticMoment: [ Abs: 0.32070  Tot: -0.32000 ]
SCF: Cycle: 16   F: -24.453623464434557   dF: -1.298e-06   |Residual|: 1.727e-04   |deigs|: 5.236e-04  t[s]:     40.63
	FillingsUpdate:  mu: -0.084114582  nElectrons: 9.000000  magneticMoment: [ Abs: 0.32009  Tot: -0.32000 ]
SCF: Cycle: 17   F: -24.453623937532921   dF: -4.731e-07   |Residual|: 1.019e-04   |deigs|: 3.559e-04  t[s]:     42.60
	FillingsUpdate:  mu: -0.084119481  nElectrons: 9.000000  magneticMoment: [ Abs: 0.32025  Tot: -0.32000 ]
SCF: Cycle: 18   F: -24.453624132399575   dF: -1.949e-07   |Residual|: 6.224e-05   |deigs|: 3.952e-04  t[s]:     44.60
	FillingsUpdate:  mu: -0.084114218  nElectrons: 9.000000  magneticMoment: [ Abs: 0.32017  Tot: -0.32000 ]
SCF: Cycle: 19   F: -24.453624188153309   dF: -5.575e-08   |Residual|: 3.767e-05   |deigs|: 2.422e-04  t[s]:     46.58
	FillingsUpdate:  mu: -0.084111296  nElectrons: 9.000000  magneticMoment: [ Abs: 0.32013  Tot: -0.32000 ]
SCF: Cycle: 20   F: -24.453624231326174   dF: -4.317e-08   |Residual|: 1.952e-05   |deigs|: 1.597e-04  t[s]:     48.60
	FillingsUpdate:  mu: -0.084102834  nElectrons: 9.000000  magneticMoment: [ Abs: 0.32014  Tot: -0.32000 ]
SCF: Cycle: 21   F: -24.453624239661529   dF: -8.335e-09   |Residual|: 1.265e-05   |deigs|: 1.678e-04  t[s]:     50.47
	FillingsUpdate:  mu: -0.084094779  nElectrons: 9.000000  magneticMoment: [ Abs: 0.32015  Tot: -0.32000 ]
SCF: Cycle: 22   F: -24.453624246014328   dF: -6.353e-09   |Residual|: 7.270e-06   |deigs|: 1.611e-04  t[s]:     52.49
SCF: Converged (|Delta E|<1.000000e-08 for 2 iters).


# Ionic positions in lattice coordinates:
ion Rb   0.000000000000000   0.000000000000000   0.000000000000000 0

# Forces in Lattice coordinates:
force Rb   0.000000000000000   0.000000000000000   0.000000000000000 0

# Energy components:
   Eewald =      -18.0480261003326561
       EH =        1.6499583145336405
     Eloc =      -10.5615788023844530
      Enl =       -0.7961943343044813
   Epulay =        0.0000000035676145
      Exc =       -3.6768261735756953
       KE =        6.9790436873328492
-------------------------------------
     Etot =      -24.4536234051631780
       TS =        0.0000008408511521
-------------------------------------
        F =      -24.4536242460143285

IonicMinimize: Iter:   0  F: -24.453624246014328  |grad|_K:  0.000e+00  t[s]:     52.60
IonicMinimize: Converged (|grad|_K<1.000000e-04).

#--- Lowdin population analysis ---
# oxidation-state Rb +0.045
# magnetic-moments Rb -0.287

End date and time: Sun Feb  6 12:42:21 2022  (Duration: 0-0:00:52.62)
Done!
