
*************** JDFTx 1.6.0 (git hash 42ebbcc2) ***************

Start date and time: Sun Feb  6 12:53:44 2022
Executable jdftx with command-line: -i Alkali.in
Running on hosts (process indices):  d-16-8-3 (0-18)
Divided in process groups (process indices):  0 (0)  1 (1)  2 (2)  3 (3)  4 (4)  5 (5)  6 (6)  7 (7)  8 (8)  9 (9)  10 (10)  11 (11)  12 (12)  13 (13)  14 (14)  15 (15)  16 (16)  17 (17)  18 (18)
Resource initialization completed at t[s]:      0.00
Run totals: 19 processes, 48 threads, 0 GPUs


Input parsed successfully to the following command list (including defaults):

basis kpoint-dependent
coords-type Lattice
core-overlap-check vector
coulomb-interaction Slab 001
davidson-band-ratio 1.1
dump End None
dump-name $INPUT.$VAR
elec-cutoff 20
elec-eigen-algo Davidson
elec-ex-corr gga-PBE
elec-initial-magnetization 0.520000 yes
elec-smearing Fermi 1e-05
electronic-minimize  \
	dirUpdateScheme      FletcherReeves \
	linminMethod         DirUpdateRecommended \
	nIterations          100 \
	history              15 \
	knormThreshold       0 \
	energyDiffThreshold  1e-08 \
	nEnergyDiff          2 \
	alphaTstart          1 \
	alphaTmin            1e-10 \
	updateTestStepSize   yes \
	alphaTreduceFactor   0.1 \
	alphaTincreaseFactor 3 \
	nAlphaAdjustMax      3 \
	wolfeEnergy          0.0001 \
	wolfeGradient        0.9 \
	fdTest               no
electronic-scf  \
	nIterations	10000 \
	energyDiffThreshold	1e-08 \
	residualThreshold	1e-07 \
	mixFraction	0.5 \
	qMetric	0.8 \
	history	10 \
	nEigSteps	2 \
	eigDiffThreshold	1e-08 \
	mixedVariable	Density \
	qKerker	0.8 \
	qKappa	-1 \
	verbose	no \
	mixFractionMag	1.5
exchange-regularization WignerSeitzTruncated
fluid None
fluid-ex-corr (null) lda-PZ
fluid-gummel-loop 10 1.000000e-05
fluid-minimize  \
	dirUpdateScheme      PolakRibiere \
	linminMethod         DirUpdateRecommended \
	nIterations          100 \
	history              15 \
	knormThreshold       0 \
	energyDiffThreshold  0 \
	nEnergyDiff          2 \
	alphaTstart          1 \
	alphaTmin            1e-10 \
	updateTestStepSize   yes \
	alphaTreduceFactor   0.1 \
	alphaTincreaseFactor 3 \
	nAlphaAdjustMax      3 \
	wolfeEnergy          0.0001 \
	wolfeGradient        0.9 \
	fdTest               no
fluid-solvent H2O 55.338 ScalarEOS \
	epsBulk 78.4 \
	pMol 0.92466 \
	epsInf 1.77 \
	Pvap 1.06736e-10 \
	sigmaBulk 4.62e-05 \
	Rvdw 2.61727 \
	Res 1.42 \
	tauNuc 343133 \
	poleEl 15 7 1
forces-output-coords Positions
ion Rb   0.000000000000000   0.000000000000000   0.000000000000000 0
ion-species SG15/$ID_ONCV_PBE.upf
ion-width 0
ionic-minimize  \
	dirUpdateScheme      L-BFGS \
	linminMethod         DirUpdateRecommended \
	nIterations          0 \
	history              15 \
	knormThreshold       0.0001 \
	energyDiffThreshold  1e-06 \
	nEnergyDiff          2 \
	alphaTstart          1 \
	alphaTmin            1e-10 \
	updateTestStepSize   yes \
	alphaTreduceFactor   0.1 \
	alphaTincreaseFactor 3 \
	nAlphaAdjustMax      3 \
	wolfeEnergy          0.0001 \
	wolfeGradient        0.9 \
	fdTest               no
kpoint   0.000000000000   0.000000000000   0.000000000000  1.00000000000000
kpoint-folding 12 12 1 
latt-move-scale 1 1 1
latt-scale 2 2 1 
lattice  \
	   4.727486978767153   -2.363743489383575    0.000000000000000  \
	  -0.000000000000000    4.094123819672498    0.000000000000000  \
	   0.000000000000000    0.000000000000000   40.000000000000000 
lattice-minimize  \
	dirUpdateScheme      L-BFGS \
	linminMethod         DirUpdateRecommended \
	nIterations          0 \
	history              15 \
	knormThreshold       0 \
	energyDiffThreshold  1e-06 \
	nEnergyDiff          2 \
	alphaTstart          1 \
	alphaTmin            1e-10 \
	updateTestStepSize   yes \
	alphaTreduceFactor   0.1 \
	alphaTincreaseFactor 3 \
	nAlphaAdjustMax      3 \
	wolfeEnergy          0.0001 \
	wolfeGradient        0.9 \
	fdTest               no
lcao-params -1 1e-06 1e-05
pcm-variant GLSSA13
spintype z-spin
subspace-rotation-factor 1 yes
symmetries automatic
symmetry-threshold 0.0001



---------- Setting up symmetries ----------

Found 24 point-group symmetries of the bravais lattice
Found 24 space-group symmetries with basis
Applied RMS atom displacement 0 bohrs to make symmetries exact.

---------- Initializing the Grid ----------
R = 
[      9.45497     -4.72749            0  ]
[            0      8.18825            0  ]
[            0            0           40  ]
unit cell volume = 3096.79
G =
[   0.664538   0.383671         -0  ]
[          0   0.767342         -0  ]
[         -0         -0    0.15708  ]
Minimum fftbox size, Smin = [  40  40  164  ]
Chosen fftbox size, S = [  40  40  168  ]

---------- Exchange Correlation functional ----------
Initalized PBE GGA exchange.
Initalized PBE GGA correlation.

---------- Setting up pseudopotentials ----------
Width of ionic core gaussian charges (only for fluid interactions / plotting) set to 0

Reading pseudopotential file '/home/gridsan/aligho/DFT/build-Nov24/pseudopotentials/SG15/Rb_ONCV_PBE.upf':
  'Rb' pseudopotential, 'PBE' functional
  Generated using ONCVPSP code by D. R. Hamann
  Author: Martin Schlipf and Francois Gygi  Date: 150915.
  9 valence electrons, 3 orbitals, 6 projectors, 2308 radial grid points, with lMax = 2
  Transforming local potential to a uniform radial grid of dG=0.02 with 1489 points.
  Transforming nonlocal projectors to a uniform radial grid of dG=0.02 with 432 points.
    4S    l: 0   occupation:  2.0   eigenvalue: -1.172069
    4P    l: 1   occupation:  6.0   eigenvalue: -0.586674
    5S    l: 0   occupation:  1.0   eigenvalue: -0.082006
  Transforming atomic orbitals to a uniform radial grid of dG=0.02 with 432 points.
  Core radius for overlap checks: 2.60 bohrs.
  Reading pulay file /home/gridsan/aligho/DFT/build-Nov24/pseudopotentials/SG15/Rb_ONCV_PBE.pulay ... using dE_dnG = -1.360715e-05 computed for Ecut = 20.

Initialized 1 species with 1 total atoms.

Folded 1 k-points by 12x12x1 to 144 k-points.

---------- Setting up k-points, bands, fillings ----------
Reduced to 19 k-points under symmetry. 
Computing the number of bands and number of electrons
Calculating initial fillings.
nElectrons:   9.000000   nBands: 6   nStates: 38

----- Setting up reduced wavefunction bases (one per k-point) -----
average nbasis = 13230.521 , ideal nbasis = 13229.709

---------- Setting up coulomb interaction ----------
Initialized slab truncation along lattice direction 001

---------- Setting up 2D ewald sum ----------
Optimum gaussian width for ewald sums = 5.249020 bohr.
Real space sums over 289 unit cells with max indices [  8  8  0  ]
Reciprocal space sums over 81 terms with max indices [  4  4  0  ]

---------- Allocating electronic variables ----------
Initializing wave functions:  linear combination of atomic orbitals
Note: number of bands (6) exceeds available atomic orbitals (5)
Rb pseudo-atom occupations:   s ( 2 1 )  p ( 6 )
	FillingsUpdate:  mu: -0.094185640  nElectrons: 9.000000  magneticMoment: [ Abs: 0.52000  Tot: +0.52000 ]
LCAOMinimize: Iter:   0  F: -24.4440110944608655  |grad|_K:  3.105e-05  alpha:  1.000e+00
	FillingsUpdate:  mu: -0.094174175  nElectrons: 9.000000  magneticMoment: [ Abs: 0.52000  Tot: +0.52000 ]
LCAOMinimize: Iter:   1  F: -24.4440117395779914  |grad|_K:  3.246e-07  alpha:  9.787e-01  linmin: -2.648e-02  cgtest:  3.355e-01  t[s]:      4.54
LCAOMinimize: Encountered beta<0, resetting CG.
	FillingsUpdate:  mu: -0.094174227  nElectrons: 9.000000  magneticMoment: [ Abs: 0.52000  Tot: +0.52000 ]
LCAOMinimize: Iter:   2  F: -24.4440117396499268  |grad|_K:  1.696e-09  alpha:  9.971e-01  linmin: -9.490e-02  cgtest:  7.481e-01  t[s]:      5.71
LCAOMinimize: Encountered beta<0, resetting CG.
LCAOMinimize: Converged (|Delta F|<1.000000e-06 for 2 iters).


---- Citations for features of the code used in this run ----

   Software package:
      R. Sundararaman, K. Letchworth-Weaver, K.A. Schwarz, D. Gunceler, Y. Ozhabes and T.A. Arias, 'JDFTx: software for joint density-functional theory', SoftwareX 6, 278 (2017)

   gga-PBE exchange-correlation functional:
      J.P. Perdew, K. Burke and M. Ernzerhof, Phys. Rev. Lett. 77, 3865 (1996)

   Pseudopotentials:
      M Schlipf and F Gygi, Comput. Phys. Commun. 196, 36 (2015)

   Truncated Coulomb potentials:
      R. Sundararaman and T.A. Arias, Phys. Rev. B 87, 165122 (2013)

This list may not be complete. Please suggest additional citations or
report any other bugs at https://github.com/shankar1729/jdftx/issues

Initialization completed successfully at t[s]:      5.80


-------- Electronic minimization -----------
Will mix electronic density at each iteration.
	FillingsUpdate:  mu: -0.094174227  nElectrons: 9.000000  magneticMoment: [ Abs: 0.52000  Tot: +0.52000 ]
	FillingsUpdate:  mu: -0.104498507  nElectrons: 9.000000  magneticMoment: [ Abs: 0.52000  Tot: +0.52000 ]
SCF: Cycle:  0   F: -24.450862769409273   dF: -6.851e-03   |Residual|: 1.180e-02   |deigs|: 1.788e-01  t[s]:      8.18
	FillingsUpdate:  mu: -0.104285294  nElectrons: 9.000000  magneticMoment: [ Abs: 0.52000  Tot: +0.52000 ]
SCF: Cycle:  1   F: -24.451151496452287   dF: -2.887e-04   |Residual|: 8.482e-03   |deigs|: 6.739e-03  t[s]:     10.01
	FillingsUpdate:  mu: -0.102807910  nElectrons: 9.000000  magneticMoment: [ Abs: 0.52273  Tot: +0.52000 ]
SCF: Cycle:  2   F: -24.451262309560914   dF: -1.108e-04   |Residual|: 4.887e-03   |deigs|: 2.606e-03  t[s]:     11.85
	FillingsUpdate:  mu: -0.101770802  nElectrons: 9.000000  magneticMoment: [ Abs: 0.52008  Tot: +0.52000 ]
SCF: Cycle:  3   F: -24.451336304852550   dF: -7.400e-05   |Residual|: 3.063e-03   |deigs|: 1.538e-03  t[s]:     13.71
	FillingsUpdate:  mu: -0.099999970  nElectrons: 9.000000  magneticMoment: [ Abs: 0.52005  Tot: +0.52000 ]
SCF: Cycle:  4   F: -24.451379862867178   dF: -4.356e-05   |Residual|: 2.151e-03   |deigs|: 2.092e-03  t[s]:     15.61
	FillingsUpdate:  mu: -0.098594145  nElectrons: 9.000000  magneticMoment: [ Abs: 0.52098  Tot: +0.52000 ]
SCF: Cycle:  5   F: -24.451400159890774   dF: -2.030e-05   |Residual|: 1.616e-03   |deigs|: 3.703e-03  t[s]:     17.53
	FillingsUpdate:  mu: -0.096189448  nElectrons: 9.000000  magneticMoment: [ Abs: 0.52705  Tot: +0.52000 ]
SCF: Cycle:  6   F: -24.451399874779732   dF: +2.851e-07   |Residual|: 1.189e-03   |deigs|: 2.847e-03  t[s]:     19.44
	FillingsUpdate:  mu: -0.093986693  nElectrons: 9.000000  magneticMoment: [ Abs: 0.52762  Tot: +0.52000 ]
SCF: Cycle:  7   F: -24.451418742149929   dF: -1.887e-05   |Residual|: 1.105e-03   |deigs|: 2.802e-03  t[s]:     21.40
	FillingsUpdate:  mu: -0.094145296  nElectrons: 9.000000  magneticMoment: [ Abs: 0.52174  Tot: +0.52000 ]
SCF: Cycle:  8   F: -24.451431599360390   dF: -1.286e-05   |Residual|: 8.762e-04   |deigs|: 2.109e-03  t[s]:     23.38
	FillingsUpdate:  mu: -0.092930619  nElectrons: 9.000000  magneticMoment: [ Abs: 0.52249  Tot: +0.52000 ]
SCF: Cycle:  9   F: -24.451434859559495   dF: -3.260e-06   |Residual|: 7.003e-04   |deigs|: 1.256e-03  t[s]:     25.39
	FillingsUpdate:  mu: -0.091536379  nElectrons: 9.000000  magneticMoment: [ Abs: 0.52438  Tot: +0.52000 ]
SCF: Cycle: 10   F: -24.451436249123223   dF: -1.390e-06   |Residual|: 5.972e-04   |deigs|: 1.451e-03  t[s]:     27.45
	FillingsUpdate:  mu: -0.090596806  nElectrons: 9.000000  magneticMoment: [ Abs: 0.52359  Tot: +0.52000 ]
SCF: Cycle: 11   F: -24.451436917989238   dF: -6.689e-07   |Residual|: 5.505e-04   |deigs|: 1.055e-03  t[s]:     29.44
	FillingsUpdate:  mu: -0.089274310  nElectrons: 9.000000  magneticMoment: [ Abs: 0.52374  Tot: +0.52000 ]
SCF: Cycle: 12   F: -24.451446285613454   dF: -9.368e-06   |Residual|: 4.782e-04   |deigs|: 1.338e-03  t[s]:     31.48
	FillingsUpdate:  mu: -0.087705134  nElectrons: 9.000000  magneticMoment: [ Abs: 0.52470  Tot: +0.52000 ]
SCF: Cycle: 13   F: -24.451453782173619   dF: -7.497e-06   |Residual|: 4.438e-04   |deigs|: 1.565e-03  t[s]:     33.49
	FillingsUpdate:  mu: -0.086504388  nElectrons: 9.000000  magneticMoment: [ Abs: 0.52274  Tot: +0.52000 ]
SCF: Cycle: 14   F: -24.451457722600079   dF: -3.940e-06   |Residual|: 4.003e-04   |deigs|: 1.232e-03  t[s]:     35.45
	FillingsUpdate:  mu: -0.085221129  nElectrons: 9.000000  magneticMoment: [ Abs: 0.52095  Tot: +0.52000 ]
SCF: Cycle: 15   F: -24.451461000326550   dF: -3.278e-06   |Residual|: 2.924e-04   |deigs|: 1.380e-03  t[s]:     37.44
	FillingsUpdate:  mu: -0.084956723  nElectrons: 9.000000  magneticMoment: [ Abs: 0.52089  Tot: +0.52000 ]
SCF: Cycle: 16   F: -24.451462314765127   dF: -1.314e-06   |Residual|: 2.058e-04   |deigs|: 4.972e-04  t[s]:     39.47
	FillingsUpdate:  mu: -0.084800109  nElectrons: 9.000000  magneticMoment: [ Abs: 0.52030  Tot: +0.52000 ]
SCF: Cycle: 17   F: -24.451463450312243   dF: -1.136e-06   |Residual|: 1.374e-04   |deigs|: 2.095e-04  t[s]:     41.47
	FillingsUpdate:  mu: -0.084768440  nElectrons: 9.000000  magneticMoment: [ Abs: 0.52012  Tot: +0.52000 ]
SCF: Cycle: 18   F: -24.451463725067370   dF: -2.748e-07   |Residual|: 9.500e-05   |deigs|: 1.276e-04  t[s]:     43.45
	FillingsUpdate:  mu: -0.084737511  nElectrons: 9.000000  magneticMoment: [ Abs: 0.52027  Tot: +0.52000 ]
SCF: Cycle: 19   F: -24.451463861009454   dF: -1.359e-07   |Residual|: 4.019e-05   |deigs|: 9.015e-05  t[s]:     45.50
	FillingsUpdate:  mu: -0.084711259  nElectrons: 9.000000  magneticMoment: [ Abs: 0.52026  Tot: +0.52000 ]
SCF: Cycle: 20   F: -24.451463906699178   dF: -4.569e-08   |Residual|: 2.545e-05   |deigs|: 5.649e-05  t[s]:     47.50
	FillingsUpdate:  mu: -0.084707146  nElectrons: 9.000000  magneticMoment: [ Abs: 0.52026  Tot: +0.52000 ]
SCF: Cycle: 21   F: -24.451463940228830   dF: -3.353e-08   |Residual|: 1.733e-05   |deigs|: 3.087e-05  t[s]:     49.57
	FillingsUpdate:  mu: -0.084722027  nElectrons: 9.000000  magneticMoment: [ Abs: 0.52027  Tot: +0.52000 ]
SCF: Cycle: 22   F: -24.451463954821794   dF: -1.459e-08   |Residual|: 1.153e-05   |deigs|: 2.042e-05  t[s]:     51.54
	FillingsUpdate:  mu: -0.084735248  nElectrons: 9.000000  magneticMoment: [ Abs: 0.52026  Tot: +0.52000 ]
SCF: Cycle: 23   F: -24.451463962305361   dF: -7.484e-09   |Residual|: 8.490e-06   |deigs|: 1.811e-05  t[s]:     53.53
	FillingsUpdate:  mu: -0.084728910  nElectrons: 9.000000  magneticMoment: [ Abs: 0.52023  Tot: +0.52000 ]
SCF: Cycle: 24   F: -24.451463963314371   dF: -1.009e-09   |Residual|: 7.840e-06   |deigs|: 8.532e-06  t[s]:     55.51
SCF: Converged (|Delta E|<1.000000e-08 for 2 iters).


# Ionic positions in lattice coordinates:
ion Rb   0.000000000000000   0.000000000000000   0.000000000000000 0

# Forces in Lattice coordinates:
force Rb   0.000000000000000  -0.000000000000000   0.000000000000000 0

# Energy components:
   Eewald =      -18.0480261003326561
       EH =        1.6588774853455814
     Eloc =      -10.5706019913593998
      Enl =       -0.7972442062582805
   Epulay =        0.0000000035676145
      Exc =       -3.6787536852390366
       KE =        6.9842849434727352
-------------------------------------
     Etot =      -24.4514635508034459
       TS =        0.0000004125109251
-------------------------------------
        F =      -24.4514639633143709

IonicMinimize: Iter:   0  F: -24.451463963314371  |grad|_K:  0.000e+00  t[s]:     55.62
IonicMinimize: Converged (|grad|_K<1.000000e-04).

#--- Lowdin population analysis ---
# oxidation-state Rb +0.069
# magnetic-moments Rb +0.459

End date and time: Sun Feb  6 12:54:40 2022  (Duration: 0-0:00:55.64)
Done!
