
*************** JDFTx 1.6.0 (git hash 42ebbcc2) ***************

Start date and time: Sun Feb  6 12:34:51 2022
Executable jdftx with command-line: -i Alkali.in
Running on hosts (process indices):  d-17-2-2 (0-18)
Divided in process groups (process indices):  0 (0)  1 (1)  2 (2)  3 (3)  4 (4)  5 (5)  6 (6)  7 (7)  8 (8)  9 (9)  10 (10)  11 (11)  12 (12)  13 (13)  14 (14)  15 (15)  16 (16)  17 (17)  18 (18)
Resource initialization completed at t[s]:      0.00
Run totals: 19 processes, 48 threads, 0 GPUs


Input parsed successfully to the following command list (including defaults):

basis kpoint-dependent
coords-type Lattice
core-overlap-check vector
coulomb-interaction Slab 001
davidson-band-ratio 1.1
dump End None
dump-name $INPUT.$VAR
elec-cutoff 20
elec-eigen-algo Davidson
elec-ex-corr gga-PBE
elec-initial-magnetization -0.720000 yes
elec-smearing Fermi 1e-05
electronic-minimize  \
	dirUpdateScheme      FletcherReeves \
	linminMethod         DirUpdateRecommended \
	nIterations          100 \
	history              15 \
	knormThreshold       0 \
	energyDiffThreshold  1e-08 \
	nEnergyDiff          2 \
	alphaTstart          1 \
	alphaTmin            1e-10 \
	updateTestStepSize   yes \
	alphaTreduceFactor   0.1 \
	alphaTincreaseFactor 3 \
	nAlphaAdjustMax      3 \
	wolfeEnergy          0.0001 \
	wolfeGradient        0.9 \
	fdTest               no
electronic-scf  \
	nIterations	10000 \
	energyDiffThreshold	1e-08 \
	residualThreshold	1e-07 \
	mixFraction	0.5 \
	qMetric	0.8 \
	history	10 \
	nEigSteps	2 \
	eigDiffThreshold	1e-08 \
	mixedVariable	Density \
	qKerker	0.8 \
	qKappa	-1 \
	verbose	no \
	mixFractionMag	1.5
exchange-regularization WignerSeitzTruncated
fluid None
fluid-ex-corr (null) lda-PZ
fluid-gummel-loop 10 1.000000e-05
fluid-minimize  \
	dirUpdateScheme      PolakRibiere \
	linminMethod         DirUpdateRecommended \
	nIterations          100 \
	history              15 \
	knormThreshold       0 \
	energyDiffThreshold  0 \
	nEnergyDiff          2 \
	alphaTstart          1 \
	alphaTmin            1e-10 \
	updateTestStepSize   yes \
	alphaTreduceFactor   0.1 \
	alphaTincreaseFactor 3 \
	nAlphaAdjustMax      3 \
	wolfeEnergy          0.0001 \
	wolfeGradient        0.9 \
	fdTest               no
fluid-solvent H2O 55.338 ScalarEOS \
	epsBulk 78.4 \
	pMol 0.92466 \
	epsInf 1.77 \
	Pvap 1.06736e-10 \
	sigmaBulk 4.62e-05 \
	Rvdw 2.61727 \
	Res 1.42 \
	tauNuc 343133 \
	poleEl 15 7 1
forces-output-coords Positions
ion Rb   0.000000000000000   0.000000000000000   0.000000000000000 0
ion-species SG15/$ID_ONCV_PBE.upf
ion-width 0
ionic-minimize  \
	dirUpdateScheme      L-BFGS \
	linminMethod         DirUpdateRecommended \
	nIterations          0 \
	history              15 \
	knormThreshold       0.0001 \
	energyDiffThreshold  1e-06 \
	nEnergyDiff          2 \
	alphaTstart          1 \
	alphaTmin            1e-10 \
	updateTestStepSize   yes \
	alphaTreduceFactor   0.1 \
	alphaTincreaseFactor 3 \
	nAlphaAdjustMax      3 \
	wolfeEnergy          0.0001 \
	wolfeGradient        0.9 \
	fdTest               no
kpoint   0.000000000000   0.000000000000   0.000000000000  1.00000000000000
kpoint-folding 12 12 1 
latt-move-scale 1 1 1
latt-scale 2 2 1 
lattice  \
	   4.727486978767153   -2.363743489383575    0.000000000000000  \
	  -0.000000000000000    4.094123819672498    0.000000000000000  \
	   0.000000000000000    0.000000000000000   40.000000000000000 
lattice-minimize  \
	dirUpdateScheme      L-BFGS \
	linminMethod         DirUpdateRecommended \
	nIterations          0 \
	history              15 \
	knormThreshold       0 \
	energyDiffThreshold  1e-06 \
	nEnergyDiff          2 \
	alphaTstart          1 \
	alphaTmin            1e-10 \
	updateTestStepSize   yes \
	alphaTreduceFactor   0.1 \
	alphaTincreaseFactor 3 \
	nAlphaAdjustMax      3 \
	wolfeEnergy          0.0001 \
	wolfeGradient        0.9 \
	fdTest               no
lcao-params -1 1e-06 1e-05
pcm-variant GLSSA13
spintype z-spin
subspace-rotation-factor 1 yes
symmetries automatic
symmetry-threshold 0.0001



---------- Setting up symmetries ----------

Found 24 point-group symmetries of the bravais lattice
Found 24 space-group symmetries with basis
Applied RMS atom displacement 0 bohrs to make symmetries exact.

---------- Initializing the Grid ----------
R = 
[      9.45497     -4.72749            0  ]
[            0      8.18825            0  ]
[            0            0           40  ]
unit cell volume = 3096.79
G =
[   0.664538   0.383671         -0  ]
[          0   0.767342         -0  ]
[         -0         -0    0.15708  ]
Minimum fftbox size, Smin = [  40  40  164  ]
Chosen fftbox size, S = [  40  40  168  ]

---------- Exchange Correlation functional ----------
Initalized PBE GGA exchange.
Initalized PBE GGA correlation.

---------- Setting up pseudopotentials ----------
Width of ionic core gaussian charges (only for fluid interactions / plotting) set to 0

Reading pseudopotential file '/home/gridsan/aligho/DFT/build-Nov24/pseudopotentials/SG15/Rb_ONCV_PBE.upf':
  'Rb' pseudopotential, 'PBE' functional
  Generated using ONCVPSP code by D. R. Hamann
  Author: Martin Schlipf and Francois Gygi  Date: 150915.
  9 valence electrons, 3 orbitals, 6 projectors, 2308 radial grid points, with lMax = 2
  Transforming local potential to a uniform radial grid of dG=0.02 with 1489 points.
  Transforming nonlocal projectors to a uniform radial grid of dG=0.02 with 432 points.
    4S    l: 0   occupation:  2.0   eigenvalue: -1.172069
    4P    l: 1   occupation:  6.0   eigenvalue: -0.586674
    5S    l: 0   occupation:  1.0   eigenvalue: -0.082006
  Transforming atomic orbitals to a uniform radial grid of dG=0.02 with 432 points.
  Core radius for overlap checks: 2.60 bohrs.
  Reading pulay file /home/gridsan/aligho/DFT/build-Nov24/pseudopotentials/SG15/Rb_ONCV_PBE.pulay ... using dE_dnG = -1.360715e-05 computed for Ecut = 20.

Initialized 1 species with 1 total atoms.

Folded 1 k-points by 12x12x1 to 144 k-points.

---------- Setting up k-points, bands, fillings ----------
Reduced to 19 k-points under symmetry. 
Computing the number of bands and number of electrons
Calculating initial fillings.
nElectrons:   9.000000   nBands: 6   nStates: 38

----- Setting up reduced wavefunction bases (one per k-point) -----
average nbasis = 13230.521 , ideal nbasis = 13229.709

---------- Setting up coulomb interaction ----------
Initialized slab truncation along lattice direction 001

---------- Setting up 2D ewald sum ----------
Optimum gaussian width for ewald sums = 5.249020 bohr.
Real space sums over 289 unit cells with max indices [  8  8  0  ]
Reciprocal space sums over 81 terms with max indices [  4  4  0  ]

---------- Allocating electronic variables ----------
Initializing wave functions:  linear combination of atomic orbitals
Note: number of bands (6) exceeds available atomic orbitals (5)
Rb pseudo-atom occupations:   s ( 2 1 )  p ( 6 )
	FillingsUpdate:  mu: -0.095266566  nElectrons: 9.000000  magneticMoment: [ Abs: 0.72000  Tot: -0.72000 ]
LCAOMinimize: Iter:   0  F: -24.4387955494280966  |grad|_K:  2.077e-05  alpha:  1.000e+00
	FillingsUpdate:  mu: -0.095260044  nElectrons: 9.000000  magneticMoment: [ Abs: 0.72000  Tot: -0.72000 ]
LCAOMinimize: Iter:   1  F: -24.4387958383573540  |grad|_K:  2.006e-07  alpha:  9.796e-01  linmin: -2.060e-02  cgtest:  2.674e-01  t[s]:      4.71
LCAOMinimize: Encountered beta<0, resetting CG.
	FillingsUpdate:  mu: -0.095260103  nElectrons: 9.000000  magneticMoment: [ Abs: 0.72000  Tot: -0.72000 ]
LCAOMinimize: Iter:   2  F: -24.4387958383847952  |grad|_K:  1.576e-09  alpha:  9.942e-01  linmin: -1.203e-01  cgtest:  8.303e-01  t[s]:      5.90
LCAOMinimize: Encountered beta<0, resetting CG.
LCAOMinimize: Converged (|Delta F|<1.000000e-06 for 2 iters).


---- Citations for features of the code used in this run ----

   Software package:
      R. Sundararaman, K. Letchworth-Weaver, K.A. Schwarz, D. Gunceler, Y. Ozhabes and T.A. Arias, 'JDFTx: software for joint density-functional theory', SoftwareX 6, 278 (2017)

   gga-PBE exchange-correlation functional:
      J.P. Perdew, K. Burke and M. Ernzerhof, Phys. Rev. Lett. 77, 3865 (1996)

   Pseudopotentials:
      M Schlipf and F Gygi, Comput. Phys. Commun. 196, 36 (2015)

   Truncated Coulomb potentials:
      R. Sundararaman and T.A. Arias, Phys. Rev. B 87, 165122 (2013)

This list may not be complete. Please suggest additional citations or
report any other bugs at https://github.com/shankar1729/jdftx/issues

Initialization completed successfully at t[s]:      6.00


-------- Electronic minimization -----------
Will mix electronic density at each iteration.
	FillingsUpdate:  mu: -0.095260103  nElectrons: 9.000000  magneticMoment: [ Abs: 0.72000  Tot: -0.72000 ]
	FillingsUpdate:  mu: -0.103891899  nElectrons: 9.000000  magneticMoment: [ Abs: 0.72000  Tot: -0.72000 ]
SCF: Cycle:  0   F: -24.447405205327918   dF: -8.609e-03   |Residual|: 1.406e-02   |deigs|: 1.775e-01  t[s]:      8.56
	FillingsUpdate:  mu: -0.105779956  nElectrons: 9.000000  magneticMoment: [ Abs: 0.72000  Tot: -0.72000 ]
SCF: Cycle:  1   F: -24.447795853090550   dF: -3.906e-04   |Residual|: 1.001e-02   |deigs|: 7.893e-03  t[s]:     10.39
	FillingsUpdate:  mu: -0.105020123  nElectrons: 9.000000  magneticMoment: [ Abs: 0.72258  Tot: -0.72000 ]
SCF: Cycle:  2   F: -24.447968529162896   dF: -1.727e-04   |Residual|: 6.195e-03   |deigs|: 2.422e-03  t[s]:     12.32
	FillingsUpdate:  mu: -0.102195978  nElectrons: 9.000000  magneticMoment: [ Abs: 0.72007  Tot: -0.72000 ]
SCF: Cycle:  3   F: -24.448063215795202   dF: -9.469e-05   |Residual|: 3.542e-03   |deigs|: 2.101e-03  t[s]:     14.22
	FillingsUpdate:  mu: -0.100007833  nElectrons: 9.000000  magneticMoment: [ Abs: 0.72016  Tot: -0.72000 ]
SCF: Cycle:  4   F: -24.448115346290752   dF: -5.213e-05   |Residual|: 2.392e-03   |deigs|: 2.554e-03  t[s]:     16.24
	FillingsUpdate:  mu: -0.098301931  nElectrons: 9.000000  magneticMoment: [ Abs: 0.72039  Tot: -0.72000 ]
SCF: Cycle:  5   F: -24.448133516240411   dF: -1.817e-05   |Residual|: 1.792e-03   |deigs|: 3.062e-03  t[s]:     18.23
	FillingsUpdate:  mu: -0.095378840  nElectrons: 9.000000  magneticMoment: [ Abs: 0.72638  Tot: -0.72000 ]
SCF: Cycle:  6   F: -24.448132258665058   dF: +1.258e-06   |Residual|: 1.412e-03   |deigs|: 3.600e-03  t[s]:     20.18
	FillingsUpdate:  mu: -0.093008036  nElectrons: 9.000000  magneticMoment: [ Abs: 0.72761  Tot: -0.72000 ]
SCF: Cycle:  7   F: -24.448157946446134   dF: -2.569e-05   |Residual|: 1.228e-03   |deigs|: 3.012e-03  t[s]:     22.24
	FillingsUpdate:  mu: -0.093477222  nElectrons: 9.000000  magneticMoment: [ Abs: 0.72061  Tot: -0.72000 ]
SCF: Cycle:  8   F: -24.448173560171504   dF: -1.561e-05   |Residual|: 9.348e-04   |deigs|: 8.324e-04  t[s]:     24.31
	FillingsUpdate:  mu: -0.091937672  nElectrons: 9.000000  magneticMoment: [ Abs: 0.72191  Tot: -0.72000 ]
SCF: Cycle:  9   F: -24.448177452927712   dF: -3.893e-06   |Residual|: 7.404e-04   |deigs|: 1.547e-03  t[s]:     26.38
	FillingsUpdate:  mu: -0.090511824  nElectrons: 9.000000  magneticMoment: [ Abs: 0.72402  Tot: -0.72000 ]
SCF: Cycle: 10   F: -24.448179308008289   dF: -1.855e-06   |Residual|: 6.432e-04   |deigs|: 1.486e-03  t[s]:     28.43
	FillingsUpdate:  mu: -0.089861338  nElectrons: 9.000000  magneticMoment: [ Abs: 0.72371  Tot: -0.72000 ]
SCF: Cycle: 11   F: -24.448183470060123   dF: -4.162e-06   |Residual|: 5.877e-04   |deigs|: 6.923e-04  t[s]:     30.49
	FillingsUpdate:  mu: -0.088841293  nElectrons: 9.000000  magneticMoment: [ Abs: 0.72416  Tot: -0.72000 ]
SCF: Cycle: 12   F: -24.448191301351855   dF: -7.831e-06   |Residual|: 5.321e-04   |deigs|: 1.034e-03  t[s]:     32.53
	FillingsUpdate:  mu: -0.086891868  nElectrons: 9.000000  magneticMoment: [ Abs: 0.72513  Tot: -0.72000 ]
SCF: Cycle: 13   F: -24.448197704099663   dF: -6.403e-06   |Residual|: 4.834e-04   |deigs|: 1.947e-03  t[s]:     34.57
	FillingsUpdate:  mu: -0.085786999  nElectrons: 9.000000  magneticMoment: [ Abs: 0.72328  Tot: -0.72000 ]
SCF: Cycle: 14   F: -24.448201043698667   dF: -3.340e-06   |Residual|: 4.343e-04   |deigs|: 1.182e-03  t[s]:     36.62
	FillingsUpdate:  mu: -0.084396683  nElectrons: 9.000000  magneticMoment: [ Abs: 0.72142  Tot: -0.72000 ]
SCF: Cycle: 15   F: -24.448205015273441   dF: -3.972e-06   |Residual|: 3.291e-04   |deigs|: 1.512e-03  t[s]:     38.66
	FillingsUpdate:  mu: -0.083906508  nElectrons: 9.000000  magneticMoment: [ Abs: 0.72112  Tot: -0.72000 ]
SCF: Cycle: 16   F: -24.448206765622455   dF: -1.750e-06   |Residual|: 2.460e-04   |deigs|: 6.054e-04  t[s]:     40.71
	FillingsUpdate:  mu: -0.083579663  nElectrons: 9.000000  magneticMoment: [ Abs: 0.72053  Tot: -0.72000 ]
SCF: Cycle: 17   F: -24.448208612626406   dF: -1.847e-06   |Residual|: 1.780e-04   |deigs|: 4.604e-04  t[s]:     42.86
	FillingsUpdate:  mu: -0.083596235  nElectrons: 9.000000  magneticMoment: [ Abs: 0.72030  Tot: -0.72000 ]
SCF: Cycle: 18   F: -24.448208968332121   dF: -3.557e-07   |Residual|: 1.232e-04   |deigs|: 8.081e-04  t[s]:     44.97
	FillingsUpdate:  mu: -0.083489220  nElectrons: 9.000000  magneticMoment: [ Abs: 0.72068  Tot: -0.72000 ]
SCF: Cycle: 19   F: -24.448209279296766   dF: -3.110e-07   |Residual|: 6.076e-05   |deigs|: 2.037e-04  t[s]:     47.03
	FillingsUpdate:  mu: -0.083404214  nElectrons: 9.000000  magneticMoment: [ Abs: 0.72059  Tot: -0.72000 ]
SCF: Cycle: 20   F: -24.448209375183470   dF: -9.589e-08   |Residual|: 3.406e-05   |deigs|: 1.008e-04  t[s]:     49.06
	FillingsUpdate:  mu: -0.083386967  nElectrons: 9.000000  magneticMoment: [ Abs: 0.72061  Tot: -0.72000 ]
SCF: Cycle: 21   F: -24.448209423169690   dF: -4.799e-08   |Residual|: 2.176e-05   |deigs|: 3.536e-05  t[s]:     51.20
	FillingsUpdate:  mu: -0.083402734  nElectrons: 9.000000  magneticMoment: [ Abs: 0.72059  Tot: -0.72000 ]
SCF: Cycle: 22   F: -24.448209441020541   dF: -1.785e-08   |Residual|: 1.845e-05   |deigs|: 3.079e-05  t[s]:     53.24
	FillingsUpdate:  mu: -0.083426512  nElectrons: 9.000000  magneticMoment: [ Abs: 0.72052  Tot: -0.72000 ]
SCF: Cycle: 23   F: -24.448209456420145   dF: -1.540e-08   |Residual|: 1.633e-05   |deigs|: 3.596e-05  t[s]:     55.31
	FillingsUpdate:  mu: -0.083413395  nElectrons: 9.000000  magneticMoment: [ Abs: 0.72041  Tot: -0.72000 ]
SCF: Cycle: 24   F: -24.448209476304907   dF: -1.988e-08   |Residual|: 1.505e-05   |deigs|: 1.734e-05  t[s]:     57.35
	FillingsUpdate:  mu: -0.083409075  nElectrons: 9.000000  magneticMoment: [ Abs: 0.72030  Tot: -0.72000 ]
SCF: Cycle: 25   F: -24.448209476715700   dF: -4.108e-10   |Residual|: 1.286e-05   |deigs|: 1.116e-05  t[s]:     59.35
	FillingsUpdate:  mu: -0.083404862  nElectrons: 9.000000  magneticMoment: [ Abs: 0.72019  Tot: -0.72000 ]
SCF: Cycle: 26   F: -24.448209484128828   dF: -7.413e-09   |Residual|: 7.762e-06   |deigs|: 9.096e-06  t[s]:     61.39
SCF: Converged (|Delta E|<1.000000e-08 for 2 iters).


# Ionic positions in lattice coordinates:
ion Rb   0.000000000000000   0.000000000000000   0.000000000000000 0

# Forces in Lattice coordinates:
force Rb   0.000000000000000  -0.000000000000000   0.000000000000000 0

# Energy components:
   Eewald =      -18.0480261003326561
       EH =        1.6760205716640220
     Eloc =      -10.5879081579917020
      Enl =       -0.7982073431162222
   Epulay =        0.0000000035676145
      Exc =       -3.6814826667721432
       KE =        6.9913945169776017
-------------------------------------
     Etot =      -24.4482091760034876
       TS =        0.0000003081253407
-------------------------------------
        F =      -24.4482094841288280

IonicMinimize: Iter:   0  F: -24.448209484128828  |grad|_K:  0.000e+00  t[s]:     61.51
IonicMinimize: Converged (|grad|_K<1.000000e-04).

#--- Lowdin population analysis ---
# oxidation-state Rb +0.094
# magnetic-moments Rb -0.630

End date and time: Sun Feb  6 12:35:53 2022  (Duration: 0-0:01:01.54)
Done!
