
*************** JDFTx 1.6.0 (git hash 42ebbcc2) ***************

Start date and time: Sun Feb  6 12:48:06 2022
Executable jdftx with command-line: -i Alkali.in
Running on hosts (process indices):  d-17-11-3 (0-18)
Divided in process groups (process indices):  0 (0)  1 (1)  2 (2)  3 (3)  4 (4)  5 (5)  6 (6)  7 (7)  8 (8)  9 (9)  10 (10)  11 (11)  12 (12)  13 (13)  14 (14)  15 (15)  16 (16)  17 (17)  18 (18)
Resource initialization completed at t[s]:      0.00
Run totals: 19 processes, 48 threads, 0 GPUs


Input parsed successfully to the following command list (including defaults):

basis kpoint-dependent
coords-type Lattice
core-overlap-check vector
coulomb-interaction Slab 001
davidson-band-ratio 1.1
dump End None
dump-name $INPUT.$VAR
elec-cutoff 20
elec-eigen-algo Davidson
elec-ex-corr gga-PBE
elec-initial-magnetization 0.300000 yes
elec-smearing Fermi 1e-05
electronic-minimize  \
	dirUpdateScheme      FletcherReeves \
	linminMethod         DirUpdateRecommended \
	nIterations          100 \
	history              15 \
	knormThreshold       0 \
	energyDiffThreshold  1e-08 \
	nEnergyDiff          2 \
	alphaTstart          1 \
	alphaTmin            1e-10 \
	updateTestStepSize   yes \
	alphaTreduceFactor   0.1 \
	alphaTincreaseFactor 3 \
	nAlphaAdjustMax      3 \
	wolfeEnergy          0.0001 \
	wolfeGradient        0.9 \
	fdTest               no
electronic-scf  \
	nIterations	10000 \
	energyDiffThreshold	1e-08 \
	residualThreshold	1e-07 \
	mixFraction	0.5 \
	qMetric	0.8 \
	history	10 \
	nEigSteps	2 \
	eigDiffThreshold	1e-08 \
	mixedVariable	Density \
	qKerker	0.8 \
	qKappa	-1 \
	verbose	no \
	mixFractionMag	1.5
exchange-regularization WignerSeitzTruncated
fluid None
fluid-ex-corr (null) lda-PZ
fluid-gummel-loop 10 1.000000e-05
fluid-minimize  \
	dirUpdateScheme      PolakRibiere \
	linminMethod         DirUpdateRecommended \
	nIterations          100 \
	history              15 \
	knormThreshold       0 \
	energyDiffThreshold  0 \
	nEnergyDiff          2 \
	alphaTstart          1 \
	alphaTmin            1e-10 \
	updateTestStepSize   yes \
	alphaTreduceFactor   0.1 \
	alphaTincreaseFactor 3 \
	nAlphaAdjustMax      3 \
	wolfeEnergy          0.0001 \
	wolfeGradient        0.9 \
	fdTest               no
fluid-solvent H2O 55.338 ScalarEOS \
	epsBulk 78.4 \
	pMol 0.92466 \
	epsInf 1.77 \
	Pvap 1.06736e-10 \
	sigmaBulk 4.62e-05 \
	Rvdw 2.61727 \
	Res 1.42 \
	tauNuc 343133 \
	poleEl 15 7 1
forces-output-coords Positions
ion Rb   0.000000000000000   0.000000000000000   0.000000000000000 0
ion-species SG15/$ID_ONCV_PBE.upf
ion-width 0
ionic-minimize  \
	dirUpdateScheme      L-BFGS \
	linminMethod         DirUpdateRecommended \
	nIterations          0 \
	history              15 \
	knormThreshold       0.0001 \
	energyDiffThreshold  1e-06 \
	nEnergyDiff          2 \
	alphaTstart          1 \
	alphaTmin            1e-10 \
	updateTestStepSize   yes \
	alphaTreduceFactor   0.1 \
	alphaTincreaseFactor 3 \
	nAlphaAdjustMax      3 \
	wolfeEnergy          0.0001 \
	wolfeGradient        0.9 \
	fdTest               no
kpoint   0.000000000000   0.000000000000   0.000000000000  1.00000000000000
kpoint-folding 12 12 1 
latt-move-scale 1 1 1
latt-scale 2 2 1 
lattice  \
	   4.727486978767153   -2.363743489383575    0.000000000000000  \
	  -0.000000000000000    4.094123819672498    0.000000000000000  \
	   0.000000000000000    0.000000000000000   40.000000000000000 
lattice-minimize  \
	dirUpdateScheme      L-BFGS \
	linminMethod         DirUpdateRecommended \
	nIterations          0 \
	history              15 \
	knormThreshold       0 \
	energyDiffThreshold  1e-06 \
	nEnergyDiff          2 \
	alphaTstart          1 \
	alphaTmin            1e-10 \
	updateTestStepSize   yes \
	alphaTreduceFactor   0.1 \
	alphaTincreaseFactor 3 \
	nAlphaAdjustMax      3 \
	wolfeEnergy          0.0001 \
	wolfeGradient        0.9 \
	fdTest               no
lcao-params -1 1e-06 1e-05
pcm-variant GLSSA13
spintype z-spin
subspace-rotation-factor 1 yes
symmetries automatic
symmetry-threshold 0.0001



---------- Setting up symmetries ----------

Found 24 point-group symmetries of the bravais lattice
Found 24 space-group symmetries with basis
Applied RMS atom displacement 0 bohrs to make symmetries exact.

---------- Initializing the Grid ----------
R = 
[      9.45497     -4.72749            0  ]
[            0      8.18825            0  ]
[            0            0           40  ]
unit cell volume = 3096.79
G =
[   0.664538   0.383671         -0  ]
[          0   0.767342         -0  ]
[         -0         -0    0.15708  ]
Minimum fftbox size, Smin = [  40  40  164  ]
Chosen fftbox size, S = [  40  40  168  ]

---------- Exchange Correlation functional ----------
Initalized PBE GGA exchange.
Initalized PBE GGA correlation.

---------- Setting up pseudopotentials ----------
Width of ionic core gaussian charges (only for fluid interactions / plotting) set to 0

Reading pseudopotential file '/home/gridsan/aligho/DFT/build-Nov24/pseudopotentials/SG15/Rb_ONCV_PBE.upf':
  'Rb' pseudopotential, 'PBE' functional
  Generated using ONCVPSP code by D. R. Hamann
  Author: Martin Schlipf and Francois Gygi  Date: 150915.
  9 valence electrons, 3 orbitals, 6 projectors, 2308 radial grid points, with lMax = 2
  Transforming local potential to a uniform radial grid of dG=0.02 with 1489 points.
  Transforming nonlocal projectors to a uniform radial grid of dG=0.02 with 432 points.
    4S    l: 0   occupation:  2.0   eigenvalue: -1.172069
    4P    l: 1   occupation:  6.0   eigenvalue: -0.586674
    5S    l: 0   occupation:  1.0   eigenvalue: -0.082006
  Transforming atomic orbitals to a uniform radial grid of dG=0.02 with 432 points.
  Core radius for overlap checks: 2.60 bohrs.
  Reading pulay file /home/gridsan/aligho/DFT/build-Nov24/pseudopotentials/SG15/Rb_ONCV_PBE.pulay ... using dE_dnG = -1.360715e-05 computed for Ecut = 20.

Initialized 1 species with 1 total atoms.

Folded 1 k-points by 12x12x1 to 144 k-points.

---------- Setting up k-points, bands, fillings ----------
Reduced to 19 k-points under symmetry. 
Computing the number of bands and number of electrons
Calculating initial fillings.
nElectrons:   9.000000   nBands: 6   nStates: 38

----- Setting up reduced wavefunction bases (one per k-point) -----
average nbasis = 13230.521 , ideal nbasis = 13229.709

---------- Setting up coulomb interaction ----------
Initialized slab truncation along lattice direction 001

---------- Setting up 2D ewald sum ----------
Optimum gaussian width for ewald sums = 5.249020 bohr.
Real space sums over 289 unit cells with max indices [  8  8  0  ]
Reciprocal space sums over 81 terms with max indices [  4  4  0  ]

---------- Allocating electronic variables ----------
Initializing wave functions:  linear combination of atomic orbitals
Note: number of bands (6) exceeds available atomic orbitals (5)
Rb pseudo-atom occupations:   s ( 2 1 )  p ( 6 )
	FillingsUpdate:  mu: -0.092254867  nElectrons: 9.000000  magneticMoment: [ Abs: 0.30000  Tot: +0.30000 ]
LCAOMinimize: Iter:   0  F: -24.4483910232430510  |grad|_K:  4.020e-05  alpha:  1.000e+00
	FillingsUpdate:  mu: -0.092241312  nElectrons: 9.000000  magneticMoment: [ Abs: 0.30000  Tot: +0.30000 ]
LCAOMinimize: Iter:   1  F: -24.4483921031835791  |grad|_K:  4.405e-07  alpha:  9.770e-01  linmin: -3.421e-02  cgtest:  4.222e-01  t[s]:      4.71
LCAOMinimize: Encountered beta<0, resetting CG.
	FillingsUpdate:  mu: -0.092241399  nElectrons: 9.000000  magneticMoment: [ Abs: 0.30000  Tot: +0.30000 ]
LCAOMinimize: Iter:   2  F: -24.4483921033162410  |grad|_K:  1.309e-09  alpha:  1.004e+00  linmin:  1.367e-01  cgtest: -9.261e-01  t[s]:      5.95
LCAOMinimize: 	Step increased F by 2.131628e-14, reducing alpha to 1.162298e-04.
	FillingsUpdate:  mu: -0.092241399  nElectrons: 9.000000  magneticMoment: [ Abs: 0.30000  Tot: +0.30000 ]
LCAOMinimize: Iter:   3  F: -24.4483921033162552  |grad|_K:  1.309e-09  alpha:  1.162e-04  linmin: -4.886e-03  cgtest:  1.000e+00  t[s]:      7.87
LCAOMinimize: Encountered beta<0, resetting CG.
LCAOMinimize: Converged (|Delta F|<1.000000e-06 for 2 iters).


---- Citations for features of the code used in this run ----

   Software package:
      R. Sundararaman, K. Letchworth-Weaver, K.A. Schwarz, D. Gunceler, Y. Ozhabes and T.A. Arias, 'JDFTx: software for joint density-functional theory', SoftwareX 6, 278 (2017)

   gga-PBE exchange-correlation functional:
      J.P. Perdew, K. Burke and M. Ernzerhof, Phys. Rev. Lett. 77, 3865 (1996)

   Pseudopotentials:
      M Schlipf and F Gygi, Comput. Phys. Commun. 196, 36 (2015)

   Truncated Coulomb potentials:
      R. Sundararaman and T.A. Arias, Phys. Rev. B 87, 165122 (2013)

This list may not be complete. Please suggest additional citations or
report any other bugs at https://github.com/shankar1729/jdftx/issues

Initialization completed successfully at t[s]:      7.97


-------- Electronic minimization -----------
Will mix electronic density at each iteration.
	FillingsUpdate:  mu: -0.092241399  nElectrons: 9.000000  magneticMoment: [ Abs: 0.30000  Tot: +0.30000 ]
	FillingsUpdate:  mu: -0.103099156  nElectrons: 9.000000  magneticMoment: [ Abs: 0.30000  Tot: +0.30000 ]
SCF: Cycle:  0   F: -24.453379656481641   dF: -4.988e-03   |Residual|: 9.611e-03   |deigs|: 1.793e-01  t[s]:     10.51
	FillingsUpdate:  mu: -0.102813626  nElectrons: 9.000000  magneticMoment: [ Abs: 0.30000  Tot: +0.30000 ]
SCF: Cycle:  1   F: -24.453574375958400   dF: -1.947e-04   |Residual|: 7.299e-03   |deigs|: 6.741e-03  t[s]:     12.40
	FillingsUpdate:  mu: -0.101216104  nElectrons: 9.000000  magneticMoment: [ Abs: 0.30318  Tot: +0.30000 ]
SCF: Cycle:  2   F: -24.453671955623804   dF: -9.758e-05   |Residual|: 3.732e-03   |deigs|: 2.193e-03  t[s]:     14.33
	FillingsUpdate:  mu: -0.100072381  nElectrons: 9.000000  magneticMoment: [ Abs: 0.30006  Tot: +0.30000 ]
SCF: Cycle:  3   F: -24.453724990283231   dF: -5.303e-05   |Residual|: 2.414e-03   |deigs|: 2.377e-03  t[s]:     16.23
	FillingsUpdate:  mu: -0.098415740  nElectrons: 9.000000  magneticMoment: [ Abs: 0.30001  Tot: +0.30000 ]
SCF: Cycle:  4   F: -24.453757899424847   dF: -3.291e-05   |Residual|: 1.969e-03   |deigs|: 2.274e-03  t[s]:     18.20
	FillingsUpdate:  mu: -0.096959262  nElectrons: 9.000000  magneticMoment: [ Abs: 0.30203  Tot: +0.30000 ]
SCF: Cycle:  5   F: -24.453775779068064   dF: -1.788e-05   |Residual|: 1.425e-03   |deigs|: 3.606e-03  t[s]:     20.23
	FillingsUpdate:  mu: -0.094636090  nElectrons: 9.000000  magneticMoment: [ Abs: 0.30607  Tot: +0.30000 ]
SCF: Cycle:  6   F: -24.453777091804941   dF: -1.313e-06   |Residual|: 1.046e-03   |deigs|: 3.180e-03  t[s]:     22.20
	FillingsUpdate:  mu: -0.093222040  nElectrons: 9.000000  magneticMoment: [ Abs: 0.30469  Tot: +0.30000 ]
SCF: Cycle:  7   F: -24.453793834137898   dF: -1.674e-05   |Residual|: 9.740e-04   |deigs|: 2.067e-03  t[s]:     24.26
	FillingsUpdate:  mu: -0.093168261  nElectrons: 9.000000  magneticMoment: [ Abs: 0.30098  Tot: +0.30000 ]
SCF: Cycle:  8   F: -24.453803401858394   dF: -9.568e-06   |Residual|: 7.956e-04   |deigs|: 1.456e-03  t[s]:     26.39
	FillingsUpdate:  mu: -0.091649496  nElectrons: 9.000000  magneticMoment: [ Abs: 0.30283  Tot: +0.30000 ]
SCF: Cycle:  9   F: -24.453804114204228   dF: -7.123e-07   |Residual|: 6.483e-04   |deigs|: 1.541e-03  t[s]:     28.57
	FillingsUpdate:  mu: -0.090367468  nElectrons: 9.000000  magneticMoment: [ Abs: 0.30347  Tot: +0.30000 ]
SCF: Cycle: 10   F: -24.453800952364006   dF: +3.162e-06   |Residual|: 5.745e-04   |deigs|: 1.443e-03  t[s]:     30.80
	FillingsUpdate:  mu: -0.089148189  nElectrons: 9.000000  magneticMoment: [ Abs: 0.30232  Tot: +0.30000 ]
SCF: Cycle: 11   F: -24.453808452133945   dF: -7.500e-06   |Residual|: 5.035e-04   |deigs|: 1.274e-03  t[s]:     32.92
	FillingsUpdate:  mu: -0.087887448  nElectrons: 9.000000  magneticMoment: [ Abs: 0.30298  Tot: +0.30000 ]
SCF: Cycle: 12   F: -24.453820745466341   dF: -1.229e-05   |Residual|: 4.753e-04   |deigs|: 1.204e-03  t[s]:     35.11
	FillingsUpdate:  mu: -0.086611553  nElectrons: 9.000000  magneticMoment: [ Abs: 0.30249  Tot: +0.30000 ]
SCF: Cycle: 13   F: -24.453824880486458   dF: -4.135e-06   |Residual|: 4.260e-04   |deigs|: 1.337e-03  t[s]:     37.20
	FillingsUpdate:  mu: -0.085221547  nElectrons: 9.000000  magneticMoment: [ Abs: 0.30040  Tot: +0.30000 ]
SCF: Cycle: 14   F: -24.453829122351085   dF: -4.242e-06   |Residual|: 3.583e-04   |deigs|: 1.452e-03  t[s]:     39.31
	FillingsUpdate:  mu: -0.084684411  nElectrons: 9.000000  magneticMoment: [ Abs: 0.30059  Tot: +0.30000 ]
SCF: Cycle: 15   F: -24.453831498475697   dF: -2.376e-06   |Residual|: 2.522e-04   |deigs|: 5.701e-04  t[s]:     41.43
	FillingsUpdate:  mu: -0.084254997  nElectrons: 9.000000  magneticMoment: [ Abs: 0.30064  Tot: +0.30000 ]
SCF: Cycle: 16   F: -24.453832687849737   dF: -1.189e-06   |Residual|: 1.635e-04   |deigs|: 1.462e-03  t[s]:     43.55
	FillingsUpdate:  mu: -0.084196215  nElectrons: 9.000000  magneticMoment: [ Abs: 0.30003  Tot: +0.30000 ]
SCF: Cycle: 17   F: -24.453833096071779   dF: -4.082e-07   |Residual|: 9.548e-05   |deigs|: 1.987e-04  t[s]:     45.66
	FillingsUpdate:  mu: -0.084197044  nElectrons: 9.000000  magneticMoment: [ Abs: 0.30018  Tot: +0.30000 ]
SCF: Cycle: 18   F: -24.453833262319950   dF: -1.662e-07   |Residual|: 6.191e-05   |deigs|: 1.022e-03  t[s]:     47.77
	FillingsUpdate:  mu: -0.084194778  nElectrons: 9.000000  magneticMoment: [ Abs: 0.30011  Tot: +0.30000 ]
SCF: Cycle: 19   F: -24.453833327907109   dF: -6.559e-08   |Residual|: 3.341e-05   |deigs|: 3.303e-04  t[s]:     49.83
	FillingsUpdate:  mu: -0.084207618  nElectrons: 9.000000  magneticMoment: [ Abs: 0.30010  Tot: +0.30000 ]
SCF: Cycle: 20   F: -24.453833363986380   dF: -3.608e-08   |Residual|: 1.597e-05   |deigs|: 8.637e-05  t[s]:     51.93
	FillingsUpdate:  mu: -0.084192090  nElectrons: 9.000000  magneticMoment: [ Abs: 0.30012  Tot: +0.30000 ]
SCF: Cycle: 21   F: -24.453833370980721   dF: -6.994e-09   |Residual|: 1.026e-05   |deigs|: 6.806e-05  t[s]:     53.98
	FillingsUpdate:  mu: -0.084185524  nElectrons: 9.000000  magneticMoment: [ Abs: 0.30014  Tot: +0.30000 ]
SCF: Cycle: 22   F: -24.453833376268349   dF: -5.288e-09   |Residual|: 5.689e-06   |deigs|: 5.511e-05  t[s]:     56.11
SCF: Converged (|Delta E|<1.000000e-08 for 2 iters).


# Ionic positions in lattice coordinates:
ion Rb   0.000000000000000   0.000000000000000   0.000000000000000 0

# Forces in Lattice coordinates:
force Rb   0.000000000000000  -0.000000000000000   0.000000000000000 0

# Energy components:
   Eewald =      -18.0480261003326561
       EH =        1.6493800476427709
     Eloc =      -10.5609880189654852
      Enl =       -0.7960953230235359
   Epulay =        0.0000000035676145
      Exc =       -3.6766797762051264
       KE =        6.9785766308716362
-------------------------------------
     Etot =      -24.4538325364447822
       TS =        0.0000008398235688
-------------------------------------
        F =      -24.4538333762683493

IonicMinimize: Iter:   0  F: -24.453833376268349  |grad|_K:  0.000e+00  t[s]:     56.23
IonicMinimize: Converged (|grad|_K<1.000000e-04).

#--- Lowdin population analysis ---
# oxidation-state Rb +0.043
# magnetic-moments Rb +0.270

End date and time: Sun Feb  6 12:49:02 2022  (Duration: 0-0:00:56.26)
Done!
