
*************** JDFTx 1.6.0 (git hash 42ebbcc2) ***************

Start date and time: Sun Feb  6 12:47:05 2022
Executable jdftx with command-line: -i Alkali.in
Running on hosts (process indices):  d-16-5-2 (0-18)
Divided in process groups (process indices):  0 (0)  1 (1)  2 (2)  3 (3)  4 (4)  5 (5)  6 (6)  7 (7)  8 (8)  9 (9)  10 (10)  11 (11)  12 (12)  13 (13)  14 (14)  15 (15)  16 (16)  17 (17)  18 (18)
Resource initialization completed at t[s]:      0.00
Run totals: 19 processes, 48 threads, 0 GPUs


Input parsed successfully to the following command list (including defaults):

basis kpoint-dependent
coords-type Lattice
core-overlap-check vector
coulomb-interaction Slab 001
davidson-band-ratio 1.1
dump End None
dump-name $INPUT.$VAR
elec-cutoff 20
elec-eigen-algo Davidson
elec-ex-corr gga-PBE
elec-initial-magnetization -0.020000 yes
elec-smearing Fermi 1e-05
electronic-minimize  \
	dirUpdateScheme      FletcherReeves \
	linminMethod         DirUpdateRecommended \
	nIterations          100 \
	history              15 \
	knormThreshold       0 \
	energyDiffThreshold  1e-08 \
	nEnergyDiff          2 \
	alphaTstart          1 \
	alphaTmin            1e-10 \
	updateTestStepSize   yes \
	alphaTreduceFactor   0.1 \
	alphaTincreaseFactor 3 \
	nAlphaAdjustMax      3 \
	wolfeEnergy          0.0001 \
	wolfeGradient        0.9 \
	fdTest               no
electronic-scf  \
	nIterations	10000 \
	energyDiffThreshold	1e-08 \
	residualThreshold	1e-07 \
	mixFraction	0.5 \
	qMetric	0.8 \
	history	10 \
	nEigSteps	2 \
	eigDiffThreshold	1e-08 \
	mixedVariable	Density \
	qKerker	0.8 \
	qKappa	-1 \
	verbose	no \
	mixFractionMag	1.5
exchange-regularization WignerSeitzTruncated
fluid None
fluid-ex-corr (null) lda-PZ
fluid-gummel-loop 10 1.000000e-05
fluid-minimize  \
	dirUpdateScheme      PolakRibiere \
	linminMethod         DirUpdateRecommended \
	nIterations          100 \
	history              15 \
	knormThreshold       0 \
	energyDiffThreshold  0 \
	nEnergyDiff          2 \
	alphaTstart          1 \
	alphaTmin            1e-10 \
	updateTestStepSize   yes \
	alphaTreduceFactor   0.1 \
	alphaTincreaseFactor 3 \
	nAlphaAdjustMax      3 \
	wolfeEnergy          0.0001 \
	wolfeGradient        0.9 \
	fdTest               no
fluid-solvent H2O 55.338 ScalarEOS \
	epsBulk 78.4 \
	pMol 0.92466 \
	epsInf 1.77 \
	Pvap 1.06736e-10 \
	sigmaBulk 4.62e-05 \
	Rvdw 2.61727 \
	Res 1.42 \
	tauNuc 343133 \
	poleEl 15 7 1
forces-output-coords Positions
ion Rb   0.000000000000000   0.000000000000000   0.000000000000000 0
ion-species SG15/$ID_ONCV_PBE.upf
ion-width 0
ionic-minimize  \
	dirUpdateScheme      L-BFGS \
	linminMethod         DirUpdateRecommended \
	nIterations          0 \
	history              15 \
	knormThreshold       0.0001 \
	energyDiffThreshold  1e-06 \
	nEnergyDiff          2 \
	alphaTstart          1 \
	alphaTmin            1e-10 \
	updateTestStepSize   yes \
	alphaTreduceFactor   0.1 \
	alphaTincreaseFactor 3 \
	nAlphaAdjustMax      3 \
	wolfeEnergy          0.0001 \
	wolfeGradient        0.9 \
	fdTest               no
kpoint   0.000000000000   0.000000000000   0.000000000000  1.00000000000000
kpoint-folding 12 12 1 
latt-move-scale 1 1 1
latt-scale 2 2 1 
lattice  \
	   4.727486978767153   -2.363743489383575    0.000000000000000  \
	  -0.000000000000000    4.094123819672498    0.000000000000000  \
	   0.000000000000000    0.000000000000000   40.000000000000000 
lattice-minimize  \
	dirUpdateScheme      L-BFGS \
	linminMethod         DirUpdateRecommended \
	nIterations          0 \
	history              15 \
	knormThreshold       0 \
	energyDiffThreshold  1e-06 \
	nEnergyDiff          2 \
	alphaTstart          1 \
	alphaTmin            1e-10 \
	updateTestStepSize   yes \
	alphaTreduceFactor   0.1 \
	alphaTincreaseFactor 3 \
	nAlphaAdjustMax      3 \
	wolfeEnergy          0.0001 \
	wolfeGradient        0.9 \
	fdTest               no
lcao-params -1 1e-06 1e-05
pcm-variant GLSSA13
spintype z-spin
subspace-rotation-factor 1 yes
symmetries automatic
symmetry-threshold 0.0001



---------- Setting up symmetries ----------

Found 24 point-group symmetries of the bravais lattice
Found 24 space-group symmetries with basis
Applied RMS atom displacement 0 bohrs to make symmetries exact.

---------- Initializing the Grid ----------
R = 
[      9.45497     -4.72749            0  ]
[            0      8.18825            0  ]
[            0            0           40  ]
unit cell volume = 3096.79
G =
[   0.664538   0.383671         -0  ]
[          0   0.767342         -0  ]
[         -0         -0    0.15708  ]
Minimum fftbox size, Smin = [  40  40  164  ]
Chosen fftbox size, S = [  40  40  168  ]

---------- Exchange Correlation functional ----------
Initalized PBE GGA exchange.
Initalized PBE GGA correlation.

---------- Setting up pseudopotentials ----------
Width of ionic core gaussian charges (only for fluid interactions / plotting) set to 0

Reading pseudopotential file '/home/gridsan/aligho/DFT/build-Nov24/pseudopotentials/SG15/Rb_ONCV_PBE.upf':
  'Rb' pseudopotential, 'PBE' functional
  Generated using ONCVPSP code by D. R. Hamann
  Author: Martin Schlipf and Francois Gygi  Date: 150915.
  9 valence electrons, 3 orbitals, 6 projectors, 2308 radial grid points, with lMax = 2
  Transforming local potential to a uniform radial grid of dG=0.02 with 1489 points.
  Transforming nonlocal projectors to a uniform radial grid of dG=0.02 with 432 points.
    4S    l: 0   occupation:  2.0   eigenvalue: -1.172069
    4P    l: 1   occupation:  6.0   eigenvalue: -0.586674
    5S    l: 0   occupation:  1.0   eigenvalue: -0.082006
  Transforming atomic orbitals to a uniform radial grid of dG=0.02 with 432 points.
  Core radius for overlap checks: 2.60 bohrs.
  Reading pulay file /home/gridsan/aligho/DFT/build-Nov24/pseudopotentials/SG15/Rb_ONCV_PBE.pulay ... using dE_dnG = -1.360715e-05 computed for Ecut = 20.

Initialized 1 species with 1 total atoms.

Folded 1 k-points by 12x12x1 to 144 k-points.

---------- Setting up k-points, bands, fillings ----------
Reduced to 19 k-points under symmetry. 
Computing the number of bands and number of electrons
Calculating initial fillings.
nElectrons:   9.000000   nBands: 6   nStates: 38

----- Setting up reduced wavefunction bases (one per k-point) -----
average nbasis = 13230.521 , ideal nbasis = 13229.709

---------- Setting up coulomb interaction ----------
Initialized slab truncation along lattice direction 001

---------- Setting up 2D ewald sum ----------
Optimum gaussian width for ewald sums = 5.249020 bohr.
Real space sums over 289 unit cells with max indices [  8  8  0  ]
Reciprocal space sums over 81 terms with max indices [  4  4  0  ]

---------- Allocating electronic variables ----------
Initializing wave functions:  linear combination of atomic orbitals
Note: number of bands (6) exceeds available atomic orbitals (5)
Rb pseudo-atom occupations:   s ( 2 1 )  p ( 6 )
	FillingsUpdate:  mu: -0.094213311  nElectrons: 9.000000  magneticMoment: [ Abs: 0.02000  Tot: -0.02000 ]
LCAOMinimize: Iter:   0  F: -24.4505223422760309  |grad|_K:  4.451e-05  alpha:  1.000e+00
	FillingsUpdate:  mu: -0.094198429  nElectrons: 9.000000  magneticMoment: [ Abs: 0.02000  Tot: -0.02000 ]
LCAOMinimize: Iter:   1  F: -24.4505236645919659  |grad|_K:  4.937e-07  alpha:  9.761e-01  linmin: -3.894e-02  cgtest:  4.690e-01  t[s]:      4.71
LCAOMinimize: Encountered beta<0, resetting CG.
	FillingsUpdate:  mu: -0.094198505  nElectrons: 9.000000  magneticMoment: [ Abs: 0.02000  Tot: -0.02000 ]
LCAOMinimize: Iter:   2  F: -24.4505236647586273  |grad|_K:  1.045e-09  alpha:  1.003e+00  linmin:  1.744e-01  cgtest: -9.384e-01  t[s]:      5.92
LCAOMinimize: 	Wrong curvature in test step, increasing alphaT to 3.009428e+00.
	FillingsUpdate:  mu: -0.094198505  nElectrons: 9.000000  magneticMoment: [ Abs: 0.02000  Tot: -0.02000 ]
LCAOMinimize: Iter:   3  F: -24.4505236647589861  |grad|_K:  9.830e-10  alpha: -2.470e-04  linmin:  1.846e-04  cgtest:  9.357e-01  t[s]:      7.19
LCAOMinimize: Converged (|Delta F|<1.000000e-06 for 2 iters).


---- Citations for features of the code used in this run ----

   Software package:
      R. Sundararaman, K. Letchworth-Weaver, K.A. Schwarz, D. Gunceler, Y. Ozhabes and T.A. Arias, 'JDFTx: software for joint density-functional theory', SoftwareX 6, 278 (2017)

   gga-PBE exchange-correlation functional:
      J.P. Perdew, K. Burke and M. Ernzerhof, Phys. Rev. Lett. 77, 3865 (1996)

   Pseudopotentials:
      M Schlipf and F Gygi, Comput. Phys. Commun. 196, 36 (2015)

   Truncated Coulomb potentials:
      R. Sundararaman and T.A. Arias, Phys. Rev. B 87, 165122 (2013)

This list may not be complete. Please suggest additional citations or
report any other bugs at https://github.com/shankar1729/jdftx/issues

Initialization completed successfully at t[s]:      7.28


-------- Electronic minimization -----------
Will mix electronic density at each iteration.
	FillingsUpdate:  mu: -0.094198505  nElectrons: 9.000000  magneticMoment: [ Abs: 0.02000  Tot: -0.02000 ]
	FillingsUpdate:  mu: -0.103151723  nElectrons: 9.000000  magneticMoment: [ Abs: 0.02000  Tot: -0.02000 ]
SCF: Cycle:  0   F: -24.454588088882861   dF: -4.064e-03   |Residual|: 8.449e-03   |deigs|: 1.791e-01  t[s]:      9.71
	FillingsUpdate:  mu: -0.102955009  nElectrons: 9.000000  magneticMoment: [ Abs: 0.02000  Tot: -0.02000 ]
SCF: Cycle:  1   F: -24.454724674155646   dF: -1.366e-04   |Residual|: 6.867e-03   |deigs|: 5.179e-03  t[s]:     11.56
	FillingsUpdate:  mu: -0.100125274  nElectrons: 9.000000  magneticMoment: [ Abs: 0.02094  Tot: -0.02000 ]
SCF: Cycle:  2   F: -24.454816676540958   dF: -9.200e-05   |Residual|: 3.034e-03   |deigs|: 4.589e-03  t[s]:     13.43
	FillingsUpdate:  mu: -0.099500818  nElectrons: 9.000000  magneticMoment: [ Abs: 0.02021  Tot: -0.02000 ]
SCF: Cycle:  3   F: -24.454867272856731   dF: -5.060e-05   |Residual|: 2.285e-03   |deigs|: 4.155e-03  t[s]:     15.35
	FillingsUpdate:  mu: -0.097995720  nElectrons: 9.000000  magneticMoment: [ Abs: 0.02019  Tot: -0.02000 ]
SCF: Cycle:  4   F: -24.454888096439554   dF: -2.082e-05   |Residual|: 1.783e-03   |deigs|: 2.988e-03  t[s]:     17.31
	FillingsUpdate:  mu: -0.094845562  nElectrons: 9.000000  magneticMoment: [ Abs: 0.02122  Tot: -0.02000 ]
SCF: Cycle:  5   F: -24.454901990302364   dF: -1.389e-05   |Residual|: 1.101e-03   |deigs|: 3.862e-03  t[s]:     19.23
	FillingsUpdate:  mu: -0.094188539  nElectrons: 9.000000  magneticMoment: [ Abs: 0.02048  Tot: -0.02000 ]
SCF: Cycle:  6   F: -24.454918029439472   dF: -1.604e-05   |Residual|: 9.843e-04   |deigs|: 8.600e-04  t[s]:     21.18
	FillingsUpdate:  mu: -0.093621954  nElectrons: 9.000000  magneticMoment: [ Abs: 0.02057  Tot: -0.02000 ]
SCF: Cycle:  7   F: -24.454932883310416   dF: -1.485e-05   |Residual|: 7.760e-04   |deigs|: 4.460e-04  t[s]:     23.15
	FillingsUpdate:  mu: -0.092061444  nElectrons: 9.000000  magneticMoment: [ Abs: 0.02034  Tot: -0.02000 ]
SCF: Cycle:  8   F: -24.454927792174935   dF: +5.091e-06   |Residual|: 6.971e-04   |deigs|: 1.618e-03  t[s]:     25.30
	FillingsUpdate:  mu: -0.090603401  nElectrons: 9.000000  magneticMoment: [ Abs: 0.02039  Tot: -0.02000 ]
SCF: Cycle:  9   F: -24.454922984926128   dF: +4.807e-06   |Residual|: 6.053e-04   |deigs|: 1.565e-03  t[s]:     27.45
	FillingsUpdate:  mu: -0.089283656  nElectrons: 9.000000  magneticMoment: [ Abs: 0.02053  Tot: -0.02000 ]
SCF: Cycle: 10   F: -24.454935745405976   dF: -1.276e-05   |Residual|: 5.348e-04   |deigs|: 1.211e-03  t[s]:     29.64
	FillingsUpdate:  mu: -0.088767258  nElectrons: 9.000000  magneticMoment: [ Abs: 0.02069  Tot: -0.02000 ]
SCF: Cycle: 11   F: -24.454946075029127   dF: -1.033e-05   |Residual|: 5.406e-04   |deigs|: 4.741e-04  t[s]:     31.66
	FillingsUpdate:  mu: -0.087067503  nElectrons: 9.000000  magneticMoment: [ Abs: 0.02054  Tot: -0.02000 ]
SCF: Cycle: 12   F: -24.454950267764112   dF: -4.193e-06   |Residual|: 4.340e-04   |deigs|: 1.809e-03  t[s]:     33.67
	FillingsUpdate:  mu: -0.085434616  nElectrons: 9.000000  magneticMoment: [ Abs: 0.02041  Tot: -0.02000 ]
SCF: Cycle: 13   F: -24.454954747599849   dF: -4.480e-06   |Residual|: 3.943e-04   |deigs|: 1.776e-03  t[s]:     35.80
	FillingsUpdate:  mu: -0.085529441  nElectrons: 9.000000  magneticMoment: [ Abs: 0.02043  Tot: -0.02000 ]
SCF: Cycle: 14   F: -24.454956953816211   dF: -2.206e-06   |Residual|: 2.403e-04   |deigs|: 2.398e-04  t[s]:     37.85
	FillingsUpdate:  mu: -0.084712352  nElectrons: 9.000000  magneticMoment: [ Abs: 0.02017  Tot: -0.02000 ]
SCF: Cycle: 15   F: -24.454958328122640   dF: -1.374e-06   |Residual|: 1.648e-04   |deigs|: 8.809e-04  t[s]:     39.93
	FillingsUpdate:  mu: -0.084600853  nElectrons: 9.000000  magneticMoment: [ Abs: 0.02008  Tot: -0.02000 ]
SCF: Cycle: 16   F: -24.454958600391279   dF: -2.723e-07   |Residual|: 1.004e-04   |deigs|: 1.732e-03  t[s]:     41.95
	FillingsUpdate:  mu: -0.084652366  nElectrons: 9.000000  magneticMoment: [ Abs: 0.02006  Tot: -0.02000 ]
SCF: Cycle: 17   F: -24.454958708138577   dF: -1.077e-07   |Residual|: 4.934e-05   |deigs|: 2.759e-04  t[s]:     44.01
	FillingsUpdate:  mu: -0.084610296  nElectrons: 9.000000  magneticMoment: [ Abs: 0.02002  Tot: -0.02000 ]
SCF: Cycle: 18   F: -24.454958749331539   dF: -4.119e-08   |Residual|: 2.582e-05   |deigs|: 8.029e-05  t[s]:     46.10
	FillingsUpdate:  mu: -0.084614346  nElectrons: 9.000000  magneticMoment: [ Abs: 0.02003  Tot: -0.02000 ]
SCF: Cycle: 19   F: -24.454958766200420   dF: -1.687e-08   |Residual|: 1.237e-05   |deigs|: 6.286e-05  t[s]:     48.27
	FillingsUpdate:  mu: -0.084615721  nElectrons: 9.000000  magneticMoment: [ Abs: 0.02002  Tot: -0.02000 ]
SCF: Cycle: 20   F: -24.454958773873763   dF: -7.673e-09   |Residual|: 7.038e-06   |deigs|: 5.931e-05  t[s]:     50.36
	FillingsUpdate:  mu: -0.084625278  nElectrons: 9.000000  magneticMoment: [ Abs: 0.02002  Tot: -0.02000 ]
SCF: Cycle: 21   F: -24.454958777881885   dF: -4.008e-09   |Residual|: 4.069e-06   |deigs|: 5.568e-05  t[s]:     52.43
SCF: Converged (|Delta E|<1.000000e-08 for 2 iters).


# Ionic positions in lattice coordinates:
ion Rb   0.000000000000000   0.000000000000000   0.000000000000000 0

# Forces in Lattice coordinates:
force Rb  -0.000000000000000  -0.000000000000000   0.000000000000000 0

# Energy components:
   Eewald =      -18.0480261003326561
       EH =        1.6438547356914808
     Eloc =      -10.5554295356775345
      Enl =       -0.7956452403353735
   Epulay =        0.0000000035676145
      Exc =       -3.6756298129751528
       KE =        6.9759177240053791
-------------------------------------
     Etot =      -24.4549582260562488
       TS =        0.0000005518256370
-------------------------------------
        F =      -24.4549587778818847

IonicMinimize: Iter:   0  F: -24.454958777881885  |grad|_K:  0.000e+00  t[s]:     52.55
IonicMinimize: Converged (|grad|_K<1.000000e-04).

#--- Lowdin population analysis ---
# oxidation-state Rb +0.032
# magnetic-moments Rb -0.018

End date and time: Sun Feb  6 12:47:57 2022  (Duration: 0-0:00:52.57)
Done!
