
*************** JDFTx 1.6.0 (git hash 42ebbcc2) ***************

Start date and time: Sun Feb  6 12:41:28 2022
Executable jdftx with command-line: -i Alkali.in
Running on hosts (process indices):  d-17-11-3 (0-18)
Divided in process groups (process indices):  0 (0)  1 (1)  2 (2)  3 (3)  4 (4)  5 (5)  6 (6)  7 (7)  8 (8)  9 (9)  10 (10)  11 (11)  12 (12)  13 (13)  14 (14)  15 (15)  16 (16)  17 (17)  18 (18)
Resource initialization completed at t[s]:      0.00
Run totals: 19 processes, 48 threads, 0 GPUs


Input parsed successfully to the following command list (including defaults):

basis kpoint-dependent
coords-type Lattice
core-overlap-check vector
coulomb-interaction Slab 001
davidson-band-ratio 1.1
dump End None
dump-name $INPUT.$VAR
elec-cutoff 20
elec-eigen-algo Davidson
elec-ex-corr gga-PBE
elec-initial-magnetization -0.200000 yes
elec-smearing Fermi 1e-05
electronic-minimize  \
	dirUpdateScheme      FletcherReeves \
	linminMethod         DirUpdateRecommended \
	nIterations          100 \
	history              15 \
	knormThreshold       0 \
	energyDiffThreshold  1e-08 \
	nEnergyDiff          2 \
	alphaTstart          1 \
	alphaTmin            1e-10 \
	updateTestStepSize   yes \
	alphaTreduceFactor   0.1 \
	alphaTincreaseFactor 3 \
	nAlphaAdjustMax      3 \
	wolfeEnergy          0.0001 \
	wolfeGradient        0.9 \
	fdTest               no
electronic-scf  \
	nIterations	10000 \
	energyDiffThreshold	1e-08 \
	residualThreshold	1e-07 \
	mixFraction	0.5 \
	qMetric	0.8 \
	history	10 \
	nEigSteps	2 \
	eigDiffThreshold	1e-08 \
	mixedVariable	Density \
	qKerker	0.8 \
	qKappa	-1 \
	verbose	no \
	mixFractionMag	1.5
exchange-regularization WignerSeitzTruncated
fluid None
fluid-ex-corr (null) lda-PZ
fluid-gummel-loop 10 1.000000e-05
fluid-minimize  \
	dirUpdateScheme      PolakRibiere \
	linminMethod         DirUpdateRecommended \
	nIterations          100 \
	history              15 \
	knormThreshold       0 \
	energyDiffThreshold  0 \
	nEnergyDiff          2 \
	alphaTstart          1 \
	alphaTmin            1e-10 \
	updateTestStepSize   yes \
	alphaTreduceFactor   0.1 \
	alphaTincreaseFactor 3 \
	nAlphaAdjustMax      3 \
	wolfeEnergy          0.0001 \
	wolfeGradient        0.9 \
	fdTest               no
fluid-solvent H2O 55.338 ScalarEOS \
	epsBulk 78.4 \
	pMol 0.92466 \
	epsInf 1.77 \
	Pvap 1.06736e-10 \
	sigmaBulk 4.62e-05 \
	Rvdw 2.61727 \
	Res 1.42 \
	tauNuc 343133 \
	poleEl 15 7 1
forces-output-coords Positions
ion Rb   0.000000000000000   0.000000000000000   0.000000000000000 0
ion-species SG15/$ID_ONCV_PBE.upf
ion-width 0
ionic-minimize  \
	dirUpdateScheme      L-BFGS \
	linminMethod         DirUpdateRecommended \
	nIterations          0 \
	history              15 \
	knormThreshold       0.0001 \
	energyDiffThreshold  1e-06 \
	nEnergyDiff          2 \
	alphaTstart          1 \
	alphaTmin            1e-10 \
	updateTestStepSize   yes \
	alphaTreduceFactor   0.1 \
	alphaTincreaseFactor 3 \
	nAlphaAdjustMax      3 \
	wolfeEnergy          0.0001 \
	wolfeGradient        0.9 \
	fdTest               no
kpoint   0.000000000000   0.000000000000   0.000000000000  1.00000000000000
kpoint-folding 12 12 1 
latt-move-scale 1 1 1
latt-scale 2 2 1 
lattice  \
	   4.727486978767153   -2.363743489383575    0.000000000000000  \
	  -0.000000000000000    4.094123819672498    0.000000000000000  \
	   0.000000000000000    0.000000000000000   40.000000000000000 
lattice-minimize  \
	dirUpdateScheme      L-BFGS \
	linminMethod         DirUpdateRecommended \
	nIterations          0 \
	history              15 \
	knormThreshold       0 \
	energyDiffThreshold  1e-06 \
	nEnergyDiff          2 \
	alphaTstart          1 \
	alphaTmin            1e-10 \
	updateTestStepSize   yes \
	alphaTreduceFactor   0.1 \
	alphaTincreaseFactor 3 \
	nAlphaAdjustMax      3 \
	wolfeEnergy          0.0001 \
	wolfeGradient        0.9 \
	fdTest               no
lcao-params -1 1e-06 1e-05
pcm-variant GLSSA13
spintype z-spin
subspace-rotation-factor 1 yes
symmetries automatic
symmetry-threshold 0.0001



---------- Setting up symmetries ----------

Found 24 point-group symmetries of the bravais lattice
Found 24 space-group symmetries with basis
Applied RMS atom displacement 0 bohrs to make symmetries exact.

---------- Initializing the Grid ----------
R = 
[      9.45497     -4.72749            0  ]
[            0      8.18825            0  ]
[            0            0           40  ]
unit cell volume = 3096.79
G =
[   0.664538   0.383671         -0  ]
[          0   0.767342         -0  ]
[         -0         -0    0.15708  ]
Minimum fftbox size, Smin = [  40  40  164  ]
Chosen fftbox size, S = [  40  40  168  ]

---------- Exchange Correlation functional ----------
Initalized PBE GGA exchange.
Initalized PBE GGA correlation.

---------- Setting up pseudopotentials ----------
Width of ionic core gaussian charges (only for fluid interactions / plotting) set to 0

Reading pseudopotential file '/home/gridsan/aligho/DFT/build-Nov24/pseudopotentials/SG15/Rb_ONCV_PBE.upf':
  'Rb' pseudopotential, 'PBE' functional
  Generated using ONCVPSP code by D. R. Hamann
  Author: Martin Schlipf and Francois Gygi  Date: 150915.
  9 valence electrons, 3 orbitals, 6 projectors, 2308 radial grid points, with lMax = 2
  Transforming local potential to a uniform radial grid of dG=0.02 with 1489 points.
  Transforming nonlocal projectors to a uniform radial grid of dG=0.02 with 432 points.
    4S    l: 0   occupation:  2.0   eigenvalue: -1.172069
    4P    l: 1   occupation:  6.0   eigenvalue: -0.586674
    5S    l: 0   occupation:  1.0   eigenvalue: -0.082006
  Transforming atomic orbitals to a uniform radial grid of dG=0.02 with 432 points.
  Core radius for overlap checks: 2.60 bohrs.
  Reading pulay file /home/gridsan/aligho/DFT/build-Nov24/pseudopotentials/SG15/Rb_ONCV_PBE.pulay ... using dE_dnG = -1.360715e-05 computed for Ecut = 20.

Initialized 1 species with 1 total atoms.

Folded 1 k-points by 12x12x1 to 144 k-points.

---------- Setting up k-points, bands, fillings ----------
Reduced to 19 k-points under symmetry. 
Computing the number of bands and number of electrons
Calculating initial fillings.
nElectrons:   9.000000   nBands: 6   nStates: 38

----- Setting up reduced wavefunction bases (one per k-point) -----
average nbasis = 13230.521 , ideal nbasis = 13229.709

---------- Setting up coulomb interaction ----------
Initialized slab truncation along lattice direction 001

---------- Setting up 2D ewald sum ----------
Optimum gaussian width for ewald sums = 5.249020 bohr.
Real space sums over 289 unit cells with max indices [  8  8  0  ]
Reciprocal space sums over 81 terms with max indices [  4  4  0  ]

---------- Allocating electronic variables ----------
Initializing wave functions:  linear combination of atomic orbitals
Note: number of bands (6) exceeds available atomic orbitals (5)
Rb pseudo-atom occupations:   s ( 2 1 )  p ( 6 )
	FillingsUpdate:  mu: -0.093012610  nElectrons: 9.000000  magneticMoment: [ Abs: 0.20000  Tot: -0.20000 ]
LCAOMinimize: Iter:   0  F: -24.4498837556045601  |grad|_K:  4.271e-05  alpha:  1.000e+00
	FillingsUpdate:  mu: -0.092996861  nElectrons: 9.000000  magneticMoment: [ Abs: 0.20000  Tot: -0.20000 ]
LCAOMinimize: Iter:   1  F: -24.4498849724013070  |grad|_K:  4.486e-07  alpha:  9.757e-01  linmin: -3.913e-02  cgtest:  4.793e-01  t[s]:      4.68
LCAOMinimize: Encountered beta<0, resetting CG.
	FillingsUpdate:  mu: -0.092996896  nElectrons: 9.000000  magneticMoment: [ Abs: 0.20000  Tot: -0.20000 ]
LCAOMinimize: Iter:   2  F: -24.4498849725383138  |grad|_K:  1.781e-09  alpha:  9.973e-01  linmin: -1.303e-01  cgtest:  8.976e-01  t[s]:      5.95
LCAOMinimize: Encountered beta<0, resetting CG.
LCAOMinimize: 	Wrong curvature in test step, increasing alphaT to 2.991915e+00.
	FillingsUpdate:  mu: -0.092996896  nElectrons: 9.000000  magneticMoment: [ Abs: 0.20000  Tot: -0.20000 ]
LCAOMinimize: Iter:   3  F: -24.4498849725385980  |grad|_K:  1.491e-11  alpha: -7.689e-03  linmin: -6.405e-03  cgtest:  7.846e-02  t[s]:      7.28
LCAOMinimize: Encountered beta<0, resetting CG.
LCAOMinimize: Converged (|Delta F|<1.000000e-06 for 2 iters).


---- Citations for features of the code used in this run ----

   Software package:
      R. Sundararaman, K. Letchworth-Weaver, K.A. Schwarz, D. Gunceler, Y. Ozhabes and T.A. Arias, 'JDFTx: software for joint density-functional theory', SoftwareX 6, 278 (2017)

   gga-PBE exchange-correlation functional:
      J.P. Perdew, K. Burke and M. Ernzerhof, Phys. Rev. Lett. 77, 3865 (1996)

   Pseudopotentials:
      M Schlipf and F Gygi, Comput. Phys. Commun. 196, 36 (2015)

   Truncated Coulomb potentials:
      R. Sundararaman and T.A. Arias, Phys. Rev. B 87, 165122 (2013)

This list may not be complete. Please suggest additional citations or
report any other bugs at https://github.com/shankar1729/jdftx/issues

Initialization completed successfully at t[s]:      7.38


-------- Electronic minimization -----------
Will mix electronic density at each iteration.
	FillingsUpdate:  mu: -0.092996896  nElectrons: 9.000000  magneticMoment: [ Abs: 0.20000  Tot: -0.20000 ]
	FillingsUpdate:  mu: -0.102603919  nElectrons: 9.000000  magneticMoment: [ Abs: 0.20000  Tot: -0.20000 ]
SCF: Cycle:  0   F: -24.454279050222809   dF: -4.394e-03   |Residual|: 8.925e-03   |deigs|: 1.792e-01  t[s]:      9.85
	FillingsUpdate:  mu: -0.102447276  nElectrons: 9.000000  magneticMoment: [ Abs: 0.20000  Tot: -0.20000 ]
SCF: Cycle:  1   F: -24.454444797664944   dF: -1.657e-04   |Residual|: 6.977e-03   |deigs|: 6.774e-03  t[s]:     11.73
	FillingsUpdate:  mu: -0.100457323  nElectrons: 9.000000  magneticMoment: [ Abs: 0.20339  Tot: -0.20000 ]
SCF: Cycle:  2   F: -24.454536063430137   dF: -9.127e-05   |Residual|: 3.217e-03   |deigs|: 2.461e-03  t[s]:     13.73
	FillingsUpdate:  mu: -0.099392363  nElectrons: 9.000000  magneticMoment: [ Abs: 0.20002  Tot: -0.20000 ]
SCF: Cycle:  3   F: -24.454586300652579   dF: -5.024e-05   |Residual|: 2.174e-03   |deigs|: 2.848e-03  t[s]:     15.64
	FillingsUpdate:  mu: -0.097819782  nElectrons: 9.000000  magneticMoment: [ Abs: 0.20002  Tot: -0.20000 ]
SCF: Cycle:  4   F: -24.454613650131691   dF: -2.735e-05   |Residual|: 1.879e-03   |deigs|: 4.334e-03  t[s]:     17.64
	FillingsUpdate:  mu: -0.096096865  nElectrons: 9.000000  magneticMoment: [ Abs: 0.20227  Tot: -0.20000 ]
SCF: Cycle:  5   F: -24.454627785306258   dF: -1.414e-05   |Residual|: 1.336e-03   |deigs|: 2.672e-03  t[s]:     19.62
	FillingsUpdate:  mu: -0.093963297  nElectrons: 9.000000  magneticMoment: [ Abs: 0.20432  Tot: -0.20000 ]
SCF: Cycle:  6   F: -24.454631509772618   dF: -3.724e-06   |Residual|: 1.014e-03   |deigs|: 2.656e-03  t[s]:     21.61
	FillingsUpdate:  mu: -0.092921455  nElectrons: 9.000000  magneticMoment: [ Abs: 0.20288  Tot: -0.20000 ]
SCF: Cycle:  7   F: -24.454647893143708   dF: -1.638e-05   |Residual|: 9.157e-04   |deigs|: 1.134e-03  t[s]:     23.72
	FillingsUpdate:  mu: -0.092630698  nElectrons: 9.000000  magneticMoment: [ Abs: 0.20081  Tot: -0.20000 ]
SCF: Cycle:  8   F: -24.454656779138091   dF: -8.886e-06   |Residual|: 7.679e-04   |deigs|: 2.724e-04  t[s]:     25.76
	FillingsUpdate:  mu: -0.091097713  nElectrons: 9.000000  magneticMoment: [ Abs: 0.20215  Tot: -0.20000 ]
SCF: Cycle:  9   F: -24.454653151089158   dF: +3.628e-06   |Residual|: 6.441e-04   |deigs|: 1.618e-03  t[s]:     27.87
	FillingsUpdate:  mu: -0.089674904  nElectrons: 9.000000  magneticMoment: [ Abs: 0.20249  Tot: -0.20000 ]
SCF: Cycle: 10   F: -24.454650465178538   dF: +2.686e-06   |Residual|: 5.732e-04   |deigs|: 1.560e-03  t[s]:     30.05
	FillingsUpdate:  mu: -0.088557201  nElectrons: 9.000000  magneticMoment: [ Abs: 0.20168  Tot: -0.20000 ]
SCF: Cycle: 11   F: -24.454659700294066   dF: -9.235e-06   |Residual|: 4.912e-04   |deigs|: 1.189e-03  t[s]:     32.23
	FillingsUpdate:  mu: -0.087429835  nElectrons: 9.000000  magneticMoment: [ Abs: 0.20166  Tot: -0.20000 ]
SCF: Cycle: 12   F: -24.454671549292460   dF: -1.185e-05   |Residual|: 4.793e-04   |deigs|: 1.054e-03  t[s]:     34.35
	FillingsUpdate:  mu: -0.086101120  nElectrons: 9.000000  magneticMoment: [ Abs: 0.20115  Tot: -0.20000 ]
SCF: Cycle: 13   F: -24.454675332703573   dF: -3.783e-06   |Residual|: 4.283e-04   |deigs|: 1.398e-03  t[s]:     36.43
	FillingsUpdate:  mu: -0.084762114  nElectrons: 9.000000  magneticMoment: [ Abs: 0.20040  Tot: -0.20000 ]
SCF: Cycle: 14   F: -24.454679016253152   dF: -3.684e-06   |Residual|: 3.508e-04   |deigs|: 1.428e-03  t[s]:     38.54
	FillingsUpdate:  mu: -0.084405612  nElectrons: 9.000000  magneticMoment: [ Abs: 0.20070  Tot: -0.20000 ]
SCF: Cycle: 15   F: -24.454681177584916   dF: -2.161e-06   |Residual|: 2.503e-04   |deigs|: 3.836e-04  t[s]:     40.64
	FillingsUpdate:  mu: -0.083985873  nElectrons: 9.000000  magneticMoment: [ Abs: 0.20058  Tot: -0.20000 ]
SCF: Cycle: 16   F: -24.454682233050441   dF: -1.055e-06   |Residual|: 1.533e-04   |deigs|: 7.181e-04  t[s]:     42.75
	FillingsUpdate:  mu: -0.083868043  nElectrons: 9.000000  magneticMoment: [ Abs: 0.20019  Tot: -0.20000 ]
SCF: Cycle: 17   F: -24.454682581179128   dF: -3.481e-07   |Residual|: 8.865e-05   |deigs|: 4.675e-04  t[s]:     44.88
	FillingsUpdate:  mu: -0.083903695  nElectrons: 9.000000  magneticMoment: [ Abs: 0.20020  Tot: -0.20000 ]
SCF: Cycle: 18   F: -24.454682677794231   dF: -9.662e-08   |Residual|: 5.429e-05   |deigs|: 2.518e-04  t[s]:     47.00
	FillingsUpdate:  mu: -0.083913295  nElectrons: 9.000000  magneticMoment: [ Abs: 0.20008  Tot: -0.20000 ]
SCF: Cycle: 19   F: -24.454682724228501   dF: -4.643e-08   |Residual|: 2.929e-05   |deigs|: 3.190e-04  t[s]:     49.14
	FillingsUpdate:  mu: -0.083921074  nElectrons: 9.000000  magneticMoment: [ Abs: 0.20004  Tot: -0.20000 ]
SCF: Cycle: 20   F: -24.454682746157072   dF: -2.193e-08   |Residual|: 1.554e-05   |deigs|: 1.336e-04  t[s]:     51.25
	FillingsUpdate:  mu: -0.083904243  nElectrons: 9.000000  magneticMoment: [ Abs: 0.20004  Tot: -0.20000 ]
SCF: Cycle: 21   F: -24.454682752969553   dF: -6.812e-09   |Residual|: 8.423e-06   |deigs|: 1.532e-04  t[s]:     53.34
	FillingsUpdate:  mu: -0.083899228  nElectrons: 9.000000  magneticMoment: [ Abs: 0.20006  Tot: -0.20000 ]
SCF: Cycle: 22   F: -24.454682755973195   dF: -3.004e-09   |Residual|: 4.139e-06   |deigs|: 1.735e-04  t[s]:     55.52
SCF: Converged (|Delta E|<1.000000e-08 for 2 iters).


# Ionic positions in lattice coordinates:
ion Rb   0.000000000000000   0.000000000000000   0.000000000000000 0

# Forces in Lattice coordinates:
force Rb  -0.000000000000000   0.000000000000000   0.000000000000000 0

# Energy components:
   Eewald =      -18.0480261003326561
       EH =        1.6465107756032835
     Eloc =      -10.5580777949361995
      Enl =       -0.7957766892856790
   Epulay =        0.0000000035676145
      Exc =       -3.6760838583291893
       KE =        6.9767714191998591
-------------------------------------
     Etot =      -24.4546822445129663
       TS =        0.0000005114602277
-------------------------------------
        F =      -24.4546827559731952

IonicMinimize: Iter:   0  F: -24.454682755973195  |grad|_K:  0.000e+00  t[s]:     55.66
IonicMinimize: Converged (|grad|_K<1.000000e-04).

#--- Lowdin population analysis ---
# oxidation-state Rb +0.036
# magnetic-moments Rb -0.182

End date and time: Sun Feb  6 12:42:24 2022  (Duration: 0-0:00:55.69)
Done!
