
*************** JDFTx 1.6.0 (git hash 42ebbcc2) ***************

Start date and time: Sun Feb  6 12:47:35 2022
Executable jdftx with command-line: -i Alkali.in
Running on hosts (process indices):  d-17-2-2 (0-18)
Divided in process groups (process indices):  0 (0)  1 (1)  2 (2)  3 (3)  4 (4)  5 (5)  6 (6)  7 (7)  8 (8)  9 (9)  10 (10)  11 (11)  12 (12)  13 (13)  14 (14)  15 (15)  16 (16)  17 (17)  18 (18)
Resource initialization completed at t[s]:      0.00
Run totals: 19 processes, 48 threads, 0 GPUs


Input parsed successfully to the following command list (including defaults):

basis kpoint-dependent
coords-type Lattice
core-overlap-check vector
coulomb-interaction Slab 001
davidson-band-ratio 1.1
dump End None
dump-name $INPUT.$VAR
elec-cutoff 20
elec-eigen-algo Davidson
elec-ex-corr gga-PBE
elec-initial-magnetization 0.140000 yes
elec-smearing Fermi 1e-05
electronic-minimize  \
	dirUpdateScheme      FletcherReeves \
	linminMethod         DirUpdateRecommended \
	nIterations          100 \
	history              15 \
	knormThreshold       0 \
	energyDiffThreshold  1e-08 \
	nEnergyDiff          2 \
	alphaTstart          1 \
	alphaTmin            1e-10 \
	updateTestStepSize   yes \
	alphaTreduceFactor   0.1 \
	alphaTincreaseFactor 3 \
	nAlphaAdjustMax      3 \
	wolfeEnergy          0.0001 \
	wolfeGradient        0.9 \
	fdTest               no
electronic-scf  \
	nIterations	10000 \
	energyDiffThreshold	1e-08 \
	residualThreshold	1e-07 \
	mixFraction	0.5 \
	qMetric	0.8 \
	history	10 \
	nEigSteps	2 \
	eigDiffThreshold	1e-08 \
	mixedVariable	Density \
	qKerker	0.8 \
	qKappa	-1 \
	verbose	no \
	mixFractionMag	1.5
exchange-regularization WignerSeitzTruncated
fluid None
fluid-ex-corr (null) lda-PZ
fluid-gummel-loop 10 1.000000e-05
fluid-minimize  \
	dirUpdateScheme      PolakRibiere \
	linminMethod         DirUpdateRecommended \
	nIterations          100 \
	history              15 \
	knormThreshold       0 \
	energyDiffThreshold  0 \
	nEnergyDiff          2 \
	alphaTstart          1 \
	alphaTmin            1e-10 \
	updateTestStepSize   yes \
	alphaTreduceFactor   0.1 \
	alphaTincreaseFactor 3 \
	nAlphaAdjustMax      3 \
	wolfeEnergy          0.0001 \
	wolfeGradient        0.9 \
	fdTest               no
fluid-solvent H2O 55.338 ScalarEOS \
	epsBulk 78.4 \
	pMol 0.92466 \
	epsInf 1.77 \
	Pvap 1.06736e-10 \
	sigmaBulk 4.62e-05 \
	Rvdw 2.61727 \
	Res 1.42 \
	tauNuc 343133 \
	poleEl 15 7 1
forces-output-coords Positions
ion Rb   0.000000000000000   0.000000000000000   0.000000000000000 0
ion-species SG15/$ID_ONCV_PBE.upf
ion-width 0
ionic-minimize  \
	dirUpdateScheme      L-BFGS \
	linminMethod         DirUpdateRecommended \
	nIterations          0 \
	history              15 \
	knormThreshold       0.0001 \
	energyDiffThreshold  1e-06 \
	nEnergyDiff          2 \
	alphaTstart          1 \
	alphaTmin            1e-10 \
	updateTestStepSize   yes \
	alphaTreduceFactor   0.1 \
	alphaTincreaseFactor 3 \
	nAlphaAdjustMax      3 \
	wolfeEnergy          0.0001 \
	wolfeGradient        0.9 \
	fdTest               no
kpoint   0.000000000000   0.000000000000   0.000000000000  1.00000000000000
kpoint-folding 12 12 1 
latt-move-scale 1 1 1
latt-scale 2 2 1 
lattice  \
	   4.727486978767153   -2.363743489383575    0.000000000000000  \
	  -0.000000000000000    4.094123819672498    0.000000000000000  \
	   0.000000000000000    0.000000000000000   40.000000000000000 
lattice-minimize  \
	dirUpdateScheme      L-BFGS \
	linminMethod         DirUpdateRecommended \
	nIterations          0 \
	history              15 \
	knormThreshold       0 \
	energyDiffThreshold  1e-06 \
	nEnergyDiff          2 \
	alphaTstart          1 \
	alphaTmin            1e-10 \
	updateTestStepSize   yes \
	alphaTreduceFactor   0.1 \
	alphaTincreaseFactor 3 \
	nAlphaAdjustMax      3 \
	wolfeEnergy          0.0001 \
	wolfeGradient        0.9 \
	fdTest               no
lcao-params -1 1e-06 1e-05
pcm-variant GLSSA13
spintype z-spin
subspace-rotation-factor 1 yes
symmetries automatic
symmetry-threshold 0.0001



---------- Setting up symmetries ----------

Found 24 point-group symmetries of the bravais lattice
Found 24 space-group symmetries with basis
Applied RMS atom displacement 0 bohrs to make symmetries exact.

---------- Initializing the Grid ----------
R = 
[      9.45497     -4.72749            0  ]
[            0      8.18825            0  ]
[            0            0           40  ]
unit cell volume = 3096.79
G =
[   0.664538   0.383671         -0  ]
[          0   0.767342         -0  ]
[         -0         -0    0.15708  ]
Minimum fftbox size, Smin = [  40  40  164  ]
Chosen fftbox size, S = [  40  40  168  ]

---------- Exchange Correlation functional ----------
Initalized PBE GGA exchange.
Initalized PBE GGA correlation.

---------- Setting up pseudopotentials ----------
Width of ionic core gaussian charges (only for fluid interactions / plotting) set to 0

Reading pseudopotential file '/home/gridsan/aligho/DFT/build-Nov24/pseudopotentials/SG15/Rb_ONCV_PBE.upf':
  'Rb' pseudopotential, 'PBE' functional
  Generated using ONCVPSP code by D. R. Hamann
  Author: Martin Schlipf and Francois Gygi  Date: 150915.
  9 valence electrons, 3 orbitals, 6 projectors, 2308 radial grid points, with lMax = 2
  Transforming local potential to a uniform radial grid of dG=0.02 with 1489 points.
  Transforming nonlocal projectors to a uniform radial grid of dG=0.02 with 432 points.
    4S    l: 0   occupation:  2.0   eigenvalue: -1.172069
    4P    l: 1   occupation:  6.0   eigenvalue: -0.586674
    5S    l: 0   occupation:  1.0   eigenvalue: -0.082006
  Transforming atomic orbitals to a uniform radial grid of dG=0.02 with 432 points.
  Core radius for overlap checks: 2.60 bohrs.
  Reading pulay file /home/gridsan/aligho/DFT/build-Nov24/pseudopotentials/SG15/Rb_ONCV_PBE.pulay ... using dE_dnG = -1.360715e-05 computed for Ecut = 20.

Initialized 1 species with 1 total atoms.

Folded 1 k-points by 12x12x1 to 144 k-points.

---------- Setting up k-points, bands, fillings ----------
Reduced to 19 k-points under symmetry. 
Computing the number of bands and number of electrons
Calculating initial fillings.
nElectrons:   9.000000   nBands: 6   nStates: 38

----- Setting up reduced wavefunction bases (one per k-point) -----
average nbasis = 13230.521 , ideal nbasis = 13229.709

---------- Setting up coulomb interaction ----------
Initialized slab truncation along lattice direction 001

---------- Setting up 2D ewald sum ----------
Optimum gaussian width for ewald sums = 5.249020 bohr.
Real space sums over 289 unit cells with max indices [  8  8  0  ]
Reciprocal space sums over 81 terms with max indices [  4  4  0  ]

---------- Allocating electronic variables ----------
Initializing wave functions:  linear combination of atomic orbitals
Note: number of bands (6) exceeds available atomic orbitals (5)
Rb pseudo-atom occupations:   s ( 2 1 )  p ( 6 )
	FillingsUpdate:  mu: -0.094166490  nElectrons: 9.000000  magneticMoment: [ Abs: 0.14000  Tot: +0.14000 ]
LCAOMinimize: Iter:   0  F: -24.4502806762179254  |grad|_K:  4.433e-05  alpha:  1.000e+00
	FillingsUpdate:  mu: -0.094152537  nElectrons: 9.000000  magneticMoment: [ Abs: 0.14000  Tot: +0.14000 ]
LCAOMinimize: Iter:   1  F: -24.4502819885089160  |grad|_K:  5.042e-07  alpha:  9.767e-01  linmin: -3.634e-02  cgtest:  4.476e-01  t[s]:      4.59
LCAOMinimize: Encountered beta<0, resetting CG.
	FillingsUpdate:  mu: -0.094152647  nElectrons: 9.000000  magneticMoment: [ Abs: 0.14000  Tot: +0.14000 ]
LCAOMinimize: Iter:   2  F: -24.4502819886836456  |grad|_K:  1.322e-09  alpha:  1.004e+00  linmin:  1.823e-01  cgtest: -9.558e-01  t[s]:      5.80
LCAOMinimize: 	Step increased F by 4.973799e-14, reducing alpha to 3.278807e-05.
LCAOMinimize: 	Step increased F by 9.947598e-14, reducing alpha to 3.278807e-06.
LCAOMinimize: 	Step increased F by 7.105427e-15, reducing alpha to 3.278807e-07.
LCAOMinimize: 	Step failed to reduce F after 3 attempts. Quitting step.
LCAOMinimize: 	Undoing step.
LCAOMinimize: 	Step failed: resetting search direction.
	FillingsUpdate:  mu: -0.094152647  nElectrons: 9.000000  magneticMoment: [ Abs: 0.14000  Tot: +0.14000 ]
LCAOMinimize: Iter:   3  F: -24.4502819886836420  |grad|_K:  1.322e-09  alpha:  3.279e-07
LCAOMinimize: 	Step increased F by 2.842171e-14, reducing alpha to 9.419577e-04.
LCAOMinimize: 	Step increased F by 1.030287e-13, reducing alpha to 9.419577e-05.
LCAOMinimize: 	Step increased F by 2.096101e-13, reducing alpha to 9.419577e-06.
LCAOMinimize: 	Step failed to reduce F after 3 attempts. Quitting step.
LCAOMinimize: 	Undoing step.
LCAOMinimize: 	Step failed along negative gradient direction.
LCAOMinimize: Probably at roundoff error limit. (Stopping)


---- Citations for features of the code used in this run ----

   Software package:
      R. Sundararaman, K. Letchworth-Weaver, K.A. Schwarz, D. Gunceler, Y. Ozhabes and T.A. Arias, 'JDFTx: software for joint density-functional theory', SoftwareX 6, 278 (2017)

   gga-PBE exchange-correlation functional:
      J.P. Perdew, K. Burke and M. Ernzerhof, Phys. Rev. Lett. 77, 3865 (1996)

   Pseudopotentials:
      M Schlipf and F Gygi, Comput. Phys. Commun. 196, 36 (2015)

   Truncated Coulomb potentials:
      R. Sundararaman and T.A. Arias, Phys. Rev. B 87, 165122 (2013)

This list may not be complete. Please suggest additional citations or
report any other bugs at https://github.com/shankar1729/jdftx/issues

Initialization completed successfully at t[s]:     12.48


-------- Electronic minimization -----------
Will mix electronic density at each iteration.
	FillingsUpdate:  mu: -0.094152647  nElectrons: 9.000000  magneticMoment: [ Abs: 0.14000  Tot: +0.14000 ]
	FillingsUpdate:  mu: -0.103086309  nElectrons: 9.000000  magneticMoment: [ Abs: 0.14000  Tot: +0.14000 ]
SCF: Cycle:  0   F: -24.454484563088645   dF: -4.203e-03   |Residual|: 8.685e-03   |deigs|: 1.791e-01  t[s]:     14.92
	FillingsUpdate:  mu: -0.102854128  nElectrons: 9.000000  magneticMoment: [ Abs: 0.14000  Tot: +0.14000 ]
SCF: Cycle:  1   F: -24.454636248495859   dF: -1.517e-04   |Residual|: 6.916e-03   |deigs|: 6.595e-03  t[s]:     16.80
	FillingsUpdate:  mu: -0.100578838  nElectrons: 9.000000  magneticMoment: [ Abs: 0.14357  Tot: +0.14000 ]
SCF: Cycle:  2   F: -24.454730886401855   dF: -9.464e-05   |Residual|: 3.019e-03   |deigs|: 2.816e-03  t[s]:     18.68
	FillingsUpdate:  mu: -0.099651775  nElectrons: 9.000000  magneticMoment: [ Abs: 0.14000  Tot: +0.14000 ]
SCF: Cycle:  3   F: -24.454783369744003   dF: -5.248e-05   |Residual|: 2.081e-03   |deigs|: 2.880e-03  t[s]:     20.57
	FillingsUpdate:  mu: -0.098154312  nElectrons: 9.000000  magneticMoment: [ Abs: 0.14011  Tot: +0.14000 ]
SCF: Cycle:  4   F: -24.454809646057520   dF: -2.628e-05   |Residual|: 1.782e-03   |deigs|: 3.731e-03  t[s]:     22.49
	FillingsUpdate:  mu: -0.096202277  nElectrons: 9.000000  magneticMoment: [ Abs: 0.14206  Tot: +0.14000 ]
SCF: Cycle:  5   F: -24.454823013669021   dF: -1.337e-05   |Residual|: 1.344e-03   |deigs|: 3.040e-03  t[s]:     24.45
	FillingsUpdate:  mu: -0.094184804  nElectrons: 9.000000  magneticMoment: [ Abs: 0.14349  Tot: +0.14000 ]
SCF: Cycle:  6   F: -24.454830195364000   dF: -7.182e-06   |Residual|: 1.011e-03   |deigs|: 3.019e-03  t[s]:     26.47
	FillingsUpdate:  mu: -0.093451801  nElectrons: 9.000000  magneticMoment: [ Abs: 0.14193  Tot: +0.14000 ]
SCF: Cycle:  7   F: -24.454845418431329   dF: -1.522e-05   |Residual|: 8.585e-04   |deigs|: 7.991e-04  t[s]:     28.52
	FillingsUpdate:  mu: -0.092616135  nElectrons: 9.000000  magneticMoment: [ Abs: 0.14097  Tot: +0.14000 ]
SCF: Cycle:  8   F: -24.454854793374235   dF: -9.375e-06   |Residual|: 6.997e-04   |deigs|: 6.861e-04  t[s]:     30.53
	FillingsUpdate:  mu: -0.091224099  nElectrons: 9.000000  magneticMoment: [ Abs: 0.14182  Tot: +0.14000 ]
SCF: Cycle:  9   F: -24.454847019788790   dF: +7.774e-06   |Residual|: 6.113e-04   |deigs|: 1.487e-03  t[s]:     32.53
	FillingsUpdate:  mu: -0.089628516  nElectrons: 9.000000  magneticMoment: [ Abs: 0.14191  Tot: +0.14000 ]
SCF: Cycle: 10   F: -24.454847290795421   dF: -2.710e-07   |Residual|: 5.732e-04   |deigs|: 1.824e-03  t[s]:     34.57
	FillingsUpdate:  mu: -0.089021806  nElectrons: 9.000000  magneticMoment: [ Abs: 0.14083  Tot: +0.14000 ]
SCF: Cycle: 11   F: -24.454858437381745   dF: -1.115e-05   |Residual|: 4.882e-04   |deigs|: 6.196e-04  t[s]:     36.67
	FillingsUpdate:  mu: -0.087898542  nElectrons: 9.000000  magneticMoment: [ Abs: 0.14175  Tot: +0.14000 ]
SCF: Cycle: 12   F: -24.454868171400047   dF: -9.734e-06   |Residual|: 4.862e-04   |deigs|: 1.023e-03  t[s]:     38.68
	FillingsUpdate:  mu: -0.086444087  nElectrons: 9.000000  magneticMoment: [ Abs: 0.14130  Tot: +0.14000 ]
SCF: Cycle: 13   F: -24.454871650709595   dF: -3.479e-06   |Residual|: 4.289e-04   |deigs|: 1.563e-03  t[s]:     40.55
	FillingsUpdate:  mu: -0.085669822  nElectrons: 9.000000  magneticMoment: [ Abs: 0.14049  Tot: +0.14000 ]
SCF: Cycle: 14   F: -24.454874776557148   dF: -3.126e-06   |Residual|: 3.547e-04   |deigs|: 8.181e-04  t[s]:     42.60
	FillingsUpdate:  mu: -0.084979599  nElectrons: 9.000000  magneticMoment: [ Abs: 0.14044  Tot: +0.14000 ]
SCF: Cycle: 15   F: -24.454877554787796   dF: -2.778e-06   |Residual|: 2.416e-04   |deigs|: 7.511e-04  t[s]:     44.73
	FillingsUpdate:  mu: -0.084561444  nElectrons: 9.000000  magneticMoment: [ Abs: 0.14027  Tot: +0.14000 ]
SCF: Cycle: 16   F: -24.454878427051785   dF: -8.723e-07   |Residual|: 1.662e-04   |deigs|: 1.301e-03  t[s]:     46.82
	FillingsUpdate:  mu: -0.084422345  nElectrons: 9.000000  magneticMoment: [ Abs: 0.14003  Tot: +0.14000 ]
SCF: Cycle: 17   F: -24.454878747304754   dF: -3.203e-07   |Residual|: 9.835e-05   |deigs|: 4.892e-04  t[s]:     48.88
	FillingsUpdate:  mu: -0.084408333  nElectrons: 9.000000  magneticMoment: [ Abs: 0.14010  Tot: +0.14000 ]
SCF: Cycle: 18   F: -24.454878849926221   dF: -1.026e-07   |Residual|: 5.242e-05   |deigs|: 4.351e-04  t[s]:     50.99
	FillingsUpdate:  mu: -0.084420489  nElectrons: 9.000000  magneticMoment: [ Abs: 0.14009  Tot: +0.14000 ]
SCF: Cycle: 19   F: -24.454878892840668   dF: -4.291e-08   |Residual|: 2.462e-05   |deigs|: 2.351e-04  t[s]:     53.10
	FillingsUpdate:  mu: -0.084445771  nElectrons: 9.000000  magneticMoment: [ Abs: 0.14006  Tot: +0.14000 ]
SCF: Cycle: 20   F: -24.454878904874828   dF: -1.203e-08   |Residual|: 1.598e-05   |deigs|: 1.588e-04  t[s]:     55.14
	FillingsUpdate:  mu: -0.084435948  nElectrons: 9.000000  magneticMoment: [ Abs: 0.14005  Tot: +0.14000 ]
SCF: Cycle: 21   F: -24.454878911996655   dF: -7.122e-09   |Residual|: 8.189e-06   |deigs|: 9.646e-05  t[s]:     57.19
	FillingsUpdate:  mu: -0.084427330  nElectrons: 9.000000  magneticMoment: [ Abs: 0.14006  Tot: +0.14000 ]
SCF: Cycle: 22   F: -24.454878915479878   dF: -3.483e-09   |Residual|: 4.066e-06   |deigs|: 6.392e-05  t[s]:     59.25
SCF: Converged (|Delta E|<1.000000e-08 for 2 iters).


# Ionic positions in lattice coordinates:
ion Rb   0.000000000000000   0.000000000000000   0.000000000000000 0

# Forces in Lattice coordinates:
force Rb   0.000000000000000   0.000000000000000   0.000000000000000 0

# Energy components:
   Eewald =      -18.0480261003326561
       EH =        1.6452971576785760
     Eloc =      -10.5568612193630003
      Enl =       -0.7956877776724702
   Epulay =        0.0000000035676145
      Exc =       -3.6758508196960378
       KE =        6.9762505282077507
-------------------------------------
     Etot =      -24.4548782276102230
       TS =        0.0000006878696540
-------------------------------------
        F =      -24.4548789154798776

IonicMinimize: Iter:   0  F: -24.454878915479878  |grad|_K:  0.000e+00  t[s]:     59.37
IonicMinimize: Converged (|grad|_K<1.000000e-04).

#--- Lowdin population analysis ---
# oxidation-state Rb +0.034
# magnetic-moments Rb +0.127

End date and time: Sun Feb  6 12:48:35 2022  (Duration: 0-0:00:59.39)
Done!
