
*************** JDFTx 1.6.0 (git hash 42ebbcc2) ***************

Start date and time: Sun Feb  6 12:54:16 2022
Executable jdftx with command-line: -i Alkali.in
Running on hosts (process indices):  d-4-7-2 (0-18)
Divided in process groups (process indices):  0 (0)  1 (1)  2 (2)  3 (3)  4 (4)  5 (5)  6 (6)  7 (7)  8 (8)  9 (9)  10 (10)  11 (11)  12 (12)  13 (13)  14 (14)  15 (15)  16 (16)  17 (17)  18 (18)
Resource initialization completed at t[s]:      0.00
Run totals: 19 processes, 48 threads, 0 GPUs


Input parsed successfully to the following command list (including defaults):

basis kpoint-dependent
coords-type Lattice
core-overlap-check vector
coulomb-interaction Slab 001
davidson-band-ratio 1.1
dump End None
dump-name $INPUT.$VAR
elec-cutoff 20
elec-eigen-algo Davidson
elec-ex-corr gga-PBE
elec-initial-magnetization 0.580000 yes
elec-smearing Fermi 1e-05
electronic-minimize  \
	dirUpdateScheme      FletcherReeves \
	linminMethod         DirUpdateRecommended \
	nIterations          100 \
	history              15 \
	knormThreshold       0 \
	energyDiffThreshold  1e-08 \
	nEnergyDiff          2 \
	alphaTstart          1 \
	alphaTmin            1e-10 \
	updateTestStepSize   yes \
	alphaTreduceFactor   0.1 \
	alphaTincreaseFactor 3 \
	nAlphaAdjustMax      3 \
	wolfeEnergy          0.0001 \
	wolfeGradient        0.9 \
	fdTest               no
electronic-scf  \
	nIterations	10000 \
	energyDiffThreshold	1e-08 \
	residualThreshold	1e-07 \
	mixFraction	0.5 \
	qMetric	0.8 \
	history	10 \
	nEigSteps	2 \
	eigDiffThreshold	1e-08 \
	mixedVariable	Density \
	qKerker	0.8 \
	qKappa	-1 \
	verbose	no \
	mixFractionMag	1.5
exchange-regularization WignerSeitzTruncated
fluid None
fluid-ex-corr (null) lda-PZ
fluid-gummel-loop 10 1.000000e-05
fluid-minimize  \
	dirUpdateScheme      PolakRibiere \
	linminMethod         DirUpdateRecommended \
	nIterations          100 \
	history              15 \
	knormThreshold       0 \
	energyDiffThreshold  0 \
	nEnergyDiff          2 \
	alphaTstart          1 \
	alphaTmin            1e-10 \
	updateTestStepSize   yes \
	alphaTreduceFactor   0.1 \
	alphaTincreaseFactor 3 \
	nAlphaAdjustMax      3 \
	wolfeEnergy          0.0001 \
	wolfeGradient        0.9 \
	fdTest               no
fluid-solvent H2O 55.338 ScalarEOS \
	epsBulk 78.4 \
	pMol 0.92466 \
	epsInf 1.77 \
	Pvap 1.06736e-10 \
	sigmaBulk 4.62e-05 \
	Rvdw 2.61727 \
	Res 1.42 \
	tauNuc 343133 \
	poleEl 15 7 1
forces-output-coords Positions
ion Rb   0.000000000000000   0.000000000000000   0.000000000000000 0
ion-species SG15/$ID_ONCV_PBE.upf
ion-width 0
ionic-minimize  \
	dirUpdateScheme      L-BFGS \
	linminMethod         DirUpdateRecommended \
	nIterations          0 \
	history              15 \
	knormThreshold       0.0001 \
	energyDiffThreshold  1e-06 \
	nEnergyDiff          2 \
	alphaTstart          1 \
	alphaTmin            1e-10 \
	updateTestStepSize   yes \
	alphaTreduceFactor   0.1 \
	alphaTincreaseFactor 3 \
	nAlphaAdjustMax      3 \
	wolfeEnergy          0.0001 \
	wolfeGradient        0.9 \
	fdTest               no
kpoint   0.000000000000   0.000000000000   0.000000000000  1.00000000000000
kpoint-folding 12 12 1 
latt-move-scale 1 1 1
latt-scale 2 2 1 
lattice  \
	   4.727486978767153   -2.363743489383575    0.000000000000000  \
	  -0.000000000000000    4.094123819672498    0.000000000000000  \
	   0.000000000000000    0.000000000000000   40.000000000000000 
lattice-minimize  \
	dirUpdateScheme      L-BFGS \
	linminMethod         DirUpdateRecommended \
	nIterations          0 \
	history              15 \
	knormThreshold       0 \
	energyDiffThreshold  1e-06 \
	nEnergyDiff          2 \
	alphaTstart          1 \
	alphaTmin            1e-10 \
	updateTestStepSize   yes \
	alphaTreduceFactor   0.1 \
	alphaTincreaseFactor 3 \
	nAlphaAdjustMax      3 \
	wolfeEnergy          0.0001 \
	wolfeGradient        0.9 \
	fdTest               no
lcao-params -1 1e-06 1e-05
pcm-variant GLSSA13
spintype z-spin
subspace-rotation-factor 1 yes
symmetries automatic
symmetry-threshold 0.0001



---------- Setting up symmetries ----------

Found 24 point-group symmetries of the bravais lattice
Found 24 space-group symmetries with basis
Applied RMS atom displacement 0 bohrs to make symmetries exact.

---------- Initializing the Grid ----------
R = 
[      9.45497     -4.72749            0  ]
[            0      8.18825            0  ]
[            0            0           40  ]
unit cell volume = 3096.79
G =
[   0.664538   0.383671         -0  ]
[          0   0.767342         -0  ]
[         -0         -0    0.15708  ]
Minimum fftbox size, Smin = [  40  40  164  ]
Chosen fftbox size, S = [  40  40  168  ]

---------- Exchange Correlation functional ----------
Initalized PBE GGA exchange.
Initalized PBE GGA correlation.

---------- Setting up pseudopotentials ----------
Width of ionic core gaussian charges (only for fluid interactions / plotting) set to 0

Reading pseudopotential file '/home/gridsan/aligho/DFT/build-Nov24/pseudopotentials/SG15/Rb_ONCV_PBE.upf':
  'Rb' pseudopotential, 'PBE' functional
  Generated using ONCVPSP code by D. R. Hamann
  Author: Martin Schlipf and Francois Gygi  Date: 150915.
  9 valence electrons, 3 orbitals, 6 projectors, 2308 radial grid points, with lMax = 2
  Transforming local potential to a uniform radial grid of dG=0.02 with 1489 points.
  Transforming nonlocal projectors to a uniform radial grid of dG=0.02 with 432 points.
    4S    l: 0   occupation:  2.0   eigenvalue: -1.172069
    4P    l: 1   occupation:  6.0   eigenvalue: -0.586674
    5S    l: 0   occupation:  1.0   eigenvalue: -0.082006
  Transforming atomic orbitals to a uniform radial grid of dG=0.02 with 432 points.
  Core radius for overlap checks: 2.60 bohrs.
  Reading pulay file /home/gridsan/aligho/DFT/build-Nov24/pseudopotentials/SG15/Rb_ONCV_PBE.pulay ... using dE_dnG = -1.360715e-05 computed for Ecut = 20.

Initialized 1 species with 1 total atoms.

Folded 1 k-points by 12x12x1 to 144 k-points.

---------- Setting up k-points, bands, fillings ----------
Reduced to 19 k-points under symmetry. 
Computing the number of bands and number of electrons
Calculating initial fillings.
nElectrons:   9.000000   nBands: 6   nStates: 38

----- Setting up reduced wavefunction bases (one per k-point) -----
average nbasis = 13230.521 , ideal nbasis = 13229.709

---------- Setting up coulomb interaction ----------
Initialized slab truncation along lattice direction 001

---------- Setting up 2D ewald sum ----------
Optimum gaussian width for ewald sums = 5.249020 bohr.
Real space sums over 289 unit cells with max indices [  8  8  0  ]
Reciprocal space sums over 81 terms with max indices [  4  4  0  ]

---------- Allocating electronic variables ----------
Initializing wave functions:  linear combination of atomic orbitals
Note: number of bands (6) exceeds available atomic orbitals (5)
Rb pseudo-atom occupations:   s ( 2 1 )  p ( 6 )
	FillingsUpdate:  mu: -0.096547745  nElectrons: 9.000000  magneticMoment: [ Abs: 0.58000  Tot: +0.58000 ]
LCAOMinimize: Iter:   0  F: -24.4425079051228025  |grad|_K:  2.795e-05  alpha:  1.000e+00
	FillingsUpdate:  mu: -0.096537899  nElectrons: 9.000000  magneticMoment: [ Abs: 0.58000  Tot: +0.58000 ]
LCAOMinimize: Iter:   1  F: -24.4425084282993161  |grad|_K:  2.873e-07  alpha:  9.791e-01  linmin: -2.387e-02  cgtest:  3.095e-01  t[s]:      4.56
LCAOMinimize: Encountered beta<0, resetting CG.
	FillingsUpdate:  mu: -0.096537957  nElectrons: 9.000000  magneticMoment: [ Abs: 0.58000  Tot: +0.58000 ]
LCAOMinimize: Iter:   2  F: -24.4425084283566889  |grad|_K:  3.280e-09  alpha:  1.012e+00  linmin:  1.182e-01  cgtest: -9.371e-01  t[s]:      5.76
LCAOMinimize: Converged (|Delta F|<1.000000e-06 for 2 iters).


---- Citations for features of the code used in this run ----

   Software package:
      R. Sundararaman, K. Letchworth-Weaver, K.A. Schwarz, D. Gunceler, Y. Ozhabes and T.A. Arias, 'JDFTx: software for joint density-functional theory', SoftwareX 6, 278 (2017)

   gga-PBE exchange-correlation functional:
      J.P. Perdew, K. Burke and M. Ernzerhof, Phys. Rev. Lett. 77, 3865 (1996)

   Pseudopotentials:
      M Schlipf and F Gygi, Comput. Phys. Commun. 196, 36 (2015)

   Truncated Coulomb potentials:
      R. Sundararaman and T.A. Arias, Phys. Rev. B 87, 165122 (2013)

This list may not be complete. Please suggest additional citations or
report any other bugs at https://github.com/shankar1729/jdftx/issues

Initialization completed successfully at t[s]:      5.85


-------- Electronic minimization -----------
Will mix electronic density at each iteration.
	FillingsUpdate:  mu: -0.096537957  nElectrons: 9.000000  magneticMoment: [ Abs: 0.58000  Tot: +0.58000 ]
	FillingsUpdate:  mu: -0.106801619  nElectrons: 9.000000  magneticMoment: [ Abs: 0.58000  Tot: +0.58000 ]
SCF: Cycle:  0   F: -24.449898381743484   dF: -7.390e-03   |Residual|: 1.248e-02   |deigs|: 1.784e-01  t[s]:      8.31
	FillingsUpdate:  mu: -0.106751382  nElectrons: 9.000000  magneticMoment: [ Abs: 0.58000  Tot: +0.58000 ]
SCF: Cycle:  1   F: -24.450219456168572   dF: -3.211e-04   |Residual|: 8.919e-03   |deigs|: 6.907e-03  t[s]:     10.13
	FillingsUpdate:  mu: -0.105292825  nElectrons: 9.000000  magneticMoment: [ Abs: 0.58268  Tot: +0.58000 ]
SCF: Cycle:  2   F: -24.450343130603564   dF: -1.237e-04   |Residual|: 5.227e-03   |deigs|: 2.643e-03  t[s]:     12.09
	FillingsUpdate:  mu: -0.104144645  nElectrons: 9.000000  magneticMoment: [ Abs: 0.58007  Tot: +0.58000 ]
SCF: Cycle:  3   F: -24.450418847066636   dF: -7.572e-05   |Residual|: 3.221e-03   |deigs|: 1.496e-03  t[s]:     13.95
	FillingsUpdate:  mu: -0.102305352  nElectrons: 9.000000  magneticMoment: [ Abs: 0.58007  Tot: +0.58000 ]
SCF: Cycle:  4   F: -24.450465012582264   dF: -4.617e-05   |Residual|: 2.207e-03   |deigs|: 2.000e-03  t[s]:     15.87
	FillingsUpdate:  mu: -0.100787102  nElectrons: 9.000000  magneticMoment: [ Abs: 0.58095  Tot: +0.58000 ]
SCF: Cycle:  5   F: -24.450485439460497   dF: -2.043e-05   |Residual|: 1.666e-03   |deigs|: 3.489e-03  t[s]:     17.79
	FillingsUpdate:  mu: -0.098361909  nElectrons: 9.000000  magneticMoment: [ Abs: 0.58700  Tot: +0.58000 ]
SCF: Cycle:  6   F: -24.450484508547778   dF: +9.309e-07   |Residual|: 1.244e-03   |deigs|: 3.082e-03  t[s]:     19.77
	FillingsUpdate:  mu: -0.095987375  nElectrons: 9.000000  magneticMoment: [ Abs: 0.58818  Tot: +0.58000 ]
SCF: Cycle:  7   F: -24.450505697860368   dF: -2.119e-05   |Residual|: 1.147e-03   |deigs|: 2.957e-03  t[s]:     21.75
	FillingsUpdate:  mu: -0.096313002  nElectrons: 9.000000  magneticMoment: [ Abs: 0.58136  Tot: +0.58000 ]
SCF: Cycle:  8   F: -24.450519074723982   dF: -1.338e-05   |Residual|: 8.951e-04   |deigs|: 2.031e-03  t[s]:     23.78
	FillingsUpdate:  mu: -0.095026193  nElectrons: 9.000000  magneticMoment: [ Abs: 0.58256  Tot: +0.58000 ]
SCF: Cycle:  9   F: -24.450522405800829   dF: -3.331e-06   |Residual|: 7.136e-04   |deigs|: 1.448e-03  t[s]:     25.79
	FillingsUpdate:  mu: -0.093614495  nElectrons: 9.000000  magneticMoment: [ Abs: 0.58445  Tot: +0.58000 ]
SCF: Cycle: 10   F: -24.450524374043386   dF: -1.968e-06   |Residual|: 6.083e-04   |deigs|: 1.463e-03  t[s]:     27.83
	FillingsUpdate:  mu: -0.092759642  nElectrons: 9.000000  magneticMoment: [ Abs: 0.58362  Tot: +0.58000 ]
SCF: Cycle: 11   F: -24.450525387437931   dF: -1.013e-06   |Residual|: 5.662e-04   |deigs|: 9.248e-04  t[s]:     29.88
	FillingsUpdate:  mu: -0.091559837  nElectrons: 9.000000  magneticMoment: [ Abs: 0.58391  Tot: +0.58000 ]
SCF: Cycle: 12   F: -24.450533926880350   dF: -8.539e-06   |Residual|: 5.002e-04   |deigs|: 1.192e-03  t[s]:     31.99
	FillingsUpdate:  mu: -0.089785949  nElectrons: 9.000000  magneticMoment: [ Abs: 0.58517  Tot: +0.58000 ]
SCF: Cycle: 13   F: -24.450541706865732   dF: -7.780e-06   |Residual|: 4.509e-04   |deigs|: 1.782e-03  t[s]:     34.04
	FillingsUpdate:  mu: -0.088615062  nElectrons: 9.000000  magneticMoment: [ Abs: 0.58313  Tot: +0.58000 ]
SCF: Cycle: 14   F: -24.450545457922015   dF: -3.751e-06   |Residual|: 4.123e-04   |deigs|: 1.212e-03  t[s]:     36.12
	FillingsUpdate:  mu: -0.087313096  nElectrons: 9.000000  magneticMoment: [ Abs: 0.58102  Tot: +0.58000 ]
SCF: Cycle: 15   F: -24.450548736435085   dF: -3.279e-06   |Residual|: 3.074e-04   |deigs|: 1.394e-03  t[s]:     38.26
	FillingsUpdate:  mu: -0.086978250  nElectrons: 9.000000  magneticMoment: [ Abs: 0.58096  Tot: +0.58000 ]
SCF: Cycle: 16   F: -24.450550263345271   dF: -1.527e-06   |Residual|: 2.149e-04   |deigs|: 4.594e-04  t[s]:     40.27
	FillingsUpdate:  mu: -0.086758195  nElectrons: 9.000000  magneticMoment: [ Abs: 0.58038  Tot: +0.58000 ]
SCF: Cycle: 17   F: -24.450551473964786   dF: -1.211e-06   |Residual|: 1.421e-04   |deigs|: 2.496e-04  t[s]:     42.30
	FillingsUpdate:  mu: -0.086702130  nElectrons: 9.000000  magneticMoment: [ Abs: 0.58015  Tot: +0.58000 ]
SCF: Cycle: 18   F: -24.450551820135683   dF: -3.462e-07   |Residual|: 9.926e-05   |deigs|: 2.369e-04  t[s]:     44.31
	FillingsUpdate:  mu: -0.086670144  nElectrons: 9.000000  magneticMoment: [ Abs: 0.58039  Tot: +0.58000 ]
SCF: Cycle: 19   F: -24.450552053321108   dF: -2.332e-07   |Residual|: 4.365e-05   |deigs|: 1.043e-04  t[s]:     46.33
	FillingsUpdate:  mu: -0.086668172  nElectrons: 9.000000  magneticMoment: [ Abs: 0.58036  Tot: +0.58000 ]
SCF: Cycle: 20   F: -24.450552105105110   dF: -5.178e-08   |Residual|: 2.693e-05   |deigs|: 2.321e-05  t[s]:     48.35
	FillingsUpdate:  mu: -0.086663447  nElectrons: 9.000000  magneticMoment: [ Abs: 0.58034  Tot: +0.58000 ]
SCF: Cycle: 21   F: -24.450552145234806   dF: -4.013e-08   |Residual|: 1.883e-05   |deigs|: 1.495e-05  t[s]:     50.39
	FillingsUpdate:  mu: -0.086679942  nElectrons: 9.000000  magneticMoment: [ Abs: 0.58035  Tot: +0.58000 ]
SCF: Cycle: 22   F: -24.450552165987247   dF: -2.075e-08   |Residual|: 1.247e-05   |deigs|: 1.946e-05  t[s]:     52.40
	FillingsUpdate:  mu: -0.086686626  nElectrons: 9.000000  magneticMoment: [ Abs: 0.58031  Tot: +0.58000 ]
SCF: Cycle: 23   F: -24.450552168485640   dF: -2.498e-09   |Residual|: 1.006e-05   |deigs|: 1.304e-05  t[s]:     54.43
	FillingsUpdate:  mu: -0.086688521  nElectrons: 9.000000  magneticMoment: [ Abs: 0.58026  Tot: +0.58000 ]
SCF: Cycle: 24   F: -24.450552180933325   dF: -1.245e-08   |Residual|: 8.997e-06   |deigs|: 9.367e-06  t[s]:     56.46
	FillingsUpdate:  mu: -0.086672353  nElectrons: 9.000000  magneticMoment: [ Abs: 0.58017  Tot: +0.58000 ]
SCF: Cycle: 25   F: -24.450552183658594   dF: -2.725e-09   |Residual|: 9.286e-06   |deigs|: 1.615e-05  t[s]:     58.58
	FillingsUpdate:  mu: -0.086665260  nElectrons: 9.000000  magneticMoment: [ Abs: 0.58013  Tot: +0.58000 ]
SCF: Cycle: 26   F: -24.450552186282636   dF: -2.624e-09   |Residual|: 6.154e-06   |deigs|: 7.794e-06  t[s]:     60.62
SCF: Converged (|Delta E|<1.000000e-08 for 2 iters).


# Ionic positions in lattice coordinates:
ion Rb   0.000000000000000   0.000000000000000   0.000000000000000 0

# Forces in Lattice coordinates:
force Rb   0.000000000000000   0.000000000000000   0.000000000000000 0

# Energy components:
   Eewald =      -18.0480261003326561
       EH =        1.6632320018812277
     Eloc =      -10.5750026978457932
      Enl =       -0.7975525810301511
   Epulay =        0.0000000035676145
      Exc =       -3.6795046490992078
       KE =        6.9863025929758420
-------------------------------------
     Etot =      -24.4505514298831237
       TS =        0.0000007563995105
-------------------------------------
        F =      -24.4505521862826356

IonicMinimize: Iter:   0  F: -24.450552186282636  |grad|_K:  0.000e+00  t[s]:     60.74
IonicMinimize: Converged (|grad|_K<1.000000e-04).

#--- Lowdin population analysis ---
# oxidation-state Rb +0.077
# magnetic-moments Rb +0.510

End date and time: Sun Feb  6 12:55:16 2022  (Duration: 0-0:01:00.76)
Done!
