
*************** JDFTx 1.6.0 (git hash 42ebbcc2) ***************

Start date and time: Sun Feb  6 12:41:28 2022
Executable jdftx with command-line: -i Alkali.in
Running on hosts (process indices):  d-17-6-4 (0-18)
Divided in process groups (process indices):  0 (0)  1 (1)  2 (2)  3 (3)  4 (4)  5 (5)  6 (6)  7 (7)  8 (8)  9 (9)  10 (10)  11 (11)  12 (12)  13 (13)  14 (14)  15 (15)  16 (16)  17 (17)  18 (18)
Resource initialization completed at t[s]:      0.00
Run totals: 19 processes, 48 threads, 0 GPUs


Input parsed successfully to the following command list (including defaults):

basis kpoint-dependent
coords-type Lattice
core-overlap-check vector
coulomb-interaction Slab 001
davidson-band-ratio 1.1
dump End None
dump-name $INPUT.$VAR
elec-cutoff 20
elec-eigen-algo Davidson
elec-ex-corr gga-PBE
elec-initial-magnetization -0.260000 yes
elec-smearing Fermi 1e-05
electronic-minimize  \
	dirUpdateScheme      FletcherReeves \
	linminMethod         DirUpdateRecommended \
	nIterations          100 \
	history              15 \
	knormThreshold       0 \
	energyDiffThreshold  1e-08 \
	nEnergyDiff          2 \
	alphaTstart          1 \
	alphaTmin            1e-10 \
	updateTestStepSize   yes \
	alphaTreduceFactor   0.1 \
	alphaTincreaseFactor 3 \
	nAlphaAdjustMax      3 \
	wolfeEnergy          0.0001 \
	wolfeGradient        0.9 \
	fdTest               no
electronic-scf  \
	nIterations	10000 \
	energyDiffThreshold	1e-08 \
	residualThreshold	1e-07 \
	mixFraction	0.5 \
	qMetric	0.8 \
	history	10 \
	nEigSteps	2 \
	eigDiffThreshold	1e-08 \
	mixedVariable	Density \
	qKerker	0.8 \
	qKappa	-1 \
	verbose	no \
	mixFractionMag	1.5
exchange-regularization WignerSeitzTruncated
fluid None
fluid-ex-corr (null) lda-PZ
fluid-gummel-loop 10 1.000000e-05
fluid-minimize  \
	dirUpdateScheme      PolakRibiere \
	linminMethod         DirUpdateRecommended \
	nIterations          100 \
	history              15 \
	knormThreshold       0 \
	energyDiffThreshold  0 \
	nEnergyDiff          2 \
	alphaTstart          1 \
	alphaTmin            1e-10 \
	updateTestStepSize   yes \
	alphaTreduceFactor   0.1 \
	alphaTincreaseFactor 3 \
	nAlphaAdjustMax      3 \
	wolfeEnergy          0.0001 \
	wolfeGradient        0.9 \
	fdTest               no
fluid-solvent H2O 55.338 ScalarEOS \
	epsBulk 78.4 \
	pMol 0.92466 \
	epsInf 1.77 \
	Pvap 1.06736e-10 \
	sigmaBulk 4.62e-05 \
	Rvdw 2.61727 \
	Res 1.42 \
	tauNuc 343133 \
	poleEl 15 7 1
forces-output-coords Positions
ion Rb   0.000000000000000   0.000000000000000   0.000000000000000 0
ion-species SG15/$ID_ONCV_PBE.upf
ion-width 0
ionic-minimize  \
	dirUpdateScheme      L-BFGS \
	linminMethod         DirUpdateRecommended \
	nIterations          0 \
	history              15 \
	knormThreshold       0.0001 \
	energyDiffThreshold  1e-06 \
	nEnergyDiff          2 \
	alphaTstart          1 \
	alphaTmin            1e-10 \
	updateTestStepSize   yes \
	alphaTreduceFactor   0.1 \
	alphaTincreaseFactor 3 \
	nAlphaAdjustMax      3 \
	wolfeEnergy          0.0001 \
	wolfeGradient        0.9 \
	fdTest               no
kpoint   0.000000000000   0.000000000000   0.000000000000  1.00000000000000
kpoint-folding 12 12 1 
latt-move-scale 1 1 1
latt-scale 2 2 1 
lattice  \
	   4.727486978767153   -2.363743489383575    0.000000000000000  \
	  -0.000000000000000    4.094123819672498    0.000000000000000  \
	   0.000000000000000    0.000000000000000   40.000000000000000 
lattice-minimize  \
	dirUpdateScheme      L-BFGS \
	linminMethod         DirUpdateRecommended \
	nIterations          0 \
	history              15 \
	knormThreshold       0 \
	energyDiffThreshold  1e-06 \
	nEnergyDiff          2 \
	alphaTstart          1 \
	alphaTmin            1e-10 \
	updateTestStepSize   yes \
	alphaTreduceFactor   0.1 \
	alphaTincreaseFactor 3 \
	nAlphaAdjustMax      3 \
	wolfeEnergy          0.0001 \
	wolfeGradient        0.9 \
	fdTest               no
lcao-params -1 1e-06 1e-05
pcm-variant GLSSA13
spintype z-spin
subspace-rotation-factor 1 yes
symmetries automatic
symmetry-threshold 0.0001



---------- Setting up symmetries ----------

Found 24 point-group symmetries of the bravais lattice
Found 24 space-group symmetries with basis
Applied RMS atom displacement 0 bohrs to make symmetries exact.

---------- Initializing the Grid ----------
R = 
[      9.45497     -4.72749            0  ]
[            0      8.18825            0  ]
[            0            0           40  ]
unit cell volume = 3096.79
G =
[   0.664538   0.383671         -0  ]
[          0   0.767342         -0  ]
[         -0         -0    0.15708  ]
Minimum fftbox size, Smin = [  40  40  164  ]
Chosen fftbox size, S = [  40  40  168  ]

---------- Exchange Correlation functional ----------
Initalized PBE GGA exchange.
Initalized PBE GGA correlation.

---------- Setting up pseudopotentials ----------
Width of ionic core gaussian charges (only for fluid interactions / plotting) set to 0

Reading pseudopotential file '/home/gridsan/aligho/DFT/build-Nov24/pseudopotentials/SG15/Rb_ONCV_PBE.upf':
  'Rb' pseudopotential, 'PBE' functional
  Generated using ONCVPSP code by D. R. Hamann
  Author: Martin Schlipf and Francois Gygi  Date: 150915.
  9 valence electrons, 3 orbitals, 6 projectors, 2308 radial grid points, with lMax = 2
  Transforming local potential to a uniform radial grid of dG=0.02 with 1489 points.
  Transforming nonlocal projectors to a uniform radial grid of dG=0.02 with 432 points.
    4S    l: 0   occupation:  2.0   eigenvalue: -1.172069
    4P    l: 1   occupation:  6.0   eigenvalue: -0.586674
    5S    l: 0   occupation:  1.0   eigenvalue: -0.082006
  Transforming atomic orbitals to a uniform radial grid of dG=0.02 with 432 points.
  Core radius for overlap checks: 2.60 bohrs.
  Reading pulay file /home/gridsan/aligho/DFT/build-Nov24/pseudopotentials/SG15/Rb_ONCV_PBE.pulay ... using dE_dnG = -1.360715e-05 computed for Ecut = 20.

Initialized 1 species with 1 total atoms.

Folded 1 k-points by 12x12x1 to 144 k-points.

---------- Setting up k-points, bands, fillings ----------
Reduced to 19 k-points under symmetry. 
Computing the number of bands and number of electrons
Calculating initial fillings.
nElectrons:   9.000000   nBands: 6   nStates: 38

----- Setting up reduced wavefunction bases (one per k-point) -----
average nbasis = 13230.521 , ideal nbasis = 13229.709

---------- Setting up coulomb interaction ----------
Initialized slab truncation along lattice direction 001

---------- Setting up 2D ewald sum ----------
Optimum gaussian width for ewald sums = 5.249020 bohr.
Real space sums over 289 unit cells with max indices [  8  8  0  ]
Reciprocal space sums over 81 terms with max indices [  4  4  0  ]

---------- Allocating electronic variables ----------
Initializing wave functions:  linear combination of atomic orbitals
Note: number of bands (6) exceeds available atomic orbitals (5)
Rb pseudo-atom occupations:   s ( 2 1 )  p ( 6 )
	FillingsUpdate:  mu: -0.097100618  nElectrons: 9.000000  magneticMoment: [ Abs: 0.26000  Tot: -0.26000 ]
LCAOMinimize: Iter:   0  F: -24.4491371413498157  |grad|_K:  4.135e-05  alpha:  1.000e+00
	FillingsUpdate:  mu: -0.097085908  nElectrons: 9.000000  magneticMoment: [ Abs: 0.26000  Tot: -0.26000 ]
LCAOMinimize: Iter:   1  F: -24.4491382826447747  |grad|_K:  4.354e-07  alpha:  9.760e-01  linmin: -3.900e-02  cgtest:  4.596e-01  t[s]:      4.61
LCAOMinimize: Encountered beta<0, resetting CG.
	FillingsUpdate:  mu: -0.097085956  nElectrons: 9.000000  magneticMoment: [ Abs: 0.26000  Tot: -0.26000 ]
LCAOMinimize: Iter:   2  F: -24.4491382827749959  |grad|_K:  8.677e-10  alpha:  1.003e+00  linmin:  1.246e-01  cgtest: -8.040e-01  t[s]:      5.84
LCAOMinimize: 	Step increased F by 5.684342e-14, reducing alpha to 3.312516e-05.
LCAOMinimize: 	Step increased F by 7.815970e-14, reducing alpha to 3.312516e-06.
LCAOMinimize: 	Step increased F by 1.065814e-13, reducing alpha to 3.312516e-07.
LCAOMinimize: 	Step failed to reduce F after 3 attempts. Quitting step.
LCAOMinimize: 	Undoing step.
LCAOMinimize: 	Step failed: resetting search direction.
	FillingsUpdate:  mu: -0.097085956  nElectrons: 9.000000  magneticMoment: [ Abs: 0.26000  Tot: -0.26000 ]
LCAOMinimize: Iter:   3  F: -24.4491382827748822  |grad|_K:  8.677e-10  alpha:  3.313e-07
LCAOMinimize: 	Step increased F by 3.552714e-14, reducing alpha to 3.311863e-04.
LCAOMinimize: 	Step increased F by 5.329071e-14, reducing alpha to 3.311863e-05.
LCAOMinimize: 	Step increased F by 2.486900e-14, reducing alpha to 3.311863e-06.
LCAOMinimize: 	Step failed to reduce F after 3 attempts. Quitting step.
LCAOMinimize: 	Undoing step.
LCAOMinimize: 	Step failed along negative gradient direction.
LCAOMinimize: Probably at roundoff error limit. (Stopping)


---- Citations for features of the code used in this run ----

   Software package:
      R. Sundararaman, K. Letchworth-Weaver, K.A. Schwarz, D. Gunceler, Y. Ozhabes and T.A. Arias, 'JDFTx: software for joint density-functional theory', SoftwareX 6, 278 (2017)

   gga-PBE exchange-correlation functional:
      J.P. Perdew, K. Burke and M. Ernzerhof, Phys. Rev. Lett. 77, 3865 (1996)

   Pseudopotentials:
      M Schlipf and F Gygi, Comput. Phys. Commun. 196, 36 (2015)

   Truncated Coulomb potentials:
      R. Sundararaman and T.A. Arias, Phys. Rev. B 87, 165122 (2013)

This list may not be complete. Please suggest additional citations or
report any other bugs at https://github.com/shankar1729/jdftx/issues

Initialization completed successfully at t[s]:     12.50


-------- Electronic minimization -----------
Will mix electronic density at each iteration.
	FillingsUpdate:  mu: -0.097085956  nElectrons: 9.000000  magneticMoment: [ Abs: 0.26000  Tot: -0.26000 ]
	FillingsUpdate:  mu: -0.105878939  nElectrons: 9.000000  magneticMoment: [ Abs: 0.26000  Tot: -0.26000 ]
SCF: Cycle:  0   F: -24.453829745109594   dF: -4.691e-03   |Residual|: 9.285e-03   |deigs|: 1.792e-01  t[s]:     14.89
	FillingsUpdate:  mu: -0.105654478  nElectrons: 9.000000  magneticMoment: [ Abs: 0.26000  Tot: -0.26000 ]
SCF: Cycle:  1   F: -24.454014664217038   dF: -1.849e-04   |Residual|: 7.092e-03   |deigs|: 7.351e-03  t[s]:     16.72
	FillingsUpdate:  mu: -0.103894267  nElectrons: 9.000000  magneticMoment: [ Abs: 0.26311  Tot: -0.26000 ]
SCF: Cycle:  2   F: -24.454109151945254   dF: -9.449e-05   |Residual|: 3.503e-03   |deigs|: 1.430e-03  t[s]:     18.58
	FillingsUpdate:  mu: -0.102725947  nElectrons: 9.000000  magneticMoment: [ Abs: 0.26004  Tot: -0.26000 ]
SCF: Cycle:  3   F: -24.454159600052673   dF: -5.045e-05   |Residual|: 2.303e-03   |deigs|: 2.622e-03  t[s]:     20.44
	FillingsUpdate:  mu: -0.101103216  nElectrons: 9.000000  magneticMoment: [ Abs: 0.26001  Tot: -0.26000 ]
SCF: Cycle:  4   F: -24.454189023029372   dF: -2.942e-05   |Residual|: 1.951e-03   |deigs|: 3.245e-03  t[s]:     22.37
	FillingsUpdate:  mu: -0.099618945  nElectrons: 9.000000  magneticMoment: [ Abs: 0.26188  Tot: -0.26000 ]
SCF: Cycle:  5   F: -24.454204936009482   dF: -1.591e-05   |Residual|: 1.380e-03   |deigs|: 3.677e-03  t[s]:     24.25
	FillingsUpdate:  mu: -0.097304251  nElectrons: 9.000000  magneticMoment: [ Abs: 0.26514  Tot: -0.26000 ]
SCF: Cycle:  6   F: -24.454205968261203   dF: -1.032e-06   |Residual|: 1.027e-03   |deigs|: 2.864e-03  t[s]:     26.28
	FillingsUpdate:  mu: -0.096006284  nElectrons: 9.000000  magneticMoment: [ Abs: 0.26387  Tot: -0.26000 ]
SCF: Cycle:  7   F: -24.454223223361314   dF: -1.726e-05   |Residual|: 9.631e-04   |deigs|: 1.453e-03  t[s]:     28.31
	FillingsUpdate:  mu: -0.095993094  nElectrons: 9.000000  magneticMoment: [ Abs: 0.26072  Tot: -0.26000 ]
SCF: Cycle:  8   F: -24.454231453244169   dF: -8.230e-06   |Residual|: 8.051e-04   |deigs|: 3.725e-04  t[s]:     30.30
	FillingsUpdate:  mu: -0.094442897  nElectrons: 9.000000  magneticMoment: [ Abs: 0.26241  Tot: -0.26000 ]
SCF: Cycle:  9   F: -24.454231092459828   dF: +3.608e-07   |Residual|: 6.769e-04   |deigs|: 1.592e-03  t[s]:     32.30
	FillingsUpdate:  mu: -0.093112961  nElectrons: 9.000000  magneticMoment: [ Abs: 0.26299  Tot: -0.26000 ]
SCF: Cycle: 10   F: -24.454227639299866   dF: +3.453e-06   |Residual|: 5.786e-04   |deigs|: 1.444e-03  t[s]:     34.46
	FillingsUpdate:  mu: -0.091952985  nElectrons: 9.000000  magneticMoment: [ Abs: 0.26227  Tot: -0.26000 ]
SCF: Cycle: 11   F: -24.454235311090223   dF: -7.672e-06   |Residual|: 5.014e-04   |deigs|: 1.261e-03  t[s]:     36.46
	FillingsUpdate:  mu: -0.090693549  nElectrons: 9.000000  magneticMoment: [ Abs: 0.26208  Tot: -0.26000 ]
SCF: Cycle: 12   F: -24.454248233399444   dF: -1.292e-05   |Residual|: 4.836e-04   |deigs|: 1.201e-03  t[s]:     38.47
	FillingsUpdate:  mu: -0.089403766  nElectrons: 9.000000  magneticMoment: [ Abs: 0.26162  Tot: -0.26000 ]
SCF: Cycle: 13   F: -24.454251613465182   dF: -3.380e-06   |Residual|: 4.339e-04   |deigs|: 1.352e-03  t[s]:     40.43
	FillingsUpdate:  mu: -0.087937430  nElectrons: 9.000000  magneticMoment: [ Abs: 0.26026  Tot: -0.26000 ]
SCF: Cycle: 14   F: -24.454256019774043   dF: -4.406e-06   |Residual|: 3.625e-04   |deigs|: 1.533e-03  t[s]:     42.45
	FillingsUpdate:  mu: -0.087543502  nElectrons: 9.000000  magneticMoment: [ Abs: 0.26057  Tot: -0.26000 ]
SCF: Cycle: 15   F: -24.454258342056839   dF: -2.322e-06   |Residual|: 2.546e-04   |deigs|: 4.209e-04  t[s]:     44.48
	FillingsUpdate:  mu: -0.087061408  nElectrons: 9.000000  magneticMoment: [ Abs: 0.26059  Tot: -0.26000 ]
SCF: Cycle: 16   F: -24.454259472130111   dF: -1.130e-06   |Residual|: 1.597e-04   |deigs|: 5.681e-04  t[s]:     46.50
	FillingsUpdate:  mu: -0.086953759  nElectrons: 9.000000  magneticMoment: [ Abs: 0.26012  Tot: -0.26000 ]
SCF: Cycle: 17   F: -24.454259846441992   dF: -3.743e-07   |Residual|: 9.385e-05   |deigs|: 1.965e-04  t[s]:     48.58
	FillingsUpdate:  mu: -0.086983965  nElectrons: 9.000000  magneticMoment: [ Abs: 0.26021  Tot: -0.26000 ]
SCF: Cycle: 18   F: -24.454259995788881   dF: -1.493e-07   |Residual|: 5.966e-05   |deigs|: 4.656e-04  t[s]:     50.58
	FillingsUpdate:  mu: -0.087007617  nElectrons: 9.000000  magneticMoment: [ Abs: 0.26009  Tot: -0.26000 ]
SCF: Cycle: 19   F: -24.454260039871695   dF: -4.408e-08   |Residual|: 3.039e-05   |deigs|: 3.231e-04  t[s]:     52.62
	FillingsUpdate:  mu: -0.086999251  nElectrons: 9.000000  magneticMoment: [ Abs: 0.26006  Tot: -0.26000 ]
SCF: Cycle: 20   F: -24.454260068471864   dF: -2.860e-08   |Residual|: 1.595e-05   |deigs|: 1.777e-04  t[s]:     54.65
	FillingsUpdate:  mu: -0.086979894  nElectrons: 9.000000  magneticMoment: [ Abs: 0.26008  Tot: -0.26000 ]
SCF: Cycle: 21   F: -24.454260074553677   dF: -6.082e-09   |Residual|: 1.016e-05   |deigs|: 1.647e-04  t[s]:     56.71
	FillingsUpdate:  mu: -0.086981767  nElectrons: 9.000000  magneticMoment: [ Abs: 0.26011  Tot: -0.26000 ]
SCF: Cycle: 22   F: -24.454260079373455   dF: -4.820e-09   |Residual|: 5.316e-06   |deigs|: 1.344e-04  t[s]:     58.71
SCF: Converged (|Delta E|<1.000000e-08 for 2 iters).


# Ionic positions in lattice coordinates:
ion Rb   0.000000000000000   0.000000000000000   0.000000000000000 0

# Forces in Lattice coordinates:
force Rb   0.000000000000000   0.000000000000000   0.000000000000000 0

# Energy components:
   Eewald =      -18.0480261003326561
       EH =        1.6483351275752594
     Eloc =      -10.5599182462496870
      Enl =       -0.7959113500463877
   Epulay =        0.0000000035676145
      Exc =       -3.6764126927048002
       KE =        6.9776735998664412
-------------------------------------
     Etot =      -24.4542596583242187
       TS =        0.0000004210492349
-------------------------------------
        F =      -24.4542600793734550

IonicMinimize: Iter:   0  F: -24.454260079373455  |grad|_K:  0.000e+00  t[s]:     58.83
IonicMinimize: Converged (|grad|_K<1.000000e-04).

#--- Lowdin population analysis ---
# oxidation-state Rb +0.040
# magnetic-moments Rb -0.235

End date and time: Sun Feb  6 12:42:27 2022  (Duration: 0-0:00:58.86)
Done!
