
*************** JDFTx 1.6.0 (git hash 42ebbcc2) ***************

Start date and time: Sun Feb  6 12:52:11 2022
Executable jdftx with command-line: -i Alkali.in
Running on hosts (process indices):  d-4-6-1 (0-18)
Divided in process groups (process indices):  0 (0)  1 (1)  2 (2)  3 (3)  4 (4)  5 (5)  6 (6)  7 (7)  8 (8)  9 (9)  10 (10)  11 (11)  12 (12)  13 (13)  14 (14)  15 (15)  16 (16)  17 (17)  18 (18)
Resource initialization completed at t[s]:      0.00
Run totals: 19 processes, 48 threads, 0 GPUs


Input parsed successfully to the following command list (including defaults):

basis kpoint-dependent
coords-type Lattice
core-overlap-check vector
coulomb-interaction Slab 001
davidson-band-ratio 1.1
dump End None
dump-name $INPUT.$VAR
elec-cutoff 20
elec-eigen-algo Davidson
elec-ex-corr gga-PBE
elec-initial-magnetization 0.420000 yes
elec-smearing Fermi 1e-05
electronic-minimize  \
	dirUpdateScheme      FletcherReeves \
	linminMethod         DirUpdateRecommended \
	nIterations          100 \
	history              15 \
	knormThreshold       0 \
	energyDiffThreshold  1e-08 \
	nEnergyDiff          2 \
	alphaTstart          1 \
	alphaTmin            1e-10 \
	updateTestStepSize   yes \
	alphaTreduceFactor   0.1 \
	alphaTincreaseFactor 3 \
	nAlphaAdjustMax      3 \
	wolfeEnergy          0.0001 \
	wolfeGradient        0.9 \
	fdTest               no
electronic-scf  \
	nIterations	10000 \
	energyDiffThreshold	1e-08 \
	residualThreshold	1e-07 \
	mixFraction	0.5 \
	qMetric	0.8 \
	history	10 \
	nEigSteps	2 \
	eigDiffThreshold	1e-08 \
	mixedVariable	Density \
	qKerker	0.8 \
	qKappa	-1 \
	verbose	no \
	mixFractionMag	1.5
exchange-regularization WignerSeitzTruncated
fluid None
fluid-ex-corr (null) lda-PZ
fluid-gummel-loop 10 1.000000e-05
fluid-minimize  \
	dirUpdateScheme      PolakRibiere \
	linminMethod         DirUpdateRecommended \
	nIterations          100 \
	history              15 \
	knormThreshold       0 \
	energyDiffThreshold  0 \
	nEnergyDiff          2 \
	alphaTstart          1 \
	alphaTmin            1e-10 \
	updateTestStepSize   yes \
	alphaTreduceFactor   0.1 \
	alphaTincreaseFactor 3 \
	nAlphaAdjustMax      3 \
	wolfeEnergy          0.0001 \
	wolfeGradient        0.9 \
	fdTest               no
fluid-solvent H2O 55.338 ScalarEOS \
	epsBulk 78.4 \
	pMol 0.92466 \
	epsInf 1.77 \
	Pvap 1.06736e-10 \
	sigmaBulk 4.62e-05 \
	Rvdw 2.61727 \
	Res 1.42 \
	tauNuc 343133 \
	poleEl 15 7 1
forces-output-coords Positions
ion Rb   0.000000000000000   0.000000000000000   0.000000000000000 0
ion-species SG15/$ID_ONCV_PBE.upf
ion-width 0
ionic-minimize  \
	dirUpdateScheme      L-BFGS \
	linminMethod         DirUpdateRecommended \
	nIterations          0 \
	history              15 \
	knormThreshold       0.0001 \
	energyDiffThreshold  1e-06 \
	nEnergyDiff          2 \
	alphaTstart          1 \
	alphaTmin            1e-10 \
	updateTestStepSize   yes \
	alphaTreduceFactor   0.1 \
	alphaTincreaseFactor 3 \
	nAlphaAdjustMax      3 \
	wolfeEnergy          0.0001 \
	wolfeGradient        0.9 \
	fdTest               no
kpoint   0.000000000000   0.000000000000   0.000000000000  1.00000000000000
kpoint-folding 12 12 1 
latt-move-scale 1 1 1
latt-scale 2 2 1 
lattice  \
	   4.727486978767153   -2.363743489383575    0.000000000000000  \
	  -0.000000000000000    4.094123819672498    0.000000000000000  \
	   0.000000000000000    0.000000000000000   40.000000000000000 
lattice-minimize  \
	dirUpdateScheme      L-BFGS \
	linminMethod         DirUpdateRecommended \
	nIterations          0 \
	history              15 \
	knormThreshold       0 \
	energyDiffThreshold  1e-06 \
	nEnergyDiff          2 \
	alphaTstart          1 \
	alphaTmin            1e-10 \
	updateTestStepSize   yes \
	alphaTreduceFactor   0.1 \
	alphaTincreaseFactor 3 \
	nAlphaAdjustMax      3 \
	wolfeEnergy          0.0001 \
	wolfeGradient        0.9 \
	fdTest               no
lcao-params -1 1e-06 1e-05
pcm-variant GLSSA13
spintype z-spin
subspace-rotation-factor 1 yes
symmetries automatic
symmetry-threshold 0.0001



---------- Setting up symmetries ----------

Found 24 point-group symmetries of the bravais lattice
Found 24 space-group symmetries with basis
Applied RMS atom displacement 0 bohrs to make symmetries exact.

---------- Initializing the Grid ----------
R = 
[      9.45497     -4.72749            0  ]
[            0      8.18825            0  ]
[            0            0           40  ]
unit cell volume = 3096.79
G =
[   0.664538   0.383671         -0  ]
[          0   0.767342         -0  ]
[         -0         -0    0.15708  ]
Minimum fftbox size, Smin = [  40  40  164  ]
Chosen fftbox size, S = [  40  40  168  ]

---------- Exchange Correlation functional ----------
Initalized PBE GGA exchange.
Initalized PBE GGA correlation.

---------- Setting up pseudopotentials ----------
Width of ionic core gaussian charges (only for fluid interactions / plotting) set to 0

Reading pseudopotential file '/home/gridsan/aligho/DFT/build-Nov24/pseudopotentials/SG15/Rb_ONCV_PBE.upf':
  'Rb' pseudopotential, 'PBE' functional
  Generated using ONCVPSP code by D. R. Hamann
  Author: Martin Schlipf and Francois Gygi  Date: 150915.
  9 valence electrons, 3 orbitals, 6 projectors, 2308 radial grid points, with lMax = 2
  Transforming local potential to a uniform radial grid of dG=0.02 with 1489 points.
  Transforming nonlocal projectors to a uniform radial grid of dG=0.02 with 432 points.
    4S    l: 0   occupation:  2.0   eigenvalue: -1.172069
    4P    l: 1   occupation:  6.0   eigenvalue: -0.586674
    5S    l: 0   occupation:  1.0   eigenvalue: -0.082006
  Transforming atomic orbitals to a uniform radial grid of dG=0.02 with 432 points.
  Core radius for overlap checks: 2.60 bohrs.
  Reading pulay file /home/gridsan/aligho/DFT/build-Nov24/pseudopotentials/SG15/Rb_ONCV_PBE.pulay ... using dE_dnG = -1.360715e-05 computed for Ecut = 20.

Initialized 1 species with 1 total atoms.

Folded 1 k-points by 12x12x1 to 144 k-points.

---------- Setting up k-points, bands, fillings ----------
Reduced to 19 k-points under symmetry. 
Computing the number of bands and number of electrons
Calculating initial fillings.
nElectrons:   9.000000   nBands: 6   nStates: 38

----- Setting up reduced wavefunction bases (one per k-point) -----
average nbasis = 13230.521 , ideal nbasis = 13229.709

---------- Setting up coulomb interaction ----------
Initialized slab truncation along lattice direction 001

---------- Setting up 2D ewald sum ----------
Optimum gaussian width for ewald sums = 5.249020 bohr.
Real space sums over 289 unit cells with max indices [  8  8  0  ]
Reciprocal space sums over 81 terms with max indices [  4  4  0  ]

---------- Allocating electronic variables ----------
Initializing wave functions:  linear combination of atomic orbitals
Note: number of bands (6) exceeds available atomic orbitals (5)
Rb pseudo-atom occupations:   s ( 2 1 )  p ( 6 )
	FillingsUpdate:  mu: -0.092419279  nElectrons: 9.000000  magneticMoment: [ Abs: 0.42000  Tot: +0.42000 ]
LCAOMinimize: Iter:   0  F: -24.4461009540048728  |grad|_K:  3.536e-05  alpha:  1.000e+00
	FillingsUpdate:  mu: -0.092406440  nElectrons: 9.000000  magneticMoment: [ Abs: 0.42000  Tot: +0.42000 ]
LCAOMinimize: Iter:   1  F: -24.4461017902073188  |grad|_K:  3.716e-07  alpha:  9.777e-01  linmin: -3.122e-02  cgtest:  3.846e-01  t[s]:      4.59
LCAOMinimize: Encountered beta<0, resetting CG.
	FillingsUpdate:  mu: -0.092406499  nElectrons: 9.000000  magneticMoment: [ Abs: 0.42000  Tot: +0.42000 ]
LCAOMinimize: Iter:   2  F: -24.4461017903018778  |grad|_K:  9.798e-10  alpha:  1.003e+00  linmin:  9.852e-02  cgtest: -6.492e-01  t[s]:      5.83
LCAOMinimize: Converged (|Delta F|<1.000000e-06 for 2 iters).


---- Citations for features of the code used in this run ----

   Software package:
      R. Sundararaman, K. Letchworth-Weaver, K.A. Schwarz, D. Gunceler, Y. Ozhabes and T.A. Arias, 'JDFTx: software for joint density-functional theory', SoftwareX 6, 278 (2017)

   gga-PBE exchange-correlation functional:
      J.P. Perdew, K. Burke and M. Ernzerhof, Phys. Rev. Lett. 77, 3865 (1996)

   Pseudopotentials:
      M Schlipf and F Gygi, Comput. Phys. Commun. 196, 36 (2015)

   Truncated Coulomb potentials:
      R. Sundararaman and T.A. Arias, Phys. Rev. B 87, 165122 (2013)

This list may not be complete. Please suggest additional citations or
report any other bugs at https://github.com/shankar1729/jdftx/issues

Initialization completed successfully at t[s]:      5.93


-------- Electronic minimization -----------
Will mix electronic density at each iteration.
	FillingsUpdate:  mu: -0.092406499  nElectrons: 9.000000  magneticMoment: [ Abs: 0.42000  Tot: +0.42000 ]
	FillingsUpdate:  mu: -0.103123915  nElectrons: 9.000000  magneticMoment: [ Abs: 0.42000  Tot: +0.42000 ]
SCF: Cycle:  0   F: -24.452069395598716   dF: -5.968e-03   |Residual|: 1.073e-02   |deigs|: 1.792e-01  t[s]:      8.37
	FillingsUpdate:  mu: -0.102872903  nElectrons: 9.000000  magneticMoment: [ Abs: 0.42000  Tot: +0.42000 ]
SCF: Cycle:  1   F: -24.452311960841815   dF: -2.426e-04   |Residual|: 7.867e-03   |deigs|: 6.663e-03  t[s]:     10.21
	FillingsUpdate:  mu: -0.101451086  nElectrons: 9.000000  magneticMoment: [ Abs: 0.42288  Tot: +0.42000 ]
SCF: Cycle:  2   F: -24.452414066409503   dF: -1.021e-04   |Residual|: 4.381e-03   |deigs|: 2.711e-03  t[s]:     12.16
	FillingsUpdate:  mu: -0.100397499  nElectrons: 9.000000  magneticMoment: [ Abs: 0.42010  Tot: +0.42000 ]
SCF: Cycle:  3   F: -24.452478133480732   dF: -6.407e-05   |Residual|: 2.768e-03   |deigs|: 1.759e-03  t[s]:     14.10
	FillingsUpdate:  mu: -0.098679778  nElectrons: 9.000000  magneticMoment: [ Abs: 0.42003  Tot: +0.42000 ]
SCF: Cycle:  4   F: -24.452516247096671   dF: -3.811e-05   |Residual|: 2.075e-03   |deigs|: 2.161e-03  t[s]:     16.03
	FillingsUpdate:  mu: -0.097417964  nElectrons: 9.000000  magneticMoment: [ Abs: 0.42100  Tot: +0.42000 ]
SCF: Cycle:  5   F: -24.452535309667564   dF: -1.906e-05   |Residual|: 1.547e-03   |deigs|: 3.764e-03  t[s]:     17.98
	FillingsUpdate:  mu: -0.094940593  nElectrons: 9.000000  magneticMoment: [ Abs: 0.42697  Tot: +0.42000 ]
SCF: Cycle:  6   F: -24.452535189735624   dF: +1.199e-07   |Residual|: 1.116e-03   |deigs|: 3.019e-03  t[s]:     19.90
	FillingsUpdate:  mu: -0.093121197  nElectrons: 9.000000  magneticMoment: [ Abs: 0.42644  Tot: +0.42000 ]
SCF: Cycle:  7   F: -24.452552076439911   dF: -1.689e-05   |Residual|: 1.044e-03   |deigs|: 2.668e-03  t[s]:     21.90
	FillingsUpdate:  mu: -0.093069897  nElectrons: 9.000000  magneticMoment: [ Abs: 0.42186  Tot: +0.42000 ]
SCF: Cycle:  8   F: -24.452563547919613   dF: -1.147e-05   |Residual|: 8.335e-04   |deigs|: 1.708e-03  t[s]:     23.94
	FillingsUpdate:  mu: -0.091842548  nElectrons: 9.000000  magneticMoment: [ Abs: 0.42265  Tot: +0.42000 ]
SCF: Cycle:  9   F: -24.452566184222682   dF: -2.636e-06   |Residual|: 6.766e-04   |deigs|: 1.244e-03  t[s]:     25.99
	FillingsUpdate:  mu: -0.090509940  nElectrons: 9.000000  magneticMoment: [ Abs: 0.42413  Tot: +0.42000 ]
SCF: Cycle: 10   F: -24.452565704856404   dF: +4.794e-07   |Residual|: 5.842e-04   |deigs|: 1.409e-03  t[s]:     28.07
	FillingsUpdate:  mu: -0.089426321  nElectrons: 9.000000  magneticMoment: [ Abs: 0.42330  Tot: +0.42000 ]
SCF: Cycle: 11   F: -24.452568107503403   dF: -2.403e-06   |Residual|: 5.306e-04   |deigs|: 1.137e-03  t[s]:     30.22
	FillingsUpdate:  mu: -0.088035654  nElectrons: 9.000000  magneticMoment: [ Abs: 0.42340  Tot: +0.42000 ]
SCF: Cycle: 12   F: -24.452579667768141   dF: -1.156e-05   |Residual|: 4.625e-04   |deigs|: 1.372e-03  t[s]:     32.26
	FillingsUpdate:  mu: -0.086701261  nElectrons: 9.000000  magneticMoment: [ Abs: 0.42384  Tot: +0.42000 ]
SCF: Cycle: 13   F: -24.452585623370329   dF: -5.956e-06   |Residual|: 4.365e-04   |deigs|: 1.352e-03  t[s]:     34.27
	FillingsUpdate:  mu: -0.085400092  nElectrons: 9.000000  magneticMoment: [ Abs: 0.42176  Tot: +0.42000 ]
SCF: Cycle: 14   F: -24.452589878427993   dF: -4.255e-06   |Residual|: 3.808e-04   |deigs|: 1.339e-03  t[s]:     36.41
	FillingsUpdate:  mu: -0.084370823  nElectrons: 9.000000  magneticMoment: [ Abs: 0.42068  Tot: +0.42000 ]
SCF: Cycle: 15   F: -24.452592846331321   dF: -2.968e-06   |Residual|: 2.714e-04   |deigs|: 1.108e-03  t[s]:     38.51
	FillingsUpdate:  mu: -0.084066173  nElectrons: 9.000000  magneticMoment: [ Abs: 0.42081  Tot: +0.42000 ]
SCF: Cycle: 16   F: -24.452594053965672   dF: -1.208e-06   |Residual|: 1.916e-04   |deigs|: 1.400e-03  t[s]:     40.55
	FillingsUpdate:  mu: -0.083986292  nElectrons: 9.000000  magneticMoment: [ Abs: 0.42014  Tot: +0.42000 ]
SCF: Cycle: 17   F: -24.452594863113788   dF: -8.091e-07   |Residual|: 1.185e-04   |deigs|: 2.784e-04  t[s]:     42.56
	FillingsUpdate:  mu: -0.083974105  nElectrons: 9.000000  magneticMoment: [ Abs: 0.42007  Tot: +0.42000 ]
SCF: Cycle: 18   F: -24.452595115171466   dF: -2.521e-07   |Residual|: 7.978e-05   |deigs|: 1.366e-04  t[s]:     44.54
	FillingsUpdate:  mu: -0.083955331  nElectrons: 9.000000  magneticMoment: [ Abs: 0.42011  Tot: +0.42000 ]
SCF: Cycle: 19   F: -24.452595192725685   dF: -7.755e-08   |Residual|: 3.903e-05   |deigs|: 1.170e-04  t[s]:     46.56
	FillingsUpdate:  mu: -0.083935393  nElectrons: 9.000000  magneticMoment: [ Abs: 0.42015  Tot: +0.42000 ]
SCF: Cycle: 20   F: -24.452595251041988   dF: -5.832e-08   |Residual|: 2.154e-05   |deigs|: 9.785e-05  t[s]:     48.63
	FillingsUpdate:  mu: -0.083934967  nElectrons: 9.000000  magneticMoment: [ Abs: 0.42020  Tot: +0.42000 ]
SCF: Cycle: 21   F: -24.452595264445431   dF: -1.340e-08   |Residual|: 1.272e-05   |deigs|: 7.833e-05  t[s]:     50.67
	FillingsUpdate:  mu: -0.083929328  nElectrons: 9.000000  magneticMoment: [ Abs: 0.42022  Tot: +0.42000 ]
SCF: Cycle: 22   F: -24.452595273782411   dF: -9.337e-09   |Residual|: 7.766e-06   |deigs|: 5.519e-05  t[s]:     52.75
	FillingsUpdate:  mu: -0.083924998  nElectrons: 9.000000  magneticMoment: [ Abs: 0.42021  Tot: +0.42000 ]
SCF: Cycle: 23   F: -24.452595276002214   dF: -2.220e-09   |Residual|: 5.284e-06   |deigs|: 5.138e-05  t[s]:     54.78
SCF: Converged (|Delta E|<1.000000e-08 for 2 iters).


# Ionic positions in lattice coordinates:
ion Rb   0.000000000000000   0.000000000000000   0.000000000000000 0

# Forces in Lattice coordinates:
force Rb   0.000000000000000   0.000000000000000   0.000000000000000 0

# Energy components:
   Eewald =      -18.0480261003326561
       EH =        1.6537911872536148
     Eloc =      -10.5654587909256499
      Enl =       -0.7966891884520830
   Epulay =        0.0000000035676145
      Exc =       -3.6776851376630662
       KE =        6.9814735337639178
-------------------------------------
     Etot =      -24.4525944927883110
       TS =        0.0000007832139037
-------------------------------------
        F =      -24.4525952760022136

IonicMinimize: Iter:   0  F: -24.452595276002214  |grad|_K:  0.000e+00  t[s]:     54.90
IonicMinimize: Converged (|grad|_K<1.000000e-04).

#--- Lowdin population analysis ---
# oxidation-state Rb +0.056
# magnetic-moments Rb +0.373

End date and time: Sun Feb  6 12:53:06 2022  (Duration: 0-0:00:54.92)
Done!
