
*************** JDFTx 1.6.0 (git hash 42ebbcc2) ***************

Start date and time: Sun Feb  6 12:59:54 2022
Executable jdftx with command-line: -i Alkali.in
Running on hosts (process indices):  d-16-8-3 (0-18)
Divided in process groups (process indices):  0 (0)  1 (1)  2 (2)  3 (3)  4 (4)  5 (5)  6 (6)  7 (7)  8 (8)  9 (9)  10 (10)  11 (11)  12 (12)  13 (13)  14 (14)  15 (15)  16 (16)  17 (17)  18 (18)
Resource initialization completed at t[s]:      0.00
Run totals: 19 processes, 48 threads, 0 GPUs


Input parsed successfully to the following command list (including defaults):

basis kpoint-dependent
coords-type Lattice
core-overlap-check vector
coulomb-interaction Slab 001
davidson-band-ratio 1.1
dump End None
dump-name $INPUT.$VAR
elec-cutoff 20
elec-eigen-algo Davidson
elec-ex-corr gga-PBE
elec-initial-magnetization 1.000000 yes
elec-smearing Fermi 1e-05
electronic-minimize  \
	dirUpdateScheme      FletcherReeves \
	linminMethod         DirUpdateRecommended \
	nIterations          100 \
	history              15 \
	knormThreshold       0 \
	energyDiffThreshold  1e-08 \
	nEnergyDiff          2 \
	alphaTstart          1 \
	alphaTmin            1e-10 \
	updateTestStepSize   yes \
	alphaTreduceFactor   0.1 \
	alphaTincreaseFactor 3 \
	nAlphaAdjustMax      3 \
	wolfeEnergy          0.0001 \
	wolfeGradient        0.9 \
	fdTest               no
electronic-scf  \
	nIterations	10000 \
	energyDiffThreshold	1e-08 \
	residualThreshold	1e-07 \
	mixFraction	0.5 \
	qMetric	0.8 \
	history	10 \
	nEigSteps	2 \
	eigDiffThreshold	1e-08 \
	mixedVariable	Density \
	qKerker	0.8 \
	qKappa	-1 \
	verbose	no \
	mixFractionMag	1.5
exchange-regularization WignerSeitzTruncated
fluid None
fluid-ex-corr (null) lda-PZ
fluid-gummel-loop 10 1.000000e-05
fluid-minimize  \
	dirUpdateScheme      PolakRibiere \
	linminMethod         DirUpdateRecommended \
	nIterations          100 \
	history              15 \
	knormThreshold       0 \
	energyDiffThreshold  0 \
	nEnergyDiff          2 \
	alphaTstart          1 \
	alphaTmin            1e-10 \
	updateTestStepSize   yes \
	alphaTreduceFactor   0.1 \
	alphaTincreaseFactor 3 \
	nAlphaAdjustMax      3 \
	wolfeEnergy          0.0001 \
	wolfeGradient        0.9 \
	fdTest               no
fluid-solvent H2O 55.338 ScalarEOS \
	epsBulk 78.4 \
	pMol 0.92466 \
	epsInf 1.77 \
	Pvap 1.06736e-10 \
	sigmaBulk 4.62e-05 \
	Rvdw 2.61727 \
	Res 1.42 \
	tauNuc 343133 \
	poleEl 15 7 1
forces-output-coords Positions
ion Rb   0.000000000000000   0.000000000000000   0.000000000000000 0
ion-species SG15/$ID_ONCV_PBE.upf
ion-width 0
ionic-minimize  \
	dirUpdateScheme      L-BFGS \
	linminMethod         DirUpdateRecommended \
	nIterations          0 \
	history              15 \
	knormThreshold       0.0001 \
	energyDiffThreshold  1e-06 \
	nEnergyDiff          2 \
	alphaTstart          1 \
	alphaTmin            1e-10 \
	updateTestStepSize   yes \
	alphaTreduceFactor   0.1 \
	alphaTincreaseFactor 3 \
	nAlphaAdjustMax      3 \
	wolfeEnergy          0.0001 \
	wolfeGradient        0.9 \
	fdTest               no
kpoint   0.000000000000   0.000000000000   0.000000000000  1.00000000000000
kpoint-folding 12 12 1 
latt-move-scale 1 1 1
latt-scale 2 2 1 
lattice  \
	   4.727486978767153   -2.363743489383575    0.000000000000000  \
	  -0.000000000000000    4.094123819672498    0.000000000000000  \
	   0.000000000000000    0.000000000000000   40.000000000000000 
lattice-minimize  \
	dirUpdateScheme      L-BFGS \
	linminMethod         DirUpdateRecommended \
	nIterations          0 \
	history              15 \
	knormThreshold       0 \
	energyDiffThreshold  1e-06 \
	nEnergyDiff          2 \
	alphaTstart          1 \
	alphaTmin            1e-10 \
	updateTestStepSize   yes \
	alphaTreduceFactor   0.1 \
	alphaTincreaseFactor 3 \
	nAlphaAdjustMax      3 \
	wolfeEnergy          0.0001 \
	wolfeGradient        0.9 \
	fdTest               no
lcao-params -1 1e-06 1e-05
pcm-variant GLSSA13
spintype z-spin
subspace-rotation-factor 1 yes
symmetries automatic
symmetry-threshold 0.0001



---------- Setting up symmetries ----------

Found 24 point-group symmetries of the bravais lattice
Found 24 space-group symmetries with basis
Applied RMS atom displacement 0 bohrs to make symmetries exact.

---------- Initializing the Grid ----------
R = 
[      9.45497     -4.72749            0  ]
[            0      8.18825            0  ]
[            0            0           40  ]
unit cell volume = 3096.79
G =
[   0.664538   0.383671         -0  ]
[          0   0.767342         -0  ]
[         -0         -0    0.15708  ]
Minimum fftbox size, Smin = [  40  40  164  ]
Chosen fftbox size, S = [  40  40  168  ]

---------- Exchange Correlation functional ----------
Initalized PBE GGA exchange.
Initalized PBE GGA correlation.

---------- Setting up pseudopotentials ----------
Width of ionic core gaussian charges (only for fluid interactions / plotting) set to 0

Reading pseudopotential file '/home/gridsan/aligho/DFT/build-Nov24/pseudopotentials/SG15/Rb_ONCV_PBE.upf':
  'Rb' pseudopotential, 'PBE' functional
  Generated using ONCVPSP code by D. R. Hamann
  Author: Martin Schlipf and Francois Gygi  Date: 150915.
  9 valence electrons, 3 orbitals, 6 projectors, 2308 radial grid points, with lMax = 2
  Transforming local potential to a uniform radial grid of dG=0.02 with 1489 points.
  Transforming nonlocal projectors to a uniform radial grid of dG=0.02 with 432 points.
    4S    l: 0   occupation:  2.0   eigenvalue: -1.172069
    4P    l: 1   occupation:  6.0   eigenvalue: -0.586674
    5S    l: 0   occupation:  1.0   eigenvalue: -0.082006
  Transforming atomic orbitals to a uniform radial grid of dG=0.02 with 432 points.
  Core radius for overlap checks: 2.60 bohrs.
  Reading pulay file /home/gridsan/aligho/DFT/build-Nov24/pseudopotentials/SG15/Rb_ONCV_PBE.pulay ... using dE_dnG = -1.360715e-05 computed for Ecut = 20.

Initialized 1 species with 1 total atoms.

Folded 1 k-points by 12x12x1 to 144 k-points.

---------- Setting up k-points, bands, fillings ----------
Reduced to 19 k-points under symmetry. 
Computing the number of bands and number of electrons
Calculating initial fillings.
nElectrons:   9.000000   nBands: 6   nStates: 38

----- Setting up reduced wavefunction bases (one per k-point) -----
average nbasis = 13230.521 , ideal nbasis = 13229.709

---------- Setting up coulomb interaction ----------
Initialized slab truncation along lattice direction 001

---------- Setting up 2D ewald sum ----------
Optimum gaussian width for ewald sums = 5.249020 bohr.
Real space sums over 289 unit cells with max indices [  8  8  0  ]
Reciprocal space sums over 81 terms with max indices [  4  4  0  ]

---------- Allocating electronic variables ----------
Initializing wave functions:  linear combination of atomic orbitals
Note: number of bands (6) exceeds available atomic orbitals (5)
Rb pseudo-atom occupations:   s ( 2 1 )  p ( 6 )
	FillingsUpdate:  mu: -0.100000000  nElectrons: 9.000000  magneticMoment: [ Abs: 1.00000  Tot: +1.00000 ]
LCAOMinimize: Iter:   0  F: -24.4272320905164548  |grad|_K:       -nan  alpha:  1.000e+00
LCAOMinimize: |grad|_K=-nan. Stopping ...


---- Citations for features of the code used in this run ----

   Software package:
      R. Sundararaman, K. Letchworth-Weaver, K.A. Schwarz, D. Gunceler, Y. Ozhabes and T.A. Arias, 'JDFTx: software for joint density-functional theory', SoftwareX 6, 278 (2017)

   gga-PBE exchange-correlation functional:
      J.P. Perdew, K. Burke and M. Ernzerhof, Phys. Rev. Lett. 77, 3865 (1996)

   Pseudopotentials:
      M Schlipf and F Gygi, Comput. Phys. Commun. 196, 36 (2015)

   Truncated Coulomb potentials:
      R. Sundararaman and T.A. Arias, Phys. Rev. B 87, 165122 (2013)

This list may not be complete. Please suggest additional citations or
report any other bugs at https://github.com/shankar1729/jdftx/issues

Initialization completed successfully at t[s]:      3.37


-------- Electronic minimization -----------
Will mix electronic density at each iteration.
	FillingsUpdate:  mu: -0.100000000  nElectrons: 9.000000  magneticMoment: [ Abs: 1.00000  Tot: +1.00000 ]
	FillingsUpdate:  mu: -0.103766985  nElectrons: 9.000000  magneticMoment: [ Abs: 1.00000  Tot: +1.00000 ]
SCF: Cycle:  0   F: -24.439210346498452   dF: -1.198e-02   |Residual|: 1.897e-02   |deigs|: 1.793e-01  t[s]:      5.73
	FillingsUpdate:  mu: -0.106065115  nElectrons: 9.000000  magneticMoment: [ Abs: 1.00000  Tot: +1.00000 ]
SCF: Cycle:  1   F: -24.440064266406957   dF: -8.539e-04   |Residual|: 1.322e-02   |deigs|: 8.238e-03  t[s]:      7.57
	FillingsUpdate:  mu: -0.106275550  nElectrons: 9.000000  magneticMoment: [ Abs: 1.00382  Tot: +1.00000 ]
SCF: Cycle:  2   F: -24.440328854067637   dF: -2.646e-04   |Residual|: 8.145e-03   |deigs|: 3.174e-03  t[s]:      9.39
	FillingsUpdate:  mu: -0.200000000  nElectrons: 9.000000  magneticMoment: [ Abs: 1.00011  Tot: +1.00000 ]
SCF: Cycle:  3   F: -24.440499417622767   dF: -1.706e-04   |Residual|: 4.352e-03   |deigs|: 1.899e-03  t[s]:     11.26
	FillingsUpdate:  mu: -0.106523088  nElectrons: 9.000000  magneticMoment: [ Abs: 1.00021  Tot: +1.00000 ]
SCF: Cycle:  4   F: -24.440683841415218   dF: -1.844e-04   |Residual|: 2.517e-03   |deigs|: 2.865e-03  t[s]:     13.11
	FillingsUpdate:  mu: -0.105913859  nElectrons: 9.000000  magneticMoment: [ Abs: 1.00001  Tot: +1.00000 ]
SCF: Cycle:  5   F: -24.440624650643706   dF: +5.919e-05   |Residual|: 2.768e-03   |deigs|: 1.858e-03  t[s]:     15.03
	FillingsUpdate:  mu: -0.173813308  nElectrons: 9.000000  magneticMoment: [ Abs: 1.00157  Tot: +1.00000 ]
SCF: Cycle:  6   F: -24.440646198925631   dF: -2.155e-05   |Residual|: 2.264e-03   |deigs|: 1.583e-03  t[s]:     16.91
	FillingsUpdate:  mu: -0.172643176  nElectrons: 9.000000  magneticMoment: [ Abs: 1.00270  Tot: +1.00000 ]
SCF: Cycle:  7   F: -24.440658880069865   dF: -1.268e-05   |Residual|: 2.100e-03   |deigs|: 1.613e-03  t[s]:     18.85
	FillingsUpdate:  mu: -0.101095088  nElectrons: 9.000000  magneticMoment: [ Abs: 1.00262  Tot: +1.00000 ]
SCF: Cycle:  8   F: -24.440671021538616   dF: -1.214e-05   |Residual|: 1.224e-03   |deigs|: 2.712e-03  t[s]:     20.83
	FillingsUpdate:  mu: -0.169460235  nElectrons: 9.000000  magneticMoment: [ Abs: 1.00022  Tot: +1.00000 ]
SCF: Cycle:  9   F: -24.440771706919303   dF: -1.007e-04   |Residual|: 1.542e-03   |deigs|: 1.945e-03  t[s]:     22.88
	FillingsUpdate:  mu: -0.136666376  nElectrons: 9.000000  magneticMoment: [ Abs: 1.00006  Tot: +1.00000 ]
SCF: Cycle: 10   F: -24.440775917688295   dF: -4.211e-06   |Residual|: 9.292e-04   |deigs|: 1.327e-03  t[s]:     24.86
	FillingsUpdate:  mu: -0.100698505  nElectrons: 9.000000  magneticMoment: [ Abs: 1.00166  Tot: +1.00000 ]
SCF: Cycle: 11   F: -24.440786644272222   dF: -1.073e-05   |Residual|: 6.498e-04   |deigs|: 4.910e-04  t[s]:     26.85
	FillingsUpdate:  mu: -0.101148704  nElectrons: 9.000000  magneticMoment: [ Abs: 1.00053  Tot: +1.00000 ]
SCF: Cycle: 12   F: -24.440786279548345   dF: +3.647e-07   |Residual|: 5.403e-04   |deigs|: 5.589e-04  t[s]:     28.83
	FillingsUpdate:  mu: -0.200000000  nElectrons: 9.000000  magneticMoment: [ Abs: 1.00158  Tot: +1.00000 ]
SCF: Cycle: 13   F: -24.440785638513201   dF: +6.410e-07   |Residual|: 8.201e-04   |deigs|: 3.011e-04  t[s]:     30.87
	FillingsUpdate:  mu: -0.200000000  nElectrons: 9.000000  magneticMoment: [ Abs: 1.00224  Tot: +1.00000 ]
SCF: Cycle: 14   F: -24.440786457581812   dF: -8.191e-07   |Residual|: 9.628e-04   |deigs|: 3.632e-04  t[s]:     32.91
	FillingsUpdate:  mu: -0.100456236  nElectrons: 9.000000  magneticMoment: [ Abs: 1.00263  Tot: +1.00000 ]
SCF: Cycle: 15   F: -24.440789960178378   dF: -3.503e-06   |Residual|: 7.524e-04   |deigs|: 1.058e-03  t[s]:     34.88
	FillingsUpdate:  mu: -0.100000000  nElectrons: 9.000000  magneticMoment: [ Abs: 1.00336  Tot: +1.00000 ]
SCF: Cycle: 16   F: -24.440792777852593   dF: -2.818e-06   |Residual|: 5.128e-04   |deigs|: 1.301e-03  t[s]:     36.85
	FillingsUpdate:  mu: -0.100000000  nElectrons: 9.000000  magneticMoment: [ Abs: 1.00294  Tot: +1.00000 ]
SCF: Cycle: 17   F: -24.440794712593007   dF: -1.935e-06   |Residual|: 3.163e-04   |deigs|: 1.455e-03  t[s]:     38.83
	FillingsUpdate:  mu: -0.100000000  nElectrons: 9.000000  magneticMoment: [ Abs: 1.00113  Tot: +1.00000 ]
SCF: Cycle: 18   F: -24.440796247741392   dF: -1.535e-06   |Residual|: 1.483e-04   |deigs|: 1.880e-03  t[s]:     40.89
	FillingsUpdate:  mu: -0.100000000  nElectrons: 9.000000  magneticMoment: [ Abs: 1.00102  Tot: +1.00000 ]
SCF: Cycle: 19   F: -24.440796572602583   dF: -3.249e-07   |Residual|: 9.668e-05   |deigs|: 4.097e-04  t[s]:     42.87
	FillingsUpdate:  mu: -0.100000000  nElectrons: 9.000000  magneticMoment: [ Abs: 1.00094  Tot: +1.00000 ]
SCF: Cycle: 20   F: -24.440796839650094   dF: -2.670e-07   |Residual|: 6.869e-05   |deigs|: 1.137e-04  t[s]:     44.83
	FillingsUpdate:  mu: -0.095559079  nElectrons: 9.000000  magneticMoment: [ Abs: 1.00085  Tot: +1.00000 ]
SCF: Cycle: 21   F: -24.440797076571151   dF: -2.369e-07   |Residual|: 4.492e-05   |deigs|: 1.076e-04  t[s]:     46.83
	FillingsUpdate:  mu: -0.095643107  nElectrons: 9.000000  magneticMoment: [ Abs: 1.00061  Tot: +1.00000 ]
SCF: Cycle: 22   F: -24.440797305397130   dF: -2.288e-07   |Residual|: 3.220e-05   |deigs|: 8.586e-05  t[s]:     48.87
	FillingsUpdate:  mu: -0.100000000  nElectrons: 9.000000  magneticMoment: [ Abs: 1.00051  Tot: +1.00000 ]
SCF: Cycle: 23   F: -24.440797349512479   dF: -4.412e-08   |Residual|: 2.656e-05   |deigs|: 1.572e-04  t[s]:     50.84
	FillingsUpdate:  mu: -0.095819448  nElectrons: 9.000000  magneticMoment: [ Abs: 1.00034  Tot: +1.00000 ]
SCF: Cycle: 24   F: -24.440797364294117   dF: -1.478e-08   |Residual|: 2.100e-05   |deigs|: 8.389e-05  t[s]:     52.84
	FillingsUpdate:  mu: -0.100000000  nElectrons: 9.000000  magneticMoment: [ Abs: 1.00022  Tot: +1.00000 ]
SCF: Cycle: 25   F: -24.440797376248494   dF: -1.195e-08   |Residual|: 1.669e-05   |deigs|: 6.705e-05  t[s]:     54.85
	FillingsUpdate:  mu: -0.100000000  nElectrons: 9.000000  magneticMoment: [ Abs: 1.00014  Tot: +1.00000 ]
SCF: Cycle: 26   F: -24.440797380593196   dF: -4.345e-09   |Residual|: 1.326e-05   |deigs|: 9.920e-05  t[s]:     56.84
	FillingsUpdate:  mu: -0.095697232  nElectrons: 9.000000  magneticMoment: [ Abs: 1.00013  Tot: +1.00000 ]
SCF: Cycle: 27   F: -24.440797385151736   dF: -4.559e-09   |Residual|: 9.365e-06   |deigs|: 4.953e-05  t[s]:     58.88
SCF: Converged (|Delta E|<1.000000e-08 for 2 iters).


# Ionic positions in lattice coordinates:
ion Rb   0.000000000000000   0.000000000000000   0.000000000000000 0

# Forces in Lattice coordinates:
force Rb  -0.000000000000000   0.000000000000000   0.000000000000000 0

# Energy components:
   Eewald =      -18.0480261003326561
       EH =        1.6317336183387210
     Eloc =      -10.5431247812580100
      Enl =       -0.8018337299572913
   Epulay =        0.0000000035676145
      Exc =       -3.6835403317200579
       KE =        7.0039941239437766
-------------------------------------
     Etot =      -24.4407971974179006
       TS =        0.0000001877338370
-------------------------------------
        F =      -24.4407973851517362

IonicMinimize: Iter:   0  F: -24.440797385151736  |grad|_K:  0.000e+00  t[s]:     58.99
IonicMinimize: Converged (|grad|_K<1.000000e-04).

#--- Lowdin population analysis ---
# oxidation-state Rb +0.199
# magnetic-moments Rb +0.801

End date and time: Sun Feb  6 13:00:53 2022  (Duration: 0-0:00:59.02)
Done!
