
*************** JDFTx 1.6.0 (git hash 42ebbcc2) ***************

Start date and time: Sun Feb  6 12:34:52 2022
Executable jdftx with command-line: -i Alkali.in
Running on hosts (process indices):  d-4-5-2 (0-18)
Divided in process groups (process indices):  0 (0)  1 (1)  2 (2)  3 (3)  4 (4)  5 (5)  6 (6)  7 (7)  8 (8)  9 (9)  10 (10)  11 (11)  12 (12)  13 (13)  14 (14)  15 (15)  16 (16)  17 (17)  18 (18)
Resource initialization completed at t[s]:      0.00
Run totals: 19 processes, 48 threads, 0 GPUs


Input parsed successfully to the following command list (including defaults):

basis kpoint-dependent
coords-type Lattice
core-overlap-check vector
coulomb-interaction Slab 001
davidson-band-ratio 1.1
dump End None
dump-name $INPUT.$VAR
elec-cutoff 20
elec-eigen-algo Davidson
elec-ex-corr gga-PBE
elec-initial-magnetization -0.980000 yes
elec-smearing Fermi 1e-05
electronic-minimize  \
	dirUpdateScheme      FletcherReeves \
	linminMethod         DirUpdateRecommended \
	nIterations          100 \
	history              15 \
	knormThreshold       0 \
	energyDiffThreshold  1e-08 \
	nEnergyDiff          2 \
	alphaTstart          1 \
	alphaTmin            1e-10 \
	updateTestStepSize   yes \
	alphaTreduceFactor   0.1 \
	alphaTincreaseFactor 3 \
	nAlphaAdjustMax      3 \
	wolfeEnergy          0.0001 \
	wolfeGradient        0.9 \
	fdTest               no
electronic-scf  \
	nIterations	10000 \
	energyDiffThreshold	1e-08 \
	residualThreshold	1e-07 \
	mixFraction	0.5 \
	qMetric	0.8 \
	history	10 \
	nEigSteps	2 \
	eigDiffThreshold	1e-08 \
	mixedVariable	Density \
	qKerker	0.8 \
	qKappa	-1 \
	verbose	no \
	mixFractionMag	1.5
exchange-regularization WignerSeitzTruncated
fluid None
fluid-ex-corr (null) lda-PZ
fluid-gummel-loop 10 1.000000e-05
fluid-minimize  \
	dirUpdateScheme      PolakRibiere \
	linminMethod         DirUpdateRecommended \
	nIterations          100 \
	history              15 \
	knormThreshold       0 \
	energyDiffThreshold  0 \
	nEnergyDiff          2 \
	alphaTstart          1 \
	alphaTmin            1e-10 \
	updateTestStepSize   yes \
	alphaTreduceFactor   0.1 \
	alphaTincreaseFactor 3 \
	nAlphaAdjustMax      3 \
	wolfeEnergy          0.0001 \
	wolfeGradient        0.9 \
	fdTest               no
fluid-solvent H2O 55.338 ScalarEOS \
	epsBulk 78.4 \
	pMol 0.92466 \
	epsInf 1.77 \
	Pvap 1.06736e-10 \
	sigmaBulk 4.62e-05 \
	Rvdw 2.61727 \
	Res 1.42 \
	tauNuc 343133 \
	poleEl 15 7 1
forces-output-coords Positions
ion Rb   0.000000000000000   0.000000000000000   0.000000000000000 0
ion-species SG15/$ID_ONCV_PBE.upf
ion-width 0
ionic-minimize  \
	dirUpdateScheme      L-BFGS \
	linminMethod         DirUpdateRecommended \
	nIterations          0 \
	history              15 \
	knormThreshold       0.0001 \
	energyDiffThreshold  1e-06 \
	nEnergyDiff          2 \
	alphaTstart          1 \
	alphaTmin            1e-10 \
	updateTestStepSize   yes \
	alphaTreduceFactor   0.1 \
	alphaTincreaseFactor 3 \
	nAlphaAdjustMax      3 \
	wolfeEnergy          0.0001 \
	wolfeGradient        0.9 \
	fdTest               no
kpoint   0.000000000000   0.000000000000   0.000000000000  1.00000000000000
kpoint-folding 12 12 1 
latt-move-scale 1 1 1
latt-scale 2 2 1 
lattice  \
	   4.727486978767153   -2.363743489383575    0.000000000000000  \
	  -0.000000000000000    4.094123819672498    0.000000000000000  \
	   0.000000000000000    0.000000000000000   40.000000000000000 
lattice-minimize  \
	dirUpdateScheme      L-BFGS \
	linminMethod         DirUpdateRecommended \
	nIterations          0 \
	history              15 \
	knormThreshold       0 \
	energyDiffThreshold  1e-06 \
	nEnergyDiff          2 \
	alphaTstart          1 \
	alphaTmin            1e-10 \
	updateTestStepSize   yes \
	alphaTreduceFactor   0.1 \
	alphaTincreaseFactor 3 \
	nAlphaAdjustMax      3 \
	wolfeEnergy          0.0001 \
	wolfeGradient        0.9 \
	fdTest               no
lcao-params -1 1e-06 1e-05
pcm-variant GLSSA13
spintype z-spin
subspace-rotation-factor 1 yes
symmetries automatic
symmetry-threshold 0.0001



---------- Setting up symmetries ----------

Found 24 point-group symmetries of the bravais lattice
Found 24 space-group symmetries with basis
Applied RMS atom displacement 0 bohrs to make symmetries exact.

---------- Initializing the Grid ----------
R = 
[      9.45497     -4.72749            0  ]
[            0      8.18825            0  ]
[            0            0           40  ]
unit cell volume = 3096.79
G =
[   0.664538   0.383671         -0  ]
[          0   0.767342         -0  ]
[         -0         -0    0.15708  ]
Minimum fftbox size, Smin = [  40  40  164  ]
Chosen fftbox size, S = [  40  40  168  ]

---------- Exchange Correlation functional ----------
Initalized PBE GGA exchange.
Initalized PBE GGA correlation.

---------- Setting up pseudopotentials ----------
Width of ionic core gaussian charges (only for fluid interactions / plotting) set to 0

Reading pseudopotential file '/home/gridsan/aligho/DFT/build-Nov24/pseudopotentials/SG15/Rb_ONCV_PBE.upf':
  'Rb' pseudopotential, 'PBE' functional
  Generated using ONCVPSP code by D. R. Hamann
  Author: Martin Schlipf and Francois Gygi  Date: 150915.
  9 valence electrons, 3 orbitals, 6 projectors, 2308 radial grid points, with lMax = 2
  Transforming local potential to a uniform radial grid of dG=0.02 with 1489 points.
  Transforming nonlocal projectors to a uniform radial grid of dG=0.02 with 432 points.
    4S    l: 0   occupation:  2.0   eigenvalue: -1.172069
    4P    l: 1   occupation:  6.0   eigenvalue: -0.586674
    5S    l: 0   occupation:  1.0   eigenvalue: -0.082006
  Transforming atomic orbitals to a uniform radial grid of dG=0.02 with 432 points.
  Core radius for overlap checks: 2.60 bohrs.
  Reading pulay file /home/gridsan/aligho/DFT/build-Nov24/pseudopotentials/SG15/Rb_ONCV_PBE.pulay ... using dE_dnG = -1.360715e-05 computed for Ecut = 20.

Initialized 1 species with 1 total atoms.

Folded 1 k-points by 12x12x1 to 144 k-points.

---------- Setting up k-points, bands, fillings ----------
Reduced to 19 k-points under symmetry. 
Computing the number of bands and number of electrons
Calculating initial fillings.
nElectrons:   9.000000   nBands: 6   nStates: 38

----- Setting up reduced wavefunction bases (one per k-point) -----
average nbasis = 13230.521 , ideal nbasis = 13229.709

---------- Setting up coulomb interaction ----------
Initialized slab truncation along lattice direction 001

---------- Setting up 2D ewald sum ----------
Optimum gaussian width for ewald sums = 5.249020 bohr.
Real space sums over 289 unit cells with max indices [  8  8  0  ]
Reciprocal space sums over 81 terms with max indices [  4  4  0  ]

---------- Allocating electronic variables ----------
Initializing wave functions:  linear combination of atomic orbitals
Note: number of bands (6) exceeds available atomic orbitals (5)
Rb pseudo-atom occupations:   s ( 2 1 )  p ( 6 )
	FillingsUpdate:  mu: -0.085951146  nElectrons: 9.000000  magneticMoment: [ Abs: 0.98000  Tot: -0.98000 ]
LCAOMinimize: Iter:   0  F: -24.4282557067270112  |grad|_K:  2.515e-06  alpha:  1.000e+00
	FillingsUpdate:  mu: -0.085950363  nElectrons: 9.000000  magneticMoment: [ Abs: 0.98000  Tot: -0.98000 ]
LCAOMinimize: Iter:   1  F: -24.4282557109881360  |grad|_K:  2.319e-08  alpha:  9.846e-01  linmin: -1.031e-03  cgtest:  1.692e-02  t[s]:      4.48
LCAOMinimize: Encountered beta<0, resetting CG.
LCAOMinimize: 	Predicted alpha/alphaT>3.000000, increasing alphaT to 2.953882e+00.
	FillingsUpdate:  mu: -0.085950374  nElectrons: 9.000000  magneticMoment: [ Abs: 0.98000  Tot: -0.98000 ]
LCAOMinimize: Iter:   2  F: -24.4282557109887328  |grad|_K:  4.369e-10  alpha:  9.795e-01  linmin: -4.655e-02  cgtest:  8.773e-01  t[s]:      6.11
LCAOMinimize: Encountered beta<0, resetting CG.
LCAOMinimize: Converged (|Delta F|<1.000000e-06 for 2 iters).


---- Citations for features of the code used in this run ----

   Software package:
      R. Sundararaman, K. Letchworth-Weaver, K.A. Schwarz, D. Gunceler, Y. Ozhabes and T.A. Arias, 'JDFTx: software for joint density-functional theory', SoftwareX 6, 278 (2017)

   gga-PBE exchange-correlation functional:
      J.P. Perdew, K. Burke and M. Ernzerhof, Phys. Rev. Lett. 77, 3865 (1996)

   Pseudopotentials:
      M Schlipf and F Gygi, Comput. Phys. Commun. 196, 36 (2015)

   Truncated Coulomb potentials:
      R. Sundararaman and T.A. Arias, Phys. Rev. B 87, 165122 (2013)

This list may not be complete. Please suggest additional citations or
report any other bugs at https://github.com/shankar1729/jdftx/issues

Initialization completed successfully at t[s]:      6.20


-------- Electronic minimization -----------
Will mix electronic density at each iteration.
	FillingsUpdate:  mu: -0.085950374  nElectrons: 9.000000  magneticMoment: [ Abs: 0.98000  Tot: -0.98000 ]
	FillingsUpdate:  mu: -0.103406744  nElectrons: 9.000000  magneticMoment: [ Abs: 0.98000  Tot: -0.98000 ]
SCF: Cycle:  0   F: -24.439962831339887   dF: -1.171e-02   |Residual|: 1.827e-02   |deigs|: 1.783e-01  t[s]:      8.61
	FillingsUpdate:  mu: -0.106106071  nElectrons: 9.000000  magneticMoment: [ Abs: 0.98000  Tot: -0.98000 ]
SCF: Cycle:  1   F: -24.440694475712540   dF: -7.316e-04   |Residual|: 1.296e-02   |deigs|: 7.554e-03  t[s]:     10.43
	FillingsUpdate:  mu: -0.105707897  nElectrons: 9.000000  magneticMoment: [ Abs: 0.98361  Tot: -0.98000 ]
SCF: Cycle:  2   F: -24.440958765589656   dF: -2.643e-04   |Residual|: 7.916e-03   |deigs|: 3.763e-03  t[s]:     12.38
	FillingsUpdate:  mu: -0.105446757  nElectrons: 9.000000  magneticMoment: [ Abs: 0.98004  Tot: -0.98000 ]
SCF: Cycle:  3   F: -24.441211473332000   dF: -2.527e-04   |Residual|: 3.721e-03   |deigs|: 2.264e-03  t[s]:     14.23
	FillingsUpdate:  mu: -0.106330885  nElectrons: 9.000000  magneticMoment: [ Abs: 0.98005  Tot: -0.98000 ]
SCF: Cycle:  4   F: -24.441313548967617   dF: -1.021e-04   |Residual|: 2.083e-03   |deigs|: 1.837e-03  t[s]:     16.10
	FillingsUpdate:  mu: -0.104495995  nElectrons: 9.000000  magneticMoment: [ Abs: 0.98011  Tot: -0.98000 ]
SCF: Cycle:  5   F: -24.441352282049014   dF: -3.873e-05   |Residual|: 1.505e-03   |deigs|: 1.514e-03  t[s]:     18.06
	FillingsUpdate:  mu: -0.103202015  nElectrons: 9.000000  magneticMoment: [ Abs: 0.98113  Tot: -0.98000 ]
SCF: Cycle:  6   F: -24.441249863209965   dF: +1.024e-04   |Residual|: 2.599e-03   |deigs|: 1.295e-03  t[s]:     20.04
	FillingsUpdate:  mu: -0.105144154  nElectrons: 9.000000  magneticMoment: [ Abs: 0.98304  Tot: -0.98000 ]
SCF: Cycle:  7   F: -24.441342082161238   dF: -9.222e-05   |Residual|: 2.511e-03   |deigs|: 2.341e-03  t[s]:     22.00
	FillingsUpdate:  mu: -0.106638223  nElectrons: 9.000000  magneticMoment: [ Abs: 0.98266  Tot: -0.98000 ]
SCF: Cycle:  8   F: -24.441391812910204   dF: -4.973e-05   |Residual|: 2.725e-03   |deigs|: 2.231e-03  t[s]:     24.00
	FillingsUpdate:  mu: -0.110027420  nElectrons: 9.000000  magneticMoment: [ Abs: 0.98160  Tot: -0.98000 ]
SCF: Cycle:  9   F: -24.441395758844585   dF: -3.946e-06   |Residual|: 4.274e-03   |deigs|: 3.693e-03  t[s]:     26.00
	FillingsUpdate:  mu: -0.111418362  nElectrons: 9.000000  magneticMoment: [ Abs: 0.98144  Tot: -0.98000 ]
SCF: Cycle: 10   F: -24.441391101797787   dF: +4.657e-06   |Residual|: 5.003e-03   |deigs|: 1.714e-03  t[s]:     28.13
	FillingsUpdate:  mu: -0.109627785  nElectrons: 9.000000  magneticMoment: [ Abs: 0.98132  Tot: -0.98000 ]
SCF: Cycle: 11   F: -24.441397662920888   dF: -6.561e-06   |Residual|: 4.344e-03   |deigs|: 2.242e-03  t[s]:     30.20
	FillingsUpdate:  mu: -0.107345421  nElectrons: 9.000000  magneticMoment: [ Abs: 0.98000  Tot: -0.98000 ]
SCF: Cycle: 12   F: -24.441403875545280   dF: -6.213e-06   |Residual|: 3.527e-03   |deigs|: 2.523e-03  t[s]:     32.18
	FillingsUpdate:  mu: -0.105985465  nElectrons: 9.000000  magneticMoment: [ Abs: 0.98044  Tot: -0.98000 ]
SCF: Cycle: 13   F: -24.441407038292709   dF: -3.163e-06   |Residual|: 3.043e-03   |deigs|: 1.548e-03  t[s]:     34.17
	FillingsUpdate:  mu: -0.104459451  nElectrons: 9.000000  magneticMoment: [ Abs: 0.98209  Tot: -0.98000 ]
SCF: Cycle: 14   F: -24.441411995024183   dF: -4.957e-06   |Residual|: 2.304e-03   |deigs|: 1.925e-03  t[s]:     36.18
	FillingsUpdate:  mu: -0.102780297  nElectrons: 9.000000  magneticMoment: [ Abs: 0.98280  Tot: -0.98000 ]
SCF: Cycle: 15   F: -24.441414245363791   dF: -2.250e-06   |Residual|: 1.502e-03   |deigs|: 2.103e-03  t[s]:     38.18
	FillingsUpdate:  mu: -0.100433626  nElectrons: 9.000000  magneticMoment: [ Abs: 0.98289  Tot: -0.98000 ]
SCF: Cycle: 16   F: -24.441418025329909   dF: -3.780e-06   |Residual|: 7.385e-04   |deigs|: 2.620e-03  t[s]:     40.17
	FillingsUpdate:  mu: -0.097746845  nElectrons: 9.000000  magneticMoment: [ Abs: 0.98249  Tot: -0.98000 ]
SCF: Cycle: 17   F: -24.441416849628119   dF: +1.176e-06   |Residual|: 3.447e-04   |deigs|: 2.936e-03  t[s]:     42.20
	FillingsUpdate:  mu: -0.097022349  nElectrons: 9.000000  magneticMoment: [ Abs: 0.98284  Tot: -0.98000 ]
SCF: Cycle: 18   F: -24.441418927375551   dF: -2.078e-06   |Residual|: 3.056e-04   |deigs|: 7.186e-04  t[s]:     44.21
	FillingsUpdate:  mu: -0.095755159  nElectrons: 9.000000  magneticMoment: [ Abs: 0.98165  Tot: -0.98000 ]
SCF: Cycle: 19   F: -24.441422522132136   dF: -3.595e-06   |Residual|: 2.220e-04   |deigs|: 1.129e-03  t[s]:     46.25
	FillingsUpdate:  mu: -0.095251912  nElectrons: 9.000000  magneticMoment: [ Abs: 0.98086  Tot: -0.98000 ]
SCF: Cycle: 20   F: -24.441424184917238   dF: -1.663e-06   |Residual|: 1.739e-04   |deigs|: 4.622e-04  t[s]:     48.31
	FillingsUpdate:  mu: -0.095245840  nElectrons: 9.000000  magneticMoment: [ Abs: 0.98088  Tot: -0.98000 ]
SCF: Cycle: 21   F: -24.441425193306433   dF: -1.008e-06   |Residual|: 1.257e-04   |deigs|: 2.070e-04  t[s]:     50.34
	FillingsUpdate:  mu: -0.095374448  nElectrons: 9.000000  magneticMoment: [ Abs: 0.98074  Tot: -0.98000 ]
SCF: Cycle: 22   F: -24.441425618500535   dF: -4.252e-07   |Residual|: 8.389e-05   |deigs|: 1.941e-04  t[s]:     52.39
	FillingsUpdate:  mu: -0.095347472  nElectrons: 9.000000  magneticMoment: [ Abs: 0.98074  Tot: -0.98000 ]
SCF: Cycle: 23   F: -24.441425873134623   dF: -2.546e-07   |Residual|: 5.746e-05   |deigs|: 1.116e-04  t[s]:     54.50
	FillingsUpdate:  mu: -0.095373841  nElectrons: 9.000000  magneticMoment: [ Abs: 0.98061  Tot: -0.98000 ]
SCF: Cycle: 24   F: -24.441425950627565   dF: -7.749e-08   |Residual|: 3.507e-05   |deigs|: 6.802e-05  t[s]:     56.52
	FillingsUpdate:  mu: -0.095365392  nElectrons: 9.000000  magneticMoment: [ Abs: 0.98048  Tot: -0.98000 ]
SCF: Cycle: 25   F: -24.441426001322068   dF: -5.069e-08   |Residual|: 2.867e-05   |deigs|: 1.281e-04  t[s]:     58.51
	FillingsUpdate:  mu: -0.095394591  nElectrons: 9.000000  magneticMoment: [ Abs: 0.98029  Tot: -0.98000 ]
SCF: Cycle: 26   F: -24.441426019635177   dF: -1.831e-08   |Residual|: 3.262e-05   |deigs|: 7.314e-05  t[s]:     60.58
	FillingsUpdate:  mu: -0.095381528  nElectrons: 9.000000  magneticMoment: [ Abs: 0.98025  Tot: -0.98000 ]
SCF: Cycle: 27   F: -24.441426031825920   dF: -1.219e-08   |Residual|: 2.219e-05   |deigs|: 3.230e-05  t[s]:     62.61
	FillingsUpdate:  mu: -0.095381311  nElectrons: 9.000000  magneticMoment: [ Abs: 0.98013  Tot: -0.98000 ]
SCF: Cycle: 28   F: -24.441426039053411   dF: -7.227e-09   |Residual|: 1.809e-05   |deigs|: 3.064e-05  t[s]:     64.60
	FillingsUpdate:  mu: -0.095359175  nElectrons: 9.000000  magneticMoment: [ Abs: 0.98011  Tot: -0.98000 ]
SCF: Cycle: 29   F: -24.441426044015266   dF: -4.962e-09   |Residual|: 8.720e-06   |deigs|: 2.785e-05  t[s]:     66.60
SCF: Converged (|Delta E|<1.000000e-08 for 2 iters).


# Ionic positions in lattice coordinates:
ion Rb   0.000000000000000   0.000000000000000   0.000000000000000 0

# Forces in Lattice coordinates:
force Rb   0.000000000000000   0.000000000000000   0.000000000000000 0

# Energy components:
   Eewald =      -18.0480261003326561
       EH =        1.6296460153061674
     Eloc =      -10.5409352556592779
      Enl =       -0.8016587787965186
   Epulay =        0.0000000035676145
      Exc =       -3.6832037742741530
       KE =        7.0027520864156454
-------------------------------------
     Etot =      -24.4414258037731784
       TS =        0.0000002402420859
-------------------------------------
        F =      -24.4414260440152660

IonicMinimize: Iter:   0  F: -24.441426044015266  |grad|_K:  0.000e+00  t[s]:     66.72
IonicMinimize: Converged (|grad|_K<1.000000e-04).

#--- Lowdin population analysis ---
# oxidation-state Rb +0.195
# magnetic-moments Rb -0.786

End date and time: Sun Feb  6 12:35:58 2022  (Duration: 0-0:01:06.75)
Done!
