
*************** JDFTx 1.6.0 (git hash 42ebbcc2) ***************

Start date and time: Sun Feb  6 12:54:16 2022
Executable jdftx with command-line: -i Alkali.in
Running on hosts (process indices):  d-6-13-4 (0-18)
Divided in process groups (process indices):  0 (0)  1 (1)  2 (2)  3 (3)  4 (4)  5 (5)  6 (6)  7 (7)  8 (8)  9 (9)  10 (10)  11 (11)  12 (12)  13 (13)  14 (14)  15 (15)  16 (16)  17 (17)  18 (18)
Resource initialization completed at t[s]:      0.00
Run totals: 19 processes, 48 threads, 0 GPUs


Input parsed successfully to the following command list (including defaults):

basis kpoint-dependent
coords-type Lattice
core-overlap-check vector
coulomb-interaction Slab 001
davidson-band-ratio 1.1
dump End None
dump-name $INPUT.$VAR
elec-cutoff 20
elec-eigen-algo Davidson
elec-ex-corr gga-PBE
elec-initial-magnetization 0.680000 yes
elec-smearing Fermi 1e-05
electronic-minimize  \
	dirUpdateScheme      FletcherReeves \
	linminMethod         DirUpdateRecommended \
	nIterations          100 \
	history              15 \
	knormThreshold       0 \
	energyDiffThreshold  1e-08 \
	nEnergyDiff          2 \
	alphaTstart          1 \
	alphaTmin            1e-10 \
	updateTestStepSize   yes \
	alphaTreduceFactor   0.1 \
	alphaTincreaseFactor 3 \
	nAlphaAdjustMax      3 \
	wolfeEnergy          0.0001 \
	wolfeGradient        0.9 \
	fdTest               no
electronic-scf  \
	nIterations	10000 \
	energyDiffThreshold	1e-08 \
	residualThreshold	1e-07 \
	mixFraction	0.5 \
	qMetric	0.8 \
	history	10 \
	nEigSteps	2 \
	eigDiffThreshold	1e-08 \
	mixedVariable	Density \
	qKerker	0.8 \
	qKappa	-1 \
	verbose	no \
	mixFractionMag	1.5
exchange-regularization WignerSeitzTruncated
fluid None
fluid-ex-corr (null) lda-PZ
fluid-gummel-loop 10 1.000000e-05
fluid-minimize  \
	dirUpdateScheme      PolakRibiere \
	linminMethod         DirUpdateRecommended \
	nIterations          100 \
	history              15 \
	knormThreshold       0 \
	energyDiffThreshold  0 \
	nEnergyDiff          2 \
	alphaTstart          1 \
	alphaTmin            1e-10 \
	updateTestStepSize   yes \
	alphaTreduceFactor   0.1 \
	alphaTincreaseFactor 3 \
	nAlphaAdjustMax      3 \
	wolfeEnergy          0.0001 \
	wolfeGradient        0.9 \
	fdTest               no
fluid-solvent H2O 55.338 ScalarEOS \
	epsBulk 78.4 \
	pMol 0.92466 \
	epsInf 1.77 \
	Pvap 1.06736e-10 \
	sigmaBulk 4.62e-05 \
	Rvdw 2.61727 \
	Res 1.42 \
	tauNuc 343133 \
	poleEl 15 7 1
forces-output-coords Positions
ion Rb   0.000000000000000   0.000000000000000   0.000000000000000 0
ion-species SG15/$ID_ONCV_PBE.upf
ion-width 0
ionic-minimize  \
	dirUpdateScheme      L-BFGS \
	linminMethod         DirUpdateRecommended \
	nIterations          0 \
	history              15 \
	knormThreshold       0.0001 \
	energyDiffThreshold  1e-06 \
	nEnergyDiff          2 \
	alphaTstart          1 \
	alphaTmin            1e-10 \
	updateTestStepSize   yes \
	alphaTreduceFactor   0.1 \
	alphaTincreaseFactor 3 \
	nAlphaAdjustMax      3 \
	wolfeEnergy          0.0001 \
	wolfeGradient        0.9 \
	fdTest               no
kpoint   0.000000000000   0.000000000000   0.000000000000  1.00000000000000
kpoint-folding 12 12 1 
latt-move-scale 1 1 1
latt-scale 2 2 1 
lattice  \
	   4.727486978767153   -2.363743489383575    0.000000000000000  \
	  -0.000000000000000    4.094123819672498    0.000000000000000  \
	   0.000000000000000    0.000000000000000   40.000000000000000 
lattice-minimize  \
	dirUpdateScheme      L-BFGS \
	linminMethod         DirUpdateRecommended \
	nIterations          0 \
	history              15 \
	knormThreshold       0 \
	energyDiffThreshold  1e-06 \
	nEnergyDiff          2 \
	alphaTstart          1 \
	alphaTmin            1e-10 \
	updateTestStepSize   yes \
	alphaTreduceFactor   0.1 \
	alphaTincreaseFactor 3 \
	nAlphaAdjustMax      3 \
	wolfeEnergy          0.0001 \
	wolfeGradient        0.9 \
	fdTest               no
lcao-params -1 1e-06 1e-05
pcm-variant GLSSA13
spintype z-spin
subspace-rotation-factor 1 yes
symmetries automatic
symmetry-threshold 0.0001



---------- Setting up symmetries ----------

Found 24 point-group symmetries of the bravais lattice
Found 24 space-group symmetries with basis
Applied RMS atom displacement 0 bohrs to make symmetries exact.

---------- Initializing the Grid ----------
R = 
[      9.45497     -4.72749            0  ]
[            0      8.18825            0  ]
[            0            0           40  ]
unit cell volume = 3096.79
G =
[   0.664538   0.383671         -0  ]
[          0   0.767342         -0  ]
[         -0         -0    0.15708  ]
Minimum fftbox size, Smin = [  40  40  164  ]
Chosen fftbox size, S = [  40  40  168  ]

---------- Exchange Correlation functional ----------
Initalized PBE GGA exchange.
Initalized PBE GGA correlation.

---------- Setting up pseudopotentials ----------
Width of ionic core gaussian charges (only for fluid interactions / plotting) set to 0

Reading pseudopotential file '/home/gridsan/aligho/DFT/build-Nov24/pseudopotentials/SG15/Rb_ONCV_PBE.upf':
  'Rb' pseudopotential, 'PBE' functional
  Generated using ONCVPSP code by D. R. Hamann
  Author: Martin Schlipf and Francois Gygi  Date: 150915.
  9 valence electrons, 3 orbitals, 6 projectors, 2308 radial grid points, with lMax = 2
  Transforming local potential to a uniform radial grid of dG=0.02 with 1489 points.
  Transforming nonlocal projectors to a uniform radial grid of dG=0.02 with 432 points.
    4S    l: 0   occupation:  2.0   eigenvalue: -1.172069
    4P    l: 1   occupation:  6.0   eigenvalue: -0.586674
    5S    l: 0   occupation:  1.0   eigenvalue: -0.082006
  Transforming atomic orbitals to a uniform radial grid of dG=0.02 with 432 points.
  Core radius for overlap checks: 2.60 bohrs.
  Reading pulay file /home/gridsan/aligho/DFT/build-Nov24/pseudopotentials/SG15/Rb_ONCV_PBE.pulay ... using dE_dnG = -1.360715e-05 computed for Ecut = 20.

Initialized 1 species with 1 total atoms.

Folded 1 k-points by 12x12x1 to 144 k-points.

---------- Setting up k-points, bands, fillings ----------
Reduced to 19 k-points under symmetry. 
Computing the number of bands and number of electrons
Calculating initial fillings.
nElectrons:   9.000000   nBands: 6   nStates: 38

----- Setting up reduced wavefunction bases (one per k-point) -----
average nbasis = 13230.521 , ideal nbasis = 13229.709

---------- Setting up coulomb interaction ----------
Initialized slab truncation along lattice direction 001

---------- Setting up 2D ewald sum ----------
Optimum gaussian width for ewald sums = 5.249020 bohr.
Real space sums over 289 unit cells with max indices [  8  8  0  ]
Reciprocal space sums over 81 terms with max indices [  4  4  0  ]

---------- Allocating electronic variables ----------
Initializing wave functions:  linear combination of atomic orbitals
Note: number of bands (6) exceeds available atomic orbitals (5)
Rb pseudo-atom occupations:   s ( 2 1 )  p ( 6 )
	FillingsUpdate:  mu: -0.096301673  nElectrons: 9.000000  magneticMoment: [ Abs: 0.68000  Tot: +0.68000 ]
LCAOMinimize: Iter:   0  F: -24.4398707397077288  |grad|_K:  2.300e-05  alpha:  1.000e+00
	FillingsUpdate:  mu: -0.096294073  nElectrons: 9.000000  magneticMoment: [ Abs: 0.68000  Tot: +0.68000 ]
LCAOMinimize: Iter:   1  F: -24.4398710943242143  |grad|_K:  2.376e-07  alpha:  9.803e-01  linmin: -1.919e-02  cgtest:  2.567e-01  t[s]:      4.59
LCAOMinimize: Encountered beta<0, resetting CG.
	FillingsUpdate:  mu: -0.096294131  nElectrons: 9.000000  magneticMoment: [ Abs: 0.68000  Tot: +0.68000 ]
LCAOMinimize: Iter:   2  F: -24.4398710943630810  |grad|_K:  2.490e-09  alpha:  9.914e-01  linmin: -1.229e-01  cgtest:  8.511e-01  t[s]:      5.79
LCAOMinimize: Encountered beta<0, resetting CG.
LCAOMinimize: Converged (|Delta F|<1.000000e-06 for 2 iters).


---- Citations for features of the code used in this run ----

   Software package:
      R. Sundararaman, K. Letchworth-Weaver, K.A. Schwarz, D. Gunceler, Y. Ozhabes and T.A. Arias, 'JDFTx: software for joint density-functional theory', SoftwareX 6, 278 (2017)

   gga-PBE exchange-correlation functional:
      J.P. Perdew, K. Burke and M. Ernzerhof, Phys. Rev. Lett. 77, 3865 (1996)

   Pseudopotentials:
      M Schlipf and F Gygi, Comput. Phys. Commun. 196, 36 (2015)

   Truncated Coulomb potentials:
      R. Sundararaman and T.A. Arias, Phys. Rev. B 87, 165122 (2013)

This list may not be complete. Please suggest additional citations or
report any other bugs at https://github.com/shankar1729/jdftx/issues

Initialization completed successfully at t[s]:      5.89


-------- Electronic minimization -----------
Will mix electronic density at each iteration.
	FillingsUpdate:  mu: -0.096294131  nElectrons: 9.000000  magneticMoment: [ Abs: 0.68000  Tot: +0.68000 ]
	FillingsUpdate:  mu: -0.106617309  nElectrons: 9.000000  magneticMoment: [ Abs: 0.68000  Tot: +0.68000 ]
SCF: Cycle:  0   F: -24.448180279118386   dF: -8.309e-03   |Residual|: 1.366e-02   |deigs|: 1.779e-01  t[s]:      8.41
	FillingsUpdate:  mu: -0.107487977  nElectrons: 9.000000  magneticMoment: [ Abs: 0.68000  Tot: +0.68000 ]
SCF: Cycle:  1   F: -24.448547011078166   dF: -3.667e-04   |Residual|: 9.732e-03   |deigs|: 7.112e-03  t[s]:     10.26
	FillingsUpdate:  mu: -0.106518712  nElectrons: 9.000000  magneticMoment: [ Abs: 0.68261  Tot: +0.68000 ]
SCF: Cycle:  2   F: -24.448704740697782   dF: -1.577e-04   |Residual|: 5.947e-03   |deigs|: 2.891e-03  t[s]:     12.16
	FillingsUpdate:  mu: -0.104337498  nElectrons: 9.000000  magneticMoment: [ Abs: 0.68007  Tot: +0.68000 ]
SCF: Cycle:  3   F: -24.448784506309824   dF: -7.977e-05   |Residual|: 3.444e-03   |deigs|: 1.784e-03  t[s]:     14.07
	FillingsUpdate:  mu: -0.102244085  nElectrons: 9.000000  magneticMoment: [ Abs: 0.68012  Tot: +0.68000 ]
SCF: Cycle:  4   F: -24.448833227922229   dF: -4.872e-05   |Residual|: 2.322e-03   |deigs|: 2.012e-03  t[s]:     16.01
	FillingsUpdate:  mu: -0.100534583  nElectrons: 9.000000  magneticMoment: [ Abs: 0.68066  Tot: +0.68000 ]
SCF: Cycle:  5   F: -24.448852210859283   dF: -1.898e-05   |Residual|: 1.750e-03   |deigs|: 3.438e-03  t[s]:     17.98
	FillingsUpdate:  mu: -0.097842738  nElectrons: 9.000000  magneticMoment: [ Abs: 0.68671  Tot: +0.68000 ]
SCF: Cycle:  6   F: -24.448851208137846   dF: +1.003e-06   |Residual|: 1.351e-03   |deigs|: 3.187e-03  t[s]:     19.96
	FillingsUpdate:  mu: -0.095426725  nElectrons: 9.000000  magneticMoment: [ Abs: 0.68808  Tot: +0.68000 ]
SCF: Cycle:  7   F: -24.448875729662735   dF: -2.452e-05   |Residual|: 1.206e-03   |deigs|: 3.004e-03  t[s]:     21.99
	FillingsUpdate:  mu: -0.095926050  nElectrons: 9.000000  magneticMoment: [ Abs: 0.68066  Tot: +0.68000 ]
SCF: Cycle:  8   F: -24.448889818994406   dF: -1.409e-05   |Residual|: 9.153e-04   |deigs|: 2.009e-03  t[s]:     24.02
	FillingsUpdate:  mu: -0.094485112  nElectrons: 9.000000  magneticMoment: [ Abs: 0.68238  Tot: +0.68000 ]
SCF: Cycle:  9   F: -24.448893965876206   dF: -4.147e-06   |Residual|: 7.431e-04   |deigs|: 1.479e-03  t[s]:     26.08
	FillingsUpdate:  mu: -0.093056582  nElectrons: 9.000000  magneticMoment: [ Abs: 0.68422  Tot: +0.68000 ]
SCF: Cycle: 10   F: -24.448896470422095   dF: -2.505e-06   |Residual|: 6.314e-04   |deigs|: 1.479e-03  t[s]:     28.17
	FillingsUpdate:  mu: -0.092359470  nElectrons: 9.000000  magneticMoment: [ Abs: 0.68367  Tot: +0.68000 ]
SCF: Cycle: 11   F: -24.448899110070858   dF: -2.640e-06   |Residual|: 5.839e-04   |deigs|: 7.602e-04  t[s]:     30.27
	FillingsUpdate:  mu: -0.091299763  nElectrons: 9.000000  magneticMoment: [ Abs: 0.68407  Tot: +0.68000 ]
SCF: Cycle: 12   F: -24.448907345966195   dF: -8.236e-06   |Residual|: 5.354e-04   |deigs|: 1.065e-03  t[s]:     32.39
	FillingsUpdate:  mu: -0.089367462  nElectrons: 9.000000  magneticMoment: [ Abs: 0.68522  Tot: +0.68000 ]
SCF: Cycle: 13   F: -24.448914226773020   dF: -6.881e-06   |Residual|: 4.665e-04   |deigs|: 1.951e-03  t[s]:     34.46
	FillingsUpdate:  mu: -0.088249053  nElectrons: 9.000000  magneticMoment: [ Abs: 0.68340  Tot: +0.68000 ]
SCF: Cycle: 14   F: -24.448917451954774   dF: -3.225e-06   |Residual|: 4.323e-04   |deigs|: 1.179e-03  t[s]:     36.50
	FillingsUpdate:  mu: -0.086846350  nElectrons: 9.000000  magneticMoment: [ Abs: 0.68138  Tot: +0.68000 ]
SCF: Cycle: 15   F: -24.448921162247562   dF: -3.710e-06   |Residual|: 3.220e-04   |deigs|: 1.512e-03  t[s]:     38.57
	FillingsUpdate:  mu: -0.086436122  nElectrons: 9.000000  magneticMoment: [ Abs: 0.68108  Tot: +0.68000 ]
SCF: Cycle: 16   F: -24.448922819807066   dF: -1.658e-06   |Residual|: 2.323e-04   |deigs|: 6.687e-04  t[s]:     40.75
	FillingsUpdate:  mu: -0.086157449  nElectrons: 9.000000  magneticMoment: [ Abs: 0.68045  Tot: +0.68000 ]
SCF: Cycle: 17   F: -24.448924389233316   dF: -1.569e-06   |Residual|: 1.627e-04   |deigs|: 3.628e-04  t[s]:     42.87
	FillingsUpdate:  mu: -0.086122932  nElectrons: 9.000000  magneticMoment: [ Abs: 0.68025  Tot: +0.68000 ]
SCF: Cycle: 18   F: -24.448924701954279   dF: -3.127e-07   |Residual|: 1.174e-04   |deigs|: 3.689e-04  t[s]:     44.94
	FillingsUpdate:  mu: -0.086038115  nElectrons: 9.000000  magneticMoment: [ Abs: 0.68059  Tot: +0.68000 ]
SCF: Cycle: 19   F: -24.448925046591871   dF: -3.446e-07   |Residual|: 5.527e-05   |deigs|: 1.307e-04  t[s]:     47.06
	FillingsUpdate:  mu: -0.086013582  nElectrons: 9.000000  magneticMoment: [ Abs: 0.68056  Tot: +0.68000 ]
SCF: Cycle: 20   F: -24.448925126018985   dF: -7.943e-08   |Residual|: 3.209e-05   |deigs|: 4.522e-05  t[s]:     49.12
	FillingsUpdate:  mu: -0.085994055  nElectrons: 9.000000  magneticMoment: [ Abs: 0.68052  Tot: +0.68000 ]
SCF: Cycle: 21   F: -24.448925159318971   dF: -3.330e-08   |Residual|: 2.108e-05   |deigs|: 3.035e-05  t[s]:     51.16
	FillingsUpdate:  mu: -0.086009117  nElectrons: 9.000000  magneticMoment: [ Abs: 0.68048  Tot: +0.68000 ]
SCF: Cycle: 22   F: -24.448925186153215   dF: -2.683e-08   |Residual|: 1.678e-05   |deigs|: 2.436e-05  t[s]:     53.21
	FillingsUpdate:  mu: -0.086033158  nElectrons: 9.000000  magneticMoment: [ Abs: 0.68042  Tot: +0.68000 ]
SCF: Cycle: 23   F: -24.448925186224034   dF: -7.082e-11   |Residual|: 1.314e-05   |deigs|: 3.316e-05  t[s]:     55.28
	FillingsUpdate:  mu: -0.086038823  nElectrons: 9.000000  magneticMoment: [ Abs: 0.68032  Tot: +0.68000 ]
SCF: Cycle: 24   F: -24.448925201008525   dF: -1.478e-08   |Residual|: 1.261e-05   |deigs|: 3.325e-05  t[s]:     57.36
	FillingsUpdate:  mu: -0.086028744  nElectrons: 9.000000  magneticMoment: [ Abs: 0.68022  Tot: +0.68000 ]
SCF: Cycle: 25   F: -24.448925209702395   dF: -8.694e-09   |Residual|: 1.023e-05   |deigs|: 8.890e-05  t[s]:     59.45
	FillingsUpdate:  mu: -0.086019423  nElectrons: 9.000000  magneticMoment: [ Abs: 0.68015  Tot: +0.68000 ]
SCF: Cycle: 26   F: -24.448925213567385   dF: -3.865e-09   |Residual|: 8.161e-06   |deigs|: 2.803e-05  t[s]:     61.50
SCF: Converged (|Delta E|<1.000000e-08 for 2 iters).


# Ionic positions in lattice coordinates:
ion Rb   0.000000000000000   0.000000000000000   0.000000000000000 0

# Forces in Lattice coordinates:
force Rb   0.000000000000000  -0.000000000000000   0.000000000000000 0

# Energy components:
   Eewald =      -18.0480261003326561
       EH =        1.6712279601149540
     Eloc =      -10.5830810004066311
      Enl =       -0.7981251545314750
   Epulay =        0.0000000035676145
      Exc =       -3.6808821305619999
       KE =        6.9899617595328749
-------------------------------------
     Etot =      -24.4489246626173191
       TS =        0.0000005509500667
-------------------------------------
        F =      -24.4489252135673851

IonicMinimize: Iter:   0  F: -24.448925213567385  |grad|_K:  0.000e+00  t[s]:     61.62
IonicMinimize: Converged (|grad|_K<1.000000e-04).

#--- Lowdin population analysis ---
# oxidation-state Rb +0.091
# magnetic-moments Rb +0.595

End date and time: Sun Feb  6 12:55:17 2022  (Duration: 0-0:01:01.64)
Done!
