
*************** JDFTx 1.6.0 (git hash 42ebbcc2) ***************

Start date and time: Sun Feb  6 12:35:55 2022
Executable jdftx with command-line: -i Alkali.in
Running on hosts (process indices):  d-18-13-1 (0-18)
Divided in process groups (process indices):  0 (0)  1 (1)  2 (2)  3 (3)  4 (4)  5 (5)  6 (6)  7 (7)  8 (8)  9 (9)  10 (10)  11 (11)  12 (12)  13 (13)  14 (14)  15 (15)  16 (16)  17 (17)  18 (18)
Resource initialization completed at t[s]:      0.00
Run totals: 19 processes, 48 threads, 0 GPUs


Input parsed successfully to the following command list (including defaults):

basis kpoint-dependent
coords-type Lattice
core-overlap-check vector
coulomb-interaction Slab 001
davidson-band-ratio 1.1
dump End None
dump-name $INPUT.$VAR
elec-cutoff 20
elec-eigen-algo Davidson
elec-ex-corr gga-PBE
elec-initial-magnetization -0.560000 yes
elec-smearing Fermi 1e-05
electronic-minimize  \
	dirUpdateScheme      FletcherReeves \
	linminMethod         DirUpdateRecommended \
	nIterations          100 \
	history              15 \
	knormThreshold       0 \
	energyDiffThreshold  1e-08 \
	nEnergyDiff          2 \
	alphaTstart          1 \
	alphaTmin            1e-10 \
	updateTestStepSize   yes \
	alphaTreduceFactor   0.1 \
	alphaTincreaseFactor 3 \
	nAlphaAdjustMax      3 \
	wolfeEnergy          0.0001 \
	wolfeGradient        0.9 \
	fdTest               no
electronic-scf  \
	nIterations	10000 \
	energyDiffThreshold	1e-08 \
	residualThreshold	1e-07 \
	mixFraction	0.5 \
	qMetric	0.8 \
	history	10 \
	nEigSteps	2 \
	eigDiffThreshold	1e-08 \
	mixedVariable	Density \
	qKerker	0.8 \
	qKappa	-1 \
	verbose	no \
	mixFractionMag	1.5
exchange-regularization WignerSeitzTruncated
fluid None
fluid-ex-corr (null) lda-PZ
fluid-gummel-loop 10 1.000000e-05
fluid-minimize  \
	dirUpdateScheme      PolakRibiere \
	linminMethod         DirUpdateRecommended \
	nIterations          100 \
	history              15 \
	knormThreshold       0 \
	energyDiffThreshold  0 \
	nEnergyDiff          2 \
	alphaTstart          1 \
	alphaTmin            1e-10 \
	updateTestStepSize   yes \
	alphaTreduceFactor   0.1 \
	alphaTincreaseFactor 3 \
	nAlphaAdjustMax      3 \
	wolfeEnergy          0.0001 \
	wolfeGradient        0.9 \
	fdTest               no
fluid-solvent H2O 55.338 ScalarEOS \
	epsBulk 78.4 \
	pMol 0.92466 \
	epsInf 1.77 \
	Pvap 1.06736e-10 \
	sigmaBulk 4.62e-05 \
	Rvdw 2.61727 \
	Res 1.42 \
	tauNuc 343133 \
	poleEl 15 7 1
forces-output-coords Positions
ion Rb   0.000000000000000   0.000000000000000   0.000000000000000 0
ion-species SG15/$ID_ONCV_PBE.upf
ion-width 0
ionic-minimize  \
	dirUpdateScheme      L-BFGS \
	linminMethod         DirUpdateRecommended \
	nIterations          0 \
	history              15 \
	knormThreshold       0.0001 \
	energyDiffThreshold  1e-06 \
	nEnergyDiff          2 \
	alphaTstart          1 \
	alphaTmin            1e-10 \
	updateTestStepSize   yes \
	alphaTreduceFactor   0.1 \
	alphaTincreaseFactor 3 \
	nAlphaAdjustMax      3 \
	wolfeEnergy          0.0001 \
	wolfeGradient        0.9 \
	fdTest               no
kpoint   0.000000000000   0.000000000000   0.000000000000  1.00000000000000
kpoint-folding 12 12 1 
latt-move-scale 1 1 1
latt-scale 3 3 1 
lattice  \
	   4.727486978767153   -2.363743489383575    0.000000000000000  \
	  -0.000000000000000    4.094123819672498    0.000000000000000  \
	   0.000000000000000    0.000000000000000   40.000000000000000 
lattice-minimize  \
	dirUpdateScheme      L-BFGS \
	linminMethod         DirUpdateRecommended \
	nIterations          0 \
	history              15 \
	knormThreshold       0 \
	energyDiffThreshold  1e-06 \
	nEnergyDiff          2 \
	alphaTstart          1 \
	alphaTmin            1e-10 \
	updateTestStepSize   yes \
	alphaTreduceFactor   0.1 \
	alphaTincreaseFactor 3 \
	nAlphaAdjustMax      3 \
	wolfeEnergy          0.0001 \
	wolfeGradient        0.9 \
	fdTest               no
lcao-params -1 1e-06 1e-05
pcm-variant GLSSA13
spintype z-spin
subspace-rotation-factor 1 yes
symmetries automatic
symmetry-threshold 0.0001



---------- Setting up symmetries ----------

Found 24 point-group symmetries of the bravais lattice
Found 24 space-group symmetries with basis
Applied RMS atom displacement 0 bohrs to make symmetries exact.

---------- Initializing the Grid ----------
R = 
[      14.1825     -7.09123            0  ]
[            0      12.2824            0  ]
[            0            0           40  ]
unit cell volume = 6967.77
G =
[   0.443025   0.255781         -0  ]
[          0   0.511561         -0  ]
[         -0         -0    0.15708  ]
Minimum fftbox size, Smin = [  60  60  164  ]
Chosen fftbox size, S = [  60  60  168  ]

---------- Exchange Correlation functional ----------
Initalized PBE GGA exchange.
Initalized PBE GGA correlation.

---------- Setting up pseudopotentials ----------
Width of ionic core gaussian charges (only for fluid interactions / plotting) set to 0

Reading pseudopotential file '/home/gridsan/aligho/DFT/build-Nov24/pseudopotentials/SG15/Rb_ONCV_PBE.upf':
  'Rb' pseudopotential, 'PBE' functional
  Generated using ONCVPSP code by D. R. Hamann
  Author: Martin Schlipf and Francois Gygi  Date: 150915.
  9 valence electrons, 3 orbitals, 6 projectors, 2308 radial grid points, with lMax = 2
  Transforming local potential to a uniform radial grid of dG=0.02 with 1489 points.
  Transforming nonlocal projectors to a uniform radial grid of dG=0.02 with 432 points.
    4S    l: 0   occupation:  2.0   eigenvalue: -1.172069
    4P    l: 1   occupation:  6.0   eigenvalue: -0.586674
    5S    l: 0   occupation:  1.0   eigenvalue: -0.082006
  Transforming atomic orbitals to a uniform radial grid of dG=0.02 with 432 points.
  Core radius for overlap checks: 2.60 bohrs.
  Reading pulay file /home/gridsan/aligho/DFT/build-Nov24/pseudopotentials/SG15/Rb_ONCV_PBE.pulay ... using dE_dnG = -1.360715e-05 computed for Ecut = 20.

Initialized 1 species with 1 total atoms.

Folded 1 k-points by 12x12x1 to 144 k-points.

---------- Setting up k-points, bands, fillings ----------
Reduced to 19 k-points under symmetry. 
Computing the number of bands and number of electrons
Calculating initial fillings.
nElectrons:   9.000000   nBands: 6   nStates: 38

----- Setting up reduced wavefunction bases (one per k-point) -----
average nbasis = 29766.104 , ideal nbasis = 29766.845

---------- Setting up coulomb interaction ----------
Initialized slab truncation along lattice direction 001

---------- Setting up 2D ewald sum ----------
Optimum gaussian width for ewald sums = 7.873530 bohr.
Real space sums over 289 unit cells with max indices [  8  8  0  ]
Reciprocal space sums over 81 terms with max indices [  4  4  0  ]

---------- Allocating electronic variables ----------
Initializing wave functions:  linear combination of atomic orbitals
Note: number of bands (6) exceeds available atomic orbitals (5)
Rb pseudo-atom occupations:   s ( 2 1 )  p ( 6 )
	FillingsUpdate:  mu: -0.085179203  nElectrons: 9.000000  magneticMoment: [ Abs: 0.56000  Tot: -0.56000 ]
LCAOMinimize: Iter:   0  F: -24.4357664668863777  |grad|_K:  1.537e-05  alpha:  1.000e+00
	FillingsUpdate:  mu: -0.085176606  nElectrons: 9.000000  magneticMoment: [ Abs: 0.56000  Tot: -0.56000 ]
LCAOMinimize: Iter:   1  F: -24.4357666266958091  |grad|_K:  1.182e-07  alpha:  9.894e-01  linmin: -1.344e-02  cgtest:  2.933e-01  t[s]:      8.68
LCAOMinimize: Encountered beta<0, resetting CG.
	FillingsUpdate:  mu: -0.085176618  nElectrons: 9.000000  magneticMoment: [ Abs: 0.56000  Tot: -0.56000 ]
LCAOMinimize: Iter:   2  F: -24.4357666267051563  |grad|_K:  4.669e-09  alpha:  9.599e-01  linmin: -8.950e-02  cgtest:  9.919e-01  t[s]:     11.03
LCAOMinimize: Encountered beta<0, resetting CG.
LCAOMinimize: Converged (|Delta F|<1.000000e-06 for 2 iters).


---- Citations for features of the code used in this run ----

   Software package:
      R. Sundararaman, K. Letchworth-Weaver, K.A. Schwarz, D. Gunceler, Y. Ozhabes and T.A. Arias, 'JDFTx: software for joint density-functional theory', SoftwareX 6, 278 (2017)

   gga-PBE exchange-correlation functional:
      J.P. Perdew, K. Burke and M. Ernzerhof, Phys. Rev. Lett. 77, 3865 (1996)

   Pseudopotentials:
      M Schlipf and F Gygi, Comput. Phys. Commun. 196, 36 (2015)

   Truncated Coulomb potentials:
      R. Sundararaman and T.A. Arias, Phys. Rev. B 87, 165122 (2013)

This list may not be complete. Please suggest additional citations or
report any other bugs at https://github.com/shankar1729/jdftx/issues

Initialization completed successfully at t[s]:     11.19


-------- Electronic minimization -----------
Will mix electronic density at each iteration.
	FillingsUpdate:  mu: -0.085176618  nElectrons: 9.000000  magneticMoment: [ Abs: 0.56000  Tot: -0.56000 ]
	FillingsUpdate:  mu: -0.086494521  nElectrons: 9.000000  magneticMoment: [ Abs: 0.56000  Tot: -0.56000 ]
SCF: Cycle:  0   F: -24.437357928456255   dF: -1.591e-03   |Residual|: 4.011e-03   |deigs|: 1.736e-01  t[s]:     15.94
	FillingsUpdate:  mu: -0.086663890  nElectrons: 9.000000  magneticMoment: [ Abs: 0.56048  Tot: -0.56000 ]
SCF: Cycle:  1   F: -24.437416683987454   dF: -5.876e-05   |Residual|: 3.187e-03   |deigs|: 4.546e-03  t[s]:     19.59
	FillingsUpdate:  mu: -0.086822650  nElectrons: 9.000000  magneticMoment: [ Abs: 0.56246  Tot: -0.56000 ]
SCF: Cycle:  2   F: -24.437456088223190   dF: -3.940e-05   |Residual|: 2.295e-03   |deigs|: 2.082e-03  t[s]:     23.32
	FillingsUpdate:  mu: -0.087036530  nElectrons: 9.000000  magneticMoment: [ Abs: 0.56319  Tot: -0.56000 ]
SCF: Cycle:  3   F: -24.437480345707637   dF: -2.426e-05   |Residual|: 1.540e-03   |deigs|: 3.114e-03  t[s]:     27.11
	FillingsUpdate:  mu: -0.087082308  nElectrons: 9.000000  magneticMoment: [ Abs: 0.56134  Tot: -0.56000 ]
SCF: Cycle:  4   F: -24.437491155996362   dF: -1.081e-05   |Residual|: 8.043e-04   |deigs|: 2.137e-03  t[s]:     31.01
	FillingsUpdate:  mu: -0.087145350  nElectrons: 9.000000  magneticMoment: [ Abs: 0.56213  Tot: -0.56000 ]
SCF: Cycle:  5   F: -24.437497883552986   dF: -6.728e-06   |Residual|: 5.147e-04   |deigs|: 1.426e-03  t[s]:     34.97
	FillingsUpdate:  mu: -0.087056525  nElectrons: 9.000000  magneticMoment: [ Abs: 0.56190  Tot: -0.56000 ]
SCF: Cycle:  6   F: -24.437502027283347   dF: -4.144e-06   |Residual|: 3.702e-04   |deigs|: 1.352e-03  t[s]:     39.00
	FillingsUpdate:  mu: -0.086891384  nElectrons: 9.000000  magneticMoment: [ Abs: 0.56217  Tot: -0.56000 ]
SCF: Cycle:  7   F: -24.437502963186457   dF: -9.359e-07   |Residual|: 3.017e-04   |deigs|: 6.168e-04  t[s]:     42.97
	FillingsUpdate:  mu: -0.086645438  nElectrons: 9.000000  magneticMoment: [ Abs: 0.56295  Tot: -0.56000 ]
SCF: Cycle:  8   F: -24.437503179659277   dF: -2.165e-07   |Residual|: 2.424e-04   |deigs|: 3.354e-04  t[s]:     47.09
	FillingsUpdate:  mu: -0.086267117  nElectrons: 9.000000  magneticMoment: [ Abs: 0.56326  Tot: -0.56000 ]
SCF: Cycle:  9   F: -24.437502312540435   dF: +8.671e-07   |Residual|: 2.162e-04   |deigs|: 4.889e-04  t[s]:     51.31
	FillingsUpdate:  mu: -0.086038625  nElectrons: 9.000000  magneticMoment: [ Abs: 0.56301  Tot: -0.56000 ]
SCF: Cycle: 10   F: -24.437502205478150   dF: +1.071e-07   |Residual|: 1.931e-04   |deigs|: 4.193e-04  t[s]:     55.62
	FillingsUpdate:  mu: -0.085927688  nElectrons: 9.000000  magneticMoment: [ Abs: 0.56292  Tot: -0.56000 ]
SCF: Cycle: 11   F: -24.437503887207736   dF: -1.682e-06   |Residual|: 1.440e-04   |deigs|: 3.299e-04  t[s]:     59.85
	FillingsUpdate:  mu: -0.085727008  nElectrons: 9.000000  magneticMoment: [ Abs: 0.56328  Tot: -0.56000 ]
SCF: Cycle: 12   F: -24.437504173341669   dF: -2.861e-07   |Residual|: 1.384e-04   |deigs|: 3.922e-04  t[s]:     64.09
	FillingsUpdate:  mu: -0.085309255  nElectrons: 9.000000  magneticMoment: [ Abs: 0.56299  Tot: -0.56000 ]
SCF: Cycle: 13   F: -24.437503806586189   dF: +3.668e-07   |Residual|: 1.356e-04   |deigs|: 5.380e-04  t[s]:     68.39
	FillingsUpdate:  mu: -0.085094516  nElectrons: 9.000000  magneticMoment: [ Abs: 0.56282  Tot: -0.56000 ]
SCF: Cycle: 14   F: -24.437503607192145   dF: +1.994e-07   |Residual|: 1.253e-04   |deigs|: 3.941e-04  t[s]:     72.61
	FillingsUpdate:  mu: -0.085013799  nElectrons: 9.000000  magneticMoment: [ Abs: 0.56279  Tot: -0.56000 ]
SCF: Cycle: 15   F: -24.437504458887592   dF: -8.517e-07   |Residual|: 1.059e-04   |deigs|: 1.309e-04  t[s]:     76.84
	FillingsUpdate:  mu: -0.084813093  nElectrons: 9.000000  magneticMoment: [ Abs: 0.56215  Tot: -0.56000 ]
SCF: Cycle: 16   F: -24.437505243945836   dF: -7.851e-07   |Residual|: 7.278e-05   |deigs|: 2.286e-04  t[s]:     81.10
	FillingsUpdate:  mu: -0.084659663  nElectrons: 9.000000  magneticMoment: [ Abs: 0.56206  Tot: -0.56000 ]
SCF: Cycle: 17   F: -24.437505426971423   dF: -1.830e-07   |Residual|: 5.421e-05   |deigs|: 1.685e-04  t[s]:     85.23
	FillingsUpdate:  mu: -0.084663890  nElectrons: 9.000000  magneticMoment: [ Abs: 0.56201  Tot: -0.56000 ]
SCF: Cycle: 18   F: -24.437505553038530   dF: -1.261e-07   |Residual|: 3.734e-05   |deigs|: 2.390e-05  t[s]:     89.47
	FillingsUpdate:  mu: -0.084676288  nElectrons: 9.000000  magneticMoment: [ Abs: 0.56204  Tot: -0.56000 ]
SCF: Cycle: 19   F: -24.437505645203494   dF: -9.216e-08   |Residual|: 2.002e-05   |deigs|: 2.506e-05  t[s]:     93.73
	FillingsUpdate:  mu: -0.084654502  nElectrons: 9.000000  magneticMoment: [ Abs: 0.56203  Tot: -0.56000 ]
SCF: Cycle: 20   F: -24.437505662504417   dF: -1.730e-08   |Residual|: 1.467e-05   |deigs|: 2.204e-05  t[s]:     97.92
	FillingsUpdate:  mu: -0.084661281  nElectrons: 9.000000  magneticMoment: [ Abs: 0.56203  Tot: -0.56000 ]
SCF: Cycle: 21   F: -24.437505669204871   dF: -6.700e-09   |Residual|: 9.551e-06   |deigs|: 8.244e-06  t[s]:    102.19
	FillingsUpdate:  mu: -0.084662779  nElectrons: 9.000000  magneticMoment: [ Abs: 0.56205  Tot: -0.56000 ]
SCF: Cycle: 22   F: -24.437505680429588   dF: -1.122e-08   |Residual|: 5.644e-06   |deigs|: 3.608e-06  t[s]:    106.49
	FillingsUpdate:  mu: -0.084664237  nElectrons: 9.000000  magneticMoment: [ Abs: 0.56205  Tot: -0.56000 ]
SCF: Cycle: 23   F: -24.437505682262962   dF: -1.833e-09   |Residual|: 4.190e-06   |deigs|: 3.059e-06  t[s]:    110.60
	FillingsUpdate:  mu: -0.084665429  nElectrons: 9.000000  magneticMoment: [ Abs: 0.56205  Tot: -0.56000 ]
SCF: Cycle: 24   F: -24.437505682957514   dF: -6.946e-10   |Residual|: 3.032e-06   |deigs|: 3.776e-06  t[s]:    114.82
SCF: Converged (|Delta E|<1.000000e-08 for 2 iters).


# Ionic positions in lattice coordinates:
ion Rb   0.000000000000000   0.000000000000000   0.000000000000000 0

# Forces in Lattice coordinates:
force Rb   0.000000000000000   0.000000000000000   0.000000000000000 0

# Energy components:
   Eewald =      -12.0320174002217755
       EH =        7.5007445708326772
     Eloc =      -22.4122094572997916
      Enl =       -0.7970936499206789
   Epulay =       -0.0000000014467880
      Exc =       -3.6488904696264890
       KE =        6.9519613634683353
-------------------------------------
     Etot =      -24.4375050442145145
       TS =        0.0000006387429985
-------------------------------------
        F =      -24.4375056829575144

IonicMinimize: Iter:   0  F: -24.437505682957514  |grad|_K:  0.000e+00  t[s]:    115.08
IonicMinimize: Converged (|grad|_K<1.000000e-04).

#--- Lowdin population analysis ---
# oxidation-state Rb +0.035
# magnetic-moments Rb -0.530

End date and time: Sun Feb  6 12:37:50 2022  (Duration: 0-0:01:55.13)
Done!
