
*************** JDFTx 1.6.0 (git hash 42ebbcc2) ***************

Start date and time: Sun Feb  6 12:47:58 2022
Executable jdftx with command-line: -i Alkali.in
Running on hosts (process indices):  d-16-5-2 (0-18)
Divided in process groups (process indices):  0 (0)  1 (1)  2 (2)  3 (3)  4 (4)  5 (5)  6 (6)  7 (7)  8 (8)  9 (9)  10 (10)  11 (11)  12 (12)  13 (13)  14 (14)  15 (15)  16 (16)  17 (17)  18 (18)
Resource initialization completed at t[s]:      0.00
Run totals: 19 processes, 48 threads, 0 GPUs


Input parsed successfully to the following command list (including defaults):

basis kpoint-dependent
coords-type Lattice
core-overlap-check vector
coulomb-interaction Slab 001
davidson-band-ratio 1.1
dump End None
dump-name $INPUT.$VAR
elec-cutoff 20
elec-eigen-algo Davidson
elec-ex-corr gga-PBE
elec-initial-magnetization -0.020000 yes
elec-smearing Fermi 1e-05
electronic-minimize  \
	dirUpdateScheme      FletcherReeves \
	linminMethod         DirUpdateRecommended \
	nIterations          100 \
	history              15 \
	knormThreshold       0 \
	energyDiffThreshold  1e-08 \
	nEnergyDiff          2 \
	alphaTstart          1 \
	alphaTmin            1e-10 \
	updateTestStepSize   yes \
	alphaTreduceFactor   0.1 \
	alphaTincreaseFactor 3 \
	nAlphaAdjustMax      3 \
	wolfeEnergy          0.0001 \
	wolfeGradient        0.9 \
	fdTest               no
electronic-scf  \
	nIterations	10000 \
	energyDiffThreshold	1e-08 \
	residualThreshold	1e-07 \
	mixFraction	0.5 \
	qMetric	0.8 \
	history	10 \
	nEigSteps	2 \
	eigDiffThreshold	1e-08 \
	mixedVariable	Density \
	qKerker	0.8 \
	qKappa	-1 \
	verbose	no \
	mixFractionMag	1.5
exchange-regularization WignerSeitzTruncated
fluid None
fluid-ex-corr (null) lda-PZ
fluid-gummel-loop 10 1.000000e-05
fluid-minimize  \
	dirUpdateScheme      PolakRibiere \
	linminMethod         DirUpdateRecommended \
	nIterations          100 \
	history              15 \
	knormThreshold       0 \
	energyDiffThreshold  0 \
	nEnergyDiff          2 \
	alphaTstart          1 \
	alphaTmin            1e-10 \
	updateTestStepSize   yes \
	alphaTreduceFactor   0.1 \
	alphaTincreaseFactor 3 \
	nAlphaAdjustMax      3 \
	wolfeEnergy          0.0001 \
	wolfeGradient        0.9 \
	fdTest               no
fluid-solvent H2O 55.338 ScalarEOS \
	epsBulk 78.4 \
	pMol 0.92466 \
	epsInf 1.77 \
	Pvap 1.06736e-10 \
	sigmaBulk 4.62e-05 \
	Rvdw 2.61727 \
	Res 1.42 \
	tauNuc 343133 \
	poleEl 15 7 1
forces-output-coords Positions
ion Rb   0.000000000000000   0.000000000000000   0.000000000000000 0
ion-species SG15/$ID_ONCV_PBE.upf
ion-width 0
ionic-minimize  \
	dirUpdateScheme      L-BFGS \
	linminMethod         DirUpdateRecommended \
	nIterations          0 \
	history              15 \
	knormThreshold       0.0001 \
	energyDiffThreshold  1e-06 \
	nEnergyDiff          2 \
	alphaTstart          1 \
	alphaTmin            1e-10 \
	updateTestStepSize   yes \
	alphaTreduceFactor   0.1 \
	alphaTincreaseFactor 3 \
	nAlphaAdjustMax      3 \
	wolfeEnergy          0.0001 \
	wolfeGradient        0.9 \
	fdTest               no
kpoint   0.000000000000   0.000000000000   0.000000000000  1.00000000000000
kpoint-folding 12 12 1 
latt-move-scale 1 1 1
latt-scale 3 3 1 
lattice  \
	   4.727486978767153   -2.363743489383575    0.000000000000000  \
	  -0.000000000000000    4.094123819672498    0.000000000000000  \
	   0.000000000000000    0.000000000000000   40.000000000000000 
lattice-minimize  \
	dirUpdateScheme      L-BFGS \
	linminMethod         DirUpdateRecommended \
	nIterations          0 \
	history              15 \
	knormThreshold       0 \
	energyDiffThreshold  1e-06 \
	nEnergyDiff          2 \
	alphaTstart          1 \
	alphaTmin            1e-10 \
	updateTestStepSize   yes \
	alphaTreduceFactor   0.1 \
	alphaTincreaseFactor 3 \
	nAlphaAdjustMax      3 \
	wolfeEnergy          0.0001 \
	wolfeGradient        0.9 \
	fdTest               no
lcao-params -1 1e-06 1e-05
pcm-variant GLSSA13
spintype z-spin
subspace-rotation-factor 1 yes
symmetries automatic
symmetry-threshold 0.0001



---------- Setting up symmetries ----------

Found 24 point-group symmetries of the bravais lattice
Found 24 space-group symmetries with basis
Applied RMS atom displacement 0 bohrs to make symmetries exact.

---------- Initializing the Grid ----------
R = 
[      14.1825     -7.09123            0  ]
[            0      12.2824            0  ]
[            0            0           40  ]
unit cell volume = 6967.77
G =
[   0.443025   0.255781         -0  ]
[          0   0.511561         -0  ]
[         -0         -0    0.15708  ]
Minimum fftbox size, Smin = [  60  60  164  ]
Chosen fftbox size, S = [  60  60  168  ]

---------- Exchange Correlation functional ----------
Initalized PBE GGA exchange.
Initalized PBE GGA correlation.

---------- Setting up pseudopotentials ----------
Width of ionic core gaussian charges (only for fluid interactions / plotting) set to 0

Reading pseudopotential file '/home/gridsan/aligho/DFT/build-Nov24/pseudopotentials/SG15/Rb_ONCV_PBE.upf':
  'Rb' pseudopotential, 'PBE' functional
  Generated using ONCVPSP code by D. R. Hamann
  Author: Martin Schlipf and Francois Gygi  Date: 150915.
  9 valence electrons, 3 orbitals, 6 projectors, 2308 radial grid points, with lMax = 2
  Transforming local potential to a uniform radial grid of dG=0.02 with 1489 points.
  Transforming nonlocal projectors to a uniform radial grid of dG=0.02 with 432 points.
    4S    l: 0   occupation:  2.0   eigenvalue: -1.172069
    4P    l: 1   occupation:  6.0   eigenvalue: -0.586674
    5S    l: 0   occupation:  1.0   eigenvalue: -0.082006
  Transforming atomic orbitals to a uniform radial grid of dG=0.02 with 432 points.
  Core radius for overlap checks: 2.60 bohrs.
  Reading pulay file /home/gridsan/aligho/DFT/build-Nov24/pseudopotentials/SG15/Rb_ONCV_PBE.pulay ... using dE_dnG = -1.360715e-05 computed for Ecut = 20.

Initialized 1 species with 1 total atoms.

Folded 1 k-points by 12x12x1 to 144 k-points.

---------- Setting up k-points, bands, fillings ----------
Reduced to 19 k-points under symmetry. 
Computing the number of bands and number of electrons
Calculating initial fillings.
nElectrons:   9.000000   nBands: 6   nStates: 38

----- Setting up reduced wavefunction bases (one per k-point) -----
average nbasis = 29766.104 , ideal nbasis = 29766.845

---------- Setting up coulomb interaction ----------
Initialized slab truncation along lattice direction 001

---------- Setting up 2D ewald sum ----------
Optimum gaussian width for ewald sums = 7.873530 bohr.
Real space sums over 289 unit cells with max indices [  8  8  0  ]
Reciprocal space sums over 81 terms with max indices [  4  4  0  ]

---------- Allocating electronic variables ----------
Initializing wave functions:  linear combination of atomic orbitals
Note: number of bands (6) exceeds available atomic orbitals (5)
Rb pseudo-atom occupations:   s ( 2 1 )  p ( 6 )
	FillingsUpdate:  mu: -0.083338812  nElectrons: 9.000000  magneticMoment: [ Abs: 0.02000  Tot: -0.02000 ]
LCAOMinimize: Iter:   0  F: -24.4368582403842538  |grad|_K:  2.208e-05  alpha:  1.000e+00
	FillingsUpdate:  mu: -0.083334049  nElectrons: 9.000000  magneticMoment: [ Abs: 0.02000  Tot: -0.02000 ]
LCAOMinimize: Iter:   1  F: -24.4368585686674678  |grad|_K:  1.767e-07  alpha:  9.846e-01  linmin: -2.006e-02  cgtest:  5.150e-01  t[s]:      8.91
LCAOMinimize: Encountered beta<0, resetting CG.
	FillingsUpdate:  mu: -0.083334045  nElectrons: 9.000000  magneticMoment: [ Abs: 0.02000  Tot: -0.02000 ]
LCAOMinimize: Iter:   2  F: -24.4368585686892317  |grad|_K:  2.205e-09  alpha:  1.013e+00  linmin:  4.152e-02  cgtest: -9.985e-01  t[s]:     11.23
LCAOMinimize: Converged (|Delta F|<1.000000e-06 for 2 iters).


---- Citations for features of the code used in this run ----

   Software package:
      R. Sundararaman, K. Letchworth-Weaver, K.A. Schwarz, D. Gunceler, Y. Ozhabes and T.A. Arias, 'JDFTx: software for joint density-functional theory', SoftwareX 6, 278 (2017)

   gga-PBE exchange-correlation functional:
      J.P. Perdew, K. Burke and M. Ernzerhof, Phys. Rev. Lett. 77, 3865 (1996)

   Pseudopotentials:
      M Schlipf and F Gygi, Comput. Phys. Commun. 196, 36 (2015)

   Truncated Coulomb potentials:
      R. Sundararaman and T.A. Arias, Phys. Rev. B 87, 165122 (2013)

This list may not be complete. Please suggest additional citations or
report any other bugs at https://github.com/shankar1729/jdftx/issues

Initialization completed successfully at t[s]:     11.40


-------- Electronic minimization -----------
Will mix electronic density at each iteration.
	FillingsUpdate:  mu: -0.083334045  nElectrons: 9.000000  magneticMoment: [ Abs: 0.02000  Tot: -0.02000 ]
	FillingsUpdate:  mu: -0.085786026  nElectrons: 9.000000  magneticMoment: [ Abs: 0.02000  Tot: -0.02000 ]
SCF: Cycle:  0   F: -24.438635538981757   dF: -1.777e-03   |Residual|: 3.708e-03   |deigs|: 1.737e-01  t[s]:     16.17
	FillingsUpdate:  mu: -0.086023365  nElectrons: 9.000000  magneticMoment: [ Abs: 0.02001  Tot: -0.02000 ]
SCF: Cycle:  1   F: -24.438669191748041   dF: -3.365e-05   |Residual|: 3.278e-03   |deigs|: 4.446e-03  t[s]:     19.87
	FillingsUpdate:  mu: -0.086822249  nElectrons: 9.000000  magneticMoment: [ Abs: 0.02064  Tot: -0.02000 ]
SCF: Cycle:  2   F: -24.438705218886035   dF: -3.603e-05   |Residual|: 1.318e-03   |deigs|: 3.438e-03  t[s]:     23.71
	FillingsUpdate:  mu: -0.086670489  nElectrons: 9.000000  magneticMoment: [ Abs: 0.02005  Tot: -0.02000 ]
SCF: Cycle:  3   F: -24.438713187068828   dF: -7.968e-06   |Residual|: 8.801e-04   |deigs|: 2.077e-03  t[s]:     27.59
	FillingsUpdate:  mu: -0.086629388  nElectrons: 9.000000  magneticMoment: [ Abs: 0.02004  Tot: -0.02000 ]
SCF: Cycle:  4   F: -24.438717061945589   dF: -3.875e-06   |Residual|: 5.158e-04   |deigs|: 2.265e-03  t[s]:     31.55
	FillingsUpdate:  mu: -0.086472107  nElectrons: 9.000000  magneticMoment: [ Abs: 0.02005  Tot: -0.02000 ]
SCF: Cycle:  5   F: -24.438719663024475   dF: -2.601e-06   |Residual|: 4.353e-04   |deigs|: 1.966e-03  t[s]:     35.55
	FillingsUpdate:  mu: -0.086203034  nElectrons: 9.000000  magneticMoment: [ Abs: 0.02007  Tot: -0.02000 ]
SCF: Cycle:  6   F: -24.438720352795915   dF: -6.898e-07   |Residual|: 3.206e-04   |deigs|: 7.747e-04  t[s]:     39.69
	FillingsUpdate:  mu: -0.085883930  nElectrons: 9.000000  magneticMoment: [ Abs: 0.02021  Tot: -0.02000 ]
SCF: Cycle:  7   F: -24.438720154574536   dF: +1.982e-07   |Residual|: 2.382e-04   |deigs|: 6.865e-04  t[s]:     43.91
	FillingsUpdate:  mu: -0.085659878  nElectrons: 9.000000  magneticMoment: [ Abs: 0.02012  Tot: -0.02000 ]
SCF: Cycle:  8   F: -24.438720071094430   dF: +8.348e-08   |Residual|: 2.353e-04   |deigs|: 3.947e-04  t[s]:     48.17
	FillingsUpdate:  mu: -0.085351086  nElectrons: 9.000000  magneticMoment: [ Abs: 0.02012  Tot: -0.02000 ]
SCF: Cycle:  9   F: -24.438720390350952   dF: -3.193e-07   |Residual|: 2.009e-04   |deigs|: 5.684e-04  t[s]:     52.43
	FillingsUpdate:  mu: -0.085166072  nElectrons: 9.000000  magneticMoment: [ Abs: 0.02028  Tot: -0.02000 ]
SCF: Cycle: 10   F: -24.438720483037542   dF: -9.269e-08   |Residual|: 1.667e-04   |deigs|: 2.737e-04  t[s]:     56.75
	FillingsUpdate:  mu: -0.084893841  nElectrons: 9.000000  magneticMoment: [ Abs: 0.02007  Tot: -0.02000 ]
SCF: Cycle: 11   F: -24.438720276462888   dF: +2.066e-07   |Residual|: 1.449e-04   |deigs|: 4.356e-04  t[s]:     61.12
	FillingsUpdate:  mu: -0.084614370  nElectrons: 9.000000  magneticMoment: [ Abs: 0.02017  Tot: -0.02000 ]
SCF: Cycle: 12   F: -24.438719727253883   dF: +5.492e-07   |Residual|: 1.378e-04   |deigs|: 2.579e-04  t[s]:     65.41
	FillingsUpdate:  mu: -0.084379483  nElectrons: 9.000000  magneticMoment: [ Abs: 0.02007  Tot: -0.02000 ]
SCF: Cycle: 13   F: -24.438720272940330   dF: -5.457e-07   |Residual|: 1.312e-04   |deigs|: 2.586e-04  t[s]:     69.66
	FillingsUpdate:  mu: -0.084189072  nElectrons: 9.000000  magneticMoment: [ Abs: 0.02017  Tot: -0.02000 ]
SCF: Cycle: 14   F: -24.438721200766732   dF: -9.278e-07   |Residual|: 1.082e-04   |deigs|: 1.892e-04  t[s]:     73.99
	FillingsUpdate:  mu: -0.084106285  nElectrons: 9.000000  magneticMoment: [ Abs: 0.02016  Tot: -0.02000 ]
SCF: Cycle: 15   F: -24.438721742468225   dF: -5.417e-07   |Residual|: 7.494e-05   |deigs|: 1.501e-04  t[s]:     78.22
	FillingsUpdate:  mu: -0.084006598  nElectrons: 9.000000  magneticMoment: [ Abs: 0.02006  Tot: -0.02000 ]
SCF: Cycle: 16   F: -24.438721881507654   dF: -1.390e-07   |Residual|: 4.892e-05   |deigs|: 1.429e-04  t[s]:     82.47
	FillingsUpdate:  mu: -0.083983309  nElectrons: 9.000000  magneticMoment: [ Abs: 0.02010  Tot: -0.02000 ]
SCF: Cycle: 17   F: -24.438721972043588   dF: -9.054e-08   |Residual|: 3.360e-05   |deigs|: 1.508e-04  t[s]:     86.79
	FillingsUpdate:  mu: -0.083997447  nElectrons: 9.000000  magneticMoment: [ Abs: 0.02007  Tot: -0.02000 ]
SCF: Cycle: 18   F: -24.438722016690420   dF: -4.465e-08   |Residual|: 1.855e-05   |deigs|: 1.574e-04  t[s]:     91.17
	FillingsUpdate:  mu: -0.083998726  nElectrons: 9.000000  magneticMoment: [ Abs: 0.02007  Tot: -0.02000 ]
SCF: Cycle: 19   F: -24.438722035045494   dF: -1.836e-08   |Residual|: 1.055e-05   |deigs|: 1.293e-04  t[s]:     95.42
	FillingsUpdate:  mu: -0.083997816  nElectrons: 9.000000  magneticMoment: [ Abs: 0.02007  Tot: -0.02000 ]
SCF: Cycle: 20   F: -24.438722039600176   dF: -4.555e-09   |Residual|: 7.669e-06   |deigs|: 1.053e-04  t[s]:     99.53
	FillingsUpdate:  mu: -0.083997867  nElectrons: 9.000000  magneticMoment: [ Abs: 0.02007  Tot: -0.02000 ]
SCF: Cycle: 21   F: -24.438722043140494   dF: -3.540e-09   |Residual|: 4.900e-06   |deigs|: 6.682e-05  t[s]:    103.92
SCF: Converged (|Delta E|<1.000000e-08 for 2 iters).


# Ionic positions in lattice coordinates:
ion Rb   0.000000000000000   0.000000000000000   0.000000000000000 0

# Forces in Lattice coordinates:
force Rb   0.000000000000000   0.000000000000000   0.000000000000000 0

# Energy components:
   Eewald =      -12.0320174002217755
       EH =        7.4851932428072452
     Eloc =      -22.3948966040834314
      Enl =       -0.7979603928768042
   Epulay =       -0.0000000014467880
      Exc =       -3.6464751836506228
       KE =        6.9474348481573180
-------------------------------------
     Etot =      -24.4387214913148583
       TS =        0.0000005518256369
-------------------------------------
        F =      -24.4387220431404941

IonicMinimize: Iter:   0  F: -24.438722043140494  |grad|_K:  0.000e+00  t[s]:    104.19
IonicMinimize: Converged (|grad|_K<1.000000e-04).

#--- Lowdin population analysis ---
# oxidation-state Rb +0.030
# magnetic-moments Rb -0.019

End date and time: Sun Feb  6 12:49:42 2022  (Duration: 0-0:01:44.22)
Done!
