
*************** JDFTx 1.6.0 (git hash 42ebbcc2) ***************

Start date and time: Sun Feb  6 12:41:58 2022
Executable jdftx with command-line: -i Alkali.in
Running on hosts (process indices):  d-4-3-3 (0-18)
Divided in process groups (process indices):  0 (0)  1 (1)  2 (2)  3 (3)  4 (4)  5 (5)  6 (6)  7 (7)  8 (8)  9 (9)  10 (10)  11 (11)  12 (12)  13 (13)  14 (14)  15 (15)  16 (16)  17 (17)  18 (18)
Resource initialization completed at t[s]:      0.00
Run totals: 19 processes, 48 threads, 0 GPUs


Input parsed successfully to the following command list (including defaults):

basis kpoint-dependent
coords-type Lattice
core-overlap-check vector
coulomb-interaction Slab 001
davidson-band-ratio 1.1
dump End None
dump-name $INPUT.$VAR
elec-cutoff 20
elec-eigen-algo Davidson
elec-ex-corr gga-PBE
elec-initial-magnetization -0.500000 yes
elec-smearing Fermi 1e-05
electronic-minimize  \
	dirUpdateScheme      FletcherReeves \
	linminMethod         DirUpdateRecommended \
	nIterations          100 \
	history              15 \
	knormThreshold       0 \
	energyDiffThreshold  1e-08 \
	nEnergyDiff          2 \
	alphaTstart          1 \
	alphaTmin            1e-10 \
	updateTestStepSize   yes \
	alphaTreduceFactor   0.1 \
	alphaTincreaseFactor 3 \
	nAlphaAdjustMax      3 \
	wolfeEnergy          0.0001 \
	wolfeGradient        0.9 \
	fdTest               no
electronic-scf  \
	nIterations	10000 \
	energyDiffThreshold	1e-08 \
	residualThreshold	1e-07 \
	mixFraction	0.5 \
	qMetric	0.8 \
	history	10 \
	nEigSteps	2 \
	eigDiffThreshold	1e-08 \
	mixedVariable	Density \
	qKerker	0.8 \
	qKappa	-1 \
	verbose	no \
	mixFractionMag	1.5
exchange-regularization WignerSeitzTruncated
fluid None
fluid-ex-corr (null) lda-PZ
fluid-gummel-loop 10 1.000000e-05
fluid-minimize  \
	dirUpdateScheme      PolakRibiere \
	linminMethod         DirUpdateRecommended \
	nIterations          100 \
	history              15 \
	knormThreshold       0 \
	energyDiffThreshold  0 \
	nEnergyDiff          2 \
	alphaTstart          1 \
	alphaTmin            1e-10 \
	updateTestStepSize   yes \
	alphaTreduceFactor   0.1 \
	alphaTincreaseFactor 3 \
	nAlphaAdjustMax      3 \
	wolfeEnergy          0.0001 \
	wolfeGradient        0.9 \
	fdTest               no
fluid-solvent H2O 55.338 ScalarEOS \
	epsBulk 78.4 \
	pMol 0.92466 \
	epsInf 1.77 \
	Pvap 1.06736e-10 \
	sigmaBulk 4.62e-05 \
	Rvdw 2.61727 \
	Res 1.42 \
	tauNuc 343133 \
	poleEl 15 7 1
forces-output-coords Positions
ion Rb   0.000000000000000   0.000000000000000   0.000000000000000 0
ion-species SG15/$ID_ONCV_PBE.upf
ion-width 0
ionic-minimize  \
	dirUpdateScheme      L-BFGS \
	linminMethod         DirUpdateRecommended \
	nIterations          0 \
	history              15 \
	knormThreshold       0.0001 \
	energyDiffThreshold  1e-06 \
	nEnergyDiff          2 \
	alphaTstart          1 \
	alphaTmin            1e-10 \
	updateTestStepSize   yes \
	alphaTreduceFactor   0.1 \
	alphaTincreaseFactor 3 \
	nAlphaAdjustMax      3 \
	wolfeEnergy          0.0001 \
	wolfeGradient        0.9 \
	fdTest               no
kpoint   0.000000000000   0.000000000000   0.000000000000  1.00000000000000
kpoint-folding 12 12 1 
latt-move-scale 1 1 1
latt-scale 3 3 1 
lattice  \
	   4.727486978767153   -2.363743489383575    0.000000000000000  \
	  -0.000000000000000    4.094123819672498    0.000000000000000  \
	   0.000000000000000    0.000000000000000   40.000000000000000 
lattice-minimize  \
	dirUpdateScheme      L-BFGS \
	linminMethod         DirUpdateRecommended \
	nIterations          0 \
	history              15 \
	knormThreshold       0 \
	energyDiffThreshold  1e-06 \
	nEnergyDiff          2 \
	alphaTstart          1 \
	alphaTmin            1e-10 \
	updateTestStepSize   yes \
	alphaTreduceFactor   0.1 \
	alphaTincreaseFactor 3 \
	nAlphaAdjustMax      3 \
	wolfeEnergy          0.0001 \
	wolfeGradient        0.9 \
	fdTest               no
lcao-params -1 1e-06 1e-05
pcm-variant GLSSA13
spintype z-spin
subspace-rotation-factor 1 yes
symmetries automatic
symmetry-threshold 0.0001



---------- Setting up symmetries ----------

Found 24 point-group symmetries of the bravais lattice
Found 24 space-group symmetries with basis
Applied RMS atom displacement 0 bohrs to make symmetries exact.

---------- Initializing the Grid ----------
R = 
[      14.1825     -7.09123            0  ]
[            0      12.2824            0  ]
[            0            0           40  ]
unit cell volume = 6967.77
G =
[   0.443025   0.255781         -0  ]
[          0   0.511561         -0  ]
[         -0         -0    0.15708  ]
Minimum fftbox size, Smin = [  60  60  164  ]
Chosen fftbox size, S = [  60  60  168  ]

---------- Exchange Correlation functional ----------
Initalized PBE GGA exchange.
Initalized PBE GGA correlation.

---------- Setting up pseudopotentials ----------
Width of ionic core gaussian charges (only for fluid interactions / plotting) set to 0

Reading pseudopotential file '/home/gridsan/aligho/DFT/build-Nov24/pseudopotentials/SG15/Rb_ONCV_PBE.upf':
  'Rb' pseudopotential, 'PBE' functional
  Generated using ONCVPSP code by D. R. Hamann
  Author: Martin Schlipf and Francois Gygi  Date: 150915.
  9 valence electrons, 3 orbitals, 6 projectors, 2308 radial grid points, with lMax = 2
  Transforming local potential to a uniform radial grid of dG=0.02 with 1489 points.
  Transforming nonlocal projectors to a uniform radial grid of dG=0.02 with 432 points.
    4S    l: 0   occupation:  2.0   eigenvalue: -1.172069
    4P    l: 1   occupation:  6.0   eigenvalue: -0.586674
    5S    l: 0   occupation:  1.0   eigenvalue: -0.082006
  Transforming atomic orbitals to a uniform radial grid of dG=0.02 with 432 points.
  Core radius for overlap checks: 2.60 bohrs.
  Reading pulay file /home/gridsan/aligho/DFT/build-Nov24/pseudopotentials/SG15/Rb_ONCV_PBE.pulay ... using dE_dnG = -1.360715e-05 computed for Ecut = 20.

Initialized 1 species with 1 total atoms.

Folded 1 k-points by 12x12x1 to 144 k-points.

---------- Setting up k-points, bands, fillings ----------
Reduced to 19 k-points under symmetry. 
Computing the number of bands and number of electrons
Calculating initial fillings.
nElectrons:   9.000000   nBands: 6   nStates: 38

----- Setting up reduced wavefunction bases (one per k-point) -----
average nbasis = 29766.104 , ideal nbasis = 29766.845

---------- Setting up coulomb interaction ----------
Initialized slab truncation along lattice direction 001

---------- Setting up 2D ewald sum ----------
Optimum gaussian width for ewald sums = 7.873530 bohr.
Real space sums over 289 unit cells with max indices [  8  8  0  ]
Reciprocal space sums over 81 terms with max indices [  4  4  0  ]

---------- Allocating electronic variables ----------
Initializing wave functions:  linear combination of atomic orbitals
Note: number of bands (6) exceeds available atomic orbitals (5)
Rb pseudo-atom occupations:   s ( 2 1 )  p ( 6 )
	FillingsUpdate:  mu: -0.085377511  nElectrons: 9.000000  magneticMoment: [ Abs: 0.50000  Tot: -0.50000 ]
LCAOMinimize: Iter:   0  F: -24.4359792992783227  |grad|_K:  1.657e-05  alpha:  1.000e+00
	FillingsUpdate:  mu: -0.085374480  nElectrons: 9.000000  magneticMoment: [ Abs: 0.50000  Tot: -0.50000 ]
LCAOMinimize: Iter:   1  F: -24.4359794847822229  |grad|_K:  1.280e-07  alpha:  9.882e-01  linmin: -1.473e-02  cgtest:  3.405e-01  t[s]:      8.89
LCAOMinimize: Encountered beta<0, resetting CG.
	FillingsUpdate:  mu: -0.085374489  nElectrons: 9.000000  magneticMoment: [ Abs: 0.50000  Tot: -0.50000 ]
LCAOMinimize: Iter:   2  F: -24.4359794847934317  |grad|_K:  1.311e-09  alpha:  1.009e+00  linmin:  7.224e-02  cgtest: -9.121e-01  t[s]:     11.30
LCAOMinimize: Converged (|Delta F|<1.000000e-06 for 2 iters).


---- Citations for features of the code used in this run ----

   Software package:
      R. Sundararaman, K. Letchworth-Weaver, K.A. Schwarz, D. Gunceler, Y. Ozhabes and T.A. Arias, 'JDFTx: software for joint density-functional theory', SoftwareX 6, 278 (2017)

   gga-PBE exchange-correlation functional:
      J.P. Perdew, K. Burke and M. Ernzerhof, Phys. Rev. Lett. 77, 3865 (1996)

   Pseudopotentials:
      M Schlipf and F Gygi, Comput. Phys. Commun. 196, 36 (2015)

   Truncated Coulomb potentials:
      R. Sundararaman and T.A. Arias, Phys. Rev. B 87, 165122 (2013)

This list may not be complete. Please suggest additional citations or
report any other bugs at https://github.com/shankar1729/jdftx/issues

Initialization completed successfully at t[s]:     11.47


-------- Electronic minimization -----------
Will mix electronic density at each iteration.
	FillingsUpdate:  mu: -0.085374489  nElectrons: 9.000000  magneticMoment: [ Abs: 0.50000  Tot: -0.50000 ]
	FillingsUpdate:  mu: -0.087007025  nElectrons: 9.000000  magneticMoment: [ Abs: 0.50000  Tot: -0.50000 ]
SCF: Cycle:  0   F: -24.437608819448826   dF: -1.629e-03   |Residual|: 4.024e-03   |deigs|: 1.736e-01  t[s]:     16.33
	FillingsUpdate:  mu: -0.087182208  nElectrons: 9.000000  magneticMoment: [ Abs: 0.50034  Tot: -0.50000 ]
SCF: Cycle:  1   F: -24.437664516150484   dF: -5.570e-05   |Residual|: 3.231e-03   |deigs|: 4.586e-03  t[s]:     20.08
	FillingsUpdate:  mu: -0.087382833  nElectrons: 9.000000  magneticMoment: [ Abs: 0.50232  Tot: -0.50000 ]
SCF: Cycle:  2   F: -24.437702824821503   dF: -3.831e-05   |Residual|: 2.272e-03   |deigs|: 2.111e-03  t[s]:     23.97
	FillingsUpdate:  mu: -0.087618644  nElectrons: 9.000000  magneticMoment: [ Abs: 0.50290  Tot: -0.50000 ]
SCF: Cycle:  3   F: -24.437724083792403   dF: -2.126e-05   |Residual|: 1.470e-03   |deigs|: 2.813e-03  t[s]:     27.98
	FillingsUpdate:  mu: -0.087676562  nElectrons: 9.000000  magneticMoment: [ Abs: 0.50107  Tot: -0.50000 ]
SCF: Cycle:  4   F: -24.437733865382963   dF: -9.782e-06   |Residual|: 7.726e-04   |deigs|: 2.441e-03  t[s]:     31.90
	FillingsUpdate:  mu: -0.087720067  nElectrons: 9.000000  magneticMoment: [ Abs: 0.50181  Tot: -0.50000 ]
SCF: Cycle:  5   F: -24.437740251735125   dF: -6.386e-06   |Residual|: 5.057e-04   |deigs|: 1.242e-03  t[s]:     35.90
	FillingsUpdate:  mu: -0.087616206  nElectrons: 9.000000  magneticMoment: [ Abs: 0.50163  Tot: -0.50000 ]
SCF: Cycle:  6   F: -24.437743899537335   dF: -3.648e-06   |Residual|: 3.659e-04   |deigs|: 1.496e-03  t[s]:     40.05
	FillingsUpdate:  mu: -0.087445959  nElectrons: 9.000000  magneticMoment: [ Abs: 0.50188  Tot: -0.50000 ]
SCF: Cycle:  7   F: -24.437744739312453   dF: -8.398e-07   |Residual|: 2.978e-04   |deigs|: 6.423e-04  t[s]:     44.24
	FillingsUpdate:  mu: -0.087197294  nElectrons: 9.000000  magneticMoment: [ Abs: 0.50275  Tot: -0.50000 ]
SCF: Cycle:  8   F: -24.437744924924530   dF: -1.856e-07   |Residual|: 2.410e-04   |deigs|: 3.557e-04  t[s]:     48.49
	FillingsUpdate:  mu: -0.086835128  nElectrons: 9.000000  magneticMoment: [ Abs: 0.50295  Tot: -0.50000 ]
SCF: Cycle:  9   F: -24.437743991206819   dF: +9.337e-07   |Residual|: 2.100e-04   |deigs|: 4.492e-04  t[s]:     52.76
	FillingsUpdate:  mu: -0.086599886  nElectrons: 9.000000  magneticMoment: [ Abs: 0.50273  Tot: -0.50000 ]
SCF: Cycle: 10   F: -24.437743803923876   dF: +1.873e-07   |Residual|: 1.912e-04   |deigs|: 4.236e-04  t[s]:     57.09
	FillingsUpdate:  mu: -0.086508386  nElectrons: 9.000000  magneticMoment: [ Abs: 0.50259  Tot: -0.50000 ]
SCF: Cycle: 11   F: -24.437745522508806   dF: -1.719e-06   |Residual|: 1.428e-04   |deigs|: 2.892e-04  t[s]:     61.41
	FillingsUpdate:  mu: -0.086276447  nElectrons: 9.000000  magneticMoment: [ Abs: 0.50297  Tot: -0.50000 ]
SCF: Cycle: 12   F: -24.437745771051823   dF: -2.485e-07   |Residual|: 1.350e-04   |deigs|: 5.159e-04  t[s]:     65.76
	FillingsUpdate:  mu: -0.085859410  nElectrons: 9.000000  magneticMoment: [ Abs: 0.50266  Tot: -0.50000 ]
SCF: Cycle: 13   F: -24.437745360291053   dF: +4.108e-07   |Residual|: 1.356e-04   |deigs|: 5.283e-04  t[s]:     70.12
	FillingsUpdate:  mu: -0.085661622  nElectrons: 9.000000  magneticMoment: [ Abs: 0.50234  Tot: -0.50000 ]
SCF: Cycle: 14   F: -24.437745227990650   dF: +1.323e-07   |Residual|: 1.253e-04   |deigs|: 2.305e-04  t[s]:     74.47
	FillingsUpdate:  mu: -0.085569613  nElectrons: 9.000000  magneticMoment: [ Abs: 0.50250  Tot: -0.50000 ]
SCF: Cycle: 15   F: -24.437746088270909   dF: -8.603e-07   |Residual|: 1.060e-04   |deigs|: 1.230e-04  t[s]:     78.81
	FillingsUpdate:  mu: -0.085361276  nElectrons: 9.000000  magneticMoment: [ Abs: 0.50191  Tot: -0.50000 ]
SCF: Cycle: 16   F: -24.437746805558181   dF: -7.173e-07   |Residual|: 7.436e-05   |deigs|: 2.428e-04  t[s]:     83.17
	FillingsUpdate:  mu: -0.085232534  nElectrons: 9.000000  magneticMoment: [ Abs: 0.50178  Tot: -0.50000 ]
SCF: Cycle: 17   F: -24.437747044475529   dF: -2.389e-07   |Residual|: 5.251e-05   |deigs|: 1.419e-04  t[s]:     87.42
	FillingsUpdate:  mu: -0.085219840  nElectrons: 9.000000  magneticMoment: [ Abs: 0.50175  Tot: -0.50000 ]
SCF: Cycle: 18   F: -24.437747151226397   dF: -1.068e-07   |Residual|: 3.563e-05   |deigs|: 3.094e-05  t[s]:     91.74
	FillingsUpdate:  mu: -0.085227702  nElectrons: 9.000000  magneticMoment: [ Abs: 0.50176  Tot: -0.50000 ]
SCF: Cycle: 19   F: -24.437747234332054   dF: -8.311e-08   |Residual|: 1.937e-05   |deigs|: 2.461e-05  t[s]:     96.03
	FillingsUpdate:  mu: -0.085218592  nElectrons: 9.000000  magneticMoment: [ Abs: 0.50176  Tot: -0.50000 ]
SCF: Cycle: 20   F: -24.437747251107989   dF: -1.678e-08   |Residual|: 1.371e-05   |deigs|: 1.192e-05  t[s]:    100.23
	FillingsUpdate:  mu: -0.085223603  nElectrons: 9.000000  magneticMoment: [ Abs: 0.50175  Tot: -0.50000 ]
SCF: Cycle: 21   F: -24.437747258984125   dF: -7.876e-09   |Residual|: 9.468e-06   |deigs|: 9.445e-06  t[s]:    104.62
	FillingsUpdate:  mu: -0.085224984  nElectrons: 9.000000  magneticMoment: [ Abs: 0.50176  Tot: -0.50000 ]
SCF: Cycle: 22   F: -24.437747266636183   dF: -7.652e-09   |Residual|: 5.457e-06   |deigs|: 5.136e-06  t[s]:    109.00
SCF: Converged (|Delta E|<1.000000e-08 for 2 iters).


# Ionic positions in lattice coordinates:
ion Rb   0.000000000000000   0.000000000000000   0.000000000000000 0

# Forces in Lattice coordinates:
force Rb  -0.000000000000000  -0.000000000000000   0.000000000000000 0

# Energy components:
   Eewald =      -12.0320174002217755
       EH =        7.4973625567829743
     Eloc =      -22.4084385881300143
      Enl =       -0.7972948811548530
   Epulay =       -0.0000000014467880
      Exc =       -3.6483744318505211
       KE =        6.9510159061486156
-------------------------------------
     Etot =      -24.4377468398723607
       TS =        0.0000004267638229
-------------------------------------
        F =      -24.4377472666361832

IonicMinimize: Iter:   0  F: -24.437747266636183  |grad|_K:  0.000e+00  t[s]:    109.27
IonicMinimize: Converged (|grad|_K<1.000000e-04).

#--- Lowdin population analysis ---
# oxidation-state Rb +0.035
# magnetic-moments Rb -0.472

End date and time: Sun Feb  6 12:43:47 2022  (Duration: 0-0:01:49.32)
Done!
