
*************** JDFTx 1.6.0 (git hash 42ebbcc2) ***************

Start date and time: Sun Feb  6 12:35:54 2022
Executable jdftx with command-line: -i Alkali.in
Running on hosts (process indices):  d-6-13-4 (0-18)
Divided in process groups (process indices):  0 (0)  1 (1)  2 (2)  3 (3)  4 (4)  5 (5)  6 (6)  7 (7)  8 (8)  9 (9)  10 (10)  11 (11)  12 (12)  13 (13)  14 (14)  15 (15)  16 (16)  17 (17)  18 (18)
Resource initialization completed at t[s]:      0.00
Run totals: 19 processes, 48 threads, 0 GPUs


Input parsed successfully to the following command list (including defaults):

basis kpoint-dependent
coords-type Lattice
core-overlap-check vector
coulomb-interaction Slab 001
davidson-band-ratio 1.1
dump End None
dump-name $INPUT.$VAR
elec-cutoff 20
elec-eigen-algo Davidson
elec-ex-corr gga-PBE
elec-initial-magnetization -0.820000 yes
elec-smearing Fermi 1e-05
electronic-minimize  \
	dirUpdateScheme      FletcherReeves \
	linminMethod         DirUpdateRecommended \
	nIterations          100 \
	history              15 \
	knormThreshold       0 \
	energyDiffThreshold  1e-08 \
	nEnergyDiff          2 \
	alphaTstart          1 \
	alphaTmin            1e-10 \
	updateTestStepSize   yes \
	alphaTreduceFactor   0.1 \
	alphaTincreaseFactor 3 \
	nAlphaAdjustMax      3 \
	wolfeEnergy          0.0001 \
	wolfeGradient        0.9 \
	fdTest               no
electronic-scf  \
	nIterations	10000 \
	energyDiffThreshold	1e-08 \
	residualThreshold	1e-07 \
	mixFraction	0.5 \
	qMetric	0.8 \
	history	10 \
	nEigSteps	2 \
	eigDiffThreshold	1e-08 \
	mixedVariable	Density \
	qKerker	0.8 \
	qKappa	-1 \
	verbose	no \
	mixFractionMag	1.5
exchange-regularization WignerSeitzTruncated
fluid None
fluid-ex-corr (null) lda-PZ
fluid-gummel-loop 10 1.000000e-05
fluid-minimize  \
	dirUpdateScheme      PolakRibiere \
	linminMethod         DirUpdateRecommended \
	nIterations          100 \
	history              15 \
	knormThreshold       0 \
	energyDiffThreshold  0 \
	nEnergyDiff          2 \
	alphaTstart          1 \
	alphaTmin            1e-10 \
	updateTestStepSize   yes \
	alphaTreduceFactor   0.1 \
	alphaTincreaseFactor 3 \
	nAlphaAdjustMax      3 \
	wolfeEnergy          0.0001 \
	wolfeGradient        0.9 \
	fdTest               no
fluid-solvent H2O 55.338 ScalarEOS \
	epsBulk 78.4 \
	pMol 0.92466 \
	epsInf 1.77 \
	Pvap 1.06736e-10 \
	sigmaBulk 4.62e-05 \
	Rvdw 2.61727 \
	Res 1.42 \
	tauNuc 343133 \
	poleEl 15 7 1
forces-output-coords Positions
ion Rb   0.000000000000000   0.000000000000000   0.000000000000000 0
ion-species SG15/$ID_ONCV_PBE.upf
ion-width 0
ionic-minimize  \
	dirUpdateScheme      L-BFGS \
	linminMethod         DirUpdateRecommended \
	nIterations          0 \
	history              15 \
	knormThreshold       0.0001 \
	energyDiffThreshold  1e-06 \
	nEnergyDiff          2 \
	alphaTstart          1 \
	alphaTmin            1e-10 \
	updateTestStepSize   yes \
	alphaTreduceFactor   0.1 \
	alphaTincreaseFactor 3 \
	nAlphaAdjustMax      3 \
	wolfeEnergy          0.0001 \
	wolfeGradient        0.9 \
	fdTest               no
kpoint   0.000000000000   0.000000000000   0.000000000000  1.00000000000000
kpoint-folding 12 12 1 
latt-move-scale 1 1 1
latt-scale 3 3 1 
lattice  \
	   4.727486978767153   -2.363743489383575    0.000000000000000  \
	  -0.000000000000000    4.094123819672498    0.000000000000000  \
	   0.000000000000000    0.000000000000000   40.000000000000000 
lattice-minimize  \
	dirUpdateScheme      L-BFGS \
	linminMethod         DirUpdateRecommended \
	nIterations          0 \
	history              15 \
	knormThreshold       0 \
	energyDiffThreshold  1e-06 \
	nEnergyDiff          2 \
	alphaTstart          1 \
	alphaTmin            1e-10 \
	updateTestStepSize   yes \
	alphaTreduceFactor   0.1 \
	alphaTincreaseFactor 3 \
	nAlphaAdjustMax      3 \
	wolfeEnergy          0.0001 \
	wolfeGradient        0.9 \
	fdTest               no
lcao-params -1 1e-06 1e-05
pcm-variant GLSSA13
spintype z-spin
subspace-rotation-factor 1 yes
symmetries automatic
symmetry-threshold 0.0001



---------- Setting up symmetries ----------

Found 24 point-group symmetries of the bravais lattice
Found 24 space-group symmetries with basis
Applied RMS atom displacement 0 bohrs to make symmetries exact.

---------- Initializing the Grid ----------
R = 
[      14.1825     -7.09123            0  ]
[            0      12.2824            0  ]
[            0            0           40  ]
unit cell volume = 6967.77
G =
[   0.443025   0.255781         -0  ]
[          0   0.511561         -0  ]
[         -0         -0    0.15708  ]
Minimum fftbox size, Smin = [  60  60  164  ]
Chosen fftbox size, S = [  60  60  168  ]

---------- Exchange Correlation functional ----------
Initalized PBE GGA exchange.
Initalized PBE GGA correlation.

---------- Setting up pseudopotentials ----------
Width of ionic core gaussian charges (only for fluid interactions / plotting) set to 0

Reading pseudopotential file '/home/gridsan/aligho/DFT/build-Nov24/pseudopotentials/SG15/Rb_ONCV_PBE.upf':
  'Rb' pseudopotential, 'PBE' functional
  Generated using ONCVPSP code by D. R. Hamann
  Author: Martin Schlipf and Francois Gygi  Date: 150915.
  9 valence electrons, 3 orbitals, 6 projectors, 2308 radial grid points, with lMax = 2
  Transforming local potential to a uniform radial grid of dG=0.02 with 1489 points.
  Transforming nonlocal projectors to a uniform radial grid of dG=0.02 with 432 points.
    4S    l: 0   occupation:  2.0   eigenvalue: -1.172069
    4P    l: 1   occupation:  6.0   eigenvalue: -0.586674
    5S    l: 0   occupation:  1.0   eigenvalue: -0.082006
  Transforming atomic orbitals to a uniform radial grid of dG=0.02 with 432 points.
  Core radius for overlap checks: 2.60 bohrs.
  Reading pulay file /home/gridsan/aligho/DFT/build-Nov24/pseudopotentials/SG15/Rb_ONCV_PBE.pulay ... using dE_dnG = -1.360715e-05 computed for Ecut = 20.

Initialized 1 species with 1 total atoms.

Folded 1 k-points by 12x12x1 to 144 k-points.

---------- Setting up k-points, bands, fillings ----------
Reduced to 19 k-points under symmetry. 
Computing the number of bands and number of electrons
Calculating initial fillings.
nElectrons:   9.000000   nBands: 6   nStates: 38

----- Setting up reduced wavefunction bases (one per k-point) -----
average nbasis = 29766.104 , ideal nbasis = 29766.845

---------- Setting up coulomb interaction ----------
Initialized slab truncation along lattice direction 001

---------- Setting up 2D ewald sum ----------
Optimum gaussian width for ewald sums = 7.873530 bohr.
Real space sums over 289 unit cells with max indices [  8  8  0  ]
Reciprocal space sums over 81 terms with max indices [  4  4  0  ]

---------- Allocating electronic variables ----------
Initializing wave functions:  linear combination of atomic orbitals
Note: number of bands (6) exceeds available atomic orbitals (5)
Rb pseudo-atom occupations:   s ( 2 1 )  p ( 6 )
	FillingsUpdate:  mu: -0.085351523  nElectrons: 9.000000  magneticMoment: [ Abs: 0.82000  Tot: -0.82000 ]
LCAOMinimize: Iter:   0  F: -24.4347235485720233  |grad|_K:  8.007e-06  alpha:  1.000e+00
	FillingsUpdate:  mu: -0.085350702  nElectrons: 9.000000  magneticMoment: [ Abs: 0.82000  Tot: -0.82000 ]
LCAOMinimize: Iter:   1  F: -24.4347235921828698  |grad|_K:  5.616e-08  alpha:  9.946e-01  linmin: -5.195e-03  cgtest:  1.032e-01  t[s]:      8.91
LCAOMinimize: Encountered beta<0, resetting CG.
	FillingsUpdate:  mu: -0.085350715  nElectrons: 9.000000  magneticMoment: [ Abs: 0.82000  Tot: -0.82000 ]
LCAOMinimize: Iter:   2  F: -24.4347235921850690  |grad|_K:  3.069e-09  alpha:  1.048e+00  linmin:  1.683e-01  cgtest: -9.906e-01  t[s]:     11.28
LCAOMinimize: Converged (|Delta F|<1.000000e-06 for 2 iters).


---- Citations for features of the code used in this run ----

   Software package:
      R. Sundararaman, K. Letchworth-Weaver, K.A. Schwarz, D. Gunceler, Y. Ozhabes and T.A. Arias, 'JDFTx: software for joint density-functional theory', SoftwareX 6, 278 (2017)

   gga-PBE exchange-correlation functional:
      J.P. Perdew, K. Burke and M. Ernzerhof, Phys. Rev. Lett. 77, 3865 (1996)

   Pseudopotentials:
      M Schlipf and F Gygi, Comput. Phys. Commun. 196, 36 (2015)

   Truncated Coulomb potentials:
      R. Sundararaman and T.A. Arias, Phys. Rev. B 87, 165122 (2013)

This list may not be complete. Please suggest additional citations or
report any other bugs at https://github.com/shankar1729/jdftx/issues

Initialization completed successfully at t[s]:     11.45


-------- Electronic minimization -----------
Will mix electronic density at each iteration.
	FillingsUpdate:  mu: -0.085350715  nElectrons: 9.000000  magneticMoment: [ Abs: 0.82000  Tot: -0.82000 ]
	FillingsUpdate:  mu: -0.086136723  nElectrons: 9.000000  magneticMoment: [ Abs: 0.82000  Tot: -0.82000 ]
SCF: Cycle:  0   F: -24.436086409181161   dF: -1.363e-03   |Residual|: 3.746e-03   |deigs|: 1.733e-01  t[s]:     16.26
	FillingsUpdate:  mu: -0.086427993  nElectrons: 9.000000  magneticMoment: [ Abs: 0.82173  Tot: -0.82000 ]
SCF: Cycle:  1   F: -24.436148522879659   dF: -6.211e-05   |Residual|: 2.709e-03   |deigs|: 4.621e-03  t[s]:     20.03
	FillingsUpdate:  mu: -0.086795162  nElectrons: 9.000000  magneticMoment: [ Abs: 0.82370  Tot: -0.82000 ]
SCF: Cycle:  2   F: -24.436186663902472   dF: -3.814e-05   |Residual|: 2.102e-03   |deigs|: 2.350e-03  t[s]:     23.91
	FillingsUpdate:  mu: -0.087179214  nElectrons: 9.000000  magneticMoment: [ Abs: 0.82478  Tot: -0.82000 ]
SCF: Cycle:  3   F: -24.436220238576549   dF: -3.357e-05   |Residual|: 1.587e-03   |deigs|: 3.192e-03  t[s]:     27.81
	FillingsUpdate:  mu: -0.087049824  nElectrons: 9.000000  magneticMoment: [ Abs: 0.82314  Tot: -0.82000 ]
SCF: Cycle:  4   F: -24.436244188150745   dF: -2.395e-05   |Residual|: 9.165e-04   |deigs|: 1.687e-03  t[s]:     31.78
	FillingsUpdate:  mu: -0.086908450  nElectrons: 9.000000  magneticMoment: [ Abs: 0.82378  Tot: -0.82000 ]
SCF: Cycle:  5   F: -24.436252236246098   dF: -8.048e-06   |Residual|: 5.170e-04   |deigs|: 1.393e-03  t[s]:     35.77
	FillingsUpdate:  mu: -0.086814805  nElectrons: 9.000000  magneticMoment: [ Abs: 0.82338  Tot: -0.82000 ]
SCF: Cycle:  6   F: -24.436256172758736   dF: -3.937e-06   |Residual|: 3.805e-04   |deigs|: 8.623e-04  t[s]:     39.83
	FillingsUpdate:  mu: -0.086624378  nElectrons: 9.000000  magneticMoment: [ Abs: 0.82369  Tot: -0.82000 ]
SCF: Cycle:  7   F: -24.436258257066019   dF: -2.084e-06   |Residual|: 2.902e-04   |deigs|: 2.460e-04  t[s]:     43.99
	FillingsUpdate:  mu: -0.086265377  nElectrons: 9.000000  magneticMoment: [ Abs: 0.82433  Tot: -0.82000 ]
SCF: Cycle:  8   F: -24.436258020766381   dF: +2.363e-07   |Residual|: 2.426e-04   |deigs|: 3.860e-04  t[s]:     48.19
	FillingsUpdate:  mu: -0.085905386  nElectrons: 9.000000  magneticMoment: [ Abs: 0.82460  Tot: -0.82000 ]
SCF: Cycle:  9   F: -24.436256984843379   dF: +1.036e-06   |Residual|: 2.258e-04   |deigs|: 4.596e-04  t[s]:     52.47
	FillingsUpdate:  mu: -0.085721756  nElectrons: 9.000000  magneticMoment: [ Abs: 0.82397  Tot: -0.82000 ]
SCF: Cycle: 10   F: -24.436258489575845   dF: -1.505e-06   |Residual|: 1.896e-04   |deigs|: 2.223e-04  t[s]:     56.84
	FillingsUpdate:  mu: -0.085690865  nElectrons: 9.000000  magneticMoment: [ Abs: 0.82465  Tot: -0.82000 ]
SCF: Cycle: 11   F: -24.436259811278607   dF: -1.322e-06   |Residual|: 1.364e-04   |deigs|: 2.669e-04  t[s]:     61.13
	FillingsUpdate:  mu: -0.085494888  nElectrons: 9.000000  magneticMoment: [ Abs: 0.82482  Tot: -0.82000 ]
SCF: Cycle: 12   F: -24.436260256234107   dF: -4.450e-07   |Residual|: 1.296e-04   |deigs|: 2.321e-04  t[s]:     65.46
	FillingsUpdate:  mu: -0.085220509  nElectrons: 9.000000  magneticMoment: [ Abs: 0.82475  Tot: -0.82000 ]
SCF: Cycle: 13   F: -24.436260312168333   dF: -5.593e-08   |Residual|: 1.294e-04   |deigs|: 2.935e-04  t[s]:     69.73
	FillingsUpdate:  mu: -0.084939879  nElectrons: 9.000000  magneticMoment: [ Abs: 0.82472  Tot: -0.82000 ]
SCF: Cycle: 14   F: -24.436260103406870   dF: +2.088e-07   |Residual|: 1.201e-04   |deigs|: 3.968e-04  t[s]:     74.06
	FillingsUpdate:  mu: -0.084820855  nElectrons: 9.000000  magneticMoment: [ Abs: 0.82460  Tot: -0.82000 ]
SCF: Cycle: 15   F: -24.436260760521783   dF: -6.571e-07   |Residual|: 1.001e-04   |deigs|: 1.861e-04  t[s]:     78.37
	FillingsUpdate:  mu: -0.084660012  nElectrons: 9.000000  magneticMoment: [ Abs: 0.82375  Tot: -0.82000 ]
SCF: Cycle: 16   F: -24.436261331163319   dF: -5.706e-07   |Residual|: 7.848e-05   |deigs|: 2.409e-04  t[s]:     82.62
	FillingsUpdate:  mu: -0.084535340  nElectrons: 9.000000  magneticMoment: [ Abs: 0.82356  Tot: -0.82000 ]
SCF: Cycle: 17   F: -24.436261632838164   dF: -3.017e-07   |Residual|: 5.780e-05   |deigs|: 1.454e-04  t[s]:     86.96
	FillingsUpdate:  mu: -0.084534589  nElectrons: 9.000000  magneticMoment: [ Abs: 0.82359  Tot: -0.82000 ]
SCF: Cycle: 18   F: -24.436261659388503   dF: -2.655e-08   |Residual|: 4.018e-05   |deigs|: 7.140e-05  t[s]:     91.30
	FillingsUpdate:  mu: -0.084518422  nElectrons: 9.000000  magneticMoment: [ Abs: 0.82359  Tot: -0.82000 ]
SCF: Cycle: 19   F: -24.436261866578334   dF: -2.072e-07   |Residual|: 2.264e-05   |deigs|: 7.160e-05  t[s]:     95.68
	FillingsUpdate:  mu: -0.084513739  nElectrons: 9.000000  magneticMoment: [ Abs: 0.82361  Tot: -0.82000 ]
SCF: Cycle: 20   F: -24.436261904406155   dF: -3.783e-08   |Residual|: 1.579e-05   |deigs|: 6.617e-05  t[s]:     99.90
	FillingsUpdate:  mu: -0.084519635  nElectrons: 9.000000  magneticMoment: [ Abs: 0.82361  Tot: -0.82000 ]
SCF: Cycle: 21   F: -24.436261919105860   dF: -1.470e-08   |Residual|: 9.737e-06   |deigs|: 5.942e-05  t[s]:    104.18
	FillingsUpdate:  mu: -0.084516544  nElectrons: 9.000000  magneticMoment: [ Abs: 0.82360  Tot: -0.82000 ]
SCF: Cycle: 22   F: -24.436261927576201   dF: -8.470e-09   |Residual|: 6.608e-06   |deigs|: 4.811e-05  t[s]:    108.47
	FillingsUpdate:  mu: -0.084518846  nElectrons: 9.000000  magneticMoment: [ Abs: 0.82363  Tot: -0.82000 ]
SCF: Cycle: 23   F: -24.436261934846030   dF: -7.270e-09   |Residual|: 4.435e-06   |deigs|: 3.686e-05  t[s]:    112.83
SCF: Converged (|Delta E|<1.000000e-08 for 2 iters).


# Ionic positions in lattice coordinates:
ion Rb   0.000000000000000   0.000000000000000   0.000000000000000 0

# Forces in Lattice coordinates:
force Rb   0.000000000000000   0.000000000000000   0.000000000000000 0

# Energy components:
   Eewald =      -12.0320174002217755
       EH =        7.5212255523929965
     Eloc =      -22.4350776469757136
      Enl =       -0.7958001261473542
   Epulay =       -0.0000000014467880
      Exc =       -3.6520177446797000
       KE =        6.9574256945501567
-------------------------------------
     Etot =      -24.4362616725281789
       TS =        0.0000002623178494
-------------------------------------
        F =      -24.4362619348460299

IonicMinimize: Iter:   0  F: -24.436261934846030  |grad|_K:  0.000e+00  t[s]:    113.09
IonicMinimize: Converged (|grad|_K<1.000000e-04).

#--- Lowdin population analysis ---
# oxidation-state Rb +0.033
# magnetic-moments Rb -0.789

End date and time: Sun Feb  6 12:37:47 2022  (Duration: 0-0:01:53.13)
Done!
