
*************** JDFTx 1.6.0 (git hash 42ebbcc2) ***************

Start date and time: Sun Feb  6 12:42:22 2022
Executable jdftx with command-line: -i Alkali.in
Running on hosts (process indices):  d-6-8-2 (0-18)
Divided in process groups (process indices):  0 (0)  1 (1)  2 (2)  3 (3)  4 (4)  5 (5)  6 (6)  7 (7)  8 (8)  9 (9)  10 (10)  11 (11)  12 (12)  13 (13)  14 (14)  15 (15)  16 (16)  17 (17)  18 (18)
Resource initialization completed at t[s]:      0.00
Run totals: 19 processes, 48 threads, 0 GPUs


Input parsed successfully to the following command list (including defaults):

basis kpoint-dependent
coords-type Lattice
core-overlap-check vector
coulomb-interaction Slab 001
davidson-band-ratio 1.1
dump End None
dump-name $INPUT.$VAR
elec-cutoff 20
elec-eigen-algo Davidson
elec-ex-corr gga-PBE
elec-initial-magnetization -0.360000 yes
elec-smearing Fermi 1e-05
electronic-minimize  \
	dirUpdateScheme      FletcherReeves \
	linminMethod         DirUpdateRecommended \
	nIterations          100 \
	history              15 \
	knormThreshold       0 \
	energyDiffThreshold  1e-08 \
	nEnergyDiff          2 \
	alphaTstart          1 \
	alphaTmin            1e-10 \
	updateTestStepSize   yes \
	alphaTreduceFactor   0.1 \
	alphaTincreaseFactor 3 \
	nAlphaAdjustMax      3 \
	wolfeEnergy          0.0001 \
	wolfeGradient        0.9 \
	fdTest               no
electronic-scf  \
	nIterations	10000 \
	energyDiffThreshold	1e-08 \
	residualThreshold	1e-07 \
	mixFraction	0.5 \
	qMetric	0.8 \
	history	10 \
	nEigSteps	2 \
	eigDiffThreshold	1e-08 \
	mixedVariable	Density \
	qKerker	0.8 \
	qKappa	-1 \
	verbose	no \
	mixFractionMag	1.5
exchange-regularization WignerSeitzTruncated
fluid None
fluid-ex-corr (null) lda-PZ
fluid-gummel-loop 10 1.000000e-05
fluid-minimize  \
	dirUpdateScheme      PolakRibiere \
	linminMethod         DirUpdateRecommended \
	nIterations          100 \
	history              15 \
	knormThreshold       0 \
	energyDiffThreshold  0 \
	nEnergyDiff          2 \
	alphaTstart          1 \
	alphaTmin            1e-10 \
	updateTestStepSize   yes \
	alphaTreduceFactor   0.1 \
	alphaTincreaseFactor 3 \
	nAlphaAdjustMax      3 \
	wolfeEnergy          0.0001 \
	wolfeGradient        0.9 \
	fdTest               no
fluid-solvent H2O 55.338 ScalarEOS \
	epsBulk 78.4 \
	pMol 0.92466 \
	epsInf 1.77 \
	Pvap 1.06736e-10 \
	sigmaBulk 4.62e-05 \
	Rvdw 2.61727 \
	Res 1.42 \
	tauNuc 343133 \
	poleEl 15 7 1
forces-output-coords Positions
ion Rb   0.000000000000000   0.000000000000000   0.000000000000000 0
ion-species SG15/$ID_ONCV_PBE.upf
ion-width 0
ionic-minimize  \
	dirUpdateScheme      L-BFGS \
	linminMethod         DirUpdateRecommended \
	nIterations          0 \
	history              15 \
	knormThreshold       0.0001 \
	energyDiffThreshold  1e-06 \
	nEnergyDiff          2 \
	alphaTstart          1 \
	alphaTmin            1e-10 \
	updateTestStepSize   yes \
	alphaTreduceFactor   0.1 \
	alphaTincreaseFactor 3 \
	nAlphaAdjustMax      3 \
	wolfeEnergy          0.0001 \
	wolfeGradient        0.9 \
	fdTest               no
kpoint   0.000000000000   0.000000000000   0.000000000000  1.00000000000000
kpoint-folding 12 12 1 
latt-move-scale 1 1 1
latt-scale 3 3 1 
lattice  \
	   4.727486978767153   -2.363743489383575    0.000000000000000  \
	  -0.000000000000000    4.094123819672498    0.000000000000000  \
	   0.000000000000000    0.000000000000000   40.000000000000000 
lattice-minimize  \
	dirUpdateScheme      L-BFGS \
	linminMethod         DirUpdateRecommended \
	nIterations          0 \
	history              15 \
	knormThreshold       0 \
	energyDiffThreshold  1e-06 \
	nEnergyDiff          2 \
	alphaTstart          1 \
	alphaTmin            1e-10 \
	updateTestStepSize   yes \
	alphaTreduceFactor   0.1 \
	alphaTincreaseFactor 3 \
	nAlphaAdjustMax      3 \
	wolfeEnergy          0.0001 \
	wolfeGradient        0.9 \
	fdTest               no
lcao-params -1 1e-06 1e-05
pcm-variant GLSSA13
spintype z-spin
subspace-rotation-factor 1 yes
symmetries automatic
symmetry-threshold 0.0001



---------- Setting up symmetries ----------

Found 24 point-group symmetries of the bravais lattice
Found 24 space-group symmetries with basis
Applied RMS atom displacement 0 bohrs to make symmetries exact.

---------- Initializing the Grid ----------
R = 
[      14.1825     -7.09123            0  ]
[            0      12.2824            0  ]
[            0            0           40  ]
unit cell volume = 6967.77
G =
[   0.443025   0.255781         -0  ]
[          0   0.511561         -0  ]
[         -0         -0    0.15708  ]
Minimum fftbox size, Smin = [  60  60  164  ]
Chosen fftbox size, S = [  60  60  168  ]

---------- Exchange Correlation functional ----------
Initalized PBE GGA exchange.
Initalized PBE GGA correlation.

---------- Setting up pseudopotentials ----------
Width of ionic core gaussian charges (only for fluid interactions / plotting) set to 0

Reading pseudopotential file '/home/gridsan/aligho/DFT/build-Nov24/pseudopotentials/SG15/Rb_ONCV_PBE.upf':
  'Rb' pseudopotential, 'PBE' functional
  Generated using ONCVPSP code by D. R. Hamann
  Author: Martin Schlipf and Francois Gygi  Date: 150915.
  9 valence electrons, 3 orbitals, 6 projectors, 2308 radial grid points, with lMax = 2
  Transforming local potential to a uniform radial grid of dG=0.02 with 1489 points.
  Transforming nonlocal projectors to a uniform radial grid of dG=0.02 with 432 points.
    4S    l: 0   occupation:  2.0   eigenvalue: -1.172069
    4P    l: 1   occupation:  6.0   eigenvalue: -0.586674
    5S    l: 0   occupation:  1.0   eigenvalue: -0.082006
  Transforming atomic orbitals to a uniform radial grid of dG=0.02 with 432 points.
  Core radius for overlap checks: 2.60 bohrs.
  Reading pulay file /home/gridsan/aligho/DFT/build-Nov24/pseudopotentials/SG15/Rb_ONCV_PBE.pulay ... using dE_dnG = -1.360715e-05 computed for Ecut = 20.

Initialized 1 species with 1 total atoms.

Folded 1 k-points by 12x12x1 to 144 k-points.

---------- Setting up k-points, bands, fillings ----------
Reduced to 19 k-points under symmetry. 
Computing the number of bands and number of electrons
Calculating initial fillings.
nElectrons:   9.000000   nBands: 6   nStates: 38

----- Setting up reduced wavefunction bases (one per k-point) -----
average nbasis = 29766.104 , ideal nbasis = 29766.845

---------- Setting up coulomb interaction ----------
Initialized slab truncation along lattice direction 001

---------- Setting up 2D ewald sum ----------
Optimum gaussian width for ewald sums = 7.873530 bohr.
Real space sums over 289 unit cells with max indices [  8  8  0  ]
Reciprocal space sums over 81 terms with max indices [  4  4  0  ]

---------- Allocating electronic variables ----------
Initializing wave functions:  linear combination of atomic orbitals
Note: number of bands (6) exceeds available atomic orbitals (5)
Rb pseudo-atom occupations:   s ( 2 1 )  p ( 6 )
	FillingsUpdate:  mu: -0.083603912  nElectrons: 9.000000  magneticMoment: [ Abs: 0.36000  Tot: -0.36000 ]
LCAOMinimize: Iter:   0  F: -24.4363712001161133  |grad|_K:  1.935e-05  alpha:  1.000e+00
	FillingsUpdate:  mu: -0.083600049  nElectrons: 9.000000  magneticMoment: [ Abs: 0.36000  Tot: -0.36000 ]
LCAOMinimize: Iter:   1  F: -24.4363714527128622  |grad|_K:  1.537e-07  alpha:  9.868e-01  linmin: -1.728e-02  cgtest:  4.089e-01  t[s]:      8.64
LCAOMinimize: Encountered beta<0, resetting CG.
	FillingsUpdate:  mu: -0.083600054  nElectrons: 9.000000  magneticMoment: [ Abs: 0.36000  Tot: -0.36000 ]
LCAOMinimize: Iter:   2  F: -24.4363714527289062  |grad|_K:  2.002e-09  alpha:  1.013e+00  linmin:  5.911e-02  cgtest: -9.770e-01  t[s]:     10.99
LCAOMinimize: Converged (|Delta F|<1.000000e-06 for 2 iters).


---- Citations for features of the code used in this run ----

   Software package:
      R. Sundararaman, K. Letchworth-Weaver, K.A. Schwarz, D. Gunceler, Y. Ozhabes and T.A. Arias, 'JDFTx: software for joint density-functional theory', SoftwareX 6, 278 (2017)

   gga-PBE exchange-correlation functional:
      J.P. Perdew, K. Burke and M. Ernzerhof, Phys. Rev. Lett. 77, 3865 (1996)

   Pseudopotentials:
      M Schlipf and F Gygi, Comput. Phys. Commun. 196, 36 (2015)

   Truncated Coulomb potentials:
      R. Sundararaman and T.A. Arias, Phys. Rev. B 87, 165122 (2013)

This list may not be complete. Please suggest additional citations or
report any other bugs at https://github.com/shankar1729/jdftx/issues

Initialization completed successfully at t[s]:     11.15


-------- Electronic minimization -----------
Will mix electronic density at each iteration.
	FillingsUpdate:  mu: -0.083600054  nElectrons: 9.000000  magneticMoment: [ Abs: 0.36000  Tot: -0.36000 ]
	FillingsUpdate:  mu: -0.085533685  nElectrons: 9.000000  magneticMoment: [ Abs: 0.36000  Tot: -0.36000 ]
SCF: Cycle:  0   F: -24.438060556004615   dF: -1.689e-03   |Residual|: 3.878e-03   |deigs|: 1.737e-01  t[s]:     15.95
	FillingsUpdate:  mu: -0.085716189  nElectrons: 9.000000  magneticMoment: [ Abs: 0.36021  Tot: -0.36000 ]
SCF: Cycle:  1   F: -24.438111875091437   dF: -5.132e-05   |Residual|: 3.263e-03   |deigs|: 4.687e-03  t[s]:     19.67
	FillingsUpdate:  mu: -0.086008678  nElectrons: 9.000000  magneticMoment: [ Abs: 0.36195  Tot: -0.36000 ]
SCF: Cycle:  2   F: -24.438148171459872   dF: -3.630e-05   |Residual|: 2.074e-03   |deigs|: 2.001e-03  t[s]:     23.43
	FillingsUpdate:  mu: -0.086213438  nElectrons: 9.000000  magneticMoment: [ Abs: 0.36240  Tot: -0.36000 ]
SCF: Cycle:  3   F: -24.438163408640801   dF: -1.524e-05   |Residual|: 1.246e-03   |deigs|: 2.757e-03  t[s]:     27.25
	FillingsUpdate:  mu: -0.086213850  nElectrons: 9.000000  magneticMoment: [ Abs: 0.36056  Tot: -0.36000 ]
SCF: Cycle:  4   F: -24.438171630277402   dF: -8.222e-06   |Residual|: 6.697e-04   |deigs|: 2.230e-03  t[s]:     31.20
	FillingsUpdate:  mu: -0.086203132  nElectrons: 9.000000  magneticMoment: [ Abs: 0.36124  Tot: -0.36000 ]
SCF: Cycle:  5   F: -24.438176263098413   dF: -4.633e-06   |Residual|: 4.744e-04   |deigs|: 2.181e-03  t[s]:     35.16
	FillingsUpdate:  mu: -0.086063378  nElectrons: 9.000000  magneticMoment: [ Abs: 0.36118  Tot: -0.36000 ]
SCF: Cycle:  6   F: -24.438178718237296   dF: -2.455e-06   |Residual|: 3.508e-04   |deigs|: 1.166e-03  t[s]:     39.18
	FillingsUpdate:  mu: -0.085850277  nElectrons: 9.000000  magneticMoment: [ Abs: 0.36138  Tot: -0.36000 ]
SCF: Cycle:  7   F: -24.438179200219913   dF: -4.820e-07   |Residual|: 2.846e-04   |deigs|: 3.148e-04  t[s]:     43.23
	FillingsUpdate:  mu: -0.085591502  nElectrons: 9.000000  magneticMoment: [ Abs: 0.36228  Tot: -0.36000 ]
SCF: Cycle:  8   F: -24.438179343610773   dF: -1.434e-07   |Residual|: 2.336e-04   |deigs|: 3.231e-04  t[s]:     47.36
	FillingsUpdate:  mu: -0.085274018  nElectrons: 9.000000  magneticMoment: [ Abs: 0.36217  Tot: -0.36000 ]
SCF: Cycle:  9   F: -24.438178444660057   dF: +8.990e-07   |Residual|: 2.045e-04   |deigs|: 3.771e-04  t[s]:     51.53
	FillingsUpdate:  mu: -0.085007546  nElectrons: 9.000000  magneticMoment: [ Abs: 0.36204  Tot: -0.36000 ]
SCF: Cycle: 10   F: -24.438178771040874   dF: -3.264e-07   |Residual|: 1.867e-04   |deigs|: 4.707e-04  t[s]:     55.77
	FillingsUpdate:  mu: -0.084910536  nElectrons: 9.000000  magneticMoment: [ Abs: 0.36201  Tot: -0.36000 ]
SCF: Cycle: 11   F: -24.438179704459312   dF: -9.334e-07   |Residual|: 1.429e-04   |deigs|: 2.633e-04  t[s]:     59.97
	FillingsUpdate:  mu: -0.084680946  nElectrons: 9.000000  magneticMoment: [ Abs: 0.36217  Tot: -0.36000 ]
SCF: Cycle: 12   F: -24.438180019725749   dF: -3.153e-07   |Residual|: 1.331e-04   |deigs|: 4.568e-04  t[s]:     64.20
	FillingsUpdate:  mu: -0.084254136  nElectrons: 9.000000  magneticMoment: [ Abs: 0.36178  Tot: -0.36000 ]
SCF: Cycle: 13   F: -24.438179299654301   dF: +7.201e-07   |Residual|: 1.341e-04   |deigs|: 4.657e-04  t[s]:     68.51
	FillingsUpdate:  mu: -0.084110829  nElectrons: 9.000000  magneticMoment: [ Abs: 0.36148  Tot: -0.36000 ]
SCF: Cycle: 14   F: -24.438179572031451   dF: -2.724e-07   |Residual|: 1.222e-04   |deigs|: 2.429e-04  t[s]:     72.69
	FillingsUpdate:  mu: -0.084026480  nElectrons: 9.000000  magneticMoment: [ Abs: 0.36172  Tot: -0.36000 ]
SCF: Cycle: 15   F: -24.438180542872260   dF: -9.708e-07   |Residual|: 1.003e-04   |deigs|: 1.986e-04  t[s]:     76.97
	FillingsUpdate:  mu: -0.083796748  nElectrons: 9.000000  magneticMoment: [ Abs: 0.36136  Tot: -0.36000 ]
SCF: Cycle: 16   F: -24.438181093985992   dF: -5.511e-07   |Residual|: 7.310e-05   |deigs|: 2.522e-04  t[s]:     81.22
	FillingsUpdate:  mu: -0.083641875  nElectrons: 9.000000  magneticMoment: [ Abs: 0.36121  Tot: -0.36000 ]
SCF: Cycle: 17   F: -24.438181243467852   dF: -1.495e-07   |Residual|: 4.807e-05   |deigs|: 5.102e-04  t[s]:     85.42
	FillingsUpdate:  mu: -0.083658156  nElectrons: 9.000000  magneticMoment: [ Abs: 0.36120  Tot: -0.36000 ]
SCF: Cycle: 18   F: -24.438181353687401   dF: -1.102e-07   |Residual|: 3.152e-05   |deigs|: 9.096e-05  t[s]:     89.65
	FillingsUpdate:  mu: -0.083677809  nElectrons: 9.000000  magneticMoment: [ Abs: 0.36120  Tot: -0.36000 ]
SCF: Cycle: 19   F: -24.438181411939890   dF: -5.825e-08   |Residual|: 1.936e-05   |deigs|: 2.875e-05  t[s]:     93.82
	FillingsUpdate:  mu: -0.083675255  nElectrons: 9.000000  magneticMoment: [ Abs: 0.36119  Tot: -0.36000 ]
SCF: Cycle: 20   F: -24.438181425784219   dF: -1.384e-08   |Residual|: 1.291e-05   |deigs|: 9.655e-06  t[s]:     97.97
	FillingsUpdate:  mu: -0.083681044  nElectrons: 9.000000  magneticMoment: [ Abs: 0.36121  Tot: -0.36000 ]
SCF: Cycle: 21   F: -24.438181441195610   dF: -1.541e-08   |Residual|: 5.962e-06   |deigs|: 1.208e-05  t[s]:    102.18
	FillingsUpdate:  mu: -0.083683866  nElectrons: 9.000000  magneticMoment: [ Abs: 0.36122  Tot: -0.36000 ]
SCF: Cycle: 22   F: -24.438181443649331   dF: -2.454e-09   |Residual|: 3.897e-06   |deigs|: 6.878e-06  t[s]:    106.31
	FillingsUpdate:  mu: -0.083684029  nElectrons: 9.000000  magneticMoment: [ Abs: 0.36121  Tot: -0.36000 ]
SCF: Cycle: 23   F: -24.438181444719071   dF: -1.070e-09   |Residual|: 3.120e-06   |deigs|: 3.944e-06  t[s]:    110.55
SCF: Converged (|Delta E|<1.000000e-08 for 2 iters).


# Ionic positions in lattice coordinates:
ion Rb   0.000000000000000   0.000000000000000   0.000000000000000 0

# Forces in Lattice coordinates:
force Rb  -0.000000000000000   0.000000000000000   0.000000000000000 0

# Energy components:
   Eewald =      -12.0320174002217755
       EH =        7.4915840586941727
     Eloc =      -22.4020109002115113
      Enl =       -0.7976096215097292
   Epulay =       -0.0000000014467880
      Exc =       -3.6474598957458753
       KE =        6.9493330158000646
-------------------------------------
     Etot =      -24.4381807446414427
       TS =        0.0000007000776280
-------------------------------------
        F =      -24.4381814447190706

IonicMinimize: Iter:   0  F: -24.438181444719071  |grad|_K:  0.000e+00  t[s]:    110.80
IonicMinimize: Converged (|grad|_K<1.000000e-04).

#--- Lowdin population analysis ---
# oxidation-state Rb +0.033
# magnetic-moments Rb -0.339

End date and time: Sun Feb  6 12:44:12 2022  (Duration: 0-0:01:50.84)
Done!
