
*************** JDFTx 1.6.0 (git hash 42ebbcc2) ***************

Start date and time: Sun Feb  6 12:55:18 2022
Executable jdftx with command-line: -i Alkali.in
Running on hosts (process indices):  d-17-2-2 (0-18)
Divided in process groups (process indices):  0 (0)  1 (1)  2 (2)  3 (3)  4 (4)  5 (5)  6 (6)  7 (7)  8 (8)  9 (9)  10 (10)  11 (11)  12 (12)  13 (13)  14 (14)  15 (15)  16 (16)  17 (17)  18 (18)
Resource initialization completed at t[s]:      0.00
Run totals: 19 processes, 48 threads, 0 GPUs


Input parsed successfully to the following command list (including defaults):

basis kpoint-dependent
coords-type Lattice
core-overlap-check vector
coulomb-interaction Slab 001
davidson-band-ratio 1.1
dump End None
dump-name $INPUT.$VAR
elec-cutoff 20
elec-eigen-algo Davidson
elec-ex-corr gga-PBE
elec-initial-magnetization 0.740000 yes
elec-smearing Fermi 1e-05
electronic-minimize  \
	dirUpdateScheme      FletcherReeves \
	linminMethod         DirUpdateRecommended \
	nIterations          100 \
	history              15 \
	knormThreshold       0 \
	energyDiffThreshold  1e-08 \
	nEnergyDiff          2 \
	alphaTstart          1 \
	alphaTmin            1e-10 \
	updateTestStepSize   yes \
	alphaTreduceFactor   0.1 \
	alphaTincreaseFactor 3 \
	nAlphaAdjustMax      3 \
	wolfeEnergy          0.0001 \
	wolfeGradient        0.9 \
	fdTest               no
electronic-scf  \
	nIterations	10000 \
	energyDiffThreshold	1e-08 \
	residualThreshold	1e-07 \
	mixFraction	0.5 \
	qMetric	0.8 \
	history	10 \
	nEigSteps	2 \
	eigDiffThreshold	1e-08 \
	mixedVariable	Density \
	qKerker	0.8 \
	qKappa	-1 \
	verbose	no \
	mixFractionMag	1.5
exchange-regularization WignerSeitzTruncated
fluid None
fluid-ex-corr (null) lda-PZ
fluid-gummel-loop 10 1.000000e-05
fluid-minimize  \
	dirUpdateScheme      PolakRibiere \
	linminMethod         DirUpdateRecommended \
	nIterations          100 \
	history              15 \
	knormThreshold       0 \
	energyDiffThreshold  0 \
	nEnergyDiff          2 \
	alphaTstart          1 \
	alphaTmin            1e-10 \
	updateTestStepSize   yes \
	alphaTreduceFactor   0.1 \
	alphaTincreaseFactor 3 \
	nAlphaAdjustMax      3 \
	wolfeEnergy          0.0001 \
	wolfeGradient        0.9 \
	fdTest               no
fluid-solvent H2O 55.338 ScalarEOS \
	epsBulk 78.4 \
	pMol 0.92466 \
	epsInf 1.77 \
	Pvap 1.06736e-10 \
	sigmaBulk 4.62e-05 \
	Rvdw 2.61727 \
	Res 1.42 \
	tauNuc 343133 \
	poleEl 15 7 1
forces-output-coords Positions
ion Rb   0.000000000000000   0.000000000000000   0.000000000000000 0
ion-species SG15/$ID_ONCV_PBE.upf
ion-width 0
ionic-minimize  \
	dirUpdateScheme      L-BFGS \
	linminMethod         DirUpdateRecommended \
	nIterations          0 \
	history              15 \
	knormThreshold       0.0001 \
	energyDiffThreshold  1e-06 \
	nEnergyDiff          2 \
	alphaTstart          1 \
	alphaTmin            1e-10 \
	updateTestStepSize   yes \
	alphaTreduceFactor   0.1 \
	alphaTincreaseFactor 3 \
	nAlphaAdjustMax      3 \
	wolfeEnergy          0.0001 \
	wolfeGradient        0.9 \
	fdTest               no
kpoint   0.000000000000   0.000000000000   0.000000000000  1.00000000000000
kpoint-folding 12 12 1 
latt-move-scale 1 1 1
latt-scale 3 3 1 
lattice  \
	   4.727486978767153   -2.363743489383575    0.000000000000000  \
	  -0.000000000000000    4.094123819672498    0.000000000000000  \
	   0.000000000000000    0.000000000000000   40.000000000000000 
lattice-minimize  \
	dirUpdateScheme      L-BFGS \
	linminMethod         DirUpdateRecommended \
	nIterations          0 \
	history              15 \
	knormThreshold       0 \
	energyDiffThreshold  1e-06 \
	nEnergyDiff          2 \
	alphaTstart          1 \
	alphaTmin            1e-10 \
	updateTestStepSize   yes \
	alphaTreduceFactor   0.1 \
	alphaTincreaseFactor 3 \
	nAlphaAdjustMax      3 \
	wolfeEnergy          0.0001 \
	wolfeGradient        0.9 \
	fdTest               no
lcao-params -1 1e-06 1e-05
pcm-variant GLSSA13
spintype z-spin
subspace-rotation-factor 1 yes
symmetries automatic
symmetry-threshold 0.0001



---------- Setting up symmetries ----------

Found 24 point-group symmetries of the bravais lattice
Found 24 space-group symmetries with basis
Applied RMS atom displacement 0 bohrs to make symmetries exact.

---------- Initializing the Grid ----------
R = 
[      14.1825     -7.09123            0  ]
[            0      12.2824            0  ]
[            0            0           40  ]
unit cell volume = 6967.77
G =
[   0.443025   0.255781         -0  ]
[          0   0.511561         -0  ]
[         -0         -0    0.15708  ]
Minimum fftbox size, Smin = [  60  60  164  ]
Chosen fftbox size, S = [  60  60  168  ]

---------- Exchange Correlation functional ----------
Initalized PBE GGA exchange.
Initalized PBE GGA correlation.

---------- Setting up pseudopotentials ----------
Width of ionic core gaussian charges (only for fluid interactions / plotting) set to 0

Reading pseudopotential file '/home/gridsan/aligho/DFT/build-Nov24/pseudopotentials/SG15/Rb_ONCV_PBE.upf':
  'Rb' pseudopotential, 'PBE' functional
  Generated using ONCVPSP code by D. R. Hamann
  Author: Martin Schlipf and Francois Gygi  Date: 150915.
  9 valence electrons, 3 orbitals, 6 projectors, 2308 radial grid points, with lMax = 2
  Transforming local potential to a uniform radial grid of dG=0.02 with 1489 points.
  Transforming nonlocal projectors to a uniform radial grid of dG=0.02 with 432 points.
    4S    l: 0   occupation:  2.0   eigenvalue: -1.172069
    4P    l: 1   occupation:  6.0   eigenvalue: -0.586674
    5S    l: 0   occupation:  1.0   eigenvalue: -0.082006
  Transforming atomic orbitals to a uniform radial grid of dG=0.02 with 432 points.
  Core radius for overlap checks: 2.60 bohrs.
  Reading pulay file /home/gridsan/aligho/DFT/build-Nov24/pseudopotentials/SG15/Rb_ONCV_PBE.pulay ... using dE_dnG = -1.360715e-05 computed for Ecut = 20.

Initialized 1 species with 1 total atoms.

Folded 1 k-points by 12x12x1 to 144 k-points.

---------- Setting up k-points, bands, fillings ----------
Reduced to 19 k-points under symmetry. 
Computing the number of bands and number of electrons
Calculating initial fillings.
nElectrons:   9.000000   nBands: 6   nStates: 38

----- Setting up reduced wavefunction bases (one per k-point) -----
average nbasis = 29766.104 , ideal nbasis = 29766.845

---------- Setting up coulomb interaction ----------
Initialized slab truncation along lattice direction 001

---------- Setting up 2D ewald sum ----------
Optimum gaussian width for ewald sums = 7.873530 bohr.
Real space sums over 289 unit cells with max indices [  8  8  0  ]
Reciprocal space sums over 81 terms with max indices [  4  4  0  ]

---------- Allocating electronic variables ----------
Initializing wave functions:  linear combination of atomic orbitals
Note: number of bands (6) exceeds available atomic orbitals (5)
Rb pseudo-atom occupations:   s ( 2 1 )  p ( 6 )
	FillingsUpdate:  mu: -0.085992756  nElectrons: 9.000000  magneticMoment: [ Abs: 0.74000  Tot: +0.74000 ]
LCAOMinimize: Iter:   0  F: -24.4351165795383558  |grad|_K:  9.873e-06  alpha:  1.000e+00
	FillingsUpdate:  mu: -0.085990865  nElectrons: 9.000000  magneticMoment: [ Abs: 0.74000  Tot: +0.74000 ]
LCAOMinimize: Iter:   1  F: -24.4351166455779207  |grad|_K:  6.944e-08  alpha:  9.904e-01  linmin: -8.447e-03  cgtest:  1.955e-01  t[s]:      8.81
LCAOMinimize: Encountered beta<0, resetting CG.
	FillingsUpdate:  mu: -0.085990872  nElectrons: 9.000000  magneticMoment: [ Abs: 0.74000  Tot: +0.74000 ]
LCAOMinimize: Iter:   2  F: -24.4351166455815054  |grad|_K:  1.703e-09  alpha:  1.022e+00  linmin:  9.225e-02  cgtest: -9.712e-01  t[s]:     11.22
LCAOMinimize: Converged (|Delta F|<1.000000e-06 for 2 iters).


---- Citations for features of the code used in this run ----

   Software package:
      R. Sundararaman, K. Letchworth-Weaver, K.A. Schwarz, D. Gunceler, Y. Ozhabes and T.A. Arias, 'JDFTx: software for joint density-functional theory', SoftwareX 6, 278 (2017)

   gga-PBE exchange-correlation functional:
      J.P. Perdew, K. Burke and M. Ernzerhof, Phys. Rev. Lett. 77, 3865 (1996)

   Pseudopotentials:
      M Schlipf and F Gygi, Comput. Phys. Commun. 196, 36 (2015)

   Truncated Coulomb potentials:
      R. Sundararaman and T.A. Arias, Phys. Rev. B 87, 165122 (2013)

This list may not be complete. Please suggest additional citations or
report any other bugs at https://github.com/shankar1729/jdftx/issues

Initialization completed successfully at t[s]:     11.38


-------- Electronic minimization -----------
Will mix electronic density at each iteration.
	FillingsUpdate:  mu: -0.085990872  nElectrons: 9.000000  magneticMoment: [ Abs: 0.74000  Tot: +0.74000 ]
	FillingsUpdate:  mu: -0.086822637  nElectrons: 9.000000  magneticMoment: [ Abs: 0.74000  Tot: +0.74000 ]
SCF: Cycle:  0   F: -24.436566108761074   dF: -1.449e-03   |Residual|: 3.888e-03   |deigs|: 1.734e-01  t[s]:     16.17
	FillingsUpdate:  mu: -0.087025234  nElectrons: 9.000000  magneticMoment: [ Abs: 0.74118  Tot: +0.74000 ]
SCF: Cycle:  1   F: -24.436629916981449   dF: -6.381e-05   |Residual|: 2.922e-03   |deigs|: 5.014e-03  t[s]:     19.93
	FillingsUpdate:  mu: -0.087217059  nElectrons: 9.000000  magneticMoment: [ Abs: 0.74324  Tot: +0.74000 ]
SCF: Cycle:  2   F: -24.436670646241883   dF: -4.073e-05   |Residual|: 2.225e-03   |deigs|: 1.757e-03  t[s]:     23.76
	FillingsUpdate:  mu: -0.087493431  nElectrons: 9.000000  magneticMoment: [ Abs: 0.74418  Tot: +0.74000 ]
SCF: Cycle:  3   F: -24.436703326145700   dF: -3.268e-05   |Residual|: 1.620e-03   |deigs|: 2.869e-03  t[s]:     27.67
	FillingsUpdate:  mu: -0.087453280  nElectrons: 9.000000  magneticMoment: [ Abs: 0.74250  Tot: +0.74000 ]
SCF: Cycle:  4   F: -24.436721487866873   dF: -1.816e-05   |Residual|: 8.903e-04   |deigs|: 1.888e-03  t[s]:     31.73
	FillingsUpdate:  mu: -0.087446795  nElectrons: 9.000000  magneticMoment: [ Abs: 0.74319  Tot: +0.74000 ]
SCF: Cycle:  5   F: -24.436727830983749   dF: -6.343e-06   |Residual|: 5.235e-04   |deigs|: 1.192e-03  t[s]:     35.68
	FillingsUpdate:  mu: -0.087385901  nElectrons: 9.000000  magneticMoment: [ Abs: 0.74280  Tot: +0.74000 ]
SCF: Cycle:  6   F: -24.436732060610321   dF: -4.230e-06   |Residual|: 3.860e-04   |deigs|: 1.522e-03  t[s]:     39.67
	FillingsUpdate:  mu: -0.087209175  nElectrons: 9.000000  magneticMoment: [ Abs: 0.74317  Tot: +0.74000 ]
SCF: Cycle:  7   F: -24.436733827316132   dF: -1.767e-06   |Residual|: 2.975e-04   |deigs|: 9.595e-04  t[s]:     43.74
	FillingsUpdate:  mu: -0.086930974  nElectrons: 9.000000  magneticMoment: [ Abs: 0.74379  Tot: +0.74000 ]
SCF: Cycle:  8   F: -24.436733692545165   dF: +1.348e-07   |Residual|: 2.479e-04   |deigs|: 3.791e-04  t[s]:     47.99
	FillingsUpdate:  mu: -0.086541962  nElectrons: 9.000000  magneticMoment: [ Abs: 0.74424  Tot: +0.74000 ]
SCF: Cycle:  9   F: -24.436733043082203   dF: +6.495e-07   |Residual|: 2.222e-04   |deigs|: 4.657e-04  t[s]:     52.26
	FillingsUpdate:  mu: -0.086318591  nElectrons: 9.000000  magneticMoment: [ Abs: 0.74373  Tot: +0.74000 ]
SCF: Cycle: 10   F: -24.436733717746673   dF: -6.747e-07   |Residual|: 1.970e-04   |deigs|: 2.226e-04  t[s]:     56.61
	FillingsUpdate:  mu: -0.086275392  nElectrons: 9.000000  magneticMoment: [ Abs: 0.74388  Tot: +0.74000 ]
SCF: Cycle: 11   F: -24.436735471692934   dF: -1.754e-06   |Residual|: 1.421e-04   |deigs|: 2.863e-04  t[s]:     60.94
	FillingsUpdate:  mu: -0.086067045  nElectrons: 9.000000  magneticMoment: [ Abs: 0.74436  Tot: +0.74000 ]
SCF: Cycle: 12   F: -24.436735651668656   dF: -1.800e-07   |Residual|: 1.341e-04   |deigs|: 2.598e-04  t[s]:     65.25
	FillingsUpdate:  mu: -0.085717618  nElectrons: 9.000000  magneticMoment: [ Abs: 0.74428  Tot: +0.74000 ]
SCF: Cycle: 13   F: -24.436735586400836   dF: +6.527e-08   |Residual|: 1.335e-04   |deigs|: 3.812e-04  t[s]:     69.59
	FillingsUpdate:  mu: -0.085492784  nElectrons: 9.000000  magneticMoment: [ Abs: 0.74406  Tot: +0.74000 ]
SCF: Cycle: 14   F: -24.436735419833393   dF: +1.666e-07   |Residual|: 1.229e-04   |deigs|: 3.929e-04  t[s]:     73.87
	FillingsUpdate:  mu: -0.085392747  nElectrons: 9.000000  magneticMoment: [ Abs: 0.74397  Tot: +0.74000 ]
SCF: Cycle: 15   F: -24.436736215135671   dF: -7.953e-07   |Residual|: 1.028e-04   |deigs|: 2.907e-04  t[s]:     78.19
	FillingsUpdate:  mu: -0.085171728  nElectrons: 9.000000  magneticMoment: [ Abs: 0.74321  Tot: +0.74000 ]
SCF: Cycle: 16   F: -24.436736857890249   dF: -6.428e-07   |Residual|: 8.106e-05   |deigs|: 2.664e-04  t[s]:     82.48
	FillingsUpdate:  mu: -0.085055221  nElectrons: 9.000000  magneticMoment: [ Abs: 0.74300  Tot: +0.74000 ]
SCF: Cycle: 17   F: -24.436737008946405   dF: -1.511e-07   |Residual|: 6.364e-05   |deigs|: 1.344e-04  t[s]:     86.71
	FillingsUpdate:  mu: -0.085045518  nElectrons: 9.000000  magneticMoment: [ Abs: 0.74300  Tot: +0.74000 ]
SCF: Cycle: 18   F: -24.436737130424984   dF: -1.215e-07   |Residual|: 4.280e-05   |deigs|: 7.093e-05  t[s]:     90.94
	FillingsUpdate:  mu: -0.085028221  nElectrons: 9.000000  magneticMoment: [ Abs: 0.74304  Tot: +0.74000 ]
SCF: Cycle: 19   F: -24.436737315495691   dF: -1.851e-07   |Residual|: 2.583e-05   |deigs|: 8.017e-05  t[s]:     95.21
	FillingsUpdate:  mu: -0.085014751  nElectrons: 9.000000  magneticMoment: [ Abs: 0.74303  Tot: +0.74000 ]
SCF: Cycle: 20   F: -24.436737343611949   dF: -2.812e-08   |Residual|: 1.647e-05   |deigs|: 6.148e-05  t[s]:     99.34
	FillingsUpdate:  mu: -0.085018238  nElectrons: 9.000000  magneticMoment: [ Abs: 0.74304  Tot: +0.74000 ]
SCF: Cycle: 21   F: -24.436737365167733   dF: -2.156e-08   |Residual|: 1.040e-05   |deigs|: 3.630e-05  t[s]:    103.61
	FillingsUpdate:  mu: -0.085019024  nElectrons: 9.000000  magneticMoment: [ Abs: 0.74304  Tot: +0.74000 ]
SCF: Cycle: 22   F: -24.436737376675186   dF: -1.151e-08   |Residual|: 6.521e-06   |deigs|: 1.910e-05  t[s]:    107.87
	FillingsUpdate:  mu: -0.085023143  nElectrons: 9.000000  magneticMoment: [ Abs: 0.74305  Tot: +0.74000 ]
SCF: Cycle: 23   F: -24.436737380692019   dF: -4.017e-09   |Residual|: 4.248e-06   |deigs|: 1.249e-05  t[s]:    112.21
	FillingsUpdate:  mu: -0.085026165  nElectrons: 9.000000  magneticMoment: [ Abs: 0.74306  Tot: +0.74000 ]
SCF: Cycle: 24   F: -24.436737381913321   dF: -1.221e-09   |Residual|: 3.468e-06   |deigs|: 1.006e-05  t[s]:    116.55
SCF: Converged (|Delta E|<1.000000e-08 for 2 iters).


# Ionic positions in lattice coordinates:
ion Rb   0.000000000000000   0.000000000000000   0.000000000000000 0

# Forces in Lattice coordinates:
force Rb   0.000000000000000   0.000000000000000   0.000000000000000 0

# Energy components:
   Eewald =      -12.0320174002217755
       EH =        7.5135684320969576
     Eloc =      -22.4264949192988325
      Enl =       -0.7963117293238812
   Epulay =       -0.0000000014467880
      Exc =       -3.6508509177263218
       KE =        6.9553694485576063
-------------------------------------
     Etot =      -24.4367370873630421
       TS =        0.0000002945502791
-------------------------------------
        F =      -24.4367373819133213

IonicMinimize: Iter:   0  F: -24.436737381913321  |grad|_K:  0.000e+00  t[s]:    116.80
IonicMinimize: Converged (|grad|_K<1.000000e-04).

#--- Lowdin population analysis ---
# oxidation-state Rb +0.034
# magnetic-moments Rb +0.708

End date and time: Sun Feb  6 12:57:15 2022  (Duration: 0-0:01:56.85)
Done!
