
*************** JDFTx 1.6.0 (git hash 42ebbcc2) ***************

Start date and time: Sun Feb  6 12:52:37 2022
Executable jdftx with command-line: -i Alkali.in
Running on hosts (process indices):  d-4-3-3 (0-18)
Divided in process groups (process indices):  0 (0)  1 (1)  2 (2)  3 (3)  4 (4)  5 (5)  6 (6)  7 (7)  8 (8)  9 (9)  10 (10)  11 (11)  12 (12)  13 (13)  14 (14)  15 (15)  16 (16)  17 (17)  18 (18)
Resource initialization completed at t[s]:      0.00
Run totals: 19 processes, 48 threads, 0 GPUs


Input parsed successfully to the following command list (including defaults):

basis kpoint-dependent
coords-type Lattice
core-overlap-check vector
coulomb-interaction Slab 001
davidson-band-ratio 1.1
dump End None
dump-name $INPUT.$VAR
elec-cutoff 20
elec-eigen-algo Davidson
elec-ex-corr gga-PBE
elec-initial-magnetization 0.400000 yes
elec-smearing Fermi 1e-05
electronic-minimize  \
	dirUpdateScheme      FletcherReeves \
	linminMethod         DirUpdateRecommended \
	nIterations          100 \
	history              15 \
	knormThreshold       0 \
	energyDiffThreshold  1e-08 \
	nEnergyDiff          2 \
	alphaTstart          1 \
	alphaTmin            1e-10 \
	updateTestStepSize   yes \
	alphaTreduceFactor   0.1 \
	alphaTincreaseFactor 3 \
	nAlphaAdjustMax      3 \
	wolfeEnergy          0.0001 \
	wolfeGradient        0.9 \
	fdTest               no
electronic-scf  \
	nIterations	10000 \
	energyDiffThreshold	1e-08 \
	residualThreshold	1e-07 \
	mixFraction	0.5 \
	qMetric	0.8 \
	history	10 \
	nEigSteps	2 \
	eigDiffThreshold	1e-08 \
	mixedVariable	Density \
	qKerker	0.8 \
	qKappa	-1 \
	verbose	no \
	mixFractionMag	1.5
exchange-regularization WignerSeitzTruncated
fluid None
fluid-ex-corr (null) lda-PZ
fluid-gummel-loop 10 1.000000e-05
fluid-minimize  \
	dirUpdateScheme      PolakRibiere \
	linminMethod         DirUpdateRecommended \
	nIterations          100 \
	history              15 \
	knormThreshold       0 \
	energyDiffThreshold  0 \
	nEnergyDiff          2 \
	alphaTstart          1 \
	alphaTmin            1e-10 \
	updateTestStepSize   yes \
	alphaTreduceFactor   0.1 \
	alphaTincreaseFactor 3 \
	nAlphaAdjustMax      3 \
	wolfeEnergy          0.0001 \
	wolfeGradient        0.9 \
	fdTest               no
fluid-solvent H2O 55.338 ScalarEOS \
	epsBulk 78.4 \
	pMol 0.92466 \
	epsInf 1.77 \
	Pvap 1.06736e-10 \
	sigmaBulk 4.62e-05 \
	Rvdw 2.61727 \
	Res 1.42 \
	tauNuc 343133 \
	poleEl 15 7 1
forces-output-coords Positions
ion Rb   0.000000000000000   0.000000000000000   0.000000000000000 0
ion-species SG15/$ID_ONCV_PBE.upf
ion-width 0
ionic-minimize  \
	dirUpdateScheme      L-BFGS \
	linminMethod         DirUpdateRecommended \
	nIterations          0 \
	history              15 \
	knormThreshold       0.0001 \
	energyDiffThreshold  1e-06 \
	nEnergyDiff          2 \
	alphaTstart          1 \
	alphaTmin            1e-10 \
	updateTestStepSize   yes \
	alphaTreduceFactor   0.1 \
	alphaTincreaseFactor 3 \
	nAlphaAdjustMax      3 \
	wolfeEnergy          0.0001 \
	wolfeGradient        0.9 \
	fdTest               no
kpoint   0.000000000000   0.000000000000   0.000000000000  1.00000000000000
kpoint-folding 12 12 1 
latt-move-scale 1 1 1
latt-scale 3 3 1 
lattice  \
	   4.727486978767153   -2.363743489383575    0.000000000000000  \
	  -0.000000000000000    4.094123819672498    0.000000000000000  \
	   0.000000000000000    0.000000000000000   40.000000000000000 
lattice-minimize  \
	dirUpdateScheme      L-BFGS \
	linminMethod         DirUpdateRecommended \
	nIterations          0 \
	history              15 \
	knormThreshold       0 \
	energyDiffThreshold  1e-06 \
	nEnergyDiff          2 \
	alphaTstart          1 \
	alphaTmin            1e-10 \
	updateTestStepSize   yes \
	alphaTreduceFactor   0.1 \
	alphaTincreaseFactor 3 \
	nAlphaAdjustMax      3 \
	wolfeEnergy          0.0001 \
	wolfeGradient        0.9 \
	fdTest               no
lcao-params -1 1e-06 1e-05
pcm-variant GLSSA13
spintype z-spin
subspace-rotation-factor 1 yes
symmetries automatic
symmetry-threshold 0.0001



---------- Setting up symmetries ----------

Found 24 point-group symmetries of the bravais lattice
Found 24 space-group symmetries with basis
Applied RMS atom displacement 0 bohrs to make symmetries exact.

---------- Initializing the Grid ----------
R = 
[      14.1825     -7.09123            0  ]
[            0      12.2824            0  ]
[            0            0           40  ]
unit cell volume = 6967.77
G =
[   0.443025   0.255781         -0  ]
[          0   0.511561         -0  ]
[         -0         -0    0.15708  ]
Minimum fftbox size, Smin = [  60  60  164  ]
Chosen fftbox size, S = [  60  60  168  ]

---------- Exchange Correlation functional ----------
Initalized PBE GGA exchange.
Initalized PBE GGA correlation.

---------- Setting up pseudopotentials ----------
Width of ionic core gaussian charges (only for fluid interactions / plotting) set to 0

Reading pseudopotential file '/home/gridsan/aligho/DFT/build-Nov24/pseudopotentials/SG15/Rb_ONCV_PBE.upf':
  'Rb' pseudopotential, 'PBE' functional
  Generated using ONCVPSP code by D. R. Hamann
  Author: Martin Schlipf and Francois Gygi  Date: 150915.
  9 valence electrons, 3 orbitals, 6 projectors, 2308 radial grid points, with lMax = 2
  Transforming local potential to a uniform radial grid of dG=0.02 with 1489 points.
  Transforming nonlocal projectors to a uniform radial grid of dG=0.02 with 432 points.
    4S    l: 0   occupation:  2.0   eigenvalue: -1.172069
    4P    l: 1   occupation:  6.0   eigenvalue: -0.586674
    5S    l: 0   occupation:  1.0   eigenvalue: -0.082006
  Transforming atomic orbitals to a uniform radial grid of dG=0.02 with 432 points.
  Core radius for overlap checks: 2.60 bohrs.
  Reading pulay file /home/gridsan/aligho/DFT/build-Nov24/pseudopotentials/SG15/Rb_ONCV_PBE.pulay ... using dE_dnG = -1.360715e-05 computed for Ecut = 20.

Initialized 1 species with 1 total atoms.

Folded 1 k-points by 12x12x1 to 144 k-points.

---------- Setting up k-points, bands, fillings ----------
Reduced to 19 k-points under symmetry. 
Computing the number of bands and number of electrons
Calculating initial fillings.
nElectrons:   9.000000   nBands: 6   nStates: 38

----- Setting up reduced wavefunction bases (one per k-point) -----
average nbasis = 29766.104 , ideal nbasis = 29766.845

---------- Setting up coulomb interaction ----------
Initialized slab truncation along lattice direction 001

---------- Setting up 2D ewald sum ----------
Optimum gaussian width for ewald sums = 7.873530 bohr.
Real space sums over 289 unit cells with max indices [  8  8  0  ]
Reciprocal space sums over 81 terms with max indices [  4  4  0  ]

---------- Allocating electronic variables ----------
Initializing wave functions:  linear combination of atomic orbitals
Note: number of bands (6) exceeds available atomic orbitals (5)
Rb pseudo-atom occupations:   s ( 2 1 )  p ( 6 )
	FillingsUpdate:  mu: -0.083564835  nElectrons: 9.000000  magneticMoment: [ Abs: 0.40000  Tot: +0.40000 ]
LCAOMinimize: Iter:   0  F: -24.4362613153311088  |grad|_K:  1.813e-05  alpha:  1.000e+00
	FillingsUpdate:  mu: -0.083561174  nElectrons: 9.000000  magneticMoment: [ Abs: 0.40000  Tot: +0.40000 ]
LCAOMinimize: Iter:   1  F: -24.4362615371036114  |grad|_K:  1.364e-07  alpha:  9.862e-01  linmin: -1.736e-02  cgtest:  4.266e-01  t[s]:      8.84
LCAOMinimize: Encountered beta<0, resetting CG.
	FillingsUpdate:  mu: -0.083561178  nElectrons: 9.000000  magneticMoment: [ Abs: 0.40000  Tot: +0.40000 ]
LCAOMinimize: Iter:   2  F: -24.4362615371165006  |grad|_K:  7.761e-10  alpha:  9.951e-01  linmin: -4.636e-02  cgtest:  9.564e-01  t[s]:     11.24
LCAOMinimize: Encountered beta<0, resetting CG.
LCAOMinimize: Converged (|Delta F|<1.000000e-06 for 2 iters).


---- Citations for features of the code used in this run ----

   Software package:
      R. Sundararaman, K. Letchworth-Weaver, K.A. Schwarz, D. Gunceler, Y. Ozhabes and T.A. Arias, 'JDFTx: software for joint density-functional theory', SoftwareX 6, 278 (2017)

   gga-PBE exchange-correlation functional:
      J.P. Perdew, K. Burke and M. Ernzerhof, Phys. Rev. Lett. 77, 3865 (1996)

   Pseudopotentials:
      M Schlipf and F Gygi, Comput. Phys. Commun. 196, 36 (2015)

   Truncated Coulomb potentials:
      R. Sundararaman and T.A. Arias, Phys. Rev. B 87, 165122 (2013)

This list may not be complete. Please suggest additional citations or
report any other bugs at https://github.com/shankar1729/jdftx/issues

Initialization completed successfully at t[s]:     11.41


-------- Electronic minimization -----------
Will mix electronic density at each iteration.
	FillingsUpdate:  mu: -0.083561178  nElectrons: 9.000000  magneticMoment: [ Abs: 0.40000  Tot: +0.40000 ]
	FillingsUpdate:  mu: -0.085477227  nElectrons: 9.000000  magneticMoment: [ Abs: 0.40000  Tot: +0.40000 ]
SCF: Cycle:  0   F: -24.437932974297933   dF: -1.671e-03   |Residual|: 3.929e-03   |deigs|: 1.736e-01  t[s]:     16.29
	FillingsUpdate:  mu: -0.085657128  nElectrons: 9.000000  magneticMoment: [ Abs: 0.40024  Tot: +0.40000 ]
SCF: Cycle:  1   F: -24.437985897409657   dF: -5.292e-05   |Residual|: 3.255e-03   |deigs|: 4.673e-03  t[s]:     20.09
	FillingsUpdate:  mu: -0.085920113  nElectrons: 9.000000  magneticMoment: [ Abs: 0.40210  Tot: +0.40000 ]
SCF: Cycle:  2   F: -24.438022489712939   dF: -3.659e-05   |Residual|: 2.141e-03   |deigs|: 2.407e-03  t[s]:     23.97
	FillingsUpdate:  mu: -0.086137193  nElectrons: 9.000000  magneticMoment: [ Abs: 0.40254  Tot: +0.40000 ]
SCF: Cycle:  3   F: -24.438039370084109   dF: -1.688e-05   |Residual|: 1.310e-03   |deigs|: 2.042e-03  t[s]:     27.91
	FillingsUpdate:  mu: -0.086154804  nElectrons: 9.000000  magneticMoment: [ Abs: 0.40072  Tot: +0.40000 ]
SCF: Cycle:  4   F: -24.438047913575087   dF: -8.543e-06   |Residual|: 7.021e-04   |deigs|: 2.024e-03  t[s]:     31.90
	FillingsUpdate:  mu: -0.086153102  nElectrons: 9.000000  magneticMoment: [ Abs: 0.40136  Tot: +0.40000 ]
SCF: Cycle:  5   F: -24.438053142354082   dF: -5.229e-06   |Residual|: 4.825e-04   |deigs|: 2.469e-03  t[s]:     35.90
	FillingsUpdate:  mu: -0.086021805  nElectrons: 9.000000  magneticMoment: [ Abs: 0.40128  Tot: +0.40000 ]
SCF: Cycle:  6   F: -24.438056018379822   dF: -2.876e-06   |Residual|: 3.548e-04   |deigs|: 1.368e-03  t[s]:     39.98
	FillingsUpdate:  mu: -0.085826196  nElectrons: 9.000000  magneticMoment: [ Abs: 0.40149  Tot: +0.40000 ]
SCF: Cycle:  7   F: -24.438056566737679   dF: -5.484e-07   |Residual|: 2.880e-04   |deigs|: 7.790e-04  t[s]:     44.15
	FillingsUpdate:  mu: -0.085577283  nElectrons: 9.000000  magneticMoment: [ Abs: 0.40238  Tot: +0.40000 ]
SCF: Cycle:  8   F: -24.438056726770437   dF: -1.600e-07   |Residual|: 2.355e-04   |deigs|: 3.492e-04  t[s]:     48.35
	FillingsUpdate:  mu: -0.085243256  nElectrons: 9.000000  magneticMoment: [ Abs: 0.40243  Tot: +0.40000 ]
SCF: Cycle:  9   F: -24.438055749442789   dF: +9.773e-07   |Residual|: 2.051e-04   |deigs|: 3.983e-04  t[s]:     52.67
	FillingsUpdate:  mu: -0.084983118  nElectrons: 9.000000  magneticMoment: [ Abs: 0.40226  Tot: +0.40000 ]
SCF: Cycle: 10   F: -24.438055863726216   dF: -1.143e-07   |Residual|: 1.876e-04   |deigs|: 3.224e-04  t[s]:     57.01
	FillingsUpdate:  mu: -0.084887892  nElectrons: 9.000000  magneticMoment: [ Abs: 0.40219  Tot: +0.40000 ]
SCF: Cycle: 11   F: -24.438057079809429   dF: -1.216e-06   |Residual|: 1.429e-04   |deigs|: 3.887e-04  t[s]:     61.36
	FillingsUpdate:  mu: -0.084664702  nElectrons: 9.000000  magneticMoment: [ Abs: 0.40244  Tot: +0.40000 ]
SCF: Cycle: 12   F: -24.438057387135288   dF: -3.073e-07   |Residual|: 1.329e-04   |deigs|: 5.091e-04  t[s]:     65.75
	FillingsUpdate:  mu: -0.084227096  nElectrons: 9.000000  magneticMoment: [ Abs: 0.40205  Tot: +0.40000 ]
SCF: Cycle: 13   F: -24.438056747703058   dF: +6.394e-07   |Residual|: 1.344e-04   |deigs|: 5.278e-04  t[s]:     70.15
	FillingsUpdate:  mu: -0.084075905  nElectrons: 9.000000  magneticMoment: [ Abs: 0.40167  Tot: +0.40000 ]
SCF: Cycle: 14   F: -24.438056907987164   dF: -1.603e-07   |Residual|: 1.233e-04   |deigs|: 2.973e-04  t[s]:     74.48
	FillingsUpdate:  mu: -0.083985460  nElectrons: 9.000000  magneticMoment: [ Abs: 0.40196  Tot: +0.40000 ]
SCF: Cycle: 15   F: -24.438057781348771   dF: -8.734e-07   |Residual|: 1.067e-04   |deigs|: 1.444e-04  t[s]:     78.84
	FillingsUpdate:  mu: -0.083744688  nElectrons: 9.000000  magneticMoment: [ Abs: 0.40154  Tot: +0.40000 ]
SCF: Cycle: 16   F: -24.438058377600843   dF: -5.963e-07   |Residual|: 7.846e-05   |deigs|: 2.651e-04  t[s]:     83.09
	FillingsUpdate:  mu: -0.083589184  nElectrons: 9.000000  magneticMoment: [ Abs: 0.40137  Tot: +0.40000 ]
SCF: Cycle: 17   F: -24.438058633385634   dF: -2.558e-07   |Residual|: 4.983e-05   |deigs|: 1.792e-04  t[s]:     87.48
	FillingsUpdate:  mu: -0.083620256  nElectrons: 9.000000  magneticMoment: [ Abs: 0.40135  Tot: +0.40000 ]
SCF: Cycle: 18   F: -24.438058750884640   dF: -1.175e-07   |Residual|: 3.352e-05   |deigs|: 4.362e-05  t[s]:     91.82
	FillingsUpdate:  mu: -0.083643326  nElectrons: 9.000000  magneticMoment: [ Abs: 0.40135  Tot: +0.40000 ]
SCF: Cycle: 19   F: -24.438058798019988   dF: -4.714e-08   |Residual|: 2.076e-05   |deigs|: 2.923e-05  t[s]:     96.22
	FillingsUpdate:  mu: -0.083630366  nElectrons: 9.000000  magneticMoment: [ Abs: 0.40135  Tot: +0.40000 ]
SCF: Cycle: 20   F: -24.438058818061254   dF: -2.004e-08   |Residual|: 1.245e-05   |deigs|: 1.278e-05  t[s]:    100.54
	FillingsUpdate:  mu: -0.083637718  nElectrons: 9.000000  magneticMoment: [ Abs: 0.40137  Tot: +0.40000 ]
SCF: Cycle: 21   F: -24.438058832856179   dF: -1.479e-08   |Residual|: 6.527e-06   |deigs|: 1.346e-05  t[s]:    104.83
	FillingsUpdate:  mu: -0.083639924  nElectrons: 9.000000  magneticMoment: [ Abs: 0.40137  Tot: +0.40000 ]
SCF: Cycle: 22   F: -24.438058836250008   dF: -3.394e-09   |Residual|: 4.851e-06   |deigs|: 5.270e-06  t[s]:    109.04
	FillingsUpdate:  mu: -0.083640295  nElectrons: 9.000000  magneticMoment: [ Abs: 0.40137  Tot: +0.40000 ]
SCF: Cycle: 23   F: -24.438058837652950   dF: -1.403e-09   |Residual|: 3.022e-06   |deigs|: 3.334e-06  t[s]:    113.35
SCF: Converged (|Delta E|<1.000000e-08 for 2 iters).


# Ionic positions in lattice coordinates:
ion Rb   0.000000000000000   0.000000000000000   0.000000000000000 0

# Forces in Lattice coordinates:
force Rb  -0.000000000000000   0.000000000000000   0.000000000000000 0

# Energy components:
   Eewald =      -12.0320174002217755
       EH =        7.4931019556517535
     Eloc =      -22.4037029269215324
      Enl =       -0.7975242903912736
   Epulay =       -0.0000000014467880
      Exc =       -3.6476950370906773
       KE =        6.9497794536818294
-------------------------------------
     Etot =      -24.4380582467384642
       TS =        0.0000005909144852
-------------------------------------
        F =      -24.4380588376529495

IonicMinimize: Iter:   0  F: -24.438058837652950  |grad|_K:  0.000e+00  t[s]:    113.63
IonicMinimize: Converged (|grad|_K<1.000000e-04).

#--- Lowdin population analysis ---
# oxidation-state Rb +0.033
# magnetic-moments Rb +0.377

End date and time: Sun Feb  6 12:54:31 2022  (Duration: 0-0:01:53.68)
Done!
