
*************** JDFTx 1.6.0 (git hash 42ebbcc2) ***************

Start date and time: Sun Feb  6 12:41:57 2022
Executable jdftx with command-line: -i Alkali.in
Running on hosts (process indices):  d-4-2-2 (0-18)
Divided in process groups (process indices):  0 (0)  1 (1)  2 (2)  3 (3)  4 (4)  5 (5)  6 (6)  7 (7)  8 (8)  9 (9)  10 (10)  11 (11)  12 (12)  13 (13)  14 (14)  15 (15)  16 (16)  17 (17)  18 (18)
Resource initialization completed at t[s]:      0.00
Run totals: 19 processes, 48 threads, 0 GPUs


Input parsed successfully to the following command list (including defaults):

basis kpoint-dependent
coords-type Lattice
core-overlap-check vector
coulomb-interaction Slab 001
davidson-band-ratio 1.1
dump End None
dump-name $INPUT.$VAR
elec-cutoff 20
elec-eigen-algo Davidson
elec-ex-corr gga-PBE
elec-initial-magnetization -0.520000 yes
elec-smearing Fermi 1e-05
electronic-minimize  \
	dirUpdateScheme      FletcherReeves \
	linminMethod         DirUpdateRecommended \
	nIterations          100 \
	history              15 \
	knormThreshold       0 \
	energyDiffThreshold  1e-08 \
	nEnergyDiff          2 \
	alphaTstart          1 \
	alphaTmin            1e-10 \
	updateTestStepSize   yes \
	alphaTreduceFactor   0.1 \
	alphaTincreaseFactor 3 \
	nAlphaAdjustMax      3 \
	wolfeEnergy          0.0001 \
	wolfeGradient        0.9 \
	fdTest               no
electronic-scf  \
	nIterations	10000 \
	energyDiffThreshold	1e-08 \
	residualThreshold	1e-07 \
	mixFraction	0.5 \
	qMetric	0.8 \
	history	10 \
	nEigSteps	2 \
	eigDiffThreshold	1e-08 \
	mixedVariable	Density \
	qKerker	0.8 \
	qKappa	-1 \
	verbose	no \
	mixFractionMag	1.5
exchange-regularization WignerSeitzTruncated
fluid None
fluid-ex-corr (null) lda-PZ
fluid-gummel-loop 10 1.000000e-05
fluid-minimize  \
	dirUpdateScheme      PolakRibiere \
	linminMethod         DirUpdateRecommended \
	nIterations          100 \
	history              15 \
	knormThreshold       0 \
	energyDiffThreshold  0 \
	nEnergyDiff          2 \
	alphaTstart          1 \
	alphaTmin            1e-10 \
	updateTestStepSize   yes \
	alphaTreduceFactor   0.1 \
	alphaTincreaseFactor 3 \
	nAlphaAdjustMax      3 \
	wolfeEnergy          0.0001 \
	wolfeGradient        0.9 \
	fdTest               no
fluid-solvent H2O 55.338 ScalarEOS \
	epsBulk 78.4 \
	pMol 0.92466 \
	epsInf 1.77 \
	Pvap 1.06736e-10 \
	sigmaBulk 4.62e-05 \
	Rvdw 2.61727 \
	Res 1.42 \
	tauNuc 343133 \
	poleEl 15 7 1
forces-output-coords Positions
ion Rb   0.000000000000000   0.000000000000000   0.000000000000000 0
ion-species SG15/$ID_ONCV_PBE.upf
ion-width 0
ionic-minimize  \
	dirUpdateScheme      L-BFGS \
	linminMethod         DirUpdateRecommended \
	nIterations          0 \
	history              15 \
	knormThreshold       0.0001 \
	energyDiffThreshold  1e-06 \
	nEnergyDiff          2 \
	alphaTstart          1 \
	alphaTmin            1e-10 \
	updateTestStepSize   yes \
	alphaTreduceFactor   0.1 \
	alphaTincreaseFactor 3 \
	nAlphaAdjustMax      3 \
	wolfeEnergy          0.0001 \
	wolfeGradient        0.9 \
	fdTest               no
kpoint   0.000000000000   0.000000000000   0.000000000000  1.00000000000000
kpoint-folding 12 12 1 
latt-move-scale 1 1 1
latt-scale 3 3 1 
lattice  \
	   4.727486978767153   -2.363743489383575    0.000000000000000  \
	  -0.000000000000000    4.094123819672498    0.000000000000000  \
	   0.000000000000000    0.000000000000000   40.000000000000000 
lattice-minimize  \
	dirUpdateScheme      L-BFGS \
	linminMethod         DirUpdateRecommended \
	nIterations          0 \
	history              15 \
	knormThreshold       0 \
	energyDiffThreshold  1e-06 \
	nEnergyDiff          2 \
	alphaTstart          1 \
	alphaTmin            1e-10 \
	updateTestStepSize   yes \
	alphaTreduceFactor   0.1 \
	alphaTincreaseFactor 3 \
	nAlphaAdjustMax      3 \
	wolfeEnergy          0.0001 \
	wolfeGradient        0.9 \
	fdTest               no
lcao-params -1 1e-06 1e-05
pcm-variant GLSSA13
spintype z-spin
subspace-rotation-factor 1 yes
symmetries automatic
symmetry-threshold 0.0001



---------- Setting up symmetries ----------

Found 24 point-group symmetries of the bravais lattice
Found 24 space-group symmetries with basis
Applied RMS atom displacement 0 bohrs to make symmetries exact.

---------- Initializing the Grid ----------
R = 
[      14.1825     -7.09123            0  ]
[            0      12.2824            0  ]
[            0            0           40  ]
unit cell volume = 6967.77
G =
[   0.443025   0.255781         -0  ]
[          0   0.511561         -0  ]
[         -0         -0    0.15708  ]
Minimum fftbox size, Smin = [  60  60  164  ]
Chosen fftbox size, S = [  60  60  168  ]

---------- Exchange Correlation functional ----------
Initalized PBE GGA exchange.
Initalized PBE GGA correlation.

---------- Setting up pseudopotentials ----------
Width of ionic core gaussian charges (only for fluid interactions / plotting) set to 0

Reading pseudopotential file '/home/gridsan/aligho/DFT/build-Nov24/pseudopotentials/SG15/Rb_ONCV_PBE.upf':
  'Rb' pseudopotential, 'PBE' functional
  Generated using ONCVPSP code by D. R. Hamann
  Author: Martin Schlipf and Francois Gygi  Date: 150915.
  9 valence electrons, 3 orbitals, 6 projectors, 2308 radial grid points, with lMax = 2
  Transforming local potential to a uniform radial grid of dG=0.02 with 1489 points.
  Transforming nonlocal projectors to a uniform radial grid of dG=0.02 with 432 points.
    4S    l: 0   occupation:  2.0   eigenvalue: -1.172069
    4P    l: 1   occupation:  6.0   eigenvalue: -0.586674
    5S    l: 0   occupation:  1.0   eigenvalue: -0.082006
  Transforming atomic orbitals to a uniform radial grid of dG=0.02 with 432 points.
  Core radius for overlap checks: 2.60 bohrs.
  Reading pulay file /home/gridsan/aligho/DFT/build-Nov24/pseudopotentials/SG15/Rb_ONCV_PBE.pulay ... using dE_dnG = -1.360715e-05 computed for Ecut = 20.

Initialized 1 species with 1 total atoms.

Folded 1 k-points by 12x12x1 to 144 k-points.

---------- Setting up k-points, bands, fillings ----------
Reduced to 19 k-points under symmetry. 
Computing the number of bands and number of electrons
Calculating initial fillings.
nElectrons:   9.000000   nBands: 6   nStates: 38

----- Setting up reduced wavefunction bases (one per k-point) -----
average nbasis = 29766.104 , ideal nbasis = 29766.845

---------- Setting up coulomb interaction ----------
Initialized slab truncation along lattice direction 001

---------- Setting up 2D ewald sum ----------
Optimum gaussian width for ewald sums = 7.873530 bohr.
Real space sums over 289 unit cells with max indices [  8  8  0  ]
Reciprocal space sums over 81 terms with max indices [  4  4  0  ]

---------- Allocating electronic variables ----------
Initializing wave functions:  linear combination of atomic orbitals
Note: number of bands (6) exceeds available atomic orbitals (5)
Rb pseudo-atom occupations:   s ( 2 1 )  p ( 6 )
	FillingsUpdate:  mu: -0.085259167  nElectrons: 9.000000  magneticMoment: [ Abs: 0.52000  Tot: -0.52000 ]
LCAOMinimize: Iter:   0  F: -24.4359058648814020  |grad|_K:  1.613e-05  alpha:  1.000e+00
	FillingsUpdate:  mu: -0.085256249  nElectrons: 9.000000  magneticMoment: [ Abs: 0.52000  Tot: -0.52000 ]
LCAOMinimize: Iter:   1  F: -24.4359060408899502  |grad|_K:  1.243e-07  alpha:  9.885e-01  linmin: -1.429e-02  cgtest:  3.267e-01  t[s]:      9.01
LCAOMinimize: Encountered beta<0, resetting CG.
	FillingsUpdate:  mu: -0.085256259  nElectrons: 9.000000  magneticMoment: [ Abs: 0.52000  Tot: -0.52000 ]
LCAOMinimize: Iter:   2  F: -24.4359060409002993  |grad|_K:  1.346e-09  alpha:  9.898e-01  linmin: -6.765e-02  cgtest:  9.128e-01  t[s]:     11.47
LCAOMinimize: Encountered beta<0, resetting CG.
LCAOMinimize: Converged (|Delta F|<1.000000e-06 for 2 iters).


---- Citations for features of the code used in this run ----

   Software package:
      R. Sundararaman, K. Letchworth-Weaver, K.A. Schwarz, D. Gunceler, Y. Ozhabes and T.A. Arias, 'JDFTx: software for joint density-functional theory', SoftwareX 6, 278 (2017)

   gga-PBE exchange-correlation functional:
      J.P. Perdew, K. Burke and M. Ernzerhof, Phys. Rev. Lett. 77, 3865 (1996)

   Pseudopotentials:
      M Schlipf and F Gygi, Comput. Phys. Commun. 196, 36 (2015)

   Truncated Coulomb potentials:
      R. Sundararaman and T.A. Arias, Phys. Rev. B 87, 165122 (2013)

This list may not be complete. Please suggest additional citations or
report any other bugs at https://github.com/shankar1729/jdftx/issues

Initialization completed successfully at t[s]:     11.64


-------- Electronic minimization -----------
Will mix electronic density at each iteration.
	FillingsUpdate:  mu: -0.085256259  nElectrons: 9.000000  magneticMoment: [ Abs: 0.52000  Tot: -0.52000 ]
	FillingsUpdate:  mu: -0.086593686  nElectrons: 9.000000  magneticMoment: [ Abs: 0.52000  Tot: -0.52000 ]
SCF: Cycle:  0   F: -24.437526327130112   dF: -1.620e-03   |Residual|: 4.027e-03   |deigs|: 1.736e-01  t[s]:     16.57
	FillingsUpdate:  mu: -0.086761421  nElectrons: 9.000000  magneticMoment: [ Abs: 0.52038  Tot: -0.52000 ]
SCF: Cycle:  1   F: -24.437582979279544   dF: -5.665e-05   |Residual|: 3.223e-03   |deigs|: 4.572e-03  t[s]:     20.38
	FillingsUpdate:  mu: -0.086925600  nElectrons: 9.000000  magneticMoment: [ Abs: 0.52236  Tot: -0.52000 ]
SCF: Cycle:  2   F: -24.437621738113851   dF: -3.876e-05   |Residual|: 2.287e-03   |deigs|: 2.112e-03  t[s]:     24.28
	FillingsUpdate:  mu: -0.087130375  nElectrons: 9.000000  magneticMoment: [ Abs: 0.52299  Tot: -0.52000 ]
SCF: Cycle:  3   F: -24.437644068189325   dF: -2.233e-05   |Residual|: 1.498e-03   |deigs|: 2.942e-03  t[s]:     28.21
	FillingsUpdate:  mu: -0.087169400  nElectrons: 9.000000  magneticMoment: [ Abs: 0.52115  Tot: -0.52000 ]
SCF: Cycle:  4   F: -24.437654118604623   dF: -1.005e-05   |Residual|: 7.844e-04   |deigs|: 2.312e-03  t[s]:     32.16
	FillingsUpdate:  mu: -0.087223681  nElectrons: 9.000000  magneticMoment: [ Abs: 0.52191  Tot: -0.52000 ]
SCF: Cycle:  5   F: -24.437660676574087   dF: -6.558e-06   |Residual|: 5.096e-04   |deigs|: 1.273e-03  t[s]:     36.23
	FillingsUpdate:  mu: -0.087130716  nElectrons: 9.000000  magneticMoment: [ Abs: 0.52171  Tot: -0.52000 ]
SCF: Cycle:  6   F: -24.437664498476661   dF: -3.822e-06   |Residual|: 3.676e-04   |deigs|: 1.467e-03  t[s]:     40.36
	FillingsUpdate:  mu: -0.086963250  nElectrons: 9.000000  magneticMoment: [ Abs: 0.52197  Tot: -0.52000 ]
SCF: Cycle:  7   F: -24.437665397865018   dF: -8.994e-07   |Residual|: 2.996e-04   |deigs|: 6.376e-04  t[s]:     44.58
	FillingsUpdate:  mu: -0.086713649  nElectrons: 9.000000  magneticMoment: [ Abs: 0.52282  Tot: -0.52000 ]
SCF: Cycle:  8   F: -24.437665586487839   dF: -1.886e-07   |Residual|: 2.416e-04   |deigs|: 3.541e-04  t[s]:     48.86
	FillingsUpdate:  mu: -0.086344063  nElectrons: 9.000000  magneticMoment: [ Abs: 0.52306  Tot: -0.52000 ]
SCF: Cycle:  9   F: -24.437664667616300   dF: +9.189e-07   |Residual|: 2.117e-04   |deigs|: 4.622e-04  t[s]:     53.21
	FillingsUpdate:  mu: -0.086110062  nElectrons: 9.000000  magneticMoment: [ Abs: 0.52283  Tot: -0.52000 ]
SCF: Cycle: 10   F: -24.437664482828357   dF: +1.848e-07   |Residual|: 1.918e-04   |deigs|: 4.214e-04  t[s]:     57.61
	FillingsUpdate:  mu: -0.086013647  nElectrons: 9.000000  magneticMoment: [ Abs: 0.52269  Tot: -0.52000 ]
SCF: Cycle: 11   F: -24.437666237054895   dF: -1.754e-06   |Residual|: 1.432e-04   |deigs|: 3.040e-04  t[s]:     62.04
	FillingsUpdate:  mu: -0.085790572  nElectrons: 9.000000  magneticMoment: [ Abs: 0.52307  Tot: -0.52000 ]
SCF: Cycle: 12   F: -24.437666479793510   dF: -2.427e-07   |Residual|: 1.359e-04   |deigs|: 5.223e-04  t[s]:     66.35
	FillingsUpdate:  mu: -0.085373071  nElectrons: 9.000000  magneticMoment: [ Abs: 0.52276  Tot: -0.52000 ]
SCF: Cycle: 13   F: -24.437666087896531   dF: +3.919e-07   |Residual|: 1.357e-04   |deigs|: 5.233e-04  t[s]:     70.76
	FillingsUpdate:  mu: -0.085171262  nElectrons: 9.000000  magneticMoment: [ Abs: 0.52249  Tot: -0.52000 ]
SCF: Cycle: 14   F: -24.437665930413441   dF: +1.575e-07   |Residual|: 1.253e-04   |deigs|: 2.341e-04  t[s]:     75.07
	FillingsUpdate:  mu: -0.085080041  nElectrons: 9.000000  magneticMoment: [ Abs: 0.52260  Tot: -0.52000 ]
SCF: Cycle: 15   F: -24.437666774361940   dF: -8.439e-07   |Residual|: 1.061e-04   |deigs|: 1.227e-04  t[s]:     79.45
	FillingsUpdate:  mu: -0.084875421  nElectrons: 9.000000  magneticMoment: [ Abs: 0.52198  Tot: -0.52000 ]
SCF: Cycle: 16   F: -24.437667521321000   dF: -7.470e-07   |Residual|: 7.387e-05   |deigs|: 2.370e-04  t[s]:     83.79
	FillingsUpdate:  mu: -0.084742403  nElectrons: 9.000000  magneticMoment: [ Abs: 0.52187  Tot: -0.52000 ]
SCF: Cycle: 17   F: -24.437667746498100   dF: -2.252e-07   |Residual|: 5.315e-05   |deigs|: 1.453e-04  t[s]:     88.14
	FillingsUpdate:  mu: -0.084729361  nElectrons: 9.000000  magneticMoment: [ Abs: 0.52183  Tot: -0.52000 ]
SCF: Cycle: 18   F: -24.437667859782113   dF: -1.133e-07   |Residual|: 3.619e-05   |deigs|: 3.029e-05  t[s]:     92.46
	FillingsUpdate:  mu: -0.084738167  nElectrons: 9.000000  magneticMoment: [ Abs: 0.52185  Tot: -0.52000 ]
SCF: Cycle: 19   F: -24.437667943650833   dF: -8.387e-08   |Residual|: 1.968e-05   |deigs|: 2.506e-05  t[s]:     96.82
	FillingsUpdate:  mu: -0.084727091  nElectrons: 9.000000  magneticMoment: [ Abs: 0.52184  Tot: -0.52000 ]
SCF: Cycle: 20   F: -24.437667960443591   dF: -1.679e-08   |Residual|: 1.398e-05   |deigs|: 1.327e-05  t[s]:    101.07
	FillingsUpdate:  mu: -0.084733088  nElectrons: 9.000000  magneticMoment: [ Abs: 0.52183  Tot: -0.52000 ]
SCF: Cycle: 21   F: -24.437667968745824   dF: -8.302e-09   |Residual|: 9.458e-06   |deigs|: 9.968e-06  t[s]:    105.48
	FillingsUpdate:  mu: -0.084734590  nElectrons: 9.000000  magneticMoment: [ Abs: 0.52185  Tot: -0.52000 ]
SCF: Cycle: 22   F: -24.437667977479567   dF: -8.734e-09   |Residual|: 5.395e-06   |deigs|: 4.940e-06  t[s]:    109.86
SCF: Converged (|Delta E|<1.000000e-08 for 2 iters).


# Ionic positions in lattice coordinates:
ion Rb   0.000000000000000   0.000000000000000   0.000000000000000 0

# Forces in Lattice coordinates:
force Rb   0.000000000000000  -0.000000000000000   0.000000000000000 0

# Energy components:
   Eewald =      -12.0320174002217755
       EH =        7.4983744718166436
     Eloc =      -22.4095651815118799
      Enl =       -0.7972385994998474
   Epulay =       -0.0000000014467880
      Exc =       -3.6485336535987267
       KE =        6.9513127994937349
-------------------------------------
     Etot =      -24.4376675649686419
       TS =        0.0000004125109251
-------------------------------------
        F =      -24.4376679774795669

IonicMinimize: Iter:   0  F: -24.437667977479567  |grad|_K:  0.000e+00  t[s]:    110.13
IonicMinimize: Converged (|grad|_K<1.000000e-04).

#--- Lowdin population analysis ---
# oxidation-state Rb +0.035
# magnetic-moments Rb -0.491

End date and time: Sun Feb  6 12:43:47 2022  (Duration: 0-0:01:50.17)
Done!
