
*************** JDFTx 1.6.0 (git hash 42ebbcc2) ***************

Start date and time: Sun Feb  6 12:49:01 2022
Executable jdftx with command-line: -i Alkali.in
Running on hosts (process indices):  d-6-2-2 (0-18)
Divided in process groups (process indices):  0 (0)  1 (1)  2 (2)  3 (3)  4 (4)  5 (5)  6 (6)  7 (7)  8 (8)  9 (9)  10 (10)  11 (11)  12 (12)  13 (13)  14 (14)  15 (15)  16 (16)  17 (17)  18 (18)
Resource initialization completed at t[s]:      0.00
Run totals: 19 processes, 48 threads, 0 GPUs


Input parsed successfully to the following command list (including defaults):

basis kpoint-dependent
coords-type Lattice
core-overlap-check vector
coulomb-interaction Slab 001
davidson-band-ratio 1.1
dump End None
dump-name $INPUT.$VAR
elec-cutoff 20
elec-eigen-algo Davidson
elec-ex-corr gga-PBE
elec-initial-magnetization 0.220000 yes
elec-smearing Fermi 1e-05
electronic-minimize  \
	dirUpdateScheme      FletcherReeves \
	linminMethod         DirUpdateRecommended \
	nIterations          100 \
	history              15 \
	knormThreshold       0 \
	energyDiffThreshold  1e-08 \
	nEnergyDiff          2 \
	alphaTstart          1 \
	alphaTmin            1e-10 \
	updateTestStepSize   yes \
	alphaTreduceFactor   0.1 \
	alphaTincreaseFactor 3 \
	nAlphaAdjustMax      3 \
	wolfeEnergy          0.0001 \
	wolfeGradient        0.9 \
	fdTest               no
electronic-scf  \
	nIterations	10000 \
	energyDiffThreshold	1e-08 \
	residualThreshold	1e-07 \
	mixFraction	0.5 \
	qMetric	0.8 \
	history	10 \
	nEigSteps	2 \
	eigDiffThreshold	1e-08 \
	mixedVariable	Density \
	qKerker	0.8 \
	qKappa	-1 \
	verbose	no \
	mixFractionMag	1.5
exchange-regularization WignerSeitzTruncated
fluid None
fluid-ex-corr (null) lda-PZ
fluid-gummel-loop 10 1.000000e-05
fluid-minimize  \
	dirUpdateScheme      PolakRibiere \
	linminMethod         DirUpdateRecommended \
	nIterations          100 \
	history              15 \
	knormThreshold       0 \
	energyDiffThreshold  0 \
	nEnergyDiff          2 \
	alphaTstart          1 \
	alphaTmin            1e-10 \
	updateTestStepSize   yes \
	alphaTreduceFactor   0.1 \
	alphaTincreaseFactor 3 \
	nAlphaAdjustMax      3 \
	wolfeEnergy          0.0001 \
	wolfeGradient        0.9 \
	fdTest               no
fluid-solvent H2O 55.338 ScalarEOS \
	epsBulk 78.4 \
	pMol 0.92466 \
	epsInf 1.77 \
	Pvap 1.06736e-10 \
	sigmaBulk 4.62e-05 \
	Rvdw 2.61727 \
	Res 1.42 \
	tauNuc 343133 \
	poleEl 15 7 1
forces-output-coords Positions
ion Rb   0.000000000000000   0.000000000000000   0.000000000000000 0
ion-species SG15/$ID_ONCV_PBE.upf
ion-width 0
ionic-minimize  \
	dirUpdateScheme      L-BFGS \
	linminMethod         DirUpdateRecommended \
	nIterations          0 \
	history              15 \
	knormThreshold       0.0001 \
	energyDiffThreshold  1e-06 \
	nEnergyDiff          2 \
	alphaTstart          1 \
	alphaTmin            1e-10 \
	updateTestStepSize   yes \
	alphaTreduceFactor   0.1 \
	alphaTincreaseFactor 3 \
	nAlphaAdjustMax      3 \
	wolfeEnergy          0.0001 \
	wolfeGradient        0.9 \
	fdTest               no
kpoint   0.000000000000   0.000000000000   0.000000000000  1.00000000000000
kpoint-folding 12 12 1 
latt-move-scale 1 1 1
latt-scale 3 3 1 
lattice  \
	   4.727486978767153   -2.363743489383575    0.000000000000000  \
	  -0.000000000000000    4.094123819672498    0.000000000000000  \
	   0.000000000000000    0.000000000000000   40.000000000000000 
lattice-minimize  \
	dirUpdateScheme      L-BFGS \
	linminMethod         DirUpdateRecommended \
	nIterations          0 \
	history              15 \
	knormThreshold       0 \
	energyDiffThreshold  1e-06 \
	nEnergyDiff          2 \
	alphaTstart          1 \
	alphaTmin            1e-10 \
	updateTestStepSize   yes \
	alphaTreduceFactor   0.1 \
	alphaTincreaseFactor 3 \
	nAlphaAdjustMax      3 \
	wolfeEnergy          0.0001 \
	wolfeGradient        0.9 \
	fdTest               no
lcao-params -1 1e-06 1e-05
pcm-variant GLSSA13
spintype z-spin
subspace-rotation-factor 1 yes
symmetries automatic
symmetry-threshold 0.0001



---------- Setting up symmetries ----------

Found 24 point-group symmetries of the bravais lattice
Found 24 space-group symmetries with basis
Applied RMS atom displacement 0 bohrs to make symmetries exact.

---------- Initializing the Grid ----------
R = 
[      14.1825     -7.09123            0  ]
[            0      12.2824            0  ]
[            0            0           40  ]
unit cell volume = 6967.77
G =
[   0.443025   0.255781         -0  ]
[          0   0.511561         -0  ]
[         -0         -0    0.15708  ]
Minimum fftbox size, Smin = [  60  60  164  ]
Chosen fftbox size, S = [  60  60  168  ]

---------- Exchange Correlation functional ----------
Initalized PBE GGA exchange.
Initalized PBE GGA correlation.

---------- Setting up pseudopotentials ----------
Width of ionic core gaussian charges (only for fluid interactions / plotting) set to 0

Reading pseudopotential file '/home/gridsan/aligho/DFT/build-Nov24/pseudopotentials/SG15/Rb_ONCV_PBE.upf':
  'Rb' pseudopotential, 'PBE' functional
  Generated using ONCVPSP code by D. R. Hamann
  Author: Martin Schlipf and Francois Gygi  Date: 150915.
  9 valence electrons, 3 orbitals, 6 projectors, 2308 radial grid points, with lMax = 2
  Transforming local potential to a uniform radial grid of dG=0.02 with 1489 points.
  Transforming nonlocal projectors to a uniform radial grid of dG=0.02 with 432 points.
    4S    l: 0   occupation:  2.0   eigenvalue: -1.172069
    4P    l: 1   occupation:  6.0   eigenvalue: -0.586674
    5S    l: 0   occupation:  1.0   eigenvalue: -0.082006
  Transforming atomic orbitals to a uniform radial grid of dG=0.02 with 432 points.
  Core radius for overlap checks: 2.60 bohrs.
  Reading pulay file /home/gridsan/aligho/DFT/build-Nov24/pseudopotentials/SG15/Rb_ONCV_PBE.pulay ... using dE_dnG = -1.360715e-05 computed for Ecut = 20.

Initialized 1 species with 1 total atoms.

Folded 1 k-points by 12x12x1 to 144 k-points.

---------- Setting up k-points, bands, fillings ----------
Reduced to 19 k-points under symmetry. 
Computing the number of bands and number of electrons
Calculating initial fillings.
nElectrons:   9.000000   nBands: 6   nStates: 38

----- Setting up reduced wavefunction bases (one per k-point) -----
average nbasis = 29766.104 , ideal nbasis = 29766.845

---------- Setting up coulomb interaction ----------
Initialized slab truncation along lattice direction 001

---------- Setting up 2D ewald sum ----------
Optimum gaussian width for ewald sums = 7.873530 bohr.
Real space sums over 289 unit cells with max indices [  8  8  0  ]
Reciprocal space sums over 81 terms with max indices [  4  4  0  ]

---------- Allocating electronic variables ----------
Initializing wave functions:  linear combination of atomic orbitals
Note: number of bands (6) exceeds available atomic orbitals (5)
Rb pseudo-atom occupations:   s ( 2 1 )  p ( 6 )
	FillingsUpdate:  mu: -0.083584277  nElectrons: 9.000000  magneticMoment: [ Abs: 0.22000  Tot: +0.22000 ]
LCAOMinimize: Iter:   0  F: -24.4367777099323895  |grad|_K:  2.134e-05  alpha:  1.000e+00
	FillingsUpdate:  mu: -0.083579569  nElectrons: 9.000000  magneticMoment: [ Abs: 0.22000  Tot: +0.22000 ]
LCAOMinimize: Iter:   1  F: -24.4367780166677271  |grad|_K:  1.695e-07  alpha:  9.852e-01  linmin: -1.915e-02  cgtest:  4.913e-01  t[s]:      8.79
LCAOMinimize: Encountered beta<0, resetting CG.
	FillingsUpdate:  mu: -0.083579565  nElectrons: 9.000000  magneticMoment: [ Abs: 0.22000  Tot: +0.22000 ]
LCAOMinimize: Iter:   2  F: -24.4367780166872741  |grad|_K:  1.724e-09  alpha:  9.906e-01  linmin: -4.361e-02  cgtest:  9.978e-01  t[s]:     11.20
LCAOMinimize: Encountered beta<0, resetting CG.
LCAOMinimize: Converged (|Delta F|<1.000000e-06 for 2 iters).


---- Citations for features of the code used in this run ----

   Software package:
      R. Sundararaman, K. Letchworth-Weaver, K.A. Schwarz, D. Gunceler, Y. Ozhabes and T.A. Arias, 'JDFTx: software for joint density-functional theory', SoftwareX 6, 278 (2017)

   gga-PBE exchange-correlation functional:
      J.P. Perdew, K. Burke and M. Ernzerhof, Phys. Rev. Lett. 77, 3865 (1996)

   Pseudopotentials:
      M Schlipf and F Gygi, Comput. Phys. Commun. 196, 36 (2015)

   Truncated Coulomb potentials:
      R. Sundararaman and T.A. Arias, Phys. Rev. B 87, 165122 (2013)

This list may not be complete. Please suggest additional citations or
report any other bugs at https://github.com/shankar1729/jdftx/issues

Initialization completed successfully at t[s]:     11.36


-------- Electronic minimization -----------
Will mix electronic density at each iteration.
	FillingsUpdate:  mu: -0.083579565  nElectrons: 9.000000  magneticMoment: [ Abs: 0.22000  Tot: +0.22000 ]
	FillingsUpdate:  mu: -0.085673337  nElectrons: 9.000000  magneticMoment: [ Abs: 0.22000  Tot: +0.22000 ]
SCF: Cycle:  0   F: -24.438515250525615   dF: -1.737e-03   |Residual|: 3.799e-03   |deigs|: 1.737e-01  t[s]:     16.16
	FillingsUpdate:  mu: -0.085901347  nElectrons: 9.000000  magneticMoment: [ Abs: 0.22008  Tot: +0.22000 ]
SCF: Cycle:  1   F: -24.438555411072013   dF: -4.016e-05   |Residual|: 3.268e-03   |deigs|: 4.550e-03  t[s]:     19.97
	FillingsUpdate:  mu: -0.086337197  nElectrons: 9.000000  magneticMoment: [ Abs: 0.22204  Tot: +0.22000 ]
SCF: Cycle:  2   F: -24.438588783651650   dF: -3.337e-05   |Residual|: 1.775e-03   |deigs|: 2.723e-03  t[s]:     23.79
	FillingsUpdate:  mu: -0.086505060  nElectrons: 9.000000  magneticMoment: [ Abs: 0.22143  Tot: +0.22000 ]
SCF: Cycle:  3   F: -24.438601596683338   dF: -1.281e-05   |Residual|: 1.039e-03   |deigs|: 2.149e-03  t[s]:     27.67
	FillingsUpdate:  mu: -0.086431987  nElectrons: 9.000000  magneticMoment: [ Abs: 0.22028  Tot: +0.22000 ]
SCF: Cycle:  4   F: -24.438607899083539   dF: -6.302e-06   |Residual|: 5.969e-04   |deigs|: 2.702e-03  t[s]:     31.64
	FillingsUpdate:  mu: -0.086372810  nElectrons: 9.000000  magneticMoment: [ Abs: 0.22072  Tot: +0.22000 ]
SCF: Cycle:  5   F: -24.438610826254532   dF: -2.927e-06   |Residual|: 4.566e-04   |deigs|: 1.640e-03  t[s]:     35.62
	FillingsUpdate:  mu: -0.086184964  nElectrons: 9.000000  magneticMoment: [ Abs: 0.22066  Tot: +0.22000 ]
SCF: Cycle:  6   F: -24.438612358379366   dF: -1.532e-06   |Residual|: 3.441e-04   |deigs|: 7.638e-04  t[s]:     39.66
	FillingsUpdate:  mu: -0.085933052  nElectrons: 9.000000  magneticMoment: [ Abs: 0.22099  Tot: +0.22000 ]
SCF: Cycle:  7   F: -24.438612726770327   dF: -3.684e-07   |Residual|: 2.793e-04   |deigs|: 4.347e-04  t[s]:     43.76
	FillingsUpdate:  mu: -0.085667116  nElectrons: 9.000000  magneticMoment: [ Abs: 0.22164  Tot: +0.22000 ]
SCF: Cycle:  8   F: -24.438612649527101   dF: +7.724e-08   |Residual|: 2.260e-04   |deigs|: 2.933e-04  t[s]:     47.97
	FillingsUpdate:  mu: -0.085383588  nElectrons: 9.000000  magneticMoment: [ Abs: 0.22143  Tot: +0.22000 ]
SCF: Cycle:  9   F: -24.438611933829691   dF: +7.157e-07   |Residual|: 2.086e-04   |deigs|: 5.438e-04  t[s]:     52.25
	FillingsUpdate:  mu: -0.085138950  nElectrons: 9.000000  magneticMoment: [ Abs: 0.22139  Tot: +0.22000 ]
SCF: Cycle: 10   F: -24.438612570225750   dF: -6.364e-07   |Residual|: 1.858e-04   |deigs|: 3.348e-04  t[s]:     56.63
	FillingsUpdate:  mu: -0.084945064  nElectrons: 9.000000  magneticMoment: [ Abs: 0.22147  Tot: +0.22000 ]
SCF: Cycle: 11   F: -24.438612960819778   dF: -3.906e-07   |Residual|: 1.492e-04   |deigs|: 1.630e-04  t[s]:     60.96
	FillingsUpdate:  mu: -0.084755054  nElectrons: 9.000000  magneticMoment: [ Abs: 0.22152  Tot: +0.22000 ]
SCF: Cycle: 12   F: -24.438613122865188   dF: -1.620e-07   |Residual|: 1.333e-04   |deigs|: 2.261e-04  t[s]:     65.26
	FillingsUpdate:  mu: -0.084376641  nElectrons: 9.000000  magneticMoment: [ Abs: 0.22092  Tot: +0.22000 ]
SCF: Cycle: 13   F: -24.438612420428690   dF: +7.024e-07   |Residual|: 1.337e-04   |deigs|: 4.088e-04  t[s]:     69.57
	FillingsUpdate:  mu: -0.084191174  nElectrons: 9.000000  magneticMoment: [ Abs: 0.22094  Tot: +0.22000 ]
SCF: Cycle: 14   F: -24.438612735634393   dF: -3.152e-07   |Residual|: 1.225e-04   |deigs|: 3.938e-04  t[s]:     73.80
	FillingsUpdate:  mu: -0.084084793  nElectrons: 9.000000  magneticMoment: [ Abs: 0.22114  Tot: +0.22000 ]
SCF: Cycle: 15   F: -24.438613902144258   dF: -1.167e-06   |Residual|: 9.100e-05   |deigs|: 3.851e-04  t[s]:     78.12
	FillingsUpdate:  mu: -0.083914865  nElectrons: 9.000000  magneticMoment: [ Abs: 0.22079  Tot: +0.22000 ]
SCF: Cycle: 16   F: -24.438614350109901   dF: -4.480e-07   |Residual|: 6.693e-05   |deigs|: 1.935e-04  t[s]:     82.33
	FillingsUpdate:  mu: -0.083792864  nElectrons: 9.000000  magneticMoment: [ Abs: 0.22071  Tot: +0.22000 ]
SCF: Cycle: 17   F: -24.438614464366321   dF: -1.143e-07   |Residual|: 4.363e-05   |deigs|: 1.683e-04  t[s]:     86.42
	FillingsUpdate:  mu: -0.083797534  nElectrons: 9.000000  magneticMoment: [ Abs: 0.22069  Tot: +0.22000 ]
SCF: Cycle: 18   F: -24.438614540434930   dF: -7.607e-08   |Residual|: 2.838e-05   |deigs|: 5.067e-05  t[s]:     90.71
	FillingsUpdate:  mu: -0.083813573  nElectrons: 9.000000  magneticMoment: [ Abs: 0.22071  Tot: +0.22000 ]
SCF: Cycle: 19   F: -24.438614580602209   dF: -4.017e-08   |Residual|: 1.674e-05   |deigs|: 3.087e-05  t[s]:     95.00
	FillingsUpdate:  mu: -0.083817802  nElectrons: 9.000000  magneticMoment: [ Abs: 0.22071  Tot: +0.22000 ]
SCF: Cycle: 20   F: -24.438614592554796   dF: -1.195e-08   |Residual|: 1.086e-05   |deigs|: 1.392e-05  t[s]:     99.25
	FillingsUpdate:  mu: -0.083818810  nElectrons: 9.000000  magneticMoment: [ Abs: 0.22070  Tot: +0.22000 ]
SCF: Cycle: 21   F: -24.438614599183271   dF: -6.628e-09   |Residual|: 6.265e-06   |deigs|: 7.993e-06  t[s]:    103.56
	FillingsUpdate:  mu: -0.083820102  nElectrons: 9.000000  magneticMoment: [ Abs: 0.22071  Tot: +0.22000 ]
SCF: Cycle: 22   F: -24.438614601561259   dF: -2.378e-09   |Residual|: 3.952e-06   |deigs|: 5.621e-06  t[s]:    107.89
SCF: Converged (|Delta E|<1.000000e-08 for 2 iters).


# Ionic positions in lattice coordinates:
ion Rb   0.000000000000000   0.000000000000000   0.000000000000000 0

# Forces in Lattice coordinates:
force Rb   0.000000000000000  -0.000000000000000   0.000000000000000 0

# Energy components:
   Eewald =      -12.0320174002217755
       EH =        7.4873541191132054
     Eloc =      -22.3972802614233331
      Enl =       -0.7978507513926478
   Epulay =       -0.0000000014467880
      Exc =       -3.6468168239463985
       KE =        6.9479970105667608
-------------------------------------
     Etot =      -24.4386141087509756
       TS =        0.0000004928102820
-------------------------------------
        F =      -24.4386146015612589

IonicMinimize: Iter:   0  F: -24.438614601561259  |grad|_K:  0.000e+00  t[s]:    108.15
IonicMinimize: Converged (|grad|_K<1.000000e-04).

#--- Lowdin population analysis ---
# oxidation-state Rb +0.031
# magnetic-moments Rb +0.206

End date and time: Sun Feb  6 12:50:50 2022  (Duration: 0-0:01:48.20)
Done!
