
*************** JDFTx 1.6.0 (git hash 42ebbcc2) ***************

Start date and time: Sun Feb  6 12:42:28 2022
Executable jdftx with command-line: -i Alkali.in
Running on hosts (process indices):  d-17-6-4 (0-18)
Divided in process groups (process indices):  0 (0)  1 (1)  2 (2)  3 (3)  4 (4)  5 (5)  6 (6)  7 (7)  8 (8)  9 (9)  10 (10)  11 (11)  12 (12)  13 (13)  14 (14)  15 (15)  16 (16)  17 (17)  18 (18)
Resource initialization completed at t[s]:      0.00
Run totals: 19 processes, 48 threads, 0 GPUs


Input parsed successfully to the following command list (including defaults):

basis kpoint-dependent
coords-type Lattice
core-overlap-check vector
coulomb-interaction Slab 001
davidson-band-ratio 1.1
dump End None
dump-name $INPUT.$VAR
elec-cutoff 20
elec-eigen-algo Davidson
elec-ex-corr gga-PBE
elec-initial-magnetization -0.260000 yes
elec-smearing Fermi 1e-05
electronic-minimize  \
	dirUpdateScheme      FletcherReeves \
	linminMethod         DirUpdateRecommended \
	nIterations          100 \
	history              15 \
	knormThreshold       0 \
	energyDiffThreshold  1e-08 \
	nEnergyDiff          2 \
	alphaTstart          1 \
	alphaTmin            1e-10 \
	updateTestStepSize   yes \
	alphaTreduceFactor   0.1 \
	alphaTincreaseFactor 3 \
	nAlphaAdjustMax      3 \
	wolfeEnergy          0.0001 \
	wolfeGradient        0.9 \
	fdTest               no
electronic-scf  \
	nIterations	10000 \
	energyDiffThreshold	1e-08 \
	residualThreshold	1e-07 \
	mixFraction	0.5 \
	qMetric	0.8 \
	history	10 \
	nEigSteps	2 \
	eigDiffThreshold	1e-08 \
	mixedVariable	Density \
	qKerker	0.8 \
	qKappa	-1 \
	verbose	no \
	mixFractionMag	1.5
exchange-regularization WignerSeitzTruncated
fluid None
fluid-ex-corr (null) lda-PZ
fluid-gummel-loop 10 1.000000e-05
fluid-minimize  \
	dirUpdateScheme      PolakRibiere \
	linminMethod         DirUpdateRecommended \
	nIterations          100 \
	history              15 \
	knormThreshold       0 \
	energyDiffThreshold  0 \
	nEnergyDiff          2 \
	alphaTstart          1 \
	alphaTmin            1e-10 \
	updateTestStepSize   yes \
	alphaTreduceFactor   0.1 \
	alphaTincreaseFactor 3 \
	nAlphaAdjustMax      3 \
	wolfeEnergy          0.0001 \
	wolfeGradient        0.9 \
	fdTest               no
fluid-solvent H2O 55.338 ScalarEOS \
	epsBulk 78.4 \
	pMol 0.92466 \
	epsInf 1.77 \
	Pvap 1.06736e-10 \
	sigmaBulk 4.62e-05 \
	Rvdw 2.61727 \
	Res 1.42 \
	tauNuc 343133 \
	poleEl 15 7 1
forces-output-coords Positions
ion Rb   0.000000000000000   0.000000000000000   0.000000000000000 0
ion-species SG15/$ID_ONCV_PBE.upf
ion-width 0
ionic-minimize  \
	dirUpdateScheme      L-BFGS \
	linminMethod         DirUpdateRecommended \
	nIterations          0 \
	history              15 \
	knormThreshold       0.0001 \
	energyDiffThreshold  1e-06 \
	nEnergyDiff          2 \
	alphaTstart          1 \
	alphaTmin            1e-10 \
	updateTestStepSize   yes \
	alphaTreduceFactor   0.1 \
	alphaTincreaseFactor 3 \
	nAlphaAdjustMax      3 \
	wolfeEnergy          0.0001 \
	wolfeGradient        0.9 \
	fdTest               no
kpoint   0.000000000000   0.000000000000   0.000000000000  1.00000000000000
kpoint-folding 12 12 1 
latt-move-scale 1 1 1
latt-scale 3 3 1 
lattice  \
	   4.727486978767153   -2.363743489383575    0.000000000000000  \
	  -0.000000000000000    4.094123819672498    0.000000000000000  \
	   0.000000000000000    0.000000000000000   40.000000000000000 
lattice-minimize  \
	dirUpdateScheme      L-BFGS \
	linminMethod         DirUpdateRecommended \
	nIterations          0 \
	history              15 \
	knormThreshold       0 \
	energyDiffThreshold  1e-06 \
	nEnergyDiff          2 \
	alphaTstart          1 \
	alphaTmin            1e-10 \
	updateTestStepSize   yes \
	alphaTreduceFactor   0.1 \
	alphaTincreaseFactor 3 \
	nAlphaAdjustMax      3 \
	wolfeEnergy          0.0001 \
	wolfeGradient        0.9 \
	fdTest               no
lcao-params -1 1e-06 1e-05
pcm-variant GLSSA13
spintype z-spin
subspace-rotation-factor 1 yes
symmetries automatic
symmetry-threshold 0.0001



---------- Setting up symmetries ----------

Found 24 point-group symmetries of the bravais lattice
Found 24 space-group symmetries with basis
Applied RMS atom displacement 0 bohrs to make symmetries exact.

---------- Initializing the Grid ----------
R = 
[      14.1825     -7.09123            0  ]
[            0      12.2824            0  ]
[            0            0           40  ]
unit cell volume = 6967.77
G =
[   0.443025   0.255781         -0  ]
[          0   0.511561         -0  ]
[         -0         -0    0.15708  ]
Minimum fftbox size, Smin = [  60  60  164  ]
Chosen fftbox size, S = [  60  60  168  ]

---------- Exchange Correlation functional ----------
Initalized PBE GGA exchange.
Initalized PBE GGA correlation.

---------- Setting up pseudopotentials ----------
Width of ionic core gaussian charges (only for fluid interactions / plotting) set to 0

Reading pseudopotential file '/home/gridsan/aligho/DFT/build-Nov24/pseudopotentials/SG15/Rb_ONCV_PBE.upf':
  'Rb' pseudopotential, 'PBE' functional
  Generated using ONCVPSP code by D. R. Hamann
  Author: Martin Schlipf and Francois Gygi  Date: 150915.
  9 valence electrons, 3 orbitals, 6 projectors, 2308 radial grid points, with lMax = 2
  Transforming local potential to a uniform radial grid of dG=0.02 with 1489 points.
  Transforming nonlocal projectors to a uniform radial grid of dG=0.02 with 432 points.
    4S    l: 0   occupation:  2.0   eigenvalue: -1.172069
    4P    l: 1   occupation:  6.0   eigenvalue: -0.586674
    5S    l: 0   occupation:  1.0   eigenvalue: -0.082006
  Transforming atomic orbitals to a uniform radial grid of dG=0.02 with 432 points.
  Core radius for overlap checks: 2.60 bohrs.
  Reading pulay file /home/gridsan/aligho/DFT/build-Nov24/pseudopotentials/SG15/Rb_ONCV_PBE.pulay ... using dE_dnG = -1.360715e-05 computed for Ecut = 20.

Initialized 1 species with 1 total atoms.

Folded 1 k-points by 12x12x1 to 144 k-points.

---------- Setting up k-points, bands, fillings ----------
Reduced to 19 k-points under symmetry. 
Computing the number of bands and number of electrons
Calculating initial fillings.
nElectrons:   9.000000   nBands: 6   nStates: 38

----- Setting up reduced wavefunction bases (one per k-point) -----
average nbasis = 29766.104 , ideal nbasis = 29766.845

---------- Setting up coulomb interaction ----------
Initialized slab truncation along lattice direction 001

---------- Setting up 2D ewald sum ----------
Optimum gaussian width for ewald sums = 7.873530 bohr.
Real space sums over 289 unit cells with max indices [  8  8  0  ]
Reciprocal space sums over 81 terms with max indices [  4  4  0  ]

---------- Allocating electronic variables ----------
Initializing wave functions:  linear combination of atomic orbitals
Note: number of bands (6) exceeds available atomic orbitals (5)
Rb pseudo-atom occupations:   s ( 2 1 )  p ( 6 )
	FillingsUpdate:  mu: -0.084894796  nElectrons: 9.000000  magneticMoment: [ Abs: 0.26000  Tot: -0.26000 ]
LCAOMinimize: Iter:   0  F: -24.4366932649247524  |grad|_K:  2.126e-05  alpha:  1.000e+00
	FillingsUpdate:  mu: -0.084890504  nElectrons: 9.000000  magneticMoment: [ Abs: 0.26000  Tot: -0.26000 ]
LCAOMinimize: Iter:   1  F: -24.4366935697396279  |grad|_K:  1.733e-07  alpha:  9.862e-01  linmin: -1.839e-02  cgtest:  4.460e-01  t[s]:      8.85
LCAOMinimize: Encountered beta<0, resetting CG.
	FillingsUpdate:  mu: -0.084890507  nElectrons: 9.000000  magneticMoment: [ Abs: 0.26000  Tot: -0.26000 ]
LCAOMinimize: Iter:   2  F: -24.4366935697601804  |grad|_K:  4.608e-10  alpha:  1.002e+00  linmin:  4.364e-02  cgtest: -6.415e-01  t[s]:     11.21
LCAOMinimize: Converged (|Delta F|<1.000000e-06 for 2 iters).


---- Citations for features of the code used in this run ----

   Software package:
      R. Sundararaman, K. Letchworth-Weaver, K.A. Schwarz, D. Gunceler, Y. Ozhabes and T.A. Arias, 'JDFTx: software for joint density-functional theory', SoftwareX 6, 278 (2017)

   gga-PBE exchange-correlation functional:
      J.P. Perdew, K. Burke and M. Ernzerhof, Phys. Rev. Lett. 77, 3865 (1996)

   Pseudopotentials:
      M Schlipf and F Gygi, Comput. Phys. Commun. 196, 36 (2015)

   Truncated Coulomb potentials:
      R. Sundararaman and T.A. Arias, Phys. Rev. B 87, 165122 (2013)

This list may not be complete. Please suggest additional citations or
report any other bugs at https://github.com/shankar1729/jdftx/issues

Initialization completed successfully at t[s]:     11.37


-------- Electronic minimization -----------
Will mix electronic density at each iteration.
	FillingsUpdate:  mu: -0.084890507  nElectrons: 9.000000  magneticMoment: [ Abs: 0.26000  Tot: -0.26000 ]
	FillingsUpdate:  mu: -0.086862057  nElectrons: 9.000000  magneticMoment: [ Abs: 0.26000  Tot: -0.26000 ]
SCF: Cycle:  0   F: -24.438414192605620   dF: -1.721e-03   |Residual|: 3.815e-03   |deigs|: 1.737e-01  t[s]:     16.19
	FillingsUpdate:  mu: -0.087078626  nElectrons: 9.000000  magneticMoment: [ Abs: 0.26011  Tot: -0.26000 ]
SCF: Cycle:  1   F: -24.438457868811398   dF: -4.368e-05   |Residual|: 3.263e-03   |deigs|: 4.738e-03  t[s]:     19.90
	FillingsUpdate:  mu: -0.087472664  nElectrons: 9.000000  magneticMoment: [ Abs: 0.26196  Tot: -0.26000 ]
SCF: Cycle:  2   F: -24.438491633691967   dF: -3.376e-05   |Residual|: 1.869e-03   |deigs|: 2.021e-03  t[s]:     23.72
	FillingsUpdate:  mu: -0.087663710  nElectrons: 9.000000  magneticMoment: [ Abs: 0.26175  Tot: -0.26000 ]
SCF: Cycle:  3   F: -24.438505102452837   dF: -1.347e-05   |Residual|: 1.097e-03   |deigs|: 2.916e-03  t[s]:     27.56
	FillingsUpdate:  mu: -0.087616910  nElectrons: 9.000000  magneticMoment: [ Abs: 0.26034  Tot: -0.26000 ]
SCF: Cycle:  4   F: -24.438512097421913   dF: -6.995e-06   |Residual|: 6.088e-04   |deigs|: 1.696e-03  t[s]:     31.47
	FillingsUpdate:  mu: -0.087573058  nElectrons: 9.000000  magneticMoment: [ Abs: 0.26088  Tot: -0.26000 ]
SCF: Cycle:  5   F: -24.438515456517660   dF: -3.359e-06   |Residual|: 4.614e-04   |deigs|: 2.404e-03  t[s]:     35.43
	FillingsUpdate:  mu: -0.087402175  nElectrons: 9.000000  magneticMoment: [ Abs: 0.26082  Tot: -0.26000 ]
SCF: Cycle:  6   F: -24.438517217251992   dF: -1.761e-06   |Residual|: 3.444e-04   |deigs|: 9.481e-04  t[s]:     39.50
	FillingsUpdate:  mu: -0.087151085  nElectrons: 9.000000  magneticMoment: [ Abs: 0.26114  Tot: -0.26000 ]
SCF: Cycle:  7   F: -24.438517568490571   dF: -3.512e-07   |Residual|: 2.792e-04   |deigs|: 4.224e-04  t[s]:     43.57
	FillingsUpdate:  mu: -0.086894542  nElectrons: 9.000000  magneticMoment: [ Abs: 0.26185  Tot: -0.26000 ]
SCF: Cycle:  8   F: -24.438517586231214   dF: -1.774e-08   |Residual|: 2.286e-04   |deigs|: 2.938e-04  t[s]:     47.70
	FillingsUpdate:  mu: -0.086607382  nElectrons: 9.000000  magneticMoment: [ Abs: 0.26161  Tot: -0.26000 ]
SCF: Cycle:  9   F: -24.438516853711945   dF: +7.325e-07   |Residual|: 2.074e-04   |deigs|: 3.385e-04  t[s]:     51.92
	FillingsUpdate:  mu: -0.086343906  nElectrons: 9.000000  magneticMoment: [ Abs: 0.26157  Tot: -0.26000 ]
SCF: Cycle: 10   F: -24.438517430237432   dF: -5.765e-07   |Residual|: 1.858e-04   |deigs|: 4.522e-04  t[s]:     56.21
	FillingsUpdate:  mu: -0.086180764  nElectrons: 9.000000  magneticMoment: [ Abs: 0.26163  Tot: -0.26000 ]
SCF: Cycle: 11   F: -24.438517939307090   dF: -5.091e-07   |Residual|: 1.473e-04   |deigs|: 2.459e-04  t[s]:     60.64
	FillingsUpdate:  mu: -0.085975131  nElectrons: 9.000000  magneticMoment: [ Abs: 0.26168  Tot: -0.26000 ]
SCF: Cycle: 12   F: -24.438518142523716   dF: -2.032e-07   |Residual|: 1.336e-04   |deigs|: 2.768e-04  t[s]:     64.96
	FillingsUpdate:  mu: -0.085593864  nElectrons: 9.000000  magneticMoment: [ Abs: 0.26113  Tot: -0.26000 ]
SCF: Cycle: 13   F: -24.438517432130567   dF: +7.104e-07   |Residual|: 1.345e-04   |deigs|: 4.117e-04  t[s]:     69.28
	FillingsUpdate:  mu: -0.085404940  nElectrons: 9.000000  magneticMoment: [ Abs: 0.26108  Tot: -0.26000 ]
SCF: Cycle: 14   F: -24.438517694067826   dF: -2.619e-07   |Residual|: 1.235e-04   |deigs|: 3.046e-04  t[s]:     73.46
	FillingsUpdate:  mu: -0.085328574  nElectrons: 9.000000  magneticMoment: [ Abs: 0.26127  Tot: -0.26000 ]
SCF: Cycle: 15   F: -24.438518893710125   dF: -1.200e-06   |Residual|: 9.047e-05   |deigs|: 3.622e-04  t[s]:     77.73
	FillingsUpdate:  mu: -0.085129336  nElectrons: 9.000000  magneticMoment: [ Abs: 0.26093  Tot: -0.26000 ]
SCF: Cycle: 16   F: -24.438519343789295   dF: -4.501e-07   |Residual|: 6.688e-05   |deigs|: 2.226e-04  t[s]:     81.91
	FillingsUpdate:  mu: -0.085002992  nElectrons: 9.000000  magneticMoment: [ Abs: 0.26084  Tot: -0.26000 ]
SCF: Cycle: 17   F: -24.438519446232164   dF: -1.024e-07   |Residual|: 4.457e-05   |deigs|: 1.738e-04  t[s]:     86.08
	FillingsUpdate:  mu: -0.085008191  nElectrons: 9.000000  magneticMoment: [ Abs: 0.26083  Tot: -0.26000 ]
SCF: Cycle: 18   F: -24.438519529095224   dF: -8.286e-08   |Residual|: 2.941e-05   |deigs|: 4.017e-05  t[s]:     90.40
	FillingsUpdate:  mu: -0.085023888  nElectrons: 9.000000  magneticMoment: [ Abs: 0.26085  Tot: -0.26000 ]
SCF: Cycle: 19   F: -24.438519579713699   dF: -5.062e-08   |Residual|: 1.651e-05   |deigs|: 2.544e-05  t[s]:     94.65
	FillingsUpdate:  mu: -0.085026350  nElectrons: 9.000000  magneticMoment: [ Abs: 0.26085  Tot: -0.26000 ]
SCF: Cycle: 20   F: -24.438519590930998   dF: -1.122e-08   |Residual|: 1.100e-05   |deigs|: 1.134e-05  t[s]:     98.73
	FillingsUpdate:  mu: -0.085029331  nElectrons: 9.000000  magneticMoment: [ Abs: 0.26085  Tot: -0.26000 ]
SCF: Cycle: 21   F: -24.438519598644369   dF: -7.713e-09   |Residual|: 5.767e-06   |deigs|: 1.072e-05  t[s]:    103.00
	FillingsUpdate:  mu: -0.085030722  nElectrons: 9.000000  magneticMoment: [ Abs: 0.26085  Tot: -0.26000 ]
SCF: Cycle: 22   F: -24.438519600865515   dF: -2.221e-09   |Residual|: 3.716e-06   |deigs|: 9.451e-06  t[s]:    107.20
SCF: Converged (|Delta E|<1.000000e-08 for 2 iters).


# Ionic positions in lattice coordinates:
ion Rb   0.000000000000000   0.000000000000000   0.000000000000000 0

# Forces in Lattice coordinates:
force Rb  -0.000000000000000   0.000000000000000   0.000000000000000 0

# Energy components:
   Eewald =      -12.0320174002217755
       EH =        7.4884125138412774
     Eloc =      -22.3984592311153889
      Enl =       -0.7977892060998761
   Epulay =       -0.0000000014467880
      Exc =       -3.6469711462211545
       KE =        6.9483052914474293
-------------------------------------
     Etot =      -24.4385191798162786
       TS =        0.0000004210492349
-------------------------------------
        F =      -24.4385196008655150

IonicMinimize: Iter:   0  F: -24.438519600865515  |grad|_K:  0.000e+00  t[s]:    107.46
IonicMinimize: Converged (|grad|_K<1.000000e-04).

#--- Lowdin population analysis ---
# oxidation-state Rb +0.031
# magnetic-moments Rb -0.244

End date and time: Sun Feb  6 12:44:16 2022  (Duration: 0-0:01:47.51)
Done!
