
*************** JDFTx 1.6.0 (git hash 42ebbcc2) ***************

Start date and time: Sun Feb  6 12:35:56 2022
Executable jdftx with command-line: -i Alkali.in
Running on hosts (process indices):  d-16-13-1 (0-18)
Divided in process groups (process indices):  0 (0)  1 (1)  2 (2)  3 (3)  4 (4)  5 (5)  6 (6)  7 (7)  8 (8)  9 (9)  10 (10)  11 (11)  12 (12)  13 (13)  14 (14)  15 (15)  16 (16)  17 (17)  18 (18)
Resource initialization completed at t[s]:      0.00
Run totals: 19 processes, 48 threads, 0 GPUs


Input parsed successfully to the following command list (including defaults):

basis kpoint-dependent
coords-type Lattice
core-overlap-check vector
coulomb-interaction Slab 001
davidson-band-ratio 1.1
dump End None
dump-name $INPUT.$VAR
elec-cutoff 20
elec-eigen-algo Davidson
elec-ex-corr gga-PBE
elec-initial-magnetization -0.740000 yes
elec-smearing Fermi 1e-05
electronic-minimize  \
	dirUpdateScheme      FletcherReeves \
	linminMethod         DirUpdateRecommended \
	nIterations          100 \
	history              15 \
	knormThreshold       0 \
	energyDiffThreshold  1e-08 \
	nEnergyDiff          2 \
	alphaTstart          1 \
	alphaTmin            1e-10 \
	updateTestStepSize   yes \
	alphaTreduceFactor   0.1 \
	alphaTincreaseFactor 3 \
	nAlphaAdjustMax      3 \
	wolfeEnergy          0.0001 \
	wolfeGradient        0.9 \
	fdTest               no
electronic-scf  \
	nIterations	10000 \
	energyDiffThreshold	1e-08 \
	residualThreshold	1e-07 \
	mixFraction	0.5 \
	qMetric	0.8 \
	history	10 \
	nEigSteps	2 \
	eigDiffThreshold	1e-08 \
	mixedVariable	Density \
	qKerker	0.8 \
	qKappa	-1 \
	verbose	no \
	mixFractionMag	1.5
exchange-regularization WignerSeitzTruncated
fluid None
fluid-ex-corr (null) lda-PZ
fluid-gummel-loop 10 1.000000e-05
fluid-minimize  \
	dirUpdateScheme      PolakRibiere \
	linminMethod         DirUpdateRecommended \
	nIterations          100 \
	history              15 \
	knormThreshold       0 \
	energyDiffThreshold  0 \
	nEnergyDiff          2 \
	alphaTstart          1 \
	alphaTmin            1e-10 \
	updateTestStepSize   yes \
	alphaTreduceFactor   0.1 \
	alphaTincreaseFactor 3 \
	nAlphaAdjustMax      3 \
	wolfeEnergy          0.0001 \
	wolfeGradient        0.9 \
	fdTest               no
fluid-solvent H2O 55.338 ScalarEOS \
	epsBulk 78.4 \
	pMol 0.92466 \
	epsInf 1.77 \
	Pvap 1.06736e-10 \
	sigmaBulk 4.62e-05 \
	Rvdw 2.61727 \
	Res 1.42 \
	tauNuc 343133 \
	poleEl 15 7 1
forces-output-coords Positions
ion Rb   0.000000000000000   0.000000000000000   0.000000000000000 0
ion-species SG15/$ID_ONCV_PBE.upf
ion-width 0
ionic-minimize  \
	dirUpdateScheme      L-BFGS \
	linminMethod         DirUpdateRecommended \
	nIterations          0 \
	history              15 \
	knormThreshold       0.0001 \
	energyDiffThreshold  1e-06 \
	nEnergyDiff          2 \
	alphaTstart          1 \
	alphaTmin            1e-10 \
	updateTestStepSize   yes \
	alphaTreduceFactor   0.1 \
	alphaTincreaseFactor 3 \
	nAlphaAdjustMax      3 \
	wolfeEnergy          0.0001 \
	wolfeGradient        0.9 \
	fdTest               no
kpoint   0.000000000000   0.000000000000   0.000000000000  1.00000000000000
kpoint-folding 12 12 1 
latt-move-scale 1 1 1
latt-scale 3 3 1 
lattice  \
	   4.727486978767153   -2.363743489383575    0.000000000000000  \
	  -0.000000000000000    4.094123819672498    0.000000000000000  \
	   0.000000000000000    0.000000000000000   40.000000000000000 
lattice-minimize  \
	dirUpdateScheme      L-BFGS \
	linminMethod         DirUpdateRecommended \
	nIterations          0 \
	history              15 \
	knormThreshold       0 \
	energyDiffThreshold  1e-06 \
	nEnergyDiff          2 \
	alphaTstart          1 \
	alphaTmin            1e-10 \
	updateTestStepSize   yes \
	alphaTreduceFactor   0.1 \
	alphaTincreaseFactor 3 \
	nAlphaAdjustMax      3 \
	wolfeEnergy          0.0001 \
	wolfeGradient        0.9 \
	fdTest               no
lcao-params -1 1e-06 1e-05
pcm-variant GLSSA13
spintype z-spin
subspace-rotation-factor 1 yes
symmetries automatic
symmetry-threshold 0.0001



---------- Setting up symmetries ----------

Found 24 point-group symmetries of the bravais lattice
Found 24 space-group symmetries with basis
Applied RMS atom displacement 0 bohrs to make symmetries exact.

---------- Initializing the Grid ----------
R = 
[      14.1825     -7.09123            0  ]
[            0      12.2824            0  ]
[            0            0           40  ]
unit cell volume = 6967.77
G =
[   0.443025   0.255781         -0  ]
[          0   0.511561         -0  ]
[         -0         -0    0.15708  ]
Minimum fftbox size, Smin = [  60  60  164  ]
Chosen fftbox size, S = [  60  60  168  ]

---------- Exchange Correlation functional ----------
Initalized PBE GGA exchange.
Initalized PBE GGA correlation.

---------- Setting up pseudopotentials ----------
Width of ionic core gaussian charges (only for fluid interactions / plotting) set to 0

Reading pseudopotential file '/home/gridsan/aligho/DFT/build-Nov24/pseudopotentials/SG15/Rb_ONCV_PBE.upf':
  'Rb' pseudopotential, 'PBE' functional
  Generated using ONCVPSP code by D. R. Hamann
  Author: Martin Schlipf and Francois Gygi  Date: 150915.
  9 valence electrons, 3 orbitals, 6 projectors, 2308 radial grid points, with lMax = 2
  Transforming local potential to a uniform radial grid of dG=0.02 with 1489 points.
  Transforming nonlocal projectors to a uniform radial grid of dG=0.02 with 432 points.
    4S    l: 0   occupation:  2.0   eigenvalue: -1.172069
    4P    l: 1   occupation:  6.0   eigenvalue: -0.586674
    5S    l: 0   occupation:  1.0   eigenvalue: -0.082006
  Transforming atomic orbitals to a uniform radial grid of dG=0.02 with 432 points.
  Core radius for overlap checks: 2.60 bohrs.
  Reading pulay file /home/gridsan/aligho/DFT/build-Nov24/pseudopotentials/SG15/Rb_ONCV_PBE.pulay ... using dE_dnG = -1.360715e-05 computed for Ecut = 20.

Initialized 1 species with 1 total atoms.

Folded 1 k-points by 12x12x1 to 144 k-points.

---------- Setting up k-points, bands, fillings ----------
Reduced to 19 k-points under symmetry. 
Computing the number of bands and number of electrons
Calculating initial fillings.
nElectrons:   9.000000   nBands: 6   nStates: 38

----- Setting up reduced wavefunction bases (one per k-point) -----
average nbasis = 29766.104 , ideal nbasis = 29766.845

---------- Setting up coulomb interaction ----------
Initialized slab truncation along lattice direction 001

---------- Setting up 2D ewald sum ----------
Optimum gaussian width for ewald sums = 7.873530 bohr.
Real space sums over 289 unit cells with max indices [  8  8  0  ]
Reciprocal space sums over 81 terms with max indices [  4  4  0  ]

---------- Allocating electronic variables ----------
Initializing wave functions:  linear combination of atomic orbitals
Note: number of bands (6) exceeds available atomic orbitals (5)
Rb pseudo-atom occupations:   s ( 2 1 )  p ( 6 )
	FillingsUpdate:  mu: -0.085993983  nElectrons: 9.000000  magneticMoment: [ Abs: 0.74000  Tot: -0.74000 ]
LCAOMinimize: Iter:   0  F: -24.4351165743289407  |grad|_K:  1.085e-05  alpha:  1.000e+00
	FillingsUpdate:  mu: -0.085992729  nElectrons: 9.000000  magneticMoment: [ Abs: 0.74000  Tot: -0.74000 ]
LCAOMinimize: Iter:   1  F: -24.4351166542976905  |grad|_K:  7.992e-08  alpha:  9.930e-01  linmin: -7.703e-03  cgtest:  1.589e-01  t[s]:      8.74
LCAOMinimize: Encountered beta<0, resetting CG.
	FillingsUpdate:  mu: -0.085992745  nElectrons: 9.000000  magneticMoment: [ Abs: 0.74000  Tot: -0.74000 ]
LCAOMinimize: Iter:   2  F: -24.4351166543021385  |grad|_K:  8.903e-10  alpha:  9.873e-01  linmin: -1.058e-01  cgtest:  7.797e-01  t[s]:     11.17
LCAOMinimize: Encountered beta<0, resetting CG.
LCAOMinimize: Converged (|Delta F|<1.000000e-06 for 2 iters).


---- Citations for features of the code used in this run ----

   Software package:
      R. Sundararaman, K. Letchworth-Weaver, K.A. Schwarz, D. Gunceler, Y. Ozhabes and T.A. Arias, 'JDFTx: software for joint density-functional theory', SoftwareX 6, 278 (2017)

   gga-PBE exchange-correlation functional:
      J.P. Perdew, K. Burke and M. Ernzerhof, Phys. Rev. Lett. 77, 3865 (1996)

   Pseudopotentials:
      M Schlipf and F Gygi, Comput. Phys. Commun. 196, 36 (2015)

   Truncated Coulomb potentials:
      R. Sundararaman and T.A. Arias, Phys. Rev. B 87, 165122 (2013)

This list may not be complete. Please suggest additional citations or
report any other bugs at https://github.com/shankar1729/jdftx/issues

Initialization completed successfully at t[s]:     11.33


-------- Electronic minimization -----------
Will mix electronic density at each iteration.
	FillingsUpdate:  mu: -0.085992745  nElectrons: 9.000000  magneticMoment: [ Abs: 0.74000  Tot: -0.74000 ]
	FillingsUpdate:  mu: -0.086826736  nElectrons: 9.000000  magneticMoment: [ Abs: 0.74000  Tot: -0.74000 ]
SCF: Cycle:  0   F: -24.436564885930238   dF: -1.448e-03   |Residual|: 3.883e-03   |deigs|: 1.734e-01  t[s]:     16.14
	FillingsUpdate:  mu: -0.087028710  nElectrons: 9.000000  magneticMoment: [ Abs: 0.74119  Tot: -0.74000 ]
SCF: Cycle:  1   F: -24.436629838673607   dF: -6.495e-05   |Residual|: 2.926e-03   |deigs|: 4.511e-03  t[s]:     19.83
	FillingsUpdate:  mu: -0.087221574  nElectrons: 9.000000  magneticMoment: [ Abs: 0.74322  Tot: -0.74000 ]
SCF: Cycle:  2   F: -24.436670838712082   dF: -4.100e-05   |Residual|: 2.227e-03   |deigs|: 2.169e-03  t[s]:     23.63
	FillingsUpdate:  mu: -0.087496776  nElectrons: 9.000000  magneticMoment: [ Abs: 0.74419  Tot: -0.74000 ]
SCF: Cycle:  3   F: -24.436703606825020   dF: -3.277e-05   |Residual|: 1.625e-03   |deigs|: 3.457e-03  t[s]:     27.50
	FillingsUpdate:  mu: -0.087457147  nElectrons: 9.000000  magneticMoment: [ Abs: 0.74248  Tot: -0.74000 ]
SCF: Cycle:  4   F: -24.436721539658055   dF: -1.793e-05   |Residual|: 8.925e-04   |deigs|: 1.869e-03  t[s]:     31.42
	FillingsUpdate:  mu: -0.087450018  nElectrons: 9.000000  magneticMoment: [ Abs: 0.74320  Tot: -0.74000 ]
SCF: Cycle:  5   F: -24.436727978459412   dF: -6.439e-06   |Residual|: 5.227e-04   |deigs|: 1.261e-03  t[s]:     35.36
	FillingsUpdate:  mu: -0.087389185  nElectrons: 9.000000  magneticMoment: [ Abs: 0.74282  Tot: -0.74000 ]
SCF: Cycle:  6   F: -24.436732257056029   dF: -4.279e-06   |Residual|: 3.830e-04   |deigs|: 8.843e-04  t[s]:     39.38
	FillingsUpdate:  mu: -0.087207616  nElectrons: 9.000000  magneticMoment: [ Abs: 0.74319  Tot: -0.74000 ]
SCF: Cycle:  7   F: -24.436733884780615   dF: -1.628e-06   |Residual|: 2.989e-04   |deigs|: 3.172e-04  t[s]:     43.49
	FillingsUpdate:  mu: -0.086925376  nElectrons: 9.000000  magneticMoment: [ Abs: 0.74384  Tot: -0.74000 ]
SCF: Cycle:  8   F: -24.436733709074648   dF: +1.757e-07   |Residual|: 2.463e-04   |deigs|: 3.401e-04  t[s]:     47.67
	FillingsUpdate:  mu: -0.086533922  nElectrons: 9.000000  magneticMoment: [ Abs: 0.74425  Tot: -0.74000 ]
SCF: Cycle:  9   F: -24.436733039588638   dF: +6.695e-07   |Residual|: 2.247e-04   |deigs|: 4.846e-04  t[s]:     51.85
	FillingsUpdate:  mu: -0.086316553  nElectrons: 9.000000  magneticMoment: [ Abs: 0.74370  Tot: -0.74000 ]
SCF: Cycle: 10   F: -24.436733772958174   dF: -7.334e-07   |Residual|: 1.969e-04   |deigs|: 2.959e-04  t[s]:     56.22
	FillingsUpdate:  mu: -0.086281934  nElectrons: 9.000000  magneticMoment: [ Abs: 0.74384  Tot: -0.74000 ]
SCF: Cycle: 11   F: -24.436735472553192   dF: -1.700e-06   |Residual|: 1.416e-04   |deigs|: 2.901e-04  t[s]:     60.51
	FillingsUpdate:  mu: -0.086067703  nElectrons: 9.000000  magneticMoment: [ Abs: 0.74434  Tot: -0.74000 ]
SCF: Cycle: 12   F: -24.436735677455442   dF: -2.049e-07   |Residual|: 1.347e-04   |deigs|: 2.559e-04  t[s]:     64.75
	FillingsUpdate:  mu: -0.085735720  nElectrons: 9.000000  magneticMoment: [ Abs: 0.74427  Tot: -0.74000 ]
SCF: Cycle: 13   F: -24.436735614334101   dF: +6.312e-08   |Residual|: 1.334e-04   |deigs|: 3.564e-04  t[s]:     69.09
	FillingsUpdate:  mu: -0.085484985  nElectrons: 9.000000  magneticMoment: [ Abs: 0.74408  Tot: -0.74000 ]
SCF: Cycle: 14   F: -24.436735397778403   dF: +2.166e-07   |Residual|: 1.244e-04   |deigs|: 3.749e-04  t[s]:     73.45
	FillingsUpdate:  mu: -0.085378131  nElectrons: 9.000000  magneticMoment: [ Abs: 0.74398  Tot: -0.74000 ]
SCF: Cycle: 15   F: -24.436736185044797   dF: -7.873e-07   |Residual|: 1.033e-04   |deigs|: 2.667e-04  t[s]:     77.73
	FillingsUpdate:  mu: -0.085188173  nElectrons: 9.000000  magneticMoment: [ Abs: 0.74332  Tot: -0.74000 ]
SCF: Cycle: 16   F: -24.436736799766383   dF: -6.147e-07   |Residual|: 8.461e-05   |deigs|: 2.378e-04  t[s]:     82.04
	FillingsUpdate:  mu: -0.085052942  nElectrons: 9.000000  magneticMoment: [ Abs: 0.74298  Tot: -0.74000 ]
SCF: Cycle: 17   F: -24.436736991672781   dF: -1.919e-07   |Residual|: 6.430e-05   |deigs|: 1.559e-04  t[s]:     86.25
	FillingsUpdate:  mu: -0.085037540  nElectrons: 9.000000  magneticMoment: [ Abs: 0.74301  Tot: -0.74000 ]
SCF: Cycle: 18   F: -24.436737115323940   dF: -1.237e-07   |Residual|: 4.391e-05   |deigs|: 8.177e-05  t[s]:     90.59
	FillingsUpdate:  mu: -0.085028522  nElectrons: 9.000000  magneticMoment: [ Abs: 0.74303  Tot: -0.74000 ]
SCF: Cycle: 19   F: -24.436737303131096   dF: -1.878e-07   |Residual|: 2.604e-05   |deigs|: 9.649e-05  t[s]:     94.89
	FillingsUpdate:  mu: -0.085013309  nElectrons: 9.000000  magneticMoment: [ Abs: 0.74304  Tot: -0.74000 ]
SCF: Cycle: 20   F: -24.436737343859395   dF: -4.073e-08   |Residual|: 1.536e-05   |deigs|: 5.575e-05  t[s]:     99.05
	FillingsUpdate:  mu: -0.085017250  nElectrons: 9.000000  magneticMoment: [ Abs: 0.74305  Tot: -0.74000 ]
SCF: Cycle: 21   F: -24.436737366437381   dF: -2.258e-08   |Residual|: 1.000e-05   |deigs|: 2.637e-05  t[s]:    103.34
	FillingsUpdate:  mu: -0.085019200  nElectrons: 9.000000  magneticMoment: [ Abs: 0.74305  Tot: -0.74000 ]
SCF: Cycle: 22   F: -24.436737375151885   dF: -8.715e-09   |Residual|: 6.973e-06   |deigs|: 1.531e-05  t[s]:    107.63
	FillingsUpdate:  mu: -0.085024003  nElectrons: 9.000000  magneticMoment: [ Abs: 0.74305  Tot: -0.74000 ]
SCF: Cycle: 23   F: -24.436737380540318   dF: -5.388e-09   |Residual|: 4.387e-06   |deigs|: 1.093e-05  t[s]:    111.91
SCF: Converged (|Delta E|<1.000000e-08 for 2 iters).


# Ionic positions in lattice coordinates:
ion Rb   0.000000000000000   0.000000000000000   0.000000000000000 0

# Forces in Lattice coordinates:
force Rb  -0.000000000000000   0.000000000000000   0.000000000000000 0

# Energy components:
   Eewald =      -12.0320174002217755
       EH =        7.5135781023236632
     Eloc =      -22.4265023560018157
      Enl =       -0.7963120210294623
   Epulay =       -0.0000000014467880
      Exc =       -3.6508504666153572
       KE =        6.9553670570014976
-------------------------------------
     Etot =      -24.4367370859900390
       TS =        0.0000002945502791
-------------------------------------
        F =      -24.4367373805403183

IonicMinimize: Iter:   0  F: -24.436737380540318  |grad|_K:  0.000e+00  t[s]:    112.17
IonicMinimize: Converged (|grad|_K<1.000000e-04).

#--- Lowdin population analysis ---
# oxidation-state Rb +0.034
# magnetic-moments Rb -0.708

End date and time: Sun Feb  6 12:37:48 2022  (Duration: 0-0:01:52.22)
Done!
