
*************** JDFTx 1.6.0 (git hash 42ebbcc2) ***************

Start date and time: Sun Feb  6 12:35:56 2022
Executable jdftx with command-line: -i Alkali.in
Running on hosts (process indices):  d-17-12-4 (0-18)
Divided in process groups (process indices):  0 (0)  1 (1)  2 (2)  3 (3)  4 (4)  5 (5)  6 (6)  7 (7)  8 (8)  9 (9)  10 (10)  11 (11)  12 (12)  13 (13)  14 (14)  15 (15)  16 (16)  17 (17)  18 (18)
Resource initialization completed at t[s]:      0.00
Run totals: 19 processes, 48 threads, 0 GPUs


Input parsed successfully to the following command list (including defaults):

basis kpoint-dependent
coords-type Lattice
core-overlap-check vector
coulomb-interaction Slab 001
davidson-band-ratio 1.1
dump End None
dump-name $INPUT.$VAR
elec-cutoff 20
elec-eigen-algo Davidson
elec-ex-corr gga-PBE
elec-initial-magnetization -0.620000 yes
elec-smearing Fermi 1e-05
electronic-minimize  \
	dirUpdateScheme      FletcherReeves \
	linminMethod         DirUpdateRecommended \
	nIterations          100 \
	history              15 \
	knormThreshold       0 \
	energyDiffThreshold  1e-08 \
	nEnergyDiff          2 \
	alphaTstart          1 \
	alphaTmin            1e-10 \
	updateTestStepSize   yes \
	alphaTreduceFactor   0.1 \
	alphaTincreaseFactor 3 \
	nAlphaAdjustMax      3 \
	wolfeEnergy          0.0001 \
	wolfeGradient        0.9 \
	fdTest               no
electronic-scf  \
	nIterations	10000 \
	energyDiffThreshold	1e-08 \
	residualThreshold	1e-07 \
	mixFraction	0.5 \
	qMetric	0.8 \
	history	10 \
	nEigSteps	2 \
	eigDiffThreshold	1e-08 \
	mixedVariable	Density \
	qKerker	0.8 \
	qKappa	-1 \
	verbose	no \
	mixFractionMag	1.5
exchange-regularization WignerSeitzTruncated
fluid None
fluid-ex-corr (null) lda-PZ
fluid-gummel-loop 10 1.000000e-05
fluid-minimize  \
	dirUpdateScheme      PolakRibiere \
	linminMethod         DirUpdateRecommended \
	nIterations          100 \
	history              15 \
	knormThreshold       0 \
	energyDiffThreshold  0 \
	nEnergyDiff          2 \
	alphaTstart          1 \
	alphaTmin            1e-10 \
	updateTestStepSize   yes \
	alphaTreduceFactor   0.1 \
	alphaTincreaseFactor 3 \
	nAlphaAdjustMax      3 \
	wolfeEnergy          0.0001 \
	wolfeGradient        0.9 \
	fdTest               no
fluid-solvent H2O 55.338 ScalarEOS \
	epsBulk 78.4 \
	pMol 0.92466 \
	epsInf 1.77 \
	Pvap 1.06736e-10 \
	sigmaBulk 4.62e-05 \
	Rvdw 2.61727 \
	Res 1.42 \
	tauNuc 343133 \
	poleEl 15 7 1
forces-output-coords Positions
ion Rb   0.000000000000000   0.000000000000000   0.000000000000000 0
ion-species SG15/$ID_ONCV_PBE.upf
ion-width 0
ionic-minimize  \
	dirUpdateScheme      L-BFGS \
	linminMethod         DirUpdateRecommended \
	nIterations          0 \
	history              15 \
	knormThreshold       0.0001 \
	energyDiffThreshold  1e-06 \
	nEnergyDiff          2 \
	alphaTstart          1 \
	alphaTmin            1e-10 \
	updateTestStepSize   yes \
	alphaTreduceFactor   0.1 \
	alphaTincreaseFactor 3 \
	nAlphaAdjustMax      3 \
	wolfeEnergy          0.0001 \
	wolfeGradient        0.9 \
	fdTest               no
kpoint   0.000000000000   0.000000000000   0.000000000000  1.00000000000000
kpoint-folding 12 12 1 
latt-move-scale 1 1 1
latt-scale 3 3 1 
lattice  \
	   4.727486978767153   -2.363743489383575    0.000000000000000  \
	  -0.000000000000000    4.094123819672498    0.000000000000000  \
	   0.000000000000000    0.000000000000000   40.000000000000000 
lattice-minimize  \
	dirUpdateScheme      L-BFGS \
	linminMethod         DirUpdateRecommended \
	nIterations          0 \
	history              15 \
	knormThreshold       0 \
	energyDiffThreshold  1e-06 \
	nEnergyDiff          2 \
	alphaTstart          1 \
	alphaTmin            1e-10 \
	updateTestStepSize   yes \
	alphaTreduceFactor   0.1 \
	alphaTincreaseFactor 3 \
	nAlphaAdjustMax      3 \
	wolfeEnergy          0.0001 \
	wolfeGradient        0.9 \
	fdTest               no
lcao-params -1 1e-06 1e-05
pcm-variant GLSSA13
spintype z-spin
subspace-rotation-factor 1 yes
symmetries automatic
symmetry-threshold 0.0001



---------- Setting up symmetries ----------

Found 24 point-group symmetries of the bravais lattice
Found 24 space-group symmetries with basis
Applied RMS atom displacement 0 bohrs to make symmetries exact.

---------- Initializing the Grid ----------
R = 
[      14.1825     -7.09123            0  ]
[            0      12.2824            0  ]
[            0            0           40  ]
unit cell volume = 6967.77
G =
[   0.443025   0.255781         -0  ]
[          0   0.511561         -0  ]
[         -0         -0    0.15708  ]
Minimum fftbox size, Smin = [  60  60  164  ]
Chosen fftbox size, S = [  60  60  168  ]

---------- Exchange Correlation functional ----------
Initalized PBE GGA exchange.
Initalized PBE GGA correlation.

---------- Setting up pseudopotentials ----------
Width of ionic core gaussian charges (only for fluid interactions / plotting) set to 0

Reading pseudopotential file '/home/gridsan/aligho/DFT/build-Nov24/pseudopotentials/SG15/Rb_ONCV_PBE.upf':
  'Rb' pseudopotential, 'PBE' functional
  Generated using ONCVPSP code by D. R. Hamann
  Author: Martin Schlipf and Francois Gygi  Date: 150915.
  9 valence electrons, 3 orbitals, 6 projectors, 2308 radial grid points, with lMax = 2
  Transforming local potential to a uniform radial grid of dG=0.02 with 1489 points.
  Transforming nonlocal projectors to a uniform radial grid of dG=0.02 with 432 points.
    4S    l: 0   occupation:  2.0   eigenvalue: -1.172069
    4P    l: 1   occupation:  6.0   eigenvalue: -0.586674
    5S    l: 0   occupation:  1.0   eigenvalue: -0.082006
  Transforming atomic orbitals to a uniform radial grid of dG=0.02 with 432 points.
  Core radius for overlap checks: 2.60 bohrs.
  Reading pulay file /home/gridsan/aligho/DFT/build-Nov24/pseudopotentials/SG15/Rb_ONCV_PBE.pulay ... using dE_dnG = -1.360715e-05 computed for Ecut = 20.

Initialized 1 species with 1 total atoms.

Folded 1 k-points by 12x12x1 to 144 k-points.

---------- Setting up k-points, bands, fillings ----------
Reduced to 19 k-points under symmetry. 
Computing the number of bands and number of electrons
Calculating initial fillings.
nElectrons:   9.000000   nBands: 6   nStates: 38

----- Setting up reduced wavefunction bases (one per k-point) -----
average nbasis = 29766.104 , ideal nbasis = 29766.845

---------- Setting up coulomb interaction ----------
Initialized slab truncation along lattice direction 001

---------- Setting up 2D ewald sum ----------
Optimum gaussian width for ewald sums = 7.873530 bohr.
Real space sums over 289 unit cells with max indices [  8  8  0  ]
Reciprocal space sums over 81 terms with max indices [  4  4  0  ]

---------- Allocating electronic variables ----------
Initializing wave functions:  linear combination of atomic orbitals
Note: number of bands (6) exceeds available atomic orbitals (5)
Rb pseudo-atom occupations:   s ( 2 1 )  p ( 6 )
	FillingsUpdate:  mu: -0.086009704  nElectrons: 9.000000  magneticMoment: [ Abs: 0.62000  Tot: -0.62000 ]
LCAOMinimize: Iter:   0  F: -24.4355329327492328  |grad|_K:  1.399e-05  alpha:  1.000e+00
	FillingsUpdate:  mu: -0.086007675  nElectrons: 9.000000  magneticMoment: [ Abs: 0.62000  Tot: -0.62000 ]
LCAOMinimize: Iter:   1  F: -24.4355330653543099  |grad|_K:  1.068e-07  alpha:  9.906e-01  linmin: -1.166e-02  cgtest:  2.432e-01  t[s]:      8.71
LCAOMinimize: Encountered beta<0, resetting CG.
	FillingsUpdate:  mu: -0.086007691  nElectrons: 9.000000  magneticMoment: [ Abs: 0.62000  Tot: -0.62000 ]
LCAOMinimize: Iter:   2  F: -24.4355330653624172  |grad|_K:  2.057e-09  alpha:  1.016e+00  linmin:  1.239e-01  cgtest: -9.461e-01  t[s]:     11.06
LCAOMinimize: Converged (|Delta F|<1.000000e-06 for 2 iters).


---- Citations for features of the code used in this run ----

   Software package:
      R. Sundararaman, K. Letchworth-Weaver, K.A. Schwarz, D. Gunceler, Y. Ozhabes and T.A. Arias, 'JDFTx: software for joint density-functional theory', SoftwareX 6, 278 (2017)

   gga-PBE exchange-correlation functional:
      J.P. Perdew, K. Burke and M. Ernzerhof, Phys. Rev. Lett. 77, 3865 (1996)

   Pseudopotentials:
      M Schlipf and F Gygi, Comput. Phys. Commun. 196, 36 (2015)

   Truncated Coulomb potentials:
      R. Sundararaman and T.A. Arias, Phys. Rev. B 87, 165122 (2013)

This list may not be complete. Please suggest additional citations or
report any other bugs at https://github.com/shankar1729/jdftx/issues

Initialization completed successfully at t[s]:     11.22


-------- Electronic minimization -----------
Will mix electronic density at each iteration.
	FillingsUpdate:  mu: -0.086007691  nElectrons: 9.000000  magneticMoment: [ Abs: 0.62000  Tot: -0.62000 ]
	FillingsUpdate:  mu: -0.087183528  nElectrons: 9.000000  magneticMoment: [ Abs: 0.62000  Tot: -0.62000 ]
SCF: Cycle:  0   F: -24.437083396403278   dF: -1.550e-03   |Residual|: 3.985e-03   |deigs|: 1.735e-01  t[s]:     15.98
	FillingsUpdate:  mu: -0.087363695  nElectrons: 9.000000  magneticMoment: [ Abs: 0.62066  Tot: -0.62000 ]
SCF: Cycle:  1   F: -24.437145377026535   dF: -6.198e-05   |Residual|: 3.125e-03   |deigs|: 4.513e-03  t[s]:     19.72
	FillingsUpdate:  mu: -0.087523731  nElectrons: 9.000000  magneticMoment: [ Abs: 0.62266  Tot: -0.62000 ]
SCF: Cycle:  2   F: -24.437185922557607   dF: -4.055e-05   |Residual|: 2.297e-03   |deigs|: 2.050e-03  t[s]:     23.47
	FillingsUpdate:  mu: -0.087759916  nElectrons: 9.000000  magneticMoment: [ Abs: 0.62349  Tot: -0.62000 ]
SCF: Cycle:  3   F: -24.437213175232291   dF: -2.725e-05   |Residual|: 1.586e-03   |deigs|: 3.597e-03  t[s]:     27.40
	FillingsUpdate:  mu: -0.087810603  nElectrons: 9.000000  magneticMoment: [ Abs: 0.62167  Tot: -0.62000 ]
SCF: Cycle:  4   F: -24.437225688609107   dF: -1.251e-05   |Residual|: 8.331e-04   |deigs|: 1.638e-03  t[s]:     31.33
	FillingsUpdate:  mu: -0.087883201  nElectrons: 9.000000  magneticMoment: [ Abs: 0.62247  Tot: -0.62000 ]
SCF: Cycle:  5   F: -24.437232454347289   dF: -6.766e-06   |Residual|: 5.182e-04   |deigs|: 1.380e-03  t[s]:     35.31
	FillingsUpdate:  mu: -0.087805566  nElectrons: 9.000000  magneticMoment: [ Abs: 0.62218  Tot: -0.62000 ]
SCF: Cycle:  6   F: -24.437236846734923   dF: -4.392e-06   |Residual|: 3.742e-04   |deigs|: 1.217e-03  t[s]:     39.34
	FillingsUpdate:  mu: -0.087642705  nElectrons: 9.000000  magneticMoment: [ Abs: 0.62249  Tot: -0.62000 ]
SCF: Cycle:  7   F: -24.437237966497680   dF: -1.120e-06   |Residual|: 3.020e-04   |deigs|: 5.526e-04  t[s]:     43.43
	FillingsUpdate:  mu: -0.087394848  nElectrons: 9.000000  magneticMoment: [ Abs: 0.62321  Tot: -0.62000 ]
SCF: Cycle:  8   F: -24.437238202793218   dF: -2.363e-07   |Residual|: 2.437e-04   |deigs|: 3.235e-04  t[s]:     47.59
	FillingsUpdate:  mu: -0.087006655  nElectrons: 9.000000  magneticMoment: [ Abs: 0.62355  Tot: -0.62000 ]
SCF: Cycle:  9   F: -24.437237405934265   dF: +7.969e-07   |Residual|: 2.198e-04   |deigs|: 5.040e-04  t[s]:     51.83
	FillingsUpdate:  mu: -0.086781331  nElectrons: 9.000000  magneticMoment: [ Abs: 0.62325  Tot: -0.62000 ]
SCF: Cycle: 10   F: -24.437237512502659   dF: -1.066e-07   |Residual|: 1.945e-04   |deigs|: 4.128e-04  t[s]:     56.11
	FillingsUpdate:  mu: -0.086685230  nElectrons: 9.000000  magneticMoment: [ Abs: 0.62318  Tot: -0.62000 ]
SCF: Cycle: 11   F: -24.437239119744472   dF: -1.607e-06   |Residual|: 1.445e-04   |deigs|: 2.146e-04  t[s]:     60.40
	FillingsUpdate:  mu: -0.086487397  nElectrons: 9.000000  magneticMoment: [ Abs: 0.62361  Tot: -0.62000 ]
SCF: Cycle: 12   F: -24.437239366859597   dF: -2.471e-07   |Residual|: 1.383e-04   |deigs|: 2.906e-04  t[s]:     64.70
	FillingsUpdate:  mu: -0.086093175  nElectrons: 9.000000  magneticMoment: [ Abs: 0.62339  Tot: -0.62000 ]
SCF: Cycle: 13   F: -24.437239096981710   dF: +2.699e-07   |Residual|: 1.352e-04   |deigs|: 5.283e-04  t[s]:     68.97
	FillingsUpdate:  mu: -0.085861925  nElectrons: 9.000000  magneticMoment: [ Abs: 0.62329  Tot: -0.62000 ]
SCF: Cycle: 14   F: -24.437238856566317   dF: +2.404e-07   |Residual|: 1.247e-04   |deigs|: 3.237e-04  t[s]:     73.21
	FillingsUpdate:  mu: -0.085775343  nElectrons: 9.000000  magneticMoment: [ Abs: 0.62314  Tot: -0.62000 ]
SCF: Cycle: 15   F: -24.437239730897481   dF: -8.743e-07   |Residual|: 1.046e-04   |deigs|: 1.412e-04  t[s]:     77.54
	FillingsUpdate:  mu: -0.085575979  nElectrons: 9.000000  magneticMoment: [ Abs: 0.62245  Tot: -0.62000 ]
SCF: Cycle: 16   F: -24.437240505879032   dF: -7.750e-07   |Residual|: 7.331e-05   |deigs|: 2.354e-04  t[s]:     81.82
	FillingsUpdate:  mu: -0.085423387  nElectrons: 9.000000  magneticMoment: [ Abs: 0.62235  Tot: -0.62000 ]
SCF: Cycle: 17   F: -24.437240654606576   dF: -1.487e-07   |Residual|: 5.658e-05   |deigs|: 1.841e-04  t[s]:     86.09
	FillingsUpdate:  mu: -0.085432922  nElectrons: 9.000000  magneticMoment: [ Abs: 0.62231  Tot: -0.62000 ]
SCF: Cycle: 18   F: -24.437240782105899   dF: -1.275e-07   |Residual|: 3.864e-05   |deigs|: 1.487e-04  t[s]:     90.37
	FillingsUpdate:  mu: -0.085437275  nElectrons: 9.000000  magneticMoment: [ Abs: 0.62234  Tot: -0.62000 ]
SCF: Cycle: 19   F: -24.437240898965026   dF: -1.169e-07   |Residual|: 2.154e-05   |deigs|: 9.191e-05  t[s]:     94.64
	FillingsUpdate:  mu: -0.085412815  nElectrons: 9.000000  magneticMoment: [ Abs: 0.62233  Tot: -0.62000 ]
SCF: Cycle: 20   F: -24.437240918531373   dF: -1.957e-08   |Residual|: 1.552e-05   |deigs|: 4.474e-05  t[s]:     98.82
	FillingsUpdate:  mu: -0.085418061  nElectrons: 9.000000  magneticMoment: [ Abs: 0.62234  Tot: -0.62000 ]
SCF: Cycle: 21   F: -24.437240928715834   dF: -1.018e-08   |Residual|: 9.571e-06   |deigs|: 2.210e-05  t[s]:    103.10
	FillingsUpdate:  mu: -0.085420040  nElectrons: 9.000000  magneticMoment: [ Abs: 0.62235  Tot: -0.62000 ]
SCF: Cycle: 22   F: -24.437240939053545   dF: -1.034e-08   |Residual|: 6.335e-06   |deigs|: 1.113e-05  t[s]:    107.45
	FillingsUpdate:  mu: -0.085423421  nElectrons: 9.000000  magneticMoment: [ Abs: 0.62235  Tot: -0.62000 ]
SCF: Cycle: 23   F: -24.437240941468559   dF: -2.415e-09   |Residual|: 4.488e-06   |deigs|: 8.192e-06  t[s]:    111.60
	FillingsUpdate:  mu: -0.085425667  nElectrons: 9.000000  magneticMoment: [ Abs: 0.62235  Tot: -0.62000 ]
SCF: Cycle: 24   F: -24.437240942385859   dF: -9.173e-10   |Residual|: 3.275e-06   |deigs|: 6.524e-06  t[s]:    115.96
SCF: Converged (|Delta E|<1.000000e-08 for 2 iters).


# Ionic positions in lattice coordinates:
ion Rb   0.000000000000000   0.000000000000000   0.000000000000000 0

# Forces in Lattice coordinates:
force Rb   0.000000000000000   0.000000000000000   0.000000000000000 0

# Energy components:
   Eewald =      -12.0320174002217755
       EH =        7.5045755625187178
     Eloc =      -22.4164769899841900
      Enl =       -0.7968657775985337
   Epulay =       -0.0000000014467880
      Exc =       -3.6494740682301203
       KE =        6.9530187900553519
-------------------------------------
     Etot =      -24.4372398849073384
       TS =        0.0000010574785198
-------------------------------------
        F =      -24.4372409423858592

IonicMinimize: Iter:   0  F: -24.437240942385859  |grad|_K:  0.000e+00  t[s]:    116.22
IonicMinimize: Converged (|grad|_K<1.000000e-04).

#--- Lowdin population analysis ---
# oxidation-state Rb +0.035
# magnetic-moments Rb -0.589

End date and time: Sun Feb  6 12:37:52 2022  (Duration: 0-0:01:56.27)
Done!
