
*************** JDFTx 1.6.0 (git hash 42ebbcc2) ***************

Start date and time: Sun Feb  6 12:48:30 2022
Executable jdftx with command-line: -i Alkali.in
Running on hosts (process indices):  d-4-6-1 (0-18)
Divided in process groups (process indices):  0 (0)  1 (1)  2 (2)  3 (3)  4 (4)  5 (5)  6 (6)  7 (7)  8 (8)  9 (9)  10 (10)  11 (11)  12 (12)  13 (13)  14 (14)  15 (15)  16 (16)  17 (17)  18 (18)
Resource initialization completed at t[s]:      0.00
Run totals: 19 processes, 48 threads, 0 GPUs


Input parsed successfully to the following command list (including defaults):

basis kpoint-dependent
coords-type Lattice
core-overlap-check vector
coulomb-interaction Slab 001
davidson-band-ratio 1.1
dump End None
dump-name $INPUT.$VAR
elec-cutoff 20
elec-eigen-algo Davidson
elec-ex-corr gga-PBE
elec-initial-magnetization 0.040000 yes
elec-smearing Fermi 1e-05
electronic-minimize  \
	dirUpdateScheme      FletcherReeves \
	linminMethod         DirUpdateRecommended \
	nIterations          100 \
	history              15 \
	knormThreshold       0 \
	energyDiffThreshold  1e-08 \
	nEnergyDiff          2 \
	alphaTstart          1 \
	alphaTmin            1e-10 \
	updateTestStepSize   yes \
	alphaTreduceFactor   0.1 \
	alphaTincreaseFactor 3 \
	nAlphaAdjustMax      3 \
	wolfeEnergy          0.0001 \
	wolfeGradient        0.9 \
	fdTest               no
electronic-scf  \
	nIterations	10000 \
	energyDiffThreshold	1e-08 \
	residualThreshold	1e-07 \
	mixFraction	0.5 \
	qMetric	0.8 \
	history	10 \
	nEigSteps	2 \
	eigDiffThreshold	1e-08 \
	mixedVariable	Density \
	qKerker	0.8 \
	qKappa	-1 \
	verbose	no \
	mixFractionMag	1.5
exchange-regularization WignerSeitzTruncated
fluid None
fluid-ex-corr (null) lda-PZ
fluid-gummel-loop 10 1.000000e-05
fluid-minimize  \
	dirUpdateScheme      PolakRibiere \
	linminMethod         DirUpdateRecommended \
	nIterations          100 \
	history              15 \
	knormThreshold       0 \
	energyDiffThreshold  0 \
	nEnergyDiff          2 \
	alphaTstart          1 \
	alphaTmin            1e-10 \
	updateTestStepSize   yes \
	alphaTreduceFactor   0.1 \
	alphaTincreaseFactor 3 \
	nAlphaAdjustMax      3 \
	wolfeEnergy          0.0001 \
	wolfeGradient        0.9 \
	fdTest               no
fluid-solvent H2O 55.338 ScalarEOS \
	epsBulk 78.4 \
	pMol 0.92466 \
	epsInf 1.77 \
	Pvap 1.06736e-10 \
	sigmaBulk 4.62e-05 \
	Rvdw 2.61727 \
	Res 1.42 \
	tauNuc 343133 \
	poleEl 15 7 1
forces-output-coords Positions
ion Rb   0.000000000000000   0.000000000000000   0.000000000000000 0
ion-species SG15/$ID_ONCV_PBE.upf
ion-width 0
ionic-minimize  \
	dirUpdateScheme      L-BFGS \
	linminMethod         DirUpdateRecommended \
	nIterations          0 \
	history              15 \
	knormThreshold       0.0001 \
	energyDiffThreshold  1e-06 \
	nEnergyDiff          2 \
	alphaTstart          1 \
	alphaTmin            1e-10 \
	updateTestStepSize   yes \
	alphaTreduceFactor   0.1 \
	alphaTincreaseFactor 3 \
	nAlphaAdjustMax      3 \
	wolfeEnergy          0.0001 \
	wolfeGradient        0.9 \
	fdTest               no
kpoint   0.000000000000   0.000000000000   0.000000000000  1.00000000000000
kpoint-folding 12 12 1 
latt-move-scale 1 1 1
latt-scale 3 3 1 
lattice  \
	   4.727486978767153   -2.363743489383575    0.000000000000000  \
	  -0.000000000000000    4.094123819672498    0.000000000000000  \
	   0.000000000000000    0.000000000000000   40.000000000000000 
lattice-minimize  \
	dirUpdateScheme      L-BFGS \
	linminMethod         DirUpdateRecommended \
	nIterations          0 \
	history              15 \
	knormThreshold       0 \
	energyDiffThreshold  1e-06 \
	nEnergyDiff          2 \
	alphaTstart          1 \
	alphaTmin            1e-10 \
	updateTestStepSize   yes \
	alphaTreduceFactor   0.1 \
	alphaTincreaseFactor 3 \
	nAlphaAdjustMax      3 \
	wolfeEnergy          0.0001 \
	wolfeGradient        0.9 \
	fdTest               no
lcao-params -1 1e-06 1e-05
pcm-variant GLSSA13
spintype z-spin
subspace-rotation-factor 1 yes
symmetries automatic
symmetry-threshold 0.0001



---------- Setting up symmetries ----------

Found 24 point-group symmetries of the bravais lattice
Found 24 space-group symmetries with basis
Applied RMS atom displacement 0 bohrs to make symmetries exact.

---------- Initializing the Grid ----------
R = 
[      14.1825     -7.09123            0  ]
[            0      12.2824            0  ]
[            0            0           40  ]
unit cell volume = 6967.77
G =
[   0.443025   0.255781         -0  ]
[          0   0.511561         -0  ]
[         -0         -0    0.15708  ]
Minimum fftbox size, Smin = [  60  60  164  ]
Chosen fftbox size, S = [  60  60  168  ]

---------- Exchange Correlation functional ----------
Initalized PBE GGA exchange.
Initalized PBE GGA correlation.

---------- Setting up pseudopotentials ----------
Width of ionic core gaussian charges (only for fluid interactions / plotting) set to 0

Reading pseudopotential file '/home/gridsan/aligho/DFT/build-Nov24/pseudopotentials/SG15/Rb_ONCV_PBE.upf':
  'Rb' pseudopotential, 'PBE' functional
  Generated using ONCVPSP code by D. R. Hamann
  Author: Martin Schlipf and Francois Gygi  Date: 150915.
  9 valence electrons, 3 orbitals, 6 projectors, 2308 radial grid points, with lMax = 2
  Transforming local potential to a uniform radial grid of dG=0.02 with 1489 points.
  Transforming nonlocal projectors to a uniform radial grid of dG=0.02 with 432 points.
    4S    l: 0   occupation:  2.0   eigenvalue: -1.172069
    4P    l: 1   occupation:  6.0   eigenvalue: -0.586674
    5S    l: 0   occupation:  1.0   eigenvalue: -0.082006
  Transforming atomic orbitals to a uniform radial grid of dG=0.02 with 432 points.
  Core radius for overlap checks: 2.60 bohrs.
  Reading pulay file /home/gridsan/aligho/DFT/build-Nov24/pseudopotentials/SG15/Rb_ONCV_PBE.pulay ... using dE_dnG = -1.360715e-05 computed for Ecut = 20.

Initialized 1 species with 1 total atoms.

Folded 1 k-points by 12x12x1 to 144 k-points.

---------- Setting up k-points, bands, fillings ----------
Reduced to 19 k-points under symmetry. 
Computing the number of bands and number of electrons
Calculating initial fillings.
nElectrons:   9.000000   nBands: 6   nStates: 38

----- Setting up reduced wavefunction bases (one per k-point) -----
average nbasis = 29766.104 , ideal nbasis = 29766.845

---------- Setting up coulomb interaction ----------
Initialized slab truncation along lattice direction 001

---------- Setting up 2D ewald sum ----------
Optimum gaussian width for ewald sums = 7.873530 bohr.
Real space sums over 289 unit cells with max indices [  8  8  0  ]
Reciprocal space sums over 81 terms with max indices [  4  4  0  ]

---------- Allocating electronic variables ----------
Initializing wave functions:  linear combination of atomic orbitals
Note: number of bands (6) exceeds available atomic orbitals (5)
Rb pseudo-atom occupations:   s ( 2 1 )  p ( 6 )
	FillingsUpdate:  mu: -0.083332772  nElectrons: 9.000000  magneticMoment: [ Abs: 0.04000  Tot: +0.04000 ]
LCAOMinimize: Iter:   0  F: -24.4368501264330504  |grad|_K:  2.202e-05  alpha:  1.000e+00
	FillingsUpdate:  mu: -0.083327942  nElectrons: 9.000000  magneticMoment: [ Abs: 0.04000  Tot: +0.04000 ]
LCAOMinimize: Iter:   1  F: -24.4368504528663166  |grad|_K:  1.756e-07  alpha:  9.846e-01  linmin: -2.026e-02  cgtest:  5.170e-01  t[s]:      8.97
LCAOMinimize: Encountered beta<0, resetting CG.
	FillingsUpdate:  mu: -0.083327937  nElectrons: 9.000000  magneticMoment: [ Abs: 0.04000  Tot: +0.04000 ]
LCAOMinimize: Iter:   2  F: -24.4368504528874553  |grad|_K:  1.255e-09  alpha:  9.936e-01  linmin: -4.070e-02  cgtest:  9.954e-01  t[s]:     11.37
LCAOMinimize: Encountered beta<0, resetting CG.
LCAOMinimize: Converged (|Delta F|<1.000000e-06 for 2 iters).


---- Citations for features of the code used in this run ----

   Software package:
      R. Sundararaman, K. Letchworth-Weaver, K.A. Schwarz, D. Gunceler, Y. Ozhabes and T.A. Arias, 'JDFTx: software for joint density-functional theory', SoftwareX 6, 278 (2017)

   gga-PBE exchange-correlation functional:
      J.P. Perdew, K. Burke and M. Ernzerhof, Phys. Rev. Lett. 77, 3865 (1996)

   Pseudopotentials:
      M Schlipf and F Gygi, Comput. Phys. Commun. 196, 36 (2015)

   Truncated Coulomb potentials:
      R. Sundararaman and T.A. Arias, Phys. Rev. B 87, 165122 (2013)

This list may not be complete. Please suggest additional citations or
report any other bugs at https://github.com/shankar1729/jdftx/issues

Initialization completed successfully at t[s]:     11.53


-------- Electronic minimization -----------
Will mix electronic density at each iteration.
	FillingsUpdate:  mu: -0.083327937  nElectrons: 9.000000  magneticMoment: [ Abs: 0.04000  Tot: +0.04000 ]
	FillingsUpdate:  mu: -0.085774510  nElectrons: 9.000000  magneticMoment: [ Abs: 0.04000  Tot: +0.04000 ]
SCF: Cycle:  0   F: -24.438625111116036   dF: -1.775e-03   |Residual|: 3.708e-03   |deigs|: 1.737e-01  t[s]:     16.40
	FillingsUpdate:  mu: -0.086013539  nElectrons: 9.000000  magneticMoment: [ Abs: 0.04001  Tot: +0.04000 ]
SCF: Cycle:  1   F: -24.438659036158217   dF: -3.393e-05   |Residual|: 3.276e-03   |deigs|: 4.472e-03  t[s]:     20.16
	FillingsUpdate:  mu: -0.086795573  nElectrons: 9.000000  magneticMoment: [ Abs: 0.04111  Tot: +0.04000 ]
SCF: Cycle:  2   F: -24.438694922718888   dF: -3.589e-05   |Residual|: 1.316e-03   |deigs|: 3.373e-03  t[s]:     24.07
	FillingsUpdate:  mu: -0.086669228  nElectrons: 9.000000  magneticMoment: [ Abs: 0.04023  Tot: +0.04000 ]
SCF: Cycle:  3   F: -24.438703076899984   dF: -8.154e-06   |Residual|: 8.741e-04   |deigs|: 2.130e-03  t[s]:     27.92
	FillingsUpdate:  mu: -0.086618923  nElectrons: 9.000000  magneticMoment: [ Abs: 0.04005  Tot: +0.04000 ]
SCF: Cycle:  4   F: -24.438706936701486   dF: -3.860e-06   |Residual|: 5.307e-04   |deigs|: 2.554e-03  t[s]:     31.92
	FillingsUpdate:  mu: -0.086508702  nElectrons: 9.000000  magneticMoment: [ Abs: 0.04018  Tot: +0.04000 ]
SCF: Cycle:  5   F: -24.438709448654333   dF: -2.512e-06   |Residual|: 4.370e-04   |deigs|: 1.211e-03  t[s]:     35.92
	FillingsUpdate:  mu: -0.086235315  nElectrons: 9.000000  magneticMoment: [ Abs: 0.04004  Tot: +0.04000 ]
SCF: Cycle:  6   F: -24.438710350486947   dF: -9.018e-07   |Residual|: 3.239e-04   |deigs|: 1.064e-03  t[s]:     40.02
	FillingsUpdate:  mu: -0.085913375  nElectrons: 9.000000  magneticMoment: [ Abs: 0.04033  Tot: +0.04000 ]
SCF: Cycle:  7   F: -24.438710348070835   dF: +2.416e-09   |Residual|: 2.556e-04   |deigs|: 4.492e-04  t[s]:     44.11
	FillingsUpdate:  mu: -0.085681538  nElectrons: 9.000000  magneticMoment: [ Abs: 0.04029  Tot: +0.04000 ]
SCF: Cycle:  8   F: -24.438710096870526   dF: +2.512e-07   |Residual|: 2.343e-04   |deigs|: 2.717e-04  t[s]:     48.33
	FillingsUpdate:  mu: -0.085431967  nElectrons: 9.000000  magneticMoment: [ Abs: 0.04020  Tot: +0.04000 ]
SCF: Cycle:  9   F: -24.438710405539585   dF: -3.087e-07   |Residual|: 1.958e-04   |deigs|: 5.724e-04  t[s]:     52.57
	FillingsUpdate:  mu: -0.085201688  nElectrons: 9.000000  magneticMoment: [ Abs: 0.04052  Tot: +0.04000 ]
SCF: Cycle: 10   F: -24.438710576997824   dF: -1.715e-07   |Residual|: 1.636e-04   |deigs|: 2.950e-04  t[s]:     56.88
	FillingsUpdate:  mu: -0.084942232  nElectrons: 9.000000  magneticMoment: [ Abs: 0.04029  Tot: +0.04000 ]
SCF: Cycle: 11   F: -24.438710343722537   dF: +2.333e-07   |Residual|: 1.445e-04   |deigs|: 3.133e-04  t[s]:     61.24
	FillingsUpdate:  mu: -0.084652497  nElectrons: 9.000000  magneticMoment: [ Abs: 0.04033  Tot: +0.04000 ]
SCF: Cycle: 12   F: -24.438709755729459   dF: +5.880e-07   |Residual|: 1.356e-04   |deigs|: 2.830e-04  t[s]:     65.48
	FillingsUpdate:  mu: -0.084405445  nElectrons: 9.000000  magneticMoment: [ Abs: 0.04019  Tot: +0.04000 ]
SCF: Cycle: 13   F: -24.438710228291626   dF: -4.726e-07   |Residual|: 1.318e-04   |deigs|: 3.885e-04  t[s]:     69.78
	FillingsUpdate:  mu: -0.084255081  nElectrons: 9.000000  magneticMoment: [ Abs: 0.04023  Tot: +0.04000 ]
SCF: Cycle: 14   F: -24.438711142905440   dF: -9.146e-07   |Residual|: 1.049e-04   |deigs|: 4.468e-04  t[s]:     74.12
	FillingsUpdate:  mu: -0.084095629  nElectrons: 9.000000  magneticMoment: [ Abs: 0.04033  Tot: +0.04000 ]
SCF: Cycle: 15   F: -24.438711710620698   dF: -5.677e-07   |Residual|: 8.251e-05   |deigs|: 2.045e-04  t[s]:     78.39
	FillingsUpdate:  mu: -0.083989650  nElectrons: 9.000000  magneticMoment: [ Abs: 0.04017  Tot: +0.04000 ]
SCF: Cycle: 16   F: -24.438711869379485   dF: -1.588e-07   |Residual|: 5.511e-05   |deigs|: 1.351e-04  t[s]:     82.60
	FillingsUpdate:  mu: -0.083980615  nElectrons: 9.000000  magneticMoment: [ Abs: 0.04012  Tot: +0.04000 ]
SCF: Cycle: 17   F: -24.438711997862299   dF: -1.285e-07   |Residual|: 3.464e-05   |deigs|: 4.884e-05  t[s]:     86.93
	FillingsUpdate:  mu: -0.083992640  nElectrons: 9.000000  magneticMoment: [ Abs: 0.04015  Tot: +0.04000 ]
SCF: Cycle: 18   F: -24.438712047632237   dF: -4.977e-08   |Residual|: 2.032e-05   |deigs|: 3.132e-05  t[s]:     91.20
	FillingsUpdate:  mu: -0.083994544  nElectrons: 9.000000  magneticMoment: [ Abs: 0.04013  Tot: +0.04000 ]
SCF: Cycle: 19   F: -24.438712063403148   dF: -1.577e-08   |Residual|: 1.265e-05   |deigs|: 1.372e-05  t[s]:     95.44
	FillingsUpdate:  mu: -0.083988548  nElectrons: 9.000000  magneticMoment: [ Abs: 0.04013  Tot: +0.04000 ]
SCF: Cycle: 20   F: -24.438712070447046   dF: -7.044e-09   |Residual|: 8.359e-06   |deigs|: 1.151e-05  t[s]:     99.73
	FillingsUpdate:  mu: -0.083988821  nElectrons: 9.000000  magneticMoment: [ Abs: 0.04013  Tot: +0.04000 ]
SCF: Cycle: 21   F: -24.438712075085522   dF: -4.638e-09   |Residual|: 5.793e-06   |deigs|: 8.836e-06  t[s]:    104.09
SCF: Converged (|Delta E|<1.000000e-08 for 2 iters).


# Ionic positions in lattice coordinates:
ion Rb   0.000000000000000   0.000000000000000   0.000000000000000 0

# Forces in Lattice coordinates:
force Rb   0.000000000000000   0.000000000000000   0.000000000000000 0

# Energy components:
   Eewald =      -12.0320174002217755
       EH =        7.4853010395782897
     Eloc =      -22.3950172092287865
      Enl =       -0.7979529628129001
   Epulay =       -0.0000000014467880
      Exc =       -3.6464880522333538
       KE =        6.9474633974943165
-------------------------------------
     Etot =      -24.4387111888710002
       TS =        0.0000008862145228
-------------------------------------
        F =      -24.4387120750855225

IonicMinimize: Iter:   0  F: -24.438712075085522  |grad|_K:  0.000e+00  t[s]:    104.35
IonicMinimize: Converged (|grad|_K<1.000000e-04).

#--- Lowdin population analysis ---
# oxidation-state Rb +0.030
# magnetic-moments Rb +0.037

End date and time: Sun Feb  6 12:50:15 2022  (Duration: 0-0:01:44.40)
Done!
