
*************** JDFTx 1.6.0 (git hash 42ebbcc2) ***************

Start date and time: Sun Feb  6 12:41:24 2022
Executable jdftx with command-line: -i Alkali.in
Running on hosts (process indices):  d-3-4-3 (0-18)
Divided in process groups (process indices):  0 (0)  1 (1)  2 (2)  3 (3)  4 (4)  5 (5)  6 (6)  7 (7)  8 (8)  9 (9)  10 (10)  11 (11)  12 (12)  13 (13)  14 (14)  15 (15)  16 (16)  17 (17)  18 (18)
Resource initialization completed at t[s]:      0.00
Run totals: 19 processes, 48 threads, 0 GPUs


Input parsed successfully to the following command list (including defaults):

basis kpoint-dependent
coords-type Lattice
core-overlap-check vector
coulomb-interaction Slab 001
davidson-band-ratio 1.1
dump End None
dump-name $INPUT.$VAR
elec-cutoff 20
elec-eigen-algo Davidson
elec-ex-corr gga-PBE
elec-initial-magnetization -0.540000 yes
elec-smearing Fermi 1e-05
electronic-minimize  \
	dirUpdateScheme      FletcherReeves \
	linminMethod         DirUpdateRecommended \
	nIterations          100 \
	history              15 \
	knormThreshold       0 \
	energyDiffThreshold  1e-08 \
	nEnergyDiff          2 \
	alphaTstart          1 \
	alphaTmin            1e-10 \
	updateTestStepSize   yes \
	alphaTreduceFactor   0.1 \
	alphaTincreaseFactor 3 \
	nAlphaAdjustMax      3 \
	wolfeEnergy          0.0001 \
	wolfeGradient        0.9 \
	fdTest               no
electronic-scf  \
	nIterations	10000 \
	energyDiffThreshold	1e-08 \
	residualThreshold	1e-07 \
	mixFraction	0.5 \
	qMetric	0.8 \
	history	10 \
	nEigSteps	2 \
	eigDiffThreshold	1e-08 \
	mixedVariable	Density \
	qKerker	0.8 \
	qKappa	-1 \
	verbose	no \
	mixFractionMag	1.5
exchange-regularization WignerSeitzTruncated
fluid None
fluid-ex-corr (null) lda-PZ
fluid-gummel-loop 10 1.000000e-05
fluid-minimize  \
	dirUpdateScheme      PolakRibiere \
	linminMethod         DirUpdateRecommended \
	nIterations          100 \
	history              15 \
	knormThreshold       0 \
	energyDiffThreshold  0 \
	nEnergyDiff          2 \
	alphaTstart          1 \
	alphaTmin            1e-10 \
	updateTestStepSize   yes \
	alphaTreduceFactor   0.1 \
	alphaTincreaseFactor 3 \
	nAlphaAdjustMax      3 \
	wolfeEnergy          0.0001 \
	wolfeGradient        0.9 \
	fdTest               no
fluid-solvent H2O 55.338 ScalarEOS \
	epsBulk 78.4 \
	pMol 0.92466 \
	epsInf 1.77 \
	Pvap 1.06736e-10 \
	sigmaBulk 4.62e-05 \
	Rvdw 2.61727 \
	Res 1.42 \
	tauNuc 343133 \
	poleEl 15 7 1
forces-output-coords Positions
ion Rb   0.000000000000000   0.000000000000000   0.000000000000000 0
ion-species SG15/$ID_ONCV_PBE.upf
ion-width 0
ionic-minimize  \
	dirUpdateScheme      L-BFGS \
	linminMethod         DirUpdateRecommended \
	nIterations          0 \
	history              15 \
	knormThreshold       0.0001 \
	energyDiffThreshold  1e-06 \
	nEnergyDiff          2 \
	alphaTstart          1 \
	alphaTmin            1e-10 \
	updateTestStepSize   yes \
	alphaTreduceFactor   0.1 \
	alphaTincreaseFactor 3 \
	nAlphaAdjustMax      3 \
	wolfeEnergy          0.0001 \
	wolfeGradient        0.9 \
	fdTest               no
kpoint   0.000000000000   0.000000000000   0.000000000000  1.00000000000000
kpoint-folding 12 12 1 
latt-move-scale 1 1 1
latt-scale 3 3 1 
lattice  \
	   4.727486978767153   -2.363743489383575    0.000000000000000  \
	  -0.000000000000000    4.094123819672498    0.000000000000000  \
	   0.000000000000000    0.000000000000000   40.000000000000000 
lattice-minimize  \
	dirUpdateScheme      L-BFGS \
	linminMethod         DirUpdateRecommended \
	nIterations          0 \
	history              15 \
	knormThreshold       0 \
	energyDiffThreshold  1e-06 \
	nEnergyDiff          2 \
	alphaTstart          1 \
	alphaTmin            1e-10 \
	updateTestStepSize   yes \
	alphaTreduceFactor   0.1 \
	alphaTincreaseFactor 3 \
	nAlphaAdjustMax      3 \
	wolfeEnergy          0.0001 \
	wolfeGradient        0.9 \
	fdTest               no
lcao-params -1 1e-06 1e-05
pcm-variant GLSSA13
spintype z-spin
subspace-rotation-factor 1 yes
symmetries automatic
symmetry-threshold 0.0001



---------- Setting up symmetries ----------

Found 24 point-group symmetries of the bravais lattice
Found 24 space-group symmetries with basis
Applied RMS atom displacement 0 bohrs to make symmetries exact.

---------- Initializing the Grid ----------
R = 
[      14.1825     -7.09123            0  ]
[            0      12.2824            0  ]
[            0            0           40  ]
unit cell volume = 6967.77
G =
[   0.443025   0.255781         -0  ]
[          0   0.511561         -0  ]
[         -0         -0    0.15708  ]
Minimum fftbox size, Smin = [  60  60  164  ]
Chosen fftbox size, S = [  60  60  168  ]

---------- Exchange Correlation functional ----------
Initalized PBE GGA exchange.
Initalized PBE GGA correlation.

---------- Setting up pseudopotentials ----------
Width of ionic core gaussian charges (only for fluid interactions / plotting) set to 0

Reading pseudopotential file '/home/gridsan/aligho/DFT/build-Nov24/pseudopotentials/SG15/Rb_ONCV_PBE.upf':
  'Rb' pseudopotential, 'PBE' functional
  Generated using ONCVPSP code by D. R. Hamann
  Author: Martin Schlipf and Francois Gygi  Date: 150915.
  9 valence electrons, 3 orbitals, 6 projectors, 2308 radial grid points, with lMax = 2
  Transforming local potential to a uniform radial grid of dG=0.02 with 1489 points.
  Transforming nonlocal projectors to a uniform radial grid of dG=0.02 with 432 points.
    4S    l: 0   occupation:  2.0   eigenvalue: -1.172069
    4P    l: 1   occupation:  6.0   eigenvalue: -0.586674
    5S    l: 0   occupation:  1.0   eigenvalue: -0.082006
  Transforming atomic orbitals to a uniform radial grid of dG=0.02 with 432 points.
  Core radius for overlap checks: 2.60 bohrs.
  Reading pulay file /home/gridsan/aligho/DFT/build-Nov24/pseudopotentials/SG15/Rb_ONCV_PBE.pulay ... using dE_dnG = -1.360715e-05 computed for Ecut = 20.

Initialized 1 species with 1 total atoms.

Folded 1 k-points by 12x12x1 to 144 k-points.

---------- Setting up k-points, bands, fillings ----------
Reduced to 19 k-points under symmetry. 
Computing the number of bands and number of electrons
Calculating initial fillings.
nElectrons:   9.000000   nBands: 6   nStates: 38

----- Setting up reduced wavefunction bases (one per k-point) -----
average nbasis = 29766.104 , ideal nbasis = 29766.845

---------- Setting up coulomb interaction ----------
Initialized slab truncation along lattice direction 001

---------- Setting up 2D ewald sum ----------
Optimum gaussian width for ewald sums = 7.873530 bohr.
Real space sums over 289 unit cells with max indices [  8  8  0  ]
Reciprocal space sums over 81 terms with max indices [  4  4  0  ]

---------- Allocating electronic variables ----------
Initializing wave functions:  linear combination of atomic orbitals
Note: number of bands (6) exceeds available atomic orbitals (5)
Rb pseudo-atom occupations:   s ( 2 1 )  p ( 6 )
	FillingsUpdate:  mu: -0.085216171  nElectrons: 9.000000  magneticMoment: [ Abs: 0.54000  Tot: -0.54000 ]
LCAOMinimize: Iter:   0  F: -24.4358345411432083  |grad|_K:  1.575e-05  alpha:  1.000e+00
	FillingsUpdate:  mu: -0.085213415  nElectrons: 9.000000  magneticMoment: [ Abs: 0.54000  Tot: -0.54000 ]
LCAOMinimize: Iter:   1  F: -24.4358347089787706  |grad|_K:  1.213e-07  alpha:  9.889e-01  linmin: -1.392e-02  cgtest:  3.101e-01  t[s]:      8.82
LCAOMinimize: Encountered beta<0, resetting CG.
	FillingsUpdate:  mu: -0.085213427  nElectrons: 9.000000  magneticMoment: [ Abs: 0.54000  Tot: -0.54000 ]
LCAOMinimize: Iter:   2  F: -24.4358347089889705  |grad|_K:  5.153e-09  alpha:  1.042e+00  linmin:  8.509e-02  cgtest: -9.929e-01  t[s]:     11.23
LCAOMinimize: Converged (|Delta F|<1.000000e-06 for 2 iters).


---- Citations for features of the code used in this run ----

   Software package:
      R. Sundararaman, K. Letchworth-Weaver, K.A. Schwarz, D. Gunceler, Y. Ozhabes and T.A. Arias, 'JDFTx: software for joint density-functional theory', SoftwareX 6, 278 (2017)

   gga-PBE exchange-correlation functional:
      J.P. Perdew, K. Burke and M. Ernzerhof, Phys. Rev. Lett. 77, 3865 (1996)

   Pseudopotentials:
      M Schlipf and F Gygi, Comput. Phys. Commun. 196, 36 (2015)

   Truncated Coulomb potentials:
      R. Sundararaman and T.A. Arias, Phys. Rev. B 87, 165122 (2013)

This list may not be complete. Please suggest additional citations or
report any other bugs at https://github.com/shankar1729/jdftx/issues

Initialization completed successfully at t[s]:     11.39


-------- Electronic minimization -----------
Will mix electronic density at each iteration.
	FillingsUpdate:  mu: -0.085213427  nElectrons: 9.000000  magneticMoment: [ Abs: 0.54000  Tot: -0.54000 ]
	FillingsUpdate:  mu: -0.086541092  nElectrons: 9.000000  magneticMoment: [ Abs: 0.54000  Tot: -0.54000 ]
SCF: Cycle:  0   F: -24.437440645259159   dF: -1.606e-03   |Residual|: 4.019e-03   |deigs|: 1.736e-01  t[s]:     16.10
	FillingsUpdate:  mu: -0.086709281  nElectrons: 9.000000  magneticMoment: [ Abs: 0.54043  Tot: -0.54000 ]
SCF: Cycle:  1   F: -24.437498337180099   dF: -5.769e-05   |Residual|: 3.206e-03   |deigs|: 4.559e-03  t[s]:     19.81
	FillingsUpdate:  mu: -0.086870252  nElectrons: 9.000000  magneticMoment: [ Abs: 0.54240  Tot: -0.54000 ]
SCF: Cycle:  2   F: -24.437537388507536   dF: -3.905e-05   |Residual|: 2.292e-03   |deigs|: 2.100e-03  t[s]:     23.62
	FillingsUpdate:  mu: -0.087079296  nElectrons: 9.000000  magneticMoment: [ Abs: 0.54309  Tot: -0.54000 ]
SCF: Cycle:  3   F: -24.437560698922113   dF: -2.331e-05   |Residual|: 1.520e-03   |deigs|: 3.035e-03  t[s]:     27.43
	FillingsUpdate:  mu: -0.087122320  nElectrons: 9.000000  magneticMoment: [ Abs: 0.54124  Tot: -0.54000 ]
SCF: Cycle:  4   F: -24.437571098005190   dF: -1.040e-05   |Residual|: 7.944e-04   |deigs|: 2.235e-03  t[s]:     31.35
	FillingsUpdate:  mu: -0.087181365  nElectrons: 9.000000  magneticMoment: [ Abs: 0.54202  Tot: -0.54000 ]
SCF: Cycle:  5   F: -24.437577758971749   dF: -6.661e-06   |Residual|: 5.122e-04   |deigs|: 1.339e-03  t[s]:     35.28
	FillingsUpdate:  mu: -0.087090619  nElectrons: 9.000000  magneticMoment: [ Abs: 0.54181  Tot: -0.54000 ]
SCF: Cycle:  6   F: -24.437581745702211   dF: -3.987e-06   |Residual|: 3.687e-04   |deigs|: 1.415e-03  t[s]:     39.26
	FillingsUpdate:  mu: -0.086925274  nElectrons: 9.000000  magneticMoment: [ Abs: 0.54207  Tot: -0.54000 ]
SCF: Cycle:  7   F: -24.437582690845332   dF: -9.451e-07   |Residual|: 3.009e-04   |deigs|: 6.277e-04  t[s]:     43.29
	FillingsUpdate:  mu: -0.086678004  nElectrons: 9.000000  magneticMoment: [ Abs: 0.54287  Tot: -0.54000 ]
SCF: Cycle:  8   F: -24.437582889106572   dF: -1.983e-07   |Residual|: 2.419e-04   |deigs|: 3.448e-04  t[s]:     47.49
	FillingsUpdate:  mu: -0.086301342  nElectrons: 9.000000  magneticMoment: [ Abs: 0.54317  Tot: -0.54000 ]
SCF: Cycle:  9   F: -24.437581982268533   dF: +9.068e-07   |Residual|: 2.136e-04   |deigs|: 4.795e-04  t[s]:     51.70
	FillingsUpdate:  mu: -0.086071538  nElectrons: 9.000000  magneticMoment: [ Abs: 0.54292  Tot: -0.54000 ]
SCF: Cycle: 10   F: -24.437581828969488   dF: +1.533e-07   |Residual|: 1.923e-04   |deigs|: 4.218e-04  t[s]:     55.92
	FillingsUpdate:  mu: -0.085968791  nElectrons: 9.000000  magneticMoment: [ Abs: 0.54281  Tot: -0.54000 ]
SCF: Cycle: 11   F: -24.437583572526208   dF: -1.744e-06   |Residual|: 1.437e-04   |deigs|: 3.018e-04  t[s]:     60.16
	FillingsUpdate:  mu: -0.085758006  nElectrons: 9.000000  magneticMoment: [ Abs: 0.54317  Tot: -0.54000 ]
SCF: Cycle: 12   F: -24.437583831151244   dF: -2.586e-07   |Residual|: 1.372e-04   |deigs|: 4.783e-04  t[s]:     64.38
	FillingsUpdate:  mu: -0.085336670  nElectrons: 9.000000  magneticMoment: [ Abs: 0.54286  Tot: -0.54000 ]
SCF: Cycle: 13   F: -24.437583441805387   dF: +3.893e-07   |Residual|: 1.355e-04   |deigs|: 5.207e-04  t[s]:     68.66
	FillingsUpdate:  mu: -0.085129680  nElectrons: 9.000000  magneticMoment: [ Abs: 0.54265  Tot: -0.54000 ]
SCF: Cycle: 14   F: -24.437583266456997   dF: +1.753e-07   |Residual|: 1.252e-04   |deigs|: 2.500e-04  t[s]:     72.99
	FillingsUpdate:  mu: -0.085041997  nElectrons: 9.000000  magneticMoment: [ Abs: 0.54269  Tot: -0.54000 ]
SCF: Cycle: 15   F: -24.437584107638102   dF: -8.412e-07   |Residual|: 1.059e-04   |deigs|: 1.306e-04  t[s]:     77.24
	FillingsUpdate:  mu: -0.084842259  nElectrons: 9.000000  magneticMoment: [ Abs: 0.54206  Tot: -0.54000 ]
SCF: Cycle: 16   F: -24.437584880196923   dF: -7.726e-07   |Residual|: 7.337e-05   |deigs|: 2.326e-04  t[s]:     81.56
	FillingsUpdate:  mu: -0.084699536  nElectrons: 9.000000  magneticMoment: [ Abs: 0.54197  Tot: -0.54000 ]
SCF: Cycle: 17   F: -24.437585081444439   dF: -2.012e-07   |Residual|: 5.356e-05   |deigs|: 1.579e-04  t[s]:     85.68
	FillingsUpdate:  mu: -0.084691790  nElectrons: 9.000000  magneticMoment: [ Abs: 0.54192  Tot: -0.54000 ]
SCF: Cycle: 18   F: -24.437585201783996   dF: -1.203e-07   |Residual|: 3.669e-05   |deigs|: 3.311e-05  t[s]:     89.92
	FillingsUpdate:  mu: -0.084703122  nElectrons: 9.000000  magneticMoment: [ Abs: 0.54195  Tot: -0.54000 ]
SCF: Cycle: 19   F: -24.437585289619697   dF: -8.784e-08   |Residual|: 1.973e-05   |deigs|: 2.815e-05  t[s]:     94.14
	FillingsUpdate:  mu: -0.084687421  nElectrons: 9.000000  magneticMoment: [ Abs: 0.54194  Tot: -0.54000 ]
SCF: Cycle: 20   F: -24.437585306875082   dF: -1.726e-08   |Residual|: 1.446e-05   |deigs|: 1.756e-05  t[s]:     98.39
	FillingsUpdate:  mu: -0.084694630  nElectrons: 9.000000  magneticMoment: [ Abs: 0.54193  Tot: -0.54000 ]
SCF: Cycle: 21   F: -24.437585314041272   dF: -7.166e-09   |Residual|: 9.584e-06   |deigs|: 1.105e-05  t[s]:    102.59
	FillingsUpdate:  mu: -0.084695953  nElectrons: 9.000000  magneticMoment: [ Abs: 0.54195  Tot: -0.54000 ]
SCF: Cycle: 22   F: -24.437585323686292   dF: -9.645e-09   |Residual|: 5.439e-06   |deigs|: 5.161e-06  t[s]:    106.81
SCF: Converged (|Delta E|<1.000000e-08 for 2 iters).


# Ionic positions in lattice coordinates:
ion Rb   0.000000000000000   0.000000000000000   0.000000000000000 0

# Forces in Lattice coordinates:
force Rb   0.000000000000000   0.000000000000000   0.000000000000000 0

# Energy components:
   Eewald =      -12.0320174002217755
       EH =        7.4995541636309371
     Eloc =      -22.4108802375383860
      Enl =       -0.7971668560018841
   Epulay =       -0.0000000014467880
      Exc =       -3.6487094112036478
       KE =        6.9516350514650362
-------------------------------------
     Etot =      -24.4375846913165091
       TS =        0.0000006323697840
-------------------------------------
        F =      -24.4375853236862923

IonicMinimize: Iter:   0  F: -24.437585323686292  |grad|_K:  0.000e+00  t[s]:    107.06
IonicMinimize: Converged (|grad|_K<1.000000e-04).

#--- Lowdin population analysis ---
# oxidation-state Rb +0.035
# magnetic-moments Rb -0.511

End date and time: Sun Feb  6 12:43:11 2022  (Duration: 0-0:01:47.11)
Done!
