
*************** JDFTx 1.6.0 (git hash 42ebbcc2) ***************

Start date and time: Sun Feb  6 13:00:54 2022
Executable jdftx with command-line: -i Alkali.in
Running on hosts (process indices):  d-16-8-3 (0-18)
Divided in process groups (process indices):  0 (0)  1 (1)  2 (2)  3 (3)  4 (4)  5 (5)  6 (6)  7 (7)  8 (8)  9 (9)  10 (10)  11 (11)  12 (12)  13 (13)  14 (14)  15 (15)  16 (16)  17 (17)  18 (18)
Resource initialization completed at t[s]:      0.00
Run totals: 19 processes, 48 threads, 0 GPUs


Input parsed successfully to the following command list (including defaults):

basis kpoint-dependent
coords-type Lattice
core-overlap-check vector
coulomb-interaction Slab 001
davidson-band-ratio 1.1
dump End None
dump-name $INPUT.$VAR
elec-cutoff 20
elec-eigen-algo Davidson
elec-ex-corr gga-PBE
elec-initial-magnetization 1.000000 yes
elec-smearing Fermi 1e-05
electronic-minimize  \
	dirUpdateScheme      FletcherReeves \
	linminMethod         DirUpdateRecommended \
	nIterations          100 \
	history              15 \
	knormThreshold       0 \
	energyDiffThreshold  1e-08 \
	nEnergyDiff          2 \
	alphaTstart          1 \
	alphaTmin            1e-10 \
	updateTestStepSize   yes \
	alphaTreduceFactor   0.1 \
	alphaTincreaseFactor 3 \
	nAlphaAdjustMax      3 \
	wolfeEnergy          0.0001 \
	wolfeGradient        0.9 \
	fdTest               no
electronic-scf  \
	nIterations	10000 \
	energyDiffThreshold	1e-08 \
	residualThreshold	1e-07 \
	mixFraction	0.5 \
	qMetric	0.8 \
	history	10 \
	nEigSteps	2 \
	eigDiffThreshold	1e-08 \
	mixedVariable	Density \
	qKerker	0.8 \
	qKappa	-1 \
	verbose	no \
	mixFractionMag	1.5
exchange-regularization WignerSeitzTruncated
fluid None
fluid-ex-corr (null) lda-PZ
fluid-gummel-loop 10 1.000000e-05
fluid-minimize  \
	dirUpdateScheme      PolakRibiere \
	linminMethod         DirUpdateRecommended \
	nIterations          100 \
	history              15 \
	knormThreshold       0 \
	energyDiffThreshold  0 \
	nEnergyDiff          2 \
	alphaTstart          1 \
	alphaTmin            1e-10 \
	updateTestStepSize   yes \
	alphaTreduceFactor   0.1 \
	alphaTincreaseFactor 3 \
	nAlphaAdjustMax      3 \
	wolfeEnergy          0.0001 \
	wolfeGradient        0.9 \
	fdTest               no
fluid-solvent H2O 55.338 ScalarEOS \
	epsBulk 78.4 \
	pMol 0.92466 \
	epsInf 1.77 \
	Pvap 1.06736e-10 \
	sigmaBulk 4.62e-05 \
	Rvdw 2.61727 \
	Res 1.42 \
	tauNuc 343133 \
	poleEl 15 7 1
forces-output-coords Positions
ion Rb   0.000000000000000   0.000000000000000   0.000000000000000 0
ion-species SG15/$ID_ONCV_PBE.upf
ion-width 0
ionic-minimize  \
	dirUpdateScheme      L-BFGS \
	linminMethod         DirUpdateRecommended \
	nIterations          0 \
	history              15 \
	knormThreshold       0.0001 \
	energyDiffThreshold  1e-06 \
	nEnergyDiff          2 \
	alphaTstart          1 \
	alphaTmin            1e-10 \
	updateTestStepSize   yes \
	alphaTreduceFactor   0.1 \
	alphaTincreaseFactor 3 \
	nAlphaAdjustMax      3 \
	wolfeEnergy          0.0001 \
	wolfeGradient        0.9 \
	fdTest               no
kpoint   0.000000000000   0.000000000000   0.000000000000  1.00000000000000
kpoint-folding 12 12 1 
latt-move-scale 1 1 1
latt-scale 3 3 1 
lattice  \
	   4.727486978767153   -2.363743489383575    0.000000000000000  \
	  -0.000000000000000    4.094123819672498    0.000000000000000  \
	   0.000000000000000    0.000000000000000   40.000000000000000 
lattice-minimize  \
	dirUpdateScheme      L-BFGS \
	linminMethod         DirUpdateRecommended \
	nIterations          0 \
	history              15 \
	knormThreshold       0 \
	energyDiffThreshold  1e-06 \
	nEnergyDiff          2 \
	alphaTstart          1 \
	alphaTmin            1e-10 \
	updateTestStepSize   yes \
	alphaTreduceFactor   0.1 \
	alphaTincreaseFactor 3 \
	nAlphaAdjustMax      3 \
	wolfeEnergy          0.0001 \
	wolfeGradient        0.9 \
	fdTest               no
lcao-params -1 1e-06 1e-05
pcm-variant GLSSA13
spintype z-spin
subspace-rotation-factor 1 yes
symmetries automatic
symmetry-threshold 0.0001



---------- Setting up symmetries ----------

Found 24 point-group symmetries of the bravais lattice
Found 24 space-group symmetries with basis
Applied RMS atom displacement 0 bohrs to make symmetries exact.

---------- Initializing the Grid ----------
R = 
[      14.1825     -7.09123            0  ]
[            0      12.2824            0  ]
[            0            0           40  ]
unit cell volume = 6967.77
G =
[   0.443025   0.255781         -0  ]
[          0   0.511561         -0  ]
[         -0         -0    0.15708  ]
Minimum fftbox size, Smin = [  60  60  164  ]
Chosen fftbox size, S = [  60  60  168  ]

---------- Exchange Correlation functional ----------
Initalized PBE GGA exchange.
Initalized PBE GGA correlation.

---------- Setting up pseudopotentials ----------
Width of ionic core gaussian charges (only for fluid interactions / plotting) set to 0

Reading pseudopotential file '/home/gridsan/aligho/DFT/build-Nov24/pseudopotentials/SG15/Rb_ONCV_PBE.upf':
  'Rb' pseudopotential, 'PBE' functional
  Generated using ONCVPSP code by D. R. Hamann
  Author: Martin Schlipf and Francois Gygi  Date: 150915.
  9 valence electrons, 3 orbitals, 6 projectors, 2308 radial grid points, with lMax = 2
  Transforming local potential to a uniform radial grid of dG=0.02 with 1489 points.
  Transforming nonlocal projectors to a uniform radial grid of dG=0.02 with 432 points.
    4S    l: 0   occupation:  2.0   eigenvalue: -1.172069
    4P    l: 1   occupation:  6.0   eigenvalue: -0.586674
    5S    l: 0   occupation:  1.0   eigenvalue: -0.082006
  Transforming atomic orbitals to a uniform radial grid of dG=0.02 with 432 points.
  Core radius for overlap checks: 2.60 bohrs.
  Reading pulay file /home/gridsan/aligho/DFT/build-Nov24/pseudopotentials/SG15/Rb_ONCV_PBE.pulay ... using dE_dnG = -1.360715e-05 computed for Ecut = 20.

Initialized 1 species with 1 total atoms.

Folded 1 k-points by 12x12x1 to 144 k-points.

---------- Setting up k-points, bands, fillings ----------
Reduced to 19 k-points under symmetry. 
Computing the number of bands and number of electrons
Calculating initial fillings.
nElectrons:   9.000000   nBands: 6   nStates: 38

----- Setting up reduced wavefunction bases (one per k-point) -----
average nbasis = 29766.104 , ideal nbasis = 29766.845

---------- Setting up coulomb interaction ----------
Initialized slab truncation along lattice direction 001

---------- Setting up 2D ewald sum ----------
Optimum gaussian width for ewald sums = 7.873530 bohr.
Real space sums over 289 unit cells with max indices [  8  8  0  ]
Reciprocal space sums over 81 terms with max indices [  4  4  0  ]

---------- Allocating electronic variables ----------
Initializing wave functions:  linear combination of atomic orbitals
Note: number of bands (6) exceeds available atomic orbitals (5)
Rb pseudo-atom occupations:   s ( 2 1 )  p ( 6 )
	FillingsUpdate:  mu: -0.100000000  nElectrons: 9.000000  magneticMoment: [ Abs: 1.00000  Tot: +1.00000 ]
LCAOMinimize: Iter:   0  F: -24.4340239514538027  |grad|_K:       -nan  alpha:  1.000e+00
LCAOMinimize: |grad|_K=-nan. Stopping ...


---- Citations for features of the code used in this run ----

   Software package:
      R. Sundararaman, K. Letchworth-Weaver, K.A. Schwarz, D. Gunceler, Y. Ozhabes and T.A. Arias, 'JDFTx: software for joint density-functional theory', SoftwareX 6, 278 (2017)

   gga-PBE exchange-correlation functional:
      J.P. Perdew, K. Burke and M. Ernzerhof, Phys. Rev. Lett. 77, 3865 (1996)

   Pseudopotentials:
      M Schlipf and F Gygi, Comput. Phys. Commun. 196, 36 (2015)

   Truncated Coulomb potentials:
      R. Sundararaman and T.A. Arias, Phys. Rev. B 87, 165122 (2013)

This list may not be complete. Please suggest additional citations or
report any other bugs at https://github.com/shankar1729/jdftx/issues

Initialization completed successfully at t[s]:      6.50


-------- Electronic minimization -----------
Will mix electronic density at each iteration.
	FillingsUpdate:  mu: -0.100000000  nElectrons: 9.000000  magneticMoment: [ Abs: 1.00000  Tot: +1.00000 ]
	FillingsUpdate:  mu: -0.100000000  nElectrons: 9.000000  magneticMoment: [ Abs: 1.00000  Tot: +1.00000 ]
SCF: Cycle:  0   F: -24.435138916413131   dF: -1.115e-03   |Residual|: 3.389e-03   |deigs|: 1.686e-01  t[s]:     11.24
	FillingsUpdate:  mu: -0.100000000  nElectrons: 9.000000  magneticMoment: [ Abs: 1.00390  Tot: +1.00000 ]
SCF: Cycle:  1   F: -24.435193499369625   dF: -5.458e-05   |Residual|: 2.120e-03   |deigs|: 1.018e-02  t[s]:     14.96
	FillingsUpdate:  mu: -0.100000000  nElectrons: 9.000000  magneticMoment: [ Abs: 1.00503  Tot: +1.00000 ]
SCF: Cycle:  2   F: -24.435224622241538   dF: -3.112e-05   |Residual|: 1.758e-03   |deigs|: 3.051e-03  t[s]:     18.64
	FillingsUpdate:  mu: -0.100000000  nElectrons: 9.000000  magneticMoment: [ Abs: 1.00647  Tot: +1.00000 ]
SCF: Cycle:  3   F: -24.435251540755129   dF: -2.692e-05   |Residual|: 1.386e-03   |deigs|: 1.819e-03  t[s]:     22.50
	FillingsUpdate:  mu: -0.100000000  nElectrons: 9.000000  magneticMoment: [ Abs: 1.00506  Tot: +1.00000 ]
SCF: Cycle:  4   F: -24.435269409619824   dF: -1.787e-05   |Residual|: 9.801e-04   |deigs|: 1.905e-03  t[s]:     26.40
	FillingsUpdate:  mu: -0.100000000  nElectrons: 9.000000  magneticMoment: [ Abs: 1.00546  Tot: +1.00000 ]
SCF: Cycle:  5   F: -24.435275172424582   dF: -5.763e-06   |Residual|: 4.956e-04   |deigs|: 8.067e-04  t[s]:     30.47
	FillingsUpdate:  mu: -0.100000000  nElectrons: 9.000000  magneticMoment: [ Abs: 1.00527  Tot: +1.00000 ]
SCF: Cycle:  6   F: -24.435276571463525   dF: -1.399e-06   |Residual|: 3.418e-04   |deigs|: 1.696e-03  t[s]:     34.44
	FillingsUpdate:  mu: -0.100000000  nElectrons: 9.000000  magneticMoment: [ Abs: 1.00565  Tot: +1.00000 ]
SCF: Cycle:  7   F: -24.435277732504314   dF: -1.161e-06   |Residual|: 2.912e-04   |deigs|: 1.290e-03  t[s]:     38.58
	FillingsUpdate:  mu: -0.100000000  nElectrons: 9.000000  magneticMoment: [ Abs: 1.00552  Tot: +1.00000 ]
SCF: Cycle:  8   F: -24.435278490476218   dF: -7.580e-07   |Residual|: 2.218e-04   |deigs|: 5.108e-04  t[s]:     42.68
	FillingsUpdate:  mu: -0.100000000  nElectrons: 9.000000  magneticMoment: [ Abs: 1.00565  Tot: +1.00000 ]
SCF: Cycle:  9   F: -24.435278827534241   dF: -3.371e-07   |Residual|: 1.981e-04   |deigs|: 5.352e-04  t[s]:     46.92
	FillingsUpdate:  mu: -0.100000000  nElectrons: 9.000000  magneticMoment: [ Abs: 1.00556  Tot: +1.00000 ]
SCF: Cycle: 10   F: -24.435279002753028   dF: -1.752e-07   |Residual|: 1.745e-04   |deigs|: 6.850e-04  t[s]:     51.18
	FillingsUpdate:  mu: -0.100000000  nElectrons: 9.000000  magneticMoment: [ Abs: 1.00612  Tot: +1.00000 ]
SCF: Cycle: 11   F: -24.435278521949002   dF: +4.808e-07   |Residual|: 1.458e-04   |deigs|: 1.869e-04  t[s]:     55.45
	FillingsUpdate:  mu: -0.100000000  nElectrons: 9.000000  magneticMoment: [ Abs: 1.00566  Tot: +1.00000 ]
SCF: Cycle: 12   F: -24.435279118067275   dF: -5.961e-07   |Residual|: 1.028e-04   |deigs|: 1.058e-03  t[s]:     59.64
	FillingsUpdate:  mu: -0.100000000  nElectrons: 9.000000  magneticMoment: [ Abs: 1.00606  Tot: +1.00000 ]
SCF: Cycle: 13   F: -24.435279881498591   dF: -7.634e-07   |Residual|: 1.070e-04   |deigs|: 2.596e-04  t[s]:     63.80
	FillingsUpdate:  mu: -0.100000000  nElectrons: 9.000000  magneticMoment: [ Abs: 1.00636  Tot: +1.00000 ]
SCF: Cycle: 14   F: -24.435279950366635   dF: -6.887e-08   |Residual|: 1.053e-04   |deigs|: 2.941e-04  t[s]:     68.01
	FillingsUpdate:  mu: -0.100000000  nElectrons: 9.000000  magneticMoment: [ Abs: 1.00651  Tot: +1.00000 ]
SCF: Cycle: 15   F: -24.435279805025925   dF: +1.453e-07   |Residual|: 9.264e-05   |deigs|: 3.027e-04  t[s]:     72.22
	FillingsUpdate:  mu: -0.100000000  nElectrons: 9.000000  magneticMoment: [ Abs: 1.00602  Tot: +1.00000 ]
SCF: Cycle: 16   F: -24.435280042107049   dF: -2.371e-07   |Residual|: 7.687e-05   |deigs|: 8.228e-04  t[s]:     76.52
	FillingsUpdate:  mu: -0.100000000  nElectrons: 9.000000  magneticMoment: [ Abs: 1.00594  Tot: +1.00000 ]
SCF: Cycle: 17   F: -24.435280210411289   dF: -1.683e-07   |Residual|: 6.085e-05   |deigs|: 3.750e-04  t[s]:     80.70
	FillingsUpdate:  mu: -0.100000000  nElectrons: 9.000000  magneticMoment: [ Abs: 1.00577  Tot: +1.00000 ]
SCF: Cycle: 18   F: -24.435280349376963   dF: -1.390e-07   |Residual|: 3.990e-05   |deigs|: 2.998e-04  t[s]:     84.90
	FillingsUpdate:  mu: -0.100000000  nElectrons: 9.000000  magneticMoment: [ Abs: 1.00568  Tot: +1.00000 ]
SCF: Cycle: 19   F: -24.435280406883045   dF: -5.751e-08   |Residual|: 2.947e-05   |deigs|: 8.212e-05  t[s]:     89.04
	FillingsUpdate:  mu: -0.100000000  nElectrons: 9.000000  magneticMoment: [ Abs: 1.00552  Tot: +1.00000 ]
SCF: Cycle: 20   F: -24.435280432942612   dF: -2.606e-08   |Residual|: 2.197e-05   |deigs|: 1.161e-04  t[s]:     93.27
	FillingsUpdate:  mu: -0.100000000  nElectrons: 9.000000  magneticMoment: [ Abs: 1.00556  Tot: +1.00000 ]
SCF: Cycle: 21   F: -24.435280451292371   dF: -1.835e-08   |Residual|: 1.307e-05   |deigs|: 8.977e-04  t[s]:     97.49
	FillingsUpdate:  mu: -0.100000000  nElectrons: 9.000000  magneticMoment: [ Abs: 1.00555  Tot: +1.00000 ]
SCF: Cycle: 22   F: -24.435280462831351   dF: -1.154e-08   |Residual|: 9.971e-06   |deigs|: 1.670e-04  t[s]:    101.74
	FillingsUpdate:  mu: -0.100000000  nElectrons: 9.000000  magneticMoment: [ Abs: 1.00551  Tot: +1.00000 ]
SCF: Cycle: 23   F: -24.435280471688582   dF: -8.857e-09   |Residual|: 6.973e-06   |deigs|: 3.345e-04  t[s]:    105.92
	FillingsUpdate:  mu: -0.100000000  nElectrons: 9.000000  magneticMoment: [ Abs: 1.00548  Tot: +1.00000 ]
SCF: Cycle: 24   F: -24.435280476484806   dF: -4.796e-09   |Residual|: 5.839e-06   |deigs|: 3.086e-04  t[s]:    110.20
SCF: Converged (|Delta E|<1.000000e-08 for 2 iters).


# Ionic positions in lattice coordinates:
ion Rb   0.000000000000000   0.000000000000000   0.000000000000000 0

# Forces in Lattice coordinates:
force Rb   0.000000000000000   0.000000000000000   0.000000000000000 0

# Energy components:
   Eewald =      -12.0320174002217755
       EH =        7.5440558430795388
     Eloc =      -22.4608875680853579
      Enl =       -0.7942394450530371
   Epulay =       -0.0000000014467880
      Exc =       -3.6558226005887651
       KE =        6.9636306958313838
-------------------------------------
     Etot =      -24.4352804764848059
       TS =        0.0000000000000000
-------------------------------------
        F =      -24.4352804764848059

IonicMinimize: Iter:   0  F: -24.435280476484806  |grad|_K:  0.000e+00  t[s]:    110.45
IonicMinimize: Converged (|grad|_K<1.000000e-04).

#--- Lowdin population analysis ---
# oxidation-state Rb +0.026
# magnetic-moments Rb +0.974

End date and time: Sun Feb  6 13:02:44 2022  (Duration: 0-0:01:50.50)
Done!
