
*************** JDFTx 1.6.0 (git hash 42ebbcc2) ***************

Start date and time: Sun Feb  6 12:55:21 2022
Executable jdftx with command-line: -i Alkali.in
Running on hosts (process indices):  d-17-8-4 (0-18)
Divided in process groups (process indices):  0 (0)  1 (1)  2 (2)  3 (3)  4 (4)  5 (5)  6 (6)  7 (7)  8 (8)  9 (9)  10 (10)  11 (11)  12 (12)  13 (13)  14 (14)  15 (15)  16 (16)  17 (17)  18 (18)
Resource initialization completed at t[s]:      0.00
Run totals: 19 processes, 48 threads, 0 GPUs


Input parsed successfully to the following command list (including defaults):

basis kpoint-dependent
coords-type Lattice
core-overlap-check vector
coulomb-interaction Slab 001
davidson-band-ratio 1.1
dump End None
dump-name $INPUT.$VAR
elec-cutoff 20
elec-eigen-algo Davidson
elec-ex-corr gga-PBE
elec-initial-magnetization 0.760000 yes
elec-smearing Fermi 1e-05
electronic-minimize  \
	dirUpdateScheme      FletcherReeves \
	linminMethod         DirUpdateRecommended \
	nIterations          100 \
	history              15 \
	knormThreshold       0 \
	energyDiffThreshold  1e-08 \
	nEnergyDiff          2 \
	alphaTstart          1 \
	alphaTmin            1e-10 \
	updateTestStepSize   yes \
	alphaTreduceFactor   0.1 \
	alphaTincreaseFactor 3 \
	nAlphaAdjustMax      3 \
	wolfeEnergy          0.0001 \
	wolfeGradient        0.9 \
	fdTest               no
electronic-scf  \
	nIterations	10000 \
	energyDiffThreshold	1e-08 \
	residualThreshold	1e-07 \
	mixFraction	0.5 \
	qMetric	0.8 \
	history	10 \
	nEigSteps	2 \
	eigDiffThreshold	1e-08 \
	mixedVariable	Density \
	qKerker	0.8 \
	qKappa	-1 \
	verbose	no \
	mixFractionMag	1.5
exchange-regularization WignerSeitzTruncated
fluid None
fluid-ex-corr (null) lda-PZ
fluid-gummel-loop 10 1.000000e-05
fluid-minimize  \
	dirUpdateScheme      PolakRibiere \
	linminMethod         DirUpdateRecommended \
	nIterations          100 \
	history              15 \
	knormThreshold       0 \
	energyDiffThreshold  0 \
	nEnergyDiff          2 \
	alphaTstart          1 \
	alphaTmin            1e-10 \
	updateTestStepSize   yes \
	alphaTreduceFactor   0.1 \
	alphaTincreaseFactor 3 \
	nAlphaAdjustMax      3 \
	wolfeEnergy          0.0001 \
	wolfeGradient        0.9 \
	fdTest               no
fluid-solvent H2O 55.338 ScalarEOS \
	epsBulk 78.4 \
	pMol 0.92466 \
	epsInf 1.77 \
	Pvap 1.06736e-10 \
	sigmaBulk 4.62e-05 \
	Rvdw 2.61727 \
	Res 1.42 \
	tauNuc 343133 \
	poleEl 15 7 1
forces-output-coords Positions
ion Rb   0.000000000000000   0.000000000000000   0.000000000000000 0
ion-species SG15/$ID_ONCV_PBE.upf
ion-width 0
ionic-minimize  \
	dirUpdateScheme      L-BFGS \
	linminMethod         DirUpdateRecommended \
	nIterations          0 \
	history              15 \
	knormThreshold       0.0001 \
	energyDiffThreshold  1e-06 \
	nEnergyDiff          2 \
	alphaTstart          1 \
	alphaTmin            1e-10 \
	updateTestStepSize   yes \
	alphaTreduceFactor   0.1 \
	alphaTincreaseFactor 3 \
	nAlphaAdjustMax      3 \
	wolfeEnergy          0.0001 \
	wolfeGradient        0.9 \
	fdTest               no
kpoint   0.000000000000   0.000000000000   0.000000000000  1.00000000000000
kpoint-folding 12 12 1 
latt-move-scale 1 1 1
latt-scale 3 3 1 
lattice  \
	   4.727486978767153   -2.363743489383575    0.000000000000000  \
	  -0.000000000000000    4.094123819672498    0.000000000000000  \
	   0.000000000000000    0.000000000000000   40.000000000000000 
lattice-minimize  \
	dirUpdateScheme      L-BFGS \
	linminMethod         DirUpdateRecommended \
	nIterations          0 \
	history              15 \
	knormThreshold       0 \
	energyDiffThreshold  1e-06 \
	nEnergyDiff          2 \
	alphaTstart          1 \
	alphaTmin            1e-10 \
	updateTestStepSize   yes \
	alphaTreduceFactor   0.1 \
	alphaTincreaseFactor 3 \
	nAlphaAdjustMax      3 \
	wolfeEnergy          0.0001 \
	wolfeGradient        0.9 \
	fdTest               no
lcao-params -1 1e-06 1e-05
pcm-variant GLSSA13
spintype z-spin
subspace-rotation-factor 1 yes
symmetries automatic
symmetry-threshold 0.0001



---------- Setting up symmetries ----------

Found 24 point-group symmetries of the bravais lattice
Found 24 space-group symmetries with basis
Applied RMS atom displacement 0 bohrs to make symmetries exact.

---------- Initializing the Grid ----------
R = 
[      14.1825     -7.09123            0  ]
[            0      12.2824            0  ]
[            0            0           40  ]
unit cell volume = 6967.77
G =
[   0.443025   0.255781         -0  ]
[          0   0.511561         -0  ]
[         -0         -0    0.15708  ]
Minimum fftbox size, Smin = [  60  60  164  ]
Chosen fftbox size, S = [  60  60  168  ]

---------- Exchange Correlation functional ----------
Initalized PBE GGA exchange.
Initalized PBE GGA correlation.

---------- Setting up pseudopotentials ----------
Width of ionic core gaussian charges (only for fluid interactions / plotting) set to 0

Reading pseudopotential file '/home/gridsan/aligho/DFT/build-Nov24/pseudopotentials/SG15/Rb_ONCV_PBE.upf':
  'Rb' pseudopotential, 'PBE' functional
  Generated using ONCVPSP code by D. R. Hamann
  Author: Martin Schlipf and Francois Gygi  Date: 150915.
  9 valence electrons, 3 orbitals, 6 projectors, 2308 radial grid points, with lMax = 2
  Transforming local potential to a uniform radial grid of dG=0.02 with 1489 points.
  Transforming nonlocal projectors to a uniform radial grid of dG=0.02 with 432 points.
    4S    l: 0   occupation:  2.0   eigenvalue: -1.172069
    4P    l: 1   occupation:  6.0   eigenvalue: -0.586674
    5S    l: 0   occupation:  1.0   eigenvalue: -0.082006
  Transforming atomic orbitals to a uniform radial grid of dG=0.02 with 432 points.
  Core radius for overlap checks: 2.60 bohrs.
  Reading pulay file /home/gridsan/aligho/DFT/build-Nov24/pseudopotentials/SG15/Rb_ONCV_PBE.pulay ... using dE_dnG = -1.360715e-05 computed for Ecut = 20.

Initialized 1 species with 1 total atoms.

Folded 1 k-points by 12x12x1 to 144 k-points.

---------- Setting up k-points, bands, fillings ----------
Reduced to 19 k-points under symmetry. 
Computing the number of bands and number of electrons
Calculating initial fillings.
nElectrons:   9.000000   nBands: 6   nStates: 38

----- Setting up reduced wavefunction bases (one per k-point) -----
average nbasis = 29766.104 , ideal nbasis = 29766.845

---------- Setting up coulomb interaction ----------
Initialized slab truncation along lattice direction 001

---------- Setting up 2D ewald sum ----------
Optimum gaussian width for ewald sums = 7.873530 bohr.
Real space sums over 289 unit cells with max indices [  8  8  0  ]
Reciprocal space sums over 81 terms with max indices [  4  4  0  ]

---------- Allocating electronic variables ----------
Initializing wave functions:  linear combination of atomic orbitals
Note: number of bands (6) exceeds available atomic orbitals (5)
Rb pseudo-atom occupations:   s ( 2 1 )  p ( 6 )
	FillingsUpdate:  mu: -0.085891531  nElectrons: 9.000000  magneticMoment: [ Abs: 0.76000  Tot: +0.76000 ]
LCAOMinimize: Iter:   0  F: -24.4350138069046920  |grad|_K:  9.246e-06  alpha:  1.000e+00
	FillingsUpdate:  mu: -0.085889742  nElectrons: 9.000000  magneticMoment: [ Abs: 0.76000  Tot: +0.76000 ]
LCAOMinimize: Iter:   1  F: -24.4350138648443256  |grad|_K:  6.478e-08  alpha:  9.909e-01  linmin: -7.732e-03  cgtest:  1.763e-01  t[s]:      8.81
LCAOMinimize: Encountered beta<0, resetting CG.
	FillingsUpdate:  mu: -0.085889749  nElectrons: 9.000000  magneticMoment: [ Abs: 0.76000  Tot: +0.76000 ]
LCAOMinimize: Iter:   2  F: -24.4350138648475017  |grad|_K:  6.657e-09  alpha:  1.100e+00  linmin:  1.002e-01  cgtest: -9.979e-01  t[s]:     11.21
LCAOMinimize: Converged (|Delta F|<1.000000e-06 for 2 iters).


---- Citations for features of the code used in this run ----

   Software package:
      R. Sundararaman, K. Letchworth-Weaver, K.A. Schwarz, D. Gunceler, Y. Ozhabes and T.A. Arias, 'JDFTx: software for joint density-functional theory', SoftwareX 6, 278 (2017)

   gga-PBE exchange-correlation functional:
      J.P. Perdew, K. Burke and M. Ernzerhof, Phys. Rev. Lett. 77, 3865 (1996)

   Pseudopotentials:
      M Schlipf and F Gygi, Comput. Phys. Commun. 196, 36 (2015)

   Truncated Coulomb potentials:
      R. Sundararaman and T.A. Arias, Phys. Rev. B 87, 165122 (2013)

This list may not be complete. Please suggest additional citations or
report any other bugs at https://github.com/shankar1729/jdftx/issues

Initialization completed successfully at t[s]:     11.38


-------- Electronic minimization -----------
Will mix electronic density at each iteration.
	FillingsUpdate:  mu: -0.085889749  nElectrons: 9.000000  magneticMoment: [ Abs: 0.76000  Tot: +0.76000 ]
	FillingsUpdate:  mu: -0.086718153  nElectrons: 9.000000  magneticMoment: [ Abs: 0.76000  Tot: +0.76000 ]
SCF: Cycle:  0   F: -24.436443062002940   dF: -1.429e-03   |Residual|: 3.856e-03   |deigs|: 1.734e-01  t[s]:     16.24
	FillingsUpdate:  mu: -0.086943427  nElectrons: 9.000000  magneticMoment: [ Abs: 0.76131  Tot: +0.76000 ]
SCF: Cycle:  1   F: -24.436506462176514   dF: -6.340e-05   |Residual|: 2.871e-03   |deigs|: 5.025e-03  t[s]:     20.01
	FillingsUpdate:  mu: -0.087169534  nElectrons: 9.000000  magneticMoment: [ Abs: 0.76336  Tot: +0.76000 ]
SCF: Cycle:  2   F: -24.436546708552040   dF: -4.025e-05   |Residual|: 2.198e-03   |deigs|: 1.743e-03  t[s]:     23.80
	FillingsUpdate:  mu: -0.087477302  nElectrons: 9.000000  magneticMoment: [ Abs: 0.76432  Tot: +0.76000 ]
SCF: Cycle:  3   F: -24.436580107233333   dF: -3.340e-05   |Residual|: 1.616e-03   |deigs|: 2.908e-03  t[s]:     27.65
	FillingsUpdate:  mu: -0.087420696  nElectrons: 9.000000  magneticMoment: [ Abs: 0.76266  Tot: +0.76000 ]
SCF: Cycle:  4   F: -24.436599592232469   dF: -1.948e-05   |Residual|: 8.976e-04   |deigs|: 1.907e-03  t[s]:     31.59
	FillingsUpdate:  mu: -0.087387892  nElectrons: 9.000000  magneticMoment: [ Abs: 0.76333  Tot: +0.76000 ]
SCF: Cycle:  5   F: -24.436606047141655   dF: -6.455e-06   |Residual|: 5.222e-04   |deigs|: 1.198e-03  t[s]:     35.54
	FillingsUpdate:  mu: -0.087322007  nElectrons: 9.000000  magneticMoment: [ Abs: 0.76294  Tot: +0.76000 ]
SCF: Cycle:  6   F: -24.436610162697036   dF: -4.116e-06   |Residual|: 3.860e-04   |deigs|: 1.409e-03  t[s]:     39.65
	FillingsUpdate:  mu: -0.087142511  nElectrons: 9.000000  magneticMoment: [ Abs: 0.76330  Tot: +0.76000 ]
SCF: Cycle:  7   F: -24.436612040297806   dF: -1.878e-06   |Residual|: 2.953e-04   |deigs|: 8.661e-04  t[s]:     43.76
	FillingsUpdate:  mu: -0.086848402  nElectrons: 9.000000  magneticMoment: [ Abs: 0.76392  Tot: +0.76000 ]
SCF: Cycle:  8   F: -24.436611786377402   dF: +2.539e-07   |Residual|: 2.476e-04   |deigs|: 3.881e-04  t[s]:     48.03
	FillingsUpdate:  mu: -0.086466747  nElectrons: 9.000000  magneticMoment: [ Abs: 0.76434  Tot: +0.76000 ]
SCF: Cycle:  9   F: -24.436611172488391   dF: +6.139e-07   |Residual|: 2.235e-04   |deigs|: 4.603e-04  t[s]:     52.40
	FillingsUpdate:  mu: -0.086251033  nElectrons: 9.000000  magneticMoment: [ Abs: 0.76378  Tot: +0.76000 ]
SCF: Cycle: 10   F: -24.436612039496946   dF: -8.670e-07   |Residual|: 1.950e-04   |deigs|: 2.146e-04  t[s]:     56.76
	FillingsUpdate:  mu: -0.086218841  nElectrons: 9.000000  magneticMoment: [ Abs: 0.76404  Tot: +0.76000 ]
SCF: Cycle: 11   F: -24.436613742014707   dF: -1.703e-06   |Residual|: 1.402e-04   |deigs|: 2.667e-04  t[s]:     61.16
	FillingsUpdate:  mu: -0.086002400  nElectrons: 9.000000  magneticMoment: [ Abs: 0.76448  Tot: +0.76000 ]
SCF: Cycle: 12   F: -24.436613904944966   dF: -1.629e-07   |Residual|: 1.330e-04   |deigs|: 2.626e-04  t[s]:     65.43
	FillingsUpdate:  mu: -0.085672528  nElectrons: 9.000000  magneticMoment: [ Abs: 0.76442  Tot: +0.76000 ]
SCF: Cycle: 13   F: -24.436613898174372   dF: +6.771e-09   |Residual|: 1.324e-04   |deigs|: 3.697e-04  t[s]:     69.75
	FillingsUpdate:  mu: -0.085444142  nElectrons: 9.000000  magneticMoment: [ Abs: 0.76419  Tot: +0.76000 ]
SCF: Cycle: 14   F: -24.436613741774856   dF: +1.564e-07   |Residual|: 1.220e-04   |deigs|: 3.732e-04  t[s]:     74.09
	FillingsUpdate:  mu: -0.085341030  nElectrons: 9.000000  magneticMoment: [ Abs: 0.76412  Tot: +0.76000 ]
SCF: Cycle: 15   F: -24.436614506093523   dF: -7.643e-07   |Residual|: 1.013e-04   |deigs|: 3.229e-04  t[s]:     78.44
	FillingsUpdate:  mu: -0.085126861  nElectrons: 9.000000  magneticMoment: [ Abs: 0.76336  Tot: +0.76000 ]
SCF: Cycle: 16   F: -24.436615113451698   dF: -6.074e-07   |Residual|: 8.111e-05   |deigs|: 2.617e-04  t[s]:     82.69
	FillingsUpdate:  mu: -0.085012758  nElectrons: 9.000000  magneticMoment: [ Abs: 0.76313  Tot: +0.76000 ]
SCF: Cycle: 17   F: -24.436615262810616   dF: -1.494e-07   |Residual|: 6.389e-05   |deigs|: 1.309e-04  t[s]:     86.91
	FillingsUpdate:  mu: -0.084993571  nElectrons: 9.000000  magneticMoment: [ Abs: 0.76314  Tot: +0.76000 ]
SCF: Cycle: 18   F: -24.436615372747905   dF: -1.099e-07   |Residual|: 4.309e-05   |deigs|: 7.059e-05  t[s]:     91.21
	FillingsUpdate:  mu: -0.084977988  nElectrons: 9.000000  magneticMoment: [ Abs: 0.76317  Tot: +0.76000 ]
SCF: Cycle: 19   F: -24.436615580508263   dF: -2.078e-07   |Residual|: 2.552e-05   |deigs|: 7.632e-05  t[s]:     95.49
	FillingsUpdate:  mu: -0.084967459  nElectrons: 9.000000  magneticMoment: [ Abs: 0.76317  Tot: +0.76000 ]
SCF: Cycle: 20   F: -24.436615610147630   dF: -2.964e-08   |Residual|: 1.601e-05   |deigs|: 5.541e-05  t[s]:     99.63
	FillingsUpdate:  mu: -0.084970975  nElectrons: 9.000000  magneticMoment: [ Abs: 0.76318  Tot: +0.76000 ]
SCF: Cycle: 21   F: -24.436615636132515   dF: -2.598e-08   |Residual|: 1.010e-05   |deigs|: 3.202e-05  t[s]:    103.97
	FillingsUpdate:  mu: -0.084971632  nElectrons: 9.000000  magneticMoment: [ Abs: 0.76318  Tot: +0.76000 ]
SCF: Cycle: 22   F: -24.436615646060982   dF: -9.928e-09   |Residual|: 6.589e-06   |deigs|: 1.727e-05  t[s]:    108.26
	FillingsUpdate:  mu: -0.084975002  nElectrons: 9.000000  magneticMoment: [ Abs: 0.76319  Tot: +0.76000 ]
SCF: Cycle: 23   F: -24.436615651079595   dF: -5.019e-09   |Residual|: 4.399e-06   |deigs|: 1.135e-05  t[s]:    112.52
SCF: Converged (|Delta E|<1.000000e-08 for 2 iters).


# Ionic positions in lattice coordinates:
ion Rb   0.000000000000000   0.000000000000000   0.000000000000000 0

# Forces in Lattice coordinates:
force Rb   0.000000000000000  -0.000000000000000   0.000000000000000 0

# Energy components:
   Eewald =      -12.0320174002217755
       EH =        7.5154171117899891
     Eloc =      -22.4285643154564980
      Enl =       -0.7961896681997189
   Epulay =       -0.0000000014467880
      Exc =       -3.6511280963175423
       KE =        6.9558672554082825
-------------------------------------
     Etot =      -24.4366151144440522
       TS =        0.0000005366355437
-------------------------------------
        F =      -24.4366156510795953

IonicMinimize: Iter:   0  F: -24.436615651079595  |grad|_K:  0.000e+00  t[s]:    112.79
IonicMinimize: Converged (|grad|_K<1.000000e-04).

#--- Lowdin population analysis ---
# oxidation-state Rb +0.034
# magnetic-moments Rb +0.729

End date and time: Sun Feb  6 12:57:14 2022  (Duration: 0-0:01:52.83)
Done!
