
*************** JDFTx 1.6.0 (git hash 42ebbcc2) ***************

Start date and time: Sun Feb  6 12:49:03 2022
Executable jdftx with command-line: -i Alkali.in
Running on hosts (process indices):  d-17-11-3 (0-18)
Divided in process groups (process indices):  0 (0)  1 (1)  2 (2)  3 (3)  4 (4)  5 (5)  6 (6)  7 (7)  8 (8)  9 (9)  10 (10)  11 (11)  12 (12)  13 (13)  14 (14)  15 (15)  16 (16)  17 (17)  18 (18)
Resource initialization completed at t[s]:      0.00
Run totals: 19 processes, 48 threads, 0 GPUs


Input parsed successfully to the following command list (including defaults):

basis kpoint-dependent
coords-type Lattice
core-overlap-check vector
coulomb-interaction Slab 001
davidson-band-ratio 1.1
dump End None
dump-name $INPUT.$VAR
elec-cutoff 20
elec-eigen-algo Davidson
elec-ex-corr gga-PBE
elec-initial-magnetization 0.300000 yes
elec-smearing Fermi 1e-05
electronic-minimize  \
	dirUpdateScheme      FletcherReeves \
	linminMethod         DirUpdateRecommended \
	nIterations          100 \
	history              15 \
	knormThreshold       0 \
	energyDiffThreshold  1e-08 \
	nEnergyDiff          2 \
	alphaTstart          1 \
	alphaTmin            1e-10 \
	updateTestStepSize   yes \
	alphaTreduceFactor   0.1 \
	alphaTincreaseFactor 3 \
	nAlphaAdjustMax      3 \
	wolfeEnergy          0.0001 \
	wolfeGradient        0.9 \
	fdTest               no
electronic-scf  \
	nIterations	10000 \
	energyDiffThreshold	1e-08 \
	residualThreshold	1e-07 \
	mixFraction	0.5 \
	qMetric	0.8 \
	history	10 \
	nEigSteps	2 \
	eigDiffThreshold	1e-08 \
	mixedVariable	Density \
	qKerker	0.8 \
	qKappa	-1 \
	verbose	no \
	mixFractionMag	1.5
exchange-regularization WignerSeitzTruncated
fluid None
fluid-ex-corr (null) lda-PZ
fluid-gummel-loop 10 1.000000e-05
fluid-minimize  \
	dirUpdateScheme      PolakRibiere \
	linminMethod         DirUpdateRecommended \
	nIterations          100 \
	history              15 \
	knormThreshold       0 \
	energyDiffThreshold  0 \
	nEnergyDiff          2 \
	alphaTstart          1 \
	alphaTmin            1e-10 \
	updateTestStepSize   yes \
	alphaTreduceFactor   0.1 \
	alphaTincreaseFactor 3 \
	nAlphaAdjustMax      3 \
	wolfeEnergy          0.0001 \
	wolfeGradient        0.9 \
	fdTest               no
fluid-solvent H2O 55.338 ScalarEOS \
	epsBulk 78.4 \
	pMol 0.92466 \
	epsInf 1.77 \
	Pvap 1.06736e-10 \
	sigmaBulk 4.62e-05 \
	Rvdw 2.61727 \
	Res 1.42 \
	tauNuc 343133 \
	poleEl 15 7 1
forces-output-coords Positions
ion Rb   0.000000000000000   0.000000000000000   0.000000000000000 0
ion-species SG15/$ID_ONCV_PBE.upf
ion-width 0
ionic-minimize  \
	dirUpdateScheme      L-BFGS \
	linminMethod         DirUpdateRecommended \
	nIterations          0 \
	history              15 \
	knormThreshold       0.0001 \
	energyDiffThreshold  1e-06 \
	nEnergyDiff          2 \
	alphaTstart          1 \
	alphaTmin            1e-10 \
	updateTestStepSize   yes \
	alphaTreduceFactor   0.1 \
	alphaTincreaseFactor 3 \
	nAlphaAdjustMax      3 \
	wolfeEnergy          0.0001 \
	wolfeGradient        0.9 \
	fdTest               no
kpoint   0.000000000000   0.000000000000   0.000000000000  1.00000000000000
kpoint-folding 12 12 1 
latt-move-scale 1 1 1
latt-scale 3 3 1 
lattice  \
	   4.727486978767153   -2.363743489383575    0.000000000000000  \
	  -0.000000000000000    4.094123819672498    0.000000000000000  \
	   0.000000000000000    0.000000000000000   40.000000000000000 
lattice-minimize  \
	dirUpdateScheme      L-BFGS \
	linminMethod         DirUpdateRecommended \
	nIterations          0 \
	history              15 \
	knormThreshold       0 \
	energyDiffThreshold  1e-06 \
	nEnergyDiff          2 \
	alphaTstart          1 \
	alphaTmin            1e-10 \
	updateTestStepSize   yes \
	alphaTreduceFactor   0.1 \
	alphaTincreaseFactor 3 \
	nAlphaAdjustMax      3 \
	wolfeEnergy          0.0001 \
	wolfeGradient        0.9 \
	fdTest               no
lcao-params -1 1e-06 1e-05
pcm-variant GLSSA13
spintype z-spin
subspace-rotation-factor 1 yes
symmetries automatic
symmetry-threshold 0.0001



---------- Setting up symmetries ----------

Found 24 point-group symmetries of the bravais lattice
Found 24 space-group symmetries with basis
Applied RMS atom displacement 0 bohrs to make symmetries exact.

---------- Initializing the Grid ----------
R = 
[      14.1825     -7.09123            0  ]
[            0      12.2824            0  ]
[            0            0           40  ]
unit cell volume = 6967.77
G =
[   0.443025   0.255781         -0  ]
[          0   0.511561         -0  ]
[         -0         -0    0.15708  ]
Minimum fftbox size, Smin = [  60  60  164  ]
Chosen fftbox size, S = [  60  60  168  ]

---------- Exchange Correlation functional ----------
Initalized PBE GGA exchange.
Initalized PBE GGA correlation.

---------- Setting up pseudopotentials ----------
Width of ionic core gaussian charges (only for fluid interactions / plotting) set to 0

Reading pseudopotential file '/home/gridsan/aligho/DFT/build-Nov24/pseudopotentials/SG15/Rb_ONCV_PBE.upf':
  'Rb' pseudopotential, 'PBE' functional
  Generated using ONCVPSP code by D. R. Hamann
  Author: Martin Schlipf and Francois Gygi  Date: 150915.
  9 valence electrons, 3 orbitals, 6 projectors, 2308 radial grid points, with lMax = 2
  Transforming local potential to a uniform radial grid of dG=0.02 with 1489 points.
  Transforming nonlocal projectors to a uniform radial grid of dG=0.02 with 432 points.
    4S    l: 0   occupation:  2.0   eigenvalue: -1.172069
    4P    l: 1   occupation:  6.0   eigenvalue: -0.586674
    5S    l: 0   occupation:  1.0   eigenvalue: -0.082006
  Transforming atomic orbitals to a uniform radial grid of dG=0.02 with 432 points.
  Core radius for overlap checks: 2.60 bohrs.
  Reading pulay file /home/gridsan/aligho/DFT/build-Nov24/pseudopotentials/SG15/Rb_ONCV_PBE.pulay ... using dE_dnG = -1.360715e-05 computed for Ecut = 20.

Initialized 1 species with 1 total atoms.

Folded 1 k-points by 12x12x1 to 144 k-points.

---------- Setting up k-points, bands, fillings ----------
Reduced to 19 k-points under symmetry. 
Computing the number of bands and number of electrons
Calculating initial fillings.
nElectrons:   9.000000   nBands: 6   nStates: 38

----- Setting up reduced wavefunction bases (one per k-point) -----
average nbasis = 29766.104 , ideal nbasis = 29766.845

---------- Setting up coulomb interaction ----------
Initialized slab truncation along lattice direction 001

---------- Setting up 2D ewald sum ----------
Optimum gaussian width for ewald sums = 7.873530 bohr.
Real space sums over 289 unit cells with max indices [  8  8  0  ]
Reciprocal space sums over 81 terms with max indices [  4  4  0  ]

---------- Allocating electronic variables ----------
Initializing wave functions:  linear combination of atomic orbitals
Note: number of bands (6) exceeds available atomic orbitals (5)
Rb pseudo-atom occupations:   s ( 2 1 )  p ( 6 )
	FillingsUpdate:  mu: -0.083706973  nElectrons: 9.000000  magneticMoment: [ Abs: 0.30000  Tot: +0.30000 ]
LCAOMinimize: Iter:   0  F: -24.4365573158256062  |grad|_K:  2.012e-05  alpha:  1.000e+00
	FillingsUpdate:  mu: -0.083702723  nElectrons: 9.000000  magneticMoment: [ Abs: 0.30000  Tot: +0.30000 ]
LCAOMinimize: Iter:   1  F: -24.4365575886277959  |grad|_K:  1.568e-07  alpha:  9.856e-01  linmin: -1.909e-02  cgtest:  4.639e-01  t[s]:      8.99
LCAOMinimize: Encountered beta<0, resetting CG.
	FillingsUpdate:  mu: -0.083702723  nElectrons: 9.000000  magneticMoment: [ Abs: 0.30000  Tot: +0.30000 ]
LCAOMinimize: Iter:   2  F: -24.4365575886441810  |grad|_K:  1.727e-09  alpha:  9.897e-01  linmin: -4.735e-02  cgtest:  9.948e-01  t[s]:     11.45
LCAOMinimize: Encountered beta<0, resetting CG.
LCAOMinimize: Converged (|Delta F|<1.000000e-06 for 2 iters).


---- Citations for features of the code used in this run ----

   Software package:
      R. Sundararaman, K. Letchworth-Weaver, K.A. Schwarz, D. Gunceler, Y. Ozhabes and T.A. Arias, 'JDFTx: software for joint density-functional theory', SoftwareX 6, 278 (2017)

   gga-PBE exchange-correlation functional:
      J.P. Perdew, K. Burke and M. Ernzerhof, Phys. Rev. Lett. 77, 3865 (1996)

   Pseudopotentials:
      M Schlipf and F Gygi, Comput. Phys. Commun. 196, 36 (2015)

   Truncated Coulomb potentials:
      R. Sundararaman and T.A. Arias, Phys. Rev. B 87, 165122 (2013)

This list may not be complete. Please suggest additional citations or
report any other bugs at https://github.com/shankar1729/jdftx/issues

Initialization completed successfully at t[s]:     11.62


-------- Electronic minimization -----------
Will mix electronic density at each iteration.
	FillingsUpdate:  mu: -0.083702723  nElectrons: 9.000000  magneticMoment: [ Abs: 0.30000  Tot: +0.30000 ]
	FillingsUpdate:  mu: -0.085809541  nElectrons: 9.000000  magneticMoment: [ Abs: 0.30000  Tot: +0.30000 ]
SCF: Cycle:  0   F: -24.438267627757746   dF: -1.710e-03   |Residual|: 3.838e-03   |deigs|: 1.737e-01  t[s]:     16.61
	FillingsUpdate:  mu: -0.085994813  nElectrons: 9.000000  magneticMoment: [ Abs: 0.30014  Tot: +0.30000 ]
SCF: Cycle:  1   F: -24.438314179055279   dF: -4.655e-05   |Residual|: 3.263e-03   |deigs|: 4.549e-03  t[s]:     20.45
	FillingsUpdate:  mu: -0.086341263  nElectrons: 9.000000  magneticMoment: [ Abs: 0.30195  Tot: +0.30000 ]
SCF: Cycle:  2   F: -24.438348851643447   dF: -3.467e-05   |Residual|: 1.972e-03   |deigs|: 2.667e-03  t[s]:     24.33
	FillingsUpdate:  mu: -0.086540691  nElectrons: 9.000000  magneticMoment: [ Abs: 0.30201  Tot: +0.30000 ]
SCF: Cycle:  3   F: -24.438362994795146   dF: -1.414e-05   |Residual|: 1.151e-03   |deigs|: 1.733e-03  t[s]:     28.28
	FillingsUpdate:  mu: -0.086512341  nElectrons: 9.000000  magneticMoment: [ Abs: 0.30044  Tot: +0.30000 ]
SCF: Cycle:  4   F: -24.438370432137589   dF: -7.437e-06   |Residual|: 6.309e-04   |deigs|: 2.496e-03  t[s]:     32.33
	FillingsUpdate:  mu: -0.086478665  nElectrons: 9.000000  magneticMoment: [ Abs: 0.30101  Tot: +0.30000 ]
SCF: Cycle:  5   F: -24.438374326625333   dF: -3.894e-06   |Residual|: 4.667e-04   |deigs|: 1.936e-03  t[s]:     36.40
	FillingsUpdate:  mu: -0.086326043  nElectrons: 9.000000  magneticMoment: [ Abs: 0.30096  Tot: +0.30000 ]
SCF: Cycle:  6   F: -24.438376315630126   dF: -1.989e-06   |Residual|: 3.481e-04   |deigs|: 9.303e-04  t[s]:     40.55
	FillingsUpdate:  mu: -0.086096866  nElectrons: 9.000000  magneticMoment: [ Abs: 0.30119  Tot: +0.30000 ]
SCF: Cycle:  7   F: -24.438376694743443   dF: -3.791e-07   |Residual|: 2.782e-04   |deigs|: 9.156e-04  t[s]:     44.73
	FillingsUpdate:  mu: -0.085837400  nElectrons: 9.000000  magneticMoment: [ Abs: 0.30204  Tot: +0.30000 ]
SCF: Cycle:  8   F: -24.438376767186693   dF: -7.244e-08   |Residual|: 2.300e-04   |deigs|: 3.372e-04  t[s]:     49.03
	FillingsUpdate:  mu: -0.085543592  nElectrons: 9.000000  magneticMoment: [ Abs: 0.30188  Tot: +0.30000 ]
SCF: Cycle:  9   F: -24.438375890487983   dF: +8.767e-07   |Residual|: 2.070e-04   |deigs|: 4.779e-04  t[s]:     53.43
	FillingsUpdate:  mu: -0.085272397  nElectrons: 9.000000  magneticMoment: [ Abs: 0.30177  Tot: +0.30000 ]
SCF: Cycle: 10   F: -24.438376347765072   dF: -4.573e-07   |Residual|: 1.853e-04   |deigs|: 4.122e-04  t[s]:     57.89
	FillingsUpdate:  mu: -0.085146518  nElectrons: 9.000000  magneticMoment: [ Abs: 0.30177  Tot: +0.30000 ]
SCF: Cycle: 11   F: -24.438377034588271   dF: -6.868e-07   |Residual|: 1.449e-04   |deigs|: 2.499e-04  t[s]:     62.36
	FillingsUpdate:  mu: -0.084928510  nElectrons: 9.000000  magneticMoment: [ Abs: 0.30190  Tot: +0.30000 ]
SCF: Cycle: 12   F: -24.438377319394828   dF: -2.848e-07   |Residual|: 1.343e-04   |deigs|: 2.568e-04  t[s]:     66.75
	FillingsUpdate:  mu: -0.084497230  nElectrons: 9.000000  magneticMoment: [ Abs: 0.30141  Tot: +0.30000 ]
SCF: Cycle: 13   F: -24.438376511616941   dF: +8.078e-07   |Residual|: 1.341e-04   |deigs|: 4.674e-04  t[s]:     71.13
	FillingsUpdate:  mu: -0.084364608  nElectrons: 9.000000  magneticMoment: [ Abs: 0.30119  Tot: +0.30000 ]
SCF: Cycle: 14   F: -24.438376912027067   dF: -4.004e-07   |Residual|: 1.216e-04   |deigs|: 3.356e-04  t[s]:     75.49
	FillingsUpdate:  mu: -0.084295063  nElectrons: 9.000000  magneticMoment: [ Abs: 0.30144  Tot: +0.30000 ]
SCF: Cycle: 15   F: -24.438377991247815   dF: -1.079e-06   |Residual|: 9.150e-05   |deigs|: 3.005e-04  t[s]:     79.90
	FillingsUpdate:  mu: -0.084065796  nElectrons: 9.000000  magneticMoment: [ Abs: 0.30114  Tot: +0.30000 ]
SCF: Cycle: 16   F: -24.438378453186616   dF: -4.619e-07   |Residual|: 6.707e-05   |deigs|: 2.506e-04  t[s]:     84.23
	FillingsUpdate:  mu: -0.083921295  nElectrons: 9.000000  magneticMoment: [ Abs: 0.30099  Tot: +0.30000 ]
SCF: Cycle: 17   F: -24.438378575350367   dF: -1.222e-07   |Residual|: 4.566e-05   |deigs|: 5.973e-04  t[s]:     88.57
	FillingsUpdate:  mu: -0.083924854  nElectrons: 9.000000  magneticMoment: [ Abs: 0.30098  Tot: +0.30000 ]
SCF: Cycle: 18   F: -24.438378656031929   dF: -8.068e-08   |Residual|: 3.065e-05   |deigs|: 7.046e-05  t[s]:     92.99
	FillingsUpdate:  mu: -0.083948043  nElectrons: 9.000000  magneticMoment: [ Abs: 0.30100  Tot: +0.30000 ]
SCF: Cycle: 19   F: -24.438378714473476   dF: -5.844e-08   |Residual|: 1.628e-05   |deigs|: 3.392e-05  t[s]:     97.34
	FillingsUpdate:  mu: -0.083941617  nElectrons: 9.000000  magneticMoment: [ Abs: 0.30099  Tot: +0.30000 ]
SCF: Cycle: 20   F: -24.438378724102410   dF: -9.629e-09   |Residual|: 1.097e-05   |deigs|: 8.143e-06  t[s]:    101.56
	FillingsUpdate:  mu: -0.083947877  nElectrons: 9.000000  magneticMoment: [ Abs: 0.30100  Tot: +0.30000 ]
SCF: Cycle: 21   F: -24.438378733543711   dF: -9.441e-09   |Residual|: 5.306e-06   |deigs|: 1.002e-05  t[s]:    105.92
SCF: Converged (|Delta E|<1.000000e-08 for 2 iters).


# Ionic positions in lattice coordinates:
ion Rb   0.000000000000000   0.000000000000000   0.000000000000000 0

# Forces in Lattice coordinates:
force Rb   0.000000000000000  -0.000000000000000   0.000000000000000 0

# Energy components:
   Eewald =      -12.0320174002217755
       EH =        7.4896327483272831
     Eloc =      -22.3998262479571331
      Enl =       -0.7977191336831019
   Epulay =       -0.0000000014467880
      Exc =       -3.6471530219609258
       KE =        6.9487051632222956
-------------------------------------
     Etot =      -24.4383778937201441
       TS =        0.0000008398235688
-------------------------------------
        F =      -24.4383787335437113

IonicMinimize: Iter:   0  F: -24.438378733543711  |grad|_K:  0.000e+00  t[s]:    106.19
IonicMinimize: Converged (|grad|_K<1.000000e-04).

#--- Lowdin population analysis ---
# oxidation-state Rb +0.032
# magnetic-moments Rb +0.282

End date and time: Sun Feb  6 12:50:50 2022  (Duration: 0-0:01:46.24)
Done!
