
*************** JDFTx 1.6.0 (git hash 42ebbcc2) ***************

Start date and time: Sun Feb  6 12:55:16 2022
Executable jdftx with command-line: -i Alkali.in
Running on hosts (process indices):  d-6-8-2 (0-18)
Divided in process groups (process indices):  0 (0)  1 (1)  2 (2)  3 (3)  4 (4)  5 (5)  6 (6)  7 (7)  8 (8)  9 (9)  10 (10)  11 (11)  12 (12)  13 (13)  14 (14)  15 (15)  16 (16)  17 (17)  18 (18)
Resource initialization completed at t[s]:      0.00
Run totals: 19 processes, 48 threads, 0 GPUs


Input parsed successfully to the following command list (including defaults):

basis kpoint-dependent
coords-type Lattice
core-overlap-check vector
coulomb-interaction Slab 001
davidson-band-ratio 1.1
dump End None
dump-name $INPUT.$VAR
elec-cutoff 20
elec-eigen-algo Davidson
elec-ex-corr gga-PBE
elec-initial-magnetization 0.640000 yes
elec-smearing Fermi 1e-05
electronic-minimize  \
	dirUpdateScheme      FletcherReeves \
	linminMethod         DirUpdateRecommended \
	nIterations          100 \
	history              15 \
	knormThreshold       0 \
	energyDiffThreshold  1e-08 \
	nEnergyDiff          2 \
	alphaTstart          1 \
	alphaTmin            1e-10 \
	updateTestStepSize   yes \
	alphaTreduceFactor   0.1 \
	alphaTincreaseFactor 3 \
	nAlphaAdjustMax      3 \
	wolfeEnergy          0.0001 \
	wolfeGradient        0.9 \
	fdTest               no
electronic-scf  \
	nIterations	10000 \
	energyDiffThreshold	1e-08 \
	residualThreshold	1e-07 \
	mixFraction	0.5 \
	qMetric	0.8 \
	history	10 \
	nEigSteps	2 \
	eigDiffThreshold	1e-08 \
	mixedVariable	Density \
	qKerker	0.8 \
	qKappa	-1 \
	verbose	no \
	mixFractionMag	1.5
exchange-regularization WignerSeitzTruncated
fluid None
fluid-ex-corr (null) lda-PZ
fluid-gummel-loop 10 1.000000e-05
fluid-minimize  \
	dirUpdateScheme      PolakRibiere \
	linminMethod         DirUpdateRecommended \
	nIterations          100 \
	history              15 \
	knormThreshold       0 \
	energyDiffThreshold  0 \
	nEnergyDiff          2 \
	alphaTstart          1 \
	alphaTmin            1e-10 \
	updateTestStepSize   yes \
	alphaTreduceFactor   0.1 \
	alphaTincreaseFactor 3 \
	nAlphaAdjustMax      3 \
	wolfeEnergy          0.0001 \
	wolfeGradient        0.9 \
	fdTest               no
fluid-solvent H2O 55.338 ScalarEOS \
	epsBulk 78.4 \
	pMol 0.92466 \
	epsInf 1.77 \
	Pvap 1.06736e-10 \
	sigmaBulk 4.62e-05 \
	Rvdw 2.61727 \
	Res 1.42 \
	tauNuc 343133 \
	poleEl 15 7 1
forces-output-coords Positions
ion Rb   0.000000000000000   0.000000000000000   0.000000000000000 0
ion-species SG15/$ID_ONCV_PBE.upf
ion-width 0
ionic-minimize  \
	dirUpdateScheme      L-BFGS \
	linminMethod         DirUpdateRecommended \
	nIterations          0 \
	history              15 \
	knormThreshold       0.0001 \
	energyDiffThreshold  1e-06 \
	nEnergyDiff          2 \
	alphaTstart          1 \
	alphaTmin            1e-10 \
	updateTestStepSize   yes \
	alphaTreduceFactor   0.1 \
	alphaTincreaseFactor 3 \
	nAlphaAdjustMax      3 \
	wolfeEnergy          0.0001 \
	wolfeGradient        0.9 \
	fdTest               no
kpoint   0.000000000000   0.000000000000   0.000000000000  1.00000000000000
kpoint-folding 12 12 1 
latt-move-scale 1 1 1
latt-scale 3 3 1 
lattice  \
	   4.727486978767153   -2.363743489383575    0.000000000000000  \
	  -0.000000000000000    4.094123819672498    0.000000000000000  \
	   0.000000000000000    0.000000000000000   40.000000000000000 
lattice-minimize  \
	dirUpdateScheme      L-BFGS \
	linminMethod         DirUpdateRecommended \
	nIterations          0 \
	history              15 \
	knormThreshold       0 \
	energyDiffThreshold  1e-06 \
	nEnergyDiff          2 \
	alphaTstart          1 \
	alphaTmin            1e-10 \
	updateTestStepSize   yes \
	alphaTreduceFactor   0.1 \
	alphaTincreaseFactor 3 \
	nAlphaAdjustMax      3 \
	wolfeEnergy          0.0001 \
	wolfeGradient        0.9 \
	fdTest               no
lcao-params -1 1e-06 1e-05
pcm-variant GLSSA13
spintype z-spin
subspace-rotation-factor 1 yes
symmetries automatic
symmetry-threshold 0.0001



---------- Setting up symmetries ----------

Found 24 point-group symmetries of the bravais lattice
Found 24 space-group symmetries with basis
Applied RMS atom displacement 0 bohrs to make symmetries exact.

---------- Initializing the Grid ----------
R = 
[      14.1825     -7.09123            0  ]
[            0      12.2824            0  ]
[            0            0           40  ]
unit cell volume = 6967.77
G =
[   0.443025   0.255781         -0  ]
[          0   0.511561         -0  ]
[         -0         -0    0.15708  ]
Minimum fftbox size, Smin = [  60  60  164  ]
Chosen fftbox size, S = [  60  60  168  ]

---------- Exchange Correlation functional ----------
Initalized PBE GGA exchange.
Initalized PBE GGA correlation.

---------- Setting up pseudopotentials ----------
Width of ionic core gaussian charges (only for fluid interactions / plotting) set to 0

Reading pseudopotential file '/home/gridsan/aligho/DFT/build-Nov24/pseudopotentials/SG15/Rb_ONCV_PBE.upf':
  'Rb' pseudopotential, 'PBE' functional
  Generated using ONCVPSP code by D. R. Hamann
  Author: Martin Schlipf and Francois Gygi  Date: 150915.
  9 valence electrons, 3 orbitals, 6 projectors, 2308 radial grid points, with lMax = 2
  Transforming local potential to a uniform radial grid of dG=0.02 with 1489 points.
  Transforming nonlocal projectors to a uniform radial grid of dG=0.02 with 432 points.
    4S    l: 0   occupation:  2.0   eigenvalue: -1.172069
    4P    l: 1   occupation:  6.0   eigenvalue: -0.586674
    5S    l: 0   occupation:  1.0   eigenvalue: -0.082006
  Transforming atomic orbitals to a uniform radial grid of dG=0.02 with 432 points.
  Core radius for overlap checks: 2.60 bohrs.
  Reading pulay file /home/gridsan/aligho/DFT/build-Nov24/pseudopotentials/SG15/Rb_ONCV_PBE.pulay ... using dE_dnG = -1.360715e-05 computed for Ecut = 20.

Initialized 1 species with 1 total atoms.

Folded 1 k-points by 12x12x1 to 144 k-points.

---------- Setting up k-points, bands, fillings ----------
Reduced to 19 k-points under symmetry. 
Computing the number of bands and number of electrons
Calculating initial fillings.
nElectrons:   9.000000   nBands: 6   nStates: 38

----- Setting up reduced wavefunction bases (one per k-point) -----
average nbasis = 29766.104 , ideal nbasis = 29766.845

---------- Setting up coulomb interaction ----------
Initialized slab truncation along lattice direction 001

---------- Setting up 2D ewald sum ----------
Optimum gaussian width for ewald sums = 7.873530 bohr.
Real space sums over 289 unit cells with max indices [  8  8  0  ]
Reciprocal space sums over 81 terms with max indices [  4  4  0  ]

---------- Allocating electronic variables ----------
Initializing wave functions:  linear combination of atomic orbitals
Note: number of bands (6) exceeds available atomic orbitals (5)
Rb pseudo-atom occupations:   s ( 2 1 )  p ( 6 )
	FillingsUpdate:  mu: -0.085947701  nElectrons: 9.000000  magneticMoment: [ Abs: 0.64000  Tot: +0.64000 ]
LCAOMinimize: Iter:   0  F: -24.4354588843782388  |grad|_K:  1.264e-05  alpha:  1.000e+00
	FillingsUpdate:  mu: -0.085945236  nElectrons: 9.000000  magneticMoment: [ Abs: 0.64000  Tot: +0.64000 ]
LCAOMinimize: Iter:   1  F: -24.4354589924452803  |grad|_K:  9.105e-08  alpha:  9.890e-01  linmin: -1.184e-02  cgtest:  2.715e-01  t[s]:      8.71
LCAOMinimize: Encountered beta<0, resetting CG.
	FillingsUpdate:  mu: -0.085945242  nElectrons: 9.000000  magneticMoment: [ Abs: 0.64000  Tot: +0.64000 ]
LCAOMinimize: Iter:   2  F: -24.4354589924510286  |grad|_K:  5.586e-09  alpha:  1.060e+00  linmin:  7.631e-02  cgtest: -9.968e-01  t[s]:     11.09
LCAOMinimize: Converged (|Delta F|<1.000000e-06 for 2 iters).


---- Citations for features of the code used in this run ----

   Software package:
      R. Sundararaman, K. Letchworth-Weaver, K.A. Schwarz, D. Gunceler, Y. Ozhabes and T.A. Arias, 'JDFTx: software for joint density-functional theory', SoftwareX 6, 278 (2017)

   gga-PBE exchange-correlation functional:
      J.P. Perdew, K. Burke and M. Ernzerhof, Phys. Rev. Lett. 77, 3865 (1996)

   Pseudopotentials:
      M Schlipf and F Gygi, Comput. Phys. Commun. 196, 36 (2015)

   Truncated Coulomb potentials:
      R. Sundararaman and T.A. Arias, Phys. Rev. B 87, 165122 (2013)

This list may not be complete. Please suggest additional citations or
report any other bugs at https://github.com/shankar1729/jdftx/issues

Initialization completed successfully at t[s]:     11.25


-------- Electronic minimization -----------
Will mix electronic density at each iteration.
	FillingsUpdate:  mu: -0.085945242  nElectrons: 9.000000  magneticMoment: [ Abs: 0.64000  Tot: +0.64000 ]
	FillingsUpdate:  mu: -0.087119234  nElectrons: 9.000000  magneticMoment: [ Abs: 0.64000  Tot: +0.64000 ]
SCF: Cycle:  0   F: -24.436996672485883   dF: -1.538e-03   |Residual|: 3.980e-03   |deigs|: 1.735e-01  t[s]:     15.98
	FillingsUpdate:  mu: -0.087304302  nElectrons: 9.000000  magneticMoment: [ Abs: 0.64073  Tot: +0.64000 ]
SCF: Cycle:  1   F: -24.437058968550552   dF: -6.230e-05   |Residual|: 3.101e-03   |deigs|: 4.905e-03  t[s]:     19.68
	FillingsUpdate:  mu: -0.087470276  nElectrons: 9.000000  magneticMoment: [ Abs: 0.64276  Tot: +0.64000 ]
SCF: Cycle:  2   F: -24.437099617479973   dF: -4.065e-05   |Residual|: 2.296e-03   |deigs|: 1.857e-03  t[s]:     23.42
	FillingsUpdate:  mu: -0.087717933  nElectrons: 9.000000  magneticMoment: [ Abs: 0.64358  Tot: +0.64000 ]
SCF: Cycle:  3   F: -24.437127782213633   dF: -2.816e-05   |Residual|: 1.595e-03   |deigs|: 2.449e-03  t[s]:     27.22
	FillingsUpdate:  mu: -0.087766501  nElectrons: 9.000000  magneticMoment: [ Abs: 0.64180  Tot: +0.64000 ]
SCF: Cycle:  4   F: -24.437140848927697   dF: -1.307e-05   |Residual|: 8.425e-04   |deigs|: 1.969e-03  t[s]:     31.09
	FillingsUpdate:  mu: -0.087836175  nElectrons: 9.000000  magneticMoment: [ Abs: 0.64257  Tot: +0.64000 ]
SCF: Cycle:  5   F: -24.437147521569788   dF: -6.673e-06   |Residual|: 5.195e-04   |deigs|: 2.049e-03  t[s]:     35.04
	FillingsUpdate:  mu: -0.087759404  nElectrons: 9.000000  magneticMoment: [ Abs: 0.64226  Tot: +0.64000 ]
SCF: Cycle:  6   F: -24.437151942529667   dF: -4.421e-06   |Residual|: 3.766e-04   |deigs|: 1.262e-03  t[s]:     39.03
	FillingsUpdate:  mu: -0.087597310  nElectrons: 9.000000  magneticMoment: [ Abs: 0.64260  Tot: +0.64000 ]
SCF: Cycle:  7   F: -24.437153179651116   dF: -1.237e-06   |Residual|: 3.015e-04   |deigs|: 9.139e-04  t[s]:     43.17
	FillingsUpdate:  mu: -0.087350799  nElectrons: 9.000000  magneticMoment: [ Abs: 0.64325  Tot: +0.64000 ]
SCF: Cycle:  8   F: -24.437153364655643   dF: -1.850e-07   |Residual|: 2.440e-04   |deigs|: 3.772e-04  t[s]:     47.29
	FillingsUpdate:  mu: -0.086960648  nElectrons: 9.000000  magneticMoment: [ Abs: 0.64366  Tot: +0.64000 ]
SCF: Cycle:  9   F: -24.437152535679871   dF: +8.290e-07   |Residual|: 2.175e-04   |deigs|: 4.949e-04  t[s]:     51.45
	FillingsUpdate:  mu: -0.086729497  nElectrons: 9.000000  magneticMoment: [ Abs: 0.64336  Tot: +0.64000 ]
SCF: Cycle: 10   F: -24.437152613715320   dF: -7.804e-08   |Residual|: 1.950e-04   |deigs|: 2.509e-04  t[s]:     55.70
	FillingsUpdate:  mu: -0.086634491  nElectrons: 9.000000  magneticMoment: [ Abs: 0.64329  Tot: +0.64000 ]
SCF: Cycle: 11   F: -24.437154329237792   dF: -1.716e-06   |Residual|: 1.458e-04   |deigs|: 3.607e-04  t[s]:     59.89
	FillingsUpdate:  mu: -0.086446318  nElectrons: 9.000000  magneticMoment: [ Abs: 0.64372  Tot: +0.64000 ]
SCF: Cycle: 12   F: -24.437154528405962   dF: -1.992e-07   |Residual|: 1.384e-04   |deigs|: 2.622e-04  t[s]:     64.27
	FillingsUpdate:  mu: -0.086043765  nElectrons: 9.000000  magneticMoment: [ Abs: 0.64352  Tot: +0.64000 ]
SCF: Cycle: 13   F: -24.437154277099495   dF: +2.513e-07   |Residual|: 1.348e-04   |deigs|: 4.249e-04  t[s]:     68.57
	FillingsUpdate:  mu: -0.085826568  nElectrons: 9.000000  magneticMoment: [ Abs: 0.64341  Tot: +0.64000 ]
SCF: Cycle: 14   F: -24.437154071699020   dF: +2.054e-07   |Residual|: 1.245e-04   |deigs|: 5.132e-04  t[s]:     72.84
	FillingsUpdate:  mu: -0.085746827  nElectrons: 9.000000  magneticMoment: [ Abs: 0.64325  Tot: +0.64000 ]
SCF: Cycle: 15   F: -24.437154971260949   dF: -8.996e-07   |Residual|: 1.043e-04   |deigs|: 1.760e-04  t[s]:     77.07
	FillingsUpdate:  mu: -0.085532392  nElectrons: 9.000000  magneticMoment: [ Abs: 0.64255  Tot: +0.64000 ]
SCF: Cycle: 16   F: -24.437155723052857   dF: -7.518e-07   |Residual|: 7.407e-05   |deigs|: 2.439e-04  t[s]:     81.26
	FillingsUpdate:  mu: -0.085373736  nElectrons: 9.000000  magneticMoment: [ Abs: 0.64245  Tot: +0.64000 ]
SCF: Cycle: 17   F: -24.437155856038075   dF: -1.330e-07   |Residual|: 5.612e-05   |deigs|: 1.904e-04  t[s]:     85.46
	FillingsUpdate:  mu: -0.085388716  nElectrons: 9.000000  magneticMoment: [ Abs: 0.64242  Tot: +0.64000 ]
SCF: Cycle: 18   F: -24.437155994171665   dF: -1.381e-07   |Residual|: 3.943e-05   |deigs|: 1.616e-04  t[s]:     89.74
	FillingsUpdate:  mu: -0.085394336  nElectrons: 9.000000  magneticMoment: [ Abs: 0.64244  Tot: +0.64000 ]
SCF: Cycle: 19   F: -24.437156104129425   dF: -1.100e-07   |Residual|: 2.339e-05   |deigs|: 1.107e-04  t[s]:     94.01
	FillingsUpdate:  mu: -0.085372120  nElectrons: 9.000000  magneticMoment: [ Abs: 0.64243  Tot: +0.64000 ]
SCF: Cycle: 20   F: -24.437156122483088   dF: -1.835e-08   |Residual|: 1.616e-05   |deigs|: 8.384e-05  t[s]:     98.15
	FillingsUpdate:  mu: -0.085374195  nElectrons: 9.000000  magneticMoment: [ Abs: 0.64244  Tot: +0.64000 ]
SCF: Cycle: 21   F: -24.437156137354346   dF: -1.487e-08   |Residual|: 1.002e-05   |deigs|: 5.093e-05  t[s]:    102.42
	FillingsUpdate:  mu: -0.085375384  nElectrons: 9.000000  magneticMoment: [ Abs: 0.64245  Tot: +0.64000 ]
SCF: Cycle: 22   F: -24.437156147303316   dF: -9.949e-09   |Residual|: 6.434e-06   |deigs|: 2.714e-05  t[s]:    106.66
	FillingsUpdate:  mu: -0.085379593  nElectrons: 9.000000  magneticMoment: [ Abs: 0.64245  Tot: +0.64000 ]
SCF: Cycle: 23   F: -24.437156149548787   dF: -2.245e-09   |Residual|: 4.626e-06   |deigs|: 1.791e-05  t[s]:    110.80
SCF: Converged (|Delta E|<1.000000e-08 for 2 iters).


# Ionic positions in lattice coordinates:
ion Rb   0.000000000000000   0.000000000000000   0.000000000000000 0

# Forces in Lattice coordinates:
force Rb   0.000000000000000  -0.000000000000000   0.000000000000000 0

# Energy components:
   Eewald =      -12.0320174002217755
       EH =        7.5059201183848163
     Eloc =      -22.4179706429696957
      Enl =       -0.7967873066053632
   Epulay =       -0.0000000014467880
      Exc =       -3.6496800007394437
       KE =        6.9533801142469223
-------------------------------------
     Etot =      -24.4371551193513277
       TS =        0.0000010301974605
-------------------------------------
        F =      -24.4371561495487875

IonicMinimize: Iter:   0  F: -24.437156149548787  |grad|_K:  0.000e+00  t[s]:    111.05
IonicMinimize: Converged (|grad|_K<1.000000e-04).

#--- Lowdin population analysis ---
# oxidation-state Rb +0.035
# magnetic-moments Rb +0.609

End date and time: Sun Feb  6 12:57:07 2022  (Duration: 0-0:01:51.09)
Done!
