
*************** JDFTx 1.6.0 (git hash 42ebbcc2) ***************

Start date and time: Sun Feb  6 12:42:24 2022
Executable jdftx with command-line: -i Alkali.in
Running on hosts (process indices):  d-17-8-4 (0-18)
Divided in process groups (process indices):  0 (0)  1 (1)  2 (2)  3 (3)  4 (4)  5 (5)  6 (6)  7 (7)  8 (8)  9 (9)  10 (10)  11 (11)  12 (12)  13 (13)  14 (14)  15 (15)  16 (16)  17 (17)  18 (18)
Resource initialization completed at t[s]:      0.00
Run totals: 19 processes, 48 threads, 0 GPUs


Input parsed successfully to the following command list (including defaults):

basis kpoint-dependent
coords-type Lattice
core-overlap-check vector
coulomb-interaction Slab 001
davidson-band-ratio 1.1
dump End None
dump-name $INPUT.$VAR
elec-cutoff 20
elec-eigen-algo Davidson
elec-ex-corr gga-PBE
elec-initial-magnetization -0.240000 yes
elec-smearing Fermi 1e-05
electronic-minimize  \
	dirUpdateScheme      FletcherReeves \
	linminMethod         DirUpdateRecommended \
	nIterations          100 \
	history              15 \
	knormThreshold       0 \
	energyDiffThreshold  1e-08 \
	nEnergyDiff          2 \
	alphaTstart          1 \
	alphaTmin            1e-10 \
	updateTestStepSize   yes \
	alphaTreduceFactor   0.1 \
	alphaTincreaseFactor 3 \
	nAlphaAdjustMax      3 \
	wolfeEnergy          0.0001 \
	wolfeGradient        0.9 \
	fdTest               no
electronic-scf  \
	nIterations	10000 \
	energyDiffThreshold	1e-08 \
	residualThreshold	1e-07 \
	mixFraction	0.5 \
	qMetric	0.8 \
	history	10 \
	nEigSteps	2 \
	eigDiffThreshold	1e-08 \
	mixedVariable	Density \
	qKerker	0.8 \
	qKappa	-1 \
	verbose	no \
	mixFractionMag	1.5
exchange-regularization WignerSeitzTruncated
fluid None
fluid-ex-corr (null) lda-PZ
fluid-gummel-loop 10 1.000000e-05
fluid-minimize  \
	dirUpdateScheme      PolakRibiere \
	linminMethod         DirUpdateRecommended \
	nIterations          100 \
	history              15 \
	knormThreshold       0 \
	energyDiffThreshold  0 \
	nEnergyDiff          2 \
	alphaTstart          1 \
	alphaTmin            1e-10 \
	updateTestStepSize   yes \
	alphaTreduceFactor   0.1 \
	alphaTincreaseFactor 3 \
	nAlphaAdjustMax      3 \
	wolfeEnergy          0.0001 \
	wolfeGradient        0.9 \
	fdTest               no
fluid-solvent H2O 55.338 ScalarEOS \
	epsBulk 78.4 \
	pMol 0.92466 \
	epsInf 1.77 \
	Pvap 1.06736e-10 \
	sigmaBulk 4.62e-05 \
	Rvdw 2.61727 \
	Res 1.42 \
	tauNuc 343133 \
	poleEl 15 7 1
forces-output-coords Positions
ion Rb   0.000000000000000   0.000000000000000   0.000000000000000 0
ion-species SG15/$ID_ONCV_PBE.upf
ion-width 0
ionic-minimize  \
	dirUpdateScheme      L-BFGS \
	linminMethod         DirUpdateRecommended \
	nIterations          0 \
	history              15 \
	knormThreshold       0.0001 \
	energyDiffThreshold  1e-06 \
	nEnergyDiff          2 \
	alphaTstart          1 \
	alphaTmin            1e-10 \
	updateTestStepSize   yes \
	alphaTreduceFactor   0.1 \
	alphaTincreaseFactor 3 \
	nAlphaAdjustMax      3 \
	wolfeEnergy          0.0001 \
	wolfeGradient        0.9 \
	fdTest               no
kpoint   0.000000000000   0.000000000000   0.000000000000  1.00000000000000
kpoint-folding 12 12 1 
latt-move-scale 1 1 1
latt-scale 3 3 1 
lattice  \
	   4.727486978767153   -2.363743489383575    0.000000000000000  \
	  -0.000000000000000    4.094123819672498    0.000000000000000  \
	   0.000000000000000    0.000000000000000   40.000000000000000 
lattice-minimize  \
	dirUpdateScheme      L-BFGS \
	linminMethod         DirUpdateRecommended \
	nIterations          0 \
	history              15 \
	knormThreshold       0 \
	energyDiffThreshold  1e-06 \
	nEnergyDiff          2 \
	alphaTstart          1 \
	alphaTmin            1e-10 \
	updateTestStepSize   yes \
	alphaTreduceFactor   0.1 \
	alphaTincreaseFactor 3 \
	nAlphaAdjustMax      3 \
	wolfeEnergy          0.0001 \
	wolfeGradient        0.9 \
	fdTest               no
lcao-params -1 1e-06 1e-05
pcm-variant GLSSA13
spintype z-spin
subspace-rotation-factor 1 yes
symmetries automatic
symmetry-threshold 0.0001



---------- Setting up symmetries ----------

Found 24 point-group symmetries of the bravais lattice
Found 24 space-group symmetries with basis
Applied RMS atom displacement 0 bohrs to make symmetries exact.

---------- Initializing the Grid ----------
R = 
[      14.1825     -7.09123            0  ]
[            0      12.2824            0  ]
[            0            0           40  ]
unit cell volume = 6967.77
G =
[   0.443025   0.255781         -0  ]
[          0   0.511561         -0  ]
[         -0         -0    0.15708  ]
Minimum fftbox size, Smin = [  60  60  164  ]
Chosen fftbox size, S = [  60  60  168  ]

---------- Exchange Correlation functional ----------
Initalized PBE GGA exchange.
Initalized PBE GGA correlation.

---------- Setting up pseudopotentials ----------
Width of ionic core gaussian charges (only for fluid interactions / plotting) set to 0

Reading pseudopotential file '/home/gridsan/aligho/DFT/build-Nov24/pseudopotentials/SG15/Rb_ONCV_PBE.upf':
  'Rb' pseudopotential, 'PBE' functional
  Generated using ONCVPSP code by D. R. Hamann
  Author: Martin Schlipf and Francois Gygi  Date: 150915.
  9 valence electrons, 3 orbitals, 6 projectors, 2308 radial grid points, with lMax = 2
  Transforming local potential to a uniform radial grid of dG=0.02 with 1489 points.
  Transforming nonlocal projectors to a uniform radial grid of dG=0.02 with 432 points.
    4S    l: 0   occupation:  2.0   eigenvalue: -1.172069
    4P    l: 1   occupation:  6.0   eigenvalue: -0.586674
    5S    l: 0   occupation:  1.0   eigenvalue: -0.082006
  Transforming atomic orbitals to a uniform radial grid of dG=0.02 with 432 points.
  Core radius for overlap checks: 2.60 bohrs.
  Reading pulay file /home/gridsan/aligho/DFT/build-Nov24/pseudopotentials/SG15/Rb_ONCV_PBE.pulay ... using dE_dnG = -1.360715e-05 computed for Ecut = 20.

Initialized 1 species with 1 total atoms.

Folded 1 k-points by 12x12x1 to 144 k-points.

---------- Setting up k-points, bands, fillings ----------
Reduced to 19 k-points under symmetry. 
Computing the number of bands and number of electrons
Calculating initial fillings.
nElectrons:   9.000000   nBands: 6   nStates: 38

----- Setting up reduced wavefunction bases (one per k-point) -----
average nbasis = 29766.104 , ideal nbasis = 29766.845

---------- Setting up coulomb interaction ----------
Initialized slab truncation along lattice direction 001

---------- Setting up 2D ewald sum ----------
Optimum gaussian width for ewald sums = 7.873530 bohr.
Real space sums over 289 unit cells with max indices [  8  8  0  ]
Reciprocal space sums over 81 terms with max indices [  4  4  0  ]

---------- Allocating electronic variables ----------
Initializing wave functions:  linear combination of atomic orbitals
Note: number of bands (6) exceeds available atomic orbitals (5)
Rb pseudo-atom occupations:   s ( 2 1 )  p ( 6 )
	FillingsUpdate:  mu: -0.084914774  nElectrons: 9.000000  magneticMoment: [ Abs: 0.24000  Tot: -0.24000 ]
LCAOMinimize: Iter:   0  F: -24.4367450894062301  |grad|_K:  2.152e-05  alpha:  1.000e+00
	FillingsUpdate:  mu: -0.084910365  nElectrons: 9.000000  magneticMoment: [ Abs: 0.24000  Tot: -0.24000 ]
LCAOMinimize: Iter:   1  F: -24.4367454018191239  |grad|_K:  1.759e-07  alpha:  9.860e-01  linmin: -1.841e-02  cgtest:  4.539e-01  t[s]:      8.95
LCAOMinimize: Encountered beta<0, resetting CG.
	FillingsUpdate:  mu: -0.084910367  nElectrons: 9.000000  magneticMoment: [ Abs: 0.24000  Tot: -0.24000 ]
LCAOMinimize: Iter:   2  F: -24.4367454018400565  |grad|_K:  2.956e-09  alpha:  9.840e-01  linmin: -5.242e-02  cgtest:  9.941e-01  t[s]:     11.39
LCAOMinimize: Encountered beta<0, resetting CG.
LCAOMinimize: Converged (|Delta F|<1.000000e-06 for 2 iters).


---- Citations for features of the code used in this run ----

   Software package:
      R. Sundararaman, K. Letchworth-Weaver, K.A. Schwarz, D. Gunceler, Y. Ozhabes and T.A. Arias, 'JDFTx: software for joint density-functional theory', SoftwareX 6, 278 (2017)

   gga-PBE exchange-correlation functional:
      J.P. Perdew, K. Burke and M. Ernzerhof, Phys. Rev. Lett. 77, 3865 (1996)

   Pseudopotentials:
      M Schlipf and F Gygi, Comput. Phys. Commun. 196, 36 (2015)

   Truncated Coulomb potentials:
      R. Sundararaman and T.A. Arias, Phys. Rev. B 87, 165122 (2013)

This list may not be complete. Please suggest additional citations or
report any other bugs at https://github.com/shankar1729/jdftx/issues

Initialization completed successfully at t[s]:     11.56


-------- Electronic minimization -----------
Will mix electronic density at each iteration.
	FillingsUpdate:  mu: -0.084910367  nElectrons: 9.000000  magneticMoment: [ Abs: 0.24000  Tot: -0.24000 ]
	FillingsUpdate:  mu: -0.086889930  nElectrons: 9.000000  magneticMoment: [ Abs: 0.24000  Tot: -0.24000 ]
SCF: Cycle:  0   F: -24.438473403968416   dF: -1.728e-03   |Residual|: 3.807e-03   |deigs|: 1.737e-01  t[s]:     16.42
	FillingsUpdate:  mu: -0.087109475  nElectrons: 9.000000  magneticMoment: [ Abs: 0.24009  Tot: -0.24000 ]
SCF: Cycle:  1   F: -24.438515247083874   dF: -4.184e-05   |Residual|: 3.264e-03   |deigs|: 4.729e-03  t[s]:     20.23
	FillingsUpdate:  mu: -0.087522353  nElectrons: 9.000000  magneticMoment: [ Abs: 0.24198  Tot: -0.24000 ]
SCF: Cycle:  2   F: -24.438548785879220   dF: -3.354e-05   |Residual|: 1.819e-03   |deigs|: 2.064e-03  t[s]:     24.12
	FillingsUpdate:  mu: -0.087702906  nElectrons: 9.000000  magneticMoment: [ Abs: 0.24160  Tot: -0.24000 ]
SCF: Cycle:  3   F: -24.438561883640421   dF: -1.310e-05   |Residual|: 1.069e-03   |deigs|: 2.941e-03  t[s]:     28.03
	FillingsUpdate:  mu: -0.087645309  nElectrons: 9.000000  magneticMoment: [ Abs: 0.24030  Tot: -0.24000 ]
SCF: Cycle:  4   F: -24.438568522641951   dF: -6.639e-06   |Residual|: 6.025e-04   |deigs|: 2.249e-03  t[s]:     31.98
	FillingsUpdate:  mu: -0.087597302  nElectrons: 9.000000  magneticMoment: [ Abs: 0.24080  Tot: -0.24000 ]
SCF: Cycle:  5   F: -24.438571692889340   dF: -3.170e-06   |Residual|: 4.587e-04   |deigs|: 2.127e-03  t[s]:     35.98
	FillingsUpdate:  mu: -0.087418004  nElectrons: 9.000000  magneticMoment: [ Abs: 0.24074  Tot: -0.24000 ]
SCF: Cycle:  6   F: -24.438573353005147   dF: -1.660e-06   |Residual|: 3.437e-04   |deigs|: 8.657e-04  t[s]:     40.10
	FillingsUpdate:  mu: -0.087163254  nElectrons: 9.000000  magneticMoment: [ Abs: 0.24109  Tot: -0.24000 ]
SCF: Cycle:  7   F: -24.438573722865371   dF: -3.699e-07   |Residual|: 2.813e-04   |deigs|: 4.497e-04  t[s]:     44.31
	FillingsUpdate:  mu: -0.086905822  nElectrons: 9.000000  magneticMoment: [ Abs: 0.24176  Tot: -0.24000 ]
SCF: Cycle:  8   F: -24.438573696501198   dF: +2.636e-08   |Residual|: 2.277e-04   |deigs|: 2.864e-04  t[s]:     48.58
	FillingsUpdate:  mu: -0.086619341  nElectrons: 9.000000  magneticMoment: [ Abs: 0.24149  Tot: -0.24000 ]
SCF: Cycle:  9   F: -24.438573013994798   dF: +6.825e-07   |Residual|: 2.076e-04   |deigs|: 3.751e-04  t[s]:     52.87
	FillingsUpdate:  mu: -0.086366016  nElectrons: 9.000000  magneticMoment: [ Abs: 0.24147  Tot: -0.24000 ]
SCF: Cycle: 10   F: -24.438573645752705   dF: -6.318e-07   |Residual|: 1.864e-04   |deigs|: 4.105e-04  t[s]:     57.22
	FillingsUpdate:  mu: -0.086179624  nElectrons: 9.000000  magneticMoment: [ Abs: 0.24157  Tot: -0.24000 ]
SCF: Cycle: 11   F: -24.438574082662520   dF: -4.369e-07   |Residual|: 1.486e-04   |deigs|: 2.448e-04  t[s]:     61.61
	FillingsUpdate:  mu: -0.085979953  nElectrons: 9.000000  magneticMoment: [ Abs: 0.24158  Tot: -0.24000 ]
SCF: Cycle: 12   F: -24.438574243974156   dF: -1.613e-07   |Residual|: 1.336e-04   |deigs|: 4.168e-04  t[s]:     65.98
	FillingsUpdate:  mu: -0.085608763  nElectrons: 9.000000  magneticMoment: [ Abs: 0.24100  Tot: -0.24000 ]
SCF: Cycle: 13   F: -24.438573544716199   dF: +6.993e-07   |Residual|: 1.342e-04   |deigs|: 3.996e-04  t[s]:     70.30
	FillingsUpdate:  mu: -0.085423126  nElectrons: 9.000000  magneticMoment: [ Abs: 0.24103  Tot: -0.24000 ]
SCF: Cycle: 14   F: -24.438573844948795   dF: -3.002e-07   |Residual|: 1.231e-04   |deigs|: 2.331e-04  t[s]:     74.58
	FillingsUpdate:  mu: -0.085325573  nElectrons: 9.000000  magneticMoment: [ Abs: 0.24116  Tot: -0.24000 ]
SCF: Cycle: 15   F: -24.438575055397465   dF: -1.210e-06   |Residual|: 8.998e-05   |deigs|: 1.828e-04  t[s]:     78.95
	FillingsUpdate:  mu: -0.085142888  nElectrons: 9.000000  magneticMoment: [ Abs: 0.24082  Tot: -0.24000 ]
SCF: Cycle: 16   F: -24.438575472857384   dF: -4.175e-07   |Residual|: 6.755e-05   |deigs|: 1.999e-04  t[s]:     83.19
	FillingsUpdate:  mu: -0.085018786  nElectrons: 9.000000  magneticMoment: [ Abs: 0.24078  Tot: -0.24000 ]
SCF: Cycle: 17   F: -24.438575588089414   dF: -1.152e-07   |Residual|: 4.292e-05   |deigs|: 2.978e-04  t[s]:     87.44
	FillingsUpdate:  mu: -0.085026819  nElectrons: 9.000000  magneticMoment: [ Abs: 0.24076  Tot: -0.24000 ]
SCF: Cycle: 18   F: -24.438575664742920   dF: -7.665e-08   |Residual|: 2.874e-05   |deigs|: 8.440e-05  t[s]:     91.84
	FillingsUpdate:  mu: -0.085048984  nElectrons: 9.000000  magneticMoment: [ Abs: 0.24078  Tot: -0.24000 ]
SCF: Cycle: 19   F: -24.438575704495982   dF: -3.975e-08   |Residual|: 1.622e-05   |deigs|: 3.349e-05  t[s]:     96.24
	FillingsUpdate:  mu: -0.085049346  nElectrons: 9.000000  magneticMoment: [ Abs: 0.24078  Tot: -0.24000 ]
SCF: Cycle: 20   F: -24.438575716255706   dF: -1.176e-08   |Residual|: 1.079e-05   |deigs|: 1.167e-05  t[s]:    100.53
	FillingsUpdate:  mu: -0.085050911  nElectrons: 9.000000  magneticMoment: [ Abs: 0.24078  Tot: -0.24000 ]
SCF: Cycle: 21   F: -24.438575723429981   dF: -7.174e-09   |Residual|: 6.123e-06   |deigs|: 9.455e-06  t[s]:    104.93
	FillingsUpdate:  mu: -0.085052235  nElectrons: 9.000000  magneticMoment: [ Abs: 0.24078  Tot: -0.24000 ]
SCF: Cycle: 22   F: -24.438575725784588   dF: -2.355e-09   |Residual|: 3.876e-06   |deigs|: 8.102e-06  t[s]:    109.21
SCF: Converged (|Delta E|<1.000000e-08 for 2 iters).


# Ionic positions in lattice coordinates:
ion Rb   0.000000000000000   0.000000000000000   0.000000000000000 0

# Forces in Lattice coordinates:
force Rb  -0.000000000000000  -0.000000000000000   0.000000000000000 0

# Energy components:
   Eewald =      -12.0320174002217755
       EH =        7.4878477130443866
     Eloc =      -22.3978292043996596
      Enl =       -0.7978221921075690
   Epulay =       -0.0000000014467880
      Exc =       -3.6468892402285742
       KE =        6.9481349415026212
-------------------------------------
     Etot =      -24.4385753838573621
       TS =        0.0000003419272243
-------------------------------------
        F =      -24.4385757257845881

IonicMinimize: Iter:   0  F: -24.438575725784588  |grad|_K:  0.000e+00  t[s]:    109.47
IonicMinimize: Converged (|grad|_K<1.000000e-04).

#--- Lowdin population analysis ---
# oxidation-state Rb +0.031
# magnetic-moments Rb -0.225

End date and time: Sun Feb  6 12:44:14 2022  (Duration: 0-0:01:49.52)
Done!
