
*************** JDFTx 1.6.0 (git hash 42ebbcc2) ***************

Start date and time: Sun Feb  6 12:35:56 2022
Executable jdftx with command-line: -i Alkali.in
Running on hosts (process indices):  d-4-2-2 (0-18)
Divided in process groups (process indices):  0 (0)  1 (1)  2 (2)  3 (3)  4 (4)  5 (5)  6 (6)  7 (7)  8 (8)  9 (9)  10 (10)  11 (11)  12 (12)  13 (13)  14 (14)  15 (15)  16 (16)  17 (17)  18 (18)
Resource initialization completed at t[s]:      0.00
Run totals: 19 processes, 48 threads, 0 GPUs


Input parsed successfully to the following command list (including defaults):

basis kpoint-dependent
coords-type Lattice
core-overlap-check vector
coulomb-interaction Slab 001
davidson-band-ratio 1.1
dump End None
dump-name $INPUT.$VAR
elec-cutoff 20
elec-eigen-algo Davidson
elec-ex-corr gga-PBE
elec-initial-magnetization -1.000000 yes
elec-smearing Fermi 1e-05
electronic-minimize  \
	dirUpdateScheme      FletcherReeves \
	linminMethod         DirUpdateRecommended \
	nIterations          100 \
	history              15 \
	knormThreshold       0 \
	energyDiffThreshold  1e-08 \
	nEnergyDiff          2 \
	alphaTstart          1 \
	alphaTmin            1e-10 \
	updateTestStepSize   yes \
	alphaTreduceFactor   0.1 \
	alphaTincreaseFactor 3 \
	nAlphaAdjustMax      3 \
	wolfeEnergy          0.0001 \
	wolfeGradient        0.9 \
	fdTest               no
electronic-scf  \
	nIterations	10000 \
	energyDiffThreshold	1e-08 \
	residualThreshold	1e-07 \
	mixFraction	0.5 \
	qMetric	0.8 \
	history	10 \
	nEigSteps	2 \
	eigDiffThreshold	1e-08 \
	mixedVariable	Density \
	qKerker	0.8 \
	qKappa	-1 \
	verbose	no \
	mixFractionMag	1.5
exchange-regularization WignerSeitzTruncated
fluid None
fluid-ex-corr (null) lda-PZ
fluid-gummel-loop 10 1.000000e-05
fluid-minimize  \
	dirUpdateScheme      PolakRibiere \
	linminMethod         DirUpdateRecommended \
	nIterations          100 \
	history              15 \
	knormThreshold       0 \
	energyDiffThreshold  0 \
	nEnergyDiff          2 \
	alphaTstart          1 \
	alphaTmin            1e-10 \
	updateTestStepSize   yes \
	alphaTreduceFactor   0.1 \
	alphaTincreaseFactor 3 \
	nAlphaAdjustMax      3 \
	wolfeEnergy          0.0001 \
	wolfeGradient        0.9 \
	fdTest               no
fluid-solvent H2O 55.338 ScalarEOS \
	epsBulk 78.4 \
	pMol 0.92466 \
	epsInf 1.77 \
	Pvap 1.06736e-10 \
	sigmaBulk 4.62e-05 \
	Rvdw 2.61727 \
	Res 1.42 \
	tauNuc 343133 \
	poleEl 15 7 1
forces-output-coords Positions
ion Rb   0.000000000000000   0.000000000000000   0.000000000000000 0
ion-species SG15/$ID_ONCV_PBE.upf
ion-width 0
ionic-minimize  \
	dirUpdateScheme      L-BFGS \
	linminMethod         DirUpdateRecommended \
	nIterations          0 \
	history              15 \
	knormThreshold       0.0001 \
	energyDiffThreshold  1e-06 \
	nEnergyDiff          2 \
	alphaTstart          1 \
	alphaTmin            1e-10 \
	updateTestStepSize   yes \
	alphaTreduceFactor   0.1 \
	alphaTincreaseFactor 3 \
	nAlphaAdjustMax      3 \
	wolfeEnergy          0.0001 \
	wolfeGradient        0.9 \
	fdTest               no
kpoint   0.000000000000   0.000000000000   0.000000000000  1.00000000000000
kpoint-folding 12 12 1 
latt-move-scale 1 1 1
latt-scale 3 3 1 
lattice  \
	   4.727486978767153   -2.363743489383575    0.000000000000000  \
	  -0.000000000000000    4.094123819672498    0.000000000000000  \
	   0.000000000000000    0.000000000000000   40.000000000000000 
lattice-minimize  \
	dirUpdateScheme      L-BFGS \
	linminMethod         DirUpdateRecommended \
	nIterations          0 \
	history              15 \
	knormThreshold       0 \
	energyDiffThreshold  1e-06 \
	nEnergyDiff          2 \
	alphaTstart          1 \
	alphaTmin            1e-10 \
	updateTestStepSize   yes \
	alphaTreduceFactor   0.1 \
	alphaTincreaseFactor 3 \
	nAlphaAdjustMax      3 \
	wolfeEnergy          0.0001 \
	wolfeGradient        0.9 \
	fdTest               no
lcao-params -1 1e-06 1e-05
pcm-variant GLSSA13
spintype z-spin
subspace-rotation-factor 1 yes
symmetries automatic
symmetry-threshold 0.0001



---------- Setting up symmetries ----------

Found 24 point-group symmetries of the bravais lattice
Found 24 space-group symmetries with basis
Applied RMS atom displacement 0 bohrs to make symmetries exact.

---------- Initializing the Grid ----------
R = 
[      14.1825     -7.09123            0  ]
[            0      12.2824            0  ]
[            0            0           40  ]
unit cell volume = 6967.77
G =
[   0.443025   0.255781         -0  ]
[          0   0.511561         -0  ]
[         -0         -0    0.15708  ]
Minimum fftbox size, Smin = [  60  60  164  ]
Chosen fftbox size, S = [  60  60  168  ]

---------- Exchange Correlation functional ----------
Initalized PBE GGA exchange.
Initalized PBE GGA correlation.

---------- Setting up pseudopotentials ----------
Width of ionic core gaussian charges (only for fluid interactions / plotting) set to 0

Reading pseudopotential file '/home/gridsan/aligho/DFT/build-Nov24/pseudopotentials/SG15/Rb_ONCV_PBE.upf':
  'Rb' pseudopotential, 'PBE' functional
  Generated using ONCVPSP code by D. R. Hamann
  Author: Martin Schlipf and Francois Gygi  Date: 150915.
  9 valence electrons, 3 orbitals, 6 projectors, 2308 radial grid points, with lMax = 2
  Transforming local potential to a uniform radial grid of dG=0.02 with 1489 points.
  Transforming nonlocal projectors to a uniform radial grid of dG=0.02 with 432 points.
    4S    l: 0   occupation:  2.0   eigenvalue: -1.172069
    4P    l: 1   occupation:  6.0   eigenvalue: -0.586674
    5S    l: 0   occupation:  1.0   eigenvalue: -0.082006
  Transforming atomic orbitals to a uniform radial grid of dG=0.02 with 432 points.
  Core radius for overlap checks: 2.60 bohrs.
  Reading pulay file /home/gridsan/aligho/DFT/build-Nov24/pseudopotentials/SG15/Rb_ONCV_PBE.pulay ... using dE_dnG = -1.360715e-05 computed for Ecut = 20.

Initialized 1 species with 1 total atoms.

Folded 1 k-points by 12x12x1 to 144 k-points.

---------- Setting up k-points, bands, fillings ----------
Reduced to 19 k-points under symmetry. 
Computing the number of bands and number of electrons
Calculating initial fillings.
nElectrons:   9.000000   nBands: 6   nStates: 38

----- Setting up reduced wavefunction bases (one per k-point) -----
average nbasis = 29766.104 , ideal nbasis = 29766.845

---------- Setting up coulomb interaction ----------
Initialized slab truncation along lattice direction 001

---------- Setting up 2D ewald sum ----------
Optimum gaussian width for ewald sums = 7.873530 bohr.
Real space sums over 289 unit cells with max indices [  8  8  0  ]
Reciprocal space sums over 81 terms with max indices [  4  4  0  ]

---------- Allocating electronic variables ----------
Initializing wave functions:  linear combination of atomic orbitals
Note: number of bands (6) exceeds available atomic orbitals (5)
Rb pseudo-atom occupations:   s ( 2 1 )  p ( 6 )
	FillingsUpdate:  mu: -0.100000000  nElectrons: 9.000000  magneticMoment: [ Abs: 1.00000  Tot: -1.00000 ]
LCAOMinimize: Iter:   0  F: -24.4340240772303083  |grad|_K:       -nan  alpha:  1.000e+00
LCAOMinimize: |grad|_K=-nan. Stopping ...


---- Citations for features of the code used in this run ----

   Software package:
      R. Sundararaman, K. Letchworth-Weaver, K.A. Schwarz, D. Gunceler, Y. Ozhabes and T.A. Arias, 'JDFTx: software for joint density-functional theory', SoftwareX 6, 278 (2017)

   gga-PBE exchange-correlation functional:
      J.P. Perdew, K. Burke and M. Ernzerhof, Phys. Rev. Lett. 77, 3865 (1996)

   Pseudopotentials:
      M Schlipf and F Gygi, Comput. Phys. Commun. 196, 36 (2015)

   Truncated Coulomb potentials:
      R. Sundararaman and T.A. Arias, Phys. Rev. B 87, 165122 (2013)

This list may not be complete. Please suggest additional citations or
report any other bugs at https://github.com/shankar1729/jdftx/issues

Initialization completed successfully at t[s]:      6.68


-------- Electronic minimization -----------
Will mix electronic density at each iteration.
	FillingsUpdate:  mu: -0.100000000  nElectrons: 9.000000  magneticMoment: [ Abs: 1.00000  Tot: -1.00000 ]
	FillingsUpdate:  mu: -0.100000000  nElectrons: 9.000000  magneticMoment: [ Abs: 1.00000  Tot: -1.00000 ]
SCF: Cycle:  0   F: -24.435138666287401   dF: -1.115e-03   |Residual|: 3.387e-03   |deigs|: 1.689e-01  t[s]:     11.59
	FillingsUpdate:  mu: -0.100000000  nElectrons: 9.000000  magneticMoment: [ Abs: 1.00390  Tot: -1.00000 ]
SCF: Cycle:  1   F: -24.435193724607934   dF: -5.506e-05   |Residual|: 2.124e-03   |deigs|: 9.702e-03  t[s]:     15.36
	FillingsUpdate:  mu: -0.100000000  nElectrons: 9.000000  magneticMoment: [ Abs: 1.00501  Tot: -1.00000 ]
SCF: Cycle:  2   F: -24.435224971425384   dF: -3.125e-05   |Residual|: 1.761e-03   |deigs|: 3.164e-03  t[s]:     19.23
	FillingsUpdate:  mu: -0.100000000  nElectrons: 9.000000  magneticMoment: [ Abs: 1.00647  Tot: -1.00000 ]
SCF: Cycle:  3   F: -24.435251961227134   dF: -2.699e-05   |Residual|: 1.392e-03   |deigs|: 2.288e-03  t[s]:     23.21
	FillingsUpdate:  mu: -0.100000000  nElectrons: 9.000000  magneticMoment: [ Abs: 1.00504  Tot: -1.00000 ]
SCF: Cycle:  4   F: -24.435269454522928   dF: -1.749e-05   |Residual|: 9.731e-04   |deigs|: 1.765e-03  t[s]:     27.28
	FillingsUpdate:  mu: -0.100000000  nElectrons: 9.000000  magneticMoment: [ Abs: 1.00548  Tot: -1.00000 ]
SCF: Cycle:  5   F: -24.435275334949790   dF: -5.880e-06   |Residual|: 4.925e-04   |deigs|: 1.370e-03  t[s]:     31.34
	FillingsUpdate:  mu: -0.100000000  nElectrons: 9.000000  magneticMoment: [ Abs: 1.00527  Tot: -1.00000 ]
SCF: Cycle:  6   F: -24.435276808892421   dF: -1.474e-06   |Residual|: 3.407e-04   |deigs|: 1.380e-03  t[s]:     35.44
	FillingsUpdate:  mu: -0.100000000  nElectrons: 9.000000  magneticMoment: [ Abs: 1.00569  Tot: -1.00000 ]
SCF: Cycle:  7   F: -24.435277910880437   dF: -1.102e-06   |Residual|: 2.896e-04   |deigs|: 6.777e-04  t[s]:     39.66
	FillingsUpdate:  mu: -0.100000000  nElectrons: 9.000000  magneticMoment: [ Abs: 1.00561  Tot: -1.00000 ]
SCF: Cycle:  8   F: -24.435278743464941   dF: -8.326e-07   |Residual|: 2.150e-04   |deigs|: 5.144e-04  t[s]:     43.96
	FillingsUpdate:  mu: -0.100000000  nElectrons: 9.000000  magneticMoment: [ Abs: 1.00562  Tot: -1.00000 ]
SCF: Cycle:  9   F: -24.435278777519663   dF: -3.405e-08   |Residual|: 1.990e-04   |deigs|: 4.443e-04  t[s]:     48.25
	FillingsUpdate:  mu: -0.100000000  nElectrons: 9.000000  magneticMoment: [ Abs: 1.00559  Tot: -1.00000 ]
SCF: Cycle: 10   F: -24.435279056653378   dF: -2.791e-07   |Residual|: 1.704e-04   |deigs|: 3.662e-04  t[s]:     52.67
	FillingsUpdate:  mu: -0.100000000  nElectrons: 9.000000  magneticMoment: [ Abs: 1.00617  Tot: -1.00000 ]
SCF: Cycle: 11   F: -24.435278553869253   dF: +5.028e-07   |Residual|: 1.428e-04   |deigs|: 2.452e-04  t[s]:     57.05
	FillingsUpdate:  mu: -0.100000000  nElectrons: 9.000000  magneticMoment: [ Abs: 1.00565  Tot: -1.00000 ]
SCF: Cycle: 12   F: -24.435279256604993   dF: -7.027e-07   |Residual|: 1.028e-04   |deigs|: 9.723e-04  t[s]:     61.42
	FillingsUpdate:  mu: -0.100000000  nElectrons: 9.000000  magneticMoment: [ Abs: 1.00603  Tot: -1.00000 ]
SCF: Cycle: 13   F: -24.435279901501421   dF: -6.449e-07   |Residual|: 1.058e-04   |deigs|: 3.290e-04  t[s]:     65.86
	FillingsUpdate:  mu: -0.100000000  nElectrons: 9.000000  magneticMoment: [ Abs: 1.00638  Tot: -1.00000 ]
SCF: Cycle: 14   F: -24.435279936791691   dF: -3.529e-08   |Residual|: 1.050e-04   |deigs|: 2.644e-04  t[s]:     70.20
	FillingsUpdate:  mu: -0.100000000  nElectrons: 9.000000  magneticMoment: [ Abs: 1.00642  Tot: -1.00000 ]
SCF: Cycle: 15   F: -24.435279806110941   dF: +1.307e-07   |Residual|: 9.118e-05   |deigs|: 3.177e-04  t[s]:     74.58
	FillingsUpdate:  mu: -0.100000000  nElectrons: 9.000000  magneticMoment: [ Abs: 1.00603  Tot: -1.00000 ]
SCF: Cycle: 16   F: -24.435280071647494   dF: -2.655e-07   |Residual|: 7.512e-05   |deigs|: 6.992e-04  t[s]:     78.95
	FillingsUpdate:  mu: -0.100000000  nElectrons: 9.000000  magneticMoment: [ Abs: 1.00584  Tot: -1.00000 ]
SCF: Cycle: 17   F: -24.435280215373265   dF: -1.437e-07   |Residual|: 5.936e-05   |deigs|: 4.477e-04  t[s]:     83.37
	FillingsUpdate:  mu: -0.100000000  nElectrons: 9.000000  magneticMoment: [ Abs: 1.00566  Tot: -1.00000 ]
SCF: Cycle: 18   F: -24.435280337834868   dF: -1.225e-07   |Residual|: 4.138e-05   |deigs|: 4.181e-04  t[s]:     87.77
	FillingsUpdate:  mu: -0.100000000  nElectrons: 9.000000  magneticMoment: [ Abs: 1.00566  Tot: -1.00000 ]
SCF: Cycle: 19   F: -24.435280417122275   dF: -7.929e-08   |Residual|: 2.622e-05   |deigs|: 2.185e-04  t[s]:     92.11
	FillingsUpdate:  mu: -0.100000000  nElectrons: 9.000000  magneticMoment: [ Abs: 1.00553  Tot: -1.00000 ]
SCF: Cycle: 20   F: -24.435280440813088   dF: -2.369e-08   |Residual|: 2.125e-05   |deigs|: 2.706e-04  t[s]:     96.48
	FillingsUpdate:  mu: -0.100000000  nElectrons: 9.000000  magneticMoment: [ Abs: 1.00551  Tot: -1.00000 ]
SCF: Cycle: 21   F: -24.435280452936162   dF: -1.212e-08   |Residual|: 1.372e-05   |deigs|: 4.138e-04  t[s]:    100.82
	FillingsUpdate:  mu: -0.100000000  nElectrons: 9.000000  magneticMoment: [ Abs: 1.00550  Tot: -1.00000 ]
SCF: Cycle: 22   F: -24.435280463645832   dF: -1.071e-08   |Residual|: 1.037e-05   |deigs|: 1.344e-04  t[s]:    105.15
	FillingsUpdate:  mu: -0.100000000  nElectrons: 9.000000  magneticMoment: [ Abs: 1.00548  Tot: -1.00000 ]
SCF: Cycle: 23   F: -24.435280471216466   dF: -7.571e-09   |Residual|: 7.566e-06   |deigs|: 3.134e-04  t[s]:    109.54
	FillingsUpdate:  mu: -0.100000000  nElectrons: 9.000000  magneticMoment: [ Abs: 1.00549  Tot: -1.00000 ]
SCF: Cycle: 24   F: -24.435280476334455   dF: -5.118e-09   |Residual|: 5.652e-06   |deigs|: 3.863e-04  t[s]:    113.94
SCF: Converged (|Delta E|<1.000000e-08 for 2 iters).


# Ionic positions in lattice coordinates:
ion Rb   0.000000000000000   0.000000000000000   0.000000000000000 0

# Forces in Lattice coordinates:
force Rb  -0.000000000000000  -0.000000000000000   0.000000000000000 0

# Energy components:
   Eewald =      -12.0320174002217755
       EH =        7.5440549706268456
     Eloc =      -22.4608872360888689
      Enl =       -0.7942398692204011
   Epulay =       -0.0000000014467880
      Exc =       -3.6558229911256181
       KE =        6.9636320511421523
-------------------------------------
     Etot =      -24.4352804763344551
       TS =        0.0000000000000000
-------------------------------------
        F =      -24.4352804763344551

IonicMinimize: Iter:   0  F: -24.435280476334455  |grad|_K:  0.000e+00  t[s]:    114.20
IonicMinimize: Converged (|grad|_K<1.000000e-04).

#--- Lowdin population analysis ---
# oxidation-state Rb +0.026
# magnetic-moments Rb -0.974

End date and time: Sun Feb  6 12:37:50 2022  (Duration: 0-0:01:54.26)
Done!
