
*************** JDFTx 1.6.0 (git hash 42ebbcc2) ***************

Start date and time: Sun Feb  6 12:55:51 2022
Executable jdftx with command-line: -i Alkali.in
Running on hosts (process indices):  d-4-6-3 (0-18)
Divided in process groups (process indices):  0 (0)  1 (1)  2 (2)  3 (3)  4 (4)  5 (5)  6 (6)  7 (7)  8 (8)  9 (9)  10 (10)  11 (11)  12 (12)  13 (13)  14 (14)  15 (15)  16 (16)  17 (17)  18 (18)
Resource initialization completed at t[s]:      0.00
Run totals: 19 processes, 48 threads, 0 GPUs


Input parsed successfully to the following command list (including defaults):

basis kpoint-dependent
coords-type Lattice
core-overlap-check vector
coulomb-interaction Slab 001
davidson-band-ratio 1.1
dump End None
dump-name $INPUT.$VAR
elec-cutoff 20
elec-eigen-algo Davidson
elec-ex-corr gga-PBE
elec-initial-magnetization 0.800000 yes
elec-smearing Fermi 1e-05
electronic-minimize  \
	dirUpdateScheme      FletcherReeves \
	linminMethod         DirUpdateRecommended \
	nIterations          100 \
	history              15 \
	knormThreshold       0 \
	energyDiffThreshold  1e-08 \
	nEnergyDiff          2 \
	alphaTstart          1 \
	alphaTmin            1e-10 \
	updateTestStepSize   yes \
	alphaTreduceFactor   0.1 \
	alphaTincreaseFactor 3 \
	nAlphaAdjustMax      3 \
	wolfeEnergy          0.0001 \
	wolfeGradient        0.9 \
	fdTest               no
electronic-scf  \
	nIterations	10000 \
	energyDiffThreshold	1e-08 \
	residualThreshold	1e-07 \
	mixFraction	0.5 \
	qMetric	0.8 \
	history	10 \
	nEigSteps	2 \
	eigDiffThreshold	1e-08 \
	mixedVariable	Density \
	qKerker	0.8 \
	qKappa	-1 \
	verbose	no \
	mixFractionMag	1.5
exchange-regularization WignerSeitzTruncated
fluid None
fluid-ex-corr (null) lda-PZ
fluid-gummel-loop 10 1.000000e-05
fluid-minimize  \
	dirUpdateScheme      PolakRibiere \
	linminMethod         DirUpdateRecommended \
	nIterations          100 \
	history              15 \
	knormThreshold       0 \
	energyDiffThreshold  0 \
	nEnergyDiff          2 \
	alphaTstart          1 \
	alphaTmin            1e-10 \
	updateTestStepSize   yes \
	alphaTreduceFactor   0.1 \
	alphaTincreaseFactor 3 \
	nAlphaAdjustMax      3 \
	wolfeEnergy          0.0001 \
	wolfeGradient        0.9 \
	fdTest               no
fluid-solvent H2O 55.338 ScalarEOS \
	epsBulk 78.4 \
	pMol 0.92466 \
	epsInf 1.77 \
	Pvap 1.06736e-10 \
	sigmaBulk 4.62e-05 \
	Rvdw 2.61727 \
	Res 1.42 \
	tauNuc 343133 \
	poleEl 15 7 1
forces-output-coords Positions
ion Rb   0.000000000000000   0.000000000000000   0.000000000000000 0
ion-species SG15/$ID_ONCV_PBE.upf
ion-width 0
ionic-minimize  \
	dirUpdateScheme      L-BFGS \
	linminMethod         DirUpdateRecommended \
	nIterations          0 \
	history              15 \
	knormThreshold       0.0001 \
	energyDiffThreshold  1e-06 \
	nEnergyDiff          2 \
	alphaTstart          1 \
	alphaTmin            1e-10 \
	updateTestStepSize   yes \
	alphaTreduceFactor   0.1 \
	alphaTincreaseFactor 3 \
	nAlphaAdjustMax      3 \
	wolfeEnergy          0.0001 \
	wolfeGradient        0.9 \
	fdTest               no
kpoint   0.000000000000   0.000000000000   0.000000000000  1.00000000000000
kpoint-folding 12 12 1 
latt-move-scale 1 1 1
latt-scale 3 3 1 
lattice  \
	   4.727486978767153   -2.363743489383575    0.000000000000000  \
	  -0.000000000000000    4.094123819672498    0.000000000000000  \
	   0.000000000000000    0.000000000000000   40.000000000000000 
lattice-minimize  \
	dirUpdateScheme      L-BFGS \
	linminMethod         DirUpdateRecommended \
	nIterations          0 \
	history              15 \
	knormThreshold       0 \
	energyDiffThreshold  1e-06 \
	nEnergyDiff          2 \
	alphaTstart          1 \
	alphaTmin            1e-10 \
	updateTestStepSize   yes \
	alphaTreduceFactor   0.1 \
	alphaTincreaseFactor 3 \
	nAlphaAdjustMax      3 \
	wolfeEnergy          0.0001 \
	wolfeGradient        0.9 \
	fdTest               no
lcao-params -1 1e-06 1e-05
pcm-variant GLSSA13
spintype z-spin
subspace-rotation-factor 1 yes
symmetries automatic
symmetry-threshold 0.0001



---------- Setting up symmetries ----------

Found 24 point-group symmetries of the bravais lattice
Found 24 space-group symmetries with basis
Applied RMS atom displacement 0 bohrs to make symmetries exact.

---------- Initializing the Grid ----------
R = 
[      14.1825     -7.09123            0  ]
[            0      12.2824            0  ]
[            0            0           40  ]
unit cell volume = 6967.77
G =
[   0.443025   0.255781         -0  ]
[          0   0.511561         -0  ]
[         -0         -0    0.15708  ]
Minimum fftbox size, Smin = [  60  60  164  ]
Chosen fftbox size, S = [  60  60  168  ]

---------- Exchange Correlation functional ----------
Initalized PBE GGA exchange.
Initalized PBE GGA correlation.

---------- Setting up pseudopotentials ----------
Width of ionic core gaussian charges (only for fluid interactions / plotting) set to 0

Reading pseudopotential file '/home/gridsan/aligho/DFT/build-Nov24/pseudopotentials/SG15/Rb_ONCV_PBE.upf':
  'Rb' pseudopotential, 'PBE' functional
  Generated using ONCVPSP code by D. R. Hamann
  Author: Martin Schlipf and Francois Gygi  Date: 150915.
  9 valence electrons, 3 orbitals, 6 projectors, 2308 radial grid points, with lMax = 2
  Transforming local potential to a uniform radial grid of dG=0.02 with 1489 points.
  Transforming nonlocal projectors to a uniform radial grid of dG=0.02 with 432 points.
    4S    l: 0   occupation:  2.0   eigenvalue: -1.172069
    4P    l: 1   occupation:  6.0   eigenvalue: -0.586674
    5S    l: 0   occupation:  1.0   eigenvalue: -0.082006
  Transforming atomic orbitals to a uniform radial grid of dG=0.02 with 432 points.
  Core radius for overlap checks: 2.60 bohrs.
  Reading pulay file /home/gridsan/aligho/DFT/build-Nov24/pseudopotentials/SG15/Rb_ONCV_PBE.pulay ... using dE_dnG = -1.360715e-05 computed for Ecut = 20.

Initialized 1 species with 1 total atoms.

Folded 1 k-points by 12x12x1 to 144 k-points.

---------- Setting up k-points, bands, fillings ----------
Reduced to 19 k-points under symmetry. 
Computing the number of bands and number of electrons
Calculating initial fillings.
nElectrons:   9.000000   nBands: 6   nStates: 38

----- Setting up reduced wavefunction bases (one per k-point) -----
average nbasis = 29766.104 , ideal nbasis = 29766.845

---------- Setting up coulomb interaction ----------
Initialized slab truncation along lattice direction 001

---------- Setting up 2D ewald sum ----------
Optimum gaussian width for ewald sums = 7.873530 bohr.
Real space sums over 289 unit cells with max indices [  8  8  0  ]
Reciprocal space sums over 81 terms with max indices [  4  4  0  ]

---------- Allocating electronic variables ----------
Initializing wave functions:  linear combination of atomic orbitals
Note: number of bands (6) exceeds available atomic orbitals (5)
Rb pseudo-atom occupations:   s ( 2 1 )  p ( 6 )
	FillingsUpdate:  mu: -0.085643158  nElectrons: 9.000000  magneticMoment: [ Abs: 0.80000  Tot: +0.80000 ]
LCAOMinimize: Iter:   0  F: -24.4348215028411708  |grad|_K:  8.035e-06  alpha:  1.000e+00
	FillingsUpdate:  mu: -0.085641587  nElectrons: 9.000000  magneticMoment: [ Abs: 0.80000  Tot: +0.80000 ]
LCAOMinimize: Iter:   1  F: -24.4348215466445247  |grad|_K:  5.568e-08  alpha:  9.918e-01  linmin: -6.489e-03  cgtest:  1.436e-01  t[s]:      8.86
LCAOMinimize: Encountered beta<0, resetting CG.
	FillingsUpdate:  mu: -0.085641593  nElectrons: 9.000000  magneticMoment: [ Abs: 0.80000  Tot: +0.80000 ]
LCAOMinimize: Iter:   2  F: -24.4348215466465071  |grad|_K:  3.543e-09  alpha:  9.337e-01  linmin: -1.228e-01  cgtest:  9.956e-01  t[s]:     11.23
LCAOMinimize: Encountered beta<0, resetting CG.
LCAOMinimize: Converged (|Delta F|<1.000000e-06 for 2 iters).


---- Citations for features of the code used in this run ----

   Software package:
      R. Sundararaman, K. Letchworth-Weaver, K.A. Schwarz, D. Gunceler, Y. Ozhabes and T.A. Arias, 'JDFTx: software for joint density-functional theory', SoftwareX 6, 278 (2017)

   gga-PBE exchange-correlation functional:
      J.P. Perdew, K. Burke and M. Ernzerhof, Phys. Rev. Lett. 77, 3865 (1996)

   Pseudopotentials:
      M Schlipf and F Gygi, Comput. Phys. Commun. 196, 36 (2015)

   Truncated Coulomb potentials:
      R. Sundararaman and T.A. Arias, Phys. Rev. B 87, 165122 (2013)

This list may not be complete. Please suggest additional citations or
report any other bugs at https://github.com/shankar1729/jdftx/issues

Initialization completed successfully at t[s]:     11.39


-------- Electronic minimization -----------
Will mix electronic density at each iteration.
	FillingsUpdate:  mu: -0.085641593  nElectrons: 9.000000  magneticMoment: [ Abs: 0.80000  Tot: +0.80000 ]
	FillingsUpdate:  mu: -0.086466085  nElectrons: 9.000000  magneticMoment: [ Abs: 0.80000  Tot: +0.80000 ]
SCF: Cycle:  0   F: -24.436208303362118   dF: -1.387e-03   |Residual|: 3.788e-03   |deigs|: 1.733e-01  t[s]:     16.20
	FillingsUpdate:  mu: -0.086742795  nElectrons: 9.000000  magneticMoment: [ Abs: 0.80158  Tot: +0.80000 ]
SCF: Cycle:  1   F: -24.436270417746925   dF: -6.211e-05   |Residual|: 2.764e-03   |deigs|: 5.054e-03  t[s]:     19.96
	FillingsUpdate:  mu: -0.087060825  nElectrons: 9.000000  magneticMoment: [ Abs: 0.80360  Tot: +0.80000 ]
SCF: Cycle:  2   F: -24.436309251262141   dF: -3.883e-05   |Residual|: 2.136e-03   |deigs|: 1.881e-03  t[s]:     23.79
	FillingsUpdate:  mu: -0.087437765  nElectrons: 9.000000  magneticMoment: [ Abs: 0.80462  Tot: +0.80000 ]
SCF: Cycle:  3   F: -24.436343175085025   dF: -3.392e-05   |Residual|: 1.599e-03   |deigs|: 2.669e-03  t[s]:     27.69
	FillingsUpdate:  mu: -0.087335834  nElectrons: 9.000000  magneticMoment: [ Abs: 0.80300  Tot: +0.80000 ]
SCF: Cycle:  4   F: -24.436366019002108   dF: -2.284e-05   |Residual|: 9.135e-04   |deigs|: 1.877e-03  t[s]:     31.56
	FillingsUpdate:  mu: -0.087242309  nElectrons: 9.000000  magneticMoment: [ Abs: 0.80361  Tot: +0.80000 ]
SCF: Cycle:  5   F: -24.436373124986474   dF: -7.106e-06   |Residual|: 5.201e-04   |deigs|: 1.428e-03  t[s]:     35.49
	FillingsUpdate:  mu: -0.087157143  nElectrons: 9.000000  magneticMoment: [ Abs: 0.80323  Tot: +0.80000 ]
SCF: Cycle:  6   F: -24.436377021462793   dF: -3.896e-06   |Residual|: 3.863e-04   |deigs|: 1.257e-03  t[s]:     39.56
	FillingsUpdate:  mu: -0.086970792  nElectrons: 9.000000  magneticMoment: [ Abs: 0.80355  Tot: +0.80000 ]
SCF: Cycle:  7   F: -24.436379017661487   dF: -1.996e-06   |Residual|: 2.907e-04   |deigs|: 7.950e-04  t[s]:     43.76
	FillingsUpdate:  mu: -0.086635009  nElectrons: 9.000000  magneticMoment: [ Abs: 0.80420  Tot: +0.80000 ]
SCF: Cycle:  8   F: -24.436378793938712   dF: +2.237e-07   |Residual|: 2.462e-04   |deigs|: 4.456e-04  t[s]:     47.95
	FillingsUpdate:  mu: -0.086269521  nElectrons: 9.000000  magneticMoment: [ Abs: 0.80452  Tot: +0.80000 ]
SCF: Cycle:  9   F: -24.436378006010333   dF: +7.879e-07   |Residual|: 2.252e-04   |deigs|: 4.699e-04  t[s]:     52.29
	FillingsUpdate:  mu: -0.086076687  nElectrons: 9.000000  magneticMoment: [ Abs: 0.80389  Tot: +0.80000 ]
SCF: Cycle: 10   F: -24.436379278950575   dF: -1.273e-06   |Residual|: 1.920e-04   |deigs|: 3.236e-04  t[s]:     56.70
	FillingsUpdate:  mu: -0.086049584  nElectrons: 9.000000  magneticMoment: [ Abs: 0.80439  Tot: +0.80000 ]
SCF: Cycle: 11   F: -24.436380770925094   dF: -1.492e-06   |Residual|: 1.373e-04   |deigs|: 2.241e-04  t[s]:     61.01
	FillingsUpdate:  mu: -0.085845278  nElectrons: 9.000000  magneticMoment: [ Abs: 0.80471  Tot: +0.80000 ]
SCF: Cycle: 12   F: -24.436381127277876   dF: -3.564e-07   |Residual|: 1.306e-04   |deigs|: 2.443e-04  t[s]:     65.40
	FillingsUpdate:  mu: -0.085553316  nElectrons: 9.000000  magneticMoment: [ Abs: 0.80465  Tot: +0.80000 ]
SCF: Cycle: 13   F: -24.436381138090855   dF: -1.081e-08   |Residual|: 1.303e-04   |deigs|: 2.960e-04  t[s]:     69.70
	FillingsUpdate:  mu: -0.085286654  nElectrons: 9.000000  magneticMoment: [ Abs: 0.80452  Tot: +0.80000 ]
SCF: Cycle: 14   F: -24.436380922399703   dF: +2.157e-07   |Residual|: 1.207e-04   |deigs|: 3.225e-04  t[s]:     73.97
	FillingsUpdate:  mu: -0.085175334  nElectrons: 9.000000  magneticMoment: [ Abs: 0.80441  Tot: +0.80000 ]
SCF: Cycle: 15   F: -24.436381636016222   dF: -7.136e-07   |Residual|: 1.000e-04   |deigs|: 2.402e-04  t[s]:     78.33
	FillingsUpdate:  mu: -0.084990497  nElectrons: 9.000000  magneticMoment: [ Abs: 0.80365  Tot: +0.80000 ]
SCF: Cycle: 16   F: -24.436382188832614   dF: -5.528e-07   |Residual|: 8.012e-05   |deigs|: 2.471e-04  t[s]:     82.66
	FillingsUpdate:  mu: -0.084843355  nElectrons: 9.000000  magneticMoment: [ Abs: 0.80341  Tot: +0.80000 ]
SCF: Cycle: 17   F: -24.436382463119731   dF: -2.743e-07   |Residual|: 6.013e-05   |deigs|: 1.909e-04  t[s]:     86.99
	FillingsUpdate:  mu: -0.084864461  nElectrons: 9.000000  magneticMoment: [ Abs: 0.80343  Tot: +0.80000 ]
SCF: Cycle: 18   F: -24.436382495420009   dF: -3.230e-08   |Residual|: 4.140e-05   |deigs|: 1.003e-04  t[s]:     91.29
	FillingsUpdate:  mu: -0.084847309  nElectrons: 9.000000  magneticMoment: [ Abs: 0.80344  Tot: +0.80000 ]
SCF: Cycle: 19   F: -24.436382711538389   dF: -2.161e-07   |Residual|: 2.388e-05   |deigs|: 8.520e-05  t[s]:     95.62
	FillingsUpdate:  mu: -0.084837475  nElectrons: 9.000000  magneticMoment: [ Abs: 0.80346  Tot: +0.80000 ]
SCF: Cycle: 20   F: -24.436382752267427   dF: -4.073e-08   |Residual|: 1.617e-05   |deigs|: 1.083e-04  t[s]:     99.78
	FillingsUpdate:  mu: -0.084844414  nElectrons: 9.000000  magneticMoment: [ Abs: 0.80347  Tot: +0.80000 ]
SCF: Cycle: 21   F: -24.436382768623428   dF: -1.636e-08   |Residual|: 9.786e-06   |deigs|: 8.119e-05  t[s]:    104.10
	FillingsUpdate:  mu: -0.084841316  nElectrons: 9.000000  magneticMoment: [ Abs: 0.80346  Tot: +0.80000 ]
SCF: Cycle: 22   F: -24.436382779019294   dF: -1.040e-08   |Residual|: 6.554e-06   |deigs|: 4.568e-05  t[s]:    108.42
	FillingsUpdate:  mu: -0.084844941  nElectrons: 9.000000  magneticMoment: [ Abs: 0.80347  Tot: +0.80000 ]
SCF: Cycle: 23   F: -24.436382785412089   dF: -6.393e-09   |Residual|: 4.352e-06   |deigs|: 2.895e-05  t[s]:    112.72
	FillingsUpdate:  mu: -0.084849083  nElectrons: 9.000000  magneticMoment: [ Abs: 0.80348  Tot: +0.80000 ]
SCF: Cycle: 24   F: -24.436382786363346   dF: -9.513e-10   |Residual|: 3.609e-06   |deigs|: 2.180e-05  t[s]:    116.94
SCF: Converged (|Delta E|<1.000000e-08 for 2 iters).


# Ionic positions in lattice coordinates:
ion Rb   0.000000000000000   0.000000000000000   0.000000000000000 0

# Forces in Lattice coordinates:
force Rb   0.000000000000000   0.000000000000000   0.000000000000000 0

# Energy components:
   Eewald =      -12.0320174002217755
       EH =        7.5192070967166273
     Eloc =      -22.4328144658218349
      Enl =       -0.7959364056217322
   Epulay =       -0.0000000014467880
      Exc =       -3.6517085386099550
       KE =        6.9568872570599494
-------------------------------------
     Etot =      -24.4363824579455091
       TS =        0.0000003284178367
-------------------------------------
        F =      -24.4363827863633460

IonicMinimize: Iter:   0  F: -24.436382786363346  |grad|_K:  0.000e+00  t[s]:    117.20
IonicMinimize: Converged (|grad|_K<1.000000e-04).

#--- Lowdin population analysis ---
# oxidation-state Rb +0.033
# magnetic-moments Rb +0.769

End date and time: Sun Feb  6 12:57:48 2022  (Duration: 0-0:01:57.25)
Done!
