
*************** JDFTx 1.6.0 (git hash 42ebbcc2) ***************

Start date and time: Sun Feb  6 12:59:23 2022
Executable jdftx with command-line: -i Alkali.in
Running on hosts (process indices):  d-4-2-2 (0-18)
Divided in process groups (process indices):  0 (0)  1 (1)  2 (2)  3 (3)  4 (4)  5 (5)  6 (6)  7 (7)  8 (8)  9 (9)  10 (10)  11 (11)  12 (12)  13 (13)  14 (14)  15 (15)  16 (16)  17 (17)  18 (18)
Resource initialization completed at t[s]:      0.00
Run totals: 19 processes, 48 threads, 0 GPUs


Input parsed successfully to the following command list (including defaults):

basis kpoint-dependent
coords-type Lattice
core-overlap-check vector
coulomb-interaction Slab 001
davidson-band-ratio 1.1
dump End None
dump-name $INPUT.$VAR
elec-cutoff 20
elec-eigen-algo Davidson
elec-ex-corr gga-PBE
elec-initial-magnetization 0.860000 yes
elec-smearing Fermi 1e-05
electronic-minimize  \
	dirUpdateScheme      FletcherReeves \
	linminMethod         DirUpdateRecommended \
	nIterations          100 \
	history              15 \
	knormThreshold       0 \
	energyDiffThreshold  1e-08 \
	nEnergyDiff          2 \
	alphaTstart          1 \
	alphaTmin            1e-10 \
	updateTestStepSize   yes \
	alphaTreduceFactor   0.1 \
	alphaTincreaseFactor 3 \
	nAlphaAdjustMax      3 \
	wolfeEnergy          0.0001 \
	wolfeGradient        0.9 \
	fdTest               no
electronic-scf  \
	nIterations	10000 \
	energyDiffThreshold	1e-08 \
	residualThreshold	1e-07 \
	mixFraction	0.5 \
	qMetric	0.8 \
	history	10 \
	nEigSteps	2 \
	eigDiffThreshold	1e-08 \
	mixedVariable	Density \
	qKerker	0.8 \
	qKappa	-1 \
	verbose	no \
	mixFractionMag	1.5
exchange-regularization WignerSeitzTruncated
fluid None
fluid-ex-corr (null) lda-PZ
fluid-gummel-loop 10 1.000000e-05
fluid-minimize  \
	dirUpdateScheme      PolakRibiere \
	linminMethod         DirUpdateRecommended \
	nIterations          100 \
	history              15 \
	knormThreshold       0 \
	energyDiffThreshold  0 \
	nEnergyDiff          2 \
	alphaTstart          1 \
	alphaTmin            1e-10 \
	updateTestStepSize   yes \
	alphaTreduceFactor   0.1 \
	alphaTincreaseFactor 3 \
	nAlphaAdjustMax      3 \
	wolfeEnergy          0.0001 \
	wolfeGradient        0.9 \
	fdTest               no
fluid-solvent H2O 55.338 ScalarEOS \
	epsBulk 78.4 \
	pMol 0.92466 \
	epsInf 1.77 \
	Pvap 1.06736e-10 \
	sigmaBulk 4.62e-05 \
	Rvdw 2.61727 \
	Res 1.42 \
	tauNuc 343133 \
	poleEl 15 7 1
forces-output-coords Positions
ion Rb   0.000000000000000   0.000000000000000   0.000000000000000 0
ion-species SG15/$ID_ONCV_PBE.upf
ion-width 0
ionic-minimize  \
	dirUpdateScheme      L-BFGS \
	linminMethod         DirUpdateRecommended \
	nIterations          0 \
	history              15 \
	knormThreshold       0.0001 \
	energyDiffThreshold  1e-06 \
	nEnergyDiff          2 \
	alphaTstart          1 \
	alphaTmin            1e-10 \
	updateTestStepSize   yes \
	alphaTreduceFactor   0.1 \
	alphaTincreaseFactor 3 \
	nAlphaAdjustMax      3 \
	wolfeEnergy          0.0001 \
	wolfeGradient        0.9 \
	fdTest               no
kpoint   0.000000000000   0.000000000000   0.000000000000  1.00000000000000
kpoint-folding 12 12 1 
latt-move-scale 1 1 1
latt-scale 3 3 1 
lattice  \
	   4.727486978767153   -2.363743489383575    0.000000000000000  \
	  -0.000000000000000    4.094123819672498    0.000000000000000  \
	   0.000000000000000    0.000000000000000   40.000000000000000 
lattice-minimize  \
	dirUpdateScheme      L-BFGS \
	linminMethod         DirUpdateRecommended \
	nIterations          0 \
	history              15 \
	knormThreshold       0 \
	energyDiffThreshold  1e-06 \
	nEnergyDiff          2 \
	alphaTstart          1 \
	alphaTmin            1e-10 \
	updateTestStepSize   yes \
	alphaTreduceFactor   0.1 \
	alphaTincreaseFactor 3 \
	nAlphaAdjustMax      3 \
	wolfeEnergy          0.0001 \
	wolfeGradient        0.9 \
	fdTest               no
lcao-params -1 1e-06 1e-05
pcm-variant GLSSA13
spintype z-spin
subspace-rotation-factor 1 yes
symmetries automatic
symmetry-threshold 0.0001



---------- Setting up symmetries ----------

Found 24 point-group symmetries of the bravais lattice
Found 24 space-group symmetries with basis
Applied RMS atom displacement 0 bohrs to make symmetries exact.

---------- Initializing the Grid ----------
R = 
[      14.1825     -7.09123            0  ]
[            0      12.2824            0  ]
[            0            0           40  ]
unit cell volume = 6967.77
G =
[   0.443025   0.255781         -0  ]
[          0   0.511561         -0  ]
[         -0         -0    0.15708  ]
Minimum fftbox size, Smin = [  60  60  164  ]
Chosen fftbox size, S = [  60  60  168  ]

---------- Exchange Correlation functional ----------
Initalized PBE GGA exchange.
Initalized PBE GGA correlation.

---------- Setting up pseudopotentials ----------
Width of ionic core gaussian charges (only for fluid interactions / plotting) set to 0

Reading pseudopotential file '/home/gridsan/aligho/DFT/build-Nov24/pseudopotentials/SG15/Rb_ONCV_PBE.upf':
  'Rb' pseudopotential, 'PBE' functional
  Generated using ONCVPSP code by D. R. Hamann
  Author: Martin Schlipf and Francois Gygi  Date: 150915.
  9 valence electrons, 3 orbitals, 6 projectors, 2308 radial grid points, with lMax = 2
  Transforming local potential to a uniform radial grid of dG=0.02 with 1489 points.
  Transforming nonlocal projectors to a uniform radial grid of dG=0.02 with 432 points.
    4S    l: 0   occupation:  2.0   eigenvalue: -1.172069
    4P    l: 1   occupation:  6.0   eigenvalue: -0.586674
    5S    l: 0   occupation:  1.0   eigenvalue: -0.082006
  Transforming atomic orbitals to a uniform radial grid of dG=0.02 with 432 points.
  Core radius for overlap checks: 2.60 bohrs.
  Reading pulay file /home/gridsan/aligho/DFT/build-Nov24/pseudopotentials/SG15/Rb_ONCV_PBE.pulay ... using dE_dnG = -1.360715e-05 computed for Ecut = 20.

Initialized 1 species with 1 total atoms.

Folded 1 k-points by 12x12x1 to 144 k-points.

---------- Setting up k-points, bands, fillings ----------
Reduced to 19 k-points under symmetry. 
Computing the number of bands and number of electrons
Calculating initial fillings.
nElectrons:   9.000000   nBands: 6   nStates: 38

----- Setting up reduced wavefunction bases (one per k-point) -----
average nbasis = 29766.104 , ideal nbasis = 29766.845

---------- Setting up coulomb interaction ----------
Initialized slab truncation along lattice direction 001

---------- Setting up 2D ewald sum ----------
Optimum gaussian width for ewald sums = 7.873530 bohr.
Real space sums over 289 unit cells with max indices [  8  8  0  ]
Reciprocal space sums over 81 terms with max indices [  4  4  0  ]

---------- Allocating electronic variables ----------
Initializing wave functions:  linear combination of atomic orbitals
Note: number of bands (6) exceeds available atomic orbitals (5)
Rb pseudo-atom occupations:   s ( 2 1 )  p ( 6 )
	FillingsUpdate:  mu: -0.084986675  nElectrons: 9.000000  magneticMoment: [ Abs: 0.86000  Tot: +0.86000 ]
LCAOMinimize: Iter:   0  F: -24.4345192266492646  |grad|_K:  6.249e-06  alpha:  1.000e+00
	FillingsUpdate:  mu: -0.084985526  nElectrons: 9.000000  magneticMoment: [ Abs: 0.86000  Tot: +0.86000 ]
LCAOMinimize: Iter:   1  F: -24.4345192531939475  |grad|_K:  4.137e-08  alpha:  9.938e-01  linmin: -4.636e-03  cgtest:  9.101e-02  t[s]:      8.91
LCAOMinimize: Encountered beta<0, resetting CG.
	FillingsUpdate:  mu: -0.084985533  nElectrons: 9.000000  magneticMoment: [ Abs: 0.86000  Tot: +0.86000 ]
LCAOMinimize: Iter:   2  F: -24.4345192531953046  |grad|_K:  7.852e-09  alpha:  1.183e+00  linmin:  1.730e-01  cgtest: -9.991e-01  t[s]:     11.37
LCAOMinimize: Converged (|Delta F|<1.000000e-06 for 2 iters).


---- Citations for features of the code used in this run ----

   Software package:
      R. Sundararaman, K. Letchworth-Weaver, K.A. Schwarz, D. Gunceler, Y. Ozhabes and T.A. Arias, 'JDFTx: software for joint density-functional theory', SoftwareX 6, 278 (2017)

   gga-PBE exchange-correlation functional:
      J.P. Perdew, K. Burke and M. Ernzerhof, Phys. Rev. Lett. 77, 3865 (1996)

   Pseudopotentials:
      M Schlipf and F Gygi, Comput. Phys. Commun. 196, 36 (2015)

   Truncated Coulomb potentials:
      R. Sundararaman and T.A. Arias, Phys. Rev. B 87, 165122 (2013)

This list may not be complete. Please suggest additional citations or
report any other bugs at https://github.com/shankar1729/jdftx/issues

Initialization completed successfully at t[s]:     11.54


-------- Electronic minimization -----------
Will mix electronic density at each iteration.
	FillingsUpdate:  mu: -0.084985533  nElectrons: 9.000000  magneticMoment: [ Abs: 0.86000  Tot: +0.86000 ]
	FillingsUpdate:  mu: -0.085773252  nElectrons: 9.000000  magneticMoment: [ Abs: 0.86000  Tot: +0.86000 ]
SCF: Cycle:  0   F: -24.435834890004021   dF: -1.316e-03   |Residual|: 3.668e-03   |deigs|: 1.732e-01  t[s]:     16.49
	FillingsUpdate:  mu: -0.086125951  nElectrons: 9.000000  magneticMoment: [ Abs: 0.86205  Tot: +0.86000 ]
SCF: Cycle:  1   F: -24.435893009625914   dF: -5.812e-05   |Residual|: 2.572e-03   |deigs|: 5.113e-03  t[s]:     20.28
	FillingsUpdate:  mu: -0.086637749  nElectrons: 9.000000  magneticMoment: [ Abs: 0.86400  Tot: +0.86000 ]
SCF: Cycle:  2   F: -24.435928122410861   dF: -3.511e-05   |Residual|: 2.012e-03   |deigs|: 2.128e-03  t[s]:     24.13
	FillingsUpdate:  mu: -0.086979793  nElectrons: 9.000000  magneticMoment: [ Abs: 0.86510  Tot: +0.86000 ]
SCF: Cycle:  3   F: -24.435960385491626   dF: -3.226e-05   |Residual|: 1.525e-03   |deigs|: 2.517e-03  t[s]:     28.07
	FillingsUpdate:  mu: -0.086943808  nElectrons: 9.000000  magneticMoment: [ Abs: 0.86349  Tot: +0.86000 ]
SCF: Cycle:  4   F: -24.435987888769688   dF: -2.750e-05   |Residual|: 9.251e-04   |deigs|: 1.895e-03  t[s]:     32.19
	FillingsUpdate:  mu: -0.086700699  nElectrons: 9.000000  magneticMoment: [ Abs: 0.86409  Tot: +0.86000 ]
SCF: Cycle:  5   F: -24.435998317771418   dF: -1.043e-05   |Residual|: 5.134e-04   |deigs|: 1.143e-03  t[s]:     36.43
	FillingsUpdate:  mu: -0.086563675  nElectrons: 9.000000  magneticMoment: [ Abs: 0.86368  Tot: +0.86000 ]
SCF: Cycle:  6   F: -24.436002574020030   dF: -4.256e-06   |Residual|: 3.753e-04   |deigs|: 1.283e-03  t[s]:     40.63
	FillingsUpdate:  mu: -0.086382130  nElectrons: 9.000000  magneticMoment: [ Abs: 0.86398  Tot: +0.86000 ]
SCF: Cycle:  7   F: -24.436004803377646   dF: -2.229e-06   |Residual|: 2.834e-04   |deigs|: 8.077e-04  t[s]:     44.86
	FillingsUpdate:  mu: -0.085973164  nElectrons: 9.000000  magneticMoment: [ Abs: 0.86457  Tot: +0.86000 ]
SCF: Cycle:  8   F: -24.436004736048965   dF: +6.733e-08   |Residual|: 2.386e-04   |deigs|: 4.970e-04  t[s]:     49.08
	FillingsUpdate:  mu: -0.085637742  nElectrons: 9.000000  magneticMoment: [ Abs: 0.86475  Tot: +0.86000 ]
SCF: Cycle:  9   F: -24.436003523695739   dF: +1.212e-06   |Residual|: 2.234e-04   |deigs|: 5.375e-04  t[s]:     53.38
	FillingsUpdate:  mu: -0.085473985  nElectrons: 9.000000  magneticMoment: [ Abs: 0.86419  Tot: +0.86000 ]
SCF: Cycle: 10   F: -24.436005063073221   dF: -1.539e-06   |Residual|: 1.832e-04   |deigs|: 3.063e-04  t[s]:     57.80
	FillingsUpdate:  mu: -0.085439932  nElectrons: 9.000000  magneticMoment: [ Abs: 0.86499  Tot: +0.86000 ]
SCF: Cycle: 11   F: -24.436006257469636   dF: -1.194e-06   |Residual|: 1.374e-04   |deigs|: 2.149e-04  t[s]:     62.20
	FillingsUpdate:  mu: -0.085299832  nElectrons: 9.000000  magneticMoment: [ Abs: 0.86504  Tot: +0.86000 ]
SCF: Cycle: 12   F: -24.436007093984372   dF: -8.365e-07   |Residual|: 1.252e-04   |deigs|: 1.592e-04  t[s]:     66.58
	FillingsUpdate:  mu: -0.085034390  nElectrons: 9.000000  magneticMoment: [ Abs: 0.86510  Tot: +0.86000 ]
SCF: Cycle: 13   F: -24.436007187188689   dF: -9.320e-08   |Residual|: 1.260e-04   |deigs|: 2.662e-04  t[s]:     70.95
	FillingsUpdate:  mu: -0.084751094  nElectrons: 9.000000  magneticMoment: [ Abs: 0.86501  Tot: +0.86000 ]
SCF: Cycle: 14   F: -24.436006964760967   dF: +2.224e-07   |Residual|: 1.175e-04   |deigs|: 3.163e-04  t[s]:     75.43
	FillingsUpdate:  mu: -0.084613023  nElectrons: 9.000000  magneticMoment: [ Abs: 0.86483  Tot: +0.86000 ]
SCF: Cycle: 15   F: -24.436007476676352   dF: -5.119e-07   |Residual|: 9.935e-05   |deigs|: 1.991e-04  t[s]:     79.76
	FillingsUpdate:  mu: -0.084478538  nElectrons: 9.000000  magneticMoment: [ Abs: 0.86412  Tot: +0.86000 ]
SCF: Cycle: 16   F: -24.436007996331863   dF: -5.197e-07   |Residual|: 7.774e-05   |deigs|: 2.456e-04  t[s]:     84.19
	FillingsUpdate:  mu: -0.084362455  nElectrons: 9.000000  magneticMoment: [ Abs: 0.86388  Tot: +0.86000 ]
SCF: Cycle: 17   F: -24.436008323952372   dF: -3.276e-07   |Residual|: 5.999e-05   |deigs|: 1.431e-04  t[s]:     88.53
	FillingsUpdate:  mu: -0.084346328  nElectrons: 9.000000  magneticMoment: [ Abs: 0.86393  Tot: +0.86000 ]
SCF: Cycle: 18   F: -24.436008390701101   dF: -6.675e-08   |Residual|: 3.595e-05   |deigs|: 7.062e-05  t[s]:     92.88
	FillingsUpdate:  mu: -0.084321272  nElectrons: 9.000000  magneticMoment: [ Abs: 0.86391  Tot: +0.86000 ]
SCF: Cycle: 19   F: -24.436008588112376   dF: -1.974e-07   |Residual|: 2.430e-05   |deigs|: 8.696e-05  t[s]:     97.23
	FillingsUpdate:  mu: -0.084322378  nElectrons: 9.000000  magneticMoment: [ Abs: 0.86387  Tot: +0.86000 ]
SCF: Cycle: 20   F: -24.436008641802783   dF: -5.369e-08   |Residual|: 1.798e-05   |deigs|: 9.146e-05  t[s]:    101.51
	FillingsUpdate:  mu: -0.084335506  nElectrons: 9.000000  magneticMoment: [ Abs: 0.86390  Tot: +0.86000 ]
SCF: Cycle: 21   F: -24.436008662024257   dF: -2.022e-08   |Residual|: 1.061e-05   |deigs|: 8.992e-05  t[s]:    105.98
	FillingsUpdate:  mu: -0.084330631  nElectrons: 9.000000  magneticMoment: [ Abs: 0.86390  Tot: +0.86000 ]
SCF: Cycle: 22   F: -24.436008675740204   dF: -1.372e-08   |Residual|: 7.614e-06   |deigs|: 7.338e-05  t[s]:    110.34
	FillingsUpdate:  mu: -0.084334137  nElectrons: 9.000000  magneticMoment: [ Abs: 0.86392  Tot: +0.86000 ]
SCF: Cycle: 23   F: -24.436008685656105   dF: -9.916e-09   |Residual|: 5.638e-06   |deigs|: 5.367e-05  t[s]:    114.70
	FillingsUpdate:  mu: -0.084338638  nElectrons: 9.000000  magneticMoment: [ Abs: 0.86394  Tot: +0.86000 ]
SCF: Cycle: 24   F: -24.436008687261527   dF: -1.605e-09   |Residual|: 4.382e-06   |deigs|: 3.790e-05  t[s]:    119.04
SCF: Converged (|Delta E|<1.000000e-08 for 2 iters).


# Ionic positions in lattice coordinates:
ion Rb   0.000000000000000   0.000000000000000   0.000000000000000 0

# Forces in Lattice coordinates:
force Rb  -0.000000000000000   0.000000000000000   0.000000000000000 0

# Energy components:
   Eewald =      -12.0320174002217755
       EH =        7.5254498862696728
     Eloc =      -22.4398309413329784
      Enl =       -0.7955101971320395
   Epulay =       -0.0000000014467880
      Exc =       -3.6526795939203343
       KE =        6.9585803756799134
-------------------------------------
     Etot =      -24.4360078721043266
       TS =        0.0000008151572001
-------------------------------------
        F =      -24.4360086872615270

IonicMinimize: Iter:   0  F: -24.436008687261527  |grad|_K:  0.000e+00  t[s]:    119.31
IonicMinimize: Converged (|grad|_K<1.000000e-04).

#--- Lowdin population analysis ---
# oxidation-state Rb +0.032
# magnetic-moments Rb +0.830

End date and time: Sun Feb  6 13:01:22 2022  (Duration: 0-0:01:59.36)
Done!
