
*************** JDFTx 1.6.0 (git hash 42ebbcc2) ***************

Start date and time: Sun Feb  6 12:54:41 2022
Executable jdftx with command-line: -i Alkali.in
Running on hosts (process indices):  d-16-8-3 (0-18)
Divided in process groups (process indices):  0 (0)  1 (1)  2 (2)  3 (3)  4 (4)  5 (5)  6 (6)  7 (7)  8 (8)  9 (9)  10 (10)  11 (11)  12 (12)  13 (13)  14 (14)  15 (15)  16 (16)  17 (17)  18 (18)
Resource initialization completed at t[s]:      0.00
Run totals: 19 processes, 48 threads, 0 GPUs


Input parsed successfully to the following command list (including defaults):

basis kpoint-dependent
coords-type Lattice
core-overlap-check vector
coulomb-interaction Slab 001
davidson-band-ratio 1.1
dump End None
dump-name $INPUT.$VAR
elec-cutoff 20
elec-eigen-algo Davidson
elec-ex-corr gga-PBE
elec-initial-magnetization 0.520000 yes
elec-smearing Fermi 1e-05
electronic-minimize  \
	dirUpdateScheme      FletcherReeves \
	linminMethod         DirUpdateRecommended \
	nIterations          100 \
	history              15 \
	knormThreshold       0 \
	energyDiffThreshold  1e-08 \
	nEnergyDiff          2 \
	alphaTstart          1 \
	alphaTmin            1e-10 \
	updateTestStepSize   yes \
	alphaTreduceFactor   0.1 \
	alphaTincreaseFactor 3 \
	nAlphaAdjustMax      3 \
	wolfeEnergy          0.0001 \
	wolfeGradient        0.9 \
	fdTest               no
electronic-scf  \
	nIterations	10000 \
	energyDiffThreshold	1e-08 \
	residualThreshold	1e-07 \
	mixFraction	0.5 \
	qMetric	0.8 \
	history	10 \
	nEigSteps	2 \
	eigDiffThreshold	1e-08 \
	mixedVariable	Density \
	qKerker	0.8 \
	qKappa	-1 \
	verbose	no \
	mixFractionMag	1.5
exchange-regularization WignerSeitzTruncated
fluid None
fluid-ex-corr (null) lda-PZ
fluid-gummel-loop 10 1.000000e-05
fluid-minimize  \
	dirUpdateScheme      PolakRibiere \
	linminMethod         DirUpdateRecommended \
	nIterations          100 \
	history              15 \
	knormThreshold       0 \
	energyDiffThreshold  0 \
	nEnergyDiff          2 \
	alphaTstart          1 \
	alphaTmin            1e-10 \
	updateTestStepSize   yes \
	alphaTreduceFactor   0.1 \
	alphaTincreaseFactor 3 \
	nAlphaAdjustMax      3 \
	wolfeEnergy          0.0001 \
	wolfeGradient        0.9 \
	fdTest               no
fluid-solvent H2O 55.338 ScalarEOS \
	epsBulk 78.4 \
	pMol 0.92466 \
	epsInf 1.77 \
	Pvap 1.06736e-10 \
	sigmaBulk 4.62e-05 \
	Rvdw 2.61727 \
	Res 1.42 \
	tauNuc 343133 \
	poleEl 15 7 1
forces-output-coords Positions
ion Rb   0.000000000000000   0.000000000000000   0.000000000000000 0
ion-species SG15/$ID_ONCV_PBE.upf
ion-width 0
ionic-minimize  \
	dirUpdateScheme      L-BFGS \
	linminMethod         DirUpdateRecommended \
	nIterations          0 \
	history              15 \
	knormThreshold       0.0001 \
	energyDiffThreshold  1e-06 \
	nEnergyDiff          2 \
	alphaTstart          1 \
	alphaTmin            1e-10 \
	updateTestStepSize   yes \
	alphaTreduceFactor   0.1 \
	alphaTincreaseFactor 3 \
	nAlphaAdjustMax      3 \
	wolfeEnergy          0.0001 \
	wolfeGradient        0.9 \
	fdTest               no
kpoint   0.000000000000   0.000000000000   0.000000000000  1.00000000000000
kpoint-folding 12 12 1 
latt-move-scale 1 1 1
latt-scale 3 3 1 
lattice  \
	   4.727486978767153   -2.363743489383575    0.000000000000000  \
	  -0.000000000000000    4.094123819672498    0.000000000000000  \
	   0.000000000000000    0.000000000000000   40.000000000000000 
lattice-minimize  \
	dirUpdateScheme      L-BFGS \
	linminMethod         DirUpdateRecommended \
	nIterations          0 \
	history              15 \
	knormThreshold       0 \
	energyDiffThreshold  1e-06 \
	nEnergyDiff          2 \
	alphaTstart          1 \
	alphaTmin            1e-10 \
	updateTestStepSize   yes \
	alphaTreduceFactor   0.1 \
	alphaTincreaseFactor 3 \
	nAlphaAdjustMax      3 \
	wolfeEnergy          0.0001 \
	wolfeGradient        0.9 \
	fdTest               no
lcao-params -1 1e-06 1e-05
pcm-variant GLSSA13
spintype z-spin
subspace-rotation-factor 1 yes
symmetries automatic
symmetry-threshold 0.0001



---------- Setting up symmetries ----------

Found 24 point-group symmetries of the bravais lattice
Found 24 space-group symmetries with basis
Applied RMS atom displacement 0 bohrs to make symmetries exact.

---------- Initializing the Grid ----------
R = 
[      14.1825     -7.09123            0  ]
[            0      12.2824            0  ]
[            0            0           40  ]
unit cell volume = 6967.77
G =
[   0.443025   0.255781         -0  ]
[          0   0.511561         -0  ]
[         -0         -0    0.15708  ]
Minimum fftbox size, Smin = [  60  60  164  ]
Chosen fftbox size, S = [  60  60  168  ]

---------- Exchange Correlation functional ----------
Initalized PBE GGA exchange.
Initalized PBE GGA correlation.

---------- Setting up pseudopotentials ----------
Width of ionic core gaussian charges (only for fluid interactions / plotting) set to 0

Reading pseudopotential file '/home/gridsan/aligho/DFT/build-Nov24/pseudopotentials/SG15/Rb_ONCV_PBE.upf':
  'Rb' pseudopotential, 'PBE' functional
  Generated using ONCVPSP code by D. R. Hamann
  Author: Martin Schlipf and Francois Gygi  Date: 150915.
  9 valence electrons, 3 orbitals, 6 projectors, 2308 radial grid points, with lMax = 2
  Transforming local potential to a uniform radial grid of dG=0.02 with 1489 points.
  Transforming nonlocal projectors to a uniform radial grid of dG=0.02 with 432 points.
    4S    l: 0   occupation:  2.0   eigenvalue: -1.172069
    4P    l: 1   occupation:  6.0   eigenvalue: -0.586674
    5S    l: 0   occupation:  1.0   eigenvalue: -0.082006
  Transforming atomic orbitals to a uniform radial grid of dG=0.02 with 432 points.
  Core radius for overlap checks: 2.60 bohrs.
  Reading pulay file /home/gridsan/aligho/DFT/build-Nov24/pseudopotentials/SG15/Rb_ONCV_PBE.pulay ... using dE_dnG = -1.360715e-05 computed for Ecut = 20.

Initialized 1 species with 1 total atoms.

Folded 1 k-points by 12x12x1 to 144 k-points.

---------- Setting up k-points, bands, fillings ----------
Reduced to 19 k-points under symmetry. 
Computing the number of bands and number of electrons
Calculating initial fillings.
nElectrons:   9.000000   nBands: 6   nStates: 38

----- Setting up reduced wavefunction bases (one per k-point) -----
average nbasis = 29766.104 , ideal nbasis = 29766.845

---------- Setting up coulomb interaction ----------
Initialized slab truncation along lattice direction 001

---------- Setting up 2D ewald sum ----------
Optimum gaussian width for ewald sums = 7.873530 bohr.
Real space sums over 289 unit cells with max indices [  8  8  0  ]
Reciprocal space sums over 81 terms with max indices [  4  4  0  ]

---------- Allocating electronic variables ----------
Initializing wave functions:  linear combination of atomic orbitals
Note: number of bands (6) exceeds available atomic orbitals (5)
Rb pseudo-atom occupations:   s ( 2 1 )  p ( 6 )
	FillingsUpdate:  mu: -0.085255900  nElectrons: 9.000000  magneticMoment: [ Abs: 0.52000  Tot: +0.52000 ]
LCAOMinimize: Iter:   0  F: -24.4359058899777786  |grad|_K:  1.573e-05  alpha:  1.000e+00
	FillingsUpdate:  mu: -0.085252804  nElectrons: 9.000000  magneticMoment: [ Abs: 0.52000  Tot: +0.52000 ]
LCAOMinimize: Iter:   1  F: -24.4359060571198157  |grad|_K:  1.161e-07  alpha:  9.874e-01  linmin: -1.459e-02  cgtest:  3.552e-01  t[s]:      8.61
LCAOMinimize: Encountered beta<0, resetting CG.
	FillingsUpdate:  mu: -0.085252810  nElectrons: 9.000000  magneticMoment: [ Abs: 0.52000  Tot: +0.52000 ]
LCAOMinimize: Iter:   2  F: -24.4359060571292197  |grad|_K:  1.980e-09  alpha:  1.017e+00  linmin:  5.869e-02  cgtest: -9.821e-01  t[s]:     10.91
LCAOMinimize: Converged (|Delta F|<1.000000e-06 for 2 iters).


---- Citations for features of the code used in this run ----

   Software package:
      R. Sundararaman, K. Letchworth-Weaver, K.A. Schwarz, D. Gunceler, Y. Ozhabes and T.A. Arias, 'JDFTx: software for joint density-functional theory', SoftwareX 6, 278 (2017)

   gga-PBE exchange-correlation functional:
      J.P. Perdew, K. Burke and M. Ernzerhof, Phys. Rev. Lett. 77, 3865 (1996)

   Pseudopotentials:
      M Schlipf and F Gygi, Comput. Phys. Commun. 196, 36 (2015)

   Truncated Coulomb potentials:
      R. Sundararaman and T.A. Arias, Phys. Rev. B 87, 165122 (2013)

This list may not be complete. Please suggest additional citations or
report any other bugs at https://github.com/shankar1729/jdftx/issues

Initialization completed successfully at t[s]:     11.07


-------- Electronic minimization -----------
Will mix electronic density at each iteration.
	FillingsUpdate:  mu: -0.085252810  nElectrons: 9.000000  magneticMoment: [ Abs: 0.52000  Tot: +0.52000 ]
	FillingsUpdate:  mu: -0.086597960  nElectrons: 9.000000  magneticMoment: [ Abs: 0.52000  Tot: +0.52000 ]
SCF: Cycle:  0   F: -24.437527196967221   dF: -1.621e-03   |Residual|: 4.031e-03   |deigs|: 1.736e-01  t[s]:     15.80
	FillingsUpdate:  mu: -0.086761670  nElectrons: 9.000000  magneticMoment: [ Abs: 0.52038  Tot: +0.52000 ]
SCF: Cycle:  1   F: -24.437583281131619   dF: -5.608e-05   |Residual|: 3.224e-03   |deigs|: 4.698e-03  t[s]:     19.56
	FillingsUpdate:  mu: -0.086925903  nElectrons: 9.000000  magneticMoment: [ Abs: 0.52238  Tot: +0.52000 ]
SCF: Cycle:  2   F: -24.437621836010003   dF: -3.855e-05   |Residual|: 2.288e-03   |deigs|: 2.063e-03  t[s]:     23.27
	FillingsUpdate:  mu: -0.087128678  nElectrons: 9.000000  magneticMoment: [ Abs: 0.52298  Tot: +0.52000 ]
SCF: Cycle:  3   F: -24.437644253890017   dF: -2.242e-05   |Residual|: 1.498e-03   |deigs|: 2.353e-03  t[s]:     27.03
	FillingsUpdate:  mu: -0.087170704  nElectrons: 9.000000  magneticMoment: [ Abs: 0.52114  Tot: +0.52000 ]
SCF: Cycle:  4   F: -24.437654064773714   dF: -9.811e-06   |Residual|: 7.879e-04   |deigs|: 1.869e-03  t[s]:     30.83
	FillingsUpdate:  mu: -0.087220323  nElectrons: 9.000000  magneticMoment: [ Abs: 0.52191  Tot: +0.52000 ]
SCF: Cycle:  5   F: -24.437660681801614   dF: -6.617e-06   |Residual|: 5.091e-04   |deigs|: 2.322e-03  t[s]:     34.80
	FillingsUpdate:  mu: -0.087130209  nElectrons: 9.000000  magneticMoment: [ Abs: 0.52170  Tot: +0.52000 ]
SCF: Cycle:  6   F: -24.437664542694041   dF: -3.861e-06   |Residual|: 3.687e-04   |deigs|: 1.371e-03  t[s]:     38.77
	FillingsUpdate:  mu: -0.086959706  nElectrons: 9.000000  magneticMoment: [ Abs: 0.52197  Tot: +0.52000 ]
SCF: Cycle:  7   F: -24.437665442640405   dF: -8.999e-07   |Residual|: 2.993e-04   |deigs|: 7.677e-04  t[s]:     42.75
	FillingsUpdate:  mu: -0.086711646  nElectrons: 9.000000  magneticMoment: [ Abs: 0.52285  Tot: +0.52000 ]
SCF: Cycle:  8   F: -24.437665580502586   dF: -1.379e-07   |Residual|: 2.410e-04   |deigs|: 4.275e-04  t[s]:     46.83
	FillingsUpdate:  mu: -0.086349602  nElectrons: 9.000000  magneticMoment: [ Abs: 0.52307  Tot: +0.52000 ]
SCF: Cycle:  9   F: -24.437664679583083   dF: +9.009e-07   |Residual|: 2.109e-04   |deigs|: 4.476e-04  t[s]:     51.01
	FillingsUpdate:  mu: -0.086103931  nElectrons: 9.000000  magneticMoment: [ Abs: 0.52284  Tot: +0.52000 ]
SCF: Cycle: 10   F: -24.437664469301051   dF: +2.103e-07   |Residual|: 1.918e-04   |deigs|: 2.654e-04  t[s]:     55.27
	FillingsUpdate:  mu: -0.086020889  nElectrons: 9.000000  magneticMoment: [ Abs: 0.52265  Tot: +0.52000 ]
SCF: Cycle: 11   F: -24.437666245685186   dF: -1.776e-06   |Residual|: 1.434e-04   |deigs|: 2.574e-04  t[s]:     59.49
	FillingsUpdate:  mu: -0.085783732  nElectrons: 9.000000  magneticMoment: [ Abs: 0.52310  Tot: +0.52000 ]
SCF: Cycle: 12   F: -24.437666455159228   dF: -2.095e-07   |Residual|: 1.370e-04   |deigs|: 4.361e-04  t[s]:     63.60
	FillingsUpdate:  mu: -0.085375244  nElectrons: 9.000000  magneticMoment: [ Abs: 0.52278  Tot: +0.52000 ]
SCF: Cycle: 13   F: -24.437666084160700   dF: +3.710e-07   |Residual|: 1.356e-04   |deigs|: 5.311e-04  t[s]:     67.80
	FillingsUpdate:  mu: -0.085172580  nElectrons: 9.000000  magneticMoment: [ Abs: 0.52249  Tot: +0.52000 ]
SCF: Cycle: 14   F: -24.437665926422358   dF: +1.577e-07   |Residual|: 1.254e-04   |deigs|: 2.611e-04  t[s]:     72.03
	FillingsUpdate:  mu: -0.085075393  nElectrons: 9.000000  magneticMoment: [ Abs: 0.52261  Tot: +0.52000 ]
SCF: Cycle: 15   F: -24.437666762415301   dF: -8.360e-07   |Residual|: 1.067e-04   |deigs|: 1.281e-04  t[s]:     76.32
	FillingsUpdate:  mu: -0.084878014  nElectrons: 9.000000  magneticMoment: [ Abs: 0.52199  Tot: +0.52000 ]
SCF: Cycle: 16   F: -24.437667515486414   dF: -7.531e-07   |Residual|: 7.488e-05   |deigs|: 2.316e-04  t[s]:     80.50
	FillingsUpdate:  mu: -0.084746057  nElectrons: 9.000000  magneticMoment: [ Abs: 0.52187  Tot: +0.52000 ]
SCF: Cycle: 17   F: -24.437667746374345   dF: -2.309e-07   |Residual|: 5.310e-05   |deigs|: 1.449e-04  t[s]:     84.59
	FillingsUpdate:  mu: -0.084727356  nElectrons: 9.000000  magneticMoment: [ Abs: 0.52183  Tot: +0.52000 ]
SCF: Cycle: 18   F: -24.437667858508089   dF: -1.121e-07   |Residual|: 3.679e-05   |deigs|: 2.945e-05  t[s]:     88.76
	FillingsUpdate:  mu: -0.084741176  nElectrons: 9.000000  magneticMoment: [ Abs: 0.52185  Tot: +0.52000 ]
SCF: Cycle: 19   F: -24.437667944377683   dF: -8.587e-08   |Residual|: 1.961e-05   |deigs|: 2.794e-05  t[s]:     92.98
	FillingsUpdate:  mu: -0.084727838  nElectrons: 9.000000  magneticMoment: [ Abs: 0.52184  Tot: +0.52000 ]
SCF: Cycle: 20   F: -24.437667960844120   dF: -1.647e-08   |Residual|: 1.344e-05   |deigs|: 1.393e-05  t[s]:     97.07
	FillingsUpdate:  mu: -0.084731647  nElectrons: 9.000000  magneticMoment: [ Abs: 0.52183  Tot: +0.52000 ]
SCF: Cycle: 21   F: -24.437667966542424   dF: -5.698e-09   |Residual|: 9.809e-06   |deigs|: 6.551e-06  t[s]:    101.28
	FillingsUpdate:  mu: -0.084734972  nElectrons: 9.000000  magneticMoment: [ Abs: 0.52185  Tot: +0.52000 ]
SCF: Cycle: 22   F: -24.437667977585008   dF: -1.104e-08   |Residual|: 5.449e-06   |deigs|: 4.644e-06  t[s]:    105.55
	FillingsUpdate:  mu: -0.084735344  nElectrons: 9.000000  magneticMoment: [ Abs: 0.52185  Tot: +0.52000 ]
SCF: Cycle: 23   F: -24.437667979349083   dF: -1.764e-09   |Residual|: 3.717e-06   |deigs|: 2.810e-06  t[s]:    109.83
	FillingsUpdate:  mu: -0.084736860  nElectrons: 9.000000  magneticMoment: [ Abs: 0.52185  Tot: +0.52000 ]
SCF: Cycle: 24   F: -24.437667980015274   dF: -6.662e-10   |Residual|: 2.757e-06   |deigs|: 3.405e-06  t[s]:    114.04
SCF: Converged (|Delta E|<1.000000e-08 for 2 iters).


# Ionic positions in lattice coordinates:
ion Rb   0.000000000000000   0.000000000000000   0.000000000000000 0

# Forces in Lattice coordinates:
force Rb  -0.000000000000000   0.000000000000000   0.000000000000000 0

# Energy components:
   Eewald =      -12.0320174002217755
       EH =        7.4983605228233712
     Eloc =      -22.4095526417958659
      Enl =       -0.7972375588313347
   Epulay =       -0.0000000014467880
      Exc =       -3.6485335476814638
       KE =        6.9513130596495074
-------------------------------------
     Etot =      -24.4376675675043487
       TS =        0.0000004125109251
-------------------------------------
        F =      -24.4376679800152736

IonicMinimize: Iter:   0  F: -24.437667980015274  |grad|_K:  0.000e+00  t[s]:    114.30
IonicMinimize: Converged (|grad|_K<1.000000e-04).

#--- Lowdin population analysis ---
# oxidation-state Rb +0.035
# magnetic-moments Rb +0.491

End date and time: Sun Feb  6 12:56:35 2022  (Duration: 0-0:01:54.34)
Done!
