
*************** JDFTx 1.6.0 (git hash 42ebbcc2) ***************

Start date and time: Sun Feb  6 12:42:25 2022
Executable jdftx with command-line: -i Alkali.in
Running on hosts (process indices):  d-4-6-1 (0-18)
Divided in process groups (process indices):  0 (0)  1 (1)  2 (2)  3 (3)  4 (4)  5 (5)  6 (6)  7 (7)  8 (8)  9 (9)  10 (10)  11 (11)  12 (12)  13 (13)  14 (14)  15 (15)  16 (16)  17 (17)  18 (18)
Resource initialization completed at t[s]:      0.00
Run totals: 19 processes, 48 threads, 0 GPUs


Input parsed successfully to the following command list (including defaults):

basis kpoint-dependent
coords-type Lattice
core-overlap-check vector
coulomb-interaction Slab 001
davidson-band-ratio 1.1
dump End None
dump-name $INPUT.$VAR
elec-cutoff 20
elec-eigen-algo Davidson
elec-ex-corr gga-PBE
elec-initial-magnetization -0.420000 yes
elec-smearing Fermi 1e-05
electronic-minimize  \
	dirUpdateScheme      FletcherReeves \
	linminMethod         DirUpdateRecommended \
	nIterations          100 \
	history              15 \
	knormThreshold       0 \
	energyDiffThreshold  1e-08 \
	nEnergyDiff          2 \
	alphaTstart          1 \
	alphaTmin            1e-10 \
	updateTestStepSize   yes \
	alphaTreduceFactor   0.1 \
	alphaTincreaseFactor 3 \
	nAlphaAdjustMax      3 \
	wolfeEnergy          0.0001 \
	wolfeGradient        0.9 \
	fdTest               no
electronic-scf  \
	nIterations	10000 \
	energyDiffThreshold	1e-08 \
	residualThreshold	1e-07 \
	mixFraction	0.5 \
	qMetric	0.8 \
	history	10 \
	nEigSteps	2 \
	eigDiffThreshold	1e-08 \
	mixedVariable	Density \
	qKerker	0.8 \
	qKappa	-1 \
	verbose	no \
	mixFractionMag	1.5
exchange-regularization WignerSeitzTruncated
fluid None
fluid-ex-corr (null) lda-PZ
fluid-gummel-loop 10 1.000000e-05
fluid-minimize  \
	dirUpdateScheme      PolakRibiere \
	linminMethod         DirUpdateRecommended \
	nIterations          100 \
	history              15 \
	knormThreshold       0 \
	energyDiffThreshold  0 \
	nEnergyDiff          2 \
	alphaTstart          1 \
	alphaTmin            1e-10 \
	updateTestStepSize   yes \
	alphaTreduceFactor   0.1 \
	alphaTincreaseFactor 3 \
	nAlphaAdjustMax      3 \
	wolfeEnergy          0.0001 \
	wolfeGradient        0.9 \
	fdTest               no
fluid-solvent H2O 55.338 ScalarEOS \
	epsBulk 78.4 \
	pMol 0.92466 \
	epsInf 1.77 \
	Pvap 1.06736e-10 \
	sigmaBulk 4.62e-05 \
	Rvdw 2.61727 \
	Res 1.42 \
	tauNuc 343133 \
	poleEl 15 7 1
forces-output-coords Positions
ion Rb   0.000000000000000   0.000000000000000   0.000000000000000 0
ion-species SG15/$ID_ONCV_PBE.upf
ion-width 0
ionic-minimize  \
	dirUpdateScheme      L-BFGS \
	linminMethod         DirUpdateRecommended \
	nIterations          0 \
	history              15 \
	knormThreshold       0.0001 \
	energyDiffThreshold  1e-06 \
	nEnergyDiff          2 \
	alphaTstart          1 \
	alphaTmin            1e-10 \
	updateTestStepSize   yes \
	alphaTreduceFactor   0.1 \
	alphaTincreaseFactor 3 \
	nAlphaAdjustMax      3 \
	wolfeEnergy          0.0001 \
	wolfeGradient        0.9 \
	fdTest               no
kpoint   0.000000000000   0.000000000000   0.000000000000  1.00000000000000
kpoint-folding 12 12 1 
latt-move-scale 1 1 1
latt-scale 3 3 1 
lattice  \
	   4.727486978767153   -2.363743489383575    0.000000000000000  \
	  -0.000000000000000    4.094123819672498    0.000000000000000  \
	   0.000000000000000    0.000000000000000   40.000000000000000 
lattice-minimize  \
	dirUpdateScheme      L-BFGS \
	linminMethod         DirUpdateRecommended \
	nIterations          0 \
	history              15 \
	knormThreshold       0 \
	energyDiffThreshold  1e-06 \
	nEnergyDiff          2 \
	alphaTstart          1 \
	alphaTmin            1e-10 \
	updateTestStepSize   yes \
	alphaTreduceFactor   0.1 \
	alphaTincreaseFactor 3 \
	nAlphaAdjustMax      3 \
	wolfeEnergy          0.0001 \
	wolfeGradient        0.9 \
	fdTest               no
lcao-params -1 1e-06 1e-05
pcm-variant GLSSA13
spintype z-spin
subspace-rotation-factor 1 yes
symmetries automatic
symmetry-threshold 0.0001



---------- Setting up symmetries ----------

Found 24 point-group symmetries of the bravais lattice
Found 24 space-group symmetries with basis
Applied RMS atom displacement 0 bohrs to make symmetries exact.

---------- Initializing the Grid ----------
R = 
[      14.1825     -7.09123            0  ]
[            0      12.2824            0  ]
[            0            0           40  ]
unit cell volume = 6967.77
G =
[   0.443025   0.255781         -0  ]
[          0   0.511561         -0  ]
[         -0         -0    0.15708  ]
Minimum fftbox size, Smin = [  60  60  164  ]
Chosen fftbox size, S = [  60  60  168  ]

---------- Exchange Correlation functional ----------
Initalized PBE GGA exchange.
Initalized PBE GGA correlation.

---------- Setting up pseudopotentials ----------
Width of ionic core gaussian charges (only for fluid interactions / plotting) set to 0

Reading pseudopotential file '/home/gridsan/aligho/DFT/build-Nov24/pseudopotentials/SG15/Rb_ONCV_PBE.upf':
  'Rb' pseudopotential, 'PBE' functional
  Generated using ONCVPSP code by D. R. Hamann
  Author: Martin Schlipf and Francois Gygi  Date: 150915.
  9 valence electrons, 3 orbitals, 6 projectors, 2308 radial grid points, with lMax = 2
  Transforming local potential to a uniform radial grid of dG=0.02 with 1489 points.
  Transforming nonlocal projectors to a uniform radial grid of dG=0.02 with 432 points.
    4S    l: 0   occupation:  2.0   eigenvalue: -1.172069
    4P    l: 1   occupation:  6.0   eigenvalue: -0.586674
    5S    l: 0   occupation:  1.0   eigenvalue: -0.082006
  Transforming atomic orbitals to a uniform radial grid of dG=0.02 with 432 points.
  Core radius for overlap checks: 2.60 bohrs.
  Reading pulay file /home/gridsan/aligho/DFT/build-Nov24/pseudopotentials/SG15/Rb_ONCV_PBE.pulay ... using dE_dnG = -1.360715e-05 computed for Ecut = 20.

Initialized 1 species with 1 total atoms.

Folded 1 k-points by 12x12x1 to 144 k-points.

---------- Setting up k-points, bands, fillings ----------
Reduced to 19 k-points under symmetry. 
Computing the number of bands and number of electrons
Calculating initial fillings.
nElectrons:   9.000000   nBands: 6   nStates: 38

----- Setting up reduced wavefunction bases (one per k-point) -----
average nbasis = 29766.104 , ideal nbasis = 29766.845

---------- Setting up coulomb interaction ----------
Initialized slab truncation along lattice direction 001

---------- Setting up 2D ewald sum ----------
Optimum gaussian width for ewald sums = 7.873530 bohr.
Real space sums over 289 unit cells with max indices [  8  8  0  ]
Reciprocal space sums over 81 terms with max indices [  4  4  0  ]

---------- Allocating electronic variables ----------
Initializing wave functions:  linear combination of atomic orbitals
Note: number of bands (6) exceeds available atomic orbitals (5)
Rb pseudo-atom occupations:   s ( 2 1 )  p ( 6 )
	FillingsUpdate:  mu: -0.083980533  nElectrons: 9.000000  magneticMoment: [ Abs: 0.42000  Tot: -0.42000 ]
LCAOMinimize: Iter:   0  F: -24.4362039305678920  |grad|_K:  1.817e-05  alpha:  1.000e+00
	FillingsUpdate:  mu: -0.083977015  nElectrons: 9.000000  magneticMoment: [ Abs: 0.42000  Tot: -0.42000 ]
LCAOMinimize: Iter:   1  F: -24.4362041535308485  |grad|_K:  1.426e-07  alpha:  9.873e-01  linmin: -1.621e-02  cgtest:  3.830e-01  t[s]:      8.89
LCAOMinimize: Encountered beta<0, resetting CG.
	FillingsUpdate:  mu: -0.083977021  nElectrons: 9.000000  magneticMoment: [ Abs: 0.42000  Tot: -0.42000 ]
LCAOMinimize: Iter:   2  F: -24.4362041535451553  |grad|_K:  2.297e-09  alpha:  1.016e+00  linmin:  6.300e-02  cgtest: -9.786e-01  t[s]:     11.30
LCAOMinimize: Converged (|Delta F|<1.000000e-06 for 2 iters).


---- Citations for features of the code used in this run ----

   Software package:
      R. Sundararaman, K. Letchworth-Weaver, K.A. Schwarz, D. Gunceler, Y. Ozhabes and T.A. Arias, 'JDFTx: software for joint density-functional theory', SoftwareX 6, 278 (2017)

   gga-PBE exchange-correlation functional:
      J.P. Perdew, K. Burke and M. Ernzerhof, Phys. Rev. Lett. 77, 3865 (1996)

   Pseudopotentials:
      M Schlipf and F Gygi, Comput. Phys. Commun. 196, 36 (2015)

   Truncated Coulomb potentials:
      R. Sundararaman and T.A. Arias, Phys. Rev. B 87, 165122 (2013)

This list may not be complete. Please suggest additional citations or
report any other bugs at https://github.com/shankar1729/jdftx/issues

Initialization completed successfully at t[s]:     11.47


-------- Electronic minimization -----------
Will mix electronic density at each iteration.
	FillingsUpdate:  mu: -0.083977021  nElectrons: 9.000000  magneticMoment: [ Abs: 0.42000  Tot: -0.42000 ]
	FillingsUpdate:  mu: -0.085836634  nElectrons: 9.000000  magneticMoment: [ Abs: 0.42000  Tot: -0.42000 ]
SCF: Cycle:  0   F: -24.437866399362594   dF: -1.662e-03   |Residual|: 3.953e-03   |deigs|: 1.736e-01  t[s]:     16.33
	FillingsUpdate:  mu: -0.086016482  nElectrons: 9.000000  magneticMoment: [ Abs: 0.42025  Tot: -0.42000 ]
SCF: Cycle:  1   F: -24.437920238713328   dF: -5.384e-05   |Residual|: 3.250e-03   |deigs|: 4.641e-03  t[s]:     20.07
	FillingsUpdate:  mu: -0.086263661  nElectrons: 9.000000  magneticMoment: [ Abs: 0.42215  Tot: -0.42000 ]
SCF: Cycle:  2   F: -24.437957368445868   dF: -3.713e-05   |Residual|: 2.171e-03   |deigs|: 2.045e-03  t[s]:     23.90
	FillingsUpdate:  mu: -0.086485321  nElectrons: 9.000000  magneticMoment: [ Abs: 0.42262  Tot: -0.42000 ]
SCF: Cycle:  3   F: -24.437974753869096   dF: -1.739e-05   |Residual|: 1.342e-03   |deigs|: 2.714e-03  t[s]:     27.78
	FillingsUpdate:  mu: -0.086512816  nElectrons: 9.000000  magneticMoment: [ Abs: 0.42078  Tot: -0.42000 ]
SCF: Cycle:  4   F: -24.437983632242616   dF: -8.878e-06   |Residual|: 7.163e-04   |deigs|: 2.392e-03  t[s]:     31.72
	FillingsUpdate:  mu: -0.086521841  nElectrons: 9.000000  magneticMoment: [ Abs: 0.42146  Tot: -0.42000 ]
SCF: Cycle:  5   F: -24.437989134972838   dF: -5.503e-06   |Residual|: 4.863e-04   |deigs|: 1.592e-03  t[s]:     35.78
	FillingsUpdate:  mu: -0.086397032  nElectrons: 9.000000  magneticMoment: [ Abs: 0.42135  Tot: -0.42000 ]
SCF: Cycle:  6   F: -24.437992172679220   dF: -3.038e-06   |Residual|: 3.565e-04   |deigs|: 1.479e-03  t[s]:     39.80
	FillingsUpdate:  mu: -0.086201321  nElectrons: 9.000000  magneticMoment: [ Abs: 0.42159  Tot: -0.42000 ]
SCF: Cycle:  7   F: -24.437992776049160   dF: -6.034e-07   |Residual|: 2.898e-04   |deigs|: 5.920e-04  t[s]:     43.94
	FillingsUpdate:  mu: -0.085953365  nElectrons: 9.000000  magneticMoment: [ Abs: 0.42246  Tot: -0.42000 ]
SCF: Cycle:  8   F: -24.437992946416333   dF: -1.704e-07   |Residual|: 2.366e-04   |deigs|: 3.303e-04  t[s]:     48.25
	FillingsUpdate:  mu: -0.085614077  nElectrons: 9.000000  magneticMoment: [ Abs: 0.42250  Tot: -0.42000 ]
SCF: Cycle:  9   F: -24.437992003208834   dF: +9.432e-07   |Residual|: 2.052e-04   |deigs|: 4.056e-04  t[s]:     52.57
	FillingsUpdate:  mu: -0.085359310  nElectrons: 9.000000  magneticMoment: [ Abs: 0.42233  Tot: -0.42000 ]
SCF: Cycle: 10   F: -24.437992066835296   dF: -6.363e-08   |Residual|: 1.882e-04   |deigs|: 4.627e-04  t[s]:     56.87
	FillingsUpdate:  mu: -0.085270498  nElectrons: 9.000000  magneticMoment: [ Abs: 0.42226  Tot: -0.42000 ]
SCF: Cycle: 11   F: -24.437993376837252   dF: -1.310e-06   |Residual|: 1.425e-04   |deigs|: 4.366e-04  t[s]:     61.19
	FillingsUpdate:  mu: -0.085039256  nElectrons: 9.000000  magneticMoment: [ Abs: 0.42253  Tot: -0.42000 ]
SCF: Cycle: 12   F: -24.437993664363695   dF: -2.875e-07   |Residual|: 1.326e-04   |deigs|: 5.100e-04  t[s]:     65.49
	FillingsUpdate:  mu: -0.084607405  nElectrons: 9.000000  magneticMoment: [ Abs: 0.42218  Tot: -0.42000 ]
SCF: Cycle: 13   F: -24.437993069701999   dF: +5.947e-07   |Residual|: 1.347e-04   |deigs|: 4.726e-04  t[s]:     69.88
	FillingsUpdate:  mu: -0.084458624  nElectrons: 9.000000  magneticMoment: [ Abs: 0.42177  Tot: -0.42000 ]
SCF: Cycle: 14   F: -24.437993200255789   dF: -1.306e-07   |Residual|: 1.231e-04   |deigs|: 1.641e-04  t[s]:     74.16
	FillingsUpdate:  mu: -0.084358819  nElectrons: 9.000000  magneticMoment: [ Abs: 0.42206  Tot: -0.42000 ]
SCF: Cycle: 15   F: -24.437994073043676   dF: -8.728e-07   |Residual|: 1.061e-04   |deigs|: 1.023e-04  t[s]:     78.51
	FillingsUpdate:  mu: -0.084116848  nElectrons: 9.000000  magneticMoment: [ Abs: 0.42161  Tot: -0.42000 ]
SCF: Cycle: 16   F: -24.437994666432004   dF: -5.934e-07   |Residual|: 7.779e-05   |deigs|: 2.663e-04  t[s]:     82.75
	FillingsUpdate:  mu: -0.083964783  nElectrons: 9.000000  magneticMoment: [ Abs: 0.42144  Tot: -0.42000 ]
SCF: Cycle: 17   F: -24.437994920397923   dF: -2.540e-07   |Residual|: 5.007e-05   |deigs|: 1.861e-04  t[s]:     87.01
	FillingsUpdate:  mu: -0.083995712  nElectrons: 9.000000  magneticMoment: [ Abs: 0.42143  Tot: -0.42000 ]
SCF: Cycle: 18   F: -24.437995032583054   dF: -1.122e-07   |Residual|: 3.369e-05   |deigs|: 1.478e-04  t[s]:     91.31
	FillingsUpdate:  mu: -0.084013074  nElectrons: 9.000000  magneticMoment: [ Abs: 0.42143  Tot: -0.42000 ]
SCF: Cycle: 19   F: -24.437995086248439   dF: -5.367e-08   |Residual|: 2.118e-05   |deigs|: 1.252e-04  t[s]:     95.59
	FillingsUpdate:  mu: -0.084004508  nElectrons: 9.000000  magneticMoment: [ Abs: 0.42143  Tot: -0.42000 ]
SCF: Cycle: 20   F: -24.437995108921374   dF: -2.267e-08   |Residual|: 1.275e-05   |deigs|: 9.829e-05  t[s]:     99.89
	FillingsUpdate:  mu: -0.084011376  nElectrons: 9.000000  magneticMoment: [ Abs: 0.42145  Tot: -0.42000 ]
SCF: Cycle: 21   F: -24.437995122543661   dF: -1.362e-08   |Residual|: 6.496e-06   |deigs|: 6.146e-05  t[s]:    104.18
	FillingsUpdate:  mu: -0.084012166  nElectrons: 9.000000  magneticMoment: [ Abs: 0.42145  Tot: -0.42000 ]
SCF: Cycle: 22   F: -24.437995125908710   dF: -3.365e-09   |Residual|: 4.703e-06   |deigs|: 3.242e-05  t[s]:    108.46
	FillingsUpdate:  mu: -0.084011923  nElectrons: 9.000000  magneticMoment: [ Abs: 0.42145  Tot: -0.42000 ]
SCF: Cycle: 23   F: -24.437995127743243   dF: -1.835e-09   |Residual|: 3.301e-06   |deigs|: 1.882e-05  t[s]:    112.72
SCF: Converged (|Delta E|<1.000000e-08 for 2 iters).


# Ionic positions in lattice coordinates:
ion Rb   0.000000000000000   0.000000000000000   0.000000000000000 0

# Forces in Lattice coordinates:
force Rb   0.000000000000000   0.000000000000000   0.000000000000000 0

# Energy components:
   Eewald =      -12.0320174002217755
       EH =        7.4939025543320961
     Eloc =      -22.4045943731381030
      Enl =       -0.7974800059746519
   Epulay =       -0.0000000014467880
      Exc =       -3.6478206806559443
       KE =        6.9500155625758273
-------------------------------------
     Etot =      -24.4379943445293399
       TS =        0.0000007832139037
-------------------------------------
        F =      -24.4379951277432426

IonicMinimize: Iter:   0  F: -24.437995127743243  |grad|_K:  0.000e+00  t[s]:    112.99
IonicMinimize: Converged (|grad|_K<1.000000e-04).

#--- Lowdin population analysis ---
# oxidation-state Rb +0.034
# magnetic-moments Rb -0.396

End date and time: Sun Feb  6 12:44:18 2022  (Duration: 0-0:01:53.03)
Done!
