
*************** JDFTx 1.6.0 (git hash 42ebbcc2) ***************

Start date and time: Sun Feb  6 12:45:10 2022
Executable jdftx with command-line: -i Alkali.in
Running on hosts (process indices):  d-4-6-3 (0-18)
Divided in process groups (process indices):  0 (0)  1 (1)  2 (2)  3 (3)  4 (4)  5 (5)  6 (6)  7 (7)  8 (8)  9 (9)  10 (10)  11 (11)  12 (12)  13 (13)  14 (14)  15 (15)  16 (16)  17 (17)  18 (18)
Resource initialization completed at t[s]:      0.00
Run totals: 19 processes, 48 threads, 0 GPUs


Input parsed successfully to the following command list (including defaults):

basis kpoint-dependent
coords-type Lattice
core-overlap-check vector
coulomb-interaction Slab 001
davidson-band-ratio 1.1
dump End None
dump-name $INPUT.$VAR
elec-cutoff 20
elec-eigen-algo Davidson
elec-ex-corr gga-PBE
elec-initial-magnetization -0.100000 yes
elec-smearing Fermi 1e-05
electronic-minimize  \
	dirUpdateScheme      FletcherReeves \
	linminMethod         DirUpdateRecommended \
	nIterations          100 \
	history              15 \
	knormThreshold       0 \
	energyDiffThreshold  1e-08 \
	nEnergyDiff          2 \
	alphaTstart          1 \
	alphaTmin            1e-10 \
	updateTestStepSize   yes \
	alphaTreduceFactor   0.1 \
	alphaTincreaseFactor 3 \
	nAlphaAdjustMax      3 \
	wolfeEnergy          0.0001 \
	wolfeGradient        0.9 \
	fdTest               no
electronic-scf  \
	nIterations	10000 \
	energyDiffThreshold	1e-08 \
	residualThreshold	1e-07 \
	mixFraction	0.5 \
	qMetric	0.8 \
	history	10 \
	nEigSteps	2 \
	eigDiffThreshold	1e-08 \
	mixedVariable	Density \
	qKerker	0.8 \
	qKappa	-1 \
	verbose	no \
	mixFractionMag	1.5
exchange-regularization WignerSeitzTruncated
fluid None
fluid-ex-corr (null) lda-PZ
fluid-gummel-loop 10 1.000000e-05
fluid-minimize  \
	dirUpdateScheme      PolakRibiere \
	linminMethod         DirUpdateRecommended \
	nIterations          100 \
	history              15 \
	knormThreshold       0 \
	energyDiffThreshold  0 \
	nEnergyDiff          2 \
	alphaTstart          1 \
	alphaTmin            1e-10 \
	updateTestStepSize   yes \
	alphaTreduceFactor   0.1 \
	alphaTincreaseFactor 3 \
	nAlphaAdjustMax      3 \
	wolfeEnergy          0.0001 \
	wolfeGradient        0.9 \
	fdTest               no
fluid-solvent H2O 55.338 ScalarEOS \
	epsBulk 78.4 \
	pMol 0.92466 \
	epsInf 1.77 \
	Pvap 1.06736e-10 \
	sigmaBulk 4.62e-05 \
	Rvdw 2.61727 \
	Res 1.42 \
	tauNuc 343133 \
	poleEl 15 7 1
forces-output-coords Positions
ion Rb   0.000000000000000   0.000000000000000   0.000000000000000 0
ion-species SG15/$ID_ONCV_PBE.upf
ion-width 0
ionic-minimize  \
	dirUpdateScheme      L-BFGS \
	linminMethod         DirUpdateRecommended \
	nIterations          0 \
	history              15 \
	knormThreshold       0.0001 \
	energyDiffThreshold  1e-06 \
	nEnergyDiff          2 \
	alphaTstart          1 \
	alphaTmin            1e-10 \
	updateTestStepSize   yes \
	alphaTreduceFactor   0.1 \
	alphaTincreaseFactor 3 \
	nAlphaAdjustMax      3 \
	wolfeEnergy          0.0001 \
	wolfeGradient        0.9 \
	fdTest               no
kpoint   0.000000000000   0.000000000000   0.000000000000  1.00000000000000
kpoint-folding 12 12 1 
latt-move-scale 1 1 1
latt-scale 4 4 1 
lattice  \
	   4.727486978767153   -2.363743489383575    0.000000000000000  \
	  -0.000000000000000    4.094123819672498    0.000000000000000  \
	   0.000000000000000    0.000000000000000   40.000000000000000 
lattice-minimize  \
	dirUpdateScheme      L-BFGS \
	linminMethod         DirUpdateRecommended \
	nIterations          0 \
	history              15 \
	knormThreshold       0 \
	energyDiffThreshold  1e-06 \
	nEnergyDiff          2 \
	alphaTstart          1 \
	alphaTmin            1e-10 \
	updateTestStepSize   yes \
	alphaTreduceFactor   0.1 \
	alphaTincreaseFactor 3 \
	nAlphaAdjustMax      3 \
	wolfeEnergy          0.0001 \
	wolfeGradient        0.9 \
	fdTest               no
lcao-params -1 1e-06 1e-05
pcm-variant GLSSA13
spintype z-spin
subspace-rotation-factor 1 yes
symmetries automatic
symmetry-threshold 0.0001



---------- Setting up symmetries ----------

Found 24 point-group symmetries of the bravais lattice
Found 24 space-group symmetries with basis
Applied RMS atom displacement 0 bohrs to make symmetries exact.

---------- Initializing the Grid ----------
R = 
[      18.9099     -9.45497            0  ]
[            0      16.3765            0  ]
[            0            0           40  ]
unit cell volume = 12387.1
G =
[   0.332269   0.191835         -0  ]
[          0   0.383671         -0  ]
[         -0         -0    0.15708  ]
Minimum fftbox size, Smin = [  80  80  164  ]
Chosen fftbox size, S = [  80  80  168  ]

---------- Exchange Correlation functional ----------
Initalized PBE GGA exchange.
Initalized PBE GGA correlation.

---------- Setting up pseudopotentials ----------
Width of ionic core gaussian charges (only for fluid interactions / plotting) set to 0

Reading pseudopotential file '/home/gridsan/aligho/DFT/build-Nov24/pseudopotentials/SG15/Rb_ONCV_PBE.upf':
  'Rb' pseudopotential, 'PBE' functional
  Generated using ONCVPSP code by D. R. Hamann
  Author: Martin Schlipf and Francois Gygi  Date: 150915.
  9 valence electrons, 3 orbitals, 6 projectors, 2308 radial grid points, with lMax = 2
  Transforming local potential to a uniform radial grid of dG=0.02 with 1489 points.
  Transforming nonlocal projectors to a uniform radial grid of dG=0.02 with 432 points.
    4S    l: 0   occupation:  2.0   eigenvalue: -1.172069
    4P    l: 1   occupation:  6.0   eigenvalue: -0.586674
    5S    l: 0   occupation:  1.0   eigenvalue: -0.082006
  Transforming atomic orbitals to a uniform radial grid of dG=0.02 with 432 points.
  Core radius for overlap checks: 2.60 bohrs.
  Reading pulay file /home/gridsan/aligho/DFT/build-Nov24/pseudopotentials/SG15/Rb_ONCV_PBE.pulay ... using dE_dnG = -1.360715e-05 computed for Ecut = 20.

Initialized 1 species with 1 total atoms.

Folded 1 k-points by 12x12x1 to 144 k-points.

---------- Setting up k-points, bands, fillings ----------
Reduced to 19 k-points under symmetry. 
Computing the number of bands and number of electrons
Calculating initial fillings.
nElectrons:   9.000000   nBands: 6   nStates: 38

----- Setting up reduced wavefunction bases (one per k-point) -----
average nbasis = 52924.021 , ideal nbasis = 52918.836

---------- Setting up coulomb interaction ----------
Initialized slab truncation along lattice direction 001

---------- Setting up 2D ewald sum ----------
Optimum gaussian width for ewald sums = 10.498040 bohr.
Real space sums over 289 unit cells with max indices [  8  8  0  ]
Reciprocal space sums over 81 terms with max indices [  4  4  0  ]

---------- Allocating electronic variables ----------
Initializing wave functions:  linear combination of atomic orbitals
Note: number of bands (6) exceeds available atomic orbitals (5)
Rb pseudo-atom occupations:   s ( 2 1 )  p ( 6 )
	FillingsUpdate:  mu: -0.082568673  nElectrons: 9.000000  magneticMoment: [ Abs: 0.10000  Tot: -0.10000 ]
LCAOMinimize: Iter:   0  F: -24.4305866475201192  |grad|_K:  5.307e-06  alpha:  1.000e+00
	FillingsUpdate:  mu: -0.082567498  nElectrons: 9.000000  magneticMoment: [ Abs: 0.10000  Tot: -0.10000 ]
LCAOMinimize: Iter:   1  F: -24.4305866665298232  |grad|_K:  2.563e-08  alpha:  9.867e-01  linmin: -8.992e-03  cgtest:  3.114e-01  t[s]:     15.08
LCAOMinimize: Encountered beta<0, resetting CG.
	FillingsUpdate:  mu: -0.082567496  nElectrons: 9.000000  magneticMoment: [ Abs: 0.10000  Tot: -0.10000 ]
LCAOMinimize: Iter:   2  F: -24.4305866665303419  |grad|_K:  8.653e-09  alpha:  1.338e+00  linmin:  1.782e-02  cgtest: -1.000e+00  t[s]:     19.06
LCAOMinimize: Converged (|Delta F|<1.000000e-06 for 2 iters).


---- Citations for features of the code used in this run ----

   Software package:
      R. Sundararaman, K. Letchworth-Weaver, K.A. Schwarz, D. Gunceler, Y. Ozhabes and T.A. Arias, 'JDFTx: software for joint density-functional theory', SoftwareX 6, 278 (2017)

   gga-PBE exchange-correlation functional:
      J.P. Perdew, K. Burke and M. Ernzerhof, Phys. Rev. Lett. 77, 3865 (1996)

   Pseudopotentials:
      M Schlipf and F Gygi, Comput. Phys. Commun. 196, 36 (2015)

   Truncated Coulomb potentials:
      R. Sundararaman and T.A. Arias, Phys. Rev. B 87, 165122 (2013)

This list may not be complete. Please suggest additional citations or
report any other bugs at https://github.com/shankar1729/jdftx/issues

Initialization completed successfully at t[s]:     19.33


-------- Electronic minimization -----------
Will mix electronic density at each iteration.
	FillingsUpdate:  mu: -0.082567496  nElectrons: 9.000000  magneticMoment: [ Abs: 0.10000  Tot: -0.10000 ]
	FillingsUpdate:  mu: -0.082672692  nElectrons: 9.000000  magneticMoment: [ Abs: 0.10000  Tot: -0.10000 ]
SCF: Cycle:  0   F: -24.430706513798818   dF: -1.198e-04   |Residual|: 6.839e-04   |deigs|: 1.757e-01  t[s]:     27.49
	FillingsUpdate:  mu: -0.082716835  nElectrons: 9.000000  magneticMoment: [ Abs: 0.10044  Tot: -0.10000 ]
SCF: Cycle:  1   F: -24.430708337054973   dF: -1.823e-06   |Residual|: 5.334e-04   |deigs|: 4.129e-03  t[s]:     33.98
	FillingsUpdate:  mu: -0.082796522  nElectrons: 9.000000  magneticMoment: [ Abs: 0.10049  Tot: -0.10000 ]
SCF: Cycle:  2   F: -24.430709118180893   dF: -7.811e-07   |Residual|: 3.975e-04   |deigs|: 1.571e-03  t[s]:     40.54
	FillingsUpdate:  mu: -0.082918306  nElectrons: 9.000000  magneticMoment: [ Abs: 0.10085  Tot: -0.10000 ]
SCF: Cycle:  3   F: -24.430709974943088   dF: -8.568e-07   |Residual|: 2.670e-04   |deigs|: 5.286e-04  t[s]:     47.19
	FillingsUpdate:  mu: -0.083016615  nElectrons: 9.000000  magneticMoment: [ Abs: 0.10058  Tot: -0.10000 ]
SCF: Cycle:  4   F: -24.430710701431334   dF: -7.265e-07   |Residual|: 1.697e-04   |deigs|: 3.839e-04  t[s]:     53.96
	FillingsUpdate:  mu: -0.083051019  nElectrons: 9.000000  magneticMoment: [ Abs: 0.10079  Tot: -0.10000 ]
SCF: Cycle:  5   F: -24.430711072147819   dF: -3.707e-07   |Residual|: 1.263e-04   |deigs|: 5.274e-04  t[s]:     60.81
	FillingsUpdate:  mu: -0.083050535  nElectrons: 9.000000  magneticMoment: [ Abs: 0.10069  Tot: -0.10000 ]
SCF: Cycle:  6   F: -24.430711367693679   dF: -2.955e-07   |Residual|: 7.557e-05   |deigs|: 1.035e-03  t[s]:     67.76
	FillingsUpdate:  mu: -0.083036624  nElectrons: 9.000000  magneticMoment: [ Abs: 0.10063  Tot: -0.10000 ]
SCF: Cycle:  7   F: -24.430711476849456   dF: -1.092e-07   |Residual|: 5.854e-05   |deigs|: 5.377e-04  t[s]:     74.84
	FillingsUpdate:  mu: -0.083012361  nElectrons: 9.000000  magneticMoment: [ Abs: 0.10062  Tot: -0.10000 ]
SCF: Cycle:  8   F: -24.430711545950523   dF: -6.910e-08   |Residual|: 3.920e-05   |deigs|: 2.817e-04  t[s]:     82.10
	FillingsUpdate:  mu: -0.082993167  nElectrons: 9.000000  magneticMoment: [ Abs: 0.10057  Tot: -0.10000 ]
SCF: Cycle:  9   F: -24.430711562114727   dF: -1.616e-08   |Residual|: 3.303e-05   |deigs|: 6.844e-05  t[s]:     89.42
	FillingsUpdate:  mu: -0.082973278  nElectrons: 9.000000  magneticMoment: [ Abs: 0.10063  Tot: -0.10000 ]
SCF: Cycle: 10   F: -24.430711561241107   dF: +8.736e-10   |Residual|: 2.859e-05   |deigs|: 1.612e-04  t[s]:     96.88
	FillingsUpdate:  mu: -0.082947232  nElectrons: 9.000000  magneticMoment: [ Abs: 0.10066  Tot: -0.10000 ]
SCF: Cycle: 11   F: -24.430711546989311   dF: +1.425e-08   |Residual|: 2.661e-05   |deigs|: 1.345e-04  t[s]:    104.39
	FillingsUpdate:  mu: -0.082921794  nElectrons: 9.000000  magneticMoment: [ Abs: 0.10061  Tot: -0.10000 ]
SCF: Cycle: 12   F: -24.430711517316357   dF: +2.967e-08   |Residual|: 2.338e-05   |deigs|: 5.636e-05  t[s]:    111.85
	FillingsUpdate:  mu: -0.082895802  nElectrons: 9.000000  magneticMoment: [ Abs: 0.10063  Tot: -0.10000 ]
SCF: Cycle: 13   F: -24.430711524128558   dF: -6.812e-09   |Residual|: 2.072e-05   |deigs|: 4.834e-05  t[s]:    119.27
	FillingsUpdate:  mu: -0.082875138  nElectrons: 9.000000  magneticMoment: [ Abs: 0.10062  Tot: -0.10000 ]
SCF: Cycle: 14   F: -24.430711492638665   dF: +3.149e-08   |Residual|: 2.052e-05   |deigs|: 8.001e-05  t[s]:    126.64
	FillingsUpdate:  mu: -0.082849243  nElectrons: 9.000000  magneticMoment: [ Abs: 0.10063  Tot: -0.10000 ]
SCF: Cycle: 15   F: -24.430711506019403   dF: -1.338e-08   |Residual|: 1.738e-05   |deigs|: 1.192e-04  t[s]:    134.09
	FillingsUpdate:  mu: -0.082825255  nElectrons: 9.000000  magneticMoment: [ Abs: 0.10063  Tot: -0.10000 ]
SCF: Cycle: 16   F: -24.430711531094051   dF: -2.507e-08   |Residual|: 1.523e-05   |deigs|: 1.078e-04  t[s]:    141.55
	FillingsUpdate:  mu: -0.082806948  nElectrons: 9.000000  magneticMoment: [ Abs: 0.10057  Tot: -0.10000 ]
SCF: Cycle: 17   F: -24.430711516681878   dF: +1.441e-08   |Residual|: 1.376e-05   |deigs|: 6.389e-05  t[s]:    148.91
	FillingsUpdate:  mu: -0.082801247  nElectrons: 9.000000  magneticMoment: [ Abs: 0.10057  Tot: -0.10000 ]
SCF: Cycle: 18   F: -24.430711561554663   dF: -4.487e-08   |Residual|: 1.124e-05   |deigs|: 3.275e-05  t[s]:    156.24
	FillingsUpdate:  mu: -0.082797576  nElectrons: 9.000000  magneticMoment: [ Abs: 0.10058  Tot: -0.10000 ]
SCF: Cycle: 19   F: -24.430711561321811   dF: +2.329e-10   |Residual|: 8.695e-06   |deigs|: 1.676e-05  t[s]:    163.07
	FillingsUpdate:  mu: -0.082792563  nElectrons: 9.000000  magneticMoment: [ Abs: 0.10057  Tot: -0.10000 ]
SCF: Cycle: 20   F: -24.430711600274300   dF: -3.895e-08   |Residual|: 6.352e-06   |deigs|: 9.645e-06  t[s]:    170.55
	FillingsUpdate:  mu: -0.082790025  nElectrons: 9.000000  magneticMoment: [ Abs: 0.10058  Tot: -0.10000 ]
SCF: Cycle: 21   F: -24.430711606664168   dF: -6.390e-09   |Residual|: 4.763e-06   |deigs|: 4.824e-06  t[s]:    177.31
	FillingsUpdate:  mu: -0.082789092  nElectrons: 9.000000  magneticMoment: [ Abs: 0.10058  Tot: -0.10000 ]
SCF: Cycle: 22   F: -24.430711603396734   dF: +3.267e-09   |Residual|: 3.789e-06   |deigs|: 3.051e-06  t[s]:    184.32
	FillingsUpdate:  mu: -0.082787994  nElectrons: 9.000000  magneticMoment: [ Abs: 0.10057  Tot: -0.10000 ]
SCF: Cycle: 23   F: -24.430711608147273   dF: -4.751e-09   |Residual|: 2.433e-06   |deigs|: 3.516e-06  t[s]:    191.58
	FillingsUpdate:  mu: -0.082787968  nElectrons: 9.000000  magneticMoment: [ Abs: 0.10057  Tot: -0.10000 ]
SCF: Cycle: 24   F: -24.430711611609286   dF: -3.462e-09   |Residual|: 1.591e-06   |deigs|: 3.902e-06  t[s]:    198.51
SCF: Converged (|Delta E|<1.000000e-08 for 2 iters).


# Ionic positions in lattice coordinates:
ion Rb   0.000000000000000   0.000000000000000   0.000000000000000 0

# Forces in Lattice coordinates:
force Rb   0.000000000000000   0.000000000000000   0.000000000000000 0

# Energy components:
   Eewald =       -9.0240130501663280
       EH =       10.5160795748776170
     Eloc =      -28.4397484618902929
      Enl =       -0.7932471379420005
   Epulay =        0.0000000056959385
      Exc =       -3.6473726367799939
       KE =        6.9575911920314812
-------------------------------------
     Etot =      -24.4307105141735832
       TS =        0.0000010974357044
-------------------------------------
        F =      -24.4307116116092864

IonicMinimize: Iter:   0  F: -24.430711611609286  |grad|_K:  0.000e+00  t[s]:    198.93
IonicMinimize: Converged (|grad|_K<1.000000e-04).

#--- Lowdin population analysis ---
# oxidation-state Rb +0.002
# magnetic-moments Rb -0.100

End date and time: Sun Feb  6 12:48:29 2022  (Duration: 0-0:03:19.00)
Done!
