
*************** JDFTx 1.6.0 (git hash 42ebbcc2) ***************

Start date and time: Sun Feb  6 12:38:00 2022
Executable jdftx with command-line: -i Alkali.in
Running on hosts (process indices):  d-4-5-2 (0-18)
Divided in process groups (process indices):  0 (0)  1 (1)  2 (2)  3 (3)  4 (4)  5 (5)  6 (6)  7 (7)  8 (8)  9 (9)  10 (10)  11 (11)  12 (12)  13 (13)  14 (14)  15 (15)  16 (16)  17 (17)  18 (18)
Resource initialization completed at t[s]:      0.00
Run totals: 19 processes, 48 threads, 0 GPUs


Input parsed successfully to the following command list (including defaults):

basis kpoint-dependent
coords-type Lattice
core-overlap-check vector
coulomb-interaction Slab 001
davidson-band-ratio 1.1
dump End None
dump-name $INPUT.$VAR
elec-cutoff 20
elec-eigen-algo Davidson
elec-ex-corr gga-PBE
elec-initial-magnetization -0.980000 yes
elec-smearing Fermi 1e-05
electronic-minimize  \
	dirUpdateScheme      FletcherReeves \
	linminMethod         DirUpdateRecommended \
	nIterations          100 \
	history              15 \
	knormThreshold       0 \
	energyDiffThreshold  1e-08 \
	nEnergyDiff          2 \
	alphaTstart          1 \
	alphaTmin            1e-10 \
	updateTestStepSize   yes \
	alphaTreduceFactor   0.1 \
	alphaTincreaseFactor 3 \
	nAlphaAdjustMax      3 \
	wolfeEnergy          0.0001 \
	wolfeGradient        0.9 \
	fdTest               no
electronic-scf  \
	nIterations	10000 \
	energyDiffThreshold	1e-08 \
	residualThreshold	1e-07 \
	mixFraction	0.5 \
	qMetric	0.8 \
	history	10 \
	nEigSteps	2 \
	eigDiffThreshold	1e-08 \
	mixedVariable	Density \
	qKerker	0.8 \
	qKappa	-1 \
	verbose	no \
	mixFractionMag	1.5
exchange-regularization WignerSeitzTruncated
fluid None
fluid-ex-corr (null) lda-PZ
fluid-gummel-loop 10 1.000000e-05
fluid-minimize  \
	dirUpdateScheme      PolakRibiere \
	linminMethod         DirUpdateRecommended \
	nIterations          100 \
	history              15 \
	knormThreshold       0 \
	energyDiffThreshold  0 \
	nEnergyDiff          2 \
	alphaTstart          1 \
	alphaTmin            1e-10 \
	updateTestStepSize   yes \
	alphaTreduceFactor   0.1 \
	alphaTincreaseFactor 3 \
	nAlphaAdjustMax      3 \
	wolfeEnergy          0.0001 \
	wolfeGradient        0.9 \
	fdTest               no
fluid-solvent H2O 55.338 ScalarEOS \
	epsBulk 78.4 \
	pMol 0.92466 \
	epsInf 1.77 \
	Pvap 1.06736e-10 \
	sigmaBulk 4.62e-05 \
	Rvdw 2.61727 \
	Res 1.42 \
	tauNuc 343133 \
	poleEl 15 7 1
forces-output-coords Positions
ion Rb   0.000000000000000   0.000000000000000   0.000000000000000 0
ion-species SG15/$ID_ONCV_PBE.upf
ion-width 0
ionic-minimize  \
	dirUpdateScheme      L-BFGS \
	linminMethod         DirUpdateRecommended \
	nIterations          0 \
	history              15 \
	knormThreshold       0.0001 \
	energyDiffThreshold  1e-06 \
	nEnergyDiff          2 \
	alphaTstart          1 \
	alphaTmin            1e-10 \
	updateTestStepSize   yes \
	alphaTreduceFactor   0.1 \
	alphaTincreaseFactor 3 \
	nAlphaAdjustMax      3 \
	wolfeEnergy          0.0001 \
	wolfeGradient        0.9 \
	fdTest               no
kpoint   0.000000000000   0.000000000000   0.000000000000  1.00000000000000
kpoint-folding 12 12 1 
latt-move-scale 1 1 1
latt-scale 4 4 1 
lattice  \
	   4.727486978767153   -2.363743489383575    0.000000000000000  \
	  -0.000000000000000    4.094123819672498    0.000000000000000  \
	   0.000000000000000    0.000000000000000   40.000000000000000 
lattice-minimize  \
	dirUpdateScheme      L-BFGS \
	linminMethod         DirUpdateRecommended \
	nIterations          0 \
	history              15 \
	knormThreshold       0 \
	energyDiffThreshold  1e-06 \
	nEnergyDiff          2 \
	alphaTstart          1 \
	alphaTmin            1e-10 \
	updateTestStepSize   yes \
	alphaTreduceFactor   0.1 \
	alphaTincreaseFactor 3 \
	nAlphaAdjustMax      3 \
	wolfeEnergy          0.0001 \
	wolfeGradient        0.9 \
	fdTest               no
lcao-params -1 1e-06 1e-05
pcm-variant GLSSA13
spintype z-spin
subspace-rotation-factor 1 yes
symmetries automatic
symmetry-threshold 0.0001



---------- Setting up symmetries ----------

Found 24 point-group symmetries of the bravais lattice
Found 24 space-group symmetries with basis
Applied RMS atom displacement 0 bohrs to make symmetries exact.

---------- Initializing the Grid ----------
R = 
[      18.9099     -9.45497            0  ]
[            0      16.3765            0  ]
[            0            0           40  ]
unit cell volume = 12387.1
G =
[   0.332269   0.191835         -0  ]
[          0   0.383671         -0  ]
[         -0         -0    0.15708  ]
Minimum fftbox size, Smin = [  80  80  164  ]
Chosen fftbox size, S = [  80  80  168  ]

---------- Exchange Correlation functional ----------
Initalized PBE GGA exchange.
Initalized PBE GGA correlation.

---------- Setting up pseudopotentials ----------
Width of ionic core gaussian charges (only for fluid interactions / plotting) set to 0

Reading pseudopotential file '/home/gridsan/aligho/DFT/build-Nov24/pseudopotentials/SG15/Rb_ONCV_PBE.upf':
  'Rb' pseudopotential, 'PBE' functional
  Generated using ONCVPSP code by D. R. Hamann
  Author: Martin Schlipf and Francois Gygi  Date: 150915.
  9 valence electrons, 3 orbitals, 6 projectors, 2308 radial grid points, with lMax = 2
  Transforming local potential to a uniform radial grid of dG=0.02 with 1489 points.
  Transforming nonlocal projectors to a uniform radial grid of dG=0.02 with 432 points.
    4S    l: 0   occupation:  2.0   eigenvalue: -1.172069
    4P    l: 1   occupation:  6.0   eigenvalue: -0.586674
    5S    l: 0   occupation:  1.0   eigenvalue: -0.082006
  Transforming atomic orbitals to a uniform radial grid of dG=0.02 with 432 points.
  Core radius for overlap checks: 2.60 bohrs.
  Reading pulay file /home/gridsan/aligho/DFT/build-Nov24/pseudopotentials/SG15/Rb_ONCV_PBE.pulay ... using dE_dnG = -1.360715e-05 computed for Ecut = 20.

Initialized 1 species with 1 total atoms.

Folded 1 k-points by 12x12x1 to 144 k-points.

---------- Setting up k-points, bands, fillings ----------
Reduced to 19 k-points under symmetry. 
Computing the number of bands and number of electrons
Calculating initial fillings.
nElectrons:   9.000000   nBands: 6   nStates: 38

----- Setting up reduced wavefunction bases (one per k-point) -----
average nbasis = 52924.021 , ideal nbasis = 52918.836

---------- Setting up coulomb interaction ----------
Initialized slab truncation along lattice direction 001

---------- Setting up 2D ewald sum ----------
Optimum gaussian width for ewald sums = 10.498040 bohr.
Real space sums over 289 unit cells with max indices [  8  8  0  ]
Reciprocal space sums over 81 terms with max indices [  4  4  0  ]

---------- Allocating electronic variables ----------
Initializing wave functions:  linear combination of atomic orbitals
Note: number of bands (6) exceeds available atomic orbitals (5)
Rb pseudo-atom occupations:   s ( 2 1 )  p ( 6 )
	FillingsUpdate:  mu: -0.078199526  nElectrons: 9.000000  magneticMoment: [ Abs: 0.98000  Tot: -0.98000 ]
LCAOMinimize: Iter:   0  F: -24.4338971223023975  |grad|_K:  1.923e-07  alpha:  1.000e+00
	FillingsUpdate:  mu: -0.078199506  nElectrons: 9.000000  magneticMoment: [ Abs: 0.98000  Tot: -0.98000 ]
LCAOMinimize: Iter:   1  F: -24.4338971223276324  |grad|_K:  3.722e-10  alpha:  9.998e-01  linmin: -9.606e-04  cgtest:  6.973e-02  t[s]:     14.98
LCAOMinimize: Encountered beta<0, resetting CG.
LCAOMinimize: 	Wrong curvature in test step, increasing alphaT to 2.999328e+00.
	FillingsUpdate:  mu: -0.078199506  nElectrons: 9.000000  magneticMoment: [ Abs: 0.98000  Tot: -0.98000 ]
LCAOMinimize: Iter:   2  F: -24.4338971223277319  |grad|_K:  3.783e-12  alpha: -9.522e-04  linmin:  4.309e-02  cgtest: -9.605e-01  t[s]:     18.92
LCAOMinimize: Converged (|Delta F|<1.000000e-06 for 2 iters).


---- Citations for features of the code used in this run ----

   Software package:
      R. Sundararaman, K. Letchworth-Weaver, K.A. Schwarz, D. Gunceler, Y. Ozhabes and T.A. Arias, 'JDFTx: software for joint density-functional theory', SoftwareX 6, 278 (2017)

   gga-PBE exchange-correlation functional:
      J.P. Perdew, K. Burke and M. Ernzerhof, Phys. Rev. Lett. 77, 3865 (1996)

   Pseudopotentials:
      M Schlipf and F Gygi, Comput. Phys. Commun. 196, 36 (2015)

   Truncated Coulomb potentials:
      R. Sundararaman and T.A. Arias, Phys. Rev. B 87, 165122 (2013)

This list may not be complete. Please suggest additional citations or
report any other bugs at https://github.com/shankar1729/jdftx/issues

Initialization completed successfully at t[s]:     19.18


-------- Electronic minimization -----------
Will mix electronic density at each iteration.
	FillingsUpdate:  mu: -0.078199506  nElectrons: 9.000000  magneticMoment: [ Abs: 0.98000  Tot: -0.98000 ]
	FillingsUpdate:  mu: -0.078541498  nElectrons: 9.000000  magneticMoment: [ Abs: 0.98000  Tot: -0.98000 ]
SCF: Cycle:  0   F: -24.434053200761728   dF: -1.561e-04   |Residual|: 2.379e-03   |deigs|: 1.620e-01  t[s]:     27.24
	FillingsUpdate:  mu: -0.078880795  nElectrons: 9.000000  magneticMoment: [ Abs: 0.98641  Tot: -0.98000 ]
SCF: Cycle:  1   F: -24.434056371382866   dF: -3.171e-06   |Residual|: 6.254e-04   |deigs|: 1.404e-02  t[s]:     33.62
	FillingsUpdate:  mu: -0.078713368  nElectrons: 9.000000  magneticMoment: [ Abs: 0.98604  Tot: -0.98000 ]
SCF: Cycle:  2   F: -24.434057174334875   dF: -8.030e-07   |Residual|: 4.372e-04   |deigs|: 3.306e-03  t[s]:     40.12
	FillingsUpdate:  mu: -0.078457697  nElectrons: 9.000000  magneticMoment: [ Abs: 0.98691  Tot: -0.98000 ]
SCF: Cycle:  3   F: -24.434057607969109   dF: -4.336e-07   |Residual|: 3.432e-04   |deigs|: 1.465e-03  t[s]:     46.69
	FillingsUpdate:  mu: -0.076902922  nElectrons: 9.000000  magneticMoment: [ Abs: 0.98668  Tot: -0.98000 ]
SCF: Cycle:  4   F: -24.434055792742978   dF: +1.815e-06   |Residual|: 1.935e-04   |deigs|: 1.336e-03  t[s]:     53.33
	FillingsUpdate:  mu: -0.076723349  nElectrons: 9.000000  magneticMoment: [ Abs: 0.98647  Tot: -0.98000 ]
SCF: Cycle:  5   F: -24.434056779028168   dF: -9.863e-07   |Residual|: 1.409e-04   |deigs|: 5.130e-04  t[s]:     60.19
	FillingsUpdate:  mu: -0.077076873  nElectrons: 9.000000  magneticMoment: [ Abs: 0.98647  Tot: -0.98000 ]
SCF: Cycle:  6   F: -24.434057689415859   dF: -9.104e-07   |Residual|: 9.943e-05   |deigs|: 3.422e-04  t[s]:     67.09
	FillingsUpdate:  mu: -0.077204390  nElectrons: 9.000000  magneticMoment: [ Abs: 0.98660  Tot: -0.98000 ]
SCF: Cycle:  7   F: -24.434058241413442   dF: -5.520e-07   |Residual|: 7.380e-05   |deigs|: 2.078e-04  t[s]:     74.17
	FillingsUpdate:  mu: -0.077250816  nElectrons: 9.000000  magneticMoment: [ Abs: 0.98649  Tot: -0.98000 ]
SCF: Cycle:  8   F: -24.434058342904784   dF: -1.015e-07   |Residual|: 5.720e-05   |deigs|: 1.028e-04  t[s]:     81.23
	FillingsUpdate:  mu: -0.077305522  nElectrons: 9.000000  magneticMoment: [ Abs: 0.98653  Tot: -0.98000 ]
SCF: Cycle:  9   F: -24.434058208347274   dF: +1.346e-07   |Residual|: 4.357e-05   |deigs|: 2.051e-04  t[s]:     88.45
	FillingsUpdate:  mu: -0.077360971  nElectrons: 9.000000  magneticMoment: [ Abs: 0.98657  Tot: -0.98000 ]
SCF: Cycle: 10   F: -24.434058213125816   dF: -4.779e-09   |Residual|: 4.206e-05   |deigs|: 1.082e-04  t[s]:     95.80
	FillingsUpdate:  mu: -0.077419377  nElectrons: 9.000000  magneticMoment: [ Abs: 0.98661  Tot: -0.98000 ]
SCF: Cycle: 11   F: -24.434058260749509   dF: -4.762e-08   |Residual|: 3.809e-05   |deigs|: 1.643e-04  t[s]:    103.15
	FillingsUpdate:  mu: -0.077456369  nElectrons: 9.000000  magneticMoment: [ Abs: 0.98674  Tot: -0.98000 ]
SCF: Cycle: 12   F: -24.434058509250210   dF: -2.485e-07   |Residual|: 3.014e-05   |deigs|: 3.055e-04  t[s]:    110.53
	FillingsUpdate:  mu: -0.077409186  nElectrons: 9.000000  magneticMoment: [ Abs: 0.98663  Tot: -0.98000 ]
SCF: Cycle: 13   F: -24.434058535252728   dF: -2.600e-08   |Residual|: 2.670e-05   |deigs|: 6.451e-05  t[s]:    117.88
	FillingsUpdate:  mu: -0.077369140  nElectrons: 9.000000  magneticMoment: [ Abs: 0.98665  Tot: -0.98000 ]
SCF: Cycle: 14   F: -24.434058528146398   dF: +7.106e-09   |Residual|: 2.348e-05   |deigs|: 7.309e-05  t[s]:    125.25
	FillingsUpdate:  mu: -0.077272740  nElectrons: 9.000000  magneticMoment: [ Abs: 0.98666  Tot: -0.98000 ]
SCF: Cycle: 15   F: -24.434058517354654   dF: +1.079e-08   |Residual|: 2.229e-05   |deigs|: 7.709e-05  t[s]:    132.60
	FillingsUpdate:  mu: -0.077221741  nElectrons: 9.000000  magneticMoment: [ Abs: 0.98666  Tot: -0.98000 ]
SCF: Cycle: 16   F: -24.434058554901185   dF: -3.755e-08   |Residual|: 2.142e-05   |deigs|: 6.498e-05  t[s]:    139.94
	FillingsUpdate:  mu: -0.077324980  nElectrons: 9.000000  magneticMoment: [ Abs: 0.98669  Tot: -0.98000 ]
SCF: Cycle: 17   F: -24.434058597434749   dF: -4.253e-08   |Residual|: 1.593e-05   |deigs|: 1.468e-04  t[s]:    147.19
	FillingsUpdate:  mu: -0.077359078  nElectrons: 9.000000  magneticMoment: [ Abs: 0.98666  Tot: -0.98000 ]
SCF: Cycle: 18   F: -24.434058633713196   dF: -3.628e-08   |Residual|: 1.103e-05   |deigs|: 8.347e-05  t[s]:    154.47
	FillingsUpdate:  mu: -0.077360789  nElectrons: 9.000000  magneticMoment: [ Abs: 0.98660  Tot: -0.98000 ]
SCF: Cycle: 19   F: -24.434058634860264   dF: -1.147e-09   |Residual|: 8.507e-06   |deigs|: 3.815e-05  t[s]:    161.62
	FillingsUpdate:  mu: -0.077357897  nElectrons: 9.000000  magneticMoment: [ Abs: 0.98657  Tot: -0.98000 ]
SCF: Cycle: 20   F: -24.434058628824495   dF: +6.036e-09   |Residual|: 6.682e-06   |deigs|: 3.027e-05  t[s]:    168.99
	FillingsUpdate:  mu: -0.077356932  nElectrons: 9.000000  magneticMoment: [ Abs: 0.98652  Tot: -0.98000 ]
SCF: Cycle: 21   F: -24.434058649617132   dF: -2.079e-08   |Residual|: 5.174e-06   |deigs|: 2.888e-05  t[s]:    176.27
	FillingsUpdate:  mu: -0.077362220  nElectrons: 9.000000  magneticMoment: [ Abs: 0.98652  Tot: -0.98000 ]
SCF: Cycle: 22   F: -24.434058649175729   dF: +4.414e-10   |Residual|: 3.405e-06   |deigs|: 1.862e-05  t[s]:    183.39
	FillingsUpdate:  mu: -0.077358542  nElectrons: 9.000000  magneticMoment: [ Abs: 0.98651  Tot: -0.98000 ]
SCF: Cycle: 23   F: -24.434058657923877   dF: -8.748e-09   |Residual|: 2.031e-06   |deigs|: 1.374e-05  t[s]:    190.77
	FillingsUpdate:  mu: -0.077360974  nElectrons: 9.000000  magneticMoment: [ Abs: 0.98651  Tot: -0.98000 ]
SCF: Cycle: 24   F: -24.434058658842392   dF: -9.185e-10   |Residual|: 1.438e-06   |deigs|: 8.494e-06  t[s]:    197.84
SCF: Converged (|Delta E|<1.000000e-08 for 2 iters).


# Ionic positions in lattice coordinates:
ion Rb   0.000000000000000   0.000000000000000   0.000000000000000 0

# Forces in Lattice coordinates:
force Rb  -0.000000000000000  -0.000000000000000   0.000000000000000 0

# Energy components:
   Eewald =       -9.0240130501663280
       EH =       10.5588072707524301
     Eloc =      -28.4858030829063402
      Enl =       -0.7917983501591505
   Epulay =        0.0000000056959385
      Exc =       -3.6563139349746523
       KE =        6.9650626745116320
-------------------------------------
     Etot =      -24.4340584672464693
       TS =        0.0000001915959230
-------------------------------------
        F =      -24.4340586588423925

IonicMinimize: Iter:   0  F: -24.434058658842392  |grad|_K:  0.000e+00  t[s]:    198.25
IonicMinimize: Converged (|grad|_K<1.000000e-04).

#--- Lowdin population analysis ---
# oxidation-state Rb +0.001
# magnetic-moments Rb -0.979

End date and time: Sun Feb  6 12:41:19 2022  (Duration: 0-0:03:18.31)
Done!
