
*************** JDFTx 1.6.0 (git hash 42ebbcc2) ***************

Start date and time: Sun Feb  6 12:37:53 2022
Executable jdftx with command-line: -i Alkali.in
Running on hosts (process indices):  d-17-6-4 (0-18)
Divided in process groups (process indices):  0 (0)  1 (1)  2 (2)  3 (3)  4 (4)  5 (5)  6 (6)  7 (7)  8 (8)  9 (9)  10 (10)  11 (11)  12 (12)  13 (13)  14 (14)  15 (15)  16 (16)  17 (17)  18 (18)
Resource initialization completed at t[s]:      0.00
Run totals: 19 processes, 48 threads, 0 GPUs


Input parsed successfully to the following command list (including defaults):

basis kpoint-dependent
coords-type Lattice
core-overlap-check vector
coulomb-interaction Slab 001
davidson-band-ratio 1.1
dump End None
dump-name $INPUT.$VAR
elec-cutoff 20
elec-eigen-algo Davidson
elec-ex-corr gga-PBE
elec-initial-magnetization -0.700000 yes
elec-smearing Fermi 1e-05
electronic-minimize  \
	dirUpdateScheme      FletcherReeves \
	linminMethod         DirUpdateRecommended \
	nIterations          100 \
	history              15 \
	knormThreshold       0 \
	energyDiffThreshold  1e-08 \
	nEnergyDiff          2 \
	alphaTstart          1 \
	alphaTmin            1e-10 \
	updateTestStepSize   yes \
	alphaTreduceFactor   0.1 \
	alphaTincreaseFactor 3 \
	nAlphaAdjustMax      3 \
	wolfeEnergy          0.0001 \
	wolfeGradient        0.9 \
	fdTest               no
electronic-scf  \
	nIterations	10000 \
	energyDiffThreshold	1e-08 \
	residualThreshold	1e-07 \
	mixFraction	0.5 \
	qMetric	0.8 \
	history	10 \
	nEigSteps	2 \
	eigDiffThreshold	1e-08 \
	mixedVariable	Density \
	qKerker	0.8 \
	qKappa	-1 \
	verbose	no \
	mixFractionMag	1.5
exchange-regularization WignerSeitzTruncated
fluid None
fluid-ex-corr (null) lda-PZ
fluid-gummel-loop 10 1.000000e-05
fluid-minimize  \
	dirUpdateScheme      PolakRibiere \
	linminMethod         DirUpdateRecommended \
	nIterations          100 \
	history              15 \
	knormThreshold       0 \
	energyDiffThreshold  0 \
	nEnergyDiff          2 \
	alphaTstart          1 \
	alphaTmin            1e-10 \
	updateTestStepSize   yes \
	alphaTreduceFactor   0.1 \
	alphaTincreaseFactor 3 \
	nAlphaAdjustMax      3 \
	wolfeEnergy          0.0001 \
	wolfeGradient        0.9 \
	fdTest               no
fluid-solvent H2O 55.338 ScalarEOS \
	epsBulk 78.4 \
	pMol 0.92466 \
	epsInf 1.77 \
	Pvap 1.06736e-10 \
	sigmaBulk 4.62e-05 \
	Rvdw 2.61727 \
	Res 1.42 \
	tauNuc 343133 \
	poleEl 15 7 1
forces-output-coords Positions
ion Rb   0.000000000000000   0.000000000000000   0.000000000000000 0
ion-species SG15/$ID_ONCV_PBE.upf
ion-width 0
ionic-minimize  \
	dirUpdateScheme      L-BFGS \
	linminMethod         DirUpdateRecommended \
	nIterations          0 \
	history              15 \
	knormThreshold       0.0001 \
	energyDiffThreshold  1e-06 \
	nEnergyDiff          2 \
	alphaTstart          1 \
	alphaTmin            1e-10 \
	updateTestStepSize   yes \
	alphaTreduceFactor   0.1 \
	alphaTincreaseFactor 3 \
	nAlphaAdjustMax      3 \
	wolfeEnergy          0.0001 \
	wolfeGradient        0.9 \
	fdTest               no
kpoint   0.000000000000   0.000000000000   0.000000000000  1.00000000000000
kpoint-folding 12 12 1 
latt-move-scale 1 1 1
latt-scale 4 4 1 
lattice  \
	   4.727486978767153   -2.363743489383575    0.000000000000000  \
	  -0.000000000000000    4.094123819672498    0.000000000000000  \
	   0.000000000000000    0.000000000000000   40.000000000000000 
lattice-minimize  \
	dirUpdateScheme      L-BFGS \
	linminMethod         DirUpdateRecommended \
	nIterations          0 \
	history              15 \
	knormThreshold       0 \
	energyDiffThreshold  1e-06 \
	nEnergyDiff          2 \
	alphaTstart          1 \
	alphaTmin            1e-10 \
	updateTestStepSize   yes \
	alphaTreduceFactor   0.1 \
	alphaTincreaseFactor 3 \
	nAlphaAdjustMax      3 \
	wolfeEnergy          0.0001 \
	wolfeGradient        0.9 \
	fdTest               no
lcao-params -1 1e-06 1e-05
pcm-variant GLSSA13
spintype z-spin
subspace-rotation-factor 1 yes
symmetries automatic
symmetry-threshold 0.0001



---------- Setting up symmetries ----------

Found 24 point-group symmetries of the bravais lattice
Found 24 space-group symmetries with basis
Applied RMS atom displacement 0 bohrs to make symmetries exact.

---------- Initializing the Grid ----------
R = 
[      18.9099     -9.45497            0  ]
[            0      16.3765            0  ]
[            0            0           40  ]
unit cell volume = 12387.1
G =
[   0.332269   0.191835         -0  ]
[          0   0.383671         -0  ]
[         -0         -0    0.15708  ]
Minimum fftbox size, Smin = [  80  80  164  ]
Chosen fftbox size, S = [  80  80  168  ]

---------- Exchange Correlation functional ----------
Initalized PBE GGA exchange.
Initalized PBE GGA correlation.

---------- Setting up pseudopotentials ----------
Width of ionic core gaussian charges (only for fluid interactions / plotting) set to 0

Reading pseudopotential file '/home/gridsan/aligho/DFT/build-Nov24/pseudopotentials/SG15/Rb_ONCV_PBE.upf':
  'Rb' pseudopotential, 'PBE' functional
  Generated using ONCVPSP code by D. R. Hamann
  Author: Martin Schlipf and Francois Gygi  Date: 150915.
  9 valence electrons, 3 orbitals, 6 projectors, 2308 radial grid points, with lMax = 2
  Transforming local potential to a uniform radial grid of dG=0.02 with 1489 points.
  Transforming nonlocal projectors to a uniform radial grid of dG=0.02 with 432 points.
    4S    l: 0   occupation:  2.0   eigenvalue: -1.172069
    4P    l: 1   occupation:  6.0   eigenvalue: -0.586674
    5S    l: 0   occupation:  1.0   eigenvalue: -0.082006
  Transforming atomic orbitals to a uniform radial grid of dG=0.02 with 432 points.
  Core radius for overlap checks: 2.60 bohrs.
  Reading pulay file /home/gridsan/aligho/DFT/build-Nov24/pseudopotentials/SG15/Rb_ONCV_PBE.pulay ... using dE_dnG = -1.360715e-05 computed for Ecut = 20.

Initialized 1 species with 1 total atoms.

Folded 1 k-points by 12x12x1 to 144 k-points.

---------- Setting up k-points, bands, fillings ----------
Reduced to 19 k-points under symmetry. 
Computing the number of bands and number of electrons
Calculating initial fillings.
nElectrons:   9.000000   nBands: 6   nStates: 38

----- Setting up reduced wavefunction bases (one per k-point) -----
average nbasis = 52924.021 , ideal nbasis = 52918.836

---------- Setting up coulomb interaction ----------
Initialized slab truncation along lattice direction 001

---------- Setting up 2D ewald sum ----------
Optimum gaussian width for ewald sums = 10.498040 bohr.
Real space sums over 289 unit cells with max indices [  8  8  0  ]
Reciprocal space sums over 81 terms with max indices [  4  4  0  ]

---------- Allocating electronic variables ----------
Initializing wave functions:  linear combination of atomic orbitals
Note: number of bands (6) exceeds available atomic orbitals (5)
Rb pseudo-atom occupations:   s ( 2 1 )  p ( 6 )
	FillingsUpdate:  mu: -0.082656660  nElectrons: 9.000000  magneticMoment: [ Abs: 0.70000  Tot: -0.70000 ]
LCAOMinimize: Iter:   0  F: -24.4321637603283577  |grad|_K:  2.892e-06  alpha:  1.000e+00
	FillingsUpdate:  mu: -0.082656021  nElectrons: 9.000000  magneticMoment: [ Abs: 0.70000  Tot: -0.70000 ]
LCAOMinimize: Iter:   1  F: -24.4321637659930353  |grad|_K:  1.565e-08  alpha:  9.901e-01  linmin: -2.348e-03  cgtest:  1.145e-01  t[s]:     14.96
LCAOMinimize: Encountered beta<0, resetting CG.
LCAOMinimize: 	Step increased F by 3.588241e-13, reducing alpha to 3.124773e-02.
LCAOMinimize: 	Step increased F by 2.664535e-13, reducing alpha to 3.124773e-03.
LCAOMinimize: 	Step increased F by 9.947598e-14, reducing alpha to 3.124773e-04.
LCAOMinimize: 	Step failed to reduce F after 3 attempts. Quitting step.
LCAOMinimize: 	Undoing step.
LCAOMinimize: 	Step failed along negative gradient direction.
LCAOMinimize: Probably at roundoff error limit. (Stopping)


---- Citations for features of the code used in this run ----

   Software package:
      R. Sundararaman, K. Letchworth-Weaver, K.A. Schwarz, D. Gunceler, Y. Ozhabes and T.A. Arias, 'JDFTx: software for joint density-functional theory', SoftwareX 6, 278 (2017)

   gga-PBE exchange-correlation functional:
      J.P. Perdew, K. Burke and M. Ernzerhof, Phys. Rev. Lett. 77, 3865 (1996)

   Pseudopotentials:
      M Schlipf and F Gygi, Comput. Phys. Commun. 196, 36 (2015)

   Truncated Coulomb potentials:
      R. Sundararaman and T.A. Arias, Phys. Rev. B 87, 165122 (2013)

This list may not be complete. Please suggest additional citations or
report any other bugs at https://github.com/shankar1729/jdftx/issues

Initialization completed successfully at t[s]:     26.02


-------- Electronic minimization -----------
Will mix electronic density at each iteration.
	FillingsUpdate:  mu: -0.082656021  nElectrons: 9.000000  magneticMoment: [ Abs: 0.70000  Tot: -0.70000 ]
	FillingsUpdate:  mu: -0.082761719  nElectrons: 9.000000  magneticMoment: [ Abs: 0.70000  Tot: -0.70000 ]
SCF: Cycle:  0   F: -24.432270620884296   dF: -1.069e-04   |Residual|: 1.596e-03   |deigs|: 1.709e-01  t[s]:     34.09
	FillingsUpdate:  mu: -0.082759019  nElectrons: 9.000000  magneticMoment: [ Abs: 0.70366  Tot: -0.70000 ]
SCF: Cycle:  1   F: -24.432272753638287   dF: -2.133e-06   |Residual|: 3.884e-04   |deigs|: 8.431e-03  t[s]:     40.47
	FillingsUpdate:  mu: -0.082740500  nElectrons: 9.000000  magneticMoment: [ Abs: 0.70373  Tot: -0.70000 ]
SCF: Cycle:  2   F: -24.432273280069037   dF: -5.264e-07   |Residual|: 2.227e-04   |deigs|: 1.777e-03  t[s]:     46.96
	FillingsUpdate:  mu: -0.082728021  nElectrons: 9.000000  magneticMoment: [ Abs: 0.70429  Tot: -0.70000 ]
SCF: Cycle:  3   F: -24.432273575954618   dF: -2.959e-07   |Residual|: 1.645e-04   |deigs|: 7.311e-04  t[s]:     53.54
	FillingsUpdate:  mu: -0.082688799  nElectrons: 9.000000  magneticMoment: [ Abs: 0.70425  Tot: -0.70000 ]
SCF: Cycle:  4   F: -24.432273829672695   dF: -2.537e-07   |Residual|: 1.242e-04   |deigs|: 4.699e-04  t[s]:     60.23
	FillingsUpdate:  mu: -0.082638292  nElectrons: 9.000000  magneticMoment: [ Abs: 0.70428  Tot: -0.70000 ]
SCF: Cycle:  5   F: -24.432273965244750   dF: -1.356e-07   |Residual|: 8.742e-05   |deigs|: 5.992e-04  t[s]:     67.03
	FillingsUpdate:  mu: -0.082587551  nElectrons: 9.000000  magneticMoment: [ Abs: 0.70421  Tot: -0.70000 ]
SCF: Cycle:  6   F: -24.432274035510670   dF: -7.027e-08   |Residual|: 6.547e-05   |deigs|: 3.506e-04  t[s]:     73.88
	FillingsUpdate:  mu: -0.082560714  nElectrons: 9.000000  magneticMoment: [ Abs: 0.70423  Tot: -0.70000 ]
SCF: Cycle:  7   F: -24.432274090859675   dF: -5.535e-08   |Residual|: 5.417e-05   |deigs|: 6.973e-04  t[s]:     80.91
	FillingsUpdate:  mu: -0.082539254  nElectrons: 9.000000  magneticMoment: [ Abs: 0.70423  Tot: -0.70000 ]
SCF: Cycle:  8   F: -24.432274132453248   dF: -4.159e-08   |Residual|: 4.624e-05   |deigs|: 2.245e-04  t[s]:     88.08
	FillingsUpdate:  mu: -0.082512473  nElectrons: 9.000000  magneticMoment: [ Abs: 0.70421  Tot: -0.70000 ]
SCF: Cycle:  9   F: -24.432274162930469   dF: -3.048e-08   |Residual|: 3.626e-05   |deigs|: 7.532e-05  t[s]:     95.29
	FillingsUpdate:  mu: -0.082495592  nElectrons: 9.000000  magneticMoment: [ Abs: 0.70425  Tot: -0.70000 ]
SCF: Cycle: 10   F: -24.432274135710280   dF: +2.722e-08   |Residual|: 3.103e-05   |deigs|: 9.923e-05  t[s]:    102.62
	FillingsUpdate:  mu: -0.082471018  nElectrons: 9.000000  magneticMoment: [ Abs: 0.70431  Tot: -0.70000 ]
SCF: Cycle: 11   F: -24.432274019126449   dF: +1.166e-07   |Residual|: 2.842e-05   |deigs|: 9.748e-05  t[s]:    109.97
	FillingsUpdate:  mu: -0.082457654  nElectrons: 9.000000  magneticMoment: [ Abs: 0.70435  Tot: -0.70000 ]
SCF: Cycle: 12   F: -24.432274015827108   dF: +3.299e-09   |Residual|: 2.606e-05   |deigs|: 7.909e-05  t[s]:    117.01
	FillingsUpdate:  mu: -0.082423670  nElectrons: 9.000000  magneticMoment: [ Abs: 0.70444  Tot: -0.70000 ]
SCF: Cycle: 13   F: -24.432273969928300   dF: +4.590e-08   |Residual|: 2.600e-05   |deigs|: 6.375e-05  t[s]:    124.28
	FillingsUpdate:  mu: -0.082384604  nElectrons: 9.000000  magneticMoment: [ Abs: 0.70446  Tot: -0.70000 ]
SCF: Cycle: 14   F: -24.432274111724450   dF: -1.418e-07   |Residual|: 2.153e-05   |deigs|: 4.525e-05  t[s]:    131.69
	FillingsUpdate:  mu: -0.082318445  nElectrons: 9.000000  magneticMoment: [ Abs: 0.70445  Tot: -0.70000 ]
SCF: Cycle: 15   F: -24.432274024341886   dF: +8.738e-08   |Residual|: 2.045e-05   |deigs|: 7.576e-05  t[s]:    139.05
	FillingsUpdate:  mu: -0.082308583  nElectrons: 9.000000  magneticMoment: [ Abs: 0.70433  Tot: -0.70000 ]
SCF: Cycle: 16   F: -24.432274141935206   dF: -1.176e-07   |Residual|: 1.637e-05   |deigs|: 1.853e-05  t[s]:    146.13
	FillingsUpdate:  mu: -0.082300928  nElectrons: 9.000000  magneticMoment: [ Abs: 0.70428  Tot: -0.70000 ]
SCF: Cycle: 17   F: -24.432274125889915   dF: +1.605e-08   |Residual|: 1.171e-05   |deigs|: 2.139e-05  t[s]:    153.49
	FillingsUpdate:  mu: -0.082294635  nElectrons: 9.000000  magneticMoment: [ Abs: 0.70427  Tot: -0.70000 ]
SCF: Cycle: 18   F: -24.432274211190077   dF: -8.530e-08   |Residual|: 6.807e-06   |deigs|: 2.321e-05  t[s]:    160.84
	FillingsUpdate:  mu: -0.082289778  nElectrons: 9.000000  magneticMoment: [ Abs: 0.70424  Tot: -0.70000 ]
SCF: Cycle: 19   F: -24.432274217620161   dF: -6.430e-09   |Residual|: 4.851e-06   |deigs|: 2.990e-05  t[s]:    167.54
	FillingsUpdate:  mu: -0.082290498  nElectrons: 9.000000  magneticMoment: [ Abs: 0.70424  Tot: -0.70000 ]
SCF: Cycle: 20   F: -24.432274239953120   dF: -2.233e-08   |Residual|: 3.649e-06   |deigs|: 3.834e-05  t[s]:    174.90
	FillingsUpdate:  mu: -0.082295224  nElectrons: 9.000000  magneticMoment: [ Abs: 0.70424  Tot: -0.70000 ]
SCF: Cycle: 21   F: -24.432274242621993   dF: -2.669e-09   |Residual|: 2.755e-06   |deigs|: 4.463e-05  t[s]:    181.57
	FillingsUpdate:  mu: -0.082296057  nElectrons: 9.000000  magneticMoment: [ Abs: 0.70423  Tot: -0.70000 ]
SCF: Cycle: 22   F: -24.432274247102068   dF: -4.480e-09   |Residual|: 2.196e-06   |deigs|: 4.207e-05  t[s]:    188.88
SCF: Converged (|Delta E|<1.000000e-08 for 2 iters).


# Ionic positions in lattice coordinates:
ion Rb   0.000000000000000   0.000000000000000   0.000000000000000 0

# Forces in Lattice coordinates:
force Rb   0.000000000000000   0.000000000000000   0.000000000000000 0

# Energy components:
   Eewald =       -9.0240130501663280
       EH =       10.5391298571504670
     Eloc =      -28.4645538984057573
      Enl =       -0.7924915118042525
   Epulay =        0.0000000056959385
      Exc =       -3.6518642765999547
       KE =        6.9615194565276761
-------------------------------------
     Etot =      -24.4322734176022145
       TS =        0.0000008294998551
-------------------------------------
        F =      -24.4322742471020682

IonicMinimize: Iter:   0  F: -24.432274247102068  |grad|_K:  0.000e+00  t[s]:    189.29
IonicMinimize: Converged (|grad|_K<1.000000e-04).

#--- Lowdin population analysis ---
# oxidation-state Rb +0.001
# magnetic-moments Rb -0.699

End date and time: Sun Feb  6 12:41:02 2022  (Duration: 0-0:03:09.35)
Done!
