
*************** JDFTx 1.6.0 (git hash 42ebbcc2) ***************

Start date and time: Sun Feb  6 13:01:58 2022
Executable jdftx with command-line: -i Alkali.in
Running on hosts (process indices):  d-4-6-1 (0-18)
Divided in process groups (process indices):  0 (0)  1 (1)  2 (2)  3 (3)  4 (4)  5 (5)  6 (6)  7 (7)  8 (8)  9 (9)  10 (10)  11 (11)  12 (12)  13 (13)  14 (14)  15 (15)  16 (16)  17 (17)  18 (18)
Resource initialization completed at t[s]:      0.00
Run totals: 19 processes, 48 threads, 0 GPUs


Input parsed successfully to the following command list (including defaults):

basis kpoint-dependent
coords-type Lattice
core-overlap-check vector
coulomb-interaction Slab 001
davidson-band-ratio 1.1
dump End None
dump-name $INPUT.$VAR
elec-cutoff 20
elec-eigen-algo Davidson
elec-ex-corr gga-PBE
elec-initial-magnetization 0.900000 yes
elec-smearing Fermi 1e-05
electronic-minimize  \
	dirUpdateScheme      FletcherReeves \
	linminMethod         DirUpdateRecommended \
	nIterations          100 \
	history              15 \
	knormThreshold       0 \
	energyDiffThreshold  1e-08 \
	nEnergyDiff          2 \
	alphaTstart          1 \
	alphaTmin            1e-10 \
	updateTestStepSize   yes \
	alphaTreduceFactor   0.1 \
	alphaTincreaseFactor 3 \
	nAlphaAdjustMax      3 \
	wolfeEnergy          0.0001 \
	wolfeGradient        0.9 \
	fdTest               no
electronic-scf  \
	nIterations	10000 \
	energyDiffThreshold	1e-08 \
	residualThreshold	1e-07 \
	mixFraction	0.5 \
	qMetric	0.8 \
	history	10 \
	nEigSteps	2 \
	eigDiffThreshold	1e-08 \
	mixedVariable	Density \
	qKerker	0.8 \
	qKappa	-1 \
	verbose	no \
	mixFractionMag	1.5
exchange-regularization WignerSeitzTruncated
fluid None
fluid-ex-corr (null) lda-PZ
fluid-gummel-loop 10 1.000000e-05
fluid-minimize  \
	dirUpdateScheme      PolakRibiere \
	linminMethod         DirUpdateRecommended \
	nIterations          100 \
	history              15 \
	knormThreshold       0 \
	energyDiffThreshold  0 \
	nEnergyDiff          2 \
	alphaTstart          1 \
	alphaTmin            1e-10 \
	updateTestStepSize   yes \
	alphaTreduceFactor   0.1 \
	alphaTincreaseFactor 3 \
	nAlphaAdjustMax      3 \
	wolfeEnergy          0.0001 \
	wolfeGradient        0.9 \
	fdTest               no
fluid-solvent H2O 55.338 ScalarEOS \
	epsBulk 78.4 \
	pMol 0.92466 \
	epsInf 1.77 \
	Pvap 1.06736e-10 \
	sigmaBulk 4.62e-05 \
	Rvdw 2.61727 \
	Res 1.42 \
	tauNuc 343133 \
	poleEl 15 7 1
forces-output-coords Positions
ion Rb   0.000000000000000   0.000000000000000   0.000000000000000 0
ion-species SG15/$ID_ONCV_PBE.upf
ion-width 0
ionic-minimize  \
	dirUpdateScheme      L-BFGS \
	linminMethod         DirUpdateRecommended \
	nIterations          0 \
	history              15 \
	knormThreshold       0.0001 \
	energyDiffThreshold  1e-06 \
	nEnergyDiff          2 \
	alphaTstart          1 \
	alphaTmin            1e-10 \
	updateTestStepSize   yes \
	alphaTreduceFactor   0.1 \
	alphaTincreaseFactor 3 \
	nAlphaAdjustMax      3 \
	wolfeEnergy          0.0001 \
	wolfeGradient        0.9 \
	fdTest               no
kpoint   0.000000000000   0.000000000000   0.000000000000  1.00000000000000
kpoint-folding 12 12 1 
latt-move-scale 1 1 1
latt-scale 4 4 1 
lattice  \
	   4.727486978767153   -2.363743489383575    0.000000000000000  \
	  -0.000000000000000    4.094123819672498    0.000000000000000  \
	   0.000000000000000    0.000000000000000   40.000000000000000 
lattice-minimize  \
	dirUpdateScheme      L-BFGS \
	linminMethod         DirUpdateRecommended \
	nIterations          0 \
	history              15 \
	knormThreshold       0 \
	energyDiffThreshold  1e-06 \
	nEnergyDiff          2 \
	alphaTstart          1 \
	alphaTmin            1e-10 \
	updateTestStepSize   yes \
	alphaTreduceFactor   0.1 \
	alphaTincreaseFactor 3 \
	nAlphaAdjustMax      3 \
	wolfeEnergy          0.0001 \
	wolfeGradient        0.9 \
	fdTest               no
lcao-params -1 1e-06 1e-05
pcm-variant GLSSA13
spintype z-spin
subspace-rotation-factor 1 yes
symmetries automatic
symmetry-threshold 0.0001



---------- Setting up symmetries ----------

Found 24 point-group symmetries of the bravais lattice
Found 24 space-group symmetries with basis
Applied RMS atom displacement 0 bohrs to make symmetries exact.

---------- Initializing the Grid ----------
R = 
[      18.9099     -9.45497            0  ]
[            0      16.3765            0  ]
[            0            0           40  ]
unit cell volume = 12387.1
G =
[   0.332269   0.191835         -0  ]
[          0   0.383671         -0  ]
[         -0         -0    0.15708  ]
Minimum fftbox size, Smin = [  80  80  164  ]
Chosen fftbox size, S = [  80  80  168  ]

---------- Exchange Correlation functional ----------
Initalized PBE GGA exchange.
Initalized PBE GGA correlation.

---------- Setting up pseudopotentials ----------
Width of ionic core gaussian charges (only for fluid interactions / plotting) set to 0

Reading pseudopotential file '/home/gridsan/aligho/DFT/build-Nov24/pseudopotentials/SG15/Rb_ONCV_PBE.upf':
  'Rb' pseudopotential, 'PBE' functional
  Generated using ONCVPSP code by D. R. Hamann
  Author: Martin Schlipf and Francois Gygi  Date: 150915.
  9 valence electrons, 3 orbitals, 6 projectors, 2308 radial grid points, with lMax = 2
  Transforming local potential to a uniform radial grid of dG=0.02 with 1489 points.
  Transforming nonlocal projectors to a uniform radial grid of dG=0.02 with 432 points.
    4S    l: 0   occupation:  2.0   eigenvalue: -1.172069
    4P    l: 1   occupation:  6.0   eigenvalue: -0.586674
    5S    l: 0   occupation:  1.0   eigenvalue: -0.082006
  Transforming atomic orbitals to a uniform radial grid of dG=0.02 with 432 points.
  Core radius for overlap checks: 2.60 bohrs.
  Reading pulay file /home/gridsan/aligho/DFT/build-Nov24/pseudopotentials/SG15/Rb_ONCV_PBE.pulay ... using dE_dnG = -1.360715e-05 computed for Ecut = 20.

Initialized 1 species with 1 total atoms.

Folded 1 k-points by 12x12x1 to 144 k-points.

---------- Setting up k-points, bands, fillings ----------
Reduced to 19 k-points under symmetry. 
Computing the number of bands and number of electrons
Calculating initial fillings.
nElectrons:   9.000000   nBands: 6   nStates: 38

----- Setting up reduced wavefunction bases (one per k-point) -----
average nbasis = 52924.021 , ideal nbasis = 52918.836

---------- Setting up coulomb interaction ----------
Initialized slab truncation along lattice direction 001

---------- Setting up 2D ewald sum ----------
Optimum gaussian width for ewald sums = 10.498040 bohr.
Real space sums over 289 unit cells with max indices [  8  8  0  ]
Reciprocal space sums over 81 terms with max indices [  4  4  0  ]

---------- Allocating electronic variables ----------
Initializing wave functions:  linear combination of atomic orbitals
Note: number of bands (6) exceeds available atomic orbitals (5)
Rb pseudo-atom occupations:   s ( 2 1 )  p ( 6 )
	FillingsUpdate:  mu: -0.081313552  nElectrons: 9.000000  magneticMoment: [ Abs: 0.90000  Tot: +0.90000 ]
LCAOMinimize: Iter:   0  F: -24.4332526803834824  |grad|_K:  1.084e-06  alpha:  1.000e+00
	FillingsUpdate:  mu: -0.081313304  nElectrons: 9.000000  magneticMoment: [ Abs: 0.90000  Tot: +0.90000 ]
LCAOMinimize: Iter:   1  F: -24.4332526811805586  |grad|_K:  5.903e-09  alpha:  9.926e-01  linmin: -3.931e-04  cgtest:  9.109e-03  t[s]:     15.18
LCAOMinimize: Encountered beta<0, resetting CG.
LCAOMinimize: 	Step increased F by 1.776357e-14, reducing alpha to 1.836243e-02.
LCAOMinimize: 	Step increased F by 6.394885e-14, reducing alpha to 1.836243e-03.
LCAOMinimize: 	Step increased F by 4.973799e-14, reducing alpha to 1.836243e-04.
LCAOMinimize: 	Step failed to reduce F after 3 attempts. Quitting step.
LCAOMinimize: 	Undoing step.
LCAOMinimize: 	Step failed along negative gradient direction.
LCAOMinimize: Probably at roundoff error limit. (Stopping)


---- Citations for features of the code used in this run ----

   Software package:
      R. Sundararaman, K. Letchworth-Weaver, K.A. Schwarz, D. Gunceler, Y. Ozhabes and T.A. Arias, 'JDFTx: software for joint density-functional theory', SoftwareX 6, 278 (2017)

   gga-PBE exchange-correlation functional:
      J.P. Perdew, K. Burke and M. Ernzerhof, Phys. Rev. Lett. 77, 3865 (1996)

   Pseudopotentials:
      M Schlipf and F Gygi, Comput. Phys. Commun. 196, 36 (2015)

   Truncated Coulomb potentials:
      R. Sundararaman and T.A. Arias, Phys. Rev. B 87, 165122 (2013)

This list may not be complete. Please suggest additional citations or
report any other bugs at https://github.com/shankar1729/jdftx/issues

Initialization completed successfully at t[s]:     26.54


-------- Electronic minimization -----------
Will mix electronic density at each iteration.
	FillingsUpdate:  mu: -0.081313304  nElectrons: 9.000000  magneticMoment: [ Abs: 0.90000  Tot: +0.90000 ]
	FillingsUpdate:  mu: -0.081466430  nElectrons: 9.000000  magneticMoment: [ Abs: 0.90000  Tot: +0.90000 ]
SCF: Cycle:  0   F: -24.433388015487981   dF: -1.353e-04   |Residual|: 2.108e-03   |deigs|: 1.654e-01  t[s]:     34.84
	FillingsUpdate:  mu: -0.081445843  nElectrons: 9.000000  magneticMoment: [ Abs: 0.90539  Tot: +0.90000 ]
SCF: Cycle:  1   F: -24.433390919581331   dF: -2.904e-06   |Residual|: 5.280e-04   |deigs|: 1.250e-02  t[s]:     41.35
	FillingsUpdate:  mu: -0.081370866  nElectrons: 9.000000  magneticMoment: [ Abs: 0.90521  Tot: +0.90000 ]
SCF: Cycle:  2   F: -24.433391630788211   dF: -7.112e-07   |Residual|: 3.530e-04   |deigs|: 2.236e-03  t[s]:     47.88
	FillingsUpdate:  mu: -0.081291150  nElectrons: 9.000000  magneticMoment: [ Abs: 0.90595  Tot: +0.90000 ]
SCF: Cycle:  3   F: -24.433391994417434   dF: -3.636e-07   |Residual|: 2.779e-04   |deigs|: 8.799e-04  t[s]:     54.63
	FillingsUpdate:  mu: -0.081102597  nElectrons: 9.000000  magneticMoment: [ Abs: 0.90585  Tot: +0.90000 ]
SCF: Cycle:  4   F: -24.433392121906781   dF: -1.275e-07   |Residual|: 1.703e-04   |deigs|: 7.166e-04  t[s]:     61.46
	FillingsUpdate:  mu: -0.080930844  nElectrons: 9.000000  magneticMoment: [ Abs: 0.90573  Tot: +0.90000 ]
SCF: Cycle:  5   F: -24.433392250761099   dF: -1.289e-07   |Residual|: 1.181e-04   |deigs|: 4.492e-04  t[s]:     68.34
	FillingsUpdate:  mu: -0.080890629  nElectrons: 9.000000  magneticMoment: [ Abs: 0.90566  Tot: +0.90000 ]
SCF: Cycle:  6   F: -24.433392448507959   dF: -1.977e-07   |Residual|: 8.817e-05   |deigs|: 1.899e-04  t[s]:     75.35
	FillingsUpdate:  mu: -0.080874631  nElectrons: 9.000000  magneticMoment: [ Abs: 0.90576  Tot: +0.90000 ]
SCF: Cycle:  7   F: -24.433392564690649   dF: -1.162e-07   |Residual|: 6.385e-05   |deigs|: 2.293e-04  t[s]:     82.51
	FillingsUpdate:  mu: -0.080860702  nElectrons: 9.000000  magneticMoment: [ Abs: 0.90572  Tot: +0.90000 ]
SCF: Cycle:  8   F: -24.433392595616699   dF: -3.093e-08   |Residual|: 5.465e-05   |deigs|: 1.907e-04  t[s]:     89.85
	FillingsUpdate:  mu: -0.080827039  nElectrons: 9.000000  magneticMoment: [ Abs: 0.90573  Tot: +0.90000 ]
SCF: Cycle:  9   F: -24.433392496702076   dF: +9.891e-08   |Residual|: 4.319e-05   |deigs|: 1.387e-04  t[s]:     97.18
	FillingsUpdate:  mu: -0.080807776  nElectrons: 9.000000  magneticMoment: [ Abs: 0.90578  Tot: +0.90000 ]
SCF: Cycle: 10   F: -24.433392416490193   dF: +8.021e-08   |Residual|: 3.963e-05   |deigs|: 1.159e-04  t[s]:    104.71
	FillingsUpdate:  mu: -0.080758475  nElectrons: 9.000000  magneticMoment: [ Abs: 0.90583  Tot: +0.90000 ]
SCF: Cycle: 11   F: -24.433392079981207   dF: +3.365e-07   |Residual|: 3.487e-05   |deigs|: 1.024e-04  t[s]:    112.21
	FillingsUpdate:  mu: -0.080738941  nElectrons: 9.000000  magneticMoment: [ Abs: 0.90600  Tot: +0.90000 ]
SCF: Cycle: 12   F: -24.433392305088123   dF: -2.251e-07   |Residual|: 2.857e-05   |deigs|: 4.399e-05  t[s]:    119.46
	FillingsUpdate:  mu: -0.080721687  nElectrons: 9.000000  magneticMoment: [ Abs: 0.90594  Tot: +0.90000 ]
SCF: Cycle: 13   F: -24.433392312793931   dF: -7.706e-09   |Residual|: 2.553e-05   |deigs|: 4.195e-05  t[s]:    126.95
	FillingsUpdate:  mu: -0.080671341  nElectrons: 9.000000  magneticMoment: [ Abs: 0.90591  Tot: +0.90000 ]
SCF: Cycle: 14   F: -24.433392436542345   dF: -1.237e-07   |Residual|: 2.480e-05   |deigs|: 5.849e-05  t[s]:    134.43
	FillingsUpdate:  mu: -0.080638276  nElectrons: 9.000000  magneticMoment: [ Abs: 0.90584  Tot: +0.90000 ]
SCF: Cycle: 15   F: -24.433392469040427   dF: -3.250e-08   |Residual|: 2.394e-05   |deigs|: 5.160e-05  t[s]:    141.81
	FillingsUpdate:  mu: -0.080626162  nElectrons: 9.000000  magneticMoment: [ Abs: 0.90574  Tot: +0.90000 ]
SCF: Cycle: 16   F: -24.433392448549924   dF: +2.049e-08   |Residual|: 2.153e-05   |deigs|: 4.904e-05  t[s]:    149.26
	FillingsUpdate:  mu: -0.080607974  nElectrons: 9.000000  magneticMoment: [ Abs: 0.90579  Tot: +0.90000 ]
SCF: Cycle: 17   F: -24.433392545034046   dF: -9.648e-08   |Residual|: 1.401e-05   |deigs|: 4.994e-05  t[s]:    156.71
	FillingsUpdate:  mu: -0.080600145  nElectrons: 9.000000  magneticMoment: [ Abs: 0.90577  Tot: +0.90000 ]
SCF: Cycle: 18   F: -24.433392680321326   dF: -1.353e-07   |Residual|: 1.046e-05   |deigs|: 4.279e-05  t[s]:    163.94
	FillingsUpdate:  mu: -0.080598107  nElectrons: 9.000000  magneticMoment: [ Abs: 0.90574  Tot: +0.90000 ]
SCF: Cycle: 19   F: -24.433392693226143   dF: -1.290e-08   |Residual|: 8.161e-06   |deigs|: 3.867e-05  t[s]:    171.02
	FillingsUpdate:  mu: -0.080594120  nElectrons: 9.000000  magneticMoment: [ Abs: 0.90575  Tot: +0.90000 ]
SCF: Cycle: 20   F: -24.433392695205516   dF: -1.979e-09   |Residual|: 5.719e-06   |deigs|: 3.418e-05  t[s]:    178.47
	FillingsUpdate:  mu: -0.080593588  nElectrons: 9.000000  magneticMoment: [ Abs: 0.90573  Tot: +0.90000 ]
SCF: Cycle: 21   F: -24.433392717782727   dF: -2.258e-08   |Residual|: 4.356e-06   |deigs|: 3.113e-05  t[s]:    185.96
	FillingsUpdate:  mu: -0.080592519  nElectrons: 9.000000  magneticMoment: [ Abs: 0.90572  Tot: +0.90000 ]
SCF: Cycle: 22   F: -24.433392744463902   dF: -2.668e-08   |Residual|: 3.220e-06   |deigs|: 2.700e-05  t[s]:    193.01
	FillingsUpdate:  mu: -0.080591320  nElectrons: 9.000000  magneticMoment: [ Abs: 0.90572  Tot: +0.90000 ]
SCF: Cycle: 23   F: -24.433392743082109   dF: +1.382e-09   |Residual|: 2.387e-06   |deigs|: 2.514e-05  t[s]:    200.15
	FillingsUpdate:  mu: -0.080590265  nElectrons: 9.000000  magneticMoment: [ Abs: 0.90572  Tot: +0.90000 ]
SCF: Cycle: 24   F: -24.433392748959925   dF: -5.878e-09   |Residual|: 1.560e-06   |deigs|: 2.315e-05  t[s]:    207.60
	FillingsUpdate:  mu: -0.080589219  nElectrons: 9.000000  magneticMoment: [ Abs: 0.90572  Tot: +0.90000 ]
SCF: Cycle: 25   F: -24.433392750791050   dF: -1.831e-09   |Residual|: 1.110e-06   |deigs|: 2.074e-05  t[s]:    214.54
SCF: Converged (|Delta E|<1.000000e-08 for 2 iters).


# Ionic positions in lattice coordinates:
ion Rb   0.000000000000000   0.000000000000000   0.000000000000000 0

# Forces in Lattice coordinates:
force Rb   0.000000000000000   0.000000000000000   0.000000000000000 0

# Energy components:
   Eewald =       -9.0240130501663280
       EH =       10.5527131015352378
     Eloc =      -28.4791850320147688
      Enl =       -0.7919995372027591
   Epulay =        0.0000000056959385
      Exc =       -3.6547955354299657
       KE =        6.9638879278786447
-------------------------------------
     Etot =      -24.4333921197040027
       TS =        0.0000006310870458
-------------------------------------
        F =      -24.4333927507910502

IonicMinimize: Iter:   0  F: -24.433392750791050  |grad|_K:  0.000e+00  t[s]:    214.96
IonicMinimize: Converged (|grad|_K<1.000000e-04).

#--- Lowdin population analysis ---
# oxidation-state Rb +0.001
# magnetic-moments Rb +0.899

End date and time: Sun Feb  6 13:05:33 2022  (Duration: 0-0:03:35.02)
Done!
