
*************** JDFTx 1.6.0 (git hash 42ebbcc2) ***************

Start date and time: Sun Feb  6 12:44:42 2022
Executable jdftx with command-line: -i Alkali.in
Running on hosts (process indices):  d-6-10-3 (0-18)
Divided in process groups (process indices):  0 (0)  1 (1)  2 (2)  3 (3)  4 (4)  5 (5)  6 (6)  7 (7)  8 (8)  9 (9)  10 (10)  11 (11)  12 (12)  13 (13)  14 (14)  15 (15)  16 (16)  17 (17)  18 (18)
Resource initialization completed at t[s]:      0.00
Run totals: 19 processes, 48 threads, 0 GPUs


Input parsed successfully to the following command list (including defaults):

basis kpoint-dependent
coords-type Lattice
core-overlap-check vector
coulomb-interaction Slab 001
davidson-band-ratio 1.1
dump End None
dump-name $INPUT.$VAR
elec-cutoff 20
elec-eigen-algo Davidson
elec-ex-corr gga-PBE
elec-initial-magnetization -0.140000 yes
elec-smearing Fermi 1e-05
electronic-minimize  \
	dirUpdateScheme      FletcherReeves \
	linminMethod         DirUpdateRecommended \
	nIterations          100 \
	history              15 \
	knormThreshold       0 \
	energyDiffThreshold  1e-08 \
	nEnergyDiff          2 \
	alphaTstart          1 \
	alphaTmin            1e-10 \
	updateTestStepSize   yes \
	alphaTreduceFactor   0.1 \
	alphaTincreaseFactor 3 \
	nAlphaAdjustMax      3 \
	wolfeEnergy          0.0001 \
	wolfeGradient        0.9 \
	fdTest               no
electronic-scf  \
	nIterations	10000 \
	energyDiffThreshold	1e-08 \
	residualThreshold	1e-07 \
	mixFraction	0.5 \
	qMetric	0.8 \
	history	10 \
	nEigSteps	2 \
	eigDiffThreshold	1e-08 \
	mixedVariable	Density \
	qKerker	0.8 \
	qKappa	-1 \
	verbose	no \
	mixFractionMag	1.5
exchange-regularization WignerSeitzTruncated
fluid None
fluid-ex-corr (null) lda-PZ
fluid-gummel-loop 10 1.000000e-05
fluid-minimize  \
	dirUpdateScheme      PolakRibiere \
	linminMethod         DirUpdateRecommended \
	nIterations          100 \
	history              15 \
	knormThreshold       0 \
	energyDiffThreshold  0 \
	nEnergyDiff          2 \
	alphaTstart          1 \
	alphaTmin            1e-10 \
	updateTestStepSize   yes \
	alphaTreduceFactor   0.1 \
	alphaTincreaseFactor 3 \
	nAlphaAdjustMax      3 \
	wolfeEnergy          0.0001 \
	wolfeGradient        0.9 \
	fdTest               no
fluid-solvent H2O 55.338 ScalarEOS \
	epsBulk 78.4 \
	pMol 0.92466 \
	epsInf 1.77 \
	Pvap 1.06736e-10 \
	sigmaBulk 4.62e-05 \
	Rvdw 2.61727 \
	Res 1.42 \
	tauNuc 343133 \
	poleEl 15 7 1
forces-output-coords Positions
ion Rb   0.000000000000000   0.000000000000000   0.000000000000000 0
ion-species SG15/$ID_ONCV_PBE.upf
ion-width 0
ionic-minimize  \
	dirUpdateScheme      L-BFGS \
	linminMethod         DirUpdateRecommended \
	nIterations          0 \
	history              15 \
	knormThreshold       0.0001 \
	energyDiffThreshold  1e-06 \
	nEnergyDiff          2 \
	alphaTstart          1 \
	alphaTmin            1e-10 \
	updateTestStepSize   yes \
	alphaTreduceFactor   0.1 \
	alphaTincreaseFactor 3 \
	nAlphaAdjustMax      3 \
	wolfeEnergy          0.0001 \
	wolfeGradient        0.9 \
	fdTest               no
kpoint   0.000000000000   0.000000000000   0.000000000000  1.00000000000000
kpoint-folding 12 12 1 
latt-move-scale 1 1 1
latt-scale 4 4 1 
lattice  \
	   4.727486978767153   -2.363743489383575    0.000000000000000  \
	  -0.000000000000000    4.094123819672498    0.000000000000000  \
	   0.000000000000000    0.000000000000000   40.000000000000000 
lattice-minimize  \
	dirUpdateScheme      L-BFGS \
	linminMethod         DirUpdateRecommended \
	nIterations          0 \
	history              15 \
	knormThreshold       0 \
	energyDiffThreshold  1e-06 \
	nEnergyDiff          2 \
	alphaTstart          1 \
	alphaTmin            1e-10 \
	updateTestStepSize   yes \
	alphaTreduceFactor   0.1 \
	alphaTincreaseFactor 3 \
	nAlphaAdjustMax      3 \
	wolfeEnergy          0.0001 \
	wolfeGradient        0.9 \
	fdTest               no
lcao-params -1 1e-06 1e-05
pcm-variant GLSSA13
spintype z-spin
subspace-rotation-factor 1 yes
symmetries automatic
symmetry-threshold 0.0001



---------- Setting up symmetries ----------

Found 24 point-group symmetries of the bravais lattice
Found 24 space-group symmetries with basis
Applied RMS atom displacement 0 bohrs to make symmetries exact.

---------- Initializing the Grid ----------
R = 
[      18.9099     -9.45497            0  ]
[            0      16.3765            0  ]
[            0            0           40  ]
unit cell volume = 12387.1
G =
[   0.332269   0.191835         -0  ]
[          0   0.383671         -0  ]
[         -0         -0    0.15708  ]
Minimum fftbox size, Smin = [  80  80  164  ]
Chosen fftbox size, S = [  80  80  168  ]

---------- Exchange Correlation functional ----------
Initalized PBE GGA exchange.
Initalized PBE GGA correlation.

---------- Setting up pseudopotentials ----------
Width of ionic core gaussian charges (only for fluid interactions / plotting) set to 0

Reading pseudopotential file '/home/gridsan/aligho/DFT/build-Nov24/pseudopotentials/SG15/Rb_ONCV_PBE.upf':
  'Rb' pseudopotential, 'PBE' functional
  Generated using ONCVPSP code by D. R. Hamann
  Author: Martin Schlipf and Francois Gygi  Date: 150915.
  9 valence electrons, 3 orbitals, 6 projectors, 2308 radial grid points, with lMax = 2
  Transforming local potential to a uniform radial grid of dG=0.02 with 1489 points.
  Transforming nonlocal projectors to a uniform radial grid of dG=0.02 with 432 points.
    4S    l: 0   occupation:  2.0   eigenvalue: -1.172069
    4P    l: 1   occupation:  6.0   eigenvalue: -0.586674
    5S    l: 0   occupation:  1.0   eigenvalue: -0.082006
  Transforming atomic orbitals to a uniform radial grid of dG=0.02 with 432 points.
  Core radius for overlap checks: 2.60 bohrs.
  Reading pulay file /home/gridsan/aligho/DFT/build-Nov24/pseudopotentials/SG15/Rb_ONCV_PBE.pulay ... using dE_dnG = -1.360715e-05 computed for Ecut = 20.

Initialized 1 species with 1 total atoms.

Folded 1 k-points by 12x12x1 to 144 k-points.

---------- Setting up k-points, bands, fillings ----------
Reduced to 19 k-points under symmetry. 
Computing the number of bands and number of electrons
Calculating initial fillings.
nElectrons:   9.000000   nBands: 6   nStates: 38

----- Setting up reduced wavefunction bases (one per k-point) -----
average nbasis = 52924.021 , ideal nbasis = 52918.836

---------- Setting up coulomb interaction ----------
Initialized slab truncation along lattice direction 001

---------- Setting up 2D ewald sum ----------
Optimum gaussian width for ewald sums = 10.498040 bohr.
Real space sums over 289 unit cells with max indices [  8  8  0  ]
Reciprocal space sums over 81 terms with max indices [  4  4  0  ]

---------- Allocating electronic variables ----------
Initializing wave functions:  linear combination of atomic orbitals
Note: number of bands (6) exceeds available atomic orbitals (5)
Rb pseudo-atom occupations:   s ( 2 1 )  p ( 6 )
	FillingsUpdate:  mu: -0.082567532  nElectrons: 9.000000  magneticMoment: [ Abs: 0.14000  Tot: -0.14000 ]
LCAOMinimize: Iter:   0  F: -24.4306261433617138  |grad|_K:  5.288e-06  alpha:  1.000e+00
	FillingsUpdate:  mu: -0.082566361  nElectrons: 9.000000  magneticMoment: [ Abs: 0.14000  Tot: -0.14000 ]
LCAOMinimize: Iter:   1  F: -24.4306261622348586  |grad|_K:  2.545e-08  alpha:  9.868e-01  linmin: -8.780e-03  cgtest:  3.044e-01  t[s]:     15.20
LCAOMinimize: Encountered beta<0, resetting CG.
	FillingsUpdate:  mu: -0.082566360  nElectrons: 9.000000  magneticMoment: [ Abs: 0.14000  Tot: -0.14000 ]
LCAOMinimize: Iter:   2  F: -24.4306261622352814  |grad|_K:  5.264e-09  alpha:  7.934e-01  linmin: -1.787e-02  cgtest:  1.000e+00  t[s]:     19.23
LCAOMinimize: Encountered beta<0, resetting CG.
LCAOMinimize: Converged (|Delta F|<1.000000e-06 for 2 iters).


---- Citations for features of the code used in this run ----

   Software package:
      R. Sundararaman, K. Letchworth-Weaver, K.A. Schwarz, D. Gunceler, Y. Ozhabes and T.A. Arias, 'JDFTx: software for joint density-functional theory', SoftwareX 6, 278 (2017)

   gga-PBE exchange-correlation functional:
      J.P. Perdew, K. Burke and M. Ernzerhof, Phys. Rev. Lett. 77, 3865 (1996)

   Pseudopotentials:
      M Schlipf and F Gygi, Comput. Phys. Commun. 196, 36 (2015)

   Truncated Coulomb potentials:
      R. Sundararaman and T.A. Arias, Phys. Rev. B 87, 165122 (2013)

This list may not be complete. Please suggest additional citations or
report any other bugs at https://github.com/shankar1729/jdftx/issues

Initialization completed successfully at t[s]:     19.49


-------- Electronic minimization -----------
Will mix electronic density at each iteration.
	FillingsUpdate:  mu: -0.082566360  nElectrons: 9.000000  magneticMoment: [ Abs: 0.14000  Tot: -0.14000 ]
	FillingsUpdate:  mu: -0.082671466  nElectrons: 9.000000  magneticMoment: [ Abs: 0.14000  Tot: -0.14000 ]
SCF: Cycle:  0   F: -24.430745070101867   dF: -1.189e-04   |Residual|: 7.118e-04   |deigs|: 1.755e-01  t[s]:     27.68
	FillingsUpdate:  mu: -0.082713270  nElectrons: 9.000000  magneticMoment: [ Abs: 0.14063  Tot: -0.14000 ]
SCF: Cycle:  1   F: -24.430747046534432   dF: -1.976e-06   |Residual|: 5.282e-04   |deigs|: 4.222e-03  t[s]:     34.16
	FillingsUpdate:  mu: -0.082777811  nElectrons: 9.000000  magneticMoment: [ Abs: 0.14065  Tot: -0.14000 ]
SCF: Cycle:  2   F: -24.430747763693144   dF: -7.172e-07   |Residual|: 4.109e-04   |deigs|: 1.647e-03  t[s]:     40.69
	FillingsUpdate:  mu: -0.082894984  nElectrons: 9.000000  magneticMoment: [ Abs: 0.14114  Tot: -0.14000 ]
SCF: Cycle:  3   F: -24.430748539208039   dF: -7.755e-07   |Residual|: 2.742e-04   |deigs|: 5.826e-04  t[s]:     47.38
	FillingsUpdate:  mu: -0.082992630  nElectrons: 9.000000  magneticMoment: [ Abs: 0.14084  Tot: -0.14000 ]
SCF: Cycle:  4   F: -24.430749284222919   dF: -7.450e-07   |Residual|: 1.768e-04   |deigs|: 7.163e-04  t[s]:     54.18
	FillingsUpdate:  mu: -0.083037359  nElectrons: 9.000000  magneticMoment: [ Abs: 0.14105  Tot: -0.14000 ]
SCF: Cycle:  5   F: -24.430749689398478   dF: -4.052e-07   |Residual|: 1.268e-04   |deigs|: 7.849e-04  t[s]:     61.05
	FillingsUpdate:  mu: -0.083038255  nElectrons: 9.000000  magneticMoment: [ Abs: 0.14097  Tot: -0.14000 ]
SCF: Cycle:  6   F: -24.430749976641803   dF: -2.872e-07   |Residual|: 7.794e-05   |deigs|: 6.564e-04  t[s]:     67.99
	FillingsUpdate:  mu: -0.083026313  nElectrons: 9.000000  magneticMoment: [ Abs: 0.14089  Tot: -0.14000 ]
SCF: Cycle:  7   F: -24.430750102257136   dF: -1.256e-07   |Residual|: 5.903e-05   |deigs|: 6.071e-04  t[s]:     75.08
	FillingsUpdate:  mu: -0.083005682  nElectrons: 9.000000  magneticMoment: [ Abs: 0.14086  Tot: -0.14000 ]
SCF: Cycle:  8   F: -24.430750173682732   dF: -7.143e-08   |Residual|: 4.228e-05   |deigs|: 2.343e-04  t[s]:     82.26
	FillingsUpdate:  mu: -0.082982418  nElectrons: 9.000000  magneticMoment: [ Abs: 0.14080  Tot: -0.14000 ]
SCF: Cycle:  9   F: -24.430750194302639   dF: -2.062e-08   |Residual|: 3.282e-05   |deigs|: 1.282e-04  t[s]:     89.58
	FillingsUpdate:  mu: -0.082963950  nElectrons: 9.000000  magneticMoment: [ Abs: 0.14084  Tot: -0.14000 ]
SCF: Cycle: 10   F: -24.430750192449977   dF: +1.853e-09   |Residual|: 2.959e-05   |deigs|: 9.874e-05  t[s]:     96.99
	FillingsUpdate:  mu: -0.082939837  nElectrons: 9.000000  magneticMoment: [ Abs: 0.14091  Tot: -0.14000 ]
SCF: Cycle: 11   F: -24.430750168188386   dF: +2.426e-08   |Residual|: 2.666e-05   |deigs|: 1.203e-04  t[s]:    104.48
	FillingsUpdate:  mu: -0.082912092  nElectrons: 9.000000  magneticMoment: [ Abs: 0.14087  Tot: -0.14000 ]
SCF: Cycle: 12   F: -24.430750143604374   dF: +2.458e-08   |Residual|: 2.430e-05   |deigs|: 1.049e-04  t[s]:    111.96
	FillingsUpdate:  mu: -0.082887426  nElectrons: 9.000000  magneticMoment: [ Abs: 0.14086  Tot: -0.14000 ]
SCF: Cycle: 13   F: -24.430750151649622   dF: -8.045e-09   |Residual|: 2.140e-05   |deigs|: 7.277e-05  t[s]:    119.46
	FillingsUpdate:  mu: -0.082863103  nElectrons: 9.000000  magneticMoment: [ Abs: 0.14087  Tot: -0.14000 ]
SCF: Cycle: 14   F: -24.430750115274577   dF: +3.638e-08   |Residual|: 2.063e-05   |deigs|: 6.847e-05  t[s]:    126.87
	FillingsUpdate:  mu: -0.082842296  nElectrons: 9.000000  magneticMoment: [ Abs: 0.14084  Tot: -0.14000 ]
SCF: Cycle: 15   F: -24.430750150717373   dF: -3.544e-08   |Residual|: 1.806e-05   |deigs|: 9.842e-05  t[s]:    134.28
	FillingsUpdate:  mu: -0.082816026  nElectrons: 9.000000  magneticMoment: [ Abs: 0.14085  Tot: -0.14000 ]
SCF: Cycle: 16   F: -24.430750161896228   dF: -1.118e-08   |Residual|: 1.580e-05   |deigs|: 1.110e-04  t[s]:    141.71
	FillingsUpdate:  mu: -0.082794898  nElectrons: 9.000000  magneticMoment: [ Abs: 0.14082  Tot: -0.14000 ]
SCF: Cycle: 17   F: -24.430750118678191   dF: +4.322e-08   |Residual|: 1.438e-05   |deigs|: 8.401e-05  t[s]:    149.13
	FillingsUpdate:  mu: -0.082789258  nElectrons: 9.000000  magneticMoment: [ Abs: 0.14079  Tot: -0.14000 ]
SCF: Cycle: 18   F: -24.430750195177225   dF: -7.650e-08   |Residual|: 1.159e-05   |deigs|: 4.824e-05  t[s]:    156.31
	FillingsUpdate:  mu: -0.082784753  nElectrons: 9.000000  magneticMoment: [ Abs: 0.14081  Tot: -0.14000 ]
SCF: Cycle: 19   F: -24.430750200637426   dF: -5.460e-09   |Residual|: 8.892e-06   |deigs|: 2.406e-05  t[s]:    163.01
	FillingsUpdate:  mu: -0.082778365  nElectrons: 9.000000  magneticMoment: [ Abs: 0.14081  Tot: -0.14000 ]
SCF: Cycle: 20   F: -24.430750232875194   dF: -3.224e-08   |Residual|: 6.308e-06   |deigs|: 1.433e-05  t[s]:    170.45
	FillingsUpdate:  mu: -0.082776452  nElectrons: 9.000000  magneticMoment: [ Abs: 0.14080  Tot: -0.14000 ]
SCF: Cycle: 21   F: -24.430750242010323   dF: -9.135e-09   |Residual|: 4.725e-06   |deigs|: 6.190e-06  t[s]:    177.36
	FillingsUpdate:  mu: -0.082775722  nElectrons: 9.000000  magneticMoment: [ Abs: 0.14081  Tot: -0.14000 ]
SCF: Cycle: 22   F: -24.430750238146935   dF: +3.863e-09   |Residual|: 3.659e-06   |deigs|: 3.265e-06  t[s]:    184.30
	FillingsUpdate:  mu: -0.082775217  nElectrons: 9.000000  magneticMoment: [ Abs: 0.14080  Tot: -0.14000 ]
SCF: Cycle: 23   F: -24.430750245513288   dF: -7.366e-09   |Residual|: 2.324e-06   |deigs|: 2.971e-06  t[s]:    191.36
	FillingsUpdate:  mu: -0.082775326  nElectrons: 9.000000  magneticMoment: [ Abs: 0.14080  Tot: -0.14000 ]
SCF: Cycle: 24   F: -24.430750247124315   dF: -1.611e-09   |Residual|: 1.617e-06   |deigs|: 3.542e-06  t[s]:    198.20
SCF: Converged (|Delta E|<1.000000e-08 for 2 iters).


# Ionic positions in lattice coordinates:
ion Rb   0.000000000000000   0.000000000000000   0.000000000000000 0

# Forces in Lattice coordinates:
force Rb   0.000000000000000   0.000000000000000   0.000000000000000 0

# Energy components:
   Eewald =       -9.0240130501663280
       EH =       10.5164386552175380
     Eloc =      -28.4401342773824979
      Enl =       -0.7932370073833052
   Epulay =        0.0000000056959385
      Exc =       -3.6474502129911555
       KE =        6.9576463277551532
-------------------------------------
     Etot =      -24.4307495592546573
       TS =        0.0000006878696584
-------------------------------------
        F =      -24.4307502471243154

IonicMinimize: Iter:   0  F: -24.430750247124315  |grad|_K:  0.000e+00  t[s]:    198.61
IonicMinimize: Converged (|grad|_K<1.000000e-04).

#--- Lowdin population analysis ---
# oxidation-state Rb +0.002
# magnetic-moments Rb -0.140

End date and time: Sun Feb  6 12:48:01 2022  (Duration: 0-0:03:18.67)
Done!
