
*************** JDFTx 1.6.0 (git hash 42ebbcc2) ***************

Start date and time: Sun Feb  6 12:37:44 2022
Executable jdftx with command-line: -i Alkali.in
Running on hosts (process indices):  d-16-6-2 (0-18)
Divided in process groups (process indices):  0 (0)  1 (1)  2 (2)  3 (3)  4 (4)  5 (5)  6 (6)  7 (7)  8 (8)  9 (9)  10 (10)  11 (11)  12 (12)  13 (13)  14 (14)  15 (15)  16 (16)  17 (17)  18 (18)
Resource initialization completed at t[s]:      0.00
Run totals: 19 processes, 48 threads, 0 GPUs


Input parsed successfully to the following command list (including defaults):

basis kpoint-dependent
coords-type Lattice
core-overlap-check vector
coulomb-interaction Slab 001
davidson-band-ratio 1.1
dump End None
dump-name $INPUT.$VAR
elec-cutoff 20
elec-eigen-algo Davidson
elec-ex-corr gga-PBE
elec-initial-magnetization -0.780000 yes
elec-smearing Fermi 1e-05
electronic-minimize  \
	dirUpdateScheme      FletcherReeves \
	linminMethod         DirUpdateRecommended \
	nIterations          100 \
	history              15 \
	knormThreshold       0 \
	energyDiffThreshold  1e-08 \
	nEnergyDiff          2 \
	alphaTstart          1 \
	alphaTmin            1e-10 \
	updateTestStepSize   yes \
	alphaTreduceFactor   0.1 \
	alphaTincreaseFactor 3 \
	nAlphaAdjustMax      3 \
	wolfeEnergy          0.0001 \
	wolfeGradient        0.9 \
	fdTest               no
electronic-scf  \
	nIterations	10000 \
	energyDiffThreshold	1e-08 \
	residualThreshold	1e-07 \
	mixFraction	0.5 \
	qMetric	0.8 \
	history	10 \
	nEigSteps	2 \
	eigDiffThreshold	1e-08 \
	mixedVariable	Density \
	qKerker	0.8 \
	qKappa	-1 \
	verbose	no \
	mixFractionMag	1.5
exchange-regularization WignerSeitzTruncated
fluid None
fluid-ex-corr (null) lda-PZ
fluid-gummel-loop 10 1.000000e-05
fluid-minimize  \
	dirUpdateScheme      PolakRibiere \
	linminMethod         DirUpdateRecommended \
	nIterations          100 \
	history              15 \
	knormThreshold       0 \
	energyDiffThreshold  0 \
	nEnergyDiff          2 \
	alphaTstart          1 \
	alphaTmin            1e-10 \
	updateTestStepSize   yes \
	alphaTreduceFactor   0.1 \
	alphaTincreaseFactor 3 \
	nAlphaAdjustMax      3 \
	wolfeEnergy          0.0001 \
	wolfeGradient        0.9 \
	fdTest               no
fluid-solvent H2O 55.338 ScalarEOS \
	epsBulk 78.4 \
	pMol 0.92466 \
	epsInf 1.77 \
	Pvap 1.06736e-10 \
	sigmaBulk 4.62e-05 \
	Rvdw 2.61727 \
	Res 1.42 \
	tauNuc 343133 \
	poleEl 15 7 1
forces-output-coords Positions
ion Rb   0.000000000000000   0.000000000000000   0.000000000000000 0
ion-species SG15/$ID_ONCV_PBE.upf
ion-width 0
ionic-minimize  \
	dirUpdateScheme      L-BFGS \
	linminMethod         DirUpdateRecommended \
	nIterations          0 \
	history              15 \
	knormThreshold       0.0001 \
	energyDiffThreshold  1e-06 \
	nEnergyDiff          2 \
	alphaTstart          1 \
	alphaTmin            1e-10 \
	updateTestStepSize   yes \
	alphaTreduceFactor   0.1 \
	alphaTincreaseFactor 3 \
	nAlphaAdjustMax      3 \
	wolfeEnergy          0.0001 \
	wolfeGradient        0.9 \
	fdTest               no
kpoint   0.000000000000   0.000000000000   0.000000000000  1.00000000000000
kpoint-folding 12 12 1 
latt-move-scale 1 1 1
latt-scale 4 4 1 
lattice  \
	   4.727486978767153   -2.363743489383575    0.000000000000000  \
	  -0.000000000000000    4.094123819672498    0.000000000000000  \
	   0.000000000000000    0.000000000000000   40.000000000000000 
lattice-minimize  \
	dirUpdateScheme      L-BFGS \
	linminMethod         DirUpdateRecommended \
	nIterations          0 \
	history              15 \
	knormThreshold       0 \
	energyDiffThreshold  1e-06 \
	nEnergyDiff          2 \
	alphaTstart          1 \
	alphaTmin            1e-10 \
	updateTestStepSize   yes \
	alphaTreduceFactor   0.1 \
	alphaTincreaseFactor 3 \
	nAlphaAdjustMax      3 \
	wolfeEnergy          0.0001 \
	wolfeGradient        0.9 \
	fdTest               no
lcao-params -1 1e-06 1e-05
pcm-variant GLSSA13
spintype z-spin
subspace-rotation-factor 1 yes
symmetries automatic
symmetry-threshold 0.0001



---------- Setting up symmetries ----------

Found 24 point-group symmetries of the bravais lattice
Found 24 space-group symmetries with basis
Applied RMS atom displacement 0 bohrs to make symmetries exact.

---------- Initializing the Grid ----------
R = 
[      18.9099     -9.45497            0  ]
[            0      16.3765            0  ]
[            0            0           40  ]
unit cell volume = 12387.1
G =
[   0.332269   0.191835         -0  ]
[          0   0.383671         -0  ]
[         -0         -0    0.15708  ]
Minimum fftbox size, Smin = [  80  80  164  ]
Chosen fftbox size, S = [  80  80  168  ]

---------- Exchange Correlation functional ----------
Initalized PBE GGA exchange.
Initalized PBE GGA correlation.

---------- Setting up pseudopotentials ----------
Width of ionic core gaussian charges (only for fluid interactions / plotting) set to 0

Reading pseudopotential file '/home/gridsan/aligho/DFT/build-Nov24/pseudopotentials/SG15/Rb_ONCV_PBE.upf':
  'Rb' pseudopotential, 'PBE' functional
  Generated using ONCVPSP code by D. R. Hamann
  Author: Martin Schlipf and Francois Gygi  Date: 150915.
  9 valence electrons, 3 orbitals, 6 projectors, 2308 radial grid points, with lMax = 2
  Transforming local potential to a uniform radial grid of dG=0.02 with 1489 points.
  Transforming nonlocal projectors to a uniform radial grid of dG=0.02 with 432 points.
    4S    l: 0   occupation:  2.0   eigenvalue: -1.172069
    4P    l: 1   occupation:  6.0   eigenvalue: -0.586674
    5S    l: 0   occupation:  1.0   eigenvalue: -0.082006
  Transforming atomic orbitals to a uniform radial grid of dG=0.02 with 432 points.
  Core radius for overlap checks: 2.60 bohrs.
  Reading pulay file /home/gridsan/aligho/DFT/build-Nov24/pseudopotentials/SG15/Rb_ONCV_PBE.pulay ... using dE_dnG = -1.360715e-05 computed for Ecut = 20.

Initialized 1 species with 1 total atoms.

Folded 1 k-points by 12x12x1 to 144 k-points.

---------- Setting up k-points, bands, fillings ----------
Reduced to 19 k-points under symmetry. 
Computing the number of bands and number of electrons
Calculating initial fillings.
nElectrons:   9.000000   nBands: 6   nStates: 38

----- Setting up reduced wavefunction bases (one per k-point) -----
average nbasis = 52924.021 , ideal nbasis = 52918.836

---------- Setting up coulomb interaction ----------
Initialized slab truncation along lattice direction 001

---------- Setting up 2D ewald sum ----------
Optimum gaussian width for ewald sums = 10.498040 bohr.
Real space sums over 289 unit cells with max indices [  8  8  0  ]
Reciprocal space sums over 81 terms with max indices [  4  4  0  ]

---------- Allocating electronic variables ----------
Initializing wave functions:  linear combination of atomic orbitals
Note: number of bands (6) exceeds available atomic orbitals (5)
Rb pseudo-atom occupations:   s ( 2 1 )  p ( 6 )
	FillingsUpdate:  mu: -0.082530141  nElectrons: 9.000000  magneticMoment: [ Abs: 0.78000  Tot: -0.78000 ]
LCAOMinimize: Iter:   0  F: -24.4325538771135591  |grad|_K:  2.230e-06  alpha:  1.000e+00
	FillingsUpdate:  mu: -0.082529663  nElectrons: 9.000000  magneticMoment: [ Abs: 0.78000  Tot: -0.78000 ]
LCAOMinimize: Iter:   1  F: -24.4325538804824909  |grad|_K:  1.197e-08  alpha:  9.908e-01  linmin: -2.574e-03  cgtest:  6.881e-02  t[s]:     14.89
LCAOMinimize: Encountered beta<0, resetting CG.
LCAOMinimize: 	Step increased F by 6.394885e-14, reducing alpha to 2.736847e-02.
LCAOMinimize: 	Step increased F by 2.131628e-14, reducing alpha to 2.736847e-03.
LCAOMinimize: 	Step increased F by 1.385558e-13, reducing alpha to 2.736847e-04.
LCAOMinimize: 	Step failed to reduce F after 3 attempts. Quitting step.
LCAOMinimize: 	Undoing step.
LCAOMinimize: 	Step failed along negative gradient direction.
LCAOMinimize: Probably at roundoff error limit. (Stopping)


---- Citations for features of the code used in this run ----

   Software package:
      R. Sundararaman, K. Letchworth-Weaver, K.A. Schwarz, D. Gunceler, Y. Ozhabes and T.A. Arias, 'JDFTx: software for joint density-functional theory', SoftwareX 6, 278 (2017)

   gga-PBE exchange-correlation functional:
      J.P. Perdew, K. Burke and M. Ernzerhof, Phys. Rev. Lett. 77, 3865 (1996)

   Pseudopotentials:
      M Schlipf and F Gygi, Comput. Phys. Commun. 196, 36 (2015)

   Truncated Coulomb potentials:
      R. Sundararaman and T.A. Arias, Phys. Rev. B 87, 165122 (2013)

This list may not be complete. Please suggest additional citations or
report any other bugs at https://github.com/shankar1729/jdftx/issues

Initialization completed successfully at t[s]:     26.00


-------- Electronic minimization -----------
Will mix electronic density at each iteration.
	FillingsUpdate:  mu: -0.082529663  nElectrons: 9.000000  magneticMoment: [ Abs: 0.78000  Tot: -0.78000 ]
	FillingsUpdate:  mu: -0.082634138  nElectrons: 9.000000  magneticMoment: [ Abs: 0.78000  Tot: -0.78000 ]
SCF: Cycle:  0   F: -24.432668661514324   dF: -1.148e-04   |Residual|: 1.783e-03   |deigs|: 1.689e-01  t[s]:     34.06
	FillingsUpdate:  mu: -0.082621306  nElectrons: 9.000000  magneticMoment: [ Abs: 0.78428  Tot: -0.78000 ]
SCF: Cycle:  1   F: -24.432671044011887   dF: -2.382e-06   |Residual|: 4.264e-04   |deigs|: 1.006e-02  t[s]:     40.38
	FillingsUpdate:  mu: -0.082587298  nElectrons: 9.000000  magneticMoment: [ Abs: 0.78427  Tot: -0.78000 ]
SCF: Cycle:  2   F: -24.432671628694568   dF: -5.847e-07   |Residual|: 2.558e-04   |deigs|: 1.715e-03  t[s]:     46.86
	FillingsUpdate:  mu: -0.082559739  nElectrons: 9.000000  magneticMoment: [ Abs: 0.78488  Tot: -0.78000 ]
SCF: Cycle:  3   F: -24.432671953528779   dF: -3.248e-07   |Residual|: 1.943e-04   |deigs|: 8.028e-04  t[s]:     53.42
	FillingsUpdate:  mu: -0.082487560  nElectrons: 9.000000  magneticMoment: [ Abs: 0.78484  Tot: -0.78000 ]
SCF: Cycle:  4   F: -24.432672210894481   dF: -2.574e-07   |Residual|: 1.387e-04   |deigs|: 5.792e-04  t[s]:     60.10
	FillingsUpdate:  mu: -0.082383361  nElectrons: 9.000000  magneticMoment: [ Abs: 0.78486  Tot: -0.78000 ]
SCF: Cycle:  5   F: -24.432672315903879   dF: -1.050e-07   |Residual|: 9.046e-05   |deigs|: 5.200e-04  t[s]:     66.90
	FillingsUpdate:  mu: -0.082330473  nElectrons: 9.000000  magneticMoment: [ Abs: 0.78476  Tot: -0.78000 ]
SCF: Cycle:  6   F: -24.432672392050726   dF: -7.615e-08   |Residual|: 7.141e-05   |deigs|: 4.133e-04  t[s]:     73.81
	FillingsUpdate:  mu: -0.082309951  nElectrons: 9.000000  magneticMoment: [ Abs: 0.78480  Tot: -0.78000 ]
SCF: Cycle:  7   F: -24.432672448437277   dF: -5.639e-08   |Residual|: 5.686e-05   |deigs|: 4.913e-04  t[s]:     80.79
	FillingsUpdate:  mu: -0.082283992  nElectrons: 9.000000  magneticMoment: [ Abs: 0.78479  Tot: -0.78000 ]
SCF: Cycle:  8   F: -24.432672493925065   dF: -4.549e-08   |Residual|: 4.855e-05   |deigs|: 1.646e-04  t[s]:     87.91
	FillingsUpdate:  mu: -0.082255774  nElectrons: 9.000000  magneticMoment: [ Abs: 0.78478  Tot: -0.78000 ]
SCF: Cycle:  9   F: -24.432672496980153   dF: -3.055e-09   |Residual|: 4.112e-05   |deigs|: 1.633e-04  t[s]:     95.18
	FillingsUpdate:  mu: -0.082233071  nElectrons: 9.000000  magneticMoment: [ Abs: 0.78482  Tot: -0.78000 ]
SCF: Cycle: 10   F: -24.432672441688165   dF: +5.529e-08   |Residual|: 3.531e-05   |deigs|: 1.278e-04  t[s]:    102.57
	FillingsUpdate:  mu: -0.082200419  nElectrons: 9.000000  magneticMoment: [ Abs: 0.78490  Tot: -0.78000 ]
SCF: Cycle: 11   F: -24.432672390157954   dF: +5.153e-08   |Residual|: 3.021e-05   |deigs|: 8.386e-05  t[s]:    109.94
	FillingsUpdate:  mu: -0.082178353  nElectrons: 9.000000  magneticMoment: [ Abs: 0.78502  Tot: -0.78000 ]
SCF: Cycle: 12   F: -24.432672002679769   dF: +3.875e-07   |Residual|: 2.765e-05   |deigs|: 8.787e-05  t[s]:    117.29
	FillingsUpdate:  mu: -0.082186956  nElectrons: 9.000000  magneticMoment: [ Abs: 0.78494  Tot: -0.78000 ]
SCF: Cycle: 13   F: -24.432672363353205   dF: -3.607e-07   |Residual|: 2.778e-05   |deigs|: 3.274e-05  t[s]:    124.63
	FillingsUpdate:  mu: -0.082139657  nElectrons: 9.000000  magneticMoment: [ Abs: 0.78498  Tot: -0.78000 ]
SCF: Cycle: 14   F: -24.432672530799202   dF: -1.674e-07   |Residual|: 2.272e-05   |deigs|: 5.215e-05  t[s]:    131.53
	FillingsUpdate:  mu: -0.082097444  nElectrons: 9.000000  magneticMoment: [ Abs: 0.78496  Tot: -0.78000 ]
SCF: Cycle: 15   F: -24.432672312626408   dF: +2.182e-07   |Residual|: 2.311e-05   |deigs|: 5.231e-05  t[s]:    138.68
	FillingsUpdate:  mu: -0.082063068  nElectrons: 9.000000  magneticMoment: [ Abs: 0.78485  Tot: -0.78000 ]
SCF: Cycle: 16   F: -24.432672442397653   dF: -1.298e-07   |Residual|: 1.976e-05   |deigs|: 4.082e-05  t[s]:    145.93
	FillingsUpdate:  mu: -0.082048655  nElectrons: 9.000000  magneticMoment: [ Abs: 0.78486  Tot: -0.78000 ]
SCF: Cycle: 17   F: -24.432672452917632   dF: -1.052e-08   |Residual|: 1.203e-05   |deigs|: 2.613e-05  t[s]:    153.18
	FillingsUpdate:  mu: -0.082040114  nElectrons: 9.000000  magneticMoment: [ Abs: 0.78483  Tot: -0.78000 ]
SCF: Cycle: 18   F: -24.432672537719220   dF: -8.480e-08   |Residual|: 8.151e-06   |deigs|: 2.267e-05  t[s]:    160.47
	FillingsUpdate:  mu: -0.082031280  nElectrons: 9.000000  magneticMoment: [ Abs: 0.78480  Tot: -0.78000 ]
SCF: Cycle: 19   F: -24.432672590597377   dF: -5.288e-08   |Residual|: 4.914e-06   |deigs|: 2.717e-05  t[s]:    167.18
	FillingsUpdate:  mu: -0.082027413  nElectrons: 9.000000  magneticMoment: [ Abs: 0.78479  Tot: -0.78000 ]
SCF: Cycle: 20   F: -24.432672595322167   dF: -4.725e-09   |Residual|: 3.639e-06   |deigs|: 3.180e-05  t[s]:    173.85
	FillingsUpdate:  mu: -0.082026793  nElectrons: 9.000000  magneticMoment: [ Abs: 0.78479  Tot: -0.78000 ]
SCF: Cycle: 21   F: -24.432672601838796   dF: -6.517e-09   |Residual|: 2.846e-06   |deigs|: 3.701e-05  t[s]:    181.11
SCF: Converged (|Delta E|<1.000000e-08 for 2 iters).


# Ionic positions in lattice coordinates:
ion Rb   0.000000000000000   0.000000000000000   0.000000000000000 0

# Forces in Lattice coordinates:
force Rb   0.000000000000000  -0.000000000000000   0.000000000000000 0

# Energy components:
   Eewald =       -9.0240130501663280
       EH =       10.5442200784087117
     Eloc =      -28.4700316704372263
      Enl =       -0.7923138092341983
   Epulay =        0.0000000056959385
      Exc =       -3.6529333100085433
       KE =        6.9623996989585342
-------------------------------------
     Etot =      -24.4326720567831082
       TS =        0.0000005450556890
-------------------------------------
        F =      -24.4326726018387959

IonicMinimize: Iter:   0  F: -24.432672601838796  |grad|_K:  0.000e+00  t[s]:    181.52
IonicMinimize: Converged (|grad|_K<1.000000e-04).

#--- Lowdin population analysis ---
# oxidation-state Rb +0.001
# magnetic-moments Rb -0.779

End date and time: Sun Feb  6 12:40:46 2022  (Duration: 0-0:03:01.58)
Done!
