
*************** JDFTx 1.6.0 (git hash 42ebbcc2) ***************

Start date and time: Sun Feb  6 12:49:46 2022
Executable jdftx with command-line: -i Alkali.in
Running on hosts (process indices):  d-3-4-3 (0-18)
Divided in process groups (process indices):  0 (0)  1 (1)  2 (2)  3 (3)  4 (4)  5 (5)  6 (6)  7 (7)  8 (8)  9 (9)  10 (10)  11 (11)  12 (12)  13 (13)  14 (14)  15 (15)  16 (16)  17 (17)  18 (18)
Resource initialization completed at t[s]:      0.00
Run totals: 19 processes, 48 threads, 0 GPUs


Input parsed successfully to the following command list (including defaults):

basis kpoint-dependent
coords-type Lattice
core-overlap-check vector
coulomb-interaction Slab 001
davidson-band-ratio 1.1
dump End None
dump-name $INPUT.$VAR
elec-cutoff 20
elec-eigen-algo Davidson
elec-ex-corr gga-PBE
elec-initial-magnetization -0.080000 yes
elec-smearing Fermi 1e-05
electronic-minimize  \
	dirUpdateScheme      FletcherReeves \
	linminMethod         DirUpdateRecommended \
	nIterations          100 \
	history              15 \
	knormThreshold       0 \
	energyDiffThreshold  1e-08 \
	nEnergyDiff          2 \
	alphaTstart          1 \
	alphaTmin            1e-10 \
	updateTestStepSize   yes \
	alphaTreduceFactor   0.1 \
	alphaTincreaseFactor 3 \
	nAlphaAdjustMax      3 \
	wolfeEnergy          0.0001 \
	wolfeGradient        0.9 \
	fdTest               no
electronic-scf  \
	nIterations	10000 \
	energyDiffThreshold	1e-08 \
	residualThreshold	1e-07 \
	mixFraction	0.5 \
	qMetric	0.8 \
	history	10 \
	nEigSteps	2 \
	eigDiffThreshold	1e-08 \
	mixedVariable	Density \
	qKerker	0.8 \
	qKappa	-1 \
	verbose	no \
	mixFractionMag	1.5
exchange-regularization WignerSeitzTruncated
fluid None
fluid-ex-corr (null) lda-PZ
fluid-gummel-loop 10 1.000000e-05
fluid-minimize  \
	dirUpdateScheme      PolakRibiere \
	linminMethod         DirUpdateRecommended \
	nIterations          100 \
	history              15 \
	knormThreshold       0 \
	energyDiffThreshold  0 \
	nEnergyDiff          2 \
	alphaTstart          1 \
	alphaTmin            1e-10 \
	updateTestStepSize   yes \
	alphaTreduceFactor   0.1 \
	alphaTincreaseFactor 3 \
	nAlphaAdjustMax      3 \
	wolfeEnergy          0.0001 \
	wolfeGradient        0.9 \
	fdTest               no
fluid-solvent H2O 55.338 ScalarEOS \
	epsBulk 78.4 \
	pMol 0.92466 \
	epsInf 1.77 \
	Pvap 1.06736e-10 \
	sigmaBulk 4.62e-05 \
	Rvdw 2.61727 \
	Res 1.42 \
	tauNuc 343133 \
	poleEl 15 7 1
forces-output-coords Positions
ion Rb   0.000000000000000   0.000000000000000   0.000000000000000 0
ion-species SG15/$ID_ONCV_PBE.upf
ion-width 0
ionic-minimize  \
	dirUpdateScheme      L-BFGS \
	linminMethod         DirUpdateRecommended \
	nIterations          0 \
	history              15 \
	knormThreshold       0.0001 \
	energyDiffThreshold  1e-06 \
	nEnergyDiff          2 \
	alphaTstart          1 \
	alphaTmin            1e-10 \
	updateTestStepSize   yes \
	alphaTreduceFactor   0.1 \
	alphaTincreaseFactor 3 \
	nAlphaAdjustMax      3 \
	wolfeEnergy          0.0001 \
	wolfeGradient        0.9 \
	fdTest               no
kpoint   0.000000000000   0.000000000000   0.000000000000  1.00000000000000
kpoint-folding 12 12 1 
latt-move-scale 1 1 1
latt-scale 4 4 1 
lattice  \
	   4.727486978767153   -2.363743489383575    0.000000000000000  \
	  -0.000000000000000    4.094123819672498    0.000000000000000  \
	   0.000000000000000    0.000000000000000   40.000000000000000 
lattice-minimize  \
	dirUpdateScheme      L-BFGS \
	linminMethod         DirUpdateRecommended \
	nIterations          0 \
	history              15 \
	knormThreshold       0 \
	energyDiffThreshold  1e-06 \
	nEnergyDiff          2 \
	alphaTstart          1 \
	alphaTmin            1e-10 \
	updateTestStepSize   yes \
	alphaTreduceFactor   0.1 \
	alphaTincreaseFactor 3 \
	nAlphaAdjustMax      3 \
	wolfeEnergy          0.0001 \
	wolfeGradient        0.9 \
	fdTest               no
lcao-params -1 1e-06 1e-05
pcm-variant GLSSA13
spintype z-spin
subspace-rotation-factor 1 yes
symmetries automatic
symmetry-threshold 0.0001



---------- Setting up symmetries ----------

Found 24 point-group symmetries of the bravais lattice
Found 24 space-group symmetries with basis
Applied RMS atom displacement 0 bohrs to make symmetries exact.

---------- Initializing the Grid ----------
R = 
[      18.9099     -9.45497            0  ]
[            0      16.3765            0  ]
[            0            0           40  ]
unit cell volume = 12387.1
G =
[   0.332269   0.191835         -0  ]
[          0   0.383671         -0  ]
[         -0         -0    0.15708  ]
Minimum fftbox size, Smin = [  80  80  164  ]
Chosen fftbox size, S = [  80  80  168  ]

---------- Exchange Correlation functional ----------
Initalized PBE GGA exchange.
Initalized PBE GGA correlation.

---------- Setting up pseudopotentials ----------
Width of ionic core gaussian charges (only for fluid interactions / plotting) set to 0

Reading pseudopotential file '/home/gridsan/aligho/DFT/build-Nov24/pseudopotentials/SG15/Rb_ONCV_PBE.upf':
  'Rb' pseudopotential, 'PBE' functional
  Generated using ONCVPSP code by D. R. Hamann
  Author: Martin Schlipf and Francois Gygi  Date: 150915.
  9 valence electrons, 3 orbitals, 6 projectors, 2308 radial grid points, with lMax = 2
  Transforming local potential to a uniform radial grid of dG=0.02 with 1489 points.
  Transforming nonlocal projectors to a uniform radial grid of dG=0.02 with 432 points.
    4S    l: 0   occupation:  2.0   eigenvalue: -1.172069
    4P    l: 1   occupation:  6.0   eigenvalue: -0.586674
    5S    l: 0   occupation:  1.0   eigenvalue: -0.082006
  Transforming atomic orbitals to a uniform radial grid of dG=0.02 with 432 points.
  Core radius for overlap checks: 2.60 bohrs.
  Reading pulay file /home/gridsan/aligho/DFT/build-Nov24/pseudopotentials/SG15/Rb_ONCV_PBE.pulay ... using dE_dnG = -1.360715e-05 computed for Ecut = 20.

Initialized 1 species with 1 total atoms.

Folded 1 k-points by 12x12x1 to 144 k-points.

---------- Setting up k-points, bands, fillings ----------
Reduced to 19 k-points under symmetry. 
Computing the number of bands and number of electrons
Calculating initial fillings.
nElectrons:   9.000000   nBands: 6   nStates: 38

----- Setting up reduced wavefunction bases (one per k-point) -----
average nbasis = 52924.021 , ideal nbasis = 52918.836

---------- Setting up coulomb interaction ----------
Initialized slab truncation along lattice direction 001

---------- Setting up 2D ewald sum ----------
Optimum gaussian width for ewald sums = 10.498040 bohr.
Real space sums over 289 unit cells with max indices [  8  8  0  ]
Reciprocal space sums over 81 terms with max indices [  4  4  0  ]

---------- Allocating electronic variables ----------
Initializing wave functions:  linear combination of atomic orbitals
Note: number of bands (6) exceeds available atomic orbitals (5)
Rb pseudo-atom occupations:   s ( 2 1 )  p ( 6 )
	FillingsUpdate:  mu: -0.082570511  nElectrons: 9.000000  magneticMoment: [ Abs: 0.08000  Tot: -0.08000 ]
LCAOMinimize: Iter:   0  F: -24.4305721921512706  |grad|_K:  5.317e-06  alpha:  1.000e+00
	FillingsUpdate:  mu: -0.082569335  nElectrons: 9.000000  magneticMoment: [ Abs: 0.08000  Tot: -0.08000 ]
LCAOMinimize: Iter:   1  F: -24.4305722112308707  |grad|_K:  2.568e-08  alpha:  9.867e-01  linmin: -8.912e-03  cgtest:  3.087e-01  t[s]:     15.09
LCAOMinimize: Encountered beta<0, resetting CG.
LCAOMinimize: 	Predicted alpha/alphaT>3.000000, increasing alphaT to 2.960213e+00.
	FillingsUpdate:  mu: -0.082569334  nElectrons: 9.000000  magneticMoment: [ Abs: 0.08000  Tot: -0.08000 ]
LCAOMinimize: Iter:   2  F: -24.4305722112314676  |grad|_K:  1.088e-09  alpha:  1.043e+00  linmin:  1.787e-02  cgtest: -9.998e-01  t[s]:     20.62
LCAOMinimize: Converged (|Delta F|<1.000000e-06 for 2 iters).


---- Citations for features of the code used in this run ----

   Software package:
      R. Sundararaman, K. Letchworth-Weaver, K.A. Schwarz, D. Gunceler, Y. Ozhabes and T.A. Arias, 'JDFTx: software for joint density-functional theory', SoftwareX 6, 278 (2017)

   gga-PBE exchange-correlation functional:
      J.P. Perdew, K. Burke and M. Ernzerhof, Phys. Rev. Lett. 77, 3865 (1996)

   Pseudopotentials:
      M Schlipf and F Gygi, Comput. Phys. Commun. 196, 36 (2015)

   Truncated Coulomb potentials:
      R. Sundararaman and T.A. Arias, Phys. Rev. B 87, 165122 (2013)

This list may not be complete. Please suggest additional citations or
report any other bugs at https://github.com/shankar1729/jdftx/issues

Initialization completed successfully at t[s]:     20.88


-------- Electronic minimization -----------
Will mix electronic density at each iteration.
	FillingsUpdate:  mu: -0.082569334  nElectrons: 9.000000  magneticMoment: [ Abs: 0.08000  Tot: -0.08000 ]
	FillingsUpdate:  mu: -0.082674632  nElectrons: 9.000000  magneticMoment: [ Abs: 0.08000  Tot: -0.08000 ]
SCF: Cycle:  0   F: -24.430692538308051   dF: -1.203e-04   |Residual|: 6.726e-04   |deigs|: 1.757e-01  t[s]:     29.06
	FillingsUpdate:  mu: -0.082719583  nElectrons: 9.000000  magneticMoment: [ Abs: 0.08035  Tot: -0.08000 ]
SCF: Cycle:  1   F: -24.430694239327991   dF: -1.701e-06   |Residual|: 5.355e-04   |deigs|: 4.079e-03  t[s]:     35.50
	FillingsUpdate:  mu: -0.082809930  nElectrons: 9.000000  magneticMoment: [ Abs: 0.08040  Tot: -0.08000 ]
SCF: Cycle:  2   F: -24.430695053922214   dF: -8.146e-07   |Residual|: 3.870e-04   |deigs|: 1.385e-03  t[s]:     42.04
	FillingsUpdate:  mu: -0.082929373  nElectrons: 9.000000  magneticMoment: [ Abs: 0.08070  Tot: -0.08000 ]
SCF: Cycle:  3   F: -24.430695954854578   dF: -9.009e-07   |Residual|: 2.625e-04   |deigs|: 5.098e-04  t[s]:     48.63
	FillingsUpdate:  mu: -0.083028861  nElectrons: 9.000000  magneticMoment: [ Abs: 0.08046  Tot: -0.08000 ]
SCF: Cycle:  4   F: -24.430696666838926   dF: -7.120e-07   |Residual|: 1.670e-04   |deigs|: 4.587e-04  t[s]:     55.38
	FillingsUpdate:  mu: -0.083058060  nElectrons: 9.000000  magneticMoment: [ Abs: 0.08066  Tot: -0.08000 ]
SCF: Cycle:  5   F: -24.430697016488157   dF: -3.496e-07   |Residual|: 1.252e-04   |deigs|: 6.747e-04  t[s]:     62.15
	FillingsUpdate:  mu: -0.083055366  nElectrons: 9.000000  magneticMoment: [ Abs: 0.08055  Tot: -0.08000 ]
SCF: Cycle:  6   F: -24.430697311365929   dF: -2.949e-07   |Residual|: 7.394e-05   |deigs|: 9.843e-04  t[s]:     69.05
	FillingsUpdate:  mu: -0.083041894  nElectrons: 9.000000  magneticMoment: [ Abs: 0.08051  Tot: -0.08000 ]
SCF: Cycle:  7   F: -24.430697410475769   dF: -9.911e-08   |Residual|: 5.826e-05   |deigs|: 5.519e-04  t[s]:     76.01
	FillingsUpdate:  mu: -0.083016038  nElectrons: 9.000000  magneticMoment: [ Abs: 0.08049  Tot: -0.08000 ]
SCF: Cycle:  8   F: -24.430697478776192   dF: -6.830e-08   |Residual|: 3.758e-05   |deigs|: 3.458e-04  t[s]:     83.15
	FillingsUpdate:  mu: -0.082998318  nElectrons: 9.000000  magneticMoment: [ Abs: 0.08045  Tot: -0.08000 ]
SCF: Cycle:  9   F: -24.430697491934026   dF: -1.316e-08   |Residual|: 3.297e-05   |deigs|: 7.594e-05  t[s]:     90.33
	FillingsUpdate:  mu: -0.082976945  nElectrons: 9.000000  magneticMoment: [ Abs: 0.08052  Tot: -0.08000 ]
SCF: Cycle: 10   F: -24.430697494656357   dF: -2.722e-09   |Residual|: 2.760e-05   |deigs|: 6.313e-05  t[s]:     97.71
	FillingsUpdate:  mu: -0.082950784  nElectrons: 9.000000  magneticMoment: [ Abs: 0.08053  Tot: -0.08000 ]
SCF: Cycle: 11   F: -24.430697489577121   dF: +5.079e-09   |Residual|: 2.653e-05   |deigs|: 3.434e-05  t[s]:    105.12
	FillingsUpdate:  mu: -0.082925131  nElectrons: 9.000000  magneticMoment: [ Abs: 0.08049  Tot: -0.08000 ]
SCF: Cycle: 12   F: -24.430697457217729   dF: +3.236e-08   |Residual|: 2.297e-05   |deigs|: 3.140e-05  t[s]:    112.51
	FillingsUpdate:  mu: -0.082898185  nElectrons: 9.000000  magneticMoment: [ Abs: 0.08051  Tot: -0.08000 ]
SCF: Cycle: 13   F: -24.430697460434679   dF: -3.217e-09   |Residual|: 2.062e-05   |deigs|: 4.413e-05  t[s]:    119.93
	FillingsUpdate:  mu: -0.082878810  nElectrons: 9.000000  magneticMoment: [ Abs: 0.08049  Tot: -0.08000 ]
SCF: Cycle: 14   F: -24.430697426147134   dF: +3.429e-08   |Residual|: 2.034e-05   |deigs|: 7.821e-05  t[s]:    127.27
	FillingsUpdate:  mu: -0.082849712  nElectrons: 9.000000  magneticMoment: [ Abs: 0.08053  Tot: -0.08000 ]
SCF: Cycle: 15   F: -24.430697426285406   dF: -1.383e-10   |Residual|: 1.716e-05   |deigs|: 1.262e-04  t[s]:    134.65
	FillingsUpdate:  mu: -0.082827575  nElectrons: 9.000000  magneticMoment: [ Abs: 0.08051  Tot: -0.08000 ]
SCF: Cycle: 16   F: -24.430697469319789   dF: -4.303e-08   |Residual|: 1.494e-05   |deigs|: 1.120e-04  t[s]:    142.00
	FillingsUpdate:  mu: -0.082812084  nElectrons: 9.000000  magneticMoment: [ Abs: 0.08045  Tot: -0.08000 ]
SCF: Cycle: 17   F: -24.430697481810846   dF: -1.249e-08   |Residual|: 1.314e-05   |deigs|: 6.061e-05  t[s]:    149.10
	FillingsUpdate:  mu: -0.082805637  nElectrons: 9.000000  magneticMoment: [ Abs: 0.08047  Tot: -0.08000 ]
SCF: Cycle: 18   F: -24.430697472287360   dF: +9.523e-09   |Residual|: 1.074e-05   |deigs|: 3.140e-05  t[s]:    156.46
	FillingsUpdate:  mu: -0.082801556  nElectrons: 9.000000  magneticMoment: [ Abs: 0.08048  Tot: -0.08000 ]
SCF: Cycle: 19   F: -24.430697496236768   dF: -2.395e-08   |Residual|: 8.333e-06   |deigs|: 1.598e-05  t[s]:    163.75
	FillingsUpdate:  mu: -0.082798417  nElectrons: 9.000000  magneticMoment: [ Abs: 0.08046  Tot: -0.08000 ]
SCF: Cycle: 20   F: -24.430697528122302   dF: -3.189e-08   |Residual|: 6.006e-06   |deigs|: 8.551e-06  t[s]:    170.56
	FillingsUpdate:  mu: -0.082796129  nElectrons: 9.000000  magneticMoment: [ Abs: 0.08047  Tot: -0.08000 ]
SCF: Cycle: 21   F: -24.430697535190465   dF: -7.068e-09   |Residual|: 4.388e-06   |deigs|: 5.315e-06  t[s]:    177.32
	FillingsUpdate:  mu: -0.082795237  nElectrons: 9.000000  magneticMoment: [ Abs: 0.08046  Tot: -0.08000 ]
SCF: Cycle: 22   F: -24.430697535937103   dF: -7.466e-10   |Residual|: 3.606e-06   |deigs|: 4.968e-06  t[s]:    184.27
SCF: Converged (|Delta E|<1.000000e-08 for 2 iters).


# Ionic positions in lattice coordinates:
ion Rb   0.000000000000000   0.000000000000000   0.000000000000000 0

# Forces in Lattice coordinates:
force Rb  -0.000000000000000   0.000000000000000   0.000000000000000 0

# Energy components:
   Eewald =       -9.0240130501663280
       EH =       10.5159344539487289
     Eloc =      -28.4395918400786485
      Enl =       -0.7932513457637634
   Epulay =        0.0000000056959385
      Exc =       -3.6473417573108367
       KE =        6.9575671283547615
-------------------------------------
     Etot =      -24.4306964053201519
       TS =        0.0000011306169506
-------------------------------------
        F =      -24.4306975359371030

IonicMinimize: Iter:   0  F: -24.430697535937103  |grad|_K:  0.000e+00  t[s]:    184.67
IonicMinimize: Converged (|grad|_K<1.000000e-04).

#--- Lowdin population analysis ---
# oxidation-state Rb +0.002
# magnetic-moments Rb -0.080

End date and time: Sun Feb  6 12:52:51 2022  (Duration: 0-0:03:04.74)
Done!
