
*************** JDFTx 1.6.0 (git hash 42ebbcc2) ***************

Start date and time: Sun Feb  6 12:43:48 2022
Executable jdftx with command-line: -i Alkali.in
Running on hosts (process indices):  d-4-2-2 (0-18)
Divided in process groups (process indices):  0 (0)  1 (1)  2 (2)  3 (3)  4 (4)  5 (5)  6 (6)  7 (7)  8 (8)  9 (9)  10 (10)  11 (11)  12 (12)  13 (13)  14 (14)  15 (15)  16 (16)  17 (17)  18 (18)
Resource initialization completed at t[s]:      0.00
Run totals: 19 processes, 48 threads, 0 GPUs


Input parsed successfully to the following command list (including defaults):

basis kpoint-dependent
coords-type Lattice
core-overlap-check vector
coulomb-interaction Slab 001
davidson-band-ratio 1.1
dump End None
dump-name $INPUT.$VAR
elec-cutoff 20
elec-eigen-algo Davidson
elec-ex-corr gga-PBE
elec-initial-magnetization -0.520000 yes
elec-smearing Fermi 1e-05
electronic-minimize  \
	dirUpdateScheme      FletcherReeves \
	linminMethod         DirUpdateRecommended \
	nIterations          100 \
	history              15 \
	knormThreshold       0 \
	energyDiffThreshold  1e-08 \
	nEnergyDiff          2 \
	alphaTstart          1 \
	alphaTmin            1e-10 \
	updateTestStepSize   yes \
	alphaTreduceFactor   0.1 \
	alphaTincreaseFactor 3 \
	nAlphaAdjustMax      3 \
	wolfeEnergy          0.0001 \
	wolfeGradient        0.9 \
	fdTest               no
electronic-scf  \
	nIterations	10000 \
	energyDiffThreshold	1e-08 \
	residualThreshold	1e-07 \
	mixFraction	0.5 \
	qMetric	0.8 \
	history	10 \
	nEigSteps	2 \
	eigDiffThreshold	1e-08 \
	mixedVariable	Density \
	qKerker	0.8 \
	qKappa	-1 \
	verbose	no \
	mixFractionMag	1.5
exchange-regularization WignerSeitzTruncated
fluid None
fluid-ex-corr (null) lda-PZ
fluid-gummel-loop 10 1.000000e-05
fluid-minimize  \
	dirUpdateScheme      PolakRibiere \
	linminMethod         DirUpdateRecommended \
	nIterations          100 \
	history              15 \
	knormThreshold       0 \
	energyDiffThreshold  0 \
	nEnergyDiff          2 \
	alphaTstart          1 \
	alphaTmin            1e-10 \
	updateTestStepSize   yes \
	alphaTreduceFactor   0.1 \
	alphaTincreaseFactor 3 \
	nAlphaAdjustMax      3 \
	wolfeEnergy          0.0001 \
	wolfeGradient        0.9 \
	fdTest               no
fluid-solvent H2O 55.338 ScalarEOS \
	epsBulk 78.4 \
	pMol 0.92466 \
	epsInf 1.77 \
	Pvap 1.06736e-10 \
	sigmaBulk 4.62e-05 \
	Rvdw 2.61727 \
	Res 1.42 \
	tauNuc 343133 \
	poleEl 15 7 1
forces-output-coords Positions
ion Rb   0.000000000000000   0.000000000000000   0.000000000000000 0
ion-species SG15/$ID_ONCV_PBE.upf
ion-width 0
ionic-minimize  \
	dirUpdateScheme      L-BFGS \
	linminMethod         DirUpdateRecommended \
	nIterations          0 \
	history              15 \
	knormThreshold       0.0001 \
	energyDiffThreshold  1e-06 \
	nEnergyDiff          2 \
	alphaTstart          1 \
	alphaTmin            1e-10 \
	updateTestStepSize   yes \
	alphaTreduceFactor   0.1 \
	alphaTincreaseFactor 3 \
	nAlphaAdjustMax      3 \
	wolfeEnergy          0.0001 \
	wolfeGradient        0.9 \
	fdTest               no
kpoint   0.000000000000   0.000000000000   0.000000000000  1.00000000000000
kpoint-folding 12 12 1 
latt-move-scale 1 1 1
latt-scale 4 4 1 
lattice  \
	   4.727486978767153   -2.363743489383575    0.000000000000000  \
	  -0.000000000000000    4.094123819672498    0.000000000000000  \
	   0.000000000000000    0.000000000000000   40.000000000000000 
lattice-minimize  \
	dirUpdateScheme      L-BFGS \
	linminMethod         DirUpdateRecommended \
	nIterations          0 \
	history              15 \
	knormThreshold       0 \
	energyDiffThreshold  1e-06 \
	nEnergyDiff          2 \
	alphaTstart          1 \
	alphaTmin            1e-10 \
	updateTestStepSize   yes \
	alphaTreduceFactor   0.1 \
	alphaTincreaseFactor 3 \
	nAlphaAdjustMax      3 \
	wolfeEnergy          0.0001 \
	wolfeGradient        0.9 \
	fdTest               no
lcao-params -1 1e-06 1e-05
pcm-variant GLSSA13
spintype z-spin
subspace-rotation-factor 1 yes
symmetries automatic
symmetry-threshold 0.0001



---------- Setting up symmetries ----------

Found 24 point-group symmetries of the bravais lattice
Found 24 space-group symmetries with basis
Applied RMS atom displacement 0 bohrs to make symmetries exact.

---------- Initializing the Grid ----------
R = 
[      18.9099     -9.45497            0  ]
[            0      16.3765            0  ]
[            0            0           40  ]
unit cell volume = 12387.1
G =
[   0.332269   0.191835         -0  ]
[          0   0.383671         -0  ]
[         -0         -0    0.15708  ]
Minimum fftbox size, Smin = [  80  80  164  ]
Chosen fftbox size, S = [  80  80  168  ]

---------- Exchange Correlation functional ----------
Initalized PBE GGA exchange.
Initalized PBE GGA correlation.

---------- Setting up pseudopotentials ----------
Width of ionic core gaussian charges (only for fluid interactions / plotting) set to 0

Reading pseudopotential file '/home/gridsan/aligho/DFT/build-Nov24/pseudopotentials/SG15/Rb_ONCV_PBE.upf':
  'Rb' pseudopotential, 'PBE' functional
  Generated using ONCVPSP code by D. R. Hamann
  Author: Martin Schlipf and Francois Gygi  Date: 150915.
  9 valence electrons, 3 orbitals, 6 projectors, 2308 radial grid points, with lMax = 2
  Transforming local potential to a uniform radial grid of dG=0.02 with 1489 points.
  Transforming nonlocal projectors to a uniform radial grid of dG=0.02 with 432 points.
    4S    l: 0   occupation:  2.0   eigenvalue: -1.172069
    4P    l: 1   occupation:  6.0   eigenvalue: -0.586674
    5S    l: 0   occupation:  1.0   eigenvalue: -0.082006
  Transforming atomic orbitals to a uniform radial grid of dG=0.02 with 432 points.
  Core radius for overlap checks: 2.60 bohrs.
  Reading pulay file /home/gridsan/aligho/DFT/build-Nov24/pseudopotentials/SG15/Rb_ONCV_PBE.pulay ... using dE_dnG = -1.360715e-05 computed for Ecut = 20.

Initialized 1 species with 1 total atoms.

Folded 1 k-points by 12x12x1 to 144 k-points.

---------- Setting up k-points, bands, fillings ----------
Reduced to 19 k-points under symmetry. 
Computing the number of bands and number of electrons
Calculating initial fillings.
nElectrons:   9.000000   nBands: 6   nStates: 38

----- Setting up reduced wavefunction bases (one per k-point) -----
average nbasis = 52924.021 , ideal nbasis = 52918.836

---------- Setting up coulomb interaction ----------
Initialized slab truncation along lattice direction 001

---------- Setting up 2D ewald sum ----------
Optimum gaussian width for ewald sums = 10.498040 bohr.
Real space sums over 289 unit cells with max indices [  8  8  0  ]
Reciprocal space sums over 81 terms with max indices [  4  4  0  ]

---------- Allocating electronic variables ----------
Initializing wave functions:  linear combination of atomic orbitals
Note: number of bands (6) exceeds available atomic orbitals (5)
Rb pseudo-atom occupations:   s ( 2 1 )  p ( 6 )
	FillingsUpdate:  mu: -0.082806757  nElectrons: 9.000000  magneticMoment: [ Abs: 0.52000  Tot: -0.52000 ]
LCAOMinimize: Iter:   0  F: -24.4314430721091078  |grad|_K:  4.007e-06  alpha:  1.000e+00
	FillingsUpdate:  mu: -0.082805860  nElectrons: 9.000000  magneticMoment: [ Abs: 0.52000  Tot: -0.52000 ]
LCAOMinimize: Iter:   1  F: -24.4314430829620051  |grad|_K:  2.085e-08  alpha:  9.885e-01  linmin: -7.350e-04  cgtest:  1.975e-01  t[s]:     15.48
LCAOMinimize: Encountered beta<0, resetting CG.
	FillingsUpdate:  mu: -0.082805860  nElectrons: 9.000000  magneticMoment: [ Abs: 0.52000  Tot: -0.52000 ]
LCAOMinimize: Iter:   2  F: -24.4314430829620619  |grad|_K:  8.578e-09  alpha:  5.884e-01  linmin: -3.229e-03  cgtest:  1.000e+00  t[s]:     19.53
LCAOMinimize: Encountered beta<0, resetting CG.
LCAOMinimize: Converged (|Delta F|<1.000000e-06 for 2 iters).


---- Citations for features of the code used in this run ----

   Software package:
      R. Sundararaman, K. Letchworth-Weaver, K.A. Schwarz, D. Gunceler, Y. Ozhabes and T.A. Arias, 'JDFTx: software for joint density-functional theory', SoftwareX 6, 278 (2017)

   gga-PBE exchange-correlation functional:
      J.P. Perdew, K. Burke and M. Ernzerhof, Phys. Rev. Lett. 77, 3865 (1996)

   Pseudopotentials:
      M Schlipf and F Gygi, Comput. Phys. Commun. 196, 36 (2015)

   Truncated Coulomb potentials:
      R. Sundararaman and T.A. Arias, Phys. Rev. B 87, 165122 (2013)

This list may not be complete. Please suggest additional citations or
report any other bugs at https://github.com/shankar1729/jdftx/issues

Initialization completed successfully at t[s]:     19.80


-------- Electronic minimization -----------
Will mix electronic density at each iteration.
	FillingsUpdate:  mu: -0.082805860  nElectrons: 9.000000  magneticMoment: [ Abs: 0.52000  Tot: -0.52000 ]
	FillingsUpdate:  mu: -0.082903032  nElectrons: 9.000000  magneticMoment: [ Abs: 0.52000  Tot: -0.52000 ]
SCF: Cycle:  0   F: -24.431545042144620   dF: -1.020e-04   |Residual|: 1.230e-03   |deigs|: 1.739e-01  t[s]:     28.15
	FillingsUpdate:  mu: -0.082916522  nElectrons: 9.000000  magneticMoment: [ Abs: 0.52249  Tot: -0.52000 ]
SCF: Cycle:  1   F: -24.431546816881628   dF: -1.775e-06   |Residual|: 3.855e-04   |deigs|: 5.681e-03  t[s]:     34.73
	FillingsUpdate:  mu: -0.082927485  nElectrons: 9.000000  magneticMoment: [ Abs: 0.52262  Tot: -0.52000 ]
SCF: Cycle:  2   F: -24.431547294970130   dF: -4.781e-07   |Residual|: 2.580e-04   |deigs|: 1.561e-03  t[s]:     41.37
	FillingsUpdate:  mu: -0.082942398  nElectrons: 9.000000  magneticMoment: [ Abs: 0.52313  Tot: -0.52000 ]
SCF: Cycle:  3   F: -24.431547572078088   dF: -2.771e-07   |Residual|: 1.979e-04   |deigs|: 9.133e-04  t[s]:     48.19
	FillingsUpdate:  mu: -0.082952817  nElectrons: 9.000000  magneticMoment: [ Abs: 0.52305  Tot: -0.52000 ]
SCF: Cycle:  4   F: -24.431547905081064   dF: -3.330e-07   |Residual|: 1.462e-04   |deigs|: 2.075e-04  t[s]:     55.11
	FillingsUpdate:  mu: -0.082970664  nElectrons: 9.000000  magneticMoment: [ Abs: 0.52312  Tot: -0.52000 ]
SCF: Cycle:  5   F: -24.431548151632040   dF: -2.466e-07   |Residual|: 9.977e-05   |deigs|: 4.965e-04  t[s]:     62.18
	FillingsUpdate:  mu: -0.082970055  nElectrons: 9.000000  magneticMoment: [ Abs: 0.52310  Tot: -0.52000 ]
SCF: Cycle:  6   F: -24.431548318319912   dF: -1.667e-07   |Residual|: 6.719e-05   |deigs|: 5.388e-04  t[s]:     69.29
	FillingsUpdate:  mu: -0.082966045  nElectrons: 9.000000  magneticMoment: [ Abs: 0.52310  Tot: -0.52000 ]
SCF: Cycle:  7   F: -24.431548409665055   dF: -9.135e-08   |Residual|: 5.030e-05   |deigs|: 7.233e-04  t[s]:     76.62
	FillingsUpdate:  mu: -0.082952301  nElectrons: 9.000000  magneticMoment: [ Abs: 0.52309  Tot: -0.52000 ]
SCF: Cycle:  8   F: -24.431548457652440   dF: -4.799e-08   |Residual|: 4.029e-05   |deigs|: 3.169e-04  t[s]:     84.01
	FillingsUpdate:  mu: -0.082924042  nElectrons: 9.000000  magneticMoment: [ Abs: 0.52305  Tot: -0.52000 ]
SCF: Cycle:  9   F: -24.431548492490979   dF: -3.484e-08   |Residual|: 3.105e-05   |deigs|: 6.642e-05  t[s]:     91.55
	FillingsUpdate:  mu: -0.082900361  nElectrons: 9.000000  magneticMoment: [ Abs: 0.52307  Tot: -0.52000 ]
SCF: Cycle: 10   F: -24.431548482419970   dF: +1.007e-08   |Residual|: 2.845e-05   |deigs|: 5.794e-05  t[s]:     99.16
	FillingsUpdate:  mu: -0.082870606  nElectrons: 9.000000  magneticMoment: [ Abs: 0.52321  Tot: -0.52000 ]
SCF: Cycle: 11   F: -24.431548442157982   dF: +4.026e-08   |Residual|: 2.784e-05   |deigs|: 1.026e-04  t[s]:    106.80
	FillingsUpdate:  mu: -0.082838216  nElectrons: 9.000000  magneticMoment: [ Abs: 0.52327  Tot: -0.52000 ]
SCF: Cycle: 12   F: -24.431548277070192   dF: +1.651e-07   |Residual|: 2.468e-05   |deigs|: 1.120e-04  t[s]:    114.39
	FillingsUpdate:  mu: -0.082808181  nElectrons: 9.000000  magneticMoment: [ Abs: 0.52325  Tot: -0.52000 ]
SCF: Cycle: 13   F: -24.431548354023423   dF: -7.695e-08   |Residual|: 2.302e-05   |deigs|: 1.070e-04  t[s]:    121.99
	FillingsUpdate:  mu: -0.082785674  nElectrons: 9.000000  magneticMoment: [ Abs: 0.52327  Tot: -0.52000 ]
SCF: Cycle: 14   F: -24.431548495718118   dF: -1.417e-07   |Residual|: 1.831e-05   |deigs|: 6.302e-05  t[s]:    129.35
	FillingsUpdate:  mu: -0.082751515  nElectrons: 9.000000  magneticMoment: [ Abs: 0.52327  Tot: -0.52000 ]
SCF: Cycle: 15   F: -24.431548376190079   dF: +1.195e-07   |Residual|: 1.852e-05   |deigs|: 4.858e-05  t[s]:    136.48
	FillingsUpdate:  mu: -0.082722324  nElectrons: 9.000000  magneticMoment: [ Abs: 0.52317  Tot: -0.52000 ]
SCF: Cycle: 16   F: -24.431548458937733   dF: -8.275e-08   |Residual|: 1.585e-05   |deigs|: 3.650e-05  t[s]:    143.70
	FillingsUpdate:  mu: -0.082719797  nElectrons: 9.000000  magneticMoment: [ Abs: 0.52312  Tot: -0.52000 ]
SCF: Cycle: 17   F: -24.431548469533876   dF: -1.060e-08   |Residual|: 1.287e-05   |deigs|: 1.492e-05  t[s]:    150.95
	FillingsUpdate:  mu: -0.082713458  nElectrons: 9.000000  magneticMoment: [ Abs: 0.52307  Tot: -0.52000 ]
SCF: Cycle: 18   F: -24.431548502665361   dF: -3.313e-08   |Residual|: 9.429e-06   |deigs|: 1.062e-05  t[s]:    158.57
	FillingsUpdate:  mu: -0.082704571  nElectrons: 9.000000  magneticMoment: [ Abs: 0.52305  Tot: -0.52000 ]
SCF: Cycle: 19   F: -24.431548516173649   dF: -1.351e-08   |Residual|: 7.281e-06   |deigs|: 8.795e-06  t[s]:    165.90
	FillingsUpdate:  mu: -0.082703058  nElectrons: 9.000000  magneticMoment: [ Abs: 0.52306  Tot: -0.52000 ]
SCF: Cycle: 20   F: -24.431548547667354   dF: -3.149e-08   |Residual|: 5.347e-06   |deigs|: 3.111e-06  t[s]:    173.23
	FillingsUpdate:  mu: -0.082705213  nElectrons: 9.000000  magneticMoment: [ Abs: 0.52306  Tot: -0.52000 ]
SCF: Cycle: 21   F: -24.431548552355796   dF: -4.688e-09   |Residual|: 3.549e-06   |deigs|: 6.713e-06  t[s]:    180.25
	FillingsUpdate:  mu: -0.082706980  nElectrons: 9.000000  magneticMoment: [ Abs: 0.52306  Tot: -0.52000 ]
SCF: Cycle: 22   F: -24.431548558956411   dF: -6.601e-09   |Residual|: 2.376e-06   |deigs|: 7.303e-06  t[s]:    187.81
SCF: Converged (|Delta E|<1.000000e-08 for 2 iters).


# Ionic positions in lattice coordinates:
ion Rb   0.000000000000000   0.000000000000000   0.000000000000000 0

# Forces in Lattice coordinates:
force Rb  -0.000000000000000   0.000000000000000   0.000000000000000 0

# Energy components:
   Eewald =       -9.0240130501663280
       EH =       10.5292532830953309
     Eloc =      -28.4539278544899297
      Enl =       -0.7928176276479348
   Epulay =        0.0000000056959385
      Exc =       -3.6498608137384299
       KE =        6.9598189996780793
-------------------------------------
     Etot =      -24.4315470575732760
       TS =        0.0000015013831342
-------------------------------------
        F =      -24.4315485589564112

IonicMinimize: Iter:   0  F: -24.431548558956411  |grad|_K:  0.000e+00  t[s]:    188.22
IonicMinimize: Converged (|grad|_K<1.000000e-04).

#--- Lowdin population analysis ---
# oxidation-state Rb +0.001
# magnetic-moments Rb -0.519

End date and time: Sun Feb  6 12:46:56 2022  (Duration: 0-0:03:08.29)
Done!
