
*************** JDFTx 1.6.0 (git hash 42ebbcc2) ***************

Start date and time: Sun Feb  6 12:44:17 2022
Executable jdftx with command-line: -i Alkali.in
Running on hosts (process indices):  d-17-11-3 (0-18)
Divided in process groups (process indices):  0 (0)  1 (1)  2 (2)  3 (3)  4 (4)  5 (5)  6 (6)  7 (7)  8 (8)  9 (9)  10 (10)  11 (11)  12 (12)  13 (13)  14 (14)  15 (15)  16 (16)  17 (17)  18 (18)
Resource initialization completed at t[s]:      0.00
Run totals: 19 processes, 48 threads, 0 GPUs


Input parsed successfully to the following command list (including defaults):

basis kpoint-dependent
coords-type Lattice
core-overlap-check vector
coulomb-interaction Slab 001
davidson-band-ratio 1.1
dump End None
dump-name $INPUT.$VAR
elec-cutoff 20
elec-eigen-algo Davidson
elec-ex-corr gga-PBE
elec-initial-magnetization -0.200000 yes
elec-smearing Fermi 1e-05
electronic-minimize  \
	dirUpdateScheme      FletcherReeves \
	linminMethod         DirUpdateRecommended \
	nIterations          100 \
	history              15 \
	knormThreshold       0 \
	energyDiffThreshold  1e-08 \
	nEnergyDiff          2 \
	alphaTstart          1 \
	alphaTmin            1e-10 \
	updateTestStepSize   yes \
	alphaTreduceFactor   0.1 \
	alphaTincreaseFactor 3 \
	nAlphaAdjustMax      3 \
	wolfeEnergy          0.0001 \
	wolfeGradient        0.9 \
	fdTest               no
electronic-scf  \
	nIterations	10000 \
	energyDiffThreshold	1e-08 \
	residualThreshold	1e-07 \
	mixFraction	0.5 \
	qMetric	0.8 \
	history	10 \
	nEigSteps	2 \
	eigDiffThreshold	1e-08 \
	mixedVariable	Density \
	qKerker	0.8 \
	qKappa	-1 \
	verbose	no \
	mixFractionMag	1.5
exchange-regularization WignerSeitzTruncated
fluid None
fluid-ex-corr (null) lda-PZ
fluid-gummel-loop 10 1.000000e-05
fluid-minimize  \
	dirUpdateScheme      PolakRibiere \
	linminMethod         DirUpdateRecommended \
	nIterations          100 \
	history              15 \
	knormThreshold       0 \
	energyDiffThreshold  0 \
	nEnergyDiff          2 \
	alphaTstart          1 \
	alphaTmin            1e-10 \
	updateTestStepSize   yes \
	alphaTreduceFactor   0.1 \
	alphaTincreaseFactor 3 \
	nAlphaAdjustMax      3 \
	wolfeEnergy          0.0001 \
	wolfeGradient        0.9 \
	fdTest               no
fluid-solvent H2O 55.338 ScalarEOS \
	epsBulk 78.4 \
	pMol 0.92466 \
	epsInf 1.77 \
	Pvap 1.06736e-10 \
	sigmaBulk 4.62e-05 \
	Rvdw 2.61727 \
	Res 1.42 \
	tauNuc 343133 \
	poleEl 15 7 1
forces-output-coords Positions
ion Rb   0.000000000000000   0.000000000000000   0.000000000000000 0
ion-species SG15/$ID_ONCV_PBE.upf
ion-width 0
ionic-minimize  \
	dirUpdateScheme      L-BFGS \
	linminMethod         DirUpdateRecommended \
	nIterations          0 \
	history              15 \
	knormThreshold       0.0001 \
	energyDiffThreshold  1e-06 \
	nEnergyDiff          2 \
	alphaTstart          1 \
	alphaTmin            1e-10 \
	updateTestStepSize   yes \
	alphaTreduceFactor   0.1 \
	alphaTincreaseFactor 3 \
	nAlphaAdjustMax      3 \
	wolfeEnergy          0.0001 \
	wolfeGradient        0.9 \
	fdTest               no
kpoint   0.000000000000   0.000000000000   0.000000000000  1.00000000000000
kpoint-folding 12 12 1 
latt-move-scale 1 1 1
latt-scale 4 4 1 
lattice  \
	   4.727486978767153   -2.363743489383575    0.000000000000000  \
	  -0.000000000000000    4.094123819672498    0.000000000000000  \
	   0.000000000000000    0.000000000000000   40.000000000000000 
lattice-minimize  \
	dirUpdateScheme      L-BFGS \
	linminMethod         DirUpdateRecommended \
	nIterations          0 \
	history              15 \
	knormThreshold       0 \
	energyDiffThreshold  1e-06 \
	nEnergyDiff          2 \
	alphaTstart          1 \
	alphaTmin            1e-10 \
	updateTestStepSize   yes \
	alphaTreduceFactor   0.1 \
	alphaTincreaseFactor 3 \
	nAlphaAdjustMax      3 \
	wolfeEnergy          0.0001 \
	wolfeGradient        0.9 \
	fdTest               no
lcao-params -1 1e-06 1e-05
pcm-variant GLSSA13
spintype z-spin
subspace-rotation-factor 1 yes
symmetries automatic
symmetry-threshold 0.0001



---------- Setting up symmetries ----------

Found 24 point-group symmetries of the bravais lattice
Found 24 space-group symmetries with basis
Applied RMS atom displacement 0 bohrs to make symmetries exact.

---------- Initializing the Grid ----------
R = 
[      18.9099     -9.45497            0  ]
[            0      16.3765            0  ]
[            0            0           40  ]
unit cell volume = 12387.1
G =
[   0.332269   0.191835         -0  ]
[          0   0.383671         -0  ]
[         -0         -0    0.15708  ]
Minimum fftbox size, Smin = [  80  80  164  ]
Chosen fftbox size, S = [  80  80  168  ]

---------- Exchange Correlation functional ----------
Initalized PBE GGA exchange.
Initalized PBE GGA correlation.

---------- Setting up pseudopotentials ----------
Width of ionic core gaussian charges (only for fluid interactions / plotting) set to 0

Reading pseudopotential file '/home/gridsan/aligho/DFT/build-Nov24/pseudopotentials/SG15/Rb_ONCV_PBE.upf':
  'Rb' pseudopotential, 'PBE' functional
  Generated using ONCVPSP code by D. R. Hamann
  Author: Martin Schlipf and Francois Gygi  Date: 150915.
  9 valence electrons, 3 orbitals, 6 projectors, 2308 radial grid points, with lMax = 2
  Transforming local potential to a uniform radial grid of dG=0.02 with 1489 points.
  Transforming nonlocal projectors to a uniform radial grid of dG=0.02 with 432 points.
    4S    l: 0   occupation:  2.0   eigenvalue: -1.172069
    4P    l: 1   occupation:  6.0   eigenvalue: -0.586674
    5S    l: 0   occupation:  1.0   eigenvalue: -0.082006
  Transforming atomic orbitals to a uniform radial grid of dG=0.02 with 432 points.
  Core radius for overlap checks: 2.60 bohrs.
  Reading pulay file /home/gridsan/aligho/DFT/build-Nov24/pseudopotentials/SG15/Rb_ONCV_PBE.pulay ... using dE_dnG = -1.360715e-05 computed for Ecut = 20.

Initialized 1 species with 1 total atoms.

Folded 1 k-points by 12x12x1 to 144 k-points.

---------- Setting up k-points, bands, fillings ----------
Reduced to 19 k-points under symmetry. 
Computing the number of bands and number of electrons
Calculating initial fillings.
nElectrons:   9.000000   nBands: 6   nStates: 38

----- Setting up reduced wavefunction bases (one per k-point) -----
average nbasis = 52924.021 , ideal nbasis = 52918.836

---------- Setting up coulomb interaction ----------
Initialized slab truncation along lattice direction 001

---------- Setting up 2D ewald sum ----------
Optimum gaussian width for ewald sums = 10.498040 bohr.
Real space sums over 289 unit cells with max indices [  8  8  0  ]
Reciprocal space sums over 81 terms with max indices [  4  4  0  ]

---------- Allocating electronic variables ----------
Initializing wave functions:  linear combination of atomic orbitals
Note: number of bands (6) exceeds available atomic orbitals (5)
Rb pseudo-atom occupations:   s ( 2 1 )  p ( 6 )
	FillingsUpdate:  mu: -0.082633395  nElectrons: 9.000000  magneticMoment: [ Abs: 0.20000  Tot: -0.20000 ]
LCAOMinimize: Iter:   0  F: -24.4306981052566776  |grad|_K:  5.202e-06  alpha:  1.000e+00
	FillingsUpdate:  mu: -0.082632244  nElectrons: 9.000000  magneticMoment: [ Abs: 0.20000  Tot: -0.20000 ]
LCAOMinimize: Iter:   1  F: -24.4306981235218394  |grad|_K:  2.510e-08  alpha:  9.869e-01  linmin: -8.652e-03  cgtest:  2.987e-01  t[s]:     15.41
LCAOMinimize: Encountered beta<0, resetting CG.
	FillingsUpdate:  mu: -0.082632243  nElectrons: 9.000000  magneticMoment: [ Abs: 0.20000  Tot: -0.20000 ]
LCAOMinimize: Iter:   2  F: -24.4306981235222977  |grad|_K:  8.973e-09  alpha:  1.358e+00  linmin:  1.823e-02  cgtest: -1.000e+00  t[s]:     19.55
LCAOMinimize: Converged (|Delta F|<1.000000e-06 for 2 iters).


---- Citations for features of the code used in this run ----

   Software package:
      R. Sundararaman, K. Letchworth-Weaver, K.A. Schwarz, D. Gunceler, Y. Ozhabes and T.A. Arias, 'JDFTx: software for joint density-functional theory', SoftwareX 6, 278 (2017)

   gga-PBE exchange-correlation functional:
      J.P. Perdew, K. Burke and M. Ernzerhof, Phys. Rev. Lett. 77, 3865 (1996)

   Pseudopotentials:
      M Schlipf and F Gygi, Comput. Phys. Commun. 196, 36 (2015)

   Truncated Coulomb potentials:
      R. Sundararaman and T.A. Arias, Phys. Rev. B 87, 165122 (2013)

This list may not be complete. Please suggest additional citations or
report any other bugs at https://github.com/shankar1729/jdftx/issues

Initialization completed successfully at t[s]:     19.82


-------- Electronic minimization -----------
Will mix electronic density at each iteration.
	FillingsUpdate:  mu: -0.082632243  nElectrons: 9.000000  magneticMoment: [ Abs: 0.20000  Tot: -0.20000 ]
	FillingsUpdate:  mu: -0.082729287  nElectrons: 9.000000  magneticMoment: [ Abs: 0.20000  Tot: -0.20000 ]
SCF: Cycle:  0   F: -24.430814883310198   dF: -1.168e-04   |Residual|: 7.679e-04   |deigs|: 1.755e-01  t[s]:     28.21
	FillingsUpdate:  mu: -0.082769052  nElectrons: 9.000000  magneticMoment: [ Abs: 0.20090  Tot: -0.20000 ]
SCF: Cycle:  1   F: -24.430816874018156   dF: -1.991e-06   |Residual|: 5.136e-04   |deigs|: 4.286e-03  t[s]:     34.85
	FillingsUpdate:  mu: -0.082820673  nElectrons: 9.000000  magneticMoment: [ Abs: 0.20094  Tot: -0.20000 ]
SCF: Cycle:  2   F: -24.430817520075671   dF: -6.461e-07   |Residual|: 4.089e-04   |deigs|: 1.636e-03  t[s]:     41.51
	FillingsUpdate:  mu: -0.082918432  nElectrons: 9.000000  magneticMoment: [ Abs: 0.20148  Tot: -0.20000 ]
SCF: Cycle:  3   F: -24.430818181438923   dF: -6.614e-07   |Residual|: 2.807e-04   |deigs|: 6.103e-04  t[s]:     48.29
	FillingsUpdate:  mu: -0.083015757  nElectrons: 9.000000  magneticMoment: [ Abs: 0.20123  Tot: -0.20000 ]
SCF: Cycle:  4   F: -24.430818922387566   dF: -7.409e-07   |Residual|: 1.823e-04   |deigs|: 7.826e-04  t[s]:     55.23
	FillingsUpdate:  mu: -0.083070335  nElectrons: 9.000000  magneticMoment: [ Abs: 0.20142  Tot: -0.20000 ]
SCF: Cycle:  5   F: -24.430819345472294   dF: -4.231e-07   |Residual|: 1.249e-04   |deigs|: 8.346e-04  t[s]:     62.32
	FillingsUpdate:  mu: -0.083071582  nElectrons: 9.000000  magneticMoment: [ Abs: 0.20135  Tot: -0.20000 ]
SCF: Cycle:  6   F: -24.430819611703992   dF: -2.662e-07   |Residual|: 7.936e-05   |deigs|: 5.845e-04  t[s]:     69.47
	FillingsUpdate:  mu: -0.083064045  nElectrons: 9.000000  magneticMoment: [ Abs: 0.20127  Tot: -0.20000 ]
SCF: Cycle:  7   F: -24.430819750211750   dF: -1.385e-07   |Residual|: 5.860e-05   |deigs|: 5.470e-04  t[s]:     76.70
	FillingsUpdate:  mu: -0.083046528  nElectrons: 9.000000  magneticMoment: [ Abs: 0.20123  Tot: -0.20000 ]
SCF: Cycle:  8   F: -24.430819823471822   dF: -7.326e-08   |Residual|: 4.438e-05   |deigs|: 1.932e-04  t[s]:     84.08
	FillingsUpdate:  mu: -0.083019861  nElectrons: 9.000000  magneticMoment: [ Abs: 0.20114  Tot: -0.20000 ]
SCF: Cycle:  9   F: -24.430819850482415   dF: -2.701e-08   |Residual|: 3.252e-05   |deigs|: 1.277e-04  t[s]:     91.66
	FillingsUpdate:  mu: -0.083001600  nElectrons: 9.000000  magneticMoment: [ Abs: 0.20118  Tot: -0.20000 ]
SCF: Cycle: 10   F: -24.430819853309263   dF: -2.827e-09   |Residual|: 2.991e-05   |deigs|: 1.491e-04  t[s]:     99.32
	FillingsUpdate:  mu: -0.082979092  nElectrons: 9.000000  magneticMoment: [ Abs: 0.20127  Tot: -0.20000 ]
SCF: Cycle: 11   F: -24.430819832555727   dF: +2.075e-08   |Residual|: 2.670e-05   |deigs|: 9.751e-05  t[s]:    106.97
	FillingsUpdate:  mu: -0.082948031  nElectrons: 9.000000  magneticMoment: [ Abs: 0.20125  Tot: -0.20000 ]
SCF: Cycle: 12   F: -24.430819794866359   dF: +3.769e-08   |Residual|: 2.460e-05   |deigs|: 5.876e-05  t[s]:    114.61
	FillingsUpdate:  mu: -0.082923326  nElectrons: 9.000000  magneticMoment: [ Abs: 0.20121  Tot: -0.20000 ]
SCF: Cycle: 13   F: -24.430819809541433   dF: -1.468e-08   |Residual|: 2.158e-05   |deigs|: 4.361e-05  t[s]:    122.29
	FillingsUpdate:  mu: -0.082896735  nElectrons: 9.000000  magneticMoment: [ Abs: 0.20123  Tot: -0.20000 ]
SCF: Cycle: 14   F: -24.430819772182545   dF: +3.736e-08   |Residual|: 2.039e-05   |deigs|: 6.796e-05  t[s]:    129.90
	FillingsUpdate:  mu: -0.082878595  nElectrons: 9.000000  magneticMoment: [ Abs: 0.20119  Tot: -0.20000 ]
SCF: Cycle: 15   F: -24.430819820134268   dF: -4.795e-08   |Residual|: 1.815e-05   |deigs|: 1.009e-04  t[s]:    137.53
	FillingsUpdate:  mu: -0.082851468  nElectrons: 9.000000  magneticMoment: [ Abs: 0.20119  Tot: -0.20000 ]
SCF: Cycle: 16   F: -24.430819824836664   dF: -4.702e-09   |Residual|: 1.604e-05   |deigs|: 1.057e-04  t[s]:    145.15
	FillingsUpdate:  mu: -0.082827770  nElectrons: 9.000000  magneticMoment: [ Abs: 0.20118  Tot: -0.20000 ]
SCF: Cycle: 17   F: -24.430819790712228   dF: +3.412e-08   |Residual|: 1.409e-05   |deigs|: 7.531e-05  t[s]:    152.76
	FillingsUpdate:  mu: -0.082824015  nElectrons: 9.000000  magneticMoment: [ Abs: 0.20114  Tot: -0.20000 ]
SCF: Cycle: 18   F: -24.430819850604344   dF: -5.989e-08   |Residual|: 1.149e-05   |deigs|: 4.400e-05  t[s]:    159.81
	FillingsUpdate:  mu: -0.082820624  nElectrons: 9.000000  magneticMoment: [ Abs: 0.20115  Tot: -0.20000 ]
SCF: Cycle: 19   F: -24.430819860165016   dF: -9.561e-09   |Residual|: 8.906e-06   |deigs|: 2.331e-05  t[s]:    166.79
	FillingsUpdate:  mu: -0.082814084  nElectrons: 9.000000  magneticMoment: [ Abs: 0.20116  Tot: -0.20000 ]
SCF: Cycle: 20   F: -24.430819886110562   dF: -2.595e-08   |Residual|: 6.206e-06   |deigs|: 1.406e-05  t[s]:    174.43
	FillingsUpdate:  mu: -0.082812256  nElectrons: 9.000000  magneticMoment: [ Abs: 0.20115  Tot: -0.20000 ]
SCF: Cycle: 21   F: -24.430819900406757   dF: -1.430e-08   |Residual|: 4.653e-06   |deigs|: 6.763e-06  t[s]:    181.32
	FillingsUpdate:  mu: -0.082811227  nElectrons: 9.000000  magneticMoment: [ Abs: 0.20115  Tot: -0.20000 ]
SCF: Cycle: 22   F: -24.430819898335734   dF: +2.071e-09   |Residual|: 3.578e-06   |deigs|: 3.990e-06  t[s]:    188.36
	FillingsUpdate:  mu: -0.082810287  nElectrons: 9.000000  magneticMoment: [ Abs: 0.20115  Tot: -0.20000 ]
SCF: Cycle: 23   F: -24.430819905038849   dF: -6.703e-09   |Residual|: 2.330e-06   |deigs|: 4.182e-06  t[s]:    195.77
	FillingsUpdate:  mu: -0.082810370  nElectrons: 9.000000  magneticMoment: [ Abs: 0.20114  Tot: -0.20000 ]
SCF: Cycle: 24   F: -24.430819906427161   dF: -1.388e-09   |Residual|: 1.546e-06   |deigs|: 5.570e-06  t[s]:    202.79
SCF: Converged (|Delta E|<1.000000e-08 for 2 iters).


# Ionic positions in lattice coordinates:
ion Rb   0.000000000000000   0.000000000000000   0.000000000000000 0

# Forces in Lattice coordinates:
force Rb   0.000000000000000   0.000000000000000   0.000000000000000 0

# Energy components:
   Eewald =       -9.0240130501663280
       EH =       10.5174335239384291
     Eloc =      -28.4412047351297907
      Enl =       -0.7932055684895474
   Epulay =        0.0000000056959385
      Exc =       -3.6476390285666023
       KE =        6.9578094577509697
-------------------------------------
     Etot =      -24.4308193949669317
       TS =        0.0000005114602277
-------------------------------------
        F =      -24.4308199064271605

IonicMinimize: Iter:   0  F: -24.430819906427161  |grad|_K:  0.000e+00  t[s]:    203.20
IonicMinimize: Converged (|grad|_K<1.000000e-04).

#--- Lowdin population analysis ---
# oxidation-state Rb +0.002
# magnetic-moments Rb -0.200

End date and time: Sun Feb  6 12:47:40 2022  (Duration: 0-0:03:23.27)
Done!
