
*************** JDFTx 1.6.0 (git hash 42ebbcc2) ***************

Start date and time: Sun Feb  6 12:55:58 2022
Executable jdftx with command-line: -i Alkali.in
Running on hosts (process indices):  d-3-4-3 (0-18)
Divided in process groups (process indices):  0 (0)  1 (1)  2 (2)  3 (3)  4 (4)  5 (5)  6 (6)  7 (7)  8 (8)  9 (9)  10 (10)  11 (11)  12 (12)  13 (13)  14 (14)  15 (15)  16 (16)  17 (17)  18 (18)
Resource initialization completed at t[s]:      0.00
Run totals: 19 processes, 48 threads, 0 GPUs


Input parsed successfully to the following command list (including defaults):

basis kpoint-dependent
coords-type Lattice
core-overlap-check vector
coulomb-interaction Slab 001
davidson-band-ratio 1.1
dump End None
dump-name $INPUT.$VAR
elec-cutoff 20
elec-eigen-algo Davidson
elec-ex-corr gga-PBE
elec-initial-magnetization 0.480000 yes
elec-smearing Fermi 1e-05
electronic-minimize  \
	dirUpdateScheme      FletcherReeves \
	linminMethod         DirUpdateRecommended \
	nIterations          100 \
	history              15 \
	knormThreshold       0 \
	energyDiffThreshold  1e-08 \
	nEnergyDiff          2 \
	alphaTstart          1 \
	alphaTmin            1e-10 \
	updateTestStepSize   yes \
	alphaTreduceFactor   0.1 \
	alphaTincreaseFactor 3 \
	nAlphaAdjustMax      3 \
	wolfeEnergy          0.0001 \
	wolfeGradient        0.9 \
	fdTest               no
electronic-scf  \
	nIterations	10000 \
	energyDiffThreshold	1e-08 \
	residualThreshold	1e-07 \
	mixFraction	0.5 \
	qMetric	0.8 \
	history	10 \
	nEigSteps	2 \
	eigDiffThreshold	1e-08 \
	mixedVariable	Density \
	qKerker	0.8 \
	qKappa	-1 \
	verbose	no \
	mixFractionMag	1.5
exchange-regularization WignerSeitzTruncated
fluid None
fluid-ex-corr (null) lda-PZ
fluid-gummel-loop 10 1.000000e-05
fluid-minimize  \
	dirUpdateScheme      PolakRibiere \
	linminMethod         DirUpdateRecommended \
	nIterations          100 \
	history              15 \
	knormThreshold       0 \
	energyDiffThreshold  0 \
	nEnergyDiff          2 \
	alphaTstart          1 \
	alphaTmin            1e-10 \
	updateTestStepSize   yes \
	alphaTreduceFactor   0.1 \
	alphaTincreaseFactor 3 \
	nAlphaAdjustMax      3 \
	wolfeEnergy          0.0001 \
	wolfeGradient        0.9 \
	fdTest               no
fluid-solvent H2O 55.338 ScalarEOS \
	epsBulk 78.4 \
	pMol 0.92466 \
	epsInf 1.77 \
	Pvap 1.06736e-10 \
	sigmaBulk 4.62e-05 \
	Rvdw 2.61727 \
	Res 1.42 \
	tauNuc 343133 \
	poleEl 15 7 1
forces-output-coords Positions
ion Rb   0.000000000000000   0.000000000000000   0.000000000000000 0
ion-species SG15/$ID_ONCV_PBE.upf
ion-width 0
ionic-minimize  \
	dirUpdateScheme      L-BFGS \
	linminMethod         DirUpdateRecommended \
	nIterations          0 \
	history              15 \
	knormThreshold       0.0001 \
	energyDiffThreshold  1e-06 \
	nEnergyDiff          2 \
	alphaTstart          1 \
	alphaTmin            1e-10 \
	updateTestStepSize   yes \
	alphaTreduceFactor   0.1 \
	alphaTincreaseFactor 3 \
	nAlphaAdjustMax      3 \
	wolfeEnergy          0.0001 \
	wolfeGradient        0.9 \
	fdTest               no
kpoint   0.000000000000   0.000000000000   0.000000000000  1.00000000000000
kpoint-folding 12 12 1 
latt-move-scale 1 1 1
latt-scale 4 4 1 
lattice  \
	   4.727486978767153   -2.363743489383575    0.000000000000000  \
	  -0.000000000000000    4.094123819672498    0.000000000000000  \
	   0.000000000000000    0.000000000000000   40.000000000000000 
lattice-minimize  \
	dirUpdateScheme      L-BFGS \
	linminMethod         DirUpdateRecommended \
	nIterations          0 \
	history              15 \
	knormThreshold       0 \
	energyDiffThreshold  1e-06 \
	nEnergyDiff          2 \
	alphaTstart          1 \
	alphaTmin            1e-10 \
	updateTestStepSize   yes \
	alphaTreduceFactor   0.1 \
	alphaTincreaseFactor 3 \
	nAlphaAdjustMax      3 \
	wolfeEnergy          0.0001 \
	wolfeGradient        0.9 \
	fdTest               no
lcao-params -1 1e-06 1e-05
pcm-variant GLSSA13
spintype z-spin
subspace-rotation-factor 1 yes
symmetries automatic
symmetry-threshold 0.0001



---------- Setting up symmetries ----------

Found 24 point-group symmetries of the bravais lattice
Found 24 space-group symmetries with basis
Applied RMS atom displacement 0 bohrs to make symmetries exact.

---------- Initializing the Grid ----------
R = 
[      18.9099     -9.45497            0  ]
[            0      16.3765            0  ]
[            0            0           40  ]
unit cell volume = 12387.1
G =
[   0.332269   0.191835         -0  ]
[          0   0.383671         -0  ]
[         -0         -0    0.15708  ]
Minimum fftbox size, Smin = [  80  80  164  ]
Chosen fftbox size, S = [  80  80  168  ]

---------- Exchange Correlation functional ----------
Initalized PBE GGA exchange.
Initalized PBE GGA correlation.

---------- Setting up pseudopotentials ----------
Width of ionic core gaussian charges (only for fluid interactions / plotting) set to 0

Reading pseudopotential file '/home/gridsan/aligho/DFT/build-Nov24/pseudopotentials/SG15/Rb_ONCV_PBE.upf':
  'Rb' pseudopotential, 'PBE' functional
  Generated using ONCVPSP code by D. R. Hamann
  Author: Martin Schlipf and Francois Gygi  Date: 150915.
  9 valence electrons, 3 orbitals, 6 projectors, 2308 radial grid points, with lMax = 2
  Transforming local potential to a uniform radial grid of dG=0.02 with 1489 points.
  Transforming nonlocal projectors to a uniform radial grid of dG=0.02 with 432 points.
    4S    l: 0   occupation:  2.0   eigenvalue: -1.172069
    4P    l: 1   occupation:  6.0   eigenvalue: -0.586674
    5S    l: 0   occupation:  1.0   eigenvalue: -0.082006
  Transforming atomic orbitals to a uniform radial grid of dG=0.02 with 432 points.
  Core radius for overlap checks: 2.60 bohrs.
  Reading pulay file /home/gridsan/aligho/DFT/build-Nov24/pseudopotentials/SG15/Rb_ONCV_PBE.pulay ... using dE_dnG = -1.360715e-05 computed for Ecut = 20.

Initialized 1 species with 1 total atoms.

Folded 1 k-points by 12x12x1 to 144 k-points.

---------- Setting up k-points, bands, fillings ----------
Reduced to 19 k-points under symmetry. 
Computing the number of bands and number of electrons
Calculating initial fillings.
nElectrons:   9.000000   nBands: 6   nStates: 38

----- Setting up reduced wavefunction bases (one per k-point) -----
average nbasis = 52924.021 , ideal nbasis = 52918.836

---------- Setting up coulomb interaction ----------
Initialized slab truncation along lattice direction 001

---------- Setting up 2D ewald sum ----------
Optimum gaussian width for ewald sums = 10.498040 bohr.
Real space sums over 289 unit cells with max indices [  8  8  0  ]
Reciprocal space sums over 81 terms with max indices [  4  4  0  ]

---------- Allocating electronic variables ----------
Initializing wave functions:  linear combination of atomic orbitals
Note: number of bands (6) exceeds available atomic orbitals (5)
Rb pseudo-atom occupations:   s ( 2 1 )  p ( 6 )
	FillingsUpdate:  mu: -0.082562330  nElectrons: 9.000000  magneticMoment: [ Abs: 0.48000  Tot: +0.48000 ]
LCAOMinimize: Iter:   0  F: -24.4313138422739620  |grad|_K:  4.245e-06  alpha:  1.000e+00
	FillingsUpdate:  mu: -0.082561400  nElectrons: 9.000000  magneticMoment: [ Abs: 0.48000  Tot: +0.48000 ]
LCAOMinimize: Iter:   1  F: -24.4313138544575565  |grad|_K:  2.212e-08  alpha:  9.884e-01  linmin: -7.373e-04  cgtest:  2.007e-01  t[s]:     14.92
LCAOMinimize: Encountered beta<0, resetting CG.
	FillingsUpdate:  mu: -0.082561400  nElectrons: 9.000000  magneticMoment: [ Abs: 0.48000  Tot: +0.48000 ]
LCAOMinimize: Iter:   2  F: -24.4313138544577590  |grad|_K:  5.035e-09  alpha:  1.227e+00  linmin:  3.146e-03  cgtest: -9.999e-01  t[s]:     18.89
LCAOMinimize: Converged (|Delta F|<1.000000e-06 for 2 iters).


---- Citations for features of the code used in this run ----

   Software package:
      R. Sundararaman, K. Letchworth-Weaver, K.A. Schwarz, D. Gunceler, Y. Ozhabes and T.A. Arias, 'JDFTx: software for joint density-functional theory', SoftwareX 6, 278 (2017)

   gga-PBE exchange-correlation functional:
      J.P. Perdew, K. Burke and M. Ernzerhof, Phys. Rev. Lett. 77, 3865 (1996)

   Pseudopotentials:
      M Schlipf and F Gygi, Comput. Phys. Commun. 196, 36 (2015)

   Truncated Coulomb potentials:
      R. Sundararaman and T.A. Arias, Phys. Rev. B 87, 165122 (2013)

This list may not be complete. Please suggest additional citations or
report any other bugs at https://github.com/shankar1729/jdftx/issues

Initialization completed successfully at t[s]:     19.15


-------- Electronic minimization -----------
Will mix electronic density at each iteration.
	FillingsUpdate:  mu: -0.082561400  nElectrons: 9.000000  magneticMoment: [ Abs: 0.48000  Tot: +0.48000 ]
	FillingsUpdate:  mu: -0.082662087  nElectrons: 9.000000  magneticMoment: [ Abs: 0.48000  Tot: +0.48000 ]
SCF: Cycle:  0   F: -24.431416643331570   dF: -1.028e-04   |Residual|: 1.158e-03   |deigs|: 1.742e-01  t[s]:     27.32
	FillingsUpdate:  mu: -0.082678914  nElectrons: 9.000000  magneticMoment: [ Abs: 0.48226  Tot: +0.48000 ]
SCF: Cycle:  1   F: -24.431418402532117   dF: -1.759e-06   |Residual|: 3.978e-04   |deigs|: 5.478e-03  t[s]:     33.70
	FillingsUpdate:  mu: -0.082695281  nElectrons: 9.000000  magneticMoment: [ Abs: 0.48240  Tot: +0.48000 ]
SCF: Cycle:  2   F: -24.431418890928285   dF: -4.884e-07   |Residual|: 2.794e-04   |deigs|: 1.547e-03  t[s]:     40.19
	FillingsUpdate:  mu: -0.082716571  nElectrons: 9.000000  magneticMoment: [ Abs: 0.48291  Tot: +0.48000 ]
SCF: Cycle:  3   F: -24.431419177246170   dF: -2.863e-07   |Residual|: 2.151e-04   |deigs|: 5.443e-04  t[s]:     46.81
	FillingsUpdate:  mu: -0.082738899  nElectrons: 9.000000  magneticMoment: [ Abs: 0.48280  Tot: +0.48000 ]
SCF: Cycle:  4   F: -24.431419571395946   dF: -3.941e-07   |Residual|: 1.556e-04   |deigs|: 4.549e-04  t[s]:     53.52
	FillingsUpdate:  mu: -0.082768259  nElectrons: 9.000000  magneticMoment: [ Abs: 0.48291  Tot: +0.48000 ]
SCF: Cycle:  5   F: -24.431419845486257   dF: -2.741e-07   |Residual|: 1.036e-04   |deigs|: 2.419e-04  t[s]:     60.32
	FillingsUpdate:  mu: -0.082772017  nElectrons: 9.000000  magneticMoment: [ Abs: 0.48290  Tot: +0.48000 ]
SCF: Cycle:  6   F: -24.431420025826018   dF: -1.803e-07   |Residual|: 6.884e-05   |deigs|: 4.838e-04  t[s]:     67.30
	FillingsUpdate:  mu: -0.082770526  nElectrons: 9.000000  magneticMoment: [ Abs: 0.48289  Tot: +0.48000 ]
SCF: Cycle:  7   F: -24.431420124922905   dF: -9.910e-08   |Residual|: 5.092e-05   |deigs|: 5.915e-04  t[s]:     74.32
	FillingsUpdate:  mu: -0.082756291  nElectrons: 9.000000  magneticMoment: [ Abs: 0.48287  Tot: +0.48000 ]
SCF: Cycle:  8   F: -24.431420178093767   dF: -5.317e-08   |Residual|: 4.058e-05   |deigs|: 7.638e-04  t[s]:     81.47
	FillingsUpdate:  mu: -0.082726527  nElectrons: 9.000000  magneticMoment: [ Abs: 0.48281  Tot: +0.48000 ]
SCF: Cycle:  9   F: -24.431420213019464   dF: -3.493e-08   |Residual|: 3.112e-05   |deigs|: 1.417e-04  t[s]:     88.75
	FillingsUpdate:  mu: -0.082702843  nElectrons: 9.000000  magneticMoment: [ Abs: 0.48282  Tot: +0.48000 ]
SCF: Cycle: 10   F: -24.431420205408024   dF: +7.611e-09   |Residual|: 2.875e-05   |deigs|: 7.717e-05  t[s]:     96.13
	FillingsUpdate:  mu: -0.082674301  nElectrons: 9.000000  magneticMoment: [ Abs: 0.48297  Tot: +0.48000 ]
SCF: Cycle: 11   F: -24.431420177152205   dF: +2.826e-08   |Residual|: 2.755e-05   |deigs|: 1.088e-04  t[s]:    103.55
	FillingsUpdate:  mu: -0.082640434  nElectrons: 9.000000  magneticMoment: [ Abs: 0.48301  Tot: +0.48000 ]
SCF: Cycle: 12   F: -24.431420006218712   dF: +1.709e-07   |Residual|: 2.431e-05   |deigs|: 1.516e-04  t[s]:    110.91
	FillingsUpdate:  mu: -0.082607576  nElectrons: 9.000000  magneticMoment: [ Abs: 0.48298  Tot: +0.48000 ]
SCF: Cycle: 13   F: -24.431420089588372   dF: -8.337e-08   |Residual|: 2.271e-05   |deigs|: 1.523e-04  t[s]:    118.22
	FillingsUpdate:  mu: -0.082585553  nElectrons: 9.000000  magneticMoment: [ Abs: 0.48301  Tot: +0.48000 ]
SCF: Cycle: 14   F: -24.431420191683529   dF: -1.021e-07   |Residual|: 1.902e-05   |deigs|: 1.063e-04  t[s]:    125.50
	FillingsUpdate:  mu: -0.082560428  nElectrons: 9.000000  magneticMoment: [ Abs: 0.48300  Tot: +0.48000 ]
SCF: Cycle: 15   F: -24.431420135769791   dF: +5.591e-08   |Residual|: 1.796e-05   |deigs|: 5.628e-05  t[s]:    132.41
	FillingsUpdate:  mu: -0.082533200  nElectrons: 9.000000  magneticMoment: [ Abs: 0.48291  Tot: +0.48000 ]
SCF: Cycle: 16   F: -24.431420166571911   dF: -3.080e-08   |Residual|: 1.622e-05   |deigs|: 3.990e-05  t[s]:    139.78
	FillingsUpdate:  mu: -0.082524523  nElectrons: 9.000000  magneticMoment: [ Abs: 0.48287  Tot: +0.48000 ]
SCF: Cycle: 17   F: -24.431420170655940   dF: -4.084e-09   |Residual|: 1.295e-05   |deigs|: 2.028e-05  t[s]:    147.15
	FillingsUpdate:  mu: -0.082518076  nElectrons: 9.000000  magneticMoment: [ Abs: 0.48283  Tot: +0.48000 ]
SCF: Cycle: 18   F: -24.431420221970928   dF: -5.131e-08   |Residual|: 9.616e-06   |deigs|: 1.172e-05  t[s]:    154.51
	FillingsUpdate:  mu: -0.082510457  nElectrons: 9.000000  magneticMoment: [ Abs: 0.48280  Tot: +0.48000 ]
SCF: Cycle: 19   F: -24.431420226696350   dF: -4.725e-09   |Residual|: 7.524e-06   |deigs|: 8.983e-06  t[s]:    161.20
	FillingsUpdate:  mu: -0.082507343  nElectrons: 9.000000  magneticMoment: [ Abs: 0.48282  Tot: +0.48000 ]
SCF: Cycle: 20   F: -24.431420268085457   dF: -4.139e-08   |Residual|: 5.277e-06   |deigs|: 7.639e-06  t[s]:    168.61
	FillingsUpdate:  mu: -0.082507671  nElectrons: 9.000000  magneticMoment: [ Abs: 0.48281  Tot: +0.48000 ]
SCF: Cycle: 21   F: -24.431420273672732   dF: -5.587e-09   |Residual|: 3.918e-06   |deigs|: 1.227e-05  t[s]:    175.41
	FillingsUpdate:  mu: -0.082507690  nElectrons: 9.000000  magneticMoment: [ Abs: 0.48281  Tot: +0.48000 ]
SCF: Cycle: 22   F: -24.431420273632558   dF: +4.017e-11   |Residual|: 2.825e-06   |deigs|: 1.761e-05  t[s]:    182.64
	FillingsUpdate:  mu: -0.082508193  nElectrons: 9.000000  magneticMoment: [ Abs: 0.48281  Tot: +0.48000 ]
SCF: Cycle: 23   F: -24.431420278785303   dF: -5.153e-09   |Residual|: 1.783e-06   |deigs|: 2.553e-05  t[s]:    189.67
	FillingsUpdate:  mu: -0.082508491  nElectrons: 9.000000  magneticMoment: [ Abs: 0.48281  Tot: +0.48000 ]
SCF: Cycle: 24   F: -24.431420279205888   dF: -4.206e-10   |Residual|: 1.413e-06   |deigs|: 3.041e-05  t[s]:    196.37
SCF: Converged (|Delta E|<1.000000e-08 for 2 iters).


# Ionic positions in lattice coordinates:
ion Rb   0.000000000000000   0.000000000000000   0.000000000000000 0

# Forces in Lattice coordinates:
force Rb  -0.000000000000000   0.000000000000000   0.000000000000000 0

# Energy components:
   Eewald =       -9.0240130501663280
       EH =       10.5273183510440926
     Eloc =      -28.4518451398924483
      Enl =       -0.7928808047522620
   Epulay =        0.0000000056959385
      Exc =       -3.6494840977083389
       KE =        6.9594857872811922
-------------------------------------
     Etot =      -24.4314189484981554
       TS =        0.0000013307077314
-------------------------------------
        F =      -24.4314202792058879

IonicMinimize: Iter:   0  F: -24.431420279205888  |grad|_K:  0.000e+00  t[s]:    196.78
IonicMinimize: Converged (|grad|_K<1.000000e-04).

#--- Lowdin population analysis ---
# oxidation-state Rb +0.002
# magnetic-moments Rb +0.479

End date and time: Sun Feb  6 12:59:15 2022  (Duration: 0-0:03:16.85)
Done!
