
*************** JDFTx 1.6.0 (git hash 42ebbcc2) ***************

Start date and time: Sun Feb  6 12:57:15 2022
Executable jdftx with command-line: -i Alkali.in
Running on hosts (process indices):  d-6-10-3 (0-18)
Divided in process groups (process indices):  0 (0)  1 (1)  2 (2)  3 (3)  4 (4)  5 (5)  6 (6)  7 (7)  8 (8)  9 (9)  10 (10)  11 (11)  12 (12)  13 (13)  14 (14)  15 (15)  16 (16)  17 (17)  18 (18)
Resource initialization completed at t[s]:      0.00
Run totals: 19 processes, 48 threads, 0 GPUs


Input parsed successfully to the following command list (including defaults):

basis kpoint-dependent
coords-type Lattice
core-overlap-check vector
coulomb-interaction Slab 001
davidson-band-ratio 1.1
dump End None
dump-name $INPUT.$VAR
elec-cutoff 20
elec-eigen-algo Davidson
elec-ex-corr gga-PBE
elec-initial-magnetization 0.660000 yes
elec-smearing Fermi 1e-05
electronic-minimize  \
	dirUpdateScheme      FletcherReeves \
	linminMethod         DirUpdateRecommended \
	nIterations          100 \
	history              15 \
	knormThreshold       0 \
	energyDiffThreshold  1e-08 \
	nEnergyDiff          2 \
	alphaTstart          1 \
	alphaTmin            1e-10 \
	updateTestStepSize   yes \
	alphaTreduceFactor   0.1 \
	alphaTincreaseFactor 3 \
	nAlphaAdjustMax      3 \
	wolfeEnergy          0.0001 \
	wolfeGradient        0.9 \
	fdTest               no
electronic-scf  \
	nIterations	10000 \
	energyDiffThreshold	1e-08 \
	residualThreshold	1e-07 \
	mixFraction	0.5 \
	qMetric	0.8 \
	history	10 \
	nEigSteps	2 \
	eigDiffThreshold	1e-08 \
	mixedVariable	Density \
	qKerker	0.8 \
	qKappa	-1 \
	verbose	no \
	mixFractionMag	1.5
exchange-regularization WignerSeitzTruncated
fluid None
fluid-ex-corr (null) lda-PZ
fluid-gummel-loop 10 1.000000e-05
fluid-minimize  \
	dirUpdateScheme      PolakRibiere \
	linminMethod         DirUpdateRecommended \
	nIterations          100 \
	history              15 \
	knormThreshold       0 \
	energyDiffThreshold  0 \
	nEnergyDiff          2 \
	alphaTstart          1 \
	alphaTmin            1e-10 \
	updateTestStepSize   yes \
	alphaTreduceFactor   0.1 \
	alphaTincreaseFactor 3 \
	nAlphaAdjustMax      3 \
	wolfeEnergy          0.0001 \
	wolfeGradient        0.9 \
	fdTest               no
fluid-solvent H2O 55.338 ScalarEOS \
	epsBulk 78.4 \
	pMol 0.92466 \
	epsInf 1.77 \
	Pvap 1.06736e-10 \
	sigmaBulk 4.62e-05 \
	Rvdw 2.61727 \
	Res 1.42 \
	tauNuc 343133 \
	poleEl 15 7 1
forces-output-coords Positions
ion Rb   0.000000000000000   0.000000000000000   0.000000000000000 0
ion-species SG15/$ID_ONCV_PBE.upf
ion-width 0
ionic-minimize  \
	dirUpdateScheme      L-BFGS \
	linminMethod         DirUpdateRecommended \
	nIterations          0 \
	history              15 \
	knormThreshold       0.0001 \
	energyDiffThreshold  1e-06 \
	nEnergyDiff          2 \
	alphaTstart          1 \
	alphaTmin            1e-10 \
	updateTestStepSize   yes \
	alphaTreduceFactor   0.1 \
	alphaTincreaseFactor 3 \
	nAlphaAdjustMax      3 \
	wolfeEnergy          0.0001 \
	wolfeGradient        0.9 \
	fdTest               no
kpoint   0.000000000000   0.000000000000   0.000000000000  1.00000000000000
kpoint-folding 12 12 1 
latt-move-scale 1 1 1
latt-scale 4 4 1 
lattice  \
	   4.727486978767153   -2.363743489383575    0.000000000000000  \
	  -0.000000000000000    4.094123819672498    0.000000000000000  \
	   0.000000000000000    0.000000000000000   40.000000000000000 
lattice-minimize  \
	dirUpdateScheme      L-BFGS \
	linminMethod         DirUpdateRecommended \
	nIterations          0 \
	history              15 \
	knormThreshold       0 \
	energyDiffThreshold  1e-06 \
	nEnergyDiff          2 \
	alphaTstart          1 \
	alphaTmin            1e-10 \
	updateTestStepSize   yes \
	alphaTreduceFactor   0.1 \
	alphaTincreaseFactor 3 \
	nAlphaAdjustMax      3 \
	wolfeEnergy          0.0001 \
	wolfeGradient        0.9 \
	fdTest               no
lcao-params -1 1e-06 1e-05
pcm-variant GLSSA13
spintype z-spin
subspace-rotation-factor 1 yes
symmetries automatic
symmetry-threshold 0.0001



---------- Setting up symmetries ----------

Found 24 point-group symmetries of the bravais lattice
Found 24 space-group symmetries with basis
Applied RMS atom displacement 0 bohrs to make symmetries exact.

---------- Initializing the Grid ----------
R = 
[      18.9099     -9.45497            0  ]
[            0      16.3765            0  ]
[            0            0           40  ]
unit cell volume = 12387.1
G =
[   0.332269   0.191835         -0  ]
[          0   0.383671         -0  ]
[         -0         -0    0.15708  ]
Minimum fftbox size, Smin = [  80  80  164  ]
Chosen fftbox size, S = [  80  80  168  ]

---------- Exchange Correlation functional ----------
Initalized PBE GGA exchange.
Initalized PBE GGA correlation.

---------- Setting up pseudopotentials ----------
Width of ionic core gaussian charges (only for fluid interactions / plotting) set to 0

Reading pseudopotential file '/home/gridsan/aligho/DFT/build-Nov24/pseudopotentials/SG15/Rb_ONCV_PBE.upf':
  'Rb' pseudopotential, 'PBE' functional
  Generated using ONCVPSP code by D. R. Hamann
  Author: Martin Schlipf and Francois Gygi  Date: 150915.
  9 valence electrons, 3 orbitals, 6 projectors, 2308 radial grid points, with lMax = 2
  Transforming local potential to a uniform radial grid of dG=0.02 with 1489 points.
  Transforming nonlocal projectors to a uniform radial grid of dG=0.02 with 432 points.
    4S    l: 0   occupation:  2.0   eigenvalue: -1.172069
    4P    l: 1   occupation:  6.0   eigenvalue: -0.586674
    5S    l: 0   occupation:  1.0   eigenvalue: -0.082006
  Transforming atomic orbitals to a uniform radial grid of dG=0.02 with 432 points.
  Core radius for overlap checks: 2.60 bohrs.
  Reading pulay file /home/gridsan/aligho/DFT/build-Nov24/pseudopotentials/SG15/Rb_ONCV_PBE.pulay ... using dE_dnG = -1.360715e-05 computed for Ecut = 20.

Initialized 1 species with 1 total atoms.

Folded 1 k-points by 12x12x1 to 144 k-points.

---------- Setting up k-points, bands, fillings ----------
Reduced to 19 k-points under symmetry. 
Computing the number of bands and number of electrons
Calculating initial fillings.
nElectrons:   9.000000   nBands: 6   nStates: 38

----- Setting up reduced wavefunction bases (one per k-point) -----
average nbasis = 52924.021 , ideal nbasis = 52918.836

---------- Setting up coulomb interaction ----------
Initialized slab truncation along lattice direction 001

---------- Setting up 2D ewald sum ----------
Optimum gaussian width for ewald sums = 10.498040 bohr.
Real space sums over 289 unit cells with max indices [  8  8  0  ]
Reciprocal space sums over 81 terms with max indices [  4  4  0  ]

---------- Allocating electronic variables ----------
Initializing wave functions:  linear combination of atomic orbitals
Note: number of bands (6) exceeds available atomic orbitals (5)
Rb pseudo-atom occupations:   s ( 2 1 )  p ( 6 )
	FillingsUpdate:  mu: -0.082762446  nElectrons: 9.000000  magneticMoment: [ Abs: 0.66000  Tot: +0.66000 ]
LCAOMinimize: Iter:   0  F: -24.4319807815340297  |grad|_K:  3.143e-06  alpha:  1.000e+00
	FillingsUpdate:  mu: -0.082761750  nElectrons: 9.000000  magneticMoment: [ Abs: 0.66000  Tot: +0.66000 ]
LCAOMinimize: Iter:   1  F: -24.4319807882218036  |grad|_K:  1.652e-08  alpha:  9.896e-01  linmin: -1.095e-03  cgtest:  1.254e-01  t[s]:     15.05
LCAOMinimize: Encountered beta<0, resetting CG.
LCAOMinimize: 	Wrong curvature in test step, increasing alphaT to 2.968857e+00.
	FillingsUpdate:  mu: -0.082761750  nElectrons: 9.000000  magneticMoment: [ Abs: 0.66000  Tot: +0.66000 ]
LCAOMinimize: Iter:   2  F: -24.4319807882223188  |grad|_K:  1.668e-10  alpha: -1.255e+00  linmin: -8.367e-03  cgtest:  9.109e-01  t[s]:     19.03
LCAOMinimize: Encountered beta<0, resetting CG.
LCAOMinimize: Converged (|Delta F|<1.000000e-06 for 2 iters).


---- Citations for features of the code used in this run ----

   Software package:
      R. Sundararaman, K. Letchworth-Weaver, K.A. Schwarz, D. Gunceler, Y. Ozhabes and T.A. Arias, 'JDFTx: software for joint density-functional theory', SoftwareX 6, 278 (2017)

   gga-PBE exchange-correlation functional:
      J.P. Perdew, K. Burke and M. Ernzerhof, Phys. Rev. Lett. 77, 3865 (1996)

   Pseudopotentials:
      M Schlipf and F Gygi, Comput. Phys. Commun. 196, 36 (2015)

   Truncated Coulomb potentials:
      R. Sundararaman and T.A. Arias, Phys. Rev. B 87, 165122 (2013)

This list may not be complete. Please suggest additional citations or
report any other bugs at https://github.com/shankar1729/jdftx/issues

Initialization completed successfully at t[s]:     19.29


-------- Electronic minimization -----------
Will mix electronic density at each iteration.
	FillingsUpdate:  mu: -0.082761750  nElectrons: 9.000000  magneticMoment: [ Abs: 0.66000  Tot: +0.66000 ]
	FillingsUpdate:  mu: -0.082862449  nElectrons: 9.000000  magneticMoment: [ Abs: 0.66000  Tot: +0.66000 ]
SCF: Cycle:  0   F: -24.432085127141807   dF: -1.043e-04   |Residual|: 1.508e-03   |deigs|: 1.717e-01  t[s]:     27.47
	FillingsUpdate:  mu: -0.082863635  nElectrons: 9.000000  magneticMoment: [ Abs: 0.66338  Tot: +0.66000 ]
SCF: Cycle:  1   F: -24.432087168009080   dF: -2.041e-06   |Residual|: 3.779e-04   |deigs|: 7.938e-03  t[s]:     33.91
	FillingsUpdate:  mu: -0.082852274  nElectrons: 9.000000  magneticMoment: [ Abs: 0.66347  Tot: +0.66000 ]
SCF: Cycle:  2   F: -24.432087666031734   dF: -4.980e-07   |Residual|: 2.178e-04   |deigs|: 1.538e-03  t[s]:     40.44
	FillingsUpdate:  mu: -0.082846096  nElectrons: 9.000000  magneticMoment: [ Abs: 0.66401  Tot: +0.66000 ]
SCF: Cycle:  3   F: -24.432087950764114   dF: -2.847e-07   |Residual|: 1.607e-04   |deigs|: 5.563e-04  t[s]:     47.13
	FillingsUpdate:  mu: -0.082818980  nElectrons: 9.000000  magneticMoment: [ Abs: 0.66396  Tot: +0.66000 ]
SCF: Cycle:  4   F: -24.432088202825547   dF: -2.521e-07   |Residual|: 1.225e-04   |deigs|: 3.474e-04  t[s]:     53.88
	FillingsUpdate:  mu: -0.082787706  nElectrons: 9.000000  magneticMoment: [ Abs: 0.66401  Tot: +0.66000 ]
SCF: Cycle:  5   F: -24.432088351997120   dF: -1.492e-07   |Residual|: 8.885e-05   |deigs|: 4.535e-04  t[s]:     60.71
	FillingsUpdate:  mu: -0.082747908  nElectrons: 9.000000  magneticMoment: [ Abs: 0.66394  Tot: +0.66000 ]
SCF: Cycle:  6   F: -24.432088438009941   dF: -8.601e-08   |Residual|: 6.429e-05   |deigs|: 4.885e-04  t[s]:     67.75
	FillingsUpdate:  mu: -0.082722211  nElectrons: 9.000000  magneticMoment: [ Abs: 0.66396  Tot: +0.66000 ]
SCF: Cycle:  7   F: -24.432088497712854   dF: -5.970e-08   |Residual|: 5.250e-05   |deigs|: 4.438e-04  t[s]:     74.84
	FillingsUpdate:  mu: -0.082704268  nElectrons: 9.000000  magneticMoment: [ Abs: 0.66396  Tot: +0.66000 ]
SCF: Cycle:  8   F: -24.432088538220945   dF: -4.051e-08   |Residual|: 4.477e-05   |deigs|: 2.932e-04  t[s]:     82.18
	FillingsUpdate:  mu: -0.082679141  nElectrons: 9.000000  magneticMoment: [ Abs: 0.66395  Tot: +0.66000 ]
SCF: Cycle:  9   F: -24.432088574063126   dF: -3.584e-08   |Residual|: 3.414e-05   |deigs|: 1.793e-04  t[s]:     89.53
	FillingsUpdate:  mu: -0.082662212  nElectrons: 9.000000  magneticMoment: [ Abs: 0.66398  Tot: +0.66000 ]
SCF: Cycle: 10   F: -24.432088552416570   dF: +2.165e-08   |Residual|: 2.943e-05   |deigs|: 1.535e-04  t[s]:     97.07
	FillingsUpdate:  mu: -0.082639899  nElectrons: 9.000000  magneticMoment: [ Abs: 0.66405  Tot: +0.66000 ]
SCF: Cycle: 11   F: -24.432088471717567   dF: +8.070e-08   |Residual|: 2.789e-05   |deigs|: 1.652e-04  t[s]:    104.51
	FillingsUpdate:  mu: -0.082626091  nElectrons: 9.000000  magneticMoment: [ Abs: 0.66409  Tot: +0.66000 ]
SCF: Cycle: 12   F: -24.432088422273530   dF: +4.944e-08   |Residual|: 2.597e-05   |deigs|: 1.371e-04  t[s]:    111.89
	FillingsUpdate:  mu: -0.082585261  nElectrons: 9.000000  magneticMoment: [ Abs: 0.66416  Tot: +0.66000 ]
SCF: Cycle: 13   F: -24.432088385201638   dF: +3.707e-08   |Residual|: 2.562e-05   |deigs|: 9.192e-05  t[s]:    119.29
	FillingsUpdate:  mu: -0.082548251  nElectrons: 9.000000  magneticMoment: [ Abs: 0.66422  Tot: +0.66000 ]
SCF: Cycle: 14   F: -24.432088533281167   dF: -1.481e-07   |Residual|: 2.050e-05   |deigs|: 5.231e-05  t[s]:    126.67
	FillingsUpdate:  mu: -0.082495434  nElectrons: 9.000000  magneticMoment: [ Abs: 0.66420  Tot: +0.66000 ]
SCF: Cycle: 15   F: -24.432088367529136   dF: +1.658e-07   |Residual|: 1.990e-05   |deigs|: 6.382e-05  t[s]:    134.04
	FillingsUpdate:  mu: -0.082471575  nElectrons: 9.000000  magneticMoment: [ Abs: 0.66409  Tot: +0.66000 ]
SCF: Cycle: 16   F: -24.432088544815116   dF: -1.773e-07   |Residual|: 1.566e-05   |deigs|: 3.785e-05  t[s]:    141.23
	FillingsUpdate:  mu: -0.082468290  nElectrons: 9.000000  magneticMoment: [ Abs: 0.66404  Tot: +0.66000 ]
SCF: Cycle: 17   F: -24.432088530283867   dF: +1.453e-08   |Residual|: 1.266e-05   |deigs|: 4.297e-05  t[s]:    148.40
	FillingsUpdate:  mu: -0.082464318  nElectrons: 9.000000  magneticMoment: [ Abs: 0.66401  Tot: +0.66000 ]
SCF: Cycle: 18   F: -24.432088631461415   dF: -1.012e-07   |Residual|: 7.714e-06   |deigs|: 4.782e-05  t[s]:    155.84
	FillingsUpdate:  mu: -0.082459187  nElectrons: 9.000000  magneticMoment: [ Abs: 0.66397  Tot: +0.66000 ]
SCF: Cycle: 19   F: -24.432088605120605   dF: +2.634e-08   |Residual|: 6.097e-06   |deigs|: 4.812e-05  t[s]:    162.65
	FillingsUpdate:  mu: -0.082459522  nElectrons: 9.000000  magneticMoment: [ Abs: 0.66396  Tot: +0.66000 ]
SCF: Cycle: 20   F: -24.432088650457960   dF: -4.534e-08   |Residual|: 4.637e-06   |deigs|: 4.182e-05  t[s]:    169.88
	FillingsUpdate:  mu: -0.082464079  nElectrons: 9.000000  magneticMoment: [ Abs: 0.66396  Tot: +0.66000 ]
SCF: Cycle: 21   F: -24.432088647141196   dF: +3.317e-09   |Residual|: 3.709e-06   |deigs|: 3.383e-05  t[s]:    176.60
	FillingsUpdate:  mu: -0.082465914  nElectrons: 9.000000  magneticMoment: [ Abs: 0.66396  Tot: +0.66000 ]
SCF: Cycle: 22   F: -24.432088653336738   dF: -6.196e-09   |Residual|: 2.974e-06   |deigs|: 2.340e-05  t[s]:    183.98
	FillingsUpdate:  mu: -0.082465140  nElectrons: 9.000000  magneticMoment: [ Abs: 0.66396  Tot: +0.66000 ]
SCF: Cycle: 23   F: -24.432088648982880   dF: +4.354e-09   |Residual|: 2.350e-06   |deigs|: 1.789e-05  t[s]:    191.13
	FillingsUpdate:  mu: -0.082463815  nElectrons: 9.000000  magneticMoment: [ Abs: 0.66396  Tot: +0.66000 ]
SCF: Cycle: 24   F: -24.432088652915933   dF: -3.933e-09   |Residual|: 1.429e-06   |deigs|: 1.712e-05  t[s]:    198.27
	FillingsUpdate:  mu: -0.082462816  nElectrons: 9.000000  magneticMoment: [ Abs: 0.66396  Tot: +0.66000 ]
SCF: Cycle: 25   F: -24.432088652403724   dF: +5.122e-10   |Residual|: 9.860e-07   |deigs|: 1.977e-05  t[s]:    205.15
	FillingsUpdate:  mu: -0.082462721  nElectrons: 9.000000  magneticMoment: [ Abs: 0.66396  Tot: +0.66000 ]
SCF: Cycle: 26   F: -24.432088654045600   dF: -1.642e-09   |Residual|: 5.650e-07   |deigs|: 2.406e-05  t[s]:    212.03
	FillingsUpdate:  mu: -0.082463039  nElectrons: 9.000000  magneticMoment: [ Abs: 0.66396  Tot: +0.66000 ]
SCF: Cycle: 27   F: -24.432088654104753   dF: -5.915e-11   |Residual|: 3.903e-07   |deigs|: 2.726e-05  t[s]:    218.83
SCF: Converged (|Delta E|<1.000000e-08 for 2 iters).


# Ionic positions in lattice coordinates:
ion Rb   0.000000000000000   0.000000000000000   0.000000000000000 0

# Forces in Lattice coordinates:
force Rb   0.000000000000000   0.000000000000000   0.000000000000000 0

# Energy components:
   Eewald =       -9.0240130501663280
       EH =       10.5368296889906770
     Eloc =      -28.4620788749376494
      Enl =       -0.7925684096197245
   Epulay =        0.0000000056959385
      Exc =       -3.6513809458566260
       KE =        6.9611242787099972
-------------------------------------
     Etot =      -24.4320873071837141
       TS =        0.0000013469210395
-------------------------------------
        F =      -24.4320886541047528

IonicMinimize: Iter:   0  F: -24.432088654104753  |grad|_K:  0.000e+00  t[s]:    219.24
IonicMinimize: Converged (|grad|_K<1.000000e-04).

#--- Lowdin population analysis ---
# oxidation-state Rb +0.001
# magnetic-moments Rb +0.659

End date and time: Sun Feb  6 13:00:55 2022  (Duration: 0-0:03:39.31)
Done!
