
*************** JDFTx 1.6.0 (git hash 42ebbcc2) ***************

Start date and time: Sun Feb  6 12:54:32 2022
Executable jdftx with command-line: -i Alkali.in
Running on hosts (process indices):  d-4-3-3 (0-18)
Divided in process groups (process indices):  0 (0)  1 (1)  2 (2)  3 (3)  4 (4)  5 (5)  6 (6)  7 (7)  8 (8)  9 (9)  10 (10)  11 (11)  12 (12)  13 (13)  14 (14)  15 (15)  16 (16)  17 (17)  18 (18)
Resource initialization completed at t[s]:      0.00
Run totals: 19 processes, 48 threads, 0 GPUs


Input parsed successfully to the following command list (including defaults):

basis kpoint-dependent
coords-type Lattice
core-overlap-check vector
coulomb-interaction Slab 001
davidson-band-ratio 1.1
dump End None
dump-name $INPUT.$VAR
elec-cutoff 20
elec-eigen-algo Davidson
elec-ex-corr gga-PBE
elec-initial-magnetization 0.400000 yes
elec-smearing Fermi 1e-05
electronic-minimize  \
	dirUpdateScheme      FletcherReeves \
	linminMethod         DirUpdateRecommended \
	nIterations          100 \
	history              15 \
	knormThreshold       0 \
	energyDiffThreshold  1e-08 \
	nEnergyDiff          2 \
	alphaTstart          1 \
	alphaTmin            1e-10 \
	updateTestStepSize   yes \
	alphaTreduceFactor   0.1 \
	alphaTincreaseFactor 3 \
	nAlphaAdjustMax      3 \
	wolfeEnergy          0.0001 \
	wolfeGradient        0.9 \
	fdTest               no
electronic-scf  \
	nIterations	10000 \
	energyDiffThreshold	1e-08 \
	residualThreshold	1e-07 \
	mixFraction	0.5 \
	qMetric	0.8 \
	history	10 \
	nEigSteps	2 \
	eigDiffThreshold	1e-08 \
	mixedVariable	Density \
	qKerker	0.8 \
	qKappa	-1 \
	verbose	no \
	mixFractionMag	1.5
exchange-regularization WignerSeitzTruncated
fluid None
fluid-ex-corr (null) lda-PZ
fluid-gummel-loop 10 1.000000e-05
fluid-minimize  \
	dirUpdateScheme      PolakRibiere \
	linminMethod         DirUpdateRecommended \
	nIterations          100 \
	history              15 \
	knormThreshold       0 \
	energyDiffThreshold  0 \
	nEnergyDiff          2 \
	alphaTstart          1 \
	alphaTmin            1e-10 \
	updateTestStepSize   yes \
	alphaTreduceFactor   0.1 \
	alphaTincreaseFactor 3 \
	nAlphaAdjustMax      3 \
	wolfeEnergy          0.0001 \
	wolfeGradient        0.9 \
	fdTest               no
fluid-solvent H2O 55.338 ScalarEOS \
	epsBulk 78.4 \
	pMol 0.92466 \
	epsInf 1.77 \
	Pvap 1.06736e-10 \
	sigmaBulk 4.62e-05 \
	Rvdw 2.61727 \
	Res 1.42 \
	tauNuc 343133 \
	poleEl 15 7 1
forces-output-coords Positions
ion Rb   0.000000000000000   0.000000000000000   0.000000000000000 0
ion-species SG15/$ID_ONCV_PBE.upf
ion-width 0
ionic-minimize  \
	dirUpdateScheme      L-BFGS \
	linminMethod         DirUpdateRecommended \
	nIterations          0 \
	history              15 \
	knormThreshold       0.0001 \
	energyDiffThreshold  1e-06 \
	nEnergyDiff          2 \
	alphaTstart          1 \
	alphaTmin            1e-10 \
	updateTestStepSize   yes \
	alphaTreduceFactor   0.1 \
	alphaTincreaseFactor 3 \
	nAlphaAdjustMax      3 \
	wolfeEnergy          0.0001 \
	wolfeGradient        0.9 \
	fdTest               no
kpoint   0.000000000000   0.000000000000   0.000000000000  1.00000000000000
kpoint-folding 12 12 1 
latt-move-scale 1 1 1
latt-scale 4 4 1 
lattice  \
	   4.727486978767153   -2.363743489383575    0.000000000000000  \
	  -0.000000000000000    4.094123819672498    0.000000000000000  \
	   0.000000000000000    0.000000000000000   40.000000000000000 
lattice-minimize  \
	dirUpdateScheme      L-BFGS \
	linminMethod         DirUpdateRecommended \
	nIterations          0 \
	history              15 \
	knormThreshold       0 \
	energyDiffThreshold  1e-06 \
	nEnergyDiff          2 \
	alphaTstart          1 \
	alphaTmin            1e-10 \
	updateTestStepSize   yes \
	alphaTreduceFactor   0.1 \
	alphaTincreaseFactor 3 \
	nAlphaAdjustMax      3 \
	wolfeEnergy          0.0001 \
	wolfeGradient        0.9 \
	fdTest               no
lcao-params -1 1e-06 1e-05
pcm-variant GLSSA13
spintype z-spin
subspace-rotation-factor 1 yes
symmetries automatic
symmetry-threshold 0.0001



---------- Setting up symmetries ----------

Found 24 point-group symmetries of the bravais lattice
Found 24 space-group symmetries with basis
Applied RMS atom displacement 0 bohrs to make symmetries exact.

---------- Initializing the Grid ----------
R = 
[      18.9099     -9.45497            0  ]
[            0      16.3765            0  ]
[            0            0           40  ]
unit cell volume = 12387.1
G =
[   0.332269   0.191835         -0  ]
[          0   0.383671         -0  ]
[         -0         -0    0.15708  ]
Minimum fftbox size, Smin = [  80  80  164  ]
Chosen fftbox size, S = [  80  80  168  ]

---------- Exchange Correlation functional ----------
Initalized PBE GGA exchange.
Initalized PBE GGA correlation.

---------- Setting up pseudopotentials ----------
Width of ionic core gaussian charges (only for fluid interactions / plotting) set to 0

Reading pseudopotential file '/home/gridsan/aligho/DFT/build-Nov24/pseudopotentials/SG15/Rb_ONCV_PBE.upf':
  'Rb' pseudopotential, 'PBE' functional
  Generated using ONCVPSP code by D. R. Hamann
  Author: Martin Schlipf and Francois Gygi  Date: 150915.
  9 valence electrons, 3 orbitals, 6 projectors, 2308 radial grid points, with lMax = 2
  Transforming local potential to a uniform radial grid of dG=0.02 with 1489 points.
  Transforming nonlocal projectors to a uniform radial grid of dG=0.02 with 432 points.
    4S    l: 0   occupation:  2.0   eigenvalue: -1.172069
    4P    l: 1   occupation:  6.0   eigenvalue: -0.586674
    5S    l: 0   occupation:  1.0   eigenvalue: -0.082006
  Transforming atomic orbitals to a uniform radial grid of dG=0.02 with 432 points.
  Core radius for overlap checks: 2.60 bohrs.
  Reading pulay file /home/gridsan/aligho/DFT/build-Nov24/pseudopotentials/SG15/Rb_ONCV_PBE.pulay ... using dE_dnG = -1.360715e-05 computed for Ecut = 20.

Initialized 1 species with 1 total atoms.

Folded 1 k-points by 12x12x1 to 144 k-points.

---------- Setting up k-points, bands, fillings ----------
Reduced to 19 k-points under symmetry. 
Computing the number of bands and number of electrons
Calculating initial fillings.
nElectrons:   9.000000   nBands: 6   nStates: 38

----- Setting up reduced wavefunction bases (one per k-point) -----
average nbasis = 52924.021 , ideal nbasis = 52918.836

---------- Setting up coulomb interaction ----------
Initialized slab truncation along lattice direction 001

---------- Setting up 2D ewald sum ----------
Optimum gaussian width for ewald sums = 10.498040 bohr.
Real space sums over 289 unit cells with max indices [  8  8  0  ]
Reciprocal space sums over 81 terms with max indices [  4  4  0  ]

---------- Allocating electronic variables ----------
Initializing wave functions:  linear combination of atomic orbitals
Note: number of bands (6) exceeds available atomic orbitals (5)
Rb pseudo-atom occupations:   s ( 2 1 )  p ( 6 )
	FillingsUpdate:  mu: -0.082564638  nElectrons: 9.000000  magneticMoment: [ Abs: 0.40000  Tot: +0.40000 ]
LCAOMinimize: Iter:   0  F: -24.4310767396614885  |grad|_K:  4.606e-06  alpha:  1.000e+00
	FillingsUpdate:  mu: -0.082563634  nElectrons: 9.000000  magneticMoment: [ Abs: 0.40000  Tot: +0.40000 ]
LCAOMinimize: Iter:   1  F: -24.4310767539993066  |grad|_K:  2.431e-08  alpha:  9.880e-01  linmin: -1.050e-03  cgtest:  2.280e-01  t[s]:     15.29
LCAOMinimize: Encountered beta<0, resetting CG.
	FillingsUpdate:  mu: -0.082563633  nElectrons: 9.000000  magneticMoment: [ Abs: 0.40000  Tot: +0.40000 ]
LCAOMinimize: Iter:   2  F: -24.4310767539996831  |grad|_K:  8.226e-09  alpha:  1.338e+00  linmin:  3.758e-03  cgtest: -1.000e+00  t[s]:     19.36
LCAOMinimize: Converged (|Delta F|<1.000000e-06 for 2 iters).


---- Citations for features of the code used in this run ----

   Software package:
      R. Sundararaman, K. Letchworth-Weaver, K.A. Schwarz, D. Gunceler, Y. Ozhabes and T.A. Arias, 'JDFTx: software for joint density-functional theory', SoftwareX 6, 278 (2017)

   gga-PBE exchange-correlation functional:
      J.P. Perdew, K. Burke and M. Ernzerhof, Phys. Rev. Lett. 77, 3865 (1996)

   Pseudopotentials:
      M Schlipf and F Gygi, Comput. Phys. Commun. 196, 36 (2015)

   Truncated Coulomb potentials:
      R. Sundararaman and T.A. Arias, Phys. Rev. B 87, 165122 (2013)

This list may not be complete. Please suggest additional citations or
report any other bugs at https://github.com/shankar1729/jdftx/issues

Initialization completed successfully at t[s]:     19.63


-------- Electronic minimization -----------
Will mix electronic density at each iteration.
	FillingsUpdate:  mu: -0.082563633  nElectrons: 9.000000  magneticMoment: [ Abs: 0.40000  Tot: +0.40000 ]
	FillingsUpdate:  mu: -0.082662247  nElectrons: 9.000000  magneticMoment: [ Abs: 0.40000  Tot: +0.40000 ]
SCF: Cycle:  0   F: -24.431182597270450   dF: -1.058e-04   |Residual|: 1.023e-03   |deigs|: 1.748e-01  t[s]:     27.93
	FillingsUpdate:  mu: -0.082686496  nElectrons: 9.000000  magneticMoment: [ Abs: 0.40183  Tot: +0.40000 ]
SCF: Cycle:  1   F: -24.431184344004670   dF: -1.747e-06   |Residual|: 4.285e-04   |deigs|: 4.860e-03  t[s]:     34.46
	FillingsUpdate:  mu: -0.082712677  nElectrons: 9.000000  magneticMoment: [ Abs: 0.40196  Tot: +0.40000 ]
SCF: Cycle:  2   F: -24.431184862963072   dF: -5.190e-07   |Residual|: 3.239e-04   |deigs|: 1.495e-03  t[s]:     41.12
	FillingsUpdate:  mu: -0.082749744  nElectrons: 9.000000  magneticMoment: [ Abs: 0.40248  Tot: +0.40000 ]
SCF: Cycle:  3   F: -24.431185198410724   dF: -3.354e-07   |Residual|: 2.471e-04   |deigs|: 7.080e-04  t[s]:     47.83
	FillingsUpdate:  mu: -0.082799373  nElectrons: 9.000000  magneticMoment: [ Abs: 0.40234  Tot: +0.40000 ]
SCF: Cycle:  4   F: -24.431185699427218   dF: -5.010e-07   |Residual|: 1.698e-04   |deigs|: 5.195e-04  t[s]:     54.70
	FillingsUpdate:  mu: -0.082848705  nElectrons: 9.000000  magneticMoment: [ Abs: 0.40252  Tot: +0.40000 ]
SCF: Cycle:  5   F: -24.431186041215540   dF: -3.418e-07   |Residual|: 1.102e-04   |deigs|: 3.911e-04  t[s]:     61.73
	FillingsUpdate:  mu: -0.082855489  nElectrons: 9.000000  magneticMoment: [ Abs: 0.40251  Tot: +0.40000 ]
SCF: Cycle:  6   F: -24.431186236191451   dF: -1.950e-07   |Residual|: 7.287e-05   |deigs|: 6.945e-04  t[s]:     68.83
	FillingsUpdate:  mu: -0.082854516  nElectrons: 9.000000  magneticMoment: [ Abs: 0.40246  Tot: +0.40000 ]
SCF: Cycle:  7   F: -24.431186353901818   dF: -1.177e-07   |Residual|: 5.299e-05   |deigs|: 5.619e-04  t[s]:     76.02
	FillingsUpdate:  mu: -0.082839913  nElectrons: 9.000000  magneticMoment: [ Abs: 0.40241  Tot: +0.40000 ]
SCF: Cycle:  8   F: -24.431186415989771   dF: -6.209e-08   |Residual|: 4.150e-05   |deigs|: 5.064e-04  t[s]:     83.31
	FillingsUpdate:  mu: -0.082811089  nElectrons: 9.000000  magneticMoment: [ Abs: 0.40232  Tot: +0.40000 ]
SCF: Cycle:  9   F: -24.431186451089129   dF: -3.510e-08   |Residual|: 3.167e-05   |deigs|: 1.918e-04  t[s]:     90.76
	FillingsUpdate:  mu: -0.082787930  nElectrons: 9.000000  magneticMoment: [ Abs: 0.40234  Tot: +0.40000 ]
SCF: Cycle: 10   F: -24.431186446552708   dF: +4.536e-09   |Residual|: 2.912e-05   |deigs|: 1.900e-04  t[s]:     98.39
	FillingsUpdate:  mu: -0.082763464  nElectrons: 9.000000  magneticMoment: [ Abs: 0.40247  Tot: +0.40000 ]
SCF: Cycle: 11   F: -24.431186413623941   dF: +3.293e-08   |Residual|: 2.716e-05   |deigs|: 1.512e-04  t[s]:    105.91
	FillingsUpdate:  mu: -0.082730493  nElectrons: 9.000000  magneticMoment: [ Abs: 0.40249  Tot: +0.40000 ]
SCF: Cycle: 12   F: -24.431186303735537   dF: +1.099e-07   |Residual|: 2.412e-05   |deigs|: 1.269e-04  t[s]:    113.47
	FillingsUpdate:  mu: -0.082698473  nElectrons: 9.000000  magneticMoment: [ Abs: 0.40245  Tot: +0.40000 ]
SCF: Cycle: 13   F: -24.431186360411676   dF: -5.668e-08   |Residual|: 2.198e-05   |deigs|: 8.920e-05  t[s]:    120.90
	FillingsUpdate:  mu: -0.082676035  nElectrons: 9.000000  magneticMoment: [ Abs: 0.40247  Tot: +0.40000 ]
SCF: Cycle: 14   F: -24.431186376392240   dF: -1.598e-08   |Residual|: 1.984e-05   |deigs|: 4.966e-05  t[s]:    128.38
	FillingsUpdate:  mu: -0.082656253  nElectrons: 9.000000  magneticMoment: [ Abs: 0.40245  Tot: +0.40000 ]
SCF: Cycle: 15   F: -24.431186410021233   dF: -3.363e-08   |Residual|: 1.738e-05   |deigs|: 2.986e-05  t[s]:    135.91
	FillingsUpdate:  mu: -0.082631092  nElectrons: 9.000000  magneticMoment: [ Abs: 0.40242  Tot: +0.40000 ]
SCF: Cycle: 16   F: -24.431186426451099   dF: -1.643e-08   |Residual|: 1.678e-05   |deigs|: 2.826e-05  t[s]:    143.45
	FillingsUpdate:  mu: -0.082614646  nElectrons: 9.000000  magneticMoment: [ Abs: 0.40237  Tot: +0.40000 ]
SCF: Cycle: 17   F: -24.431186371278187   dF: +5.517e-08   |Residual|: 1.399e-05   |deigs|: 1.805e-05  t[s]:    151.08
	FillingsUpdate:  mu: -0.082608348  nElectrons: 9.000000  magneticMoment: [ Abs: 0.40233  Tot: +0.40000 ]
SCF: Cycle: 18   F: -24.431186450809260   dF: -7.953e-08   |Residual|: 1.094e-05   |deigs|: 7.976e-06  t[s]:    158.31
	FillingsUpdate:  mu: -0.082602948  nElectrons: 9.000000  magneticMoment: [ Abs: 0.40231  Tot: +0.40000 ]
SCF: Cycle: 19   F: -24.431186478995759   dF: -2.819e-08   |Residual|: 8.207e-06   |deigs|: 7.051e-06  t[s]:    165.16
	FillingsUpdate:  mu: -0.082597256  nElectrons: 9.000000  magneticMoment: [ Abs: 0.40234  Tot: +0.40000 ]
SCF: Cycle: 20   F: -24.431186492703556   dF: -1.371e-08   |Residual|: 5.497e-06   |deigs|: 7.621e-06  t[s]:    172.73
	FillingsUpdate:  mu: -0.082596373  nElectrons: 9.000000  magneticMoment: [ Abs: 0.40233  Tot: +0.40000 ]
SCF: Cycle: 21   F: -24.431186509543004   dF: -1.684e-08   |Residual|: 3.832e-06   |deigs|: 7.297e-06  t[s]:    180.14
	FillingsUpdate:  mu: -0.082596105  nElectrons: 9.000000  magneticMoment: [ Abs: 0.40232  Tot: +0.40000 ]
SCF: Cycle: 22   F: -24.431186512012285   dF: -2.469e-09   |Residual|: 2.678e-06   |deigs|: 1.050e-05  t[s]:    187.05
	FillingsUpdate:  mu: -0.082596286  nElectrons: 9.000000  magneticMoment: [ Abs: 0.40232  Tot: +0.40000 ]
SCF: Cycle: 23   F: -24.431186514292033   dF: -2.280e-09   |Residual|: 1.831e-06   |deigs|: 1.408e-05  t[s]:    194.37
SCF: Converged (|Delta E|<1.000000e-08 for 2 iters).


# Ionic positions in lattice coordinates:
ion Rb   0.000000000000000   0.000000000000000   0.000000000000000 0

# Forces in Lattice coordinates:
force Rb  -0.000000000000000   0.000000000000000   0.000000000000000 0

# Energy components:
   Eewald =       -9.0240130501663280
       EH =       10.5239476818821558
     Eloc =      -28.4482175625065530
      Enl =       -0.7929891811753494
   Epulay =        0.0000000056959385
      Exc =       -3.6488281076035296
       KE =        6.9589148673154702
-------------------------------------
     Etot =      -24.4311853465581947
       TS =        0.0000011677338380
-------------------------------------
        F =      -24.4311865142920333

IonicMinimize: Iter:   0  F: -24.431186514292033  |grad|_K:  0.000e+00  t[s]:    194.79
IonicMinimize: Converged (|grad|_K<1.000000e-04).

#--- Lowdin population analysis ---
# oxidation-state Rb +0.002
# magnetic-moments Rb +0.399

End date and time: Sun Feb  6 12:57:47 2022  (Duration: 0-0:03:14.86)
Done!
