
*************** JDFTx 1.6.0 (git hash 42ebbcc2) ***************

Start date and time: Sun Feb  6 12:50:50 2022
Executable jdftx with command-line: -i Alkali.in
Running on hosts (process indices):  d-4-7-2 (0-18)
Divided in process groups (process indices):  0 (0)  1 (1)  2 (2)  3 (3)  4 (4)  5 (5)  6 (6)  7 (7)  8 (8)  9 (9)  10 (10)  11 (11)  12 (12)  13 (13)  14 (14)  15 (15)  16 (16)  17 (17)  18 (18)
Resource initialization completed at t[s]:      0.00
Run totals: 19 processes, 48 threads, 0 GPUs


Input parsed successfully to the following command list (including defaults):

basis kpoint-dependent
coords-type Lattice
core-overlap-check vector
coulomb-interaction Slab 001
davidson-band-ratio 1.1
dump End None
dump-name $INPUT.$VAR
elec-cutoff 20
elec-eigen-algo Davidson
elec-ex-corr gga-PBE
elec-initial-magnetization 0.200000 yes
elec-smearing Fermi 1e-05
electronic-minimize  \
	dirUpdateScheme      FletcherReeves \
	linminMethod         DirUpdateRecommended \
	nIterations          100 \
	history              15 \
	knormThreshold       0 \
	energyDiffThreshold  1e-08 \
	nEnergyDiff          2 \
	alphaTstart          1 \
	alphaTmin            1e-10 \
	updateTestStepSize   yes \
	alphaTreduceFactor   0.1 \
	alphaTincreaseFactor 3 \
	nAlphaAdjustMax      3 \
	wolfeEnergy          0.0001 \
	wolfeGradient        0.9 \
	fdTest               no
electronic-scf  \
	nIterations	10000 \
	energyDiffThreshold	1e-08 \
	residualThreshold	1e-07 \
	mixFraction	0.5 \
	qMetric	0.8 \
	history	10 \
	nEigSteps	2 \
	eigDiffThreshold	1e-08 \
	mixedVariable	Density \
	qKerker	0.8 \
	qKappa	-1 \
	verbose	no \
	mixFractionMag	1.5
exchange-regularization WignerSeitzTruncated
fluid None
fluid-ex-corr (null) lda-PZ
fluid-gummel-loop 10 1.000000e-05
fluid-minimize  \
	dirUpdateScheme      PolakRibiere \
	linminMethod         DirUpdateRecommended \
	nIterations          100 \
	history              15 \
	knormThreshold       0 \
	energyDiffThreshold  0 \
	nEnergyDiff          2 \
	alphaTstart          1 \
	alphaTmin            1e-10 \
	updateTestStepSize   yes \
	alphaTreduceFactor   0.1 \
	alphaTincreaseFactor 3 \
	nAlphaAdjustMax      3 \
	wolfeEnergy          0.0001 \
	wolfeGradient        0.9 \
	fdTest               no
fluid-solvent H2O 55.338 ScalarEOS \
	epsBulk 78.4 \
	pMol 0.92466 \
	epsInf 1.77 \
	Pvap 1.06736e-10 \
	sigmaBulk 4.62e-05 \
	Rvdw 2.61727 \
	Res 1.42 \
	tauNuc 343133 \
	poleEl 15 7 1
forces-output-coords Positions
ion Rb   0.000000000000000   0.000000000000000   0.000000000000000 0
ion-species SG15/$ID_ONCV_PBE.upf
ion-width 0
ionic-minimize  \
	dirUpdateScheme      L-BFGS \
	linminMethod         DirUpdateRecommended \
	nIterations          0 \
	history              15 \
	knormThreshold       0.0001 \
	energyDiffThreshold  1e-06 \
	nEnergyDiff          2 \
	alphaTstart          1 \
	alphaTmin            1e-10 \
	updateTestStepSize   yes \
	alphaTreduceFactor   0.1 \
	alphaTincreaseFactor 3 \
	nAlphaAdjustMax      3 \
	wolfeEnergy          0.0001 \
	wolfeGradient        0.9 \
	fdTest               no
kpoint   0.000000000000   0.000000000000   0.000000000000  1.00000000000000
kpoint-folding 12 12 1 
latt-move-scale 1 1 1
latt-scale 4 4 1 
lattice  \
	   4.727486978767153   -2.363743489383575    0.000000000000000  \
	  -0.000000000000000    4.094123819672498    0.000000000000000  \
	   0.000000000000000    0.000000000000000   40.000000000000000 
lattice-minimize  \
	dirUpdateScheme      L-BFGS \
	linminMethod         DirUpdateRecommended \
	nIterations          0 \
	history              15 \
	knormThreshold       0 \
	energyDiffThreshold  1e-06 \
	nEnergyDiff          2 \
	alphaTstart          1 \
	alphaTmin            1e-10 \
	updateTestStepSize   yes \
	alphaTreduceFactor   0.1 \
	alphaTincreaseFactor 3 \
	nAlphaAdjustMax      3 \
	wolfeEnergy          0.0001 \
	wolfeGradient        0.9 \
	fdTest               no
lcao-params -1 1e-06 1e-05
pcm-variant GLSSA13
spintype z-spin
subspace-rotation-factor 1 yes
symmetries automatic
symmetry-threshold 0.0001



---------- Setting up symmetries ----------

Found 24 point-group symmetries of the bravais lattice
Found 24 space-group symmetries with basis
Applied RMS atom displacement 0 bohrs to make symmetries exact.

---------- Initializing the Grid ----------
R = 
[      18.9099     -9.45497            0  ]
[            0      16.3765            0  ]
[            0            0           40  ]
unit cell volume = 12387.1
G =
[   0.332269   0.191835         -0  ]
[          0   0.383671         -0  ]
[         -0         -0    0.15708  ]
Minimum fftbox size, Smin = [  80  80  164  ]
Chosen fftbox size, S = [  80  80  168  ]

---------- Exchange Correlation functional ----------
Initalized PBE GGA exchange.
Initalized PBE GGA correlation.

---------- Setting up pseudopotentials ----------
Width of ionic core gaussian charges (only for fluid interactions / plotting) set to 0

Reading pseudopotential file '/home/gridsan/aligho/DFT/build-Nov24/pseudopotentials/SG15/Rb_ONCV_PBE.upf':
  'Rb' pseudopotential, 'PBE' functional
  Generated using ONCVPSP code by D. R. Hamann
  Author: Martin Schlipf and Francois Gygi  Date: 150915.
  9 valence electrons, 3 orbitals, 6 projectors, 2308 radial grid points, with lMax = 2
  Transforming local potential to a uniform radial grid of dG=0.02 with 1489 points.
  Transforming nonlocal projectors to a uniform radial grid of dG=0.02 with 432 points.
    4S    l: 0   occupation:  2.0   eigenvalue: -1.172069
    4P    l: 1   occupation:  6.0   eigenvalue: -0.586674
    5S    l: 0   occupation:  1.0   eigenvalue: -0.082006
  Transforming atomic orbitals to a uniform radial grid of dG=0.02 with 432 points.
  Core radius for overlap checks: 2.60 bohrs.
  Reading pulay file /home/gridsan/aligho/DFT/build-Nov24/pseudopotentials/SG15/Rb_ONCV_PBE.pulay ... using dE_dnG = -1.360715e-05 computed for Ecut = 20.

Initialized 1 species with 1 total atoms.

Folded 1 k-points by 12x12x1 to 144 k-points.

---------- Setting up k-points, bands, fillings ----------
Reduced to 19 k-points under symmetry. 
Computing the number of bands and number of electrons
Calculating initial fillings.
nElectrons:   9.000000   nBands: 6   nStates: 38

----- Setting up reduced wavefunction bases (one per k-point) -----
average nbasis = 52924.021 , ideal nbasis = 52918.836

---------- Setting up coulomb interaction ----------
Initialized slab truncation along lattice direction 001

---------- Setting up 2D ewald sum ----------
Optimum gaussian width for ewald sums = 10.498040 bohr.
Real space sums over 289 unit cells with max indices [  8  8  0  ]
Reciprocal space sums over 81 terms with max indices [  4  4  0  ]

---------- Allocating electronic variables ----------
Initializing wave functions:  linear combination of atomic orbitals
Note: number of bands (6) exceeds available atomic orbitals (5)
Rb pseudo-atom occupations:   s ( 2 1 )  p ( 6 )
	FillingsUpdate:  mu: -0.082633389  nElectrons: 9.000000  magneticMoment: [ Abs: 0.20000  Tot: +0.20000 ]
LCAOMinimize: Iter:   0  F: -24.4306980996379934  |grad|_K:  5.242e-06  alpha:  1.000e+00
	FillingsUpdate:  mu: -0.082632270  nElectrons: 9.000000  magneticMoment: [ Abs: 0.20000  Tot: +0.20000 ]
LCAOMinimize: Iter:   1  F: -24.4306981181874292  |grad|_K:  2.639e-08  alpha:  9.871e-01  linmin: -8.180e-03  cgtest:  2.787e-01  t[s]:     15.13
LCAOMinimize: Encountered beta<0, resetting CG.
	FillingsUpdate:  mu: -0.082632269  nElectrons: 9.000000  magneticMoment: [ Abs: 0.20000  Tot: +0.20000 ]
LCAOMinimize: Iter:   2  F: -24.4306981181878982  |grad|_K:  1.839e-08  alpha:  1.697e+00  linmin:  1.992e-02  cgtest: -1.000e+00  t[s]:     19.13
LCAOMinimize: Converged (|Delta F|<1.000000e-06 for 2 iters).


---- Citations for features of the code used in this run ----

   Software package:
      R. Sundararaman, K. Letchworth-Weaver, K.A. Schwarz, D. Gunceler, Y. Ozhabes and T.A. Arias, 'JDFTx: software for joint density-functional theory', SoftwareX 6, 278 (2017)

   gga-PBE exchange-correlation functional:
      J.P. Perdew, K. Burke and M. Ernzerhof, Phys. Rev. Lett. 77, 3865 (1996)

   Pseudopotentials:
      M Schlipf and F Gygi, Comput. Phys. Commun. 196, 36 (2015)

   Truncated Coulomb potentials:
      R. Sundararaman and T.A. Arias, Phys. Rev. B 87, 165122 (2013)

This list may not be complete. Please suggest additional citations or
report any other bugs at https://github.com/shankar1729/jdftx/issues

Initialization completed successfully at t[s]:     19.39


-------- Electronic minimization -----------
Will mix electronic density at each iteration.
	FillingsUpdate:  mu: -0.082632269  nElectrons: 9.000000  magneticMoment: [ Abs: 0.20000  Tot: +0.20000 ]
	FillingsUpdate:  mu: -0.082729253  nElectrons: 9.000000  magneticMoment: [ Abs: 0.20000  Tot: +0.20000 ]
SCF: Cycle:  0   F: -24.430814871447666   dF: -1.168e-04   |Residual|: 7.676e-04   |deigs|: 1.755e-01  t[s]:     27.56
	FillingsUpdate:  mu: -0.082768918  nElectrons: 9.000000  magneticMoment: [ Abs: 0.20090  Tot: +0.20000 ]
SCF: Cycle:  1   F: -24.430816878538472   dF: -2.007e-06   |Residual|: 5.138e-04   |deigs|: 4.322e-03  t[s]:     34.07
	FillingsUpdate:  mu: -0.082820412  nElectrons: 9.000000  magneticMoment: [ Abs: 0.20094  Tot: +0.20000 ]
SCF: Cycle:  2   F: -24.430817516279120   dF: -6.377e-07   |Residual|: 4.089e-04   |deigs|: 1.116e-03  t[s]:     40.62
	FillingsUpdate:  mu: -0.082918619  nElectrons: 9.000000  magneticMoment: [ Abs: 0.20148  Tot: +0.20000 ]
SCF: Cycle:  3   F: -24.430818184099586   dF: -6.678e-07   |Residual|: 2.806e-04   |deigs|: 1.171e-03  t[s]:     47.26
	FillingsUpdate:  mu: -0.083015690  nElectrons: 9.000000  magneticMoment: [ Abs: 0.20123  Tot: +0.20000 ]
SCF: Cycle:  4   F: -24.430818924264869   dF: -7.402e-07   |Residual|: 1.823e-04   |deigs|: 3.661e-04  t[s]:     54.04
	FillingsUpdate:  mu: -0.083070309  nElectrons: 9.000000  magneticMoment: [ Abs: 0.20142  Tot: +0.20000 ]
SCF: Cycle:  5   F: -24.430819344555907   dF: -4.203e-07   |Residual|: 1.249e-04   |deigs|: 8.415e-04  t[s]:     60.94
	FillingsUpdate:  mu: -0.083071496  nElectrons: 9.000000  magneticMoment: [ Abs: 0.20135  Tot: +0.20000 ]
SCF: Cycle:  6   F: -24.430819611057277   dF: -2.665e-07   |Residual|: 7.935e-05   |deigs|: 8.828e-04  t[s]:     67.94
	FillingsUpdate:  mu: -0.083064047  nElectrons: 9.000000  magneticMoment: [ Abs: 0.20127  Tot: +0.20000 ]
SCF: Cycle:  7   F: -24.430819749764073   dF: -1.387e-07   |Residual|: 5.860e-05   |deigs|: 4.066e-04  t[s]:     75.06
	FillingsUpdate:  mu: -0.083046792  nElectrons: 9.000000  magneticMoment: [ Abs: 0.20123  Tot: +0.20000 ]
SCF: Cycle:  8   F: -24.430819823177011   dF: -7.341e-08   |Residual|: 4.455e-05   |deigs|: 3.595e-04  t[s]:     82.32
	FillingsUpdate:  mu: -0.083020203  nElectrons: 9.000000  magneticMoment: [ Abs: 0.20114  Tot: +0.20000 ]
SCF: Cycle:  9   F: -24.430819850712073   dF: -2.754e-08   |Residual|: 3.243e-05   |deigs|: 9.832e-05  t[s]:     89.62
	FillingsUpdate:  mu: -0.083001570  nElectrons: 9.000000  magneticMoment: [ Abs: 0.20118  Tot: +0.20000 ]
SCF: Cycle: 10   F: -24.430819854896516   dF: -4.184e-09   |Residual|: 2.990e-05   |deigs|: 5.365e-05  t[s]:     97.11
	FillingsUpdate:  mu: -0.082979280  nElectrons: 9.000000  magneticMoment: [ Abs: 0.20126  Tot: +0.20000 ]
SCF: Cycle: 11   F: -24.430819836400971   dF: +1.850e-08   |Residual|: 2.667e-05   |deigs|: 2.676e-05  t[s]:    104.57
	FillingsUpdate:  mu: -0.082948079  nElectrons: 9.000000  magneticMoment: [ Abs: 0.20125  Tot: +0.20000 ]
SCF: Cycle: 12   F: -24.430819800890756   dF: +3.551e-08   |Residual|: 2.461e-05   |deigs|: 3.858e-05  t[s]:    112.07
	FillingsUpdate:  mu: -0.082923506  nElectrons: 9.000000  magneticMoment: [ Abs: 0.20121  Tot: +0.20000 ]
SCF: Cycle: 13   F: -24.430819815536942   dF: -1.465e-08   |Residual|: 2.153e-05   |deigs|: 5.024e-05  t[s]:    119.49
	FillingsUpdate:  mu: -0.082896589  nElectrons: 9.000000  magneticMoment: [ Abs: 0.20123  Tot: +0.20000 ]
SCF: Cycle: 14   F: -24.430819775345316   dF: +4.019e-08   |Residual|: 2.038e-05   |deigs|: 8.566e-05  t[s]:    126.96
	FillingsUpdate:  mu: -0.082878166  nElectrons: 9.000000  magneticMoment: [ Abs: 0.20119  Tot: +0.20000 ]
SCF: Cycle: 15   F: -24.430819826979274   dF: -5.163e-08   |Residual|: 1.823e-05   |deigs|: 1.132e-04  t[s]:    134.43
	FillingsUpdate:  mu: -0.082851055  nElectrons: 9.000000  magneticMoment: [ Abs: 0.20119  Tot: +0.20000 ]
SCF: Cycle: 16   F: -24.430819826406402   dF: +5.729e-10   |Residual|: 1.614e-05   |deigs|: 9.947e-05  t[s]:    141.80
	FillingsUpdate:  mu: -0.082827414  nElectrons: 9.000000  magneticMoment: [ Abs: 0.20118  Tot: +0.20000 ]
SCF: Cycle: 17   F: -24.430819794095491   dF: +3.231e-08   |Residual|: 1.413e-05   |deigs|: 6.765e-05  t[s]:    149.26
	FillingsUpdate:  mu: -0.082823776  nElectrons: 9.000000  magneticMoment: [ Abs: 0.20114  Tot: +0.20000 ]
SCF: Cycle: 18   F: -24.430819855678287   dF: -6.158e-08   |Residual|: 1.146e-05   |deigs|: 3.488e-05  t[s]:    156.35
	FillingsUpdate:  mu: -0.082820390  nElectrons: 9.000000  magneticMoment: [ Abs: 0.20115  Tot: +0.20000 ]
SCF: Cycle: 19   F: -24.430819856418129   dF: -7.398e-10   |Residual|: 8.922e-06   |deigs|: 1.838e-05  t[s]:    163.16
	FillingsUpdate:  mu: -0.082814136  nElectrons: 9.000000  magneticMoment: [ Abs: 0.20116  Tot: +0.20000 ]
SCF: Cycle: 20   F: -24.430819885075763   dF: -2.866e-08   |Residual|: 6.266e-06   |deigs|: 1.098e-05  t[s]:    170.66
	FillingsUpdate:  mu: -0.082812202  nElectrons: 9.000000  magneticMoment: [ Abs: 0.20114  Tot: +0.20000 ]
SCF: Cycle: 21   F: -24.430819900664481   dF: -1.559e-08   |Residual|: 4.727e-06   |deigs|: 6.785e-06  t[s]:    177.58
	FillingsUpdate:  mu: -0.082811271  nElectrons: 9.000000  magneticMoment: [ Abs: 0.20115  Tot: +0.20000 ]
SCF: Cycle: 22   F: -24.430819898581824   dF: +2.083e-09   |Residual|: 3.562e-06   |deigs|: 7.339e-06  t[s]:    184.38
	FillingsUpdate:  mu: -0.082810258  nElectrons: 9.000000  magneticMoment: [ Abs: 0.20115  Tot: +0.20000 ]
SCF: Cycle: 23   F: -24.430819904678703   dF: -6.097e-09   |Residual|: 2.362e-06   |deigs|: 1.094e-05  t[s]:    191.71
	FillingsUpdate:  mu: -0.082810280  nElectrons: 9.000000  magneticMoment: [ Abs: 0.20114  Tot: +0.20000 ]
SCF: Cycle: 24   F: -24.430819906397602   dF: -1.719e-09   |Residual|: 1.561e-06   |deigs|: 1.531e-05  t[s]:    198.59
SCF: Converged (|Delta E|<1.000000e-08 for 2 iters).


# Ionic positions in lattice coordinates:
ion Rb   0.000000000000000   0.000000000000000   0.000000000000000 0

# Forces in Lattice coordinates:
force Rb   0.000000000000000  -0.000000000000000   0.000000000000000 0

# Energy components:
   Eewald =       -9.0240130501663280
       EH =       10.5174332198756186
     Eloc =      -28.4412043864504192
      Enl =       -0.7932056242776664
   Epulay =        0.0000000056959385
      Exc =       -3.6476390008946904
       KE =        6.9578094412801752
-------------------------------------
     Etot =      -24.4308193949373731
       TS =        0.0000005114602277
-------------------------------------
        F =      -24.4308199063976019

IonicMinimize: Iter:   0  F: -24.430819906397602  |grad|_K:  0.000e+00  t[s]:    199.02
IonicMinimize: Converged (|grad|_K<1.000000e-04).

#--- Lowdin population analysis ---
# oxidation-state Rb +0.002
# magnetic-moments Rb +0.200

End date and time: Sun Feb  6 12:54:09 2022  (Duration: 0-0:03:19.08)
Done!
