
*************** JDFTx 1.6.0 (git hash 42ebbcc2) ***************

Start date and time: Sun Feb  6 12:44:13 2022
Executable jdftx with command-line: -i Alkali.in
Running on hosts (process indices):  d-6-8-2 (0-18)
Divided in process groups (process indices):  0 (0)  1 (1)  2 (2)  3 (3)  4 (4)  5 (5)  6 (6)  7 (7)  8 (8)  9 (9)  10 (10)  11 (11)  12 (12)  13 (13)  14 (14)  15 (15)  16 (16)  17 (17)  18 (18)
Resource initialization completed at t[s]:      0.00
Run totals: 19 processes, 48 threads, 0 GPUs


Input parsed successfully to the following command list (including defaults):

basis kpoint-dependent
coords-type Lattice
core-overlap-check vector
coulomb-interaction Slab 001
davidson-band-ratio 1.1
dump End None
dump-name $INPUT.$VAR
elec-cutoff 20
elec-eigen-algo Davidson
elec-ex-corr gga-PBE
elec-initial-magnetization -0.360000 yes
elec-smearing Fermi 1e-05
electronic-minimize  \
	dirUpdateScheme      FletcherReeves \
	linminMethod         DirUpdateRecommended \
	nIterations          100 \
	history              15 \
	knormThreshold       0 \
	energyDiffThreshold  1e-08 \
	nEnergyDiff          2 \
	alphaTstart          1 \
	alphaTmin            1e-10 \
	updateTestStepSize   yes \
	alphaTreduceFactor   0.1 \
	alphaTincreaseFactor 3 \
	nAlphaAdjustMax      3 \
	wolfeEnergy          0.0001 \
	wolfeGradient        0.9 \
	fdTest               no
electronic-scf  \
	nIterations	10000 \
	energyDiffThreshold	1e-08 \
	residualThreshold	1e-07 \
	mixFraction	0.5 \
	qMetric	0.8 \
	history	10 \
	nEigSteps	2 \
	eigDiffThreshold	1e-08 \
	mixedVariable	Density \
	qKerker	0.8 \
	qKappa	-1 \
	verbose	no \
	mixFractionMag	1.5
exchange-regularization WignerSeitzTruncated
fluid None
fluid-ex-corr (null) lda-PZ
fluid-gummel-loop 10 1.000000e-05
fluid-minimize  \
	dirUpdateScheme      PolakRibiere \
	linminMethod         DirUpdateRecommended \
	nIterations          100 \
	history              15 \
	knormThreshold       0 \
	energyDiffThreshold  0 \
	nEnergyDiff          2 \
	alphaTstart          1 \
	alphaTmin            1e-10 \
	updateTestStepSize   yes \
	alphaTreduceFactor   0.1 \
	alphaTincreaseFactor 3 \
	nAlphaAdjustMax      3 \
	wolfeEnergy          0.0001 \
	wolfeGradient        0.9 \
	fdTest               no
fluid-solvent H2O 55.338 ScalarEOS \
	epsBulk 78.4 \
	pMol 0.92466 \
	epsInf 1.77 \
	Pvap 1.06736e-10 \
	sigmaBulk 4.62e-05 \
	Rvdw 2.61727 \
	Res 1.42 \
	tauNuc 343133 \
	poleEl 15 7 1
forces-output-coords Positions
ion Rb   0.000000000000000   0.000000000000000   0.000000000000000 0
ion-species SG15/$ID_ONCV_PBE.upf
ion-width 0
ionic-minimize  \
	dirUpdateScheme      L-BFGS \
	linminMethod         DirUpdateRecommended \
	nIterations          0 \
	history              15 \
	knormThreshold       0.0001 \
	energyDiffThreshold  1e-06 \
	nEnergyDiff          2 \
	alphaTstart          1 \
	alphaTmin            1e-10 \
	updateTestStepSize   yes \
	alphaTreduceFactor   0.1 \
	alphaTincreaseFactor 3 \
	nAlphaAdjustMax      3 \
	wolfeEnergy          0.0001 \
	wolfeGradient        0.9 \
	fdTest               no
kpoint   0.000000000000   0.000000000000   0.000000000000  1.00000000000000
kpoint-folding 12 12 1 
latt-move-scale 1 1 1
latt-scale 4 4 1 
lattice  \
	   4.727486978767153   -2.363743489383575    0.000000000000000  \
	  -0.000000000000000    4.094123819672498    0.000000000000000  \
	   0.000000000000000    0.000000000000000   40.000000000000000 
lattice-minimize  \
	dirUpdateScheme      L-BFGS \
	linminMethod         DirUpdateRecommended \
	nIterations          0 \
	history              15 \
	knormThreshold       0 \
	energyDiffThreshold  1e-06 \
	nEnergyDiff          2 \
	alphaTstart          1 \
	alphaTmin            1e-10 \
	updateTestStepSize   yes \
	alphaTreduceFactor   0.1 \
	alphaTincreaseFactor 3 \
	nAlphaAdjustMax      3 \
	wolfeEnergy          0.0001 \
	wolfeGradient        0.9 \
	fdTest               no
lcao-params -1 1e-06 1e-05
pcm-variant GLSSA13
spintype z-spin
subspace-rotation-factor 1 yes
symmetries automatic
symmetry-threshold 0.0001



---------- Setting up symmetries ----------

Found 24 point-group symmetries of the bravais lattice
Found 24 space-group symmetries with basis
Applied RMS atom displacement 0 bohrs to make symmetries exact.

---------- Initializing the Grid ----------
R = 
[      18.9099     -9.45497            0  ]
[            0      16.3765            0  ]
[            0            0           40  ]
unit cell volume = 12387.1
G =
[   0.332269   0.191835         -0  ]
[          0   0.383671         -0  ]
[         -0         -0    0.15708  ]
Minimum fftbox size, Smin = [  80  80  164  ]
Chosen fftbox size, S = [  80  80  168  ]

---------- Exchange Correlation functional ----------
Initalized PBE GGA exchange.
Initalized PBE GGA correlation.

---------- Setting up pseudopotentials ----------
Width of ionic core gaussian charges (only for fluid interactions / plotting) set to 0

Reading pseudopotential file '/home/gridsan/aligho/DFT/build-Nov24/pseudopotentials/SG15/Rb_ONCV_PBE.upf':
  'Rb' pseudopotential, 'PBE' functional
  Generated using ONCVPSP code by D. R. Hamann
  Author: Martin Schlipf and Francois Gygi  Date: 150915.
  9 valence electrons, 3 orbitals, 6 projectors, 2308 radial grid points, with lMax = 2
  Transforming local potential to a uniform radial grid of dG=0.02 with 1489 points.
  Transforming nonlocal projectors to a uniform radial grid of dG=0.02 with 432 points.
    4S    l: 0   occupation:  2.0   eigenvalue: -1.172069
    4P    l: 1   occupation:  6.0   eigenvalue: -0.586674
    5S    l: 0   occupation:  1.0   eigenvalue: -0.082006
  Transforming atomic orbitals to a uniform radial grid of dG=0.02 with 432 points.
  Core radius for overlap checks: 2.60 bohrs.
  Reading pulay file /home/gridsan/aligho/DFT/build-Nov24/pseudopotentials/SG15/Rb_ONCV_PBE.pulay ... using dE_dnG = -1.360715e-05 computed for Ecut = 20.

Initialized 1 species with 1 total atoms.

Folded 1 k-points by 12x12x1 to 144 k-points.

---------- Setting up k-points, bands, fillings ----------
Reduced to 19 k-points under symmetry. 
Computing the number of bands and number of electrons
Calculating initial fillings.
nElectrons:   9.000000   nBands: 6   nStates: 38

----- Setting up reduced wavefunction bases (one per k-point) -----
average nbasis = 52924.021 , ideal nbasis = 52918.836

---------- Setting up coulomb interaction ----------
Initialized slab truncation along lattice direction 001

---------- Setting up 2D ewald sum ----------
Optimum gaussian width for ewald sums = 10.498040 bohr.
Real space sums over 289 unit cells with max indices [  8  8  0  ]
Reciprocal space sums over 81 terms with max indices [  4  4  0  ]

---------- Allocating electronic variables ----------
Initializing wave functions:  linear combination of atomic orbitals
Note: number of bands (6) exceeds available atomic orbitals (5)
Rb pseudo-atom occupations:   s ( 2 1 )  p ( 6 )
	FillingsUpdate:  mu: -0.082586234  nElectrons: 9.000000  magneticMoment: [ Abs: 0.36000  Tot: -0.36000 ]
LCAOMinimize: Iter:   0  F: -24.4309765971161674  |grad|_K:  4.681e-06  alpha:  1.000e+00
	FillingsUpdate:  mu: -0.082585191  nElectrons: 9.000000  magneticMoment: [ Abs: 0.36000  Tot: -0.36000 ]
LCAOMinimize: Iter:   1  F: -24.4309766119155256  |grad|_K:  2.313e-08  alpha:  9.875e-01  linmin: -1.404e-03  cgtest:  2.558e-01  t[s]:     14.90
LCAOMinimize: Encountered beta<0, resetting CG.
	FillingsUpdate:  mu: -0.082585189  nElectrons: 9.000000  magneticMoment: [ Abs: 0.36000  Tot: -0.36000 ]
LCAOMinimize: Iter:   2  F: -24.4309766119156180  |grad|_K:  1.434e-08  alpha:  1.620e+00  linmin:  3.848e-03  cgtest: -1.000e+00  t[s]:     18.85
LCAOMinimize: Converged (|Delta F|<1.000000e-06 for 2 iters).


---- Citations for features of the code used in this run ----

   Software package:
      R. Sundararaman, K. Letchworth-Weaver, K.A. Schwarz, D. Gunceler, Y. Ozhabes and T.A. Arias, 'JDFTx: software for joint density-functional theory', SoftwareX 6, 278 (2017)

   gga-PBE exchange-correlation functional:
      J.P. Perdew, K. Burke and M. Ernzerhof, Phys. Rev. Lett. 77, 3865 (1996)

   Pseudopotentials:
      M Schlipf and F Gygi, Comput. Phys. Commun. 196, 36 (2015)

   Truncated Coulomb potentials:
      R. Sundararaman and T.A. Arias, Phys. Rev. B 87, 165122 (2013)

This list may not be complete. Please suggest additional citations or
report any other bugs at https://github.com/shankar1729/jdftx/issues

Initialization completed successfully at t[s]:     19.11


-------- Electronic minimization -----------
Will mix electronic density at each iteration.
	FillingsUpdate:  mu: -0.082585189  nElectrons: 9.000000  magneticMoment: [ Abs: 0.36000  Tot: -0.36000 ]
	FillingsUpdate:  mu: -0.082683650  nElectrons: 9.000000  magneticMoment: [ Abs: 0.36000  Tot: -0.36000 ]
SCF: Cycle:  0   F: -24.431084421535633   dF: -1.078e-04   |Residual|: 9.622e-04   |deigs|: 1.751e-01  t[s]:     27.21
	FillingsUpdate:  mu: -0.082711555  nElectrons: 9.000000  magneticMoment: [ Abs: 0.36163  Tot: -0.36000 ]
SCF: Cycle:  1   F: -24.431086178034946   dF: -1.756e-06   |Residual|: 4.457e-04   |deigs|: 4.581e-03  t[s]:     33.58
	FillingsUpdate:  mu: -0.082742271  nElectrons: 9.000000  magneticMoment: [ Abs: 0.36175  Tot: -0.36000 ]
SCF: Cycle:  2   F: -24.431086726403517   dF: -5.484e-07   |Residual|: 3.457e-04   |deigs|: 1.560e-03  t[s]:     40.03
	FillingsUpdate:  mu: -0.082788817  nElectrons: 9.000000  magneticMoment: [ Abs: 0.36227  Tot: -0.36000 ]
SCF: Cycle:  3   F: -24.431087100065707   dF: -3.737e-07   |Residual|: 2.601e-04   |deigs|: 9.126e-04  t[s]:     46.58
	FillingsUpdate:  mu: -0.082851975  nElectrons: 9.000000  magneticMoment: [ Abs: 0.36213  Tot: -0.36000 ]
SCF: Cycle:  4   F: -24.431087655919512   dF: -5.559e-07   |Residual|: 1.745e-04   |deigs|: 4.627e-04  t[s]:     53.33
	FillingsUpdate:  mu: -0.082907597  nElectrons: 9.000000  magneticMoment: [ Abs: 0.36232  Tot: -0.36000 ]
SCF: Cycle:  5   F: -24.431088025355191   dF: -3.694e-07   |Residual|: 1.134e-04   |deigs|: 4.692e-04  t[s]:     60.18
	FillingsUpdate:  mu: -0.082914004  nElectrons: 9.000000  magneticMoment: [ Abs: 0.36229  Tot: -0.36000 ]
SCF: Cycle:  6   F: -24.431088232298858   dF: -2.069e-07   |Residual|: 7.489e-05   |deigs|: 7.204e-04  t[s]:     67.05
	FillingsUpdate:  mu: -0.082912301  nElectrons: 9.000000  magneticMoment: [ Abs: 0.36223  Tot: -0.36000 ]
SCF: Cycle:  7   F: -24.431088358800313   dF: -1.265e-07   |Residual|: 5.436e-05   |deigs|: 5.884e-04  t[s]:     74.08
	FillingsUpdate:  mu: -0.082897250  nElectrons: 9.000000  magneticMoment: [ Abs: 0.36218  Tot: -0.36000 ]
SCF: Cycle:  8   F: -24.431088425527633   dF: -6.673e-08   |Residual|: 4.219e-05   |deigs|: 1.918e-04  t[s]:     81.24
	FillingsUpdate:  mu: -0.082869124  nElectrons: 9.000000  magneticMoment: [ Abs: 0.36208  Tot: -0.36000 ]
SCF: Cycle:  9   F: -24.431088460217541   dF: -3.469e-08   |Residual|: 3.190e-05   |deigs|: 1.432e-04  t[s]:     88.51
	FillingsUpdate:  mu: -0.082846955  nElectrons: 9.000000  magneticMoment: [ Abs: 0.36210  Tot: -0.36000 ]
SCF: Cycle: 10   F: -24.431088457649050   dF: +2.568e-09   |Residual|: 2.916e-05   |deigs|: 1.625e-04  t[s]:     95.89
	FillingsUpdate:  mu: -0.082823513  nElectrons: 9.000000  magneticMoment: [ Abs: 0.36222  Tot: -0.36000 ]
SCF: Cycle: 11   F: -24.431088428581173   dF: +2.907e-08   |Residual|: 2.709e-05   |deigs|: 9.976e-05  t[s]:    103.29
	FillingsUpdate:  mu: -0.082790523  nElectrons: 9.000000  magneticMoment: [ Abs: 0.36224  Tot: -0.36000 ]
SCF: Cycle: 12   F: -24.431088342381820   dF: +8.620e-08   |Residual|: 2.424e-05   |deigs|: 1.153e-04  t[s]:    110.63
	FillingsUpdate:  mu: -0.082760166  nElectrons: 9.000000  magneticMoment: [ Abs: 0.36220  Tot: -0.36000 ]
SCF: Cycle: 13   F: -24.431088381295929   dF: -3.891e-08   |Residual|: 2.179e-05   |deigs|: 1.048e-04  t[s]:    117.98
	FillingsUpdate:  mu: -0.082737177  nElectrons: 9.000000  magneticMoment: [ Abs: 0.36221  Tot: -0.36000 ]
SCF: Cycle: 14   F: -24.431088376007942   dF: +5.288e-09   |Residual|: 2.000e-05   |deigs|: 8.233e-05  t[s]:    125.37
	FillingsUpdate:  mu: -0.082718982  nElectrons: 9.000000  magneticMoment: [ Abs: 0.36219  Tot: -0.36000 ]
SCF: Cycle: 15   F: -24.431088423816220   dF: -4.781e-08   |Residual|: 1.739e-05   |deigs|: 4.653e-05  t[s]:    132.66
	FillingsUpdate:  mu: -0.082693669  nElectrons: 9.000000  magneticMoment: [ Abs: 0.36217  Tot: -0.36000 ]
SCF: Cycle: 16   F: -24.431088443447528   dF: -1.963e-08   |Residual|: 1.677e-05   |deigs|: 3.184e-05  t[s]:    139.97
	FillingsUpdate:  mu: -0.082675625  nElectrons: 9.000000  magneticMoment: [ Abs: 0.36213  Tot: -0.36000 ]
SCF: Cycle: 17   F: -24.431088380255041   dF: +6.319e-08   |Residual|: 1.432e-05   |deigs|: 2.072e-05  t[s]:    147.31
	FillingsUpdate:  mu: -0.082669655  nElectrons: 9.000000  magneticMoment: [ Abs: 0.36208  Tot: -0.36000 ]
SCF: Cycle: 18   F: -24.431088455486115   dF: -7.523e-08   |Residual|: 1.125e-05   |deigs|: 9.099e-06  t[s]:    154.24
	FillingsUpdate:  mu: -0.082664669  nElectrons: 9.000000  magneticMoment: [ Abs: 0.36207  Tot: -0.36000 ]
SCF: Cycle: 19   F: -24.431088480912528   dF: -2.543e-08   |Residual|: 8.398e-06   |deigs|: 6.596e-06  t[s]:    161.01
	FillingsUpdate:  mu: -0.082657048  nElectrons: 9.000000  magneticMoment: [ Abs: 0.36210  Tot: -0.36000 ]
SCF: Cycle: 20   F: -24.431088499000886   dF: -1.809e-08   |Residual|: 5.601e-06   |deigs|: 8.424e-06  t[s]:    168.32
	FillingsUpdate:  mu: -0.082656032  nElectrons: 9.000000  magneticMoment: [ Abs: 0.36209  Tot: -0.36000 ]
SCF: Cycle: 21   F: -24.431088517461557   dF: -1.846e-08   |Residual|: 3.949e-06   |deigs|: 2.989e-06  t[s]:    175.05
	FillingsUpdate:  mu: -0.082655385  nElectrons: 9.000000  magneticMoment: [ Abs: 0.36208  Tot: -0.36000 ]
SCF: Cycle: 22   F: -24.431088518574978   dF: -1.113e-09   |Residual|: 2.896e-06   |deigs|: 3.344e-06  t[s]:    181.79
	FillingsUpdate:  mu: -0.082655528  nElectrons: 9.000000  magneticMoment: [ Abs: 0.36209  Tot: -0.36000 ]
SCF: Cycle: 23   F: -24.431088521585895   dF: -3.011e-09   |Residual|: 1.910e-06   |deigs|: 4.762e-06  t[s]:    189.06
SCF: Converged (|Delta E|<1.000000e-08 for 2 iters).


# Ionic positions in lattice coordinates:
ion Rb   0.000000000000000   0.000000000000000   0.000000000000000 0

# Forces in Lattice coordinates:
force Rb  -0.000000000000000   0.000000000000000   0.000000000000000 0

# Energy components:
   Eewald =       -9.0240130501663280
       EH =       10.5224226769196658
     Eloc =      -28.4465761798056178
      Enl =       -0.7930387717708958
   Epulay =        0.0000000056959385
      Exc =       -3.6485384747017933
       KE =        6.9586566948933797
-------------------------------------
     Etot =      -24.4310870989356559
       TS =        0.0000014226502401
-------------------------------------
        F =      -24.4310885215858953

IonicMinimize: Iter:   0  F: -24.431088521585895  |grad|_K:  0.000e+00  t[s]:    189.46
IonicMinimize: Converged (|grad|_K<1.000000e-04).

#--- Lowdin population analysis ---
# oxidation-state Rb +0.002
# magnetic-moments Rb -0.360

End date and time: Sun Feb  6 12:47:23 2022  (Duration: 0-0:03:09.52)
Done!
