
*************** JDFTx 1.6.0 (git hash 42ebbcc2) ***************

Start date and time: Sun Feb  6 12:37:47 2022
Executable jdftx with command-line: -i Alkali.in
Running on hosts (process indices):  d-16-8-3 (0-18)
Divided in process groups (process indices):  0 (0)  1 (1)  2 (2)  3 (3)  4 (4)  5 (5)  6 (6)  7 (7)  8 (8)  9 (9)  10 (10)  11 (11)  12 (12)  13 (13)  14 (14)  15 (15)  16 (16)  17 (17)  18 (18)
Resource initialization completed at t[s]:      0.00
Run totals: 19 processes, 48 threads, 0 GPUs


Input parsed successfully to the following command list (including defaults):

basis kpoint-dependent
coords-type Lattice
core-overlap-check vector
coulomb-interaction Slab 001
davidson-band-ratio 1.1
dump End None
dump-name $INPUT.$VAR
elec-cutoff 20
elec-eigen-algo Davidson
elec-ex-corr gga-PBE
elec-initial-magnetization -0.760000 yes
elec-smearing Fermi 1e-05
electronic-minimize  \
	dirUpdateScheme      FletcherReeves \
	linminMethod         DirUpdateRecommended \
	nIterations          100 \
	history              15 \
	knormThreshold       0 \
	energyDiffThreshold  1e-08 \
	nEnergyDiff          2 \
	alphaTstart          1 \
	alphaTmin            1e-10 \
	updateTestStepSize   yes \
	alphaTreduceFactor   0.1 \
	alphaTincreaseFactor 3 \
	nAlphaAdjustMax      3 \
	wolfeEnergy          0.0001 \
	wolfeGradient        0.9 \
	fdTest               no
electronic-scf  \
	nIterations	10000 \
	energyDiffThreshold	1e-08 \
	residualThreshold	1e-07 \
	mixFraction	0.5 \
	qMetric	0.8 \
	history	10 \
	nEigSteps	2 \
	eigDiffThreshold	1e-08 \
	mixedVariable	Density \
	qKerker	0.8 \
	qKappa	-1 \
	verbose	no \
	mixFractionMag	1.5
exchange-regularization WignerSeitzTruncated
fluid None
fluid-ex-corr (null) lda-PZ
fluid-gummel-loop 10 1.000000e-05
fluid-minimize  \
	dirUpdateScheme      PolakRibiere \
	linminMethod         DirUpdateRecommended \
	nIterations          100 \
	history              15 \
	knormThreshold       0 \
	energyDiffThreshold  0 \
	nEnergyDiff          2 \
	alphaTstart          1 \
	alphaTmin            1e-10 \
	updateTestStepSize   yes \
	alphaTreduceFactor   0.1 \
	alphaTincreaseFactor 3 \
	nAlphaAdjustMax      3 \
	wolfeEnergy          0.0001 \
	wolfeGradient        0.9 \
	fdTest               no
fluid-solvent H2O 55.338 ScalarEOS \
	epsBulk 78.4 \
	pMol 0.92466 \
	epsInf 1.77 \
	Pvap 1.06736e-10 \
	sigmaBulk 4.62e-05 \
	Rvdw 2.61727 \
	Res 1.42 \
	tauNuc 343133 \
	poleEl 15 7 1
forces-output-coords Positions
ion Rb   0.000000000000000   0.000000000000000   0.000000000000000 0
ion-species SG15/$ID_ONCV_PBE.upf
ion-width 0
ionic-minimize  \
	dirUpdateScheme      L-BFGS \
	linminMethod         DirUpdateRecommended \
	nIterations          0 \
	history              15 \
	knormThreshold       0.0001 \
	energyDiffThreshold  1e-06 \
	nEnergyDiff          2 \
	alphaTstart          1 \
	alphaTmin            1e-10 \
	updateTestStepSize   yes \
	alphaTreduceFactor   0.1 \
	alphaTincreaseFactor 3 \
	nAlphaAdjustMax      3 \
	wolfeEnergy          0.0001 \
	wolfeGradient        0.9 \
	fdTest               no
kpoint   0.000000000000   0.000000000000   0.000000000000  1.00000000000000
kpoint-folding 12 12 1 
latt-move-scale 1 1 1
latt-scale 4 4 1 
lattice  \
	   4.727486978767153   -2.363743489383575    0.000000000000000  \
	  -0.000000000000000    4.094123819672498    0.000000000000000  \
	   0.000000000000000    0.000000000000000   40.000000000000000 
lattice-minimize  \
	dirUpdateScheme      L-BFGS \
	linminMethod         DirUpdateRecommended \
	nIterations          0 \
	history              15 \
	knormThreshold       0 \
	energyDiffThreshold  1e-06 \
	nEnergyDiff          2 \
	alphaTstart          1 \
	alphaTmin            1e-10 \
	updateTestStepSize   yes \
	alphaTreduceFactor   0.1 \
	alphaTincreaseFactor 3 \
	nAlphaAdjustMax      3 \
	wolfeEnergy          0.0001 \
	wolfeGradient        0.9 \
	fdTest               no
lcao-params -1 1e-06 1e-05
pcm-variant GLSSA13
spintype z-spin
subspace-rotation-factor 1 yes
symmetries automatic
symmetry-threshold 0.0001



---------- Setting up symmetries ----------

Found 24 point-group symmetries of the bravais lattice
Found 24 space-group symmetries with basis
Applied RMS atom displacement 0 bohrs to make symmetries exact.

---------- Initializing the Grid ----------
R = 
[      18.9099     -9.45497            0  ]
[            0      16.3765            0  ]
[            0            0           40  ]
unit cell volume = 12387.1
G =
[   0.332269   0.191835         -0  ]
[          0   0.383671         -0  ]
[         -0         -0    0.15708  ]
Minimum fftbox size, Smin = [  80  80  164  ]
Chosen fftbox size, S = [  80  80  168  ]

---------- Exchange Correlation functional ----------
Initalized PBE GGA exchange.
Initalized PBE GGA correlation.

---------- Setting up pseudopotentials ----------
Width of ionic core gaussian charges (only for fluid interactions / plotting) set to 0

Reading pseudopotential file '/home/gridsan/aligho/DFT/build-Nov24/pseudopotentials/SG15/Rb_ONCV_PBE.upf':
  'Rb' pseudopotential, 'PBE' functional
  Generated using ONCVPSP code by D. R. Hamann
  Author: Martin Schlipf and Francois Gygi  Date: 150915.
  9 valence electrons, 3 orbitals, 6 projectors, 2308 radial grid points, with lMax = 2
  Transforming local potential to a uniform radial grid of dG=0.02 with 1489 points.
  Transforming nonlocal projectors to a uniform radial grid of dG=0.02 with 432 points.
    4S    l: 0   occupation:  2.0   eigenvalue: -1.172069
    4P    l: 1   occupation:  6.0   eigenvalue: -0.586674
    5S    l: 0   occupation:  1.0   eigenvalue: -0.082006
  Transforming atomic orbitals to a uniform radial grid of dG=0.02 with 432 points.
  Core radius for overlap checks: 2.60 bohrs.
  Reading pulay file /home/gridsan/aligho/DFT/build-Nov24/pseudopotentials/SG15/Rb_ONCV_PBE.pulay ... using dE_dnG = -1.360715e-05 computed for Ecut = 20.

Initialized 1 species with 1 total atoms.

Folded 1 k-points by 12x12x1 to 144 k-points.

---------- Setting up k-points, bands, fillings ----------
Reduced to 19 k-points under symmetry. 
Computing the number of bands and number of electrons
Calculating initial fillings.
nElectrons:   9.000000   nBands: 6   nStates: 38

----- Setting up reduced wavefunction bases (one per k-point) -----
average nbasis = 52924.021 , ideal nbasis = 52918.836

---------- Setting up coulomb interaction ----------
Initialized slab truncation along lattice direction 001

---------- Setting up 2D ewald sum ----------
Optimum gaussian width for ewald sums = 10.498040 bohr.
Real space sums over 289 unit cells with max indices [  8  8  0  ]
Reciprocal space sums over 81 terms with max indices [  4  4  0  ]

---------- Allocating electronic variables ----------
Initializing wave functions:  linear combination of atomic orbitals
Note: number of bands (6) exceeds available atomic orbitals (5)
Rb pseudo-atom occupations:   s ( 2 1 )  p ( 6 )
	FillingsUpdate:  mu: -0.082635148  nElectrons: 9.000000  magneticMoment: [ Abs: 0.76000  Tot: -0.76000 ]
LCAOMinimize: Iter:   0  F: -24.4324538956141488  |grad|_K:  2.424e-06  alpha:  1.000e+00
	FillingsUpdate:  mu: -0.082634625  nElectrons: 9.000000  magneticMoment: [ Abs: 0.76000  Tot: -0.76000 ]
LCAOMinimize: Iter:   1  F: -24.4324538995951706  |grad|_K:  1.313e-08  alpha:  9.908e-01  linmin: -2.386e-03  cgtest:  6.454e-02  t[s]:     14.85
LCAOMinimize: Encountered beta<0, resetting CG.
	FillingsUpdate:  mu: -0.082634626  nElectrons: 9.000000  magneticMoment: [ Abs: 0.76000  Tot: -0.76000 ]
LCAOMinimize: Iter:   2  F: -24.4324538995953375  |grad|_K:  3.608e-09  alpha:  7.236e-01  linmin: -5.208e-02  cgtest:  9.999e-01  t[s]:     18.79
LCAOMinimize: Encountered beta<0, resetting CG.
LCAOMinimize: Converged (|Delta F|<1.000000e-06 for 2 iters).


---- Citations for features of the code used in this run ----

   Software package:
      R. Sundararaman, K. Letchworth-Weaver, K.A. Schwarz, D. Gunceler, Y. Ozhabes and T.A. Arias, 'JDFTx: software for joint density-functional theory', SoftwareX 6, 278 (2017)

   gga-PBE exchange-correlation functional:
      J.P. Perdew, K. Burke and M. Ernzerhof, Phys. Rev. Lett. 77, 3865 (1996)

   Pseudopotentials:
      M Schlipf and F Gygi, Comput. Phys. Commun. 196, 36 (2015)

   Truncated Coulomb potentials:
      R. Sundararaman and T.A. Arias, Phys. Rev. B 87, 165122 (2013)

This list may not be complete. Please suggest additional citations or
report any other bugs at https://github.com/shankar1729/jdftx/issues

Initialization completed successfully at t[s]:     19.04


-------- Electronic minimization -----------
Will mix electronic density at each iteration.
	FillingsUpdate:  mu: -0.082634626  nElectrons: 9.000000  magneticMoment: [ Abs: 0.76000  Tot: -0.76000 ]
	FillingsUpdate:  mu: -0.082734235  nElectrons: 9.000000  magneticMoment: [ Abs: 0.76000  Tot: -0.76000 ]
SCF: Cycle:  0   F: -24.432566263423901   dF: -1.124e-04   |Residual|: 1.735e-03   |deigs|: 1.694e-01  t[s]:     27.09
	FillingsUpdate:  mu: -0.082724338  nElectrons: 9.000000  magneticMoment: [ Abs: 0.76412  Tot: -0.76000 ]
SCF: Cycle:  1   F: -24.432568578396197   dF: -2.315e-06   |Residual|: 4.149e-04   |deigs|: 9.647e-03  t[s]:     33.45
	FillingsUpdate:  mu: -0.082694273  nElectrons: 9.000000  magneticMoment: [ Abs: 0.76413  Tot: -0.76000 ]
SCF: Cycle:  2   F: -24.432569147985500   dF: -5.696e-07   |Residual|: 2.448e-04   |deigs|: 1.709e-03  t[s]:     39.89
	FillingsUpdate:  mu: -0.082671005  nElectrons: 9.000000  magneticMoment: [ Abs: 0.76473  Tot: -0.76000 ]
SCF: Cycle:  3   F: -24.432569465967042   dF: -3.180e-07   |Residual|: 1.843e-04   |deigs|: 7.760e-04  t[s]:     46.44
	FillingsUpdate:  mu: -0.082609108  nElectrons: 9.000000  magneticMoment: [ Abs: 0.76469  Tot: -0.76000 ]
SCF: Cycle:  4   F: -24.432569724627101   dF: -2.587e-07   |Residual|: 1.342e-04   |deigs|: 5.503e-04  t[s]:     53.03
	FillingsUpdate:  mu: -0.082520233  nElectrons: 9.000000  magneticMoment: [ Abs: 0.76471  Tot: -0.76000 ]
SCF: Cycle:  5   F: -24.432569837134430   dF: -1.125e-07   |Residual|: 8.861e-05   |deigs|: 5.500e-04  t[s]:     59.80
	FillingsUpdate:  mu: -0.082465665  nElectrons: 9.000000  magneticMoment: [ Abs: 0.76462  Tot: -0.76000 ]
SCF: Cycle:  6   F: -24.432569907598882   dF: -7.046e-08   |Residual|: 6.938e-05   |deigs|: 3.811e-04  t[s]:     66.73
	FillingsUpdate:  mu: -0.082443415  nElectrons: 9.000000  magneticMoment: [ Abs: 0.76465  Tot: -0.76000 ]
SCF: Cycle:  7   F: -24.432569961324642   dF: -5.373e-08   |Residual|: 5.602e-05   |deigs|: 4.675e-04  t[s]:     73.72
	FillingsUpdate:  mu: -0.082417149  nElectrons: 9.000000  magneticMoment: [ Abs: 0.76465  Tot: -0.76000 ]
SCF: Cycle:  8   F: -24.432570005490589   dF: -4.417e-08   |Residual|: 4.823e-05   |deigs|: 2.034e-04  t[s]:     80.78
	FillingsUpdate:  mu: -0.082388315  nElectrons: 9.000000  magneticMoment: [ Abs: 0.76464  Tot: -0.76000 ]
SCF: Cycle:  9   F: -24.432570020134786   dF: -1.464e-08   |Residual|: 3.995e-05   |deigs|: 1.735e-04  t[s]:     87.98
	FillingsUpdate:  mu: -0.082368710  nElectrons: 9.000000  magneticMoment: [ Abs: 0.76468  Tot: -0.76000 ]
SCF: Cycle: 10   F: -24.432569978975867   dF: +4.116e-08   |Residual|: 3.437e-05   |deigs|: 1.357e-04  t[s]:     95.30
	FillingsUpdate:  mu: -0.082337661  nElectrons: 9.000000  magneticMoment: [ Abs: 0.76474  Tot: -0.76000 ]
SCF: Cycle: 11   F: -24.432569902097679   dF: +7.688e-08   |Residual|: 2.959e-05   |deigs|: 9.100e-05  t[s]:    102.63
	FillingsUpdate:  mu: -0.082317795  nElectrons: 9.000000  magneticMoment: [ Abs: 0.76484  Tot: -0.76000 ]
SCF: Cycle: 12   F: -24.432569540730061   dF: +3.614e-07   |Residual|: 2.671e-05   |deigs|: 9.304e-05  t[s]:    110.02
	FillingsUpdate:  mu: -0.082323876  nElectrons: 9.000000  magneticMoment: [ Abs: 0.76480  Tot: -0.76000 ]
SCF: Cycle: 13   F: -24.432569896037535   dF: -3.553e-07   |Residual|: 2.755e-05   |deigs|: 3.079e-05  t[s]:    117.29
	FillingsUpdate:  mu: -0.082275795  nElectrons: 9.000000  magneticMoment: [ Abs: 0.76485  Tot: -0.76000 ]
SCF: Cycle: 14   F: -24.432570044996602   dF: -1.490e-07   |Residual|: 2.224e-05   |deigs|: 5.359e-05  t[s]:    124.22
	FillingsUpdate:  mu: -0.082227640  nElectrons: 9.000000  magneticMoment: [ Abs: 0.76483  Tot: -0.76000 ]
SCF: Cycle: 15   F: -24.432569837291766   dF: +2.077e-07   |Residual|: 2.280e-05   |deigs|: 5.788e-05  t[s]:    131.42
	FillingsUpdate:  mu: -0.082198191  nElectrons: 9.000000  magneticMoment: [ Abs: 0.76472  Tot: -0.76000 ]
SCF: Cycle: 16   F: -24.432569964549707   dF: -1.273e-07   |Residual|: 1.882e-05   |deigs|: 3.501e-05  t[s]:    138.51
	FillingsUpdate:  mu: -0.082183737  nElectrons: 9.000000  magneticMoment: [ Abs: 0.76472  Tot: -0.76000 ]
SCF: Cycle: 17   F: -24.432569996234523   dF: -3.168e-08   |Residual|: 1.146e-05   |deigs|: 2.211e-05  t[s]:    145.80
	FillingsUpdate:  mu: -0.082175597  nElectrons: 9.000000  magneticMoment: [ Abs: 0.76468  Tot: -0.76000 ]
SCF: Cycle: 18   F: -24.432570054957445   dF: -5.872e-08   |Residual|: 7.649e-06   |deigs|: 1.385e-05  t[s]:    153.18
	FillingsUpdate:  mu: -0.082166624  nElectrons: 9.000000  magneticMoment: [ Abs: 0.76465  Tot: -0.76000 ]
SCF: Cycle: 19   F: -24.432570103382773   dF: -4.843e-08   |Residual|: 4.281e-06   |deigs|: 1.586e-05  t[s]:    160.13
	FillingsUpdate:  mu: -0.082164081  nElectrons: 9.000000  magneticMoment: [ Abs: 0.76465  Tot: -0.76000 ]
SCF: Cycle: 20   F: -24.432570110901842   dF: -7.519e-09   |Residual|: 3.129e-06   |deigs|: 1.802e-05  t[s]:    166.63
	FillingsUpdate:  mu: -0.082163976  nElectrons: 9.000000  magneticMoment: [ Abs: 0.76465  Tot: -0.76000 ]
SCF: Cycle: 21   F: -24.432570115410769   dF: -4.509e-09   |Residual|: 2.338e-06   |deigs|: 2.577e-05  t[s]:    173.79
SCF: Converged (|Delta E|<1.000000e-08 for 2 iters).


# Ionic positions in lattice coordinates:
ion Rb   0.000000000000000   0.000000000000000   0.000000000000000 0

# Forces in Lattice coordinates:
force Rb   0.000000000000000   0.000000000000000   0.000000000000000 0

# Energy components:
   Eewald =       -9.0240130501663280
       EH =       10.5428800796715496
     Eloc =      -28.4685892047544229
      Enl =       -0.7923615058667814
   Epulay =        0.0000000056959385
      Exc =       -3.6526516925158727
       KE =        6.9621657891609434
-------------------------------------
     Etot =      -24.4325695787749737
       TS =        0.0000005366357941
-------------------------------------
        F =      -24.4325701154107691

IonicMinimize: Iter:   0  F: -24.432570115410769  |grad|_K:  0.000e+00  t[s]:    174.20
IonicMinimize: Converged (|grad|_K<1.000000e-04).

#--- Lowdin population analysis ---
# oxidation-state Rb +0.001
# magnetic-moments Rb -0.759

End date and time: Sun Feb  6 12:40:41 2022  (Duration: 0-0:02:54.25)
Done!
