
*************** JDFTx 1.6.0 (git hash 42ebbcc2) ***************

Start date and time: Sun Feb  6 12:37:54 2022
Executable jdftx with command-line: -i Alkali.in
Running on hosts (process indices):  d-17-8-4 (0-18)
Divided in process groups (process indices):  0 (0)  1 (1)  2 (2)  3 (3)  4 (4)  5 (5)  6 (6)  7 (7)  8 (8)  9 (9)  10 (10)  11 (11)  12 (12)  13 (13)  14 (14)  15 (15)  16 (16)  17 (17)  18 (18)
Resource initialization completed at t[s]:      0.00
Run totals: 19 processes, 48 threads, 0 GPUs


Input parsed successfully to the following command list (including defaults):

basis kpoint-dependent
coords-type Lattice
core-overlap-check vector
coulomb-interaction Slab 001
davidson-band-ratio 1.1
dump End None
dump-name $INPUT.$VAR
elec-cutoff 20
elec-eigen-algo Davidson
elec-ex-corr gga-PBE
elec-initial-magnetization -0.680000 yes
elec-smearing Fermi 1e-05
electronic-minimize  \
	dirUpdateScheme      FletcherReeves \
	linminMethod         DirUpdateRecommended \
	nIterations          100 \
	history              15 \
	knormThreshold       0 \
	energyDiffThreshold  1e-08 \
	nEnergyDiff          2 \
	alphaTstart          1 \
	alphaTmin            1e-10 \
	updateTestStepSize   yes \
	alphaTreduceFactor   0.1 \
	alphaTincreaseFactor 3 \
	nAlphaAdjustMax      3 \
	wolfeEnergy          0.0001 \
	wolfeGradient        0.9 \
	fdTest               no
electronic-scf  \
	nIterations	10000 \
	energyDiffThreshold	1e-08 \
	residualThreshold	1e-07 \
	mixFraction	0.5 \
	qMetric	0.8 \
	history	10 \
	nEigSteps	2 \
	eigDiffThreshold	1e-08 \
	mixedVariable	Density \
	qKerker	0.8 \
	qKappa	-1 \
	verbose	no \
	mixFractionMag	1.5
exchange-regularization WignerSeitzTruncated
fluid None
fluid-ex-corr (null) lda-PZ
fluid-gummel-loop 10 1.000000e-05
fluid-minimize  \
	dirUpdateScheme      PolakRibiere \
	linminMethod         DirUpdateRecommended \
	nIterations          100 \
	history              15 \
	knormThreshold       0 \
	energyDiffThreshold  0 \
	nEnergyDiff          2 \
	alphaTstart          1 \
	alphaTmin            1e-10 \
	updateTestStepSize   yes \
	alphaTreduceFactor   0.1 \
	alphaTincreaseFactor 3 \
	nAlphaAdjustMax      3 \
	wolfeEnergy          0.0001 \
	wolfeGradient        0.9 \
	fdTest               no
fluid-solvent H2O 55.338 ScalarEOS \
	epsBulk 78.4 \
	pMol 0.92466 \
	epsInf 1.77 \
	Pvap 1.06736e-10 \
	sigmaBulk 4.62e-05 \
	Rvdw 2.61727 \
	Res 1.42 \
	tauNuc 343133 \
	poleEl 15 7 1
forces-output-coords Positions
ion Rb   0.000000000000000   0.000000000000000   0.000000000000000 0
ion-species SG15/$ID_ONCV_PBE.upf
ion-width 0
ionic-minimize  \
	dirUpdateScheme      L-BFGS \
	linminMethod         DirUpdateRecommended \
	nIterations          0 \
	history              15 \
	knormThreshold       0.0001 \
	energyDiffThreshold  1e-06 \
	nEnergyDiff          2 \
	alphaTstart          1 \
	alphaTmin            1e-10 \
	updateTestStepSize   yes \
	alphaTreduceFactor   0.1 \
	alphaTincreaseFactor 3 \
	nAlphaAdjustMax      3 \
	wolfeEnergy          0.0001 \
	wolfeGradient        0.9 \
	fdTest               no
kpoint   0.000000000000   0.000000000000   0.000000000000  1.00000000000000
kpoint-folding 12 12 1 
latt-move-scale 1 1 1
latt-scale 4 4 1 
lattice  \
	   4.727486978767153   -2.363743489383575    0.000000000000000  \
	  -0.000000000000000    4.094123819672498    0.000000000000000  \
	   0.000000000000000    0.000000000000000   40.000000000000000 
lattice-minimize  \
	dirUpdateScheme      L-BFGS \
	linminMethod         DirUpdateRecommended \
	nIterations          0 \
	history              15 \
	knormThreshold       0 \
	energyDiffThreshold  1e-06 \
	nEnergyDiff          2 \
	alphaTstart          1 \
	alphaTmin            1e-10 \
	updateTestStepSize   yes \
	alphaTreduceFactor   0.1 \
	alphaTincreaseFactor 3 \
	nAlphaAdjustMax      3 \
	wolfeEnergy          0.0001 \
	wolfeGradient        0.9 \
	fdTest               no
lcao-params -1 1e-06 1e-05
pcm-variant GLSSA13
spintype z-spin
subspace-rotation-factor 1 yes
symmetries automatic
symmetry-threshold 0.0001



---------- Setting up symmetries ----------

Found 24 point-group symmetries of the bravais lattice
Found 24 space-group symmetries with basis
Applied RMS atom displacement 0 bohrs to make symmetries exact.

---------- Initializing the Grid ----------
R = 
[      18.9099     -9.45497            0  ]
[            0      16.3765            0  ]
[            0            0           40  ]
unit cell volume = 12387.1
G =
[   0.332269   0.191835         -0  ]
[          0   0.383671         -0  ]
[         -0         -0    0.15708  ]
Minimum fftbox size, Smin = [  80  80  164  ]
Chosen fftbox size, S = [  80  80  168  ]

---------- Exchange Correlation functional ----------
Initalized PBE GGA exchange.
Initalized PBE GGA correlation.

---------- Setting up pseudopotentials ----------
Width of ionic core gaussian charges (only for fluid interactions / plotting) set to 0

Reading pseudopotential file '/home/gridsan/aligho/DFT/build-Nov24/pseudopotentials/SG15/Rb_ONCV_PBE.upf':
  'Rb' pseudopotential, 'PBE' functional
  Generated using ONCVPSP code by D. R. Hamann
  Author: Martin Schlipf and Francois Gygi  Date: 150915.
  9 valence electrons, 3 orbitals, 6 projectors, 2308 radial grid points, with lMax = 2
  Transforming local potential to a uniform radial grid of dG=0.02 with 1489 points.
  Transforming nonlocal projectors to a uniform radial grid of dG=0.02 with 432 points.
    4S    l: 0   occupation:  2.0   eigenvalue: -1.172069
    4P    l: 1   occupation:  6.0   eigenvalue: -0.586674
    5S    l: 0   occupation:  1.0   eigenvalue: -0.082006
  Transforming atomic orbitals to a uniform radial grid of dG=0.02 with 432 points.
  Core radius for overlap checks: 2.60 bohrs.
  Reading pulay file /home/gridsan/aligho/DFT/build-Nov24/pseudopotentials/SG15/Rb_ONCV_PBE.pulay ... using dE_dnG = -1.360715e-05 computed for Ecut = 20.

Initialized 1 species with 1 total atoms.

Folded 1 k-points by 12x12x1 to 144 k-points.

---------- Setting up k-points, bands, fillings ----------
Reduced to 19 k-points under symmetry. 
Computing the number of bands and number of electrons
Calculating initial fillings.
nElectrons:   9.000000   nBands: 6   nStates: 38

----- Setting up reduced wavefunction bases (one per k-point) -----
average nbasis = 52924.021 , ideal nbasis = 52918.836

---------- Setting up coulomb interaction ----------
Initialized slab truncation along lattice direction 001

---------- Setting up 2D ewald sum ----------
Optimum gaussian width for ewald sums = 10.498040 bohr.
Real space sums over 289 unit cells with max indices [  8  8  0  ]
Reciprocal space sums over 81 terms with max indices [  4  4  0  ]

---------- Allocating electronic variables ----------
Initializing wave functions:  linear combination of atomic orbitals
Note: number of bands (6) exceeds available atomic orbitals (5)
Rb pseudo-atom occupations:   s ( 2 1 )  p ( 6 )
	FillingsUpdate:  mu: -0.082712480  nElectrons: 9.000000  magneticMoment: [ Abs: 0.68000  Tot: -0.68000 ]
LCAOMinimize: Iter:   0  F: -24.4320704327073450  |grad|_K:  3.020e-06  alpha:  1.000e+00
	FillingsUpdate:  mu: -0.082711811  nElectrons: 9.000000  magneticMoment: [ Abs: 0.68000  Tot: -0.68000 ]
LCAOMinimize: Iter:   1  F: -24.4320704388841783  |grad|_K:  1.624e-08  alpha:  9.899e-01  linmin: -1.391e-03  cgtest:  1.110e-01  t[s]:     15.24
LCAOMinimize: Encountered beta<0, resetting CG.
LCAOMinimize: 	Step increased F by 7.815970e-14, reducing alpha to 5.788843e-02.
	FillingsUpdate:  mu: -0.082711811  nElectrons: 9.000000  magneticMoment: [ Abs: 0.68000  Tot: -0.68000 ]
LCAOMinimize: Iter:   2  F: -24.4320704388842067  |grad|_K:  1.530e-08  alpha:  5.789e-02  linmin: -1.473e-02  cgtest:  1.000e+00  t[s]:     21.69
LCAOMinimize: Encountered beta<0, resetting CG.
LCAOMinimize: Converged (|Delta F|<1.000000e-06 for 2 iters).


---- Citations for features of the code used in this run ----

   Software package:
      R. Sundararaman, K. Letchworth-Weaver, K.A. Schwarz, D. Gunceler, Y. Ozhabes and T.A. Arias, 'JDFTx: software for joint density-functional theory', SoftwareX 6, 278 (2017)

   gga-PBE exchange-correlation functional:
      J.P. Perdew, K. Burke and M. Ernzerhof, Phys. Rev. Lett. 77, 3865 (1996)

   Pseudopotentials:
      M Schlipf and F Gygi, Comput. Phys. Commun. 196, 36 (2015)

   Truncated Coulomb potentials:
      R. Sundararaman and T.A. Arias, Phys. Rev. B 87, 165122 (2013)

This list may not be complete. Please suggest additional citations or
report any other bugs at https://github.com/shankar1729/jdftx/issues

Initialization completed successfully at t[s]:     21.96


-------- Electronic minimization -----------
Will mix electronic density at each iteration.
	FillingsUpdate:  mu: -0.082711811  nElectrons: 9.000000  magneticMoment: [ Abs: 0.68000  Tot: -0.68000 ]
	FillingsUpdate:  mu: -0.082814864  nElectrons: 9.000000  magneticMoment: [ Abs: 0.68000  Tot: -0.68000 ]
SCF: Cycle:  0   F: -24.432175938634803   dF: -1.055e-04   |Residual|: 1.551e-03   |deigs|: 1.713e-01  t[s]:     30.21
	FillingsUpdate:  mu: -0.082814252  nElectrons: 9.000000  magneticMoment: [ Abs: 0.68352  Tot: -0.68000 ]
SCF: Cycle:  1   F: -24.432178015600091   dF: -2.077e-06   |Residual|: 3.823e-04   |deigs|: 8.045e-03  t[s]:     36.69
	FillingsUpdate:  mu: -0.082799335  nElectrons: 9.000000  magneticMoment: [ Abs: 0.68360  Tot: -0.68000 ]
SCF: Cycle:  2   F: -24.432178528411221   dF: -5.128e-07   |Residual|: 2.191e-04   |deigs|: 1.812e-03  t[s]:     43.32
	FillingsUpdate:  mu: -0.082790057  nElectrons: 9.000000  magneticMoment: [ Abs: 0.68415  Tot: -0.68000 ]
SCF: Cycle:  3   F: -24.432178817439890   dF: -2.890e-07   |Residual|: 1.616e-04   |deigs|: 7.359e-04  t[s]:     49.99
	FillingsUpdate:  mu: -0.082757101  nElectrons: 9.000000  magneticMoment: [ Abs: 0.68410  Tot: -0.68000 ]
SCF: Cycle:  4   F: -24.432179069832742   dF: -2.524e-07   |Residual|: 1.227e-04   |deigs|: 4.265e-04  t[s]:     56.87
	FillingsUpdate:  mu: -0.082716876  nElectrons: 9.000000  magneticMoment: [ Abs: 0.68414  Tot: -0.68000 ]
SCF: Cycle:  5   F: -24.432179212009139   dF: -1.422e-07   |Residual|: 8.795e-05   |deigs|: 6.261e-04  t[s]:     63.78
	FillingsUpdate:  mu: -0.082670820  nElectrons: 9.000000  magneticMoment: [ Abs: 0.68407  Tot: -0.68000 ]
SCF: Cycle:  6   F: -24.432179288777348   dF: -7.677e-08   |Residual|: 6.472e-05   |deigs|: 3.575e-04  t[s]:     70.91
	FillingsUpdate:  mu: -0.082644053  nElectrons: 9.000000  magneticMoment: [ Abs: 0.68410  Tot: -0.68000 ]
SCF: Cycle:  7   F: -24.432179346209484   dF: -5.743e-08   |Residual|: 5.336e-05   |deigs|: 5.835e-04  t[s]:     78.10
	FillingsUpdate:  mu: -0.082624342  nElectrons: 9.000000  magneticMoment: [ Abs: 0.68409  Tot: -0.68000 ]
SCF: Cycle:  8   F: -24.432179387119518   dF: -4.091e-08   |Residual|: 4.551e-05   |deigs|: 3.889e-04  t[s]:     85.36
	FillingsUpdate:  mu: -0.082598733  nElectrons: 9.000000  magneticMoment: [ Abs: 0.68408  Tot: -0.68000 ]
SCF: Cycle:  9   F: -24.432179420767802   dF: -3.365e-08   |Residual|: 3.515e-05   |deigs|: 9.562e-05  t[s]:     92.80
	FillingsUpdate:  mu: -0.082582326  nElectrons: 9.000000  magneticMoment: [ Abs: 0.68411  Tot: -0.68000 ]
SCF: Cycle: 10   F: -24.432179401251517   dF: +1.952e-08   |Residual|: 3.010e-05   |deigs|: 9.690e-05  t[s]:    100.37
	FillingsUpdate:  mu: -0.082559017  nElectrons: 9.000000  magneticMoment: [ Abs: 0.68418  Tot: -0.68000 ]
SCF: Cycle: 11   F: -24.432179296733736   dF: +1.045e-07   |Residual|: 2.814e-05   |deigs|: 1.025e-04  t[s]:    107.89
	FillingsUpdate:  mu: -0.082546317  nElectrons: 9.000000  magneticMoment: [ Abs: 0.68421  Tot: -0.68000 ]
SCF: Cycle: 12   F: -24.432179275211872   dF: +2.152e-08   |Residual|: 2.619e-05   |deigs|: 8.346e-05  t[s]:    115.04
	FillingsUpdate:  mu: -0.082505459  nElectrons: 9.000000  magneticMoment: [ Abs: 0.68429  Tot: -0.68000 ]
SCF: Cycle: 13   F: -24.432179216511926   dF: +5.870e-08   |Residual|: 2.588e-05   |deigs|: 7.563e-05  t[s]:    122.51
	FillingsUpdate:  mu: -0.082468690  nElectrons: 9.000000  magneticMoment: [ Abs: 0.68434  Tot: -0.68000 ]
SCF: Cycle: 14   F: -24.432179359764206   dF: -1.433e-07   |Residual|: 2.116e-05   |deigs|: 4.543e-05  t[s]:    129.96
	FillingsUpdate:  mu: -0.082412228  nElectrons: 9.000000  magneticMoment: [ Abs: 0.68432  Tot: -0.68000 ]
SCF: Cycle: 15   F: -24.432179238775113   dF: +1.210e-07   |Residual|: 1.972e-05   |deigs|: 6.599e-05  t[s]:    137.38
	FillingsUpdate:  mu: -0.082392098  nElectrons: 9.000000  magneticMoment: [ Abs: 0.68421  Tot: -0.68000 ]
SCF: Cycle: 16   F: -24.432179389731239   dF: -1.510e-07   |Residual|: 1.598e-05   |deigs|: 2.473e-05  t[s]:    144.52
	FillingsUpdate:  mu: -0.082385565  nElectrons: 9.000000  magneticMoment: [ Abs: 0.68416  Tot: -0.68000 ]
SCF: Cycle: 17   F: -24.432179380361983   dF: +9.369e-09   |Residual|: 1.270e-05   |deigs|: 1.650e-05  t[s]:    151.89
	FillingsUpdate:  mu: -0.082380853  nElectrons: 9.000000  magneticMoment: [ Abs: 0.68414  Tot: -0.68000 ]
SCF: Cycle: 18   F: -24.432179480660857   dF: -1.003e-07   |Residual|: 7.517e-06   |deigs|: 1.545e-05  t[s]:    159.43
	FillingsUpdate:  mu: -0.082377597  nElectrons: 9.000000  magneticMoment: [ Abs: 0.68410  Tot: -0.68000 ]
SCF: Cycle: 19   F: -24.432179458833524   dF: +2.183e-08   |Residual|: 5.595e-06   |deigs|: 1.050e-05  t[s]:    166.27
	FillingsUpdate:  mu: -0.082378611  nElectrons: 9.000000  magneticMoment: [ Abs: 0.68410  Tot: -0.68000 ]
SCF: Cycle: 20   F: -24.432179497093859   dF: -3.826e-08   |Residual|: 4.259e-06   |deigs|: 1.471e-05  t[s]:    173.54
	FillingsUpdate:  mu: -0.082383015  nElectrons: 9.000000  magneticMoment: [ Abs: 0.68410  Tot: -0.68000 ]
SCF: Cycle: 21   F: -24.432179498239883   dF: -1.146e-09   |Residual|: 3.302e-06   |deigs|: 2.173e-05  t[s]:    180.42
	FillingsUpdate:  mu: -0.082384596  nElectrons: 9.000000  magneticMoment: [ Abs: 0.68409  Tot: -0.68000 ]
SCF: Cycle: 22   F: -24.432179502612456   dF: -4.373e-09   |Residual|: 2.494e-06   |deigs|: 2.623e-05  t[s]:    187.86
SCF: Converged (|Delta E|<1.000000e-08 for 2 iters).


# Ionic positions in lattice coordinates:
ion Rb   0.000000000000000   0.000000000000000   0.000000000000000 0

# Forces in Lattice coordinates:
force Rb   0.000000000000000   0.000000000000000   0.000000000000000 0

# Energy components:
   Eewald =       -9.0240130501663280
       EH =       10.5379756808257952
     Eloc =      -28.4633126277499393
      Enl =       -0.7925304133565702
   Epulay =        0.0000000056959385
      Exc =       -3.6516205995913062
       KE =        6.9613226435960485
-------------------------------------
     Etot =      -24.4321783607463630
       TS =        0.0000011418660934
-------------------------------------
        F =      -24.4321795026124562

IonicMinimize: Iter:   0  F: -24.432179502612456  |grad|_K:  0.000e+00  t[s]:    188.27
IonicMinimize: Converged (|grad|_K<1.000000e-04).

#--- Lowdin population analysis ---
# oxidation-state Rb +0.001
# magnetic-moments Rb -0.679

End date and time: Sun Feb  6 12:41:03 2022  (Duration: 0-0:03:08.34)
Done!
