
*************** JDFTx 1.6.0 (git hash 42ebbcc2) ***************

Start date and time: Sun Feb  6 12:50:13 2022
Executable jdftx with command-line: -i Alkali.in
Running on hosts (process indices):  d-4-5-2 (0-18)
Divided in process groups (process indices):  0 (0)  1 (1)  2 (2)  3 (3)  4 (4)  5 (5)  6 (6)  7 (7)  8 (8)  9 (9)  10 (10)  11 (11)  12 (12)  13 (13)  14 (14)  15 (15)  16 (16)  17 (17)  18 (18)
Resource initialization completed at t[s]:      0.00
Run totals: 19 processes, 48 threads, 0 GPUs


Input parsed successfully to the following command list (including defaults):

basis kpoint-dependent
coords-type Lattice
core-overlap-check vector
coulomb-interaction Slab 001
davidson-band-ratio 1.1
dump End None
dump-name $INPUT.$VAR
elec-cutoff 20
elec-eigen-algo Davidson
elec-ex-corr gga-PBE
elec-initial-magnetization 0.020000 yes
elec-smearing Fermi 1e-05
electronic-minimize  \
	dirUpdateScheme      FletcherReeves \
	linminMethod         DirUpdateRecommended \
	nIterations          100 \
	history              15 \
	knormThreshold       0 \
	energyDiffThreshold  1e-08 \
	nEnergyDiff          2 \
	alphaTstart          1 \
	alphaTmin            1e-10 \
	updateTestStepSize   yes \
	alphaTreduceFactor   0.1 \
	alphaTincreaseFactor 3 \
	nAlphaAdjustMax      3 \
	wolfeEnergy          0.0001 \
	wolfeGradient        0.9 \
	fdTest               no
electronic-scf  \
	nIterations	10000 \
	energyDiffThreshold	1e-08 \
	residualThreshold	1e-07 \
	mixFraction	0.5 \
	qMetric	0.8 \
	history	10 \
	nEigSteps	2 \
	eigDiffThreshold	1e-08 \
	mixedVariable	Density \
	qKerker	0.8 \
	qKappa	-1 \
	verbose	no \
	mixFractionMag	1.5
exchange-regularization WignerSeitzTruncated
fluid None
fluid-ex-corr (null) lda-PZ
fluid-gummel-loop 10 1.000000e-05
fluid-minimize  \
	dirUpdateScheme      PolakRibiere \
	linminMethod         DirUpdateRecommended \
	nIterations          100 \
	history              15 \
	knormThreshold       0 \
	energyDiffThreshold  0 \
	nEnergyDiff          2 \
	alphaTstart          1 \
	alphaTmin            1e-10 \
	updateTestStepSize   yes \
	alphaTreduceFactor   0.1 \
	alphaTincreaseFactor 3 \
	nAlphaAdjustMax      3 \
	wolfeEnergy          0.0001 \
	wolfeGradient        0.9 \
	fdTest               no
fluid-solvent H2O 55.338 ScalarEOS \
	epsBulk 78.4 \
	pMol 0.92466 \
	epsInf 1.77 \
	Pvap 1.06736e-10 \
	sigmaBulk 4.62e-05 \
	Rvdw 2.61727 \
	Res 1.42 \
	tauNuc 343133 \
	poleEl 15 7 1
forces-output-coords Positions
ion Rb   0.000000000000000   0.000000000000000   0.000000000000000 0
ion-species SG15/$ID_ONCV_PBE.upf
ion-width 0
ionic-minimize  \
	dirUpdateScheme      L-BFGS \
	linminMethod         DirUpdateRecommended \
	nIterations          0 \
	history              15 \
	knormThreshold       0.0001 \
	energyDiffThreshold  1e-06 \
	nEnergyDiff          2 \
	alphaTstart          1 \
	alphaTmin            1e-10 \
	updateTestStepSize   yes \
	alphaTreduceFactor   0.1 \
	alphaTincreaseFactor 3 \
	nAlphaAdjustMax      3 \
	wolfeEnergy          0.0001 \
	wolfeGradient        0.9 \
	fdTest               no
kpoint   0.000000000000   0.000000000000   0.000000000000  1.00000000000000
kpoint-folding 12 12 1 
latt-move-scale 1 1 1
latt-scale 4 4 1 
lattice  \
	   4.727486978767153   -2.363743489383575    0.000000000000000  \
	  -0.000000000000000    4.094123819672498    0.000000000000000  \
	   0.000000000000000    0.000000000000000   40.000000000000000 
lattice-minimize  \
	dirUpdateScheme      L-BFGS \
	linminMethod         DirUpdateRecommended \
	nIterations          0 \
	history              15 \
	knormThreshold       0 \
	energyDiffThreshold  1e-06 \
	nEnergyDiff          2 \
	alphaTstart          1 \
	alphaTmin            1e-10 \
	updateTestStepSize   yes \
	alphaTreduceFactor   0.1 \
	alphaTincreaseFactor 3 \
	nAlphaAdjustMax      3 \
	wolfeEnergy          0.0001 \
	wolfeGradient        0.9 \
	fdTest               no
lcao-params -1 1e-06 1e-05
pcm-variant GLSSA13
spintype z-spin
subspace-rotation-factor 1 yes
symmetries automatic
symmetry-threshold 0.0001



---------- Setting up symmetries ----------

Found 24 point-group symmetries of the bravais lattice
Found 24 space-group symmetries with basis
Applied RMS atom displacement 0 bohrs to make symmetries exact.

---------- Initializing the Grid ----------
R = 
[      18.9099     -9.45497            0  ]
[            0      16.3765            0  ]
[            0            0           40  ]
unit cell volume = 12387.1
G =
[   0.332269   0.191835         -0  ]
[          0   0.383671         -0  ]
[         -0         -0    0.15708  ]
Minimum fftbox size, Smin = [  80  80  164  ]
Chosen fftbox size, S = [  80  80  168  ]

---------- Exchange Correlation functional ----------
Initalized PBE GGA exchange.
Initalized PBE GGA correlation.

---------- Setting up pseudopotentials ----------
Width of ionic core gaussian charges (only for fluid interactions / plotting) set to 0

Reading pseudopotential file '/home/gridsan/aligho/DFT/build-Nov24/pseudopotentials/SG15/Rb_ONCV_PBE.upf':
  'Rb' pseudopotential, 'PBE' functional
  Generated using ONCVPSP code by D. R. Hamann
  Author: Martin Schlipf and Francois Gygi  Date: 150915.
  9 valence electrons, 3 orbitals, 6 projectors, 2308 radial grid points, with lMax = 2
  Transforming local potential to a uniform radial grid of dG=0.02 with 1489 points.
  Transforming nonlocal projectors to a uniform radial grid of dG=0.02 with 432 points.
    4S    l: 0   occupation:  2.0   eigenvalue: -1.172069
    4P    l: 1   occupation:  6.0   eigenvalue: -0.586674
    5S    l: 0   occupation:  1.0   eigenvalue: -0.082006
  Transforming atomic orbitals to a uniform radial grid of dG=0.02 with 432 points.
  Core radius for overlap checks: 2.60 bohrs.
  Reading pulay file /home/gridsan/aligho/DFT/build-Nov24/pseudopotentials/SG15/Rb_ONCV_PBE.pulay ... using dE_dnG = -1.360715e-05 computed for Ecut = 20.

Initialized 1 species with 1 total atoms.

Folded 1 k-points by 12x12x1 to 144 k-points.

---------- Setting up k-points, bands, fillings ----------
Reduced to 19 k-points under symmetry. 
Computing the number of bands and number of electrons
Calculating initial fillings.
nElectrons:   9.000000   nBands: 6   nStates: 38

----- Setting up reduced wavefunction bases (one per k-point) -----
average nbasis = 52924.021 , ideal nbasis = 52918.836

---------- Setting up coulomb interaction ----------
Initialized slab truncation along lattice direction 001

---------- Setting up 2D ewald sum ----------
Optimum gaussian width for ewald sums = 10.498040 bohr.
Real space sums over 289 unit cells with max indices [  8  8  0  ]
Reciprocal space sums over 81 terms with max indices [  4  4  0  ]

---------- Allocating electronic variables ----------
Initializing wave functions:  linear combination of atomic orbitals
Note: number of bands (6) exceeds available atomic orbitals (5)
Rb pseudo-atom occupations:   s ( 2 1 )  p ( 6 )
	FillingsUpdate:  mu: -0.082581677  nElectrons: 9.000000  magneticMoment: [ Abs: 0.02000  Tot: +0.02000 ]
LCAOMinimize: Iter:   0  F: -24.4305500334114782  |grad|_K:  5.347e-06  alpha:  1.000e+00
	FillingsUpdate:  mu: -0.082580504  nElectrons: 9.000000  magneticMoment: [ Abs: 0.02000  Tot: +0.02000 ]
LCAOMinimize: Iter:   1  F: -24.4305500527083268  |grad|_K:  2.605e-08  alpha:  9.867e-01  linmin: -8.990e-03  cgtest:  3.097e-01  t[s]:     15.01
LCAOMinimize: Encountered beta<0, resetting CG.
	FillingsUpdate:  mu: -0.082580502  nElectrons: 9.000000  magneticMoment: [ Abs: 0.02000  Tot: +0.02000 ]
LCAOMinimize: Iter:   2  F: -24.4305500527086998  |grad|_K:  1.245e-08  alpha:  1.479e+00  linmin:  1.810e-02  cgtest: -1.000e+00  t[s]:     18.98
LCAOMinimize: Converged (|Delta F|<1.000000e-06 for 2 iters).


---- Citations for features of the code used in this run ----

   Software package:
      R. Sundararaman, K. Letchworth-Weaver, K.A. Schwarz, D. Gunceler, Y. Ozhabes and T.A. Arias, 'JDFTx: software for joint density-functional theory', SoftwareX 6, 278 (2017)

   gga-PBE exchange-correlation functional:
      J.P. Perdew, K. Burke and M. Ernzerhof, Phys. Rev. Lett. 77, 3865 (1996)

   Pseudopotentials:
      M Schlipf and F Gygi, Comput. Phys. Commun. 196, 36 (2015)

   Truncated Coulomb potentials:
      R. Sundararaman and T.A. Arias, Phys. Rev. B 87, 165122 (2013)

This list may not be complete. Please suggest additional citations or
report any other bugs at https://github.com/shankar1729/jdftx/issues

Initialization completed successfully at t[s]:     19.24


-------- Electronic minimization -----------
Will mix electronic density at each iteration.
	FillingsUpdate:  mu: -0.082580502  nElectrons: 9.000000  magneticMoment: [ Abs: 0.02000  Tot: +0.02000 ]
	FillingsUpdate:  mu: -0.082686052  nElectrons: 9.000000  magneticMoment: [ Abs: 0.02000  Tot: +0.02000 ]
SCF: Cycle:  0   F: -24.430671498047193   dF: -1.214e-04   |Residual|: 6.552e-04   |deigs|: 1.759e-01  t[s]:     27.40
	FillingsUpdate:  mu: -0.082732215  nElectrons: 9.000000  magneticMoment: [ Abs: 0.02009  Tot: +0.02000 ]
SCF: Cycle:  1   F: -24.430672982919049   dF: -1.485e-06   |Residual|: 5.393e-04   |deigs|: 3.547e-03  t[s]:     33.81
	FillingsUpdate:  mu: -0.082862831  nElectrons: 9.000000  magneticMoment: [ Abs: 0.02011  Tot: +0.02000 ]
SCF: Cycle:  2   F: -24.430673914095223   dF: -9.312e-07   |Residual|: 3.589e-04   |deigs|: 1.553e-03  t[s]:     40.35
	FillingsUpdate:  mu: -0.082976522  nElectrons: 9.000000  magneticMoment: [ Abs: 0.02024  Tot: +0.02000 ]
SCF: Cycle:  3   F: -24.430674933783859   dF: -1.020e-06   |Residual|: 2.138e-04   |deigs|: 9.110e-04  t[s]:     47.00
	FillingsUpdate:  mu: -0.083063961  nElectrons: 9.000000  magneticMoment: [ Abs: 0.02009  Tot: +0.02000 ]
SCF: Cycle:  4   F: -24.430675557090016   dF: -6.233e-07   |Residual|: 1.628e-04   |deigs|: 6.736e-04  t[s]:     53.77
	FillingsUpdate:  mu: -0.083082918  nElectrons: 9.000000  magneticMoment: [ Abs: 0.02025  Tot: +0.02000 ]
SCF: Cycle:  5   F: -24.430675900736773   dF: -3.436e-07   |Residual|: 1.084e-04   |deigs|: 7.844e-04  t[s]:     60.64
	FillingsUpdate:  mu: -0.083069511  nElectrons: 9.000000  magneticMoment: [ Abs: 0.02012  Tot: +0.02000 ]
SCF: Cycle:  6   F: -24.430676126845537   dF: -2.261e-07   |Residual|: 7.072e-05   |deigs|: 7.207e-04  t[s]:     67.60
	FillingsUpdate:  mu: -0.083042309  nElectrons: 9.000000  magneticMoment: [ Abs: 0.02012  Tot: +0.02000 ]
SCF: Cycle:  7   F: -24.430676229501529   dF: -1.027e-07   |Residual|: 4.661e-05   |deigs|: 1.665e-04  t[s]:     74.73
	FillingsUpdate:  mu: -0.083022723  nElectrons: 9.000000  magneticMoment: [ Abs: 0.02012  Tot: +0.02000 ]
SCF: Cycle:  8   F: -24.430676263305013   dF: -3.380e-08   |Residual|: 3.850e-05   |deigs|: 3.267e-04  t[s]:     81.93
	FillingsUpdate:  mu: -0.083009239  nElectrons: 9.000000  magneticMoment: [ Abs: 0.02010  Tot: +0.02000 ]
SCF: Cycle:  9   F: -24.430676272222122   dF: -8.917e-09   |Residual|: 3.196e-05   |deigs|: 7.456e-05  t[s]:     89.24
	FillingsUpdate:  mu: -0.082982874  nElectrons: 9.000000  magneticMoment: [ Abs: 0.02016  Tot: +0.02000 ]
SCF: Cycle: 10   F: -24.430676282704585   dF: -1.048e-08   |Residual|: 2.795e-05   |deigs|: 2.294e-04  t[s]:     96.72
	FillingsUpdate:  mu: -0.082957207  nElectrons: 9.000000  magneticMoment: [ Abs: 0.02011  Tot: +0.02000 ]
SCF: Cycle: 11   F: -24.430676283079610   dF: -3.750e-10   |Residual|: 2.554e-05   |deigs|: 6.754e-05  t[s]:    104.12
	FillingsUpdate:  mu: -0.082926725  nElectrons: 9.000000  magneticMoment: [ Abs: 0.02014  Tot: +0.02000 ]
SCF: Cycle: 12   F: -24.430676273839104   dF: +9.241e-09   |Residual|: 2.147e-05   |deigs|: 3.586e-05  t[s]:    111.54
	FillingsUpdate:  mu: -0.082910766  nElectrons: 9.000000  magneticMoment: [ Abs: 0.02012  Tot: +0.02000 ]
SCF: Cycle: 13   F: -24.430676274527009   dF: -6.879e-10   |Residual|: 2.067e-05   |deigs|: 1.822e-05  t[s]:    118.96
	FillingsUpdate:  mu: -0.082878718  nElectrons: 9.000000  magneticMoment: [ Abs: 0.02015  Tot: +0.02000 ]
SCF: Cycle: 14   F: -24.430676237279805   dF: +3.725e-08   |Residual|: 1.912e-05   |deigs|: 3.826e-05  t[s]:    126.32
	FillingsUpdate:  mu: -0.082852448  nElectrons: 9.000000  magneticMoment: [ Abs: 0.02016  Tot: +0.02000 ]
SCF: Cycle: 15   F: -24.430676282795790   dF: -4.552e-08   |Residual|: 1.651e-05   |deigs|: 2.884e-05  t[s]:    133.64
	FillingsUpdate:  mu: -0.082839144  nElectrons: 9.000000  magneticMoment: [ Abs: 0.02012  Tot: +0.02000 ]
SCF: Cycle: 16   F: -24.430676245887117   dF: +3.691e-08   |Residual|: 1.468e-05   |deigs|: 1.227e-05  t[s]:    140.91
	FillingsUpdate:  mu: -0.082829314  nElectrons: 9.000000  magneticMoment: [ Abs: 0.02013  Tot: +0.02000 ]
SCF: Cycle: 17   F: -24.430676280583754   dF: -3.470e-08   |Residual|: 1.085e-05   |deigs|: 5.626e-06  t[s]:    148.14
	FillingsUpdate:  mu: -0.082823931  nElectrons: 9.000000  magneticMoment: [ Abs: 0.02013  Tot: +0.02000 ]
SCF: Cycle: 18   F: -24.430676283210058   dF: -2.626e-09   |Residual|: 9.253e-06   |deigs|: 2.991e-06  t[s]:    155.58
	FillingsUpdate:  mu: -0.082820435  nElectrons: 9.000000  magneticMoment: [ Abs: 0.02012  Tot: +0.02000 ]
SCF: Cycle: 19   F: -24.430676298432843   dF: -1.522e-08   |Residual|: 7.029e-06   |deigs|: 2.912e-06  t[s]:    163.00
	FillingsUpdate:  mu: -0.082818239  nElectrons: 9.000000  magneticMoment: [ Abs: 0.02012  Tot: +0.02000 ]
SCF: Cycle: 20   F: -24.430676306231064   dF: -7.798e-09   |Residual|: 5.599e-06   |deigs|: 3.620e-06  t[s]:    169.79
	FillingsUpdate:  mu: -0.082816163  nElectrons: 9.000000  magneticMoment: [ Abs: 0.02012  Tot: +0.02000 ]
SCF: Cycle: 21   F: -24.430676311377198   dF: -5.146e-09   |Residual|: 4.559e-06   |deigs|: 5.339e-06  t[s]:    176.77
SCF: Converged (|Delta E|<1.000000e-08 for 2 iters).


# Ionic positions in lattice coordinates:
ion Rb   0.000000000000000   0.000000000000000   0.000000000000000 0

# Forces in Lattice coordinates:
force Rb  -0.000000000000000   0.000000000000000   0.000000000000000 0

# Energy components:
   Eewald =       -9.0240130501663280
       EH =       10.5156383579517207
     Eloc =      -28.4392728772275909
      Enl =       -0.7932610306645720
   Epulay =        0.0000000056959385
      Exc =       -3.6472854449953385
       KE =        6.9575182798548818
-------------------------------------
     Etot =      -24.4306757595512849
       TS =        0.0000005518259135
-------------------------------------
        F =      -24.4306763113771979

IonicMinimize: Iter:   0  F: -24.430676311377198  |grad|_K:  0.000e+00  t[s]:    177.18
IonicMinimize: Converged (|grad|_K<1.000000e-04).

#--- Lowdin population analysis ---
# oxidation-state Rb +0.002
# magnetic-moments Rb +0.020

End date and time: Sun Feb  6 12:53:10 2022  (Duration: 0-0:02:57.25)
Done!
