
*************** JDFTx 1.6.0 (git hash 42ebbcc2) ***************

Start date and time: Sun Feb  6 12:37:51 2022
Executable jdftx with command-line: -i Alkali.in
Running on hosts (process indices):  d-18-13-1 (0-18)
Divided in process groups (process indices):  0 (0)  1 (1)  2 (2)  3 (3)  4 (4)  5 (5)  6 (6)  7 (7)  8 (8)  9 (9)  10 (10)  11 (11)  12 (12)  13 (13)  14 (14)  15 (15)  16 (16)  17 (17)  18 (18)
Resource initialization completed at t[s]:      0.00
Run totals: 19 processes, 48 threads, 0 GPUs


Input parsed successfully to the following command list (including defaults):

basis kpoint-dependent
coords-type Lattice
core-overlap-check vector
coulomb-interaction Slab 001
davidson-band-ratio 1.1
dump End None
dump-name $INPUT.$VAR
elec-cutoff 20
elec-eigen-algo Davidson
elec-ex-corr gga-PBE
elec-initial-magnetization -0.560000 yes
elec-smearing Fermi 1e-05
electronic-minimize  \
	dirUpdateScheme      FletcherReeves \
	linminMethod         DirUpdateRecommended \
	nIterations          100 \
	history              15 \
	knormThreshold       0 \
	energyDiffThreshold  1e-08 \
	nEnergyDiff          2 \
	alphaTstart          1 \
	alphaTmin            1e-10 \
	updateTestStepSize   yes \
	alphaTreduceFactor   0.1 \
	alphaTincreaseFactor 3 \
	nAlphaAdjustMax      3 \
	wolfeEnergy          0.0001 \
	wolfeGradient        0.9 \
	fdTest               no
electronic-scf  \
	nIterations	10000 \
	energyDiffThreshold	1e-08 \
	residualThreshold	1e-07 \
	mixFraction	0.5 \
	qMetric	0.8 \
	history	10 \
	nEigSteps	2 \
	eigDiffThreshold	1e-08 \
	mixedVariable	Density \
	qKerker	0.8 \
	qKappa	-1 \
	verbose	no \
	mixFractionMag	1.5
exchange-regularization WignerSeitzTruncated
fluid None
fluid-ex-corr (null) lda-PZ
fluid-gummel-loop 10 1.000000e-05
fluid-minimize  \
	dirUpdateScheme      PolakRibiere \
	linminMethod         DirUpdateRecommended \
	nIterations          100 \
	history              15 \
	knormThreshold       0 \
	energyDiffThreshold  0 \
	nEnergyDiff          2 \
	alphaTstart          1 \
	alphaTmin            1e-10 \
	updateTestStepSize   yes \
	alphaTreduceFactor   0.1 \
	alphaTincreaseFactor 3 \
	nAlphaAdjustMax      3 \
	wolfeEnergy          0.0001 \
	wolfeGradient        0.9 \
	fdTest               no
fluid-solvent H2O 55.338 ScalarEOS \
	epsBulk 78.4 \
	pMol 0.92466 \
	epsInf 1.77 \
	Pvap 1.06736e-10 \
	sigmaBulk 4.62e-05 \
	Rvdw 2.61727 \
	Res 1.42 \
	tauNuc 343133 \
	poleEl 15 7 1
forces-output-coords Positions
ion Rb   0.000000000000000   0.000000000000000   0.000000000000000 0
ion-species SG15/$ID_ONCV_PBE.upf
ion-width 0
ionic-minimize  \
	dirUpdateScheme      L-BFGS \
	linminMethod         DirUpdateRecommended \
	nIterations          0 \
	history              15 \
	knormThreshold       0.0001 \
	energyDiffThreshold  1e-06 \
	nEnergyDiff          2 \
	alphaTstart          1 \
	alphaTmin            1e-10 \
	updateTestStepSize   yes \
	alphaTreduceFactor   0.1 \
	alphaTincreaseFactor 3 \
	nAlphaAdjustMax      3 \
	wolfeEnergy          0.0001 \
	wolfeGradient        0.9 \
	fdTest               no
kpoint   0.000000000000   0.000000000000   0.000000000000  1.00000000000000
kpoint-folding 12 12 1 
latt-move-scale 1 1 1
latt-scale 4 4 1 
lattice  \
	   4.727486978767153   -2.363743489383575    0.000000000000000  \
	  -0.000000000000000    4.094123819672498    0.000000000000000  \
	   0.000000000000000    0.000000000000000   40.000000000000000 
lattice-minimize  \
	dirUpdateScheme      L-BFGS \
	linminMethod         DirUpdateRecommended \
	nIterations          0 \
	history              15 \
	knormThreshold       0 \
	energyDiffThreshold  1e-06 \
	nEnergyDiff          2 \
	alphaTstart          1 \
	alphaTmin            1e-10 \
	updateTestStepSize   yes \
	alphaTreduceFactor   0.1 \
	alphaTincreaseFactor 3 \
	nAlphaAdjustMax      3 \
	wolfeEnergy          0.0001 \
	wolfeGradient        0.9 \
	fdTest               no
lcao-params -1 1e-06 1e-05
pcm-variant GLSSA13
spintype z-spin
subspace-rotation-factor 1 yes
symmetries automatic
symmetry-threshold 0.0001



---------- Setting up symmetries ----------

Found 24 point-group symmetries of the bravais lattice
Found 24 space-group symmetries with basis
Applied RMS atom displacement 0 bohrs to make symmetries exact.

---------- Initializing the Grid ----------
R = 
[      18.9099     -9.45497            0  ]
[            0      16.3765            0  ]
[            0            0           40  ]
unit cell volume = 12387.1
G =
[   0.332269   0.191835         -0  ]
[          0   0.383671         -0  ]
[         -0         -0    0.15708  ]
Minimum fftbox size, Smin = [  80  80  164  ]
Chosen fftbox size, S = [  80  80  168  ]

---------- Exchange Correlation functional ----------
Initalized PBE GGA exchange.
Initalized PBE GGA correlation.

---------- Setting up pseudopotentials ----------
Width of ionic core gaussian charges (only for fluid interactions / plotting) set to 0

Reading pseudopotential file '/home/gridsan/aligho/DFT/build-Nov24/pseudopotentials/SG15/Rb_ONCV_PBE.upf':
  'Rb' pseudopotential, 'PBE' functional
  Generated using ONCVPSP code by D. R. Hamann
  Author: Martin Schlipf and Francois Gygi  Date: 150915.
  9 valence electrons, 3 orbitals, 6 projectors, 2308 radial grid points, with lMax = 2
  Transforming local potential to a uniform radial grid of dG=0.02 with 1489 points.
  Transforming nonlocal projectors to a uniform radial grid of dG=0.02 with 432 points.
    4S    l: 0   occupation:  2.0   eigenvalue: -1.172069
    4P    l: 1   occupation:  6.0   eigenvalue: -0.586674
    5S    l: 0   occupation:  1.0   eigenvalue: -0.082006
  Transforming atomic orbitals to a uniform radial grid of dG=0.02 with 432 points.
  Core radius for overlap checks: 2.60 bohrs.
  Reading pulay file /home/gridsan/aligho/DFT/build-Nov24/pseudopotentials/SG15/Rb_ONCV_PBE.pulay ... using dE_dnG = -1.360715e-05 computed for Ecut = 20.

Initialized 1 species with 1 total atoms.

Folded 1 k-points by 12x12x1 to 144 k-points.

---------- Setting up k-points, bands, fillings ----------
Reduced to 19 k-points under symmetry. 
Computing the number of bands and number of electrons
Calculating initial fillings.
nElectrons:   9.000000   nBands: 6   nStates: 38

----- Setting up reduced wavefunction bases (one per k-point) -----
average nbasis = 52924.021 , ideal nbasis = 52918.836

---------- Setting up coulomb interaction ----------
Initialized slab truncation along lattice direction 001

---------- Setting up 2D ewald sum ----------
Optimum gaussian width for ewald sums = 10.498040 bohr.
Real space sums over 289 unit cells with max indices [  8  8  0  ]
Reciprocal space sums over 81 terms with max indices [  4  4  0  ]

---------- Allocating electronic variables ----------
Initializing wave functions:  linear combination of atomic orbitals
Note: number of bands (6) exceeds available atomic orbitals (5)
Rb pseudo-atom occupations:   s ( 2 1 )  p ( 6 )
	FillingsUpdate:  mu: -0.082758076  nElectrons: 9.000000  magneticMoment: [ Abs: 0.56000  Tot: -0.56000 ]
LCAOMinimize: Iter:   0  F: -24.4315843018331407  |grad|_K:  3.795e-06  alpha:  1.000e+00
	FillingsUpdate:  mu: -0.082757226  nElectrons: 9.000000  magneticMoment: [ Abs: 0.56000  Tot: -0.56000 ]
LCAOMinimize: Iter:   1  F: -24.4315843115763265  |grad|_K:  2.007e-08  alpha:  9.888e-01  linmin: -7.277e-04  cgtest:  1.743e-01  t[s]:     14.99
LCAOMinimize: Encountered beta<0, resetting CG.
LCAOMinimize: 	Step increased F by 3.197442e-14, reducing alpha to 2.298327e-01.
LCAOMinimize: 	Step increased F by 1.776357e-14, reducing alpha to 2.298327e-02.
	FillingsUpdate:  mu: -0.082757226  nElectrons: 9.000000  magneticMoment: [ Abs: 0.56000  Tot: -0.56000 ]
LCAOMinimize: Iter:   2  F: -24.4315843115764864  |grad|_K:  1.961e-08  alpha:  2.298e-02  linmin: -3.927e-03  cgtest:  1.000e+00  t[s]:     23.65
LCAOMinimize: Encountered beta<0, resetting CG.
LCAOMinimize: Converged (|Delta F|<1.000000e-06 for 2 iters).


---- Citations for features of the code used in this run ----

   Software package:
      R. Sundararaman, K. Letchworth-Weaver, K.A. Schwarz, D. Gunceler, Y. Ozhabes and T.A. Arias, 'JDFTx: software for joint density-functional theory', SoftwareX 6, 278 (2017)

   gga-PBE exchange-correlation functional:
      J.P. Perdew, K. Burke and M. Ernzerhof, Phys. Rev. Lett. 77, 3865 (1996)

   Pseudopotentials:
      M Schlipf and F Gygi, Comput. Phys. Commun. 196, 36 (2015)

   Truncated Coulomb potentials:
      R. Sundararaman and T.A. Arias, Phys. Rev. B 87, 165122 (2013)

This list may not be complete. Please suggest additional citations or
report any other bugs at https://github.com/shankar1729/jdftx/issues

Initialization completed successfully at t[s]:     23.91


-------- Electronic minimization -----------
Will mix electronic density at each iteration.
	FillingsUpdate:  mu: -0.082757226  nElectrons: 9.000000  magneticMoment: [ Abs: 0.56000  Tot: -0.56000 ]
	FillingsUpdate:  mu: -0.082855855  nElectrons: 9.000000  magneticMoment: [ Abs: 0.56000  Tot: -0.56000 ]
SCF: Cycle:  0   F: -24.431686014898400   dF: -1.017e-04   |Residual|: 1.305e-03   |deigs|: 1.734e-01  t[s]:     32.05
	FillingsUpdate:  mu: -0.082865808  nElectrons: 9.000000  magneticMoment: [ Abs: 0.56273  Tot: -0.56000 ]
SCF: Cycle:  1   F: -24.431687838776817   dF: -1.824e-06   |Residual|: 3.771e-04   |deigs|: 6.136e-03  t[s]:     38.42
	FillingsUpdate:  mu: -0.082870890  nElectrons: 9.000000  magneticMoment: [ Abs: 0.56286  Tot: -0.56000 ]
SCF: Cycle:  2   F: -24.431688313063507   dF: -4.743e-07   |Residual|: 2.395e-04   |deigs|: 1.677e-03  t[s]:     44.86
	FillingsUpdate:  mu: -0.082879358  nElectrons: 9.000000  magneticMoment: [ Abs: 0.56337  Tot: -0.56000 ]
SCF: Cycle:  3   F: -24.431688585390933   dF: -2.723e-07   |Residual|: 1.821e-04   |deigs|: 8.563e-04  t[s]:     51.40
	FillingsUpdate:  mu: -0.082878153  nElectrons: 9.000000  magneticMoment: [ Abs: 0.56330  Tot: -0.56000 ]
SCF: Cycle:  4   F: -24.431688879901024   dF: -2.945e-07   |Residual|: 1.369e-04   |deigs|: 2.041e-04  t[s]:     58.17
	FillingsUpdate:  mu: -0.082882149  nElectrons: 9.000000  magneticMoment: [ Abs: 0.56335  Tot: -0.56000 ]
SCF: Cycle:  5   F: -24.431689093506552   dF: -2.136e-07   |Residual|: 9.653e-05   |deigs|: 5.024e-04  t[s]:     65.00
	FillingsUpdate:  mu: -0.082873216  nElectrons: 9.000000  magneticMoment: [ Abs: 0.56332  Tot: -0.56000 ]
SCF: Cycle:  6   F: -24.431689245508835   dF: -1.520e-07   |Residual|: 6.576e-05   |deigs|: 5.108e-04  t[s]:     71.90
	FillingsUpdate:  mu: -0.082864054  nElectrons: 9.000000  magneticMoment: [ Abs: 0.56332  Tot: -0.56000 ]
SCF: Cycle:  7   F: -24.431689325556768   dF: -8.005e-08   |Residual|: 5.018e-05   |deigs|: 5.249e-04  t[s]:     78.93
	FillingsUpdate:  mu: -0.082850629  nElectrons: 9.000000  magneticMoment: [ Abs: 0.56331  Tot: -0.56000 ]
SCF: Cycle:  8   F: -24.431689369517319   dF: -4.396e-08   |Residual|: 4.088e-05   |deigs|: 3.256e-04  t[s]:     86.10
	FillingsUpdate:  mu: -0.082822762  nElectrons: 9.000000  magneticMoment: [ Abs: 0.56330  Tot: -0.56000 ]
SCF: Cycle:  9   F: -24.431689405720441   dF: -3.620e-08   |Residual|: 3.129e-05   |deigs|: 3.604e-04  t[s]:     93.32
	FillingsUpdate:  mu: -0.082799760  nElectrons: 9.000000  magneticMoment: [ Abs: 0.56333  Tot: -0.56000 ]
SCF: Cycle: 10   F: -24.431689396517278   dF: +9.203e-09   |Residual|: 2.844e-05   |deigs|: 1.129e-04  t[s]:    100.68
	FillingsUpdate:  mu: -0.082771449  nElectrons: 9.000000  magneticMoment: [ Abs: 0.56345  Tot: -0.56000 ]
SCF: Cycle: 11   F: -24.431689340234993   dF: +5.628e-08   |Residual|: 2.793e-05   |deigs|: 1.144e-04  t[s]:    108.12
	FillingsUpdate:  mu: -0.082743297  nElectrons: 9.000000  magneticMoment: [ Abs: 0.56352  Tot: -0.56000 ]
SCF: Cycle: 12   F: -24.431689187812168   dF: +1.524e-07   |Residual|: 2.496e-05   |deigs|: 9.935e-05  t[s]:    115.46
	FillingsUpdate:  mu: -0.082714265  nElectrons: 9.000000  magneticMoment: [ Abs: 0.56351  Tot: -0.56000 ]
SCF: Cycle: 13   F: -24.431689285344554   dF: -9.753e-08   |Residual|: 2.297e-05   |deigs|: 6.111e-05  t[s]:    122.77
	FillingsUpdate:  mu: -0.082687149  nElectrons: 9.000000  magneticMoment: [ Abs: 0.56354  Tot: -0.56000 ]
SCF: Cycle: 14   F: -24.431689409237997   dF: -1.239e-07   |Residual|: 1.804e-05   |deigs|: 3.935e-05  t[s]:    129.80
	FillingsUpdate:  mu: -0.082643505  nElectrons: 9.000000  magneticMoment: [ Abs: 0.56355  Tot: -0.56000 ]
SCF: Cycle: 15   F: -24.431689244614187   dF: +1.646e-07   |Residual|: 1.910e-05   |deigs|: 5.112e-05  t[s]:    136.99
	FillingsUpdate:  mu: -0.082614968  nElectrons: 9.000000  magneticMoment: [ Abs: 0.56344  Tot: -0.56000 ]
SCF: Cycle: 16   F: -24.431689379300433   dF: -1.347e-07   |Residual|: 1.559e-05   |deigs|: 3.421e-05  t[s]:    144.02
	FillingsUpdate:  mu: -0.082616443  nElectrons: 9.000000  magneticMoment: [ Abs: 0.56338  Tot: -0.56000 ]
SCF: Cycle: 17   F: -24.431689392358027   dF: -1.306e-08   |Residual|: 1.258e-05   |deigs|: 1.727e-05  t[s]:    150.97
	FillingsUpdate:  mu: -0.082610889  nElectrons: 9.000000  magneticMoment: [ Abs: 0.56334  Tot: -0.56000 ]
SCF: Cycle: 18   F: -24.431689430266946   dF: -3.791e-08   |Residual|: 8.992e-06   |deigs|: 1.124e-05  t[s]:    158.32
	FillingsUpdate:  mu: -0.082601545  nElectrons: 9.000000  magneticMoment: [ Abs: 0.56330  Tot: -0.56000 ]
SCF: Cycle: 19   F: -24.431689437789537   dF: -7.523e-09   |Residual|: 6.944e-06   |deigs|: 9.279e-06  t[s]:    165.49
	FillingsUpdate:  mu: -0.082600770  nElectrons: 9.000000  magneticMoment: [ Abs: 0.56331  Tot: -0.56000 ]
SCF: Cycle: 20   F: -24.431689464249686   dF: -2.646e-08   |Residual|: 5.365e-06   |deigs|: 3.345e-06  t[s]:    172.85
	FillingsUpdate:  mu: -0.082603827  nElectrons: 9.000000  magneticMoment: [ Abs: 0.56331  Tot: -0.56000 ]
SCF: Cycle: 21   F: -24.431689466321298   dF: -2.072e-09   |Residual|: 3.531e-06   |deigs|: 7.887e-06  t[s]:    179.77
	FillingsUpdate:  mu: -0.082605732  nElectrons: 9.000000  magneticMoment: [ Abs: 0.56331  Tot: -0.56000 ]
SCF: Cycle: 22   F: -24.431689475445406   dF: -9.124e-09   |Residual|: 2.377e-06   |deigs|: 7.837e-06  t[s]:    186.99
SCF: Converged (|Delta E|<1.000000e-08 for 2 iters).


# Ionic positions in lattice coordinates:
ion Rb   0.000000000000000   0.000000000000000   0.000000000000000 0

# Forces in Lattice coordinates:
force Rb  -0.000000000000000   0.000000000000000   0.000000000000000 0

# Energy components:
   Eewald =       -9.0240130501663280
       EH =       10.5312722430945271
     Eloc =      -28.4561000687095067
      Enl =       -0.7927517565672834
   Epulay =        0.0000000056959385
      Exc =       -3.6502611428233864
       KE =        6.9601656166148782
-------------------------------------
     Etot =      -24.4316881528611631
       TS =        0.0000013225842433
-------------------------------------
        F =      -24.4316894754454061

IonicMinimize: Iter:   0  F: -24.431689475445406  |grad|_K:  0.000e+00  t[s]:    187.40
IonicMinimize: Converged (|grad|_K<1.000000e-04).

#--- Lowdin population analysis ---
# oxidation-state Rb +0.001
# magnetic-moments Rb -0.559

End date and time: Sun Feb  6 12:40:59 2022  (Duration: 0-0:03:07.46)
Done!
