
*************** JDFTx 1.6.0 (git hash 42ebbcc2) ***************

Start date and time: Sun Feb  6 12:57:16 2022
Executable jdftx with command-line: -i Alkali.in
Running on hosts (process indices):  d-17-2-2 (0-18)
Divided in process groups (process indices):  0 (0)  1 (1)  2 (2)  3 (3)  4 (4)  5 (5)  6 (6)  7 (7)  8 (8)  9 (9)  10 (10)  11 (11)  12 (12)  13 (13)  14 (14)  15 (15)  16 (16)  17 (17)  18 (18)
Resource initialization completed at t[s]:      0.00
Run totals: 19 processes, 48 threads, 0 GPUs


Input parsed successfully to the following command list (including defaults):

basis kpoint-dependent
coords-type Lattice
core-overlap-check vector
coulomb-interaction Slab 001
davidson-band-ratio 1.1
dump End None
dump-name $INPUT.$VAR
elec-cutoff 20
elec-eigen-algo Davidson
elec-ex-corr gga-PBE
elec-initial-magnetization 0.740000 yes
elec-smearing Fermi 1e-05
electronic-minimize  \
	dirUpdateScheme      FletcherReeves \
	linminMethod         DirUpdateRecommended \
	nIterations          100 \
	history              15 \
	knormThreshold       0 \
	energyDiffThreshold  1e-08 \
	nEnergyDiff          2 \
	alphaTstart          1 \
	alphaTmin            1e-10 \
	updateTestStepSize   yes \
	alphaTreduceFactor   0.1 \
	alphaTincreaseFactor 3 \
	nAlphaAdjustMax      3 \
	wolfeEnergy          0.0001 \
	wolfeGradient        0.9 \
	fdTest               no
electronic-scf  \
	nIterations	10000 \
	energyDiffThreshold	1e-08 \
	residualThreshold	1e-07 \
	mixFraction	0.5 \
	qMetric	0.8 \
	history	10 \
	nEigSteps	2 \
	eigDiffThreshold	1e-08 \
	mixedVariable	Density \
	qKerker	0.8 \
	qKappa	-1 \
	verbose	no \
	mixFractionMag	1.5
exchange-regularization WignerSeitzTruncated
fluid None
fluid-ex-corr (null) lda-PZ
fluid-gummel-loop 10 1.000000e-05
fluid-minimize  \
	dirUpdateScheme      PolakRibiere \
	linminMethod         DirUpdateRecommended \
	nIterations          100 \
	history              15 \
	knormThreshold       0 \
	energyDiffThreshold  0 \
	nEnergyDiff          2 \
	alphaTstart          1 \
	alphaTmin            1e-10 \
	updateTestStepSize   yes \
	alphaTreduceFactor   0.1 \
	alphaTincreaseFactor 3 \
	nAlphaAdjustMax      3 \
	wolfeEnergy          0.0001 \
	wolfeGradient        0.9 \
	fdTest               no
fluid-solvent H2O 55.338 ScalarEOS \
	epsBulk 78.4 \
	pMol 0.92466 \
	epsInf 1.77 \
	Pvap 1.06736e-10 \
	sigmaBulk 4.62e-05 \
	Rvdw 2.61727 \
	Res 1.42 \
	tauNuc 343133 \
	poleEl 15 7 1
forces-output-coords Positions
ion Rb   0.000000000000000   0.000000000000000   0.000000000000000 0
ion-species SG15/$ID_ONCV_PBE.upf
ion-width 0
ionic-minimize  \
	dirUpdateScheme      L-BFGS \
	linminMethod         DirUpdateRecommended \
	nIterations          0 \
	history              15 \
	knormThreshold       0.0001 \
	energyDiffThreshold  1e-06 \
	nEnergyDiff          2 \
	alphaTstart          1 \
	alphaTmin            1e-10 \
	updateTestStepSize   yes \
	alphaTreduceFactor   0.1 \
	alphaTincreaseFactor 3 \
	nAlphaAdjustMax      3 \
	wolfeEnergy          0.0001 \
	wolfeGradient        0.9 \
	fdTest               no
kpoint   0.000000000000   0.000000000000   0.000000000000  1.00000000000000
kpoint-folding 12 12 1 
latt-move-scale 1 1 1
latt-scale 4 4 1 
lattice  \
	   4.727486978767153   -2.363743489383575    0.000000000000000  \
	  -0.000000000000000    4.094123819672498    0.000000000000000  \
	   0.000000000000000    0.000000000000000   40.000000000000000 
lattice-minimize  \
	dirUpdateScheme      L-BFGS \
	linminMethod         DirUpdateRecommended \
	nIterations          0 \
	history              15 \
	knormThreshold       0 \
	energyDiffThreshold  1e-06 \
	nEnergyDiff          2 \
	alphaTstart          1 \
	alphaTmin            1e-10 \
	updateTestStepSize   yes \
	alphaTreduceFactor   0.1 \
	alphaTincreaseFactor 3 \
	nAlphaAdjustMax      3 \
	wolfeEnergy          0.0001 \
	wolfeGradient        0.9 \
	fdTest               no
lcao-params -1 1e-06 1e-05
pcm-variant GLSSA13
spintype z-spin
subspace-rotation-factor 1 yes
symmetries automatic
symmetry-threshold 0.0001



---------- Setting up symmetries ----------

Found 24 point-group symmetries of the bravais lattice
Found 24 space-group symmetries with basis
Applied RMS atom displacement 0 bohrs to make symmetries exact.

---------- Initializing the Grid ----------
R = 
[      18.9099     -9.45497            0  ]
[            0      16.3765            0  ]
[            0            0           40  ]
unit cell volume = 12387.1
G =
[   0.332269   0.191835         -0  ]
[          0   0.383671         -0  ]
[         -0         -0    0.15708  ]
Minimum fftbox size, Smin = [  80  80  164  ]
Chosen fftbox size, S = [  80  80  168  ]

---------- Exchange Correlation functional ----------
Initalized PBE GGA exchange.
Initalized PBE GGA correlation.

---------- Setting up pseudopotentials ----------
Width of ionic core gaussian charges (only for fluid interactions / plotting) set to 0

Reading pseudopotential file '/home/gridsan/aligho/DFT/build-Nov24/pseudopotentials/SG15/Rb_ONCV_PBE.upf':
  'Rb' pseudopotential, 'PBE' functional
  Generated using ONCVPSP code by D. R. Hamann
  Author: Martin Schlipf and Francois Gygi  Date: 150915.
  9 valence electrons, 3 orbitals, 6 projectors, 2308 radial grid points, with lMax = 2
  Transforming local potential to a uniform radial grid of dG=0.02 with 1489 points.
  Transforming nonlocal projectors to a uniform radial grid of dG=0.02 with 432 points.
    4S    l: 0   occupation:  2.0   eigenvalue: -1.172069
    4P    l: 1   occupation:  6.0   eigenvalue: -0.586674
    5S    l: 0   occupation:  1.0   eigenvalue: -0.082006
  Transforming atomic orbitals to a uniform radial grid of dG=0.02 with 432 points.
  Core radius for overlap checks: 2.60 bohrs.
  Reading pulay file /home/gridsan/aligho/DFT/build-Nov24/pseudopotentials/SG15/Rb_ONCV_PBE.pulay ... using dE_dnG = -1.360715e-05 computed for Ecut = 20.

Initialized 1 species with 1 total atoms.

Folded 1 k-points by 12x12x1 to 144 k-points.

---------- Setting up k-points, bands, fillings ----------
Reduced to 19 k-points under symmetry. 
Computing the number of bands and number of electrons
Calculating initial fillings.
nElectrons:   9.000000   nBands: 6   nStates: 38

----- Setting up reduced wavefunction bases (one per k-point) -----
average nbasis = 52924.021 , ideal nbasis = 52918.836

---------- Setting up coulomb interaction ----------
Initialized slab truncation along lattice direction 001

---------- Setting up 2D ewald sum ----------
Optimum gaussian width for ewald sums = 10.498040 bohr.
Real space sums over 289 unit cells with max indices [  8  8  0  ]
Reciprocal space sums over 81 terms with max indices [  4  4  0  ]

---------- Allocating electronic variables ----------
Initializing wave functions:  linear combination of atomic orbitals
Note: number of bands (6) exceeds available atomic orbitals (5)
Rb pseudo-atom occupations:   s ( 2 1 )  p ( 6 )
	FillingsUpdate:  mu: -0.082721842  nElectrons: 9.000000  magneticMoment: [ Abs: 0.74000  Tot: +0.74000 ]
LCAOMinimize: Iter:   0  F: -24.4323581293200434  |grad|_K:  2.580e-06  alpha:  1.000e+00
	FillingsUpdate:  mu: -0.082721270  nElectrons: 9.000000  magneticMoment: [ Abs: 0.74000  Tot: +0.74000 ]
LCAOMinimize: Iter:   1  F: -24.4323581338299931  |grad|_K:  1.350e-08  alpha:  9.903e-01  linmin: -2.762e-03  cgtest:  8.005e-02  t[s]:     15.09
LCAOMinimize: Encountered beta<0, resetting CG.
	FillingsUpdate:  mu: -0.082721271  nElectrons: 9.000000  magneticMoment: [ Abs: 0.74000  Tot: +0.74000 ]
LCAOMinimize: Iter:   2  F: -24.4323581338302773  |grad|_K:  3.727e-09  alpha:  1.274e+00  linmin:  4.287e-02  cgtest: -9.998e-01  t[s]:     19.12
LCAOMinimize: Converged (|Delta F|<1.000000e-06 for 2 iters).


---- Citations for features of the code used in this run ----

   Software package:
      R. Sundararaman, K. Letchworth-Weaver, K.A. Schwarz, D. Gunceler, Y. Ozhabes and T.A. Arias, 'JDFTx: software for joint density-functional theory', SoftwareX 6, 278 (2017)

   gga-PBE exchange-correlation functional:
      J.P. Perdew, K. Burke and M. Ernzerhof, Phys. Rev. Lett. 77, 3865 (1996)

   Pseudopotentials:
      M Schlipf and F Gygi, Comput. Phys. Commun. 196, 36 (2015)

   Truncated Coulomb potentials:
      R. Sundararaman and T.A. Arias, Phys. Rev. B 87, 165122 (2013)

This list may not be complete. Please suggest additional citations or
report any other bugs at https://github.com/shankar1729/jdftx/issues

Initialization completed successfully at t[s]:     19.39


-------- Electronic minimization -----------
Will mix electronic density at each iteration.
	FillingsUpdate:  mu: -0.082721271  nElectrons: 9.000000  magneticMoment: [ Abs: 0.74000  Tot: +0.74000 ]
	FillingsUpdate:  mu: -0.082816605  nElectrons: 9.000000  magneticMoment: [ Abs: 0.74000  Tot: +0.74000 ]
SCF: Cycle:  0   F: -24.432468310419903   dF: -1.102e-04   |Residual|: 1.688e-03   |deigs|: 1.699e-01  t[s]:     27.56
	FillingsUpdate:  mu: -0.082809129  nElectrons: 9.000000  magneticMoment: [ Abs: 0.74396  Tot: +0.74000 ]
SCF: Cycle:  1   F: -24.432470579286655   dF: -2.269e-06   |Residual|: 4.051e-04   |deigs|: 9.407e-03  t[s]:     34.01
	FillingsUpdate:  mu: -0.082782846  nElectrons: 9.000000  magneticMoment: [ Abs: 0.74399  Tot: +0.74000 ]
SCF: Cycle:  2   F: -24.432471131836323   dF: -5.525e-07   |Residual|: 2.358e-04   |deigs|: 1.438e-03  t[s]:     40.57
	FillingsUpdate:  mu: -0.082763447  nElectrons: 9.000000  magneticMoment: [ Abs: 0.74458  Tot: +0.74000 ]
SCF: Cycle:  3   F: -24.432471443343371   dF: -3.115e-07   |Residual|: 1.761e-04   |deigs|: 6.008e-04  t[s]:     47.27
	FillingsUpdate:  mu: -0.082710471  nElectrons: 9.000000  magneticMoment: [ Abs: 0.74454  Tot: +0.74000 ]
SCF: Cycle:  4   F: -24.432471701941967   dF: -2.586e-07   |Residual|: 1.300e-04   |deigs|: 6.500e-04  t[s]:     54.12
	FillingsUpdate:  mu: -0.082636016  nElectrons: 9.000000  magneticMoment: [ Abs: 0.74457  Tot: +0.74000 ]
SCF: Cycle:  5   F: -24.432471821499011   dF: -1.196e-07   |Residual|: 8.764e-05   |deigs|: 7.268e-04  t[s]:     61.04
	FillingsUpdate:  mu: -0.082581263  nElectrons: 9.000000  magneticMoment: [ Abs: 0.74448  Tot: +0.74000 ]
SCF: Cycle:  6   F: -24.432471889318464   dF: -6.782e-08   |Residual|: 6.778e-05   |deigs|: 3.302e-04  t[s]:     68.05
	FillingsUpdate:  mu: -0.082557087  nElectrons: 9.000000  magneticMoment: [ Abs: 0.74451  Tot: +0.74000 ]
SCF: Cycle:  7   F: -24.432471941443257   dF: -5.212e-08   |Residual|: 5.542e-05   |deigs|: 2.449e-04  t[s]:     75.25
	FillingsUpdate:  mu: -0.082531970  nElectrons: 9.000000  magneticMoment: [ Abs: 0.74451  Tot: +0.74000 ]
SCF: Cycle:  8   F: -24.432471984372452   dF: -4.293e-08   |Residual|: 4.773e-05   |deigs|: 1.583e-04  t[s]:     82.49
	FillingsUpdate:  mu: -0.082502731  nElectrons: 9.000000  magneticMoment: [ Abs: 0.74449  Tot: +0.74000 ]
SCF: Cycle:  9   F: -24.432472006475880   dF: -2.210e-08   |Residual|: 3.877e-05   |deigs|: 1.390e-04  t[s]:     89.87
	FillingsUpdate:  mu: -0.082485356  nElectrons: 9.000000  magneticMoment: [ Abs: 0.74453  Tot: +0.74000 ]
SCF: Cycle: 10   F: -24.432471968324364   dF: +3.815e-08   |Residual|: 3.334e-05   |deigs|: 1.530e-04  t[s]:     97.38
	FillingsUpdate:  mu: -0.082456256  nElectrons: 9.000000  magneticMoment: [ Abs: 0.74459  Tot: +0.74000 ]
SCF: Cycle: 11   F: -24.432471866220975   dF: +1.021e-07   |Residual|: 2.914e-05   |deigs|: 1.259e-04  t[s]:    104.88
	FillingsUpdate:  mu: -0.082438387  nElectrons: 9.000000  magneticMoment: [ Abs: 0.74467  Tot: +0.74000 ]
SCF: Cycle: 12   F: -24.432471658702099   dF: +2.075e-07   |Residual|: 2.600e-05   |deigs|: 1.086e-04  t[s]:    112.32
	FillingsUpdate:  mu: -0.082437037  nElectrons: 9.000000  magneticMoment: [ Abs: 0.74466  Tot: +0.74000 ]
SCF: Cycle: 13   F: -24.432471863809486   dF: -2.051e-07   |Residual|: 2.732e-05   |deigs|: 3.339e-05  t[s]:    119.78
	FillingsUpdate:  mu: -0.082389297  nElectrons: 9.000000  magneticMoment: [ Abs: 0.74472  Tot: +0.74000 ]
SCF: Cycle: 14   F: -24.432472021676894   dF: -1.579e-07   |Residual|: 2.165e-05   |deigs|: 5.506e-05  t[s]:    126.96
	FillingsUpdate:  mu: -0.082333974  nElectrons: 9.000000  magneticMoment: [ Abs: 0.74471  Tot: +0.74000 ]
SCF: Cycle: 15   F: -24.432471827986586   dF: +1.937e-07   |Residual|: 2.236e-05   |deigs|: 6.476e-05  t[s]:    134.39
	FillingsUpdate:  mu: -0.082311443  nElectrons: 9.000000  magneticMoment: [ Abs: 0.74459  Tot: +0.74000 ]
SCF: Cycle: 16   F: -24.432471967693644   dF: -1.397e-07   |Residual|: 1.779e-05   |deigs|: 2.766e-05  t[s]:    141.62
	FillingsUpdate:  mu: -0.082298639  nElectrons: 9.000000  magneticMoment: [ Abs: 0.74457  Tot: +0.74000 ]
SCF: Cycle: 17   F: -24.432471983080163   dF: -1.539e-08   |Residual|: 1.102e-05   |deigs|: 2.053e-05  t[s]:    148.96
	FillingsUpdate:  mu: -0.082290176  nElectrons: 9.000000  magneticMoment: [ Abs: 0.74454  Tot: +0.74000 ]
SCF: Cycle: 18   F: -24.432472034459387   dF: -5.138e-08   |Residual|: 7.135e-06   |deigs|: 1.392e-05  t[s]:    156.41
	FillingsUpdate:  mu: -0.082281564  nElectrons: 9.000000  magneticMoment: [ Abs: 0.74451  Tot: +0.74000 ]
SCF: Cycle: 19   F: -24.432472080412051   dF: -4.595e-08   |Residual|: 3.939e-06   |deigs|: 1.548e-05  t[s]:    163.40
	FillingsUpdate:  mu: -0.082280012  nElectrons: 9.000000  magneticMoment: [ Abs: 0.74451  Tot: +0.74000 ]
SCF: Cycle: 20   F: -24.432472092372034   dF: -1.196e-08   |Residual|: 2.687e-06   |deigs|: 1.778e-05  t[s]:    170.16
	FillingsUpdate:  mu: -0.082281191  nElectrons: 9.000000  magneticMoment: [ Abs: 0.74451  Tot: +0.74000 ]
SCF: Cycle: 21   F: -24.432472095579328   dF: -3.207e-09   |Residual|: 1.824e-06   |deigs|: 2.487e-05  t[s]:    177.50
	FillingsUpdate:  mu: -0.082281471  nElectrons: 9.000000  magneticMoment: [ Abs: 0.74450  Tot: +0.74000 ]
SCF: Cycle: 22   F: -24.432472098937019   dF: -3.358e-09   |Residual|: 1.337e-06   |deigs|: 3.054e-05  t[s]:    184.77
SCF: Converged (|Delta E|<1.000000e-08 for 2 iters).


# Ionic positions in lattice coordinates:
ion Rb   0.000000000000000   0.000000000000000   0.000000000000000 0

# Forces in Lattice coordinates:
force Rb   0.000000000000000  -0.000000000000000   0.000000000000000 0

# Energy components:
   Eewald =       -9.0240130501663280
       EH =       10.5415398590227110
     Eloc =      -28.4671468312630935
      Enl =       -0.7924087747199028
   Epulay =        0.0000000056959385
      Exc =       -3.6523749927043152
       KE =        6.9619319797483303
-------------------------------------
     Etot =      -24.4324718043866653
       TS =        0.0000002945503538
-------------------------------------
        F =      -24.4324720989370192

IonicMinimize: Iter:   0  F: -24.432472098937019  |grad|_K:  0.000e+00  t[s]:    185.18
IonicMinimize: Converged (|grad|_K<1.000000e-04).

#--- Lowdin population analysis ---
# oxidation-state Rb +0.001
# magnetic-moments Rb +0.739

End date and time: Sun Feb  6 13:00:21 2022  (Duration: 0-0:03:05.24)
Done!
