
*************** JDFTx 1.6.0 (git hash 42ebbcc2) ***************

Start date and time: Sun Feb  6 13:01:23 2022
Executable jdftx with command-line: -i Alkali.in
Running on hosts (process indices):  d-4-2-2 (0-18)
Divided in process groups (process indices):  0 (0)  1 (1)  2 (2)  3 (3)  4 (4)  5 (5)  6 (6)  7 (7)  8 (8)  9 (9)  10 (10)  11 (11)  12 (12)  13 (13)  14 (14)  15 (15)  16 (16)  17 (17)  18 (18)
Resource initialization completed at t[s]:      0.00
Run totals: 19 processes, 48 threads, 0 GPUs


Input parsed successfully to the following command list (including defaults):

basis kpoint-dependent
coords-type Lattice
core-overlap-check vector
coulomb-interaction Slab 001
davidson-band-ratio 1.1
dump End None
dump-name $INPUT.$VAR
elec-cutoff 20
elec-eigen-algo Davidson
elec-ex-corr gga-PBE
elec-initial-magnetization 0.860000 yes
elec-smearing Fermi 1e-05
electronic-minimize  \
	dirUpdateScheme      FletcherReeves \
	linminMethod         DirUpdateRecommended \
	nIterations          100 \
	history              15 \
	knormThreshold       0 \
	energyDiffThreshold  1e-08 \
	nEnergyDiff          2 \
	alphaTstart          1 \
	alphaTmin            1e-10 \
	updateTestStepSize   yes \
	alphaTreduceFactor   0.1 \
	alphaTincreaseFactor 3 \
	nAlphaAdjustMax      3 \
	wolfeEnergy          0.0001 \
	wolfeGradient        0.9 \
	fdTest               no
electronic-scf  \
	nIterations	10000 \
	energyDiffThreshold	1e-08 \
	residualThreshold	1e-07 \
	mixFraction	0.5 \
	qMetric	0.8 \
	history	10 \
	nEigSteps	2 \
	eigDiffThreshold	1e-08 \
	mixedVariable	Density \
	qKerker	0.8 \
	qKappa	-1 \
	verbose	no \
	mixFractionMag	1.5
exchange-regularization WignerSeitzTruncated
fluid None
fluid-ex-corr (null) lda-PZ
fluid-gummel-loop 10 1.000000e-05
fluid-minimize  \
	dirUpdateScheme      PolakRibiere \
	linminMethod         DirUpdateRecommended \
	nIterations          100 \
	history              15 \
	knormThreshold       0 \
	energyDiffThreshold  0 \
	nEnergyDiff          2 \
	alphaTstart          1 \
	alphaTmin            1e-10 \
	updateTestStepSize   yes \
	alphaTreduceFactor   0.1 \
	alphaTincreaseFactor 3 \
	nAlphaAdjustMax      3 \
	wolfeEnergy          0.0001 \
	wolfeGradient        0.9 \
	fdTest               no
fluid-solvent H2O 55.338 ScalarEOS \
	epsBulk 78.4 \
	pMol 0.92466 \
	epsInf 1.77 \
	Pvap 1.06736e-10 \
	sigmaBulk 4.62e-05 \
	Rvdw 2.61727 \
	Res 1.42 \
	tauNuc 343133 \
	poleEl 15 7 1
forces-output-coords Positions
ion Rb   0.000000000000000   0.000000000000000   0.000000000000000 0
ion-species SG15/$ID_ONCV_PBE.upf
ion-width 0
ionic-minimize  \
	dirUpdateScheme      L-BFGS \
	linminMethod         DirUpdateRecommended \
	nIterations          0 \
	history              15 \
	knormThreshold       0.0001 \
	energyDiffThreshold  1e-06 \
	nEnergyDiff          2 \
	alphaTstart          1 \
	alphaTmin            1e-10 \
	updateTestStepSize   yes \
	alphaTreduceFactor   0.1 \
	alphaTincreaseFactor 3 \
	nAlphaAdjustMax      3 \
	wolfeEnergy          0.0001 \
	wolfeGradient        0.9 \
	fdTest               no
kpoint   0.000000000000   0.000000000000   0.000000000000  1.00000000000000
kpoint-folding 12 12 1 
latt-move-scale 1 1 1
latt-scale 4 4 1 
lattice  \
	   4.727486978767153   -2.363743489383575    0.000000000000000  \
	  -0.000000000000000    4.094123819672498    0.000000000000000  \
	   0.000000000000000    0.000000000000000   40.000000000000000 
lattice-minimize  \
	dirUpdateScheme      L-BFGS \
	linminMethod         DirUpdateRecommended \
	nIterations          0 \
	history              15 \
	knormThreshold       0 \
	energyDiffThreshold  1e-06 \
	nEnergyDiff          2 \
	alphaTstart          1 \
	alphaTmin            1e-10 \
	updateTestStepSize   yes \
	alphaTreduceFactor   0.1 \
	alphaTincreaseFactor 3 \
	nAlphaAdjustMax      3 \
	wolfeEnergy          0.0001 \
	wolfeGradient        0.9 \
	fdTest               no
lcao-params -1 1e-06 1e-05
pcm-variant GLSSA13
spintype z-spin
subspace-rotation-factor 1 yes
symmetries automatic
symmetry-threshold 0.0001



---------- Setting up symmetries ----------

Found 24 point-group symmetries of the bravais lattice
Found 24 space-group symmetries with basis
Applied RMS atom displacement 0 bohrs to make symmetries exact.

---------- Initializing the Grid ----------
R = 
[      18.9099     -9.45497            0  ]
[            0      16.3765            0  ]
[            0            0           40  ]
unit cell volume = 12387.1
G =
[   0.332269   0.191835         -0  ]
[          0   0.383671         -0  ]
[         -0         -0    0.15708  ]
Minimum fftbox size, Smin = [  80  80  164  ]
Chosen fftbox size, S = [  80  80  168  ]

---------- Exchange Correlation functional ----------
Initalized PBE GGA exchange.
Initalized PBE GGA correlation.

---------- Setting up pseudopotentials ----------
Width of ionic core gaussian charges (only for fluid interactions / plotting) set to 0

Reading pseudopotential file '/home/gridsan/aligho/DFT/build-Nov24/pseudopotentials/SG15/Rb_ONCV_PBE.upf':
  'Rb' pseudopotential, 'PBE' functional
  Generated using ONCVPSP code by D. R. Hamann
  Author: Martin Schlipf and Francois Gygi  Date: 150915.
  9 valence electrons, 3 orbitals, 6 projectors, 2308 radial grid points, with lMax = 2
  Transforming local potential to a uniform radial grid of dG=0.02 with 1489 points.
  Transforming nonlocal projectors to a uniform radial grid of dG=0.02 with 432 points.
    4S    l: 0   occupation:  2.0   eigenvalue: -1.172069
    4P    l: 1   occupation:  6.0   eigenvalue: -0.586674
    5S    l: 0   occupation:  1.0   eigenvalue: -0.082006
  Transforming atomic orbitals to a uniform radial grid of dG=0.02 with 432 points.
  Core radius for overlap checks: 2.60 bohrs.
  Reading pulay file /home/gridsan/aligho/DFT/build-Nov24/pseudopotentials/SG15/Rb_ONCV_PBE.pulay ... using dE_dnG = -1.360715e-05 computed for Ecut = 20.

Initialized 1 species with 1 total atoms.

Folded 1 k-points by 12x12x1 to 144 k-points.

---------- Setting up k-points, bands, fillings ----------
Reduced to 19 k-points under symmetry. 
Computing the number of bands and number of electrons
Calculating initial fillings.
nElectrons:   9.000000   nBands: 6   nStates: 38

----- Setting up reduced wavefunction bases (one per k-point) -----
average nbasis = 52924.021 , ideal nbasis = 52918.836

---------- Setting up coulomb interaction ----------
Initialized slab truncation along lattice direction 001

---------- Setting up 2D ewald sum ----------
Optimum gaussian width for ewald sums = 10.498040 bohr.
Real space sums over 289 unit cells with max indices [  8  8  0  ]
Reciprocal space sums over 81 terms with max indices [  4  4  0  ]

---------- Allocating electronic variables ----------
Initializing wave functions:  linear combination of atomic orbitals
Note: number of bands (6) exceeds available atomic orbitals (5)
Rb pseudo-atom occupations:   s ( 2 1 )  p ( 6 )
	FillingsUpdate:  mu: -0.081910636  nElectrons: 9.000000  magneticMoment: [ Abs: 0.86000  Tot: +0.86000 ]
LCAOMinimize: Iter:   0  F: -24.4329957405985176  |grad|_K:  1.498e-06  alpha:  1.000e+00
	FillingsUpdate:  mu: -0.081910307  nElectrons: 9.000000  magneticMoment: [ Abs: 0.86000  Tot: +0.86000 ]
LCAOMinimize: Iter:   1  F: -24.4329957421212036  |grad|_K:  8.200e-09  alpha:  9.921e-01  linmin: -5.380e-04  cgtest:  1.277e-02  t[s]:     15.51
LCAOMinimize: Encountered beta<0, resetting CG.
LCAOMinimize: 	Step increased F by 1.314504e-13, reducing alpha to 1.431763e-02.
	FillingsUpdate:  mu: -0.081910307  nElectrons: 9.000000  magneticMoment: [ Abs: 0.86000  Tot: +0.86000 ]
LCAOMinimize: Iter:   2  F: -24.4329957421212676  |grad|_K:  8.082e-09  alpha:  1.432e-02  linmin: -7.012e-02  cgtest:  1.000e+00  t[s]:     22.02
LCAOMinimize: Encountered beta<0, resetting CG.
LCAOMinimize: Converged (|Delta F|<1.000000e-06 for 2 iters).


---- Citations for features of the code used in this run ----

   Software package:
      R. Sundararaman, K. Letchworth-Weaver, K.A. Schwarz, D. Gunceler, Y. Ozhabes and T.A. Arias, 'JDFTx: software for joint density-functional theory', SoftwareX 6, 278 (2017)

   gga-PBE exchange-correlation functional:
      J.P. Perdew, K. Burke and M. Ernzerhof, Phys. Rev. Lett. 77, 3865 (1996)

   Pseudopotentials:
      M Schlipf and F Gygi, Comput. Phys. Commun. 196, 36 (2015)

   Truncated Coulomb potentials:
      R. Sundararaman and T.A. Arias, Phys. Rev. B 87, 165122 (2013)

This list may not be complete. Please suggest additional citations or
report any other bugs at https://github.com/shankar1729/jdftx/issues

Initialization completed successfully at t[s]:     22.30


-------- Electronic minimization -----------
Will mix electronic density at each iteration.
	FillingsUpdate:  mu: -0.081910307  nElectrons: 9.000000  magneticMoment: [ Abs: 0.86000  Tot: +0.86000 ]
	FillingsUpdate:  mu: -0.082037583  nElectrons: 9.000000  magneticMoment: [ Abs: 0.86000  Tot: +0.86000 ]
SCF: Cycle:  0   F: -24.433122974368583   dF: -1.272e-04   |Residual|: 1.992e-03   |deigs|: 1.667e-01  t[s]:     30.68
	FillingsUpdate:  mu: -0.082012897  nElectrons: 9.000000  magneticMoment: [ Abs: 0.86499  Tot: +0.86000 ]
SCF: Cycle:  1   F: -24.433125687550493   dF: -2.713e-06   |Residual|: 4.880e-04   |deigs|: 1.172e-02  t[s]:     37.24
	FillingsUpdate:  mu: -0.081957766  nElectrons: 9.000000  magneticMoment: [ Abs: 0.86487  Tot: +0.86000 ]
SCF: Cycle:  2   F: -24.433126347055666   dF: -6.595e-07   |Residual|: 3.154e-04   |deigs|: 1.914e-03  t[s]:     43.91
	FillingsUpdate:  mu: -0.081903985  nElectrons: 9.000000  magneticMoment: [ Abs: 0.86556  Tot: +0.86000 ]
SCF: Cycle:  3   F: -24.433126694721494   dF: -3.477e-07   |Residual|: 2.464e-04   |deigs|: 9.670e-04  t[s]:     50.70
	FillingsUpdate:  mu: -0.081769416  nElectrons: 9.000000  magneticMoment: [ Abs: 0.86550  Tot: +0.86000 ]
SCF: Cycle:  4   F: -24.433126908675696   dF: -2.140e-07   |Residual|: 1.594e-04   |deigs|: 6.917e-04  t[s]:     57.63
	FillingsUpdate:  mu: -0.081612504  nElectrons: 9.000000  magneticMoment: [ Abs: 0.86543  Tot: +0.86000 ]
SCF: Cycle:  5   F: -24.433127005274148   dF: -9.660e-08   |Residual|: 1.068e-04   |deigs|: 4.966e-04  t[s]:     64.58
	FillingsUpdate:  mu: -0.081571276  nElectrons: 9.000000  magneticMoment: [ Abs: 0.86534  Tot: +0.86000 ]
SCF: Cycle:  6   F: -24.433127137752265   dF: -1.325e-07   |Residual|: 8.229e-05   |deigs|: 2.007e-04  t[s]:     71.74
	FillingsUpdate:  mu: -0.081554214  nElectrons: 9.000000  magneticMoment: [ Abs: 0.86542  Tot: +0.86000 ]
SCF: Cycle:  7   F: -24.433127228977192   dF: -9.122e-08   |Residual|: 6.100e-05   |deigs|: 2.155e-04  t[s]:     78.99
	FillingsUpdate:  mu: -0.081533339  nElectrons: 9.000000  magneticMoment: [ Abs: 0.86539  Tot: +0.86000 ]
SCF: Cycle:  8   F: -24.433127273489763   dF: -4.451e-08   |Residual|: 5.176e-05   |deigs|: 1.780e-04  t[s]:     86.24
	FillingsUpdate:  mu: -0.081509176  nElectrons: 9.000000  magneticMoment: [ Abs: 0.86540  Tot: +0.86000 ]
SCF: Cycle:  9   F: -24.433127228214673   dF: +4.528e-08   |Residual|: 4.371e-05   |deigs|: 1.387e-04  t[s]:     93.71
	FillingsUpdate:  mu: -0.081482902  nElectrons: 9.000000  magneticMoment: [ Abs: 0.86544  Tot: +0.86000 ]
SCF: Cycle: 10   F: -24.433127130072510   dF: +9.814e-08   |Residual|: 3.777e-05   |deigs|: 1.289e-04  t[s]:    101.34
	FillingsUpdate:  mu: -0.081443081  nElectrons: 9.000000  magneticMoment: [ Abs: 0.86553  Tot: +0.86000 ]
SCF: Cycle: 11   F: -24.433126944576120   dF: +1.855e-07   |Residual|: 3.319e-05   |deigs|: 1.025e-04  t[s]:    108.88
	FillingsUpdate:  mu: -0.081417421  nElectrons: 9.000000  magneticMoment: [ Abs: 0.86568  Tot: +0.86000 ]
SCF: Cycle: 12   F: -24.433126765771146   dF: +1.788e-07   |Residual|: 2.943e-05   |deigs|: 6.418e-05  t[s]:    116.42
	FillingsUpdate:  mu: -0.081406334  nElectrons: 9.000000  magneticMoment: [ Abs: 0.86559  Tot: +0.86000 ]
SCF: Cycle: 13   F: -24.433126894828749   dF: -1.291e-07   |Residual|: 2.637e-05   |deigs|: 3.344e-05  t[s]:    123.89
	FillingsUpdate:  mu: -0.081357047  nElectrons: 9.000000  magneticMoment: [ Abs: 0.86557  Tot: +0.86000 ]
SCF: Cycle: 14   F: -24.433127176137464   dF: -2.813e-07   |Residual|: 2.407e-05   |deigs|: 5.612e-05  t[s]:    131.51
	FillingsUpdate:  mu: -0.081327342  nElectrons: 9.000000  magneticMoment: [ Abs: 0.86554  Tot: +0.86000 ]
SCF: Cycle: 15   F: -24.433127072828185   dF: +1.033e-07   |Residual|: 2.368e-05   |deigs|: 4.472e-05  t[s]:    138.62
	FillingsUpdate:  mu: -0.081298882  nElectrons: 9.000000  magneticMoment: [ Abs: 0.86542  Tot: +0.86000 ]
SCF: Cycle: 16   F: -24.433127132669004   dF: -5.984e-08   |Residual|: 2.180e-05   |deigs|: 4.732e-05  t[s]:    146.05
	FillingsUpdate:  mu: -0.081284835  nElectrons: 9.000000  magneticMoment: [ Abs: 0.86545  Tot: +0.86000 ]
SCF: Cycle: 17   F: -24.433127122400354   dF: +1.027e-08   |Residual|: 1.366e-05   |deigs|: 4.306e-05  t[s]:    153.59
	FillingsUpdate:  mu: -0.081276934  nElectrons: 9.000000  magneticMoment: [ Abs: 0.86542  Tot: +0.86000 ]
SCF: Cycle: 18   F: -24.433127267710372   dF: -1.453e-07   |Residual|: 1.003e-05   |deigs|: 4.172e-05  t[s]:    161.17
	FillingsUpdate:  mu: -0.081272124  nElectrons: 9.000000  magneticMoment: [ Abs: 0.86540  Tot: +0.86000 ]
SCF: Cycle: 19   F: -24.433127353733234   dF: -8.602e-08   |Residual|: 7.375e-06   |deigs|: 4.038e-05  t[s]:    168.14
	FillingsUpdate:  mu: -0.081265996  nElectrons: 9.000000  magneticMoment: [ Abs: 0.86541  Tot: +0.86000 ]
SCF: Cycle: 20   F: -24.433127363764314   dF: -1.003e-08   |Residual|: 4.965e-06   |deigs|: 3.784e-05  t[s]:    175.31
	FillingsUpdate:  mu: -0.081265167  nElectrons: 9.000000  magneticMoment: [ Abs: 0.86540  Tot: +0.86000 ]
SCF: Cycle: 21   F: -24.433127382727317   dF: -1.896e-08   |Residual|: 3.795e-06   |deigs|: 3.412e-05  t[s]:    182.91
	FillingsUpdate:  mu: -0.081265073  nElectrons: 9.000000  magneticMoment: [ Abs: 0.86539  Tot: +0.86000 ]
SCF: Cycle: 22   F: -24.433127389295954   dF: -6.569e-09   |Residual|: 2.696e-06   |deigs|: 2.998e-05  t[s]:    190.26
	FillingsUpdate:  mu: -0.081264418  nElectrons: 9.000000  magneticMoment: [ Abs: 0.86540  Tot: +0.86000 ]
SCF: Cycle: 23   F: -24.433127390715416   dF: -1.419e-09   |Residual|: 2.035e-06   |deigs|: 2.732e-05  t[s]:    197.63
SCF: Converged (|Delta E|<1.000000e-08 for 2 iters).


# Ionic positions in lattice coordinates:
ion Rb   0.000000000000000   0.000000000000000   0.000000000000000 0

# Forces in Lattice coordinates:
force Rb   0.000000000000000   0.000000000000000   0.000000000000000 0

# Energy components:
   Eewald =       -9.0240130501663280
       EH =       10.5498027313568823
     Eloc =      -28.4760451756125441
      Enl =       -0.7921081444575859
   Epulay =        0.0000000056959385
      Exc =       -3.6541382865661389
       KE =        6.9633753441920625
-------------------------------------
     Etot =      -24.4331265755577114
       TS =        0.0000008151577045
-------------------------------------
        F =      -24.4331273907154163

IonicMinimize: Iter:   0  F: -24.433127390715416  |grad|_K:  0.000e+00  t[s]:    198.05
IonicMinimize: Converged (|grad|_K<1.000000e-04).

#--- Lowdin population analysis ---
# oxidation-state Rb +0.001
# magnetic-moments Rb +0.859

End date and time: Sun Feb  6 13:04:41 2022  (Duration: 0-0:03:18.11)
Done!
