
*************** JDFTx 1.6.0 (git hash 42ebbcc2) ***************

Start date and time: Sun Feb  6 12:50:19 2022
Executable jdftx with command-line: -i Alkali.in
Running on hosts (process indices):  d-16-13-1 (0-18)
Divided in process groups (process indices):  0 (0)  1 (1)  2 (2)  3 (3)  4 (4)  5 (5)  6 (6)  7 (7)  8 (8)  9 (9)  10 (10)  11 (11)  12 (12)  13 (13)  14 (14)  15 (15)  16 (16)  17 (17)  18 (18)
Resource initialization completed at t[s]:      0.00
Run totals: 19 processes, 48 threads, 0 GPUs


Input parsed successfully to the following command list (including defaults):

basis kpoint-dependent
coords-type Lattice
core-overlap-check vector
coulomb-interaction Slab 001
davidson-band-ratio 1.1
dump End None
dump-name $INPUT.$VAR
elec-cutoff 20
elec-eigen-algo Davidson
elec-ex-corr gga-PBE
elec-initial-magnetization 0.120000 yes
elec-smearing Fermi 1e-05
electronic-minimize  \
	dirUpdateScheme      FletcherReeves \
	linminMethod         DirUpdateRecommended \
	nIterations          100 \
	history              15 \
	knormThreshold       0 \
	energyDiffThreshold  1e-08 \
	nEnergyDiff          2 \
	alphaTstart          1 \
	alphaTmin            1e-10 \
	updateTestStepSize   yes \
	alphaTreduceFactor   0.1 \
	alphaTincreaseFactor 3 \
	nAlphaAdjustMax      3 \
	wolfeEnergy          0.0001 \
	wolfeGradient        0.9 \
	fdTest               no
electronic-scf  \
	nIterations	10000 \
	energyDiffThreshold	1e-08 \
	residualThreshold	1e-07 \
	mixFraction	0.5 \
	qMetric	0.8 \
	history	10 \
	nEigSteps	2 \
	eigDiffThreshold	1e-08 \
	mixedVariable	Density \
	qKerker	0.8 \
	qKappa	-1 \
	verbose	no \
	mixFractionMag	1.5
exchange-regularization WignerSeitzTruncated
fluid None
fluid-ex-corr (null) lda-PZ
fluid-gummel-loop 10 1.000000e-05
fluid-minimize  \
	dirUpdateScheme      PolakRibiere \
	linminMethod         DirUpdateRecommended \
	nIterations          100 \
	history              15 \
	knormThreshold       0 \
	energyDiffThreshold  0 \
	nEnergyDiff          2 \
	alphaTstart          1 \
	alphaTmin            1e-10 \
	updateTestStepSize   yes \
	alphaTreduceFactor   0.1 \
	alphaTincreaseFactor 3 \
	nAlphaAdjustMax      3 \
	wolfeEnergy          0.0001 \
	wolfeGradient        0.9 \
	fdTest               no
fluid-solvent H2O 55.338 ScalarEOS \
	epsBulk 78.4 \
	pMol 0.92466 \
	epsInf 1.77 \
	Pvap 1.06736e-10 \
	sigmaBulk 4.62e-05 \
	Rvdw 2.61727 \
	Res 1.42 \
	tauNuc 343133 \
	poleEl 15 7 1
forces-output-coords Positions
ion Rb   0.000000000000000   0.000000000000000   0.000000000000000 0
ion-species SG15/$ID_ONCV_PBE.upf
ion-width 0
ionic-minimize  \
	dirUpdateScheme      L-BFGS \
	linminMethod         DirUpdateRecommended \
	nIterations          0 \
	history              15 \
	knormThreshold       0.0001 \
	energyDiffThreshold  1e-06 \
	nEnergyDiff          2 \
	alphaTstart          1 \
	alphaTmin            1e-10 \
	updateTestStepSize   yes \
	alphaTreduceFactor   0.1 \
	alphaTincreaseFactor 3 \
	nAlphaAdjustMax      3 \
	wolfeEnergy          0.0001 \
	wolfeGradient        0.9 \
	fdTest               no
kpoint   0.000000000000   0.000000000000   0.000000000000  1.00000000000000
kpoint-folding 12 12 1 
latt-move-scale 1 1 1
latt-scale 4 4 1 
lattice  \
	   4.727486978767153   -2.363743489383575    0.000000000000000  \
	  -0.000000000000000    4.094123819672498    0.000000000000000  \
	   0.000000000000000    0.000000000000000   40.000000000000000 
lattice-minimize  \
	dirUpdateScheme      L-BFGS \
	linminMethod         DirUpdateRecommended \
	nIterations          0 \
	history              15 \
	knormThreshold       0 \
	energyDiffThreshold  1e-06 \
	nEnergyDiff          2 \
	alphaTstart          1 \
	alphaTmin            1e-10 \
	updateTestStepSize   yes \
	alphaTreduceFactor   0.1 \
	alphaTincreaseFactor 3 \
	nAlphaAdjustMax      3 \
	wolfeEnergy          0.0001 \
	wolfeGradient        0.9 \
	fdTest               no
lcao-params -1 1e-06 1e-05
pcm-variant GLSSA13
spintype z-spin
subspace-rotation-factor 1 yes
symmetries automatic
symmetry-threshold 0.0001



---------- Setting up symmetries ----------

Found 24 point-group symmetries of the bravais lattice
Found 24 space-group symmetries with basis
Applied RMS atom displacement 0 bohrs to make symmetries exact.

---------- Initializing the Grid ----------
R = 
[      18.9099     -9.45497            0  ]
[            0      16.3765            0  ]
[            0            0           40  ]
unit cell volume = 12387.1
G =
[   0.332269   0.191835         -0  ]
[          0   0.383671         -0  ]
[         -0         -0    0.15708  ]
Minimum fftbox size, Smin = [  80  80  164  ]
Chosen fftbox size, S = [  80  80  168  ]

---------- Exchange Correlation functional ----------
Initalized PBE GGA exchange.
Initalized PBE GGA correlation.

---------- Setting up pseudopotentials ----------
Width of ionic core gaussian charges (only for fluid interactions / plotting) set to 0

Reading pseudopotential file '/home/gridsan/aligho/DFT/build-Nov24/pseudopotentials/SG15/Rb_ONCV_PBE.upf':
  'Rb' pseudopotential, 'PBE' functional
  Generated using ONCVPSP code by D. R. Hamann
  Author: Martin Schlipf and Francois Gygi  Date: 150915.
  9 valence electrons, 3 orbitals, 6 projectors, 2308 radial grid points, with lMax = 2
  Transforming local potential to a uniform radial grid of dG=0.02 with 1489 points.
  Transforming nonlocal projectors to a uniform radial grid of dG=0.02 with 432 points.
    4S    l: 0   occupation:  2.0   eigenvalue: -1.172069
    4P    l: 1   occupation:  6.0   eigenvalue: -0.586674
    5S    l: 0   occupation:  1.0   eigenvalue: -0.082006
  Transforming atomic orbitals to a uniform radial grid of dG=0.02 with 432 points.
  Core radius for overlap checks: 2.60 bohrs.
  Reading pulay file /home/gridsan/aligho/DFT/build-Nov24/pseudopotentials/SG15/Rb_ONCV_PBE.pulay ... using dE_dnG = -1.360715e-05 computed for Ecut = 20.

Initialized 1 species with 1 total atoms.

Folded 1 k-points by 12x12x1 to 144 k-points.

---------- Setting up k-points, bands, fillings ----------
Reduced to 19 k-points under symmetry. 
Computing the number of bands and number of electrons
Calculating initial fillings.
nElectrons:   9.000000   nBands: 6   nStates: 38

----- Setting up reduced wavefunction bases (one per k-point) -----
average nbasis = 52924.021 , ideal nbasis = 52918.836

---------- Setting up coulomb interaction ----------
Initialized slab truncation along lattice direction 001

---------- Setting up 2D ewald sum ----------
Optimum gaussian width for ewald sums = 10.498040 bohr.
Real space sums over 289 unit cells with max indices [  8  8  0  ]
Reciprocal space sums over 81 terms with max indices [  4  4  0  ]

---------- Allocating electronic variables ----------
Initializing wave functions:  linear combination of atomic orbitals
Note: number of bands (6) exceeds available atomic orbitals (5)
Rb pseudo-atom occupations:   s ( 2 1 )  p ( 6 )
	FillingsUpdate:  mu: -0.082567202  nElectrons: 9.000000  magneticMoment: [ Abs: 0.12000  Tot: +0.12000 ]
LCAOMinimize: Iter:   0  F: -24.4306046410927351  |grad|_K:  5.317e-06  alpha:  1.000e+00
	FillingsUpdate:  mu: -0.082566058  nElectrons: 9.000000  magneticMoment: [ Abs: 0.12000  Tot: +0.12000 ]
LCAOMinimize: Iter:   1  F: -24.4306046601724134  |grad|_K:  2.631e-08  alpha:  9.869e-01  linmin: -8.896e-03  cgtest:  3.021e-01  t[s]:     15.15
LCAOMinimize: Encountered beta<0, resetting CG.
	FillingsUpdate:  mu: -0.082566057  nElectrons: 9.000000  magneticMoment: [ Abs: 0.12000  Tot: +0.12000 ]
LCAOMinimize: Iter:   2  F: -24.4306046601729001  |grad|_K:  3.246e-09  alpha:  8.769e-01  linmin: -1.893e-02  cgtest:  1.000e+00  t[s]:     19.14
LCAOMinimize: Encountered beta<0, resetting CG.
LCAOMinimize: Converged (|Delta F|<1.000000e-06 for 2 iters).


---- Citations for features of the code used in this run ----

   Software package:
      R. Sundararaman, K. Letchworth-Weaver, K.A. Schwarz, D. Gunceler, Y. Ozhabes and T.A. Arias, 'JDFTx: software for joint density-functional theory', SoftwareX 6, 278 (2017)

   gga-PBE exchange-correlation functional:
      J.P. Perdew, K. Burke and M. Ernzerhof, Phys. Rev. Lett. 77, 3865 (1996)

   Pseudopotentials:
      M Schlipf and F Gygi, Comput. Phys. Commun. 196, 36 (2015)

   Truncated Coulomb potentials:
      R. Sundararaman and T.A. Arias, Phys. Rev. B 87, 165122 (2013)

This list may not be complete. Please suggest additional citations or
report any other bugs at https://github.com/shankar1729/jdftx/issues

Initialization completed successfully at t[s]:     19.41


-------- Electronic minimization -----------
Will mix electronic density at each iteration.
	FillingsUpdate:  mu: -0.082566057  nElectrons: 9.000000  magneticMoment: [ Abs: 0.12000  Tot: +0.12000 ]
	FillingsUpdate:  mu: -0.082671220  nElectrons: 9.000000  magneticMoment: [ Abs: 0.12000  Tot: +0.12000 ]
SCF: Cycle:  0   F: -24.430724019875065   dF: -1.194e-04   |Residual|: 6.965e-04   |deigs|: 1.756e-01  t[s]:     27.56
	FillingsUpdate:  mu: -0.082714131  nElectrons: 9.000000  magneticMoment: [ Abs: 0.12053  Tot: +0.12000 ]
SCF: Cycle:  1   F: -24.430725954947267   dF: -1.935e-06   |Residual|: 5.312e-04   |deigs|: 4.232e-03  t[s]:     33.99
	FillingsUpdate:  mu: -0.082785025  nElectrons: 9.000000  magneticMoment: [ Abs: 0.12057  Tot: +0.12000 ]
SCF: Cycle:  2   F: -24.430726694332222   dF: -7.394e-07   |Residual|: 4.057e-04   |deigs|: 1.084e-03  t[s]:     40.63
	FillingsUpdate:  mu: -0.082906386  nElectrons: 9.000000  magneticMoment: [ Abs: 0.12100  Tot: +0.12000 ]
SCF: Cycle:  3   F: -24.430727516097956   dF: -8.218e-07   |Residual|: 2.702e-04   |deigs|: 1.183e-03  t[s]:     47.23
	FillingsUpdate:  mu: -0.083004096  nElectrons: 9.000000  magneticMoment: [ Abs: 0.12071  Tot: +0.12000 ]
SCF: Cycle:  4   F: -24.430728253036953   dF: -7.369e-07   |Residual|: 1.730e-04   |deigs|: 3.734e-04  t[s]:     54.04
	FillingsUpdate:  mu: -0.083043602  nElectrons: 9.000000  magneticMoment: [ Abs: 0.12092  Tot: +0.12000 ]
SCF: Cycle:  5   F: -24.430728641950402   dF: -3.889e-07   |Residual|: 1.267e-04   |deigs|: 4.241e-04  t[s]:     60.94
	FillingsUpdate:  mu: -0.083044150  nElectrons: 9.000000  magneticMoment: [ Abs: 0.12083  Tot: +0.12000 ]
SCF: Cycle:  6   F: -24.430728930852574   dF: -2.889e-07   |Residual|: 7.678e-05   |deigs|: 8.909e-04  t[s]:     67.96
	FillingsUpdate:  mu: -0.083030857  nElectrons: 9.000000  magneticMoment: [ Abs: 0.12076  Tot: +0.12000 ]
SCF: Cycle:  7   F: -24.430729050330008   dF: -1.195e-07   |Residual|: 5.875e-05   |deigs|: 7.100e-04  t[s]:     75.04
	FillingsUpdate:  mu: -0.083009016  nElectrons: 9.000000  magneticMoment: [ Abs: 0.12074  Tot: +0.12000 ]
SCF: Cycle:  8   F: -24.430729120552087   dF: -7.022e-08   |Residual|: 4.076e-05   |deigs|: 2.698e-04  t[s]:     82.33
	FillingsUpdate:  mu: -0.082987459  nElectrons: 9.000000  magneticMoment: [ Abs: 0.12068  Tot: +0.12000 ]
SCF: Cycle:  9   F: -24.430729139037680   dF: -1.849e-08   |Residual|: 3.296e-05   |deigs|: 5.236e-05  t[s]:     89.62
	FillingsUpdate:  mu: -0.082968346  nElectrons: 9.000000  magneticMoment: [ Abs: 0.12073  Tot: +0.12000 ]
SCF: Cycle: 10   F: -24.430729137959027   dF: +1.079e-09   |Residual|: 2.913e-05   |deigs|: 3.733e-05  t[s]:     97.03
	FillingsUpdate:  mu: -0.082943491  nElectrons: 9.000000  magneticMoment: [ Abs: 0.12079  Tot: +0.12000 ]
SCF: Cycle: 11   F: -24.430729118509483   dF: +1.945e-08   |Residual|: 2.658e-05   |deigs|: 3.004e-05  t[s]:    104.45
	FillingsUpdate:  mu: -0.082916803  nElectrons: 9.000000  magneticMoment: [ Abs: 0.12074  Tot: +0.12000 ]
SCF: Cycle: 12   F: -24.430729095981945   dF: +2.253e-08   |Residual|: 2.399e-05   |deigs|: 4.268e-05  t[s]:    111.82
	FillingsUpdate:  mu: -0.082891623  nElectrons: 9.000000  magneticMoment: [ Abs: 0.12074  Tot: +0.12000 ]
SCF: Cycle: 13   F: -24.430729101820781   dF: -5.839e-09   |Residual|: 2.106e-05   |deigs|: 7.089e-05  t[s]:    119.19
	FillingsUpdate:  mu: -0.082869341  nElectrons: 9.000000  magneticMoment: [ Abs: 0.12074  Tot: +0.12000 ]
SCF: Cycle: 14   F: -24.430729069857588   dF: +3.196e-08   |Residual|: 2.058e-05   |deigs|: 1.025e-04  t[s]:    126.64
	FillingsUpdate:  mu: -0.082846034  nElectrons: 9.000000  magneticMoment: [ Abs: 0.12073  Tot: +0.12000 ]
SCF: Cycle: 15   F: -24.430729096129344   dF: -2.627e-08   |Residual|: 1.774e-05   |deigs|: 1.135e-04  t[s]:    134.05
	FillingsUpdate:  mu: -0.082820189  nElectrons: 9.000000  magneticMoment: [ Abs: 0.12074  Tot: +0.12000 ]
SCF: Cycle: 16   F: -24.430729109723071   dF: -1.359e-08   |Residual|: 1.555e-05   |deigs|: 8.008e-05  t[s]:    141.47
	FillingsUpdate:  mu: -0.082800799  nElectrons: 9.000000  magneticMoment: [ Abs: 0.12070  Tot: +0.12000 ]
SCF: Cycle: 17   F: -24.430729073891801   dF: +3.583e-08   |Residual|: 1.421e-05   |deigs|: 4.690e-05  t[s]:    148.89
	FillingsUpdate:  mu: -0.082794996  nElectrons: 9.000000  magneticMoment: [ Abs: 0.12068  Tot: +0.12000 ]
SCF: Cycle: 18   F: -24.430729140994949   dF: -6.710e-08   |Residual|: 1.140e-05   |deigs|: 2.232e-05  t[s]:    156.05
	FillingsUpdate:  mu: -0.082790715  nElectrons: 9.000000  magneticMoment: [ Abs: 0.12069  Tot: +0.12000 ]
SCF: Cycle: 19   F: -24.430729140227442   dF: +7.675e-10   |Residual|: 8.801e-06   |deigs|: 1.153e-05  t[s]:    162.81
	FillingsUpdate:  mu: -0.082785160  nElectrons: 9.000000  magneticMoment: [ Abs: 0.12069  Tot: +0.12000 ]
SCF: Cycle: 20   F: -24.430729176647944   dF: -3.642e-08   |Residual|: 6.299e-06   |deigs|: 7.690e-06  t[s]:    170.22
	FillingsUpdate:  mu: -0.082783064  nElectrons: 9.000000  magneticMoment: [ Abs: 0.12069  Tot: +0.12000 ]
SCF: Cycle: 21   F: -24.430729185583228   dF: -8.935e-09   |Residual|: 4.764e-06   |deigs|: 4.598e-06  t[s]:    177.01
	FillingsUpdate:  mu: -0.082782175  nElectrons: 9.000000  magneticMoment: [ Abs: 0.12069  Tot: +0.12000 ]
SCF: Cycle: 22   F: -24.430729180820190   dF: +4.763e-09   |Residual|: 3.706e-06   |deigs|: 5.014e-06  t[s]:    183.93
	FillingsUpdate:  mu: -0.082781368  nElectrons: 9.000000  magneticMoment: [ Abs: 0.12068  Tot: +0.12000 ]
SCF: Cycle: 23   F: -24.430729188261445   dF: -7.441e-09   |Residual|: 2.351e-06   |deigs|: 6.843e-06  t[s]:    190.97
	FillingsUpdate:  mu: -0.082781285  nElectrons: 9.000000  magneticMoment: [ Abs: 0.12069  Tot: +0.12000 ]
SCF: Cycle: 24   F: -24.430729190077727   dF: -1.816e-09   |Residual|: 1.677e-06   |deigs|: 9.159e-06  t[s]:    197.71
SCF: Converged (|Delta E|<1.000000e-08 for 2 iters).


# Ionic positions in lattice coordinates:
ion Rb   0.000000000000000   0.000000000000000   0.000000000000000 0

# Forces in Lattice coordinates:
force Rb   0.000000000000000  -0.000000000000000   0.000000000000000 0

# Energy components:
   Eewald =       -9.0240130501663280
       EH =       10.5162491161777609
     Eloc =      -28.4399307409602002
      Enl =       -0.7932423076341684
   Epulay =        0.0000000056959385
      Exc =       -3.6474086919747331
       KE =        6.9576174379994900
-------------------------------------
     Etot =      -24.4307282308622433
       TS =        0.0000009592154826
-------------------------------------
        F =      -24.4307291900777273

IonicMinimize: Iter:   0  F: -24.430729190077727  |grad|_K:  0.000e+00  t[s]:    198.13
IonicMinimize: Converged (|grad|_K<1.000000e-04).

#--- Lowdin population analysis ---
# oxidation-state Rb +0.002
# magnetic-moments Rb +0.120

End date and time: Sun Feb  6 12:53:37 2022  (Duration: 0-0:03:18.20)
Done!
