
*************** JDFTx 1.6.0 (git hash 42ebbcc2) ***************

Start date and time: Sun Feb  6 12:56:41 2022
Executable jdftx with command-line: -i Alkali.in
Running on hosts (process indices):  d-16-12-2 (0-18)
Divided in process groups (process indices):  0 (0)  1 (1)  2 (2)  3 (3)  4 (4)  5 (5)  6 (6)  7 (7)  8 (8)  9 (9)  10 (10)  11 (11)  12 (12)  13 (13)  14 (14)  15 (15)  16 (16)  17 (17)  18 (18)
Resource initialization completed at t[s]:      0.00
Run totals: 19 processes, 48 threads, 0 GPUs


Input parsed successfully to the following command list (including defaults):

basis kpoint-dependent
coords-type Lattice
core-overlap-check vector
coulomb-interaction Slab 001
davidson-band-ratio 1.1
dump End None
dump-name $INPUT.$VAR
elec-cutoff 20
elec-eigen-algo Davidson
elec-ex-corr gga-PBE
elec-initial-magnetization 0.560000 yes
elec-smearing Fermi 1e-05
electronic-minimize  \
	dirUpdateScheme      FletcherReeves \
	linminMethod         DirUpdateRecommended \
	nIterations          100 \
	history              15 \
	knormThreshold       0 \
	energyDiffThreshold  1e-08 \
	nEnergyDiff          2 \
	alphaTstart          1 \
	alphaTmin            1e-10 \
	updateTestStepSize   yes \
	alphaTreduceFactor   0.1 \
	alphaTincreaseFactor 3 \
	nAlphaAdjustMax      3 \
	wolfeEnergy          0.0001 \
	wolfeGradient        0.9 \
	fdTest               no
electronic-scf  \
	nIterations	10000 \
	energyDiffThreshold	1e-08 \
	residualThreshold	1e-07 \
	mixFraction	0.5 \
	qMetric	0.8 \
	history	10 \
	nEigSteps	2 \
	eigDiffThreshold	1e-08 \
	mixedVariable	Density \
	qKerker	0.8 \
	qKappa	-1 \
	verbose	no \
	mixFractionMag	1.5
exchange-regularization WignerSeitzTruncated
fluid None
fluid-ex-corr (null) lda-PZ
fluid-gummel-loop 10 1.000000e-05
fluid-minimize  \
	dirUpdateScheme      PolakRibiere \
	linminMethod         DirUpdateRecommended \
	nIterations          100 \
	history              15 \
	knormThreshold       0 \
	energyDiffThreshold  0 \
	nEnergyDiff          2 \
	alphaTstart          1 \
	alphaTmin            1e-10 \
	updateTestStepSize   yes \
	alphaTreduceFactor   0.1 \
	alphaTincreaseFactor 3 \
	nAlphaAdjustMax      3 \
	wolfeEnergy          0.0001 \
	wolfeGradient        0.9 \
	fdTest               no
fluid-solvent H2O 55.338 ScalarEOS \
	epsBulk 78.4 \
	pMol 0.92466 \
	epsInf 1.77 \
	Pvap 1.06736e-10 \
	sigmaBulk 4.62e-05 \
	Rvdw 2.61727 \
	Res 1.42 \
	tauNuc 343133 \
	poleEl 15 7 1
forces-output-coords Positions
ion Rb   0.000000000000000   0.000000000000000   0.000000000000000 0
ion-species SG15/$ID_ONCV_PBE.upf
ion-width 0
ionic-minimize  \
	dirUpdateScheme      L-BFGS \
	linminMethod         DirUpdateRecommended \
	nIterations          0 \
	history              15 \
	knormThreshold       0.0001 \
	energyDiffThreshold  1e-06 \
	nEnergyDiff          2 \
	alphaTstart          1 \
	alphaTmin            1e-10 \
	updateTestStepSize   yes \
	alphaTreduceFactor   0.1 \
	alphaTincreaseFactor 3 \
	nAlphaAdjustMax      3 \
	wolfeEnergy          0.0001 \
	wolfeGradient        0.9 \
	fdTest               no
kpoint   0.000000000000   0.000000000000   0.000000000000  1.00000000000000
kpoint-folding 12 12 1 
latt-move-scale 1 1 1
latt-scale 4 4 1 
lattice  \
	   4.727486978767153   -2.363743489383575    0.000000000000000  \
	  -0.000000000000000    4.094123819672498    0.000000000000000  \
	   0.000000000000000    0.000000000000000   40.000000000000000 
lattice-minimize  \
	dirUpdateScheme      L-BFGS \
	linminMethod         DirUpdateRecommended \
	nIterations          0 \
	history              15 \
	knormThreshold       0 \
	energyDiffThreshold  1e-06 \
	nEnergyDiff          2 \
	alphaTstart          1 \
	alphaTmin            1e-10 \
	updateTestStepSize   yes \
	alphaTreduceFactor   0.1 \
	alphaTincreaseFactor 3 \
	nAlphaAdjustMax      3 \
	wolfeEnergy          0.0001 \
	wolfeGradient        0.9 \
	fdTest               no
lcao-params -1 1e-06 1e-05
pcm-variant GLSSA13
spintype z-spin
subspace-rotation-factor 1 yes
symmetries automatic
symmetry-threshold 0.0001



---------- Setting up symmetries ----------

Found 24 point-group symmetries of the bravais lattice
Found 24 space-group symmetries with basis
Applied RMS atom displacement 0 bohrs to make symmetries exact.

---------- Initializing the Grid ----------
R = 
[      18.9099     -9.45497            0  ]
[            0      16.3765            0  ]
[            0            0           40  ]
unit cell volume = 12387.1
G =
[   0.332269   0.191835         -0  ]
[          0   0.383671         -0  ]
[         -0         -0    0.15708  ]
Minimum fftbox size, Smin = [  80  80  164  ]
Chosen fftbox size, S = [  80  80  168  ]

---------- Exchange Correlation functional ----------
Initalized PBE GGA exchange.
Initalized PBE GGA correlation.

---------- Setting up pseudopotentials ----------
Width of ionic core gaussian charges (only for fluid interactions / plotting) set to 0

Reading pseudopotential file '/home/gridsan/aligho/DFT/build-Nov24/pseudopotentials/SG15/Rb_ONCV_PBE.upf':
  'Rb' pseudopotential, 'PBE' functional
  Generated using ONCVPSP code by D. R. Hamann
  Author: Martin Schlipf and Francois Gygi  Date: 150915.
  9 valence electrons, 3 orbitals, 6 projectors, 2308 radial grid points, with lMax = 2
  Transforming local potential to a uniform radial grid of dG=0.02 with 1489 points.
  Transforming nonlocal projectors to a uniform radial grid of dG=0.02 with 432 points.
    4S    l: 0   occupation:  2.0   eigenvalue: -1.172069
    4P    l: 1   occupation:  6.0   eigenvalue: -0.586674
    5S    l: 0   occupation:  1.0   eigenvalue: -0.082006
  Transforming atomic orbitals to a uniform radial grid of dG=0.02 with 432 points.
  Core radius for overlap checks: 2.60 bohrs.
  Reading pulay file /home/gridsan/aligho/DFT/build-Nov24/pseudopotentials/SG15/Rb_ONCV_PBE.pulay ... using dE_dnG = -1.360715e-05 computed for Ecut = 20.

Initialized 1 species with 1 total atoms.

Folded 1 k-points by 12x12x1 to 144 k-points.

---------- Setting up k-points, bands, fillings ----------
Reduced to 19 k-points under symmetry. 
Computing the number of bands and number of electrons
Calculating initial fillings.
nElectrons:   9.000000   nBands: 6   nStates: 38

----- Setting up reduced wavefunction bases (one per k-point) -----
average nbasis = 52924.021 , ideal nbasis = 52918.836

---------- Setting up coulomb interaction ----------
Initialized slab truncation along lattice direction 001

---------- Setting up 2D ewald sum ----------
Optimum gaussian width for ewald sums = 10.498040 bohr.
Real space sums over 289 unit cells with max indices [  8  8  0  ]
Reciprocal space sums over 81 terms with max indices [  4  4  0  ]

---------- Allocating electronic variables ----------
Initializing wave functions:  linear combination of atomic orbitals
Note: number of bands (6) exceeds available atomic orbitals (5)
Rb pseudo-atom occupations:   s ( 2 1 )  p ( 6 )
	FillingsUpdate:  mu: -0.082758071  nElectrons: 9.000000  magneticMoment: [ Abs: 0.56000  Tot: +0.56000 ]
LCAOMinimize: Iter:   0  F: -24.4315843084639219  |grad|_K:  3.812e-06  alpha:  1.000e+00
	FillingsUpdate:  mu: -0.082757232  nElectrons: 9.000000  magneticMoment: [ Abs: 0.56000  Tot: +0.56000 ]
LCAOMinimize: Iter:   1  F: -24.4315843182920496  |grad|_K:  2.013e-08  alpha:  9.889e-01  linmin: -7.365e-04  cgtest:  1.760e-01  t[s]:     15.20
LCAOMinimize: Encountered beta<0, resetting CG.
LCAOMinimize: 	Step increased F by 2.486900e-13, reducing alpha to 2.243945e-01.
	FillingsUpdate:  mu: -0.082757232  nElectrons: 9.000000  magneticMoment: [ Abs: 0.56000  Tot: +0.56000 ]
LCAOMinimize: Iter:   2  F: -24.4315843182920602  |grad|_K:  1.561e-08  alpha:  2.244e-01  linmin: -3.971e-03  cgtest:  1.000e+00  t[s]:     21.61
LCAOMinimize: Encountered beta<0, resetting CG.
LCAOMinimize: Converged (|Delta F|<1.000000e-06 for 2 iters).


---- Citations for features of the code used in this run ----

   Software package:
      R. Sundararaman, K. Letchworth-Weaver, K.A. Schwarz, D. Gunceler, Y. Ozhabes and T.A. Arias, 'JDFTx: software for joint density-functional theory', SoftwareX 6, 278 (2017)

   gga-PBE exchange-correlation functional:
      J.P. Perdew, K. Burke and M. Ernzerhof, Phys. Rev. Lett. 77, 3865 (1996)

   Pseudopotentials:
      M Schlipf and F Gygi, Comput. Phys. Commun. 196, 36 (2015)

   Truncated Coulomb potentials:
      R. Sundararaman and T.A. Arias, Phys. Rev. B 87, 165122 (2013)

This list may not be complete. Please suggest additional citations or
report any other bugs at https://github.com/shankar1729/jdftx/issues

Initialization completed successfully at t[s]:     21.87


-------- Electronic minimization -----------
Will mix electronic density at each iteration.
	FillingsUpdate:  mu: -0.082757232  nElectrons: 9.000000  magneticMoment: [ Abs: 0.56000  Tot: +0.56000 ]
	FillingsUpdate:  mu: -0.082855818  nElectrons: 9.000000  magneticMoment: [ Abs: 0.56000  Tot: +0.56000 ]
SCF: Cycle:  0   F: -24.431686002212032   dF: -1.017e-04   |Residual|: 1.305e-03   |deigs|: 1.733e-01  t[s]:     30.03
	FillingsUpdate:  mu: -0.082865693  nElectrons: 9.000000  magneticMoment: [ Abs: 0.56273  Tot: +0.56000 ]
SCF: Cycle:  1   F: -24.431687840085537   dF: -1.838e-06   |Residual|: 3.772e-04   |deigs|: 6.414e-03  t[s]:     36.51
	FillingsUpdate:  mu: -0.082870789  nElectrons: 9.000000  magneticMoment: [ Abs: 0.56286  Tot: +0.56000 ]
SCF: Cycle:  2   F: -24.431688314742043   dF: -4.747e-07   |Residual|: 2.396e-04   |deigs|: 1.581e-03  t[s]:     43.07
	FillingsUpdate:  mu: -0.082879279  nElectrons: 9.000000  magneticMoment: [ Abs: 0.56337  Tot: +0.56000 ]
SCF: Cycle:  3   F: -24.431688587394177   dF: -2.727e-07   |Residual|: 1.821e-04   |deigs|: 4.357e-04  t[s]:     49.79
	FillingsUpdate:  mu: -0.082878151  nElectrons: 9.000000  magneticMoment: [ Abs: 0.56330  Tot: +0.56000 ]
SCF: Cycle:  4   F: -24.431688882596013   dF: -2.952e-07   |Residual|: 1.369e-04   |deigs|: 4.097e-04  t[s]:     56.55
	FillingsUpdate:  mu: -0.082882144  nElectrons: 9.000000  magneticMoment: [ Abs: 0.56335  Tot: +0.56000 ]
SCF: Cycle:  5   F: -24.431689093438848   dF: -2.108e-07   |Residual|: 9.643e-05   |deigs|: 5.084e-04  t[s]:     63.43
	FillingsUpdate:  mu: -0.082873393  nElectrons: 9.000000  magneticMoment: [ Abs: 0.56331  Tot: +0.56000 ]
SCF: Cycle:  6   F: -24.431689245457733   dF: -1.520e-07   |Residual|: 6.561e-05   |deigs|: 2.735e-04  t[s]:     70.37
	FillingsUpdate:  mu: -0.082864221  nElectrons: 9.000000  magneticMoment: [ Abs: 0.56332  Tot: +0.56000 ]
SCF: Cycle:  7   F: -24.431689327074356   dF: -8.162e-08   |Residual|: 4.991e-05   |deigs|: 4.448e-04  t[s]:     77.47
	FillingsUpdate:  mu: -0.082850816  nElectrons: 9.000000  magneticMoment: [ Abs: 0.56331  Tot: +0.56000 ]
SCF: Cycle:  8   F: -24.431689369774887   dF: -4.270e-08   |Residual|: 4.110e-05   |deigs|: 7.442e-04  t[s]:     84.66
	FillingsUpdate:  mu: -0.082822414  nElectrons: 9.000000  magneticMoment: [ Abs: 0.56330  Tot: +0.56000 ]
SCF: Cycle:  9   F: -24.431689406673335   dF: -3.690e-08   |Residual|: 3.126e-05   |deigs|: 4.565e-04  t[s]:     92.01
	FillingsUpdate:  mu: -0.082799621  nElectrons: 9.000000  magneticMoment: [ Abs: 0.56333  Tot: +0.56000 ]
SCF: Cycle: 10   F: -24.431689399035349   dF: +7.638e-09   |Residual|: 2.847e-05   |deigs|: 1.669e-04  t[s]:     99.49
	FillingsUpdate:  mu: -0.082772346  nElectrons: 9.000000  magneticMoment: [ Abs: 0.56344  Tot: +0.56000 ]
SCF: Cycle: 11   F: -24.431689348166906   dF: +5.087e-08   |Residual|: 2.766e-05   |deigs|: 6.645e-05  t[s]:    106.88
	FillingsUpdate:  mu: -0.082742855  nElectrons: 9.000000  magneticMoment: [ Abs: 0.56351  Tot: +0.56000 ]
SCF: Cycle: 12   F: -24.431689192321702   dF: +1.558e-07   |Residual|: 2.502e-05   |deigs|: 4.487e-05  t[s]:    114.34
	FillingsUpdate:  mu: -0.082712337  nElectrons: 9.000000  magneticMoment: [ Abs: 0.56351  Tot: +0.56000 ]
SCF: Cycle: 13   F: -24.431689291519323   dF: -9.920e-08   |Residual|: 2.297e-05   |deigs|: 4.035e-05  t[s]:    121.74
	FillingsUpdate:  mu: -0.082684024  nElectrons: 9.000000  magneticMoment: [ Abs: 0.56354  Tot: +0.56000 ]
SCF: Cycle: 14   F: -24.431689402265700   dF: -1.107e-07   |Residual|: 1.820e-05   |deigs|: 3.244e-05  t[s]:    128.77
	FillingsUpdate:  mu: -0.082643331  nElectrons: 9.000000  magneticMoment: [ Abs: 0.56355  Tot: +0.56000 ]
SCF: Cycle: 15   F: -24.431689249414585   dF: +1.529e-07   |Residual|: 1.891e-05   |deigs|: 4.752e-05  t[s]:    135.90
	FillingsUpdate:  mu: -0.082616114  nElectrons: 9.000000  magneticMoment: [ Abs: 0.56343  Tot: +0.56000 ]
SCF: Cycle: 16   F: -24.431689373866963   dF: -1.245e-07   |Residual|: 1.561e-05   |deigs|: 3.178e-05  t[s]:    143.14
	FillingsUpdate:  mu: -0.082617350  nElectrons: 9.000000  magneticMoment: [ Abs: 0.56338  Tot: +0.56000 ]
SCF: Cycle: 17   F: -24.431689401206739   dF: -2.734e-08   |Residual|: 1.241e-05   |deigs|: 1.566e-05  t[s]:    150.10
	FillingsUpdate:  mu: -0.082610797  nElectrons: 9.000000  magneticMoment: [ Abs: 0.56334  Tot: +0.56000 ]
SCF: Cycle: 18   F: -24.431689422419776   dF: -2.121e-08   |Residual|: 8.934e-06   |deigs|: 1.206e-05  t[s]:    157.54
	FillingsUpdate:  mu: -0.082601276  nElectrons: 9.000000  magneticMoment: [ Abs: 0.56330  Tot: +0.56000 ]
SCF: Cycle: 19   F: -24.431689437516525   dF: -1.510e-08   |Residual|: 6.886e-06   |deigs|: 1.224e-05  t[s]:    164.89
	FillingsUpdate:  mu: -0.082600639  nElectrons: 9.000000  magneticMoment: [ Abs: 0.56331  Tot: +0.56000 ]
SCF: Cycle: 20   F: -24.431689461868530   dF: -2.435e-08   |Residual|: 5.276e-06   |deigs|: 1.264e-05  t[s]:    172.15
	FillingsUpdate:  mu: -0.082604322  nElectrons: 9.000000  magneticMoment: [ Abs: 0.56331  Tot: +0.56000 ]
SCF: Cycle: 21   F: -24.431689465905201   dF: -4.037e-09   |Residual|: 3.331e-06   |deigs|: 1.937e-05  t[s]:    179.12
	FillingsUpdate:  mu: -0.082605510  nElectrons: 9.000000  magneticMoment: [ Abs: 0.56331  Tot: +0.56000 ]
SCF: Cycle: 22   F: -24.431689474974473   dF: -9.069e-09   |Residual|: 2.305e-06   |deigs|: 2.241e-05  t[s]:    186.53
SCF: Converged (|Delta E|<1.000000e-08 for 2 iters).


# Ionic positions in lattice coordinates:
ion Rb   0.000000000000000   0.000000000000000   0.000000000000000 0

# Forces in Lattice coordinates:
force Rb   0.000000000000000   0.000000000000000   0.000000000000000 0

# Energy components:
   Eewald =       -9.0240130501663280
       EH =       10.5312749970855073
     Eloc =      -28.4561031278024288
      Enl =       -0.7927518255529273
   Epulay =        0.0000000056959385
      Exc =       -3.6502612368815375
       KE =        6.9601660851822009
-------------------------------------
     Etot =      -24.4316881524395733
       TS =        0.0000013225348993
-------------------------------------
        F =      -24.4316894749744726

IonicMinimize: Iter:   0  F: -24.431689474974473  |grad|_K:  0.000e+00  t[s]:    186.94
IonicMinimize: Converged (|grad|_K<1.000000e-04).

#--- Lowdin population analysis ---
# oxidation-state Rb +0.001
# magnetic-moments Rb +0.559

End date and time: Sun Feb  6 12:59:48 2022  (Duration: 0-0:03:07.02)
Done!
