
*************** JDFTx 1.6.0 (git hash 42ebbcc2) ***************

Start date and time: Sun Feb  6 12:44:14 2022
Executable jdftx with command-line: -i Alkali.in
Running on hosts (process indices):  d-17-10-1 (0-18)
Divided in process groups (process indices):  0 (0)  1 (1)  2 (2)  3 (3)  4 (4)  5 (5)  6 (6)  7 (7)  8 (8)  9 (9)  10 (10)  11 (11)  12 (12)  13 (13)  14 (14)  15 (15)  16 (16)  17 (17)  18 (18)
Resource initialization completed at t[s]:      0.00
Run totals: 19 processes, 48 threads, 0 GPUs


Input parsed successfully to the following command list (including defaults):

basis kpoint-dependent
coords-type Lattice
core-overlap-check vector
coulomb-interaction Slab 001
davidson-band-ratio 1.1
dump End None
dump-name $INPUT.$VAR
elec-cutoff 20
elec-eigen-algo Davidson
elec-ex-corr gga-PBE
elec-initial-magnetization -0.220000 yes
elec-smearing Fermi 1e-05
electronic-minimize  \
	dirUpdateScheme      FletcherReeves \
	linminMethod         DirUpdateRecommended \
	nIterations          100 \
	history              15 \
	knormThreshold       0 \
	energyDiffThreshold  1e-08 \
	nEnergyDiff          2 \
	alphaTstart          1 \
	alphaTmin            1e-10 \
	updateTestStepSize   yes \
	alphaTreduceFactor   0.1 \
	alphaTincreaseFactor 3 \
	nAlphaAdjustMax      3 \
	wolfeEnergy          0.0001 \
	wolfeGradient        0.9 \
	fdTest               no
electronic-scf  \
	nIterations	10000 \
	energyDiffThreshold	1e-08 \
	residualThreshold	1e-07 \
	mixFraction	0.5 \
	qMetric	0.8 \
	history	10 \
	nEigSteps	2 \
	eigDiffThreshold	1e-08 \
	mixedVariable	Density \
	qKerker	0.8 \
	qKappa	-1 \
	verbose	no \
	mixFractionMag	1.5
exchange-regularization WignerSeitzTruncated
fluid None
fluid-ex-corr (null) lda-PZ
fluid-gummel-loop 10 1.000000e-05
fluid-minimize  \
	dirUpdateScheme      PolakRibiere \
	linminMethod         DirUpdateRecommended \
	nIterations          100 \
	history              15 \
	knormThreshold       0 \
	energyDiffThreshold  0 \
	nEnergyDiff          2 \
	alphaTstart          1 \
	alphaTmin            1e-10 \
	updateTestStepSize   yes \
	alphaTreduceFactor   0.1 \
	alphaTincreaseFactor 3 \
	nAlphaAdjustMax      3 \
	wolfeEnergy          0.0001 \
	wolfeGradient        0.9 \
	fdTest               no
fluid-solvent H2O 55.338 ScalarEOS \
	epsBulk 78.4 \
	pMol 0.92466 \
	epsInf 1.77 \
	Pvap 1.06736e-10 \
	sigmaBulk 4.62e-05 \
	Rvdw 2.61727 \
	Res 1.42 \
	tauNuc 343133 \
	poleEl 15 7 1
forces-output-coords Positions
ion Rb   0.000000000000000   0.000000000000000   0.000000000000000 0
ion-species SG15/$ID_ONCV_PBE.upf
ion-width 0
ionic-minimize  \
	dirUpdateScheme      L-BFGS \
	linminMethod         DirUpdateRecommended \
	nIterations          0 \
	history              15 \
	knormThreshold       0.0001 \
	energyDiffThreshold  1e-06 \
	nEnergyDiff          2 \
	alphaTstart          1 \
	alphaTmin            1e-10 \
	updateTestStepSize   yes \
	alphaTreduceFactor   0.1 \
	alphaTincreaseFactor 3 \
	nAlphaAdjustMax      3 \
	wolfeEnergy          0.0001 \
	wolfeGradient        0.9 \
	fdTest               no
kpoint   0.000000000000   0.000000000000   0.000000000000  1.00000000000000
kpoint-folding 12 12 1 
latt-move-scale 1 1 1
latt-scale 4 4 1 
lattice  \
	   4.727486978767153   -2.363743489383575    0.000000000000000  \
	  -0.000000000000000    4.094123819672498    0.000000000000000  \
	   0.000000000000000    0.000000000000000   40.000000000000000 
lattice-minimize  \
	dirUpdateScheme      L-BFGS \
	linminMethod         DirUpdateRecommended \
	nIterations          0 \
	history              15 \
	knormThreshold       0 \
	energyDiffThreshold  1e-06 \
	nEnergyDiff          2 \
	alphaTstart          1 \
	alphaTmin            1e-10 \
	updateTestStepSize   yes \
	alphaTreduceFactor   0.1 \
	alphaTincreaseFactor 3 \
	nAlphaAdjustMax      3 \
	wolfeEnergy          0.0001 \
	wolfeGradient        0.9 \
	fdTest               no
lcao-params -1 1e-06 1e-05
pcm-variant GLSSA13
spintype z-spin
subspace-rotation-factor 1 yes
symmetries automatic
symmetry-threshold 0.0001



---------- Setting up symmetries ----------

Found 24 point-group symmetries of the bravais lattice
Found 24 space-group symmetries with basis
Applied RMS atom displacement 0 bohrs to make symmetries exact.

---------- Initializing the Grid ----------
R = 
[      18.9099     -9.45497            0  ]
[            0      16.3765            0  ]
[            0            0           40  ]
unit cell volume = 12387.1
G =
[   0.332269   0.191835         -0  ]
[          0   0.383671         -0  ]
[         -0         -0    0.15708  ]
Minimum fftbox size, Smin = [  80  80  164  ]
Chosen fftbox size, S = [  80  80  168  ]

---------- Exchange Correlation functional ----------
Initalized PBE GGA exchange.
Initalized PBE GGA correlation.

---------- Setting up pseudopotentials ----------
Width of ionic core gaussian charges (only for fluid interactions / plotting) set to 0

Reading pseudopotential file '/home/gridsan/aligho/DFT/build-Nov24/pseudopotentials/SG15/Rb_ONCV_PBE.upf':
  'Rb' pseudopotential, 'PBE' functional
  Generated using ONCVPSP code by D. R. Hamann
  Author: Martin Schlipf and Francois Gygi  Date: 150915.
  9 valence electrons, 3 orbitals, 6 projectors, 2308 radial grid points, with lMax = 2
  Transforming local potential to a uniform radial grid of dG=0.02 with 1489 points.
  Transforming nonlocal projectors to a uniform radial grid of dG=0.02 with 432 points.
    4S    l: 0   occupation:  2.0   eigenvalue: -1.172069
    4P    l: 1   occupation:  6.0   eigenvalue: -0.586674
    5S    l: 0   occupation:  1.0   eigenvalue: -0.082006
  Transforming atomic orbitals to a uniform radial grid of dG=0.02 with 432 points.
  Core radius for overlap checks: 2.60 bohrs.
  Reading pulay file /home/gridsan/aligho/DFT/build-Nov24/pseudopotentials/SG15/Rb_ONCV_PBE.pulay ... using dE_dnG = -1.360715e-05 computed for Ecut = 20.

Initialized 1 species with 1 total atoms.

Folded 1 k-points by 12x12x1 to 144 k-points.

---------- Setting up k-points, bands, fillings ----------
Reduced to 19 k-points under symmetry. 
Computing the number of bands and number of electrons
Calculating initial fillings.
nElectrons:   9.000000   nBands: 6   nStates: 38

----- Setting up reduced wavefunction bases (one per k-point) -----
average nbasis = 52924.021 , ideal nbasis = 52918.836

---------- Setting up coulomb interaction ----------
Initialized slab truncation along lattice direction 001

---------- Setting up 2D ewald sum ----------
Optimum gaussian width for ewald sums = 10.498040 bohr.
Real space sums over 289 unit cells with max indices [  8  8  0  ]
Reciprocal space sums over 81 terms with max indices [  4  4  0  ]

---------- Allocating electronic variables ----------
Initializing wave functions:  linear combination of atomic orbitals
Note: number of bands (6) exceeds available atomic orbitals (5)
Rb pseudo-atom occupations:   s ( 2 1 )  p ( 6 )
	FillingsUpdate:  mu: -0.082624947  nElectrons: 9.000000  magneticMoment: [ Abs: 0.22000  Tot: -0.22000 ]
LCAOMinimize: Iter:   0  F: -24.4307261051866824  |grad|_K:  5.163e-06  alpha:  1.000e+00
	FillingsUpdate:  mu: -0.082623804  nElectrons: 9.000000  magneticMoment: [ Abs: 0.22000  Tot: -0.22000 ]
LCAOMinimize: Iter:   1  F: -24.4307261231817563  |grad|_K:  2.499e-08  alpha:  9.869e-01  linmin: -8.562e-03  cgtest:  2.943e-01  t[s]:     15.20
LCAOMinimize: Encountered beta<0, resetting CG.
	FillingsUpdate:  mu: -0.082623803  nElectrons: 9.000000  magneticMoment: [ Abs: 0.22000  Tot: -0.22000 ]
LCAOMinimize: Iter:   2  F: -24.4307261231820725  |grad|_K:  8.268e-09  alpha:  6.694e-01  linmin: -1.850e-02  cgtest:  1.000e+00  t[s]:     19.31
LCAOMinimize: Encountered beta<0, resetting CG.
LCAOMinimize: Converged (|Delta F|<1.000000e-06 for 2 iters).


---- Citations for features of the code used in this run ----

   Software package:
      R. Sundararaman, K. Letchworth-Weaver, K.A. Schwarz, D. Gunceler, Y. Ozhabes and T.A. Arias, 'JDFTx: software for joint density-functional theory', SoftwareX 6, 278 (2017)

   gga-PBE exchange-correlation functional:
      J.P. Perdew, K. Burke and M. Ernzerhof, Phys. Rev. Lett. 77, 3865 (1996)

   Pseudopotentials:
      M Schlipf and F Gygi, Comput. Phys. Commun. 196, 36 (2015)

   Truncated Coulomb potentials:
      R. Sundararaman and T.A. Arias, Phys. Rev. B 87, 165122 (2013)

This list may not be complete. Please suggest additional citations or
report any other bugs at https://github.com/shankar1729/jdftx/issues

Initialization completed successfully at t[s]:     19.57


-------- Electronic minimization -----------
Will mix electronic density at each iteration.
	FillingsUpdate:  mu: -0.082623803  nElectrons: 9.000000  magneticMoment: [ Abs: 0.22000  Tot: -0.22000 ]
	FillingsUpdate:  mu: -0.082720928  nElectrons: 9.000000  magneticMoment: [ Abs: 0.22000  Tot: -0.22000 ]
SCF: Cycle:  0   F: -24.430841928517051   dF: -1.158e-04   |Residual|: 7.897e-04   |deigs|: 1.755e-01  t[s]:     27.74
	FillingsUpdate:  mu: -0.082760225  nElectrons: 9.000000  magneticMoment: [ Abs: 0.22098  Tot: -0.22000 ]
SCF: Cycle:  1   F: -24.430843887969292   dF: -1.959e-06   |Residual|: 5.067e-04   |deigs|: 4.291e-03  t[s]:     34.13
	FillingsUpdate:  mu: -0.082808784  nElectrons: 9.000000  magneticMoment: [ Abs: 0.22105  Tot: -0.22000 ]
SCF: Cycle:  2   F: -24.430844522990462   dF: -6.350e-07   |Residual|: 4.042e-04   |deigs|: 1.639e-03  t[s]:     40.66
	FillingsUpdate:  mu: -0.082899003  nElectrons: 9.000000  magneticMoment: [ Abs: 0.22157  Tot: -0.22000 ]
SCF: Cycle:  3   F: -24.430845144291478   dF: -6.213e-07   |Residual|: 2.810e-04   |deigs|: 6.323e-04  t[s]:     47.28
	FillingsUpdate:  mu: -0.082995340  nElectrons: 9.000000  magneticMoment: [ Abs: 0.22136  Tot: -0.22000 ]
SCF: Cycle:  4   F: -24.430845881888871   dF: -7.376e-07   |Residual|: 1.822e-04   |deigs|: 6.075e-04  t[s]:     54.07
	FillingsUpdate:  mu: -0.083050963  nElectrons: 9.000000  magneticMoment: [ Abs: 0.22154  Tot: -0.22000 ]
SCF: Cycle:  5   F: -24.430846301558876   dF: -4.197e-07   |Residual|: 1.239e-04   |deigs|: 9.137e-04  t[s]:     61.04
	FillingsUpdate:  mu: -0.083052463  nElectrons: 9.000000  magneticMoment: [ Abs: 0.22147  Tot: -0.22000 ]
SCF: Cycle:  6   F: -24.430846558773574   dF: -2.572e-07   |Residual|: 7.934e-05   |deigs|: 6.171e-04  t[s]:     68.08
	FillingsUpdate:  mu: -0.083045881  nElectrons: 9.000000  magneticMoment: [ Abs: 0.22139  Tot: -0.22000 ]
SCF: Cycle:  7   F: -24.430846698731838   dF: -1.400e-07   |Residual|: 5.823e-05   |deigs|: 5.568e-04  t[s]:     75.12
	FillingsUpdate:  mu: -0.083028994  nElectrons: 9.000000  magneticMoment: [ Abs: 0.22135  Tot: -0.22000 ]
SCF: Cycle:  8   F: -24.430846771607879   dF: -7.288e-08   |Residual|: 4.456e-05   |deigs|: 1.737e-04  t[s]:     82.31
	FillingsUpdate:  mu: -0.083001739  nElectrons: 9.000000  magneticMoment: [ Abs: 0.22126  Tot: -0.22000 ]
SCF: Cycle:  9   F: -24.430846800635930   dF: -2.903e-08   |Residual|: 3.250e-05   |deigs|: 1.399e-04  t[s]:     89.60
	FillingsUpdate:  mu: -0.082982787  nElectrons: 9.000000  magneticMoment: [ Abs: 0.22129  Tot: -0.22000 ]
SCF: Cycle: 10   F: -24.430846804399874   dF: -3.764e-09   |Residual|: 2.989e-05   |deigs|: 1.556e-04  t[s]:     97.08
	FillingsUpdate:  mu: -0.082960795  nElectrons: 9.000000  magneticMoment: [ Abs: 0.22138  Tot: -0.22000 ]
SCF: Cycle: 11   F: -24.430846787436458   dF: +1.696e-08   |Residual|: 2.671e-05   |deigs|: 8.481e-05  t[s]:    104.57
	FillingsUpdate:  mu: -0.082928960  nElectrons: 9.000000  magneticMoment: [ Abs: 0.22138  Tot: -0.22000 ]
SCF: Cycle: 12   F: -24.430846745462286   dF: +4.197e-08   |Residual|: 2.453e-05   |deigs|: 5.183e-05  t[s]:    112.10
	FillingsUpdate:  mu: -0.082903555  nElectrons: 9.000000  magneticMoment: [ Abs: 0.22133  Tot: -0.22000 ]
SCF: Cycle: 13   F: -24.430846758211477   dF: -1.275e-08   |Residual|: 2.164e-05   |deigs|: 4.292e-05  t[s]:    119.54
	FillingsUpdate:  mu: -0.082877524  nElectrons: 9.000000  magneticMoment: [ Abs: 0.22135  Tot: -0.22000 ]
SCF: Cycle: 14   F: -24.430846725071898   dF: +3.314e-08   |Residual|: 2.035e-05   |deigs|: 6.522e-05  t[s]:    127.01
	FillingsUpdate:  mu: -0.082859776  nElectrons: 9.000000  magneticMoment: [ Abs: 0.22131  Tot: -0.22000 ]
SCF: Cycle: 15   F: -24.430846771951490   dF: -4.688e-08   |Residual|: 1.806e-05   |deigs|: 9.713e-05  t[s]:    134.56
	FillingsUpdate:  mu: -0.082832710  nElectrons: 9.000000  magneticMoment: [ Abs: 0.22131  Tot: -0.22000 ]
SCF: Cycle: 16   F: -24.430846780851311   dF: -8.900e-09   |Residual|: 1.596e-05   |deigs|: 1.063e-04  t[s]:    142.01
	FillingsUpdate:  mu: -0.082809079  nElectrons: 9.000000  magneticMoment: [ Abs: 0.22130  Tot: -0.22000 ]
SCF: Cycle: 17   F: -24.430846749752501   dF: +3.110e-08   |Residual|: 1.392e-05   |deigs|: 7.839e-05  t[s]:    149.43
	FillingsUpdate:  mu: -0.082805440  nElectrons: 9.000000  magneticMoment: [ Abs: 0.22125  Tot: -0.22000 ]
SCF: Cycle: 18   F: -24.430846798720335   dF: -4.897e-08   |Residual|: 1.143e-05   |deigs|: 4.565e-05  t[s]:    156.70
	FillingsUpdate:  mu: -0.082801864  nElectrons: 9.000000  magneticMoment: [ Abs: 0.22126  Tot: -0.22000 ]
SCF: Cycle: 19   F: -24.430846810474890   dF: -1.175e-08   |Residual|: 8.887e-06   |deigs|: 2.355e-05  t[s]:    163.53
	FillingsUpdate:  mu: -0.082794738  nElectrons: 9.000000  magneticMoment: [ Abs: 0.22128  Tot: -0.22000 ]
SCF: Cycle: 20   F: -24.430846835117734   dF: -2.464e-08   |Residual|: 6.019e-06   |deigs|: 1.438e-05  t[s]:    171.01
	FillingsUpdate:  mu: -0.082792877  nElectrons: 9.000000  magneticMoment: [ Abs: 0.22127  Tot: -0.22000 ]
SCF: Cycle: 21   F: -24.430846851270697   dF: -1.615e-08   |Residual|: 4.435e-06   |deigs|: 6.613e-06  t[s]:    177.92
	FillingsUpdate:  mu: -0.082791915  nElectrons: 9.000000  magneticMoment: [ Abs: 0.22126  Tot: -0.22000 ]
SCF: Cycle: 22   F: -24.430846850371108   dF: +8.996e-10   |Residual|: 3.347e-06   |deigs|: 3.849e-06  t[s]:    184.77
	FillingsUpdate:  mu: -0.082791346  nElectrons: 9.000000  magneticMoment: [ Abs: 0.22126  Tot: -0.22000 ]
SCF: Cycle: 23   F: -24.430846856085001   dF: -5.714e-09   |Residual|: 2.179e-06   |deigs|: 3.791e-06  t[s]:    192.06
	FillingsUpdate:  mu: -0.082791598  nElectrons: 9.000000  magneticMoment: [ Abs: 0.22126  Tot: -0.22000 ]
SCF: Cycle: 24   F: -24.430846857358912   dF: -1.274e-09   |Residual|: 1.477e-06   |deigs|: 5.390e-06  t[s]:    198.91
SCF: Converged (|Delta E|<1.000000e-08 for 2 iters).


# Ionic positions in lattice coordinates:
ion Rb   0.000000000000000   0.000000000000000   0.000000000000000 0

# Forces in Lattice coordinates:
force Rb  -0.000000000000000   0.000000000000000   0.000000000000000 0

# Energy components:
   Eewald =       -9.0240130501663280
       EH =       10.5178749441479393
     Eloc =      -28.4416796639876637
      Enl =       -0.7931909924110871
   Epulay =        0.0000000056959385
      Exc =       -3.6477202306364229
       KE =        6.9578826228089996
-------------------------------------
     Etot =      -24.4308463645486285
       TS =        0.0000004928102820
-------------------------------------
        F =      -24.4308468573589117

IonicMinimize: Iter:   0  F: -24.430846857358912  |grad|_K:  0.000e+00  t[s]:    199.31
IonicMinimize: Converged (|grad|_K<1.000000e-04).

#--- Lowdin population analysis ---
# oxidation-state Rb +0.002
# magnetic-moments Rb -0.220

End date and time: Sun Feb  6 12:47:33 2022  (Duration: 0-0:03:19.38)
Done!
