
*************** JDFTx 1.6.0 (git hash 42ebbcc2) ***************

Start date and time: Sun Feb  6 12:44:14 2022
Executable jdftx with command-line: -i Alkali.in
Running on hosts (process indices):  d-17-2-2 (0-18)
Divided in process groups (process indices):  0 (0)  1 (1)  2 (2)  3 (3)  4 (4)  5 (5)  6 (6)  7 (7)  8 (8)  9 (9)  10 (10)  11 (11)  12 (12)  13 (13)  14 (14)  15 (15)  16 (16)  17 (17)  18 (18)
Resource initialization completed at t[s]:      0.00
Run totals: 19 processes, 48 threads, 0 GPUs


Input parsed successfully to the following command list (including defaults):

basis kpoint-dependent
coords-type Lattice
core-overlap-check vector
coulomb-interaction Slab 001
davidson-band-ratio 1.1
dump End None
dump-name $INPUT.$VAR
elec-cutoff 20
elec-eigen-algo Davidson
elec-ex-corr gga-PBE
elec-initial-magnetization -0.280000 yes
elec-smearing Fermi 1e-05
electronic-minimize  \
	dirUpdateScheme      FletcherReeves \
	linminMethod         DirUpdateRecommended \
	nIterations          100 \
	history              15 \
	knormThreshold       0 \
	energyDiffThreshold  1e-08 \
	nEnergyDiff          2 \
	alphaTstart          1 \
	alphaTmin            1e-10 \
	updateTestStepSize   yes \
	alphaTreduceFactor   0.1 \
	alphaTincreaseFactor 3 \
	nAlphaAdjustMax      3 \
	wolfeEnergy          0.0001 \
	wolfeGradient        0.9 \
	fdTest               no
electronic-scf  \
	nIterations	10000 \
	energyDiffThreshold	1e-08 \
	residualThreshold	1e-07 \
	mixFraction	0.5 \
	qMetric	0.8 \
	history	10 \
	nEigSteps	2 \
	eigDiffThreshold	1e-08 \
	mixedVariable	Density \
	qKerker	0.8 \
	qKappa	-1 \
	verbose	no \
	mixFractionMag	1.5
exchange-regularization WignerSeitzTruncated
fluid None
fluid-ex-corr (null) lda-PZ
fluid-gummel-loop 10 1.000000e-05
fluid-minimize  \
	dirUpdateScheme      PolakRibiere \
	linminMethod         DirUpdateRecommended \
	nIterations          100 \
	history              15 \
	knormThreshold       0 \
	energyDiffThreshold  0 \
	nEnergyDiff          2 \
	alphaTstart          1 \
	alphaTmin            1e-10 \
	updateTestStepSize   yes \
	alphaTreduceFactor   0.1 \
	alphaTincreaseFactor 3 \
	nAlphaAdjustMax      3 \
	wolfeEnergy          0.0001 \
	wolfeGradient        0.9 \
	fdTest               no
fluid-solvent H2O 55.338 ScalarEOS \
	epsBulk 78.4 \
	pMol 0.92466 \
	epsInf 1.77 \
	Pvap 1.06736e-10 \
	sigmaBulk 4.62e-05 \
	Rvdw 2.61727 \
	Res 1.42 \
	tauNuc 343133 \
	poleEl 15 7 1
forces-output-coords Positions
ion Rb   0.000000000000000   0.000000000000000   0.000000000000000 0
ion-species SG15/$ID_ONCV_PBE.upf
ion-width 0
ionic-minimize  \
	dirUpdateScheme      L-BFGS \
	linminMethod         DirUpdateRecommended \
	nIterations          0 \
	history              15 \
	knormThreshold       0.0001 \
	energyDiffThreshold  1e-06 \
	nEnergyDiff          2 \
	alphaTstart          1 \
	alphaTmin            1e-10 \
	updateTestStepSize   yes \
	alphaTreduceFactor   0.1 \
	alphaTincreaseFactor 3 \
	nAlphaAdjustMax      3 \
	wolfeEnergy          0.0001 \
	wolfeGradient        0.9 \
	fdTest               no
kpoint   0.000000000000   0.000000000000   0.000000000000  1.00000000000000
kpoint-folding 12 12 1 
latt-move-scale 1 1 1
latt-scale 4 4 1 
lattice  \
	   4.727486978767153   -2.363743489383575    0.000000000000000  \
	  -0.000000000000000    4.094123819672498    0.000000000000000  \
	   0.000000000000000    0.000000000000000   40.000000000000000 
lattice-minimize  \
	dirUpdateScheme      L-BFGS \
	linminMethod         DirUpdateRecommended \
	nIterations          0 \
	history              15 \
	knormThreshold       0 \
	energyDiffThreshold  1e-06 \
	nEnergyDiff          2 \
	alphaTstart          1 \
	alphaTmin            1e-10 \
	updateTestStepSize   yes \
	alphaTreduceFactor   0.1 \
	alphaTincreaseFactor 3 \
	nAlphaAdjustMax      3 \
	wolfeEnergy          0.0001 \
	wolfeGradient        0.9 \
	fdTest               no
lcao-params -1 1e-06 1e-05
pcm-variant GLSSA13
spintype z-spin
subspace-rotation-factor 1 yes
symmetries automatic
symmetry-threshold 0.0001



---------- Setting up symmetries ----------

Found 24 point-group symmetries of the bravais lattice
Found 24 space-group symmetries with basis
Applied RMS atom displacement 0 bohrs to make symmetries exact.

---------- Initializing the Grid ----------
R = 
[      18.9099     -9.45497            0  ]
[            0      16.3765            0  ]
[            0            0           40  ]
unit cell volume = 12387.1
G =
[   0.332269   0.191835         -0  ]
[          0   0.383671         -0  ]
[         -0         -0    0.15708  ]
Minimum fftbox size, Smin = [  80  80  164  ]
Chosen fftbox size, S = [  80  80  168  ]

---------- Exchange Correlation functional ----------
Initalized PBE GGA exchange.
Initalized PBE GGA correlation.

---------- Setting up pseudopotentials ----------
Width of ionic core gaussian charges (only for fluid interactions / plotting) set to 0

Reading pseudopotential file '/home/gridsan/aligho/DFT/build-Nov24/pseudopotentials/SG15/Rb_ONCV_PBE.upf':
  'Rb' pseudopotential, 'PBE' functional
  Generated using ONCVPSP code by D. R. Hamann
  Author: Martin Schlipf and Francois Gygi  Date: 150915.
  9 valence electrons, 3 orbitals, 6 projectors, 2308 radial grid points, with lMax = 2
  Transforming local potential to a uniform radial grid of dG=0.02 with 1489 points.
  Transforming nonlocal projectors to a uniform radial grid of dG=0.02 with 432 points.
    4S    l: 0   occupation:  2.0   eigenvalue: -1.172069
    4P    l: 1   occupation:  6.0   eigenvalue: -0.586674
    5S    l: 0   occupation:  1.0   eigenvalue: -0.082006
  Transforming atomic orbitals to a uniform radial grid of dG=0.02 with 432 points.
  Core radius for overlap checks: 2.60 bohrs.
  Reading pulay file /home/gridsan/aligho/DFT/build-Nov24/pseudopotentials/SG15/Rb_ONCV_PBE.pulay ... using dE_dnG = -1.360715e-05 computed for Ecut = 20.

Initialized 1 species with 1 total atoms.

Folded 1 k-points by 12x12x1 to 144 k-points.

---------- Setting up k-points, bands, fillings ----------
Reduced to 19 k-points under symmetry. 
Computing the number of bands and number of electrons
Calculating initial fillings.
nElectrons:   9.000000   nBands: 6   nStates: 38

----- Setting up reduced wavefunction bases (one per k-point) -----
average nbasis = 52924.021 , ideal nbasis = 52918.836

---------- Setting up coulomb interaction ----------
Initialized slab truncation along lattice direction 001

---------- Setting up 2D ewald sum ----------
Optimum gaussian width for ewald sums = 10.498040 bohr.
Real space sums over 289 unit cells with max indices [  8  8  0  ]
Reciprocal space sums over 81 terms with max indices [  4  4  0  ]

---------- Allocating electronic variables ----------
Initializing wave functions:  linear combination of atomic orbitals
Note: number of bands (6) exceeds available atomic orbitals (5)
Rb pseudo-atom occupations:   s ( 2 1 )  p ( 6 )
	FillingsUpdate:  mu: -0.082651182  nElectrons: 9.000000  magneticMoment: [ Abs: 0.28000  Tot: -0.28000 ]
LCAOMinimize: Iter:   0  F: -24.4308184557408588  |grad|_K:  4.986e-06  alpha:  1.000e+00
	FillingsUpdate:  mu: -0.082650075  nElectrons: 9.000000  magneticMoment: [ Abs: 0.28000  Tot: -0.28000 ]
LCAOMinimize: Iter:   1  F: -24.4308184725264859  |grad|_K:  2.428e-08  alpha:  9.871e-01  linmin: -5.646e-03  cgtest:  2.759e-01  t[s]:     15.15
LCAOMinimize: Encountered beta<0, resetting CG.
	FillingsUpdate:  mu: -0.082650073  nElectrons: 9.000000  magneticMoment: [ Abs: 0.28000  Tot: -0.28000 ]
LCAOMinimize: Iter:   2  F: -24.4308184725268234  |grad|_K:  7.675e-09  alpha:  1.316e+00  linmin:  1.348e-02  cgtest: -1.000e+00  t[s]:     19.15
LCAOMinimize: Converged (|Delta F|<1.000000e-06 for 2 iters).


---- Citations for features of the code used in this run ----

   Software package:
      R. Sundararaman, K. Letchworth-Weaver, K.A. Schwarz, D. Gunceler, Y. Ozhabes and T.A. Arias, 'JDFTx: software for joint density-functional theory', SoftwareX 6, 278 (2017)

   gga-PBE exchange-correlation functional:
      J.P. Perdew, K. Burke and M. Ernzerhof, Phys. Rev. Lett. 77, 3865 (1996)

   Pseudopotentials:
      M Schlipf and F Gygi, Comput. Phys. Commun. 196, 36 (2015)

   Truncated Coulomb potentials:
      R. Sundararaman and T.A. Arias, Phys. Rev. B 87, 165122 (2013)

This list may not be complete. Please suggest additional citations or
report any other bugs at https://github.com/shankar1729/jdftx/issues

Initialization completed successfully at t[s]:     19.42


-------- Electronic minimization -----------
Will mix electronic density at each iteration.
	FillingsUpdate:  mu: -0.082650073  nElectrons: 9.000000  magneticMoment: [ Abs: 0.28000  Tot: -0.28000 ]
	FillingsUpdate:  mu: -0.082748803  nElectrons: 9.000000  magneticMoment: [ Abs: 0.28000  Tot: -0.28000 ]
SCF: Cycle:  0   F: -24.430930919930233   dF: -1.124e-04   |Residual|: 8.562e-04   |deigs|: 1.753e-01  t[s]:     27.63
	FillingsUpdate:  mu: -0.082783523  nElectrons: 9.000000  magneticMoment: [ Abs: 0.28125  Tot: -0.28000 ]
SCF: Cycle:  1   F: -24.430932775455389   dF: -1.856e-06   |Residual|: 4.824e-04   |deigs|: 4.361e-03  t[s]:     34.14
	FillingsUpdate:  mu: -0.082823554  nElectrons: 9.000000  magneticMoment: [ Abs: 0.28135  Tot: -0.28000 ]
SCF: Cycle:  2   F: -24.430933374897009   dF: -5.994e-07   |Residual|: 3.844e-04   |deigs|: 1.640e-03  t[s]:     40.70
	FillingsUpdate:  mu: -0.082893606  nElectrons: 9.000000  magneticMoment: [ Abs: 0.28187  Tot: -0.28000 ]
SCF: Cycle:  3   F: -24.430933876457757   dF: -5.016e-07   |Residual|: 2.774e-04   |deigs|: 7.379e-04  t[s]:     47.41
	FillingsUpdate:  mu: -0.082980076  nElectrons: 9.000000  magneticMoment: [ Abs: 0.28171  Tot: -0.28000 ]
SCF: Cycle:  4   F: -24.430934553379853   dF: -6.769e-07   |Residual|: 1.808e-04   |deigs|: 5.878e-04  t[s]:     54.21
	FillingsUpdate:  mu: -0.083039338  nElectrons: 9.000000  magneticMoment: [ Abs: 0.28189  Tot: -0.28000 ]
SCF: Cycle:  5   F: -24.430934960495783   dF: -4.071e-07   |Residual|: 1.201e-04   |deigs|: 6.492e-04  t[s]:     61.02
	FillingsUpdate:  mu: -0.083042888  nElectrons: 9.000000  magneticMoment: [ Abs: 0.28183  Tot: -0.28000 ]
SCF: Cycle:  6   F: -24.430935194503782   dF: -2.340e-07   |Residual|: 7.819e-05   |deigs|: 6.866e-04  t[s]:     68.04
	FillingsUpdate:  mu: -0.083038656  nElectrons: 9.000000  magneticMoment: [ Abs: 0.28176  Tot: -0.28000 ]
SCF: Cycle:  7   F: -24.430935331516238   dF: -1.370e-07   |Residual|: 5.688e-05   |deigs|: 5.692e-04  t[s]:     75.11
	FillingsUpdate:  mu: -0.083023081  nElectrons: 9.000000  magneticMoment: [ Abs: 0.28171  Tot: -0.28000 ]
SCF: Cycle:  8   F: -24.430935403160021   dF: -7.164e-08   |Residual|: 4.389e-05   |deigs|: 1.899e-04  t[s]:     82.31
	FillingsUpdate:  mu: -0.082995517  nElectrons: 9.000000  magneticMoment: [ Abs: 0.28161  Tot: -0.28000 ]
SCF: Cycle:  9   F: -24.430935436081253   dF: -3.292e-08   |Residual|: 3.233e-05   |deigs|: 1.080e-04  t[s]:     89.66
	FillingsUpdate:  mu: -0.082974996  nElectrons: 9.000000  magneticMoment: [ Abs: 0.28164  Tot: -0.28000 ]
SCF: Cycle: 10   F: -24.430935438603772   dF: -2.523e-09   |Residual|: 2.970e-05   |deigs|: 1.940e-04  t[s]:     97.06
	FillingsUpdate:  mu: -0.082953410  nElectrons: 9.000000  magneticMoment: [ Abs: 0.28174  Tot: -0.28000 ]
SCF: Cycle: 11   F: -24.430935421540493   dF: +1.706e-08   |Residual|: 2.691e-05   |deigs|: 1.781e-04  t[s]:    104.51
	FillingsUpdate:  mu: -0.082920279  nElectrons: 9.000000  magneticMoment: [ Abs: 0.28174  Tot: -0.28000 ]
SCF: Cycle: 12   F: -24.430935360944652   dF: +6.060e-08   |Residual|: 2.441e-05   |deigs|: 1.297e-04  t[s]:    111.95
	FillingsUpdate:  mu: -0.082893124  nElectrons: 9.000000  magneticMoment: [ Abs: 0.28170  Tot: -0.28000 ]
SCF: Cycle: 13   F: -24.430935381381630   dF: -2.044e-08   |Residual|: 2.179e-05   |deigs|: 5.914e-05  t[s]:    119.41
	FillingsUpdate:  mu: -0.082868407  nElectrons: 9.000000  magneticMoment: [ Abs: 0.28171  Tot: -0.28000 ]
SCF: Cycle: 14   F: -24.430935360219330   dF: +2.116e-08   |Residual|: 2.027e-05   |deigs|: 3.815e-05  t[s]:    126.94
	FillingsUpdate:  mu: -0.082851315  nElectrons: 9.000000  magneticMoment: [ Abs: 0.28168  Tot: -0.28000 ]
SCF: Cycle: 15   F: -24.430935403255731   dF: -4.304e-08   |Residual|: 1.770e-05   |deigs|: 2.102e-05  t[s]:    134.46
	FillingsUpdate:  mu: -0.082824946  nElectrons: 9.000000  magneticMoment: [ Abs: 0.28167  Tot: -0.28000 ]
SCF: Cycle: 16   F: -24.430935428278421   dF: -2.502e-08   |Residual|: 1.628e-05   |deigs|: 2.658e-05  t[s]:    141.88
	FillingsUpdate:  mu: -0.082803482  nElectrons: 9.000000  magneticMoment: [ Abs: 0.28164  Tot: -0.28000 ]
SCF: Cycle: 17   F: -24.430935381490677   dF: +4.679e-08   |Residual|: 1.423e-05   |deigs|: 2.091e-05  t[s]:    149.30
	FillingsUpdate:  mu: -0.082798778  nElectrons: 9.000000  magneticMoment: [ Abs: 0.28160  Tot: -0.28000 ]
SCF: Cycle: 18   F: -24.430935427829535   dF: -4.634e-08   |Residual|: 1.149e-05   |deigs|: 5.331e-06  t[s]:    156.61
	FillingsUpdate:  mu: -0.082794077  nElectrons: 9.000000  magneticMoment: [ Abs: 0.28160  Tot: -0.28000 ]
SCF: Cycle: 19   F: -24.430935450890583   dF: -2.306e-08   |Residual|: 8.823e-06   |deigs|: 5.576e-06  t[s]:    163.54
	FillingsUpdate:  mu: -0.082785456  nElectrons: 9.000000  magneticMoment: [ Abs: 0.28163  Tot: -0.28000 ]
SCF: Cycle: 20   F: -24.430935470740813   dF: -1.985e-08   |Residual|: 5.621e-06   |deigs|: 9.566e-06  t[s]:    171.01
	FillingsUpdate:  mu: -0.082783955  nElectrons: 9.000000  magneticMoment: [ Abs: 0.28162  Tot: -0.28000 ]
SCF: Cycle: 21   F: -24.430935489026801   dF: -1.829e-08   |Residual|: 4.197e-06   |deigs|: 2.695e-06  t[s]:    177.84
	FillingsUpdate:  mu: -0.082783349  nElectrons: 9.000000  magneticMoment: [ Abs: 0.28161  Tot: -0.28000 ]
SCF: Cycle: 22   F: -24.430935490519943   dF: -1.493e-09   |Residual|: 3.123e-06   |deigs|: 2.306e-06  t[s]:    184.76
	FillingsUpdate:  mu: -0.082783368  nElectrons: 9.000000  magneticMoment: [ Abs: 0.28161  Tot: -0.28000 ]
SCF: Cycle: 23   F: -24.430935494471974   dF: -3.952e-09   |Residual|: 2.047e-06   |deigs|: 3.154e-06  t[s]:    192.24
SCF: Converged (|Delta E|<1.000000e-08 for 2 iters).


# Ionic positions in lattice coordinates:
ion Rb   0.000000000000000   0.000000000000000   0.000000000000000 0

# Forces in Lattice coordinates:
force Rb  -0.000000000000000   0.000000000000000   0.000000000000000 0

# Energy components:
   Eewald =       -9.0240130501663280
       EH =       10.5195807033600008
     Eloc =      -28.4435158722865360
      Enl =       -0.7931337621316337
   Epulay =        0.0000000056959385
      Exc =       -3.6480240816314575
       KE =        6.9581713481153002
-------------------------------------
     Etot =      -24.4309347090447204
       TS =        0.0000007854272531
-------------------------------------
        F =      -24.4309354944719743

IonicMinimize: Iter:   0  F: -24.430935494471974  |grad|_K:  0.000e+00  t[s]:    192.65
IonicMinimize: Converged (|grad|_K<1.000000e-04).

#--- Lowdin population analysis ---
# oxidation-state Rb +0.002
# magnetic-moments Rb -0.280

End date and time: Sun Feb  6 12:47:27 2022  (Duration: 0-0:03:12.72)
Done!
