Second Layer Distance is 0.289

--------------------------------------------------------------------------
The library attempted to open the following supporting CUDA libraries,
but each of them failed.  CUDA-aware support is disabled.
libcuda.so.1: cannot open shared object file: No such file or directory
libcuda.dylib: cannot open shared object file: No such file or directory
/usr/lib64/libcuda.so.1: cannot open shared object file: No such file or directory
/usr/lib64/libcuda.dylib: cannot open shared object file: No such file or directory
If you are not interested in CUDA-aware support, then run with
--mca opal_warn_on_missing_libcuda 0 to suppress this message.  If you are interested
in CUDA-aware support, then try setting LD_LIBRARY_PATH to the location
of libcuda.so.1 to get passed this issue.
--------------------------------------------------------------------------
--------------------------------------------------------------------------
No OpenFabrics connection schemes reported that they were able to be
used on a specific port.  As such, the openib BTL (OpenFabrics
support) will be disabled for this port.

  Local host:           d-4-11-3
  Local device:         mlx5_1
  Local port:           1
  CPCs attempted:       rdmacm, udcm
--------------------------------------------------------------------------

*************** JDFTx 1.6.0 (git hash 42ebbcc2) ***************

Start date and time: Thu Mar 31 21:37:18 2022
Executable jdftx with command-line: -i Moire.dos.in
Running on hosts (process indices):  d-4-11-3 (0-37)
Divided in process groups (process indices):  0 (0)  1 (1)  2 (2)  3 (3)  4 (4)  5 (5)  6 (6)  7 (7)  8 (8)  9 (9)  10 (10)  11 (11)  12 (12)  13 (13)  14 (14)  15 (15)  16 (16)  17 (17)  18 (18)  19 (19)  20 (20)  21 (21)  22 (22)  23 (23)  24 (24)  25 (25)  26 (26)  27 (27)  28 (28)  29 (29)  30 (30)  31 (31)  32 (32)  33 (33)  34 (34)  35 (35)  36 (36)  37 (37)
Resource initialization completed at t[s]:      0.00
Run totals: 38 processes, 48 threads, 0 GPUs


Input parsed successfully to the following command list (including defaults):

basis kpoint-dependent
coords-type Lattice
core-overlap-check vector
coulomb-interaction Slab 001
davidson-band-ratio 1.1
dump End DOS
dump-name Na-0.289.$VAR
elec-cutoff 20
elec-eigen-algo Davidson
elec-ex-corr gga-PBE
elec-initial-magnetization 0.100000 no
elec-smearing Fermi 1e-05
electronic-minimize  \
	dirUpdateScheme      FletcherReeves \
	linminMethod         DirUpdateRecommended \
	nIterations          100 \
	history              15 \
	knormThreshold       0 \
	energyDiffThreshold  1e-08 \
	nEnergyDiff          2 \
	alphaTstart          1 \
	alphaTmin            1e-10 \
	updateTestStepSize   yes \
	alphaTreduceFactor   0.1 \
	alphaTincreaseFactor 3 \
	nAlphaAdjustMax      3 \
	wolfeEnergy          0.0001 \
	wolfeGradient        0.9 \
	fdTest               no
exchange-regularization WignerSeitzTruncated
fix-electron-density ../Na-0.289.$VAR
fluid None
fluid-ex-corr (null) lda-PZ
fluid-gummel-loop 10 1.000000e-05
fluid-minimize  \
	dirUpdateScheme      PolakRibiere \
	linminMethod         DirUpdateRecommended \
	nIterations          100 \
	history              15 \
	knormThreshold       0 \
	energyDiffThreshold  0 \
	nEnergyDiff          2 \
	alphaTstart          1 \
	alphaTmin            1e-10 \
	updateTestStepSize   yes \
	alphaTreduceFactor   0.1 \
	alphaTincreaseFactor 3 \
	nAlphaAdjustMax      3 \
	wolfeEnergy          0.0001 \
	wolfeGradient        0.9 \
	fdTest               no
fluid-solvent H2O 55.338 ScalarEOS \
	epsBulk 78.4 \
	pMol 0.92466 \
	epsInf 1.77 \
	Pvap 1.06736e-10 \
	sigmaBulk 4.62e-05 \
	Rvdw 2.61727 \
	Res 1.42 \
	tauNuc 343133 \
	poleEl 15 7 1
forces-output-coords Positions
ion N   0.952380952380952   0.761904761904762   0.000000000000000 0
ion N   1.428571428571428   1.285714285714286   0.289000000000000 0
ion N   0.380952380952381   0.904761904761905   0.000000000000000 0
ion N   0.714285714285714   1.142857142857143   0.289000000000000 0
ion N   0.523809523809524   0.619047619047619   0.000000000000000 0
ion N   1.000000000000000   1.000000000000000   0.289000000000000 0
ion N   0.666666666666667   0.333333333333333   0.000000000000000 0
ion N   1.285714285714286   0.857142857142857   0.289000000000000 0
ion N   0.809523809523810   0.047619047619048   0.000000000000000 0
ion N   1.571428571428571   0.714285714285714   0.289000000000000 0
ion N   0.095238095238095   0.476190476190476   0.000000000000000 0
ion N   0.238095238095238   0.190476190476190   0.000000000000000 0
ion N   0.857142857142857   0.571428571428571   0.289000000000000 0
ion N   1.142857142857143   0.428571428571429   0.289000000000000 0
ion B   0.571428571428572   0.857142857142857   0.000000000000000 0
ion B   0.952380952380952   1.190476190476190   0.289000000000000 0
ion B   0.714285714285714   0.571428571428571   0.000000000000000 0
ion B   1.238095238095238   1.047619047619047   0.289000000000000 0
ion B   0.857142857142857   0.285714285714286   0.000000000000000 0
ion B   1.523809523809524   0.904761904761905   0.289000000000000 0
ion B   0.142857142857143   0.714285714285714   0.000000000000000 0
ion B   0.285714285714286   0.428571428571429   0.000000000000000 0
ion B   0.809523809523810   0.761904761904762   0.289000000000000 0
ion B   0.428571428571429   0.142857142857143   0.000000000000000 0
ion B   1.095238095238095   0.619047619047619   0.289000000000000 0
ion B   1.380952380952381   0.476190476190476   0.289000000000000 0
ion B   0.000000000000000   0.000000000000000   0.000000000000000 0
ion B   0.666666666666667   0.333333333333333   0.289000000000000 0
ion Na   0.333333333300000   0.666666666600000   0.144500000000000 0
ion-species SG15/$ID_ONCV_PBE.upf
ion-width 0
ionic-minimize  \
	dirUpdateScheme      L-BFGS \
	linminMethod         DirUpdateRecommended \
	nIterations          0 \
	history              15 \
	knormThreshold       0.0001 \
	energyDiffThreshold  1e-06 \
	nEnergyDiff          2 \
	alphaTstart          1 \
	alphaTmin            1e-10 \
	updateTestStepSize   yes \
	alphaTreduceFactor   0.1 \
	alphaTincreaseFactor 3 \
	nAlphaAdjustMax      3 \
	wolfeEnergy          0.0001 \
	wolfeGradient        0.9 \
	fdTest               no
kpoint   0.000000000000   0.000000000000   0.000000000000  1.00000000000000
kpoint-folding 36 36 1 
latt-move-scale 1 1 1
latt-scale 1 1 1 
lattice  \
	 -11.818700000000000    2.363740000000000    0.000000000000000  \
	   4.094120000000000  -12.282400000000001    0.000000000000000  \
	   0.000000000000000    0.000000000000000   40.000000000000000 
lattice-minimize  \
	dirUpdateScheme      L-BFGS \
	linminMethod         DirUpdateRecommended \
	nIterations          0 \
	history              15 \
	knormThreshold       0 \
	energyDiffThreshold  1e-06 \
	nEnergyDiff          2 \
	alphaTstart          1 \
	alphaTmin            1e-10 \
	updateTestStepSize   yes \
	alphaTreduceFactor   0.1 \
	alphaTincreaseFactor 3 \
	nAlphaAdjustMax      3 \
	wolfeEnergy          0.0001 \
	wolfeGradient        0.9 \
	fdTest               no
lcao-params -1 1e-06 1e-05
pcm-variant GLSSA13
spintype z-spin
subspace-rotation-factor 1 yes
symmetries automatic
symmetry-threshold 0.0001
van-der-waals D3



---------- Setting up symmetries ----------

Found 24 point-group symmetries of the bravais lattice
Found 6 space-group symmetries with basis
Applied RMS atom displacement 1.31765e-10 bohrs to make symmetries exact.

---------- Initializing the Grid ----------
R = 
[     -11.8187      2.36374            0  ]
[      4.09412     -12.2824            0  ]
[            0            0           40  ]
unit cell volume = 5419.38
G =
[  -0.569604   -0.10962          0  ]
[  -0.189867    -0.5481          0  ]
[          0          0    0.15708  ]
Minimum fftbox size, Smin = [  52  52  164  ]
Chosen fftbox size, S = [  54  54  168  ]

---------- Exchange Correlation functional ----------
Initalized PBE GGA exchange.
Initalized PBE GGA correlation.

---------- Setting up pseudopotentials ----------
Width of ionic core gaussian charges (only for fluid interactions / plotting) set to 0

Reading pseudopotential file '/home/gridsan/aligho/DFT/build-Nov24/pseudopotentials/SG15/N_ONCV_PBE.upf':
  'N' pseudopotential, 'PBE' functional
  Generated using ONCVPSP code by D. R. Hamann
  Author: Martin Schlipf and Francois Gygi  Date: 150915.
  5 valence electrons, 2 orbitals, 4 projectors, 1058 radial grid points, with lMax = 1
  Transforming local potential to a uniform radial grid of dG=0.02 with 1514 points.
  Transforming nonlocal projectors to a uniform radial grid of dG=0.02 with 432 points.
    2S    l: 0   occupation:  2.0   eigenvalue: -0.682907
    2P    l: 1   occupation:  3.0   eigenvalue: -0.260548
  Transforming atomic orbitals to a uniform radial grid of dG=0.02 with 432 points.
  Core radius for overlap checks: 1.35 bohrs.
  Reading pulay file /home/gridsan/aligho/DFT/build-Nov24/pseudopotentials/SG15/N_ONCV_PBE.pulay ... using dE_dnG = -2.956256e-02 computed for Ecut = 20.

Reading pseudopotential file '/home/gridsan/aligho/DFT/build-Nov24/pseudopotentials/SG15/B_ONCV_PBE.upf':
  'B' pseudopotential, 'PBE' functional
  Generated using ONCVPSP code by D. R. Hamann
  Author: Martin Schlipf and Francois Gygi  Date: 150915.
  3 valence electrons, 2 orbitals, 4 projectors, 1534 radial grid points, with lMax = 1
  Transforming local potential to a uniform radial grid of dG=0.02 with 1514 points.
  Transforming nonlocal projectors to a uniform radial grid of dG=0.02 with 432 points.
    2S    l: 0   occupation:  2.0   eigenvalue: -0.347027
    2P    l: 1   occupation:  1.0   eigenvalue: -0.132548
  Transforming atomic orbitals to a uniform radial grid of dG=0.02 with 432 points.
  Core radius for overlap checks: 1.60 bohrs.
  Reading pulay file /home/gridsan/aligho/DFT/build-Nov24/pseudopotentials/SG15/B_ONCV_PBE.pulay ... using dE_dnG = -3.748568e-04 computed for Ecut = 20.

Reading pseudopotential file '/home/gridsan/aligho/DFT/build-Nov24/pseudopotentials/SG15/Na_ONCV_PBE.upf':
  'Na' pseudopotential, 'PBE' functional
  Generated using ONCVPSP code by D. R. Hamann
  Author: Martin Schlipf and Francois Gygi  Date: 150915.
  9 valence electrons, 3 orbitals, 4 projectors, 1992 radial grid points, with lMax = 1
  Transforming local potential to a uniform radial grid of dG=0.02 with 1514 points.
  Transforming nonlocal projectors to a uniform radial grid of dG=0.02 with 432 points.
    2S    l: 0   occupation:  2.0   eigenvalue: -2.085640
    2P    l: 1   occupation:  6.0   eigenvalue: -1.053708
    3S    l: 0   occupation:  1.0   eigenvalue: -0.100838
  Transforming atomic orbitals to a uniform radial grid of dG=0.02 with 432 points.
  Core radius for overlap checks: 2.01 bohrs.
  Reading pulay file /home/gridsan/aligho/DFT/build-Nov24/pseudopotentials/SG15/Na_ONCV_PBE.pulay ... using dE_dnG = -2.946487e-03 computed for Ecut = 20.

Initialized 3 species with 29 total atoms.

Folded 1 k-points by 36x36x1 to 1296 k-points.

---------- Setting up k-points, bands, fillings ----------
Adding inversion symmetry to k-mesh for non-inversion-symmetric unit cell.
Reduced to 127 k-points under symmetry. 
Computing the number of bands and number of electrons
Calculating initial fillings.
nElectrons: 121.000000   nBands: 117   nStates: 254

----- Setting up reduced wavefunction bases (one per k-point) -----
average nbasis = 23152.266 , ideal nbasis = 23152.016

----- Initializing Supercell corresponding to k-point mesh -----
Lattice vector linear combinations in supercell:
[  36   0   0  ]
[   0  36   0  ]
[   0   0   1  ]
Supercell lattice vectors:
[  -425.473  85.0946  0  ]
[  147.388  -442.166  0  ]
[  0  0  40  ]

---------- Setting up coulomb interaction ----------
Initialized slab truncation along lattice direction 001

Initializing DFT-D3 calculator:
	Parameters set for gga-PBE functional
	s6:  1.000  s_r6:  1.217
	s8:  0.722  s_r8:  1.000
	Per-atom parameters loaded for:
	 N:  sqrtQ[a0]:  2.712  Rcov[a0]:  1.342  CN: [ 0.00 0.99 2.01 2.99 ]
	 B:  sqrtQ[a0]:  3.644  Rcov[a0]:  1.455  CN: [ 0.00 0.97 1.94 2.91 4.59 ]
	Na:  sqrtQ[a0]:  6.586  Rcov[a0]:  2.646  CN: [ 0.00 0.97 ]

---------- Setting up 2D ewald sum ----------
Optimum gaussian width for ewald sums = 6.943804 bohr.
Real space sums over 289 unit cells with max indices [  8  8  0  ]
Reciprocal space sums over 81 terms with max indices [  4  4  0  ]

Computing DFT-D3 correction:
# coordination-number N 3.143 3.143 3.200 3.143 3.200 3.140 3.140 3.200 3.143 3.200 3.200 3.143 3.143 3.200
# coordination-number B 3.430 3.349 3.348 3.349 3.349 3.430 3.430 3.430 3.349 3.349 3.430 3.430 3.344 3.344
# coordination-number Na 1.040
# diagonal-C6 N 15.61 15.61 15.60 15.61 15.60 15.61 15.61 15.60 15.61 15.60 15.60 15.61 15.61 15.60
# diagonal-C6 B 31.40 31.44 31.44 31.44 31.44 31.40 31.40 31.40 31.44 31.44 31.40 31.40 31.44 31.44
# diagonal-C6 Na 194.73
EvdW_6 =   -0.031758
EvdW_8 =   -0.030394

---------- Allocating electronic variables ----------
Reading n_up from file '../Na-0.289.n_up' ... done
Reading n_dn from file '../Na-0.289.n_dn' ... done
Initializing wave functions:  linear combination of atomic orbitals
[d-4-11-3:08850] 37 more processes have sent help message help-mpi-common-cuda.txt / dlopen failed
[d-4-11-3:08850] Set MCA parameter "orte_base_help_aggregate" to 0 to see all help / error messages
[d-4-11-3:08850] 37 more processes have sent help message help-mpi-btl-openib-cpc-base.txt / no cpcs for port


---- Citations for features of the code used in this run ----

   Software package:
      R. Sundararaman, K. Letchworth-Weaver, K.A. Schwarz, D. Gunceler, Y. Ozhabes and T.A. Arias, 'JDFTx: software for joint density-functional theory', SoftwareX 6, 278 (2017)

   gga-PBE exchange-correlation functional:
      J.P. Perdew, K. Burke and M. Ernzerhof, Phys. Rev. Lett. 77, 3865 (1996)

   Pseudopotentials:
      M Schlipf and F Gygi, Comput. Phys. Commun. 196, 36 (2015)

   Truncated Coulomb potentials:
      R. Sundararaman and T.A. Arias, Phys. Rev. B 87, 165122 (2013)

   DFT-D3 dispersion correction:
      S. Grimme, J. Antony, S. Ehrlich and H. Krieg, J. Chem. Phys. 132, 154104 (2010)

   Total energy minimization with Auxiliary Hamiltonian:
      C. Freysoldt, S. Boeck, and J. Neugebauer, Phys. Rev. B 79, 241103(R) (2009)

   Linear-tetrahedron sampling for density of states:
      G. Lehmann and M. Taut, Phys. status solidi (b) 54, 469 (1972)

This list may not be complete. Please suggest additional citations or
report any other bugs at https://github.com/shankar1729/jdftx/issues

Initialization completed successfully at t[s]:     50.22


----------- Band structure minimization -------------
Minimization will be done independently for each quantum number.

---- Minimization of quantum number:     0  [ +0.0000000 +0.0000000 +0.0000000 ]  0.000771605  spin +1 ----
BandDavidson: Iter:   0  Eband: -0.009774926201274
BandDavidson: Iter:   1  Eband: -0.015355167301201  dEband: -5.580241e-03  t[s]:     60.69
BandDavidson: Iter:   2  Eband: -0.017252059512789  dEband: -1.896892e-03  t[s]:     66.90
BandDavidson: Iter:   3  Eband: -0.017935582939315  dEband: -6.835234e-04  t[s]:     73.08
BandDavidson: Iter:   4  Eband: -0.018524206518494  dEband: -5.886236e-04  t[s]:     79.26
BandDavidson: Iter:   5  Eband: -0.018715666599849  dEband: -1.914601e-04  t[s]:     85.41
BandDavidson: Iter:   6  Eband: -0.018836899074911  dEband: -1.212325e-04  t[s]:     91.57
BandDavidson: Iter:   7  Eband: -0.018913749411630  dEband: -7.685034e-05  t[s]:     97.72
BandDavidson: Iter:   8  Eband: -0.018947947414283  dEband: -3.419800e-05  t[s]:    103.89
BandDavidson: Iter:   9  Eband: -0.018976874480373  dEband: -2.892707e-05  t[s]:    110.05
BandDavidson: Iter:  10  Eband: -0.019030033112493  dEband: -5.315863e-05  t[s]:    116.20
BandDavidson: Iter:  11  Eband: -0.019054503623760  dEband: -2.447051e-05  t[s]:    122.37
BandDavidson: Iter:  12  Eband: -0.019067524234524  dEband: -1.302061e-05  t[s]:    128.51
BandDavidson: Iter:  13  Eband: -0.019075473910086  dEband: -7.949676e-06  t[s]:    134.60
BandDavidson: Iter:  14  Eband: -0.019081085091391  dEband: -5.611181e-06  t[s]:    140.70
BandDavidson: Iter:  15  Eband: -0.019085569338420  dEband: -4.484247e-06  t[s]:    146.75
BandDavidson: Iter:  16  Eband: -0.019089199980121  dEband: -3.630642e-06  t[s]:    152.81
BandDavidson: Iter:  17  Eband: -0.019092195822815  dEband: -2.995843e-06  t[s]:    158.87
BandDavidson: Iter:  18  Eband: -0.019094774016473  dEband: -2.578194e-06  t[s]:    164.95
BandDavidson: Iter:  19  Eband: -0.019097047386895  dEband: -2.273370e-06  t[s]:    171.02
BandDavidson: Iter:  20  Eband: -0.019099069777814  dEband: -2.022391e-06  t[s]:    177.07
BandDavidson: Iter:  21  Eband: -0.019100877448586  dEband: -1.807671e-06  t[s]:    183.08
BandDavidson: Iter:  22  Eband: -0.019103887299226  dEband: -3.009851e-06  t[s]:    188.98
BandDavidson: Iter:  23  Eband: -0.019106556088592  dEband: -2.668789e-06  t[s]:    194.87
BandDavidson: Iter:  24  Eband: -0.019108670638210  dEband: -2.114550e-06  t[s]:    200.78
BandDavidson: Iter:  25  Eband: -0.019110311311488  dEband: -1.640673e-06  t[s]:    206.67
BandDavidson: Iter:  26  Eband: -0.019111572076252  dEband: -1.260765e-06  t[s]:    212.58
BandDavidson: Iter:  27  Eband: -0.019112533552550  dEband: -9.614763e-07  t[s]:    218.43
BandDavidson: Iter:  28  Eband: -0.019113261823155  dEband: -7.282706e-07  t[s]:    224.10
BandDavidson: Iter:  29  Eband: -0.019113815319770  dEband: -5.534966e-07  t[s]:    229.57
BandDavidson: Iter:  30  Eband: -0.019114238685973  dEband: -4.233662e-07  t[s]:    234.76
BandDavidson: Iter:  31  Eband: -0.019114563833042  dEband: -3.251471e-07  t[s]:    239.58
BandDavidson: Iter:  32  Eband: -0.019114813655885  dEband: -2.498228e-07  t[s]:    244.10
BandDavidson: Iter:  33  Eband: -0.019115009003164  dEband: -1.953473e-07  t[s]:    248.54
BandDavidson: Iter:  34  Eband: -0.019115162821748  dEband: -1.538186e-07  t[s]:    252.96
BandDavidson: Iter:  35  Eband: -0.019115285263466  dEband: -1.224417e-07  t[s]:    257.35
BandDavidson: Iter:  36  Eband: -0.019115381995563  dEband: -9.673210e-08  t[s]:    261.64
BandDavidson: Iter:  37  Eband: -0.019115458179210  dEband: -7.618365e-08  t[s]:    265.64
BandDavidson: Iter:  38  Eband: -0.019115517950061  dEband: -5.977085e-08  t[s]:    269.64
BandDavidson: Iter:  39  Eband: -0.019115565665374  dEband: -4.771531e-08  t[s]:    273.62
BandDavidson: Iter:  40  Eband: -0.019115604053324  dEband: -3.838795e-08  t[s]:    277.59
BandDavidson: Iter:  41  Eband: -0.019115635259508  dEband: -3.120618e-08  t[s]:    281.58
BandDavidson: Iter:  42  Eband: -0.019115660782385  dEband: -2.552288e-08  t[s]:    285.56
BandDavidson: Iter:  43  Eband: -0.019115681737279  dEband: -2.095489e-08  t[s]:    289.54
BandDavidson: Iter:  44  Eband: -0.019115698976538  dEband: -1.723926e-08  t[s]:    293.47
BandDavidson: Iter:  45  Eband: -0.019115713189299  dEband: -1.421276e-08  t[s]:    297.40
BandDavidson: Iter:  46  Eband: -0.019115724890537  dEband: -1.170124e-08  t[s]:    301.32
BandDavidson: Iter:  47  Eband: -0.019115734545135  dEband: -9.654598e-09  t[s]:    305.18
BandDavidson: Converged (dEband<1.000000e-08)

---- Minimization of quantum number:     1  [ +0.0000000 +0.0277778 +0.0000000 ]  0.004629630  spin +1 ----
BandDavidson: Iter:   0  Eband: -0.058682484918976
BandDavidson: Iter:   1  Eband: -0.092154892510572  dEband: -3.347241e-02  t[s]:    315.18
BandDavidson: Iter:   2  Eband: -0.103501023591428  dEband: -1.134613e-02  t[s]:    321.37
BandDavidson: Iter:   3  Eband: -0.107446504754596  dEband: -3.945481e-03  t[s]:    327.52
BandDavidson: Iter:   4  Eband: -0.111030564593438  dEband: -3.584060e-03  t[s]:    333.68
BandDavidson: Iter:   5  Eband: -0.112222132065807  dEband: -1.191567e-03  t[s]:    339.86
BandDavidson: Iter:   6  Eband: -0.113008857103284  dEband: -7.867250e-04  t[s]:    346.00
BandDavidson: Iter:   7  Eband: -0.113657605027040  dEband: -6.487479e-04  t[s]:    352.15
BandDavidson: Iter:   8  Eband: -0.113908369412011  dEband: -2.507644e-04  t[s]:    358.31
BandDavidson: Iter:   9  Eband: -0.114061321332238  dEband: -1.529519e-04  t[s]:    364.48
BandDavidson: Iter:  10  Eband: -0.114202146143097  dEband: -1.408248e-04  t[s]:    370.64
BandDavidson: Iter:  11  Eband: -0.114284043468583  dEband: -8.189733e-05  t[s]:    376.79
BandDavidson: Iter:  12  Eband: -0.114336112273534  dEband: -5.206880e-05  t[s]:    382.89
BandDavidson: Iter:  13  Eband: -0.114373663632609  dEband: -3.755136e-05  t[s]:    388.94
BandDavidson: Iter:  14  Eband: -0.114403729734439  dEband: -3.006610e-05  t[s]:    395.00
BandDavidson: Iter:  15  Eband: -0.114429965768665  dEband: -2.623603e-05  t[s]:    401.03
BandDavidson: Iter:  16  Eband: -0.114455151771686  dEband: -2.518600e-05  t[s]:    407.07
BandDavidson: Iter:  17  Eband: -0.114481063536470  dEband: -2.591176e-05  t[s]:    413.09
BandDavidson: Iter:  18  Eband: -0.114506450437799  dEband: -2.538690e-05  t[s]:    419.13
BandDavidson: Iter:  19  Eband: -0.114530026279274  dEband: -2.357584e-05  t[s]:    425.20
BandDavidson: Iter:  20  Eband: -0.114550932275101  dEband: -2.090600e-05  t[s]:    431.26
BandDavidson: Iter:  21  Eband: -0.114572575479535  dEband: -2.164320e-05  t[s]:    437.28
BandDavidson: Iter:  22  Eband: -0.114593662524838  dEband: -2.108705e-05  t[s]:    443.16
BandDavidson: Iter:  23  Eband: -0.114610340113655  dEband: -1.667759e-05  t[s]:    449.05
BandDavidson: Iter:  24  Eband: -0.114623440482578  dEband: -1.310037e-05  t[s]:    454.95
BandDavidson: Iter:  25  Eband: -0.114633739709708  dEband: -1.029923e-05  t[s]:    460.85
BandDavidson: Iter:  26  Eband: -0.114641769111791  dEband: -8.029402e-06  t[s]:    466.75
BandDavidson: Iter:  27  Eband: -0.114648093375957  dEband: -6.324264e-06  t[s]:    472.65
BandDavidson: Iter:  28  Eband: -0.114652951938926  dEband: -4.858563e-06  t[s]:    478.36
BandDavidson: Iter:  29  Eband: -0.114656641340841  dEband: -3.689402e-06  t[s]:    483.65
BandDavidson: Iter:  30  Eband: -0.114659427196947  dEband: -2.785856e-06  t[s]:    488.85
BandDavidson: Iter:  31  Eband: -0.114661560368650  dEband: -2.133172e-06  t[s]:    493.74
BandDavidson: Iter:  32  Eband: -0.114663183410155  dEband: -1.623042e-06  t[s]:    498.26
BandDavidson: Iter:  33  Eband: -0.114664441099805  dEband: -1.257690e-06  t[s]:    502.72
BandDavidson: Iter:  34  Eband: -0.114665435102065  dEband: -9.940023e-07  t[s]:    507.20
BandDavidson: Iter:  35  Eband: -0.114666225541705  dEband: -7.904396e-07  t[s]:    511.66
BandDavidson: Iter:  36  Eband: -0.114666856755975  dEband: -6.312143e-07  t[s]:    515.92
BandDavidson: Iter:  37  Eband: -0.114667358180961  dEband: -5.014250e-07  t[s]:    519.92
BandDavidson: Iter:  38  Eband: -0.114667759999158  dEband: -4.018182e-07  t[s]:    523.94
BandDavidson: Iter:  39  Eband: -0.114668085169289  dEband: -3.251701e-07  t[s]:    527.95
BandDavidson: Iter:  40  Eband: -0.114668350405770  dEband: -2.652365e-07  t[s]:    531.95
BandDavidson: Iter:  41  Eband: -0.114668567751207  dEband: -2.173454e-07  t[s]:    535.97
BandDavidson: Iter:  42  Eband: -0.114668745824260  dEband: -1.780731e-07  t[s]:    539.96
BandDavidson: Iter:  43  Eband: -0.114668892528122  dEband: -1.467039e-07  t[s]:    543.96
BandDavidson: Iter:  44  Eband: -0.114669012952427  dEband: -1.204243e-07  t[s]:    547.94
BandDavidson: Iter:  45  Eband: -0.114669111881551  dEband: -9.892912e-08  t[s]:    551.86
BandDavidson: Iter:  46  Eband: -0.114669193283900  dEband: -8.140235e-08  t[s]:    555.80
BandDavidson: Iter:  47  Eband: -0.114669260474659  dEband: -6.719076e-08  t[s]:    559.74
BandDavidson: Iter:  48  Eband: -0.114669316135908  dEband: -5.566125e-08  t[s]:    563.67
BandDavidson: Iter:  49  Eband: -0.114669362277739  dEband: -4.614183e-08  t[s]:    567.56
BandDavidson: Iter:  50  Eband: -0.114669400436018  dEband: -3.815828e-08  t[s]:    571.28
BandDavidson: Iter:  51  Eband: -0.114669431987868  dEband: -3.155185e-08  t[s]:    574.98
BandDavidson: Iter:  52  Eband: -0.114669458152603  dEband: -2.616474e-08  t[s]:    578.66
BandDavidson: Iter:  53  Eband: -0.114669479854619  dEband: -2.170202e-08  t[s]:    582.22
BandDavidson: Iter:  54  Eband: -0.114669497859194  dEband: -1.800458e-08  t[s]:    585.65
BandDavidson: Iter:  55  Eband: -0.114669512830954  dEband: -1.497176e-08  t[s]:    589.06
BandDavidson: Iter:  56  Eband: -0.114669525279178  dEband: -1.244822e-08  t[s]:    592.38
BandDavidson: Iter:  57  Eband: -0.114669535640821  dEband: -1.036164e-08  t[s]:    595.73
BandDavidson: Iter:  58  Eband: -0.114669544275219  dEband: -8.634398e-09  t[s]:    599.05
BandDavidson: Converged (dEband<1.000000e-08)

---- Minimization of quantum number:     2  [ +0.0000000 +0.0555556 +0.0000000 ]  0.004629630  spin +1 ----
BandDavidson: Iter:   0  Eband: -0.058742383552288
BandDavidson: Iter:   1  Eband: -0.092444515417097  dEband: -3.370213e-02  t[s]:    609.14
BandDavidson: Iter:   2  Eband: -0.103867130675354  dEband: -1.142262e-02  t[s]:    615.36
BandDavidson: Iter:   3  Eband: -0.107683271683825  dEband: -3.816141e-03  t[s]:    621.62
BandDavidson: Iter:   4  Eband: -0.110712870229119  dEband: -3.029599e-03  t[s]:    627.88
BandDavidson: Iter:   5  Eband: -0.111723689353009  dEband: -1.010819e-03  t[s]:    634.12
BandDavidson: Iter:   6  Eband: -0.112395831103162  dEband: -6.721418e-04  t[s]:    640.36
BandDavidson: Iter:   7  Eband: -0.112966291916630  dEband: -5.704608e-04  t[s]:    646.58
BandDavidson: Iter:   8  Eband: -0.113498194383729  dEband: -5.319025e-04  t[s]:    652.82
BandDavidson: Iter:   9  Eband: -0.113746553288446  dEband: -2.483589e-04  t[s]:    659.03
BandDavidson: Iter:  10  Eband: -0.114020094932824  dEband: -2.735416e-04  t[s]:    665.28
BandDavidson: Iter:  11  Eband: -0.114210685974643  dEband: -1.905910e-04  t[s]:    671.51
BandDavidson: Iter:  12  Eband: -0.114299635453459  dEband: -8.894948e-05  t[s]:    677.72
BandDavidson: Iter:  13  Eband: -0.114355170333258  dEband: -5.553488e-05  t[s]:    683.86
BandDavidson: Iter:  14  Eband: -0.114393811415451  dEband: -3.864108e-05  t[s]:    689.99
BandDavidson: Iter:  15  Eband: -0.114424100703481  dEband: -3.028929e-05  t[s]:    696.12
BandDavidson: Iter:  16  Eband: -0.114450120751133  dEband: -2.602005e-05  t[s]:    702.19
BandDavidson: Iter:  17  Eband: -0.114473989206808  dEband: -2.386846e-05  t[s]:    708.29
BandDavidson: Iter:  18  Eband: -0.114496992430429  dEband: -2.300322e-05  t[s]:    714.36
BandDavidson: Iter:  19  Eband: -0.114520068976486  dEband: -2.307655e-05  t[s]:    720.46
BandDavidson: Iter:  20  Eband: -0.114542655908386  dEband: -2.258693e-05  t[s]:    726.55
BandDavidson: Iter:  21  Eband: -0.114564240426401  dEband: -2.158452e-05  t[s]:    732.64
BandDavidson: Iter:  22  Eband: -0.114583783387601  dEband: -1.954296e-05  t[s]:    738.66
BandDavidson: Iter:  23  Eband: -0.114600541134292  dEband: -1.675775e-05  t[s]:    744.67
BandDavidson: Iter:  24  Eband: -0.114614144999234  dEband: -1.360386e-05  t[s]:    750.58
BandDavidson: Iter:  25  Eband: -0.114624990317350  dEband: -1.084532e-05  t[s]:    756.51
BandDavidson: Iter:  26  Eband: -0.114633665980268  dEband: -8.675663e-06  t[s]:    762.43
BandDavidson: Iter:  27  Eband: -0.114640591878813  dEband: -6.925899e-06  t[s]:    768.31
BandDavidson: Iter:  28  Eband: -0.114646155153608  dEband: -5.563275e-06  t[s]:    773.74
BandDavidson: Iter:  29  Eband: -0.114650622915823  dEband: -4.467762e-06  t[s]:    778.99
BandDavidson: Iter:  30  Eband: -0.114654248291486  dEband: -3.625376e-06  t[s]:    784.18
BandDavidson: Iter:  31  Eband: -0.114657178339780  dEband: -2.930048e-06  t[s]:    789.13
BandDavidson: Iter:  32  Eband: -0.114659558522167  dEband: -2.380182e-06  t[s]:    793.76
BandDavidson: Iter:  33  Eband: -0.114661499724537  dEband: -1.941202e-06  t[s]:    798.13
BandDavidson: Iter:  34  Eband: -0.114663110618840  dEband: -1.610894e-06  t[s]:    802.54
BandDavidson: Iter:  35  Eband: -0.114664449381962  dEband: -1.338763e-06  t[s]:    806.95
BandDavidson: Iter:  36  Eband: -0.114665546182177  dEband: -1.096800e-06  t[s]:    811.19
BandDavidson: Iter:  37  Eband: -0.114666441551832  dEband: -8.953697e-07  t[s]:    815.30
BandDavidson: Iter:  38  Eband: -0.114667177695537  dEband: -7.361437e-07  t[s]:    819.33
BandDavidson: Iter:  39  Eband: -0.114667788625123  dEband: -6.109296e-07  t[s]:    823.37
BandDavidson: Iter:  40  Eband: -0.114668303447561  dEband: -5.148224e-07  t[s]:    827.41
BandDavidson: Iter:  41  Eband: -0.114668739355029  dEband: -4.359075e-07  t[s]:    831.43
BandDavidson: Iter:  42  Eband: -0.114669102207177  dEband: -3.628521e-07  t[s]:    835.49
BandDavidson: Iter:  43  Eband: -0.114669405081650  dEband: -3.028745e-07  t[s]:    839.46
BandDavidson: Iter:  44  Eband: -0.114669660313529  dEband: -2.552319e-07  t[s]:    843.43
BandDavidson: Iter:  45  Eband: -0.114669874914416  dEband: -2.146009e-07  t[s]:    847.42
BandDavidson: Iter:  46  Eband: -0.114670056353484  dEband: -1.814391e-07  t[s]:    851.39
BandDavidson: Iter:  47  Eband: -0.114670209149867  dEband: -1.527964e-07  t[s]:    855.36
BandDavidson: Iter:  48  Eband: -0.114670338550243  dEband: -1.294004e-07  t[s]:    859.32
BandDavidson: Iter:  49  Eband: -0.114670447750977  dEband: -1.092007e-07  t[s]:    863.23
BandDavidson: Iter:  50  Eband: -0.114670539848014  dEband: -9.209704e-08  t[s]:    867.05
BandDavidson: Iter:  51  Eband: -0.114670617223072  dEband: -7.737506e-08  t[s]:    870.81
BandDavidson: Iter:  52  Eband: -0.114670682492606  dEband: -6.526953e-08  t[s]:    874.43
BandDavidson: Iter:  53  Eband: -0.114670737491746  dEband: -5.499914e-08  t[s]:    877.96
BandDavidson: Iter:  54  Eband: -0.114670784017648  dEband: -4.652590e-08  t[s]:    881.40
BandDavidson: Iter:  55  Eband: -0.114670823400182  dEband: -3.938253e-08  t[s]:    884.85
BandDavidson: Iter:  56  Eband: -0.114670856754243  dEband: -3.335406e-08  t[s]:    888.22
BandDavidson: Iter:  57  Eband: -0.114670885137031  dEband: -2.838279e-08  t[s]:    891.58
BandDavidson: Iter:  58  Eband: -0.114670909326662  dEband: -2.418963e-08  t[s]:    894.94
BandDavidson: Iter:  59  Eband: -0.114670929919257  dEband: -2.059260e-08  t[s]:    898.30
BandDavidson: Iter:  60  Eband: -0.114670947458025  dEband: -1.753877e-08  t[s]:    901.68
BandDavidson: Iter:  61  Eband: -0.114670962388198  dEband: -1.493017e-08  t[s]:    904.98
BandDavidson: Iter:  62  Eband: -0.114670975026949  dEband: -1.263875e-08  t[s]:    908.16
BandDavidson: Iter:  63  Eband: -0.114670985757786  dEband: -1.073084e-08  t[s]:    911.25
BandDavidson: Iter:  64  Eband: -0.114670994860479  dEband: -9.102693e-09  t[s]:    914.36
BandDavidson: Converged (dEband<1.000000e-08)

---- Minimization of quantum number:     3  [ +0.0000000 +0.0833333 +0.0000000 ]  0.004629630  spin +1 ----
BandDavidson: Iter:   0  Eband: -0.058663687408278
BandDavidson: Iter:   1  Eband: -0.092304303308577  dEband: -3.364062e-02  t[s]:    924.51
BandDavidson: Iter:   2  Eband: -0.103607829839091  dEband: -1.130353e-02  t[s]:    930.77
BandDavidson: Iter:   3  Eband: -0.107392451752547  dEband: -3.784622e-03  t[s]:    937.03
BandDavidson: Iter:   4  Eband: -0.110313066145267  dEband: -2.920614e-03  t[s]:    943.27
BandDavidson: Iter:   5  Eband: -0.111299472286669  dEband: -9.864061e-04  t[s]:    949.51
BandDavidson: Iter:   6  Eband: -0.111990778541033  dEband: -6.913063e-04  t[s]:    955.75
BandDavidson: Iter:   7  Eband: -0.112712286617966  dEband: -7.215081e-04  t[s]:    962.00
BandDavidson: Iter:   8  Eband: -0.113298033905334  dEband: -5.857473e-04  t[s]:    968.26
BandDavidson: Iter:   9  Eband: -0.113531343520249  dEband: -2.333096e-04  t[s]:    974.47
BandDavidson: Iter:  10  Eband: -0.113674844262346  dEband: -1.435007e-04  t[s]:    980.71
BandDavidson: Iter:  11  Eband: -0.113920073562526  dEband: -2.452293e-04  t[s]:    986.92
BandDavidson: Iter:  12  Eband: -0.114147642603890  dEband: -2.275690e-04  t[s]:    993.12
BandDavidson: Iter:  13  Eband: -0.114237449874032  dEband: -8.980727e-05  t[s]:    999.23
BandDavidson: Iter:  14  Eband: -0.114292884758420  dEband: -5.543488e-05  t[s]:   1005.36
BandDavidson: Iter:  15  Eband: -0.114337897815794  dEband: -4.501306e-05  t[s]:   1011.43
BandDavidson: Iter:  16  Eband: -0.114377013452179  dEband: -3.911564e-05  t[s]:   1017.50
BandDavidson: Iter:  17  Eband: -0.114418031869537  dEband: -4.101842e-05  t[s]:   1023.56
BandDavidson: Iter:  18  Eband: -0.114460395553854  dEband: -4.236368e-05  t[s]:   1029.61
BandDavidson: Iter:  19  Eband: -0.114499976693604  dEband: -3.958114e-05  t[s]:   1035.68
BandDavidson: Iter:  20  Eband: -0.114535288745054  dEband: -3.531205e-05  t[s]:   1041.72
BandDavidson: Iter:  21  Eband: -0.114565601384480  dEband: -3.031264e-05  t[s]:   1047.77
BandDavidson: Iter:  22  Eband: -0.114591080767769  dEband: -2.547938e-05  t[s]:   1053.76
BandDavidson: Iter:  23  Eband: -0.114613088319041  dEband: -2.200755e-05  t[s]:   1059.73
BandDavidson: Iter:  24  Eband: -0.114631320021966  dEband: -1.823170e-05  t[s]:   1065.62
BandDavidson: Iter:  25  Eband: -0.114645745481364  dEband: -1.442546e-05  t[s]:   1071.51
BandDavidson: Iter:  26  Eband: -0.114656990904401  dEband: -1.124542e-05  t[s]:   1077.38
BandDavidson: Iter:  27  Eband: -0.114665946632198  dEband: -8.955728e-06  t[s]:   1083.24
BandDavidson: Iter:  28  Eband: -0.114673047723549  dEband: -7.101091e-06  t[s]:   1088.96
BandDavidson: Iter:  29  Eband: -0.114678719491283  dEband: -5.671768e-06  t[s]:   1094.40
BandDavidson: Iter:  30  Eband: -0.114683241804780  dEband: -4.522313e-06  t[s]:   1099.51
BandDavidson: Iter:  31  Eband: -0.114686844764756  dEband: -3.602960e-06  t[s]:   1104.33
BandDavidson: Iter:  32  Eband: -0.114689770199068  dEband: -2.925434e-06  t[s]:   1108.92
BandDavidson: Iter:  33  Eband: -0.114692138621653  dEband: -2.368423e-06  t[s]:   1113.37
BandDavidson: Iter:  34  Eband: -0.114694062527133  dEband: -1.923905e-06  t[s]:   1117.84
BandDavidson: Iter:  35  Eband: -0.114695702526027  dEband: -1.639999e-06  t[s]:   1122.28
BandDavidson: Iter:  36  Eband: -0.114697142819395  dEband: -1.440293e-06  t[s]:   1126.54
BandDavidson: Iter:  37  Eband: -0.114698409203946  dEband: -1.266385e-06  t[s]:   1130.80
BandDavidson: Iter:  38  Eband: -0.114699511278055  dEband: -1.102074e-06  t[s]:   1134.92
BandDavidson: Iter:  39  Eband: -0.114700454040462  dEband: -9.427624e-07  t[s]:   1138.98
BandDavidson: Iter:  40  Eband: -0.114701242782902  dEband: -7.887424e-07  t[s]:   1142.97
BandDavidson: Iter:  41  Eband: -0.114701901698964  dEband: -6.589161e-07  t[s]:   1146.93
BandDavidson: Iter:  42  Eband: -0.114702449536658  dEband: -5.478377e-07  t[s]:   1150.95
BandDavidson: Iter:  43  Eband: -0.114702908091156  dEband: -4.585545e-07  t[s]:   1154.90
BandDavidson: Iter:  44  Eband: -0.114703290881223  dEband: -3.827901e-07  t[s]:   1158.75
BandDavidson: Iter:  45  Eband: -0.114703612286552  dEband: -3.214053e-07  t[s]:   1162.67
BandDavidson: Iter:  46  Eband: -0.114703881821097  dEband: -2.695345e-07  t[s]:   1166.57
BandDavidson: Iter:  47  Eband: -0.114704108887332  dEband: -2.270662e-07  t[s]:   1170.43
BandDavidson: Iter:  48  Eband: -0.114704299868089  dEband: -1.909808e-07  t[s]:   1174.34
BandDavidson: Iter:  49  Eband: -0.114704461425664  dEband: -1.615576e-07  t[s]:   1178.17
BandDavidson: Iter:  50  Eband: -0.114704597509649  dEband: -1.360840e-07  t[s]:   1181.86
BandDavidson: Iter:  51  Eband: -0.114704712308044  dEband: -1.147984e-07  t[s]:   1185.55
BandDavidson: Iter:  52  Eband: -0.114704808860926  dEband: -9.655288e-08  t[s]:   1189.06
BandDavidson: Iter:  53  Eband: -0.114704890283522  dEband: -8.142260e-08  t[s]:   1192.62
BandDavidson: Iter:  54  Eband: -0.114704959266538  dEband: -6.898302e-08  t[s]:   1196.04
BandDavidson: Iter:  55  Eband: -0.114705018223838  dEband: -5.895730e-08  t[s]:   1199.45
BandDavidson: Iter:  56  Eband: -0.114705068823204  dEband: -5.059937e-08  t[s]:   1202.76
BandDavidson: Iter:  57  Eband: -0.114705112985072  dEband: -4.416187e-08  t[s]:   1206.06
BandDavidson: Iter:  58  Eband: -0.114705151828778  dEband: -3.884371e-08  t[s]:   1209.36
BandDavidson: Iter:  59  Eband: -0.114705186625545  dEband: -3.479677e-08  t[s]:   1212.56
BandDavidson: Iter:  60  Eband: -0.114705218254281  dEband: -3.162874e-08  t[s]:   1215.84
BandDavidson: Iter:  61  Eband: -0.114705247731750  dEband: -2.947747e-08  t[s]:   1218.99
BandDavidson: Iter:  62  Eband: -0.114705275896928  dEband: -2.816518e-08  t[s]:   1222.19
BandDavidson: Iter:  63  Eband: -0.114705303364058  dEband: -2.746713e-08  t[s]:   1225.33
BandDavidson: Iter:  64  Eband: -0.114705331106767  dEband: -2.774271e-08  t[s]:   1228.46
BandDavidson: Iter:  65  Eband: -0.114705358989167  dEband: -2.788240e-08  t[s]:   1231.48
BandDavidson: Iter:  66  Eband: -0.114705388173925  dEband: -2.918476e-08  t[s]:   1234.52
BandDavidson: Iter:  67  Eband: -0.114705417374782  dEband: -2.920086e-08  t[s]:   1237.49
BandDavidson: Iter:  68  Eband: -0.114705446533773  dEband: -2.915899e-08  t[s]:   1240.52
BandDavidson: Iter:  69  Eband: -0.114705473931958  dEband: -2.739819e-08  t[s]:   1243.49
BandDavidson: Iter:  70  Eband: -0.114705499423837  dEband: -2.549188e-08  t[s]:   1246.51
BandDavidson: Iter:  71  Eband: -0.114705522362702  dEband: -2.293886e-08  t[s]:   1249.44
BandDavidson: Iter:  72  Eband: -0.114705542983692  dEband: -2.062099e-08  t[s]:   1252.38
BandDavidson: Iter:  73  Eband: -0.114705561170567  dEband: -1.818687e-08  t[s]:   1255.25
BandDavidson: Iter:  74  Eband: -0.114705577354296  dEband: -1.618373e-08  t[s]:   1258.15
BandDavidson: Iter:  75  Eband: -0.114705591539901  dEband: -1.418560e-08  t[s]:   1260.98
BandDavidson: Iter:  76  Eband: -0.114705604032303  dEband: -1.249240e-08  t[s]:   1263.83
BandDavidson: Iter:  77  Eband: -0.114705614946905  dEband: -1.091460e-08  t[s]:   1266.66
BandDavidson: Iter:  78  Eband: -0.114705624513837  dEband: -9.566932e-09  t[s]:   1269.51
BandDavidson: Converged (dEband<1.000000e-08)

---- Minimization of quantum number:     4  [ +0.0000000 +0.1111111 +0.0000000 ]  0.004629630  spin +1 ----
BandDavidson: Iter:   0  Eband: -0.058671507408835
BandDavidson: Iter:   1  Eband: -0.092353616005315  dEband: -3.368211e-02  t[s]:   1279.40
BandDavidson: Iter:   2  Eband: -0.103737370000242  dEband: -1.138375e-02  t[s]:   1285.48
BandDavidson: Iter:   3  Eband: -0.107568300240324  dEband: -3.830930e-03  t[s]:   1291.57
BandDavidson: Iter:   4  Eband: -0.110304773088165  dEband: -2.736473e-03  t[s]:   1297.66
BandDavidson: Iter:   5  Eband: -0.111336714380687  dEband: -1.031941e-03  t[s]:   1303.74
BandDavidson: Iter:   6  Eband: -0.111971385242419  dEband: -6.346709e-04  t[s]:   1309.85
BandDavidson: Iter:   7  Eband: -0.112671402074593  dEband: -7.000168e-04  t[s]:   1315.93
BandDavidson: Iter:   8  Eband: -0.113171373400114  dEband: -4.999713e-04  t[s]:   1322.00
BandDavidson: Iter:   9  Eband: -0.113552939706089  dEband: -3.815663e-04  t[s]:   1328.07
BandDavidson: Iter:  10  Eband: -0.113795652967089  dEband: -2.427133e-04  t[s]:   1334.15
BandDavidson: Iter:  11  Eband: -0.113951359387927  dEband: -1.557064e-04  t[s]:   1340.23
BandDavidson: Iter:  12  Eband: -0.114073301428539  dEband: -1.219420e-04  t[s]:   1346.31
BandDavidson: Iter:  13  Eband: -0.114194028125625  dEband: -1.207267e-04  t[s]:   1352.30
BandDavidson: Iter:  14  Eband: -0.114305979695641  dEband: -1.119516e-04  t[s]:   1358.28
BandDavidson: Iter:  15  Eband: -0.114388176536874  dEband: -8.219684e-05  t[s]:   1364.24
BandDavidson: Iter:  16  Eband: -0.114453406680129  dEband: -6.523014e-05  t[s]:   1370.16
BandDavidson: Iter:  17  Eband: -0.114503317725923  dEband: -4.991105e-05  t[s]:   1376.10
BandDavidson: Iter:  18  Eband: -0.114543619013650  dEband: -4.030129e-05  t[s]:   1382.03
BandDavidson: Iter:  19  Eband: -0.114576974966750  dEband: -3.335595e-05  t[s]:   1387.97
BandDavidson: Iter:  20  Eband: -0.114605178850584  dEband: -2.820388e-05  t[s]:   1393.92
BandDavidson: Iter:  21  Eband: -0.114630543068909  dEband: -2.536422e-05  t[s]:   1399.85
BandDavidson: Iter:  22  Eband: -0.114655011847602  dEband: -2.446878e-05  t[s]:   1405.69
BandDavidson: Iter:  23  Eband: -0.114677665468341  dEband: -2.265362e-05  t[s]:   1411.56
BandDavidson: Iter:  24  Eband: -0.114695692922236  dEband: -1.802745e-05  t[s]:   1417.39
BandDavidson: Iter:  25  Eband: -0.114709416118054  dEband: -1.372320e-05  t[s]:   1423.17
BandDavidson: Iter:  26  Eband: -0.114720014536016  dEband: -1.059842e-05  t[s]:   1428.94
BandDavidson: Iter:  27  Eband: -0.114728255955715  dEband: -8.241420e-06  t[s]:   1434.72
BandDavidson: Iter:  28  Eband: -0.114734610671823  dEband: -6.354716e-06  t[s]:   1440.33
BandDavidson: Iter:  29  Eband: -0.114739779801034  dEband: -5.169129e-06  t[s]:   1445.71
BandDavidson: Iter:  30  Eband: -0.114743816240333  dEband: -4.036439e-06  t[s]:   1450.76
BandDavidson: Iter:  31  Eband: -0.114747023829428  dEband: -3.207589e-06  t[s]:   1455.52
BandDavidson: Iter:  32  Eband: -0.114749556088964  dEband: -2.532260e-06  t[s]:   1460.00
BandDavidson: Iter:  33  Eband: -0.114751544457926  dEband: -1.988369e-06  t[s]:   1464.31
BandDavidson: Iter:  34  Eband: -0.114753145791754  dEband: -1.601334e-06  t[s]:   1468.61
BandDavidson: Iter:  35  Eband: -0.114754441245599  dEband: -1.295454e-06  t[s]:   1472.89
BandDavidson: Iter:  36  Eband: -0.114755501273293  dEband: -1.060028e-06  t[s]:   1477.13
BandDavidson: Iter:  37  Eband: -0.114756752640635  dEband: -1.251367e-06  t[s]:   1481.23
BandDavidson: Iter:  38  Eband: -0.114760066179152  dEband: -3.313539e-06  t[s]:   1485.26
BandDavidson: Iter:  39  Eband: -0.114762656193224  dEband: -2.590014e-06  t[s]:   1489.12
BandDavidson: Iter:  40  Eband: -0.114764749848164  dEband: -2.093655e-06  t[s]:   1492.99
BandDavidson: Iter:  41  Eband: -0.114766661629143  dEband: -1.911781e-06  t[s]:   1496.85
BandDavidson: Iter:  42  Eband: -0.114768246892706  dEband: -1.585264e-06  t[s]:   1500.70
BandDavidson: Iter:  43  Eband: -0.114769619097342  dEband: -1.372205e-06  t[s]:   1504.55
BandDavidson: Iter:  44  Eband: -0.114770759906415  dEband: -1.140809e-06  t[s]:   1508.34
BandDavidson: Iter:  45  Eband: -0.114771674286447  dEband: -9.143800e-07  t[s]:   1512.15
BandDavidson: Iter:  46  Eband: -0.114772446745778  dEband: -7.724593e-07  t[s]:   1515.96
BandDavidson: Iter:  47  Eband: -0.114773101096870  dEband: -6.543511e-07  t[s]:   1519.76
BandDavidson: Iter:  48  Eband: -0.114773660538888  dEband: -5.594420e-07  t[s]:   1523.49
BandDavidson: Iter:  49  Eband: -0.114774127277594  dEband: -4.667387e-07  t[s]:   1527.22
BandDavidson: Iter:  50  Eband: -0.114774524327351  dEband: -3.970498e-07  t[s]:   1530.91
BandDavidson: Iter:  51  Eband: -0.114774861228913  dEband: -3.369016e-07  t[s]:   1534.46
BandDavidson: Iter:  52  Eband: -0.114775149311166  dEband: -2.880823e-07  t[s]:   1537.86
BandDavidson: Iter:  53  Eband: -0.114775394419030  dEband: -2.451079e-07  t[s]:   1541.23
BandDavidson: Iter:  54  Eband: -0.114775605020786  dEband: -2.106018e-07  t[s]:   1544.59
BandDavidson: Iter:  55  Eband: -0.114775785287774  dEband: -1.802670e-07  t[s]:   1547.93
BandDavidson: Iter:  56  Eband: -0.114775940703951  dEband: -1.554162e-07  t[s]:   1551.16
BandDavidson: Iter:  57  Eband: -0.114776073756893  dEband: -1.330529e-07  t[s]:   1554.39
BandDavidson: Iter:  58  Eband: -0.114776188383696  dEband: -1.146268e-07  t[s]:   1557.59
BandDavidson: Iter:  59  Eband: -0.114776286897329  dEband: -9.851363e-08  t[s]:   1560.79
BandDavidson: Iter:  60  Eband: -0.114776372042498  dEband: -8.514517e-08  t[s]:   1563.97
BandDavidson: Iter:  61  Eband: -0.114776445304735  dEband: -7.326224e-08  t[s]:   1567.10
BandDavidson: Iter:  62  Eband: -0.114776508680547  dEband: -6.337581e-08  t[s]:   1570.19
BandDavidson: Iter:  63  Eband: -0.114776563259590  dEband: -5.457904e-08  t[s]:   1573.27
BandDavidson: Iter:  64  Eband: -0.114776610464218  dEband: -4.720463e-08  t[s]:   1576.33
BandDavidson: Iter:  65  Eband: -0.114776651250804  dEband: -4.078659e-08  t[s]:   1579.35
BandDavidson: Iter:  66  Eband: -0.114776686685714  dEband: -3.543491e-08  t[s]:   1582.37
BandDavidson: Iter:  67  Eband: -0.114776717383078  dEband: -3.069736e-08  t[s]:   1585.35
BandDavidson: Iter:  68  Eband: -0.114776744042304  dEband: -2.665923e-08  t[s]:   1588.34
BandDavidson: Iter:  69  Eband: -0.114776767238153  dEband: -2.319585e-08  t[s]:   1591.27
BandDavidson: Iter:  70  Eband: -0.114776787418140  dEband: -2.017999e-08  t[s]:   1594.19
BandDavidson: Iter:  71  Eband: -0.114776804950563  dEband: -1.753242e-08  t[s]:   1597.08
BandDavidson: Iter:  72  Eband: -0.114776820262303  dEband: -1.531174e-08  t[s]:   1599.98
BandDavidson: Iter:  73  Eband: -0.114776833628455  dEband: -1.336615e-08  t[s]:   1602.88
BandDavidson: Iter:  74  Eband: -0.114776845326510  dEband: -1.169806e-08  t[s]:   1605.78
BandDavidson: Iter:  75  Eband: -0.114776855561205  dEband: -1.023469e-08  t[s]:   1608.68
BandDavidson: Iter:  76  Eband: -0.114776864533363  dEband: -8.972159e-09  t[s]:   1611.59
BandDavidson: Converged (dEband<1.000000e-08)

---- Minimization of quantum number:     5  [ +0.0000000 +0.1388889 +0.0000000 ]  0.004629630  spin +1 ----
BandDavidson: Iter:   0  Eband: -0.058559524426275
BandDavidson: Iter:   1  Eband: -0.092371850094552  dEband: -3.381233e-02  t[s]:   1621.51
BandDavidson: Iter:   2  Eband: -0.103781843410762  dEband: -1.140999e-02  t[s]:   1627.61
BandDavidson: Iter:   3  Eband: -0.107595095731852  dEband: -3.813252e-03  t[s]:   1633.70
BandDavidson: Iter:   4  Eband: -0.109847108843208  dEband: -2.252013e-03  t[s]:   1639.77
BandDavidson: Iter:   5  Eband: -0.110940062279351  dEband: -1.092953e-03  t[s]:   1645.85
BandDavidson: Iter:   6  Eband: -0.111691202842930  dEband: -7.511406e-04  t[s]:   1651.96
BandDavidson: Iter:   7  Eband: -0.112373559618227  dEband: -6.823568e-04  t[s]:   1658.05
BandDavidson: Iter:   8  Eband: -0.112960261493925  dEband: -5.867019e-04  t[s]:   1664.17
BandDavidson: Iter:   9  Eband: -0.113326986773241  dEband: -3.667253e-04  t[s]:   1670.33
BandDavidson: Iter:  10  Eband: -0.113562219590704  dEband: -2.352328e-04  t[s]:   1676.48
BandDavidson: Iter:  11  Eband: -0.113759271260695  dEband: -1.970517e-04  t[s]:   1682.66
BandDavidson: Iter:  12  Eband: -0.114018409138172  dEband: -2.591379e-04  t[s]:   1688.82
BandDavidson: Iter:  13  Eband: -0.114190986811716  dEband: -1.725777e-04  t[s]:   1695.07
BandDavidson: Iter:  14  Eband: -0.114314792795623  dEband: -1.238060e-04  t[s]:   1701.12
BandDavidson: Iter:  15  Eband: -0.114413106990969  dEband: -9.831420e-05  t[s]:   1707.13
BandDavidson: Iter:  16  Eband: -0.114491103661478  dEband: -7.799667e-05  t[s]:   1713.15
BandDavidson: Iter:  17  Eband: -0.114550302638903  dEband: -5.919898e-05  t[s]:   1719.18
BandDavidson: Iter:  18  Eband: -0.114593730421631  dEband: -4.342778e-05  t[s]:   1725.20
BandDavidson: Iter:  19  Eband: -0.114630636205591  dEband: -3.690578e-05  t[s]:   1731.22
BandDavidson: Iter:  20  Eband: -0.114660707684749  dEband: -3.007148e-05  t[s]:   1737.24
BandDavidson: Iter:  21  Eband: -0.114685041268628  dEband: -2.433358e-05  t[s]:   1743.25
BandDavidson: Iter:  22  Eband: -0.114705771155912  dEband: -2.072989e-05  t[s]:   1749.26
BandDavidson: Iter:  23  Eband: -0.114723666173129  dEband: -1.789502e-05  t[s]:   1755.20
BandDavidson: Iter:  24  Eband: -0.114740294608895  dEband: -1.662844e-05  t[s]:   1761.29
BandDavidson: Iter:  25  Eband: -0.114756593347924  dEband: -1.629874e-05  t[s]:   1767.19
BandDavidson: Iter:  26  Eband: -0.114770464529537  dEband: -1.387118e-05  t[s]:   1773.08
BandDavidson: Iter:  27  Eband: -0.114783359672186  dEband: -1.289514e-05  t[s]:   1778.86
BandDavidson: Iter:  28  Eband: -0.114792985042509  dEband: -9.625370e-06  t[s]:   1784.46
BandDavidson: Iter:  29  Eband: -0.114800002950769  dEband: -7.017908e-06  t[s]:   1789.96
BandDavidson: Iter:  30  Eband: -0.114805440433141  dEband: -5.437482e-06  t[s]:   1795.03
BandDavidson: Iter:  31  Eband: -0.114809733088851  dEband: -4.292656e-06  t[s]:   1799.91
BandDavidson: Iter:  32  Eband: -0.114813242381023  dEband: -3.509292e-06  t[s]:   1804.46
BandDavidson: Iter:  33  Eband: -0.114816141806177  dEband: -2.899425e-06  t[s]:   1808.84
BandDavidson: Iter:  34  Eband: -0.114818568324912  dEband: -2.426519e-06  t[s]:   1813.19
BandDavidson: Iter:  35  Eband: -0.114820607225909  dEband: -2.038901e-06  t[s]:   1817.51
BandDavidson: Iter:  36  Eband: -0.114822318589732  dEband: -1.711364e-06  t[s]:   1821.68
BandDavidson: Iter:  37  Eband: -0.114823755456569  dEband: -1.436867e-06  t[s]:   1825.80
BandDavidson: Iter:  38  Eband: -0.114824963426694  dEband: -1.207970e-06  t[s]:   1829.82
BandDavidson: Iter:  39  Eband: -0.114825979331913  dEband: -1.015905e-06  t[s]:   1833.78
BandDavidson: Iter:  40  Eband: -0.114826835055640  dEband: -8.557237e-07  t[s]:   1837.67
BandDavidson: Iter:  41  Eband: -0.114827558061704  dEband: -7.230061e-07  t[s]:   1841.57
BandDavidson: Iter:  42  Eband: -0.114828172203485  dEband: -6.141418e-07  t[s]:   1845.48
BandDavidson: Iter:  43  Eband: -0.114828694368217  dEband: -5.221647e-07  t[s]:   1849.36
BandDavidson: Iter:  44  Eband: -0.114829139675247  dEband: -4.453070e-07  t[s]:   1853.23
BandDavidson: Iter:  45  Eband: -0.114829518805655  dEband: -3.791304e-07  t[s]:   1857.10
BandDavidson: Iter:  46  Eband: -0.114829842158994  dEband: -3.233533e-07  t[s]:   1860.94
BandDavidson: Iter:  47  Eband: -0.114830117153596  dEband: -2.749946e-07  t[s]:   1864.75
BandDavidson: Iter:  48  Eband: -0.114830350910228  dEband: -2.337566e-07  t[s]:   1868.50
BandDavidson: Iter:  49  Eband: -0.114830549835486  dEband: -1.989253e-07  t[s]:   1872.23
BandDavidson: Iter:  50  Eband: -0.114830718681313  dEband: -1.688458e-07  t[s]:   1875.89
BandDavidson: Iter:  51  Eband: -0.114830862506580  dEband: -1.438253e-07  t[s]:   1879.50
BandDavidson: Iter:  52  Eband: -0.114830984804924  dEband: -1.222983e-07  t[s]:   1883.02
BandDavidson: Iter:  53  Eband: -0.114831088855031  dEband: -1.040501e-07  t[s]:   1886.49
BandDavidson: Iter:  54  Eband: -0.114831177508530  dEband: -8.865350e-08  t[s]:   1889.99
BandDavidson: Iter:  55  Eband: -0.114831253389902  dEband: -7.588137e-08  t[s]:   1893.42
BandDavidson: Iter:  56  Eband: -0.114831318192586  dEband: -6.480268e-08  t[s]:   1896.73
BandDavidson: Iter:  57  Eband: -0.114831373593075  dEband: -5.540049e-08  t[s]:   1899.99
BandDavidson: Iter:  58  Eband: -0.114831420965781  dEband: -4.737271e-08  t[s]:   1903.21
BandDavidson: Iter:  59  Eband: -0.114831461579932  dEband: -4.061415e-08  t[s]:   1906.40
BandDavidson: Iter:  60  Eband: -0.114831496508239  dEband: -3.492831e-08  t[s]:   1909.53
BandDavidson: Iter:  61  Eband: -0.114831526619822  dEband: -3.011158e-08  t[s]:   1912.63
BandDavidson: Iter:  62  Eband: -0.114831552511455  dEband: -2.589163e-08  t[s]:   1915.69
BandDavidson: Iter:  63  Eband: -0.114831574810767  dEband: -2.229931e-08  t[s]:   1918.75
BandDavidson: Iter:  64  Eband: -0.114831594033651  dEband: -1.922288e-08  t[s]:   1921.80
BandDavidson: Iter:  65  Eband: -0.114831610620009  dEband: -1.658636e-08  t[s]:   1924.82
BandDavidson: Iter:  66  Eband: -0.114831624919195  dEband: -1.429919e-08  t[s]:   1927.82
BandDavidson: Iter:  67  Eband: -0.114831637279188  dEband: -1.235999e-08  t[s]:   1930.83
BandDavidson: Iter:  68  Eband: -0.114831647944509  dEband: -1.066532e-08  t[s]:   1933.83
BandDavidson: Iter:  69  Eband: -0.114831657136856  dEband: -9.192347e-09  t[s]:   1936.75
BandDavidson: Converged (dEband<1.000000e-08)
Setting wave functions to eigenvectors of Hamiltonian
	FillingsUpdate:  mu: -0.081128761  nElectrons: 121.000000  magneticMoment: [ Abs: 0.01399  Tot: -0.01389 ]

Dumping 'Na-0.289.dosUp' ... done.
Dumping 'Na-0.289.dosDn' ... done.
End date and time: Thu Mar 31 22:23:04 2022  (Duration: 0-0:45:45.96)
Done!
