Second Layer Distance is 0.331

--------------------------------------------------------------------------
The library attempted to open the following supporting CUDA libraries,
but each of them failed.  CUDA-aware support is disabled.
libcuda.so.1: cannot open shared object file: No such file or directory
libcuda.dylib: cannot open shared object file: No such file or directory
/usr/lib64/libcuda.so.1: cannot open shared object file: No such file or directory
/usr/lib64/libcuda.dylib: cannot open shared object file: No such file or directory
If you are not interested in CUDA-aware support, then run with
--mca opal_warn_on_missing_libcuda 0 to suppress this message.  If you are interested
in CUDA-aware support, then try setting LD_LIBRARY_PATH to the location
of libcuda.so.1 to get passed this issue.
--------------------------------------------------------------------------
--------------------------------------------------------------------------
No OpenFabrics connection schemes reported that they were able to be
used on a specific port.  As such, the openib BTL (OpenFabrics
support) will be disabled for this port.

  Local host:           d-16-11-1
  Local device:         mlx5_1
  Local port:           1
  CPCs attempted:       rdmacm, udcm
--------------------------------------------------------------------------

*************** JDFTx 1.6.0 (git hash 42ebbcc2) ***************

Start date and time: Thu Mar 31 21:37:18 2022
Executable jdftx with command-line: -i Moire.dos.in
Running on hosts (process indices):  d-16-11-1 (0-37)
Divided in process groups (process indices):  0 (0)  1 (1)  2 (2)  3 (3)  4 (4)  5 (5)  6 (6)  7 (7)  8 (8)  9 (9)  10 (10)  11 (11)  12 (12)  13 (13)  14 (14)  15 (15)  16 (16)  17 (17)  18 (18)  19 (19)  20 (20)  21 (21)  22 (22)  23 (23)  24 (24)  25 (25)  26 (26)  27 (27)  28 (28)  29 (29)  30 (30)  31 (31)  32 (32)  33 (33)  34 (34)  35 (35)  36 (36)  37 (37)
Resource initialization completed at t[s]:      0.00
Run totals: 38 processes, 48 threads, 0 GPUs


Input parsed successfully to the following command list (including defaults):

basis kpoint-dependent
coords-type Lattice
core-overlap-check vector
coulomb-interaction Slab 001
davidson-band-ratio 1.1
dump End DOS
dump-name Na-0.331.$VAR
elec-cutoff 20
elec-eigen-algo Davidson
elec-ex-corr gga-PBE
elec-initial-magnetization 0.100000 no
elec-smearing Fermi 1e-05
electronic-minimize  \
	dirUpdateScheme      FletcherReeves \
	linminMethod         DirUpdateRecommended \
	nIterations          100 \
	history              15 \
	knormThreshold       0 \
	energyDiffThreshold  1e-08 \
	nEnergyDiff          2 \
	alphaTstart          1 \
	alphaTmin            1e-10 \
	updateTestStepSize   yes \
	alphaTreduceFactor   0.1 \
	alphaTincreaseFactor 3 \
	nAlphaAdjustMax      3 \
	wolfeEnergy          0.0001 \
	wolfeGradient        0.9 \
	fdTest               no
exchange-regularization WignerSeitzTruncated
fix-electron-density ../Na-0.331.$VAR
fluid None
fluid-ex-corr (null) lda-PZ
fluid-gummel-loop 10 1.000000e-05
fluid-minimize  \
	dirUpdateScheme      PolakRibiere \
	linminMethod         DirUpdateRecommended \
	nIterations          100 \
	history              15 \
	knormThreshold       0 \
	energyDiffThreshold  0 \
	nEnergyDiff          2 \
	alphaTstart          1 \
	alphaTmin            1e-10 \
	updateTestStepSize   yes \
	alphaTreduceFactor   0.1 \
	alphaTincreaseFactor 3 \
	nAlphaAdjustMax      3 \
	wolfeEnergy          0.0001 \
	wolfeGradient        0.9 \
	fdTest               no
fluid-solvent H2O 55.338 ScalarEOS \
	epsBulk 78.4 \
	pMol 0.92466 \
	epsInf 1.77 \
	Pvap 1.06736e-10 \
	sigmaBulk 4.62e-05 \
	Rvdw 2.61727 \
	Res 1.42 \
	tauNuc 343133 \
	poleEl 15 7 1
forces-output-coords Positions
ion N   0.952380952380952   0.761904761904762   0.000000000000000 0
ion N   1.428571428571428   1.285714285714286   0.331000000000000 0
ion N   0.380952380952381   0.904761904761905   0.000000000000000 0
ion N   0.714285714285714   1.142857142857143   0.331000000000000 0
ion N   0.523809523809524   0.619047619047619   0.000000000000000 0
ion N   1.000000000000000   1.000000000000000   0.331000000000000 0
ion N   0.666666666666667   0.333333333333333   0.000000000000000 0
ion N   1.285714285714286   0.857142857142857   0.331000000000000 0
ion N   0.809523809523810   0.047619047619048   0.000000000000000 0
ion N   1.571428571428571   0.714285714285714   0.331000000000000 0
ion N   0.095238095238095   0.476190476190476   0.000000000000000 0
ion N   0.238095238095238   0.190476190476190   0.000000000000000 0
ion N   0.857142857142857   0.571428571428571   0.331000000000000 0
ion N   1.142857142857143   0.428571428571429   0.331000000000000 0
ion B   0.571428571428572   0.857142857142857   0.000000000000000 0
ion B   0.952380952380952   1.190476190476190   0.331000000000000 0
ion B   0.714285714285714   0.571428571428571   0.000000000000000 0
ion B   1.238095238095238   1.047619047619047   0.331000000000000 0
ion B   0.857142857142857   0.285714285714286   0.000000000000000 0
ion B   1.523809523809524   0.904761904761905   0.331000000000000 0
ion B   0.142857142857143   0.714285714285714   0.000000000000000 0
ion B   0.285714285714286   0.428571428571429   0.000000000000000 0
ion B   0.809523809523810   0.761904761904762   0.331000000000000 0
ion B   0.428571428571429   0.142857142857143   0.000000000000000 0
ion B   1.095238095238095   0.619047619047619   0.331000000000000 0
ion B   1.380952380952381   0.476190476190476   0.331000000000000 0
ion B   0.000000000000000   0.000000000000000   0.000000000000000 0
ion B   0.666666666666667   0.333333333333333   0.331000000000000 0
ion Na   0.333333333300000   0.666666666600000   0.165500000000000 0
ion-species SG15/$ID_ONCV_PBE.upf
ion-width 0
ionic-minimize  \
	dirUpdateScheme      L-BFGS \
	linminMethod         DirUpdateRecommended \
	nIterations          0 \
	history              15 \
	knormThreshold       0.0001 \
	energyDiffThreshold  1e-06 \
	nEnergyDiff          2 \
	alphaTstart          1 \
	alphaTmin            1e-10 \
	updateTestStepSize   yes \
	alphaTreduceFactor   0.1 \
	alphaTincreaseFactor 3 \
	nAlphaAdjustMax      3 \
	wolfeEnergy          0.0001 \
	wolfeGradient        0.9 \
	fdTest               no
kpoint   0.000000000000   0.000000000000   0.000000000000  1.00000000000000
kpoint-folding 36 36 1 
latt-move-scale 1 1 1
latt-scale 1 1 1 
lattice  \
	 -11.818700000000000    2.363740000000000    0.000000000000000  \
	   4.094120000000000  -12.282400000000001    0.000000000000000  \
	   0.000000000000000    0.000000000000000   40.000000000000000 
lattice-minimize  \
	dirUpdateScheme      L-BFGS \
	linminMethod         DirUpdateRecommended \
	nIterations          0 \
	history              15 \
	knormThreshold       0 \
	energyDiffThreshold  1e-06 \
	nEnergyDiff          2 \
	alphaTstart          1 \
	alphaTmin            1e-10 \
	updateTestStepSize   yes \
	alphaTreduceFactor   0.1 \
	alphaTincreaseFactor 3 \
	nAlphaAdjustMax      3 \
	wolfeEnergy          0.0001 \
	wolfeGradient        0.9 \
	fdTest               no
lcao-params -1 1e-06 1e-05
pcm-variant GLSSA13
spintype z-spin
subspace-rotation-factor 1 yes
symmetries automatic
symmetry-threshold 0.0001
van-der-waals D3



---------- Setting up symmetries ----------

Found 24 point-group symmetries of the bravais lattice
Found 6 space-group symmetries with basis
Applied RMS atom displacement 1.31765e-10 bohrs to make symmetries exact.

---------- Initializing the Grid ----------
R = 
[     -11.8187      2.36374            0  ]
[      4.09412     -12.2824            0  ]
[            0            0           40  ]
unit cell volume = 5419.38
G =
[  -0.569604   -0.10962          0  ]
[  -0.189867    -0.5481          0  ]
[          0          0    0.15708  ]
Minimum fftbox size, Smin = [  52  52  164  ]
Chosen fftbox size, S = [  54  54  168  ]

---------- Exchange Correlation functional ----------
Initalized PBE GGA exchange.
Initalized PBE GGA correlation.

---------- Setting up pseudopotentials ----------
Width of ionic core gaussian charges (only for fluid interactions / plotting) set to 0

Reading pseudopotential file '/home/gridsan/aligho/DFT/build-Nov24/pseudopotentials/SG15/N_ONCV_PBE.upf':
  'N' pseudopotential, 'PBE' functional
  Generated using ONCVPSP code by D. R. Hamann
  Author: Martin Schlipf and Francois Gygi  Date: 150915.
  5 valence electrons, 2 orbitals, 4 projectors, 1058 radial grid points, with lMax = 1
  Transforming local potential to a uniform radial grid of dG=0.02 with 1514 points.
  Transforming nonlocal projectors to a uniform radial grid of dG=0.02 with 432 points.
    2S    l: 0   occupation:  2.0   eigenvalue: -0.682907
    2P    l: 1   occupation:  3.0   eigenvalue: -0.260548
  Transforming atomic orbitals to a uniform radial grid of dG=0.02 with 432 points.
  Core radius for overlap checks: 1.35 bohrs.
  Reading pulay file /home/gridsan/aligho/DFT/build-Nov24/pseudopotentials/SG15/N_ONCV_PBE.pulay ... using dE_dnG = -2.956256e-02 computed for Ecut = 20.

Reading pseudopotential file '/home/gridsan/aligho/DFT/build-Nov24/pseudopotentials/SG15/B_ONCV_PBE.upf':
  'B' pseudopotential, 'PBE' functional
  Generated using ONCVPSP code by D. R. Hamann
  Author: Martin Schlipf and Francois Gygi  Date: 150915.
  3 valence electrons, 2 orbitals, 4 projectors, 1534 radial grid points, with lMax = 1
  Transforming local potential to a uniform radial grid of dG=0.02 with 1514 points.
  Transforming nonlocal projectors to a uniform radial grid of dG=0.02 with 432 points.
    2S    l: 0   occupation:  2.0   eigenvalue: -0.347027
    2P    l: 1   occupation:  1.0   eigenvalue: -0.132548
  Transforming atomic orbitals to a uniform radial grid of dG=0.02 with 432 points.
  Core radius for overlap checks: 1.60 bohrs.
  Reading pulay file /home/gridsan/aligho/DFT/build-Nov24/pseudopotentials/SG15/B_ONCV_PBE.pulay ... using dE_dnG = -3.748568e-04 computed for Ecut = 20.

Reading pseudopotential file '/home/gridsan/aligho/DFT/build-Nov24/pseudopotentials/SG15/Na_ONCV_PBE.upf':
  'Na' pseudopotential, 'PBE' functional
  Generated using ONCVPSP code by D. R. Hamann
  Author: Martin Schlipf and Francois Gygi  Date: 150915.
  9 valence electrons, 3 orbitals, 4 projectors, 1992 radial grid points, with lMax = 1
  Transforming local potential to a uniform radial grid of dG=0.02 with 1514 points.
  Transforming nonlocal projectors to a uniform radial grid of dG=0.02 with 432 points.
    2S    l: 0   occupation:  2.0   eigenvalue: -2.085640
    2P    l: 1   occupation:  6.0   eigenvalue: -1.053708
    3S    l: 0   occupation:  1.0   eigenvalue: -0.100838
  Transforming atomic orbitals to a uniform radial grid of dG=0.02 with 432 points.
  Core radius for overlap checks: 2.01 bohrs.
  Reading pulay file /home/gridsan/aligho/DFT/build-Nov24/pseudopotentials/SG15/Na_ONCV_PBE.pulay ... using dE_dnG = -2.946487e-03 computed for Ecut = 20.

Initialized 3 species with 29 total atoms.

Folded 1 k-points by 36x36x1 to 1296 k-points.

---------- Setting up k-points, bands, fillings ----------
Adding inversion symmetry to k-mesh for non-inversion-symmetric unit cell.
Reduced to 127 k-points under symmetry. 
Computing the number of bands and number of electrons
Calculating initial fillings.
nElectrons: 121.000000   nBands: 117   nStates: 254

----- Setting up reduced wavefunction bases (one per k-point) -----
average nbasis = 23152.266 , ideal nbasis = 23152.016

----- Initializing Supercell corresponding to k-point mesh -----
Lattice vector linear combinations in supercell:
[  36   0   0  ]
[   0  36   0  ]
[   0   0   1  ]
Supercell lattice vectors:
[  -425.473  85.0946  0  ]
[  147.388  -442.166  0  ]
[  0  0  40  ]

---------- Setting up coulomb interaction ----------
Initialized slab truncation along lattice direction 001

Initializing DFT-D3 calculator:
	Parameters set for gga-PBE functional
	s6:  1.000  s_r6:  1.217
	s8:  0.722  s_r8:  1.000
	Per-atom parameters loaded for:
	 N:  sqrtQ[a0]:  2.712  Rcov[a0]:  1.342  CN: [ 0.00 0.99 2.01 2.99 ]
	 B:  sqrtQ[a0]:  3.644  Rcov[a0]:  1.455  CN: [ 0.00 0.97 1.94 2.91 4.59 ]
	Na:  sqrtQ[a0]:  6.586  Rcov[a0]:  2.646  CN: [ 0.00 0.97 ]

---------- Setting up 2D ewald sum ----------
Optimum gaussian width for ewald sums = 6.943804 bohr.
Real space sums over 289 unit cells with max indices [  8  8  0  ]
Reciprocal space sums over 81 terms with max indices [  4  4  0  ]

Computing DFT-D3 correction:
# coordination-number N 3.139 3.139 3.152 3.139 3.152 3.138 3.138 3.152 3.139 3.152 3.152 3.139 3.139 3.152
# coordination-number B 3.362 3.344 3.344 3.344 3.344 3.362 3.362 3.362 3.344 3.344 3.362 3.362 3.342 3.342
# coordination-number Na 0.296
# diagonal-C6 N 15.61 15.61 15.61 15.61 15.61 15.61 15.61 15.61 15.61 15.61 15.61 15.61 15.61 15.61
# diagonal-C6 B 31.44 31.44 31.44 31.44 31.44 31.44 31.44 31.44 31.44 31.44 31.44 31.44 31.44 31.44
# diagonal-C6 Na 1219.35
EvdW_6 =   -0.031294
EvdW_8 =   -0.029217

---------- Allocating electronic variables ----------
Reading n_up from file '../Na-0.331.n_up' ... done
Reading n_dn from file '../Na-0.331.n_dn' ... done
Initializing wave functions:  linear combination of atomic orbitals
[d-16-11-1:71992] 37 more processes have sent help message help-mpi-common-cuda.txt / dlopen failed
[d-16-11-1:71992] Set MCA parameter "orte_base_help_aggregate" to 0 to see all help / error messages
[d-16-11-1:71992] 37 more processes have sent help message help-mpi-btl-openib-cpc-base.txt / no cpcs for port


---- Citations for features of the code used in this run ----

   Software package:
      R. Sundararaman, K. Letchworth-Weaver, K.A. Schwarz, D. Gunceler, Y. Ozhabes and T.A. Arias, 'JDFTx: software for joint density-functional theory', SoftwareX 6, 278 (2017)

   gga-PBE exchange-correlation functional:
      J.P. Perdew, K. Burke and M. Ernzerhof, Phys. Rev. Lett. 77, 3865 (1996)

   Pseudopotentials:
      M Schlipf and F Gygi, Comput. Phys. Commun. 196, 36 (2015)

   Truncated Coulomb potentials:
      R. Sundararaman and T.A. Arias, Phys. Rev. B 87, 165122 (2013)

   DFT-D3 dispersion correction:
      S. Grimme, J. Antony, S. Ehrlich and H. Krieg, J. Chem. Phys. 132, 154104 (2010)

   Total energy minimization with Auxiliary Hamiltonian:
      C. Freysoldt, S. Boeck, and J. Neugebauer, Phys. Rev. B 79, 241103(R) (2009)

   Linear-tetrahedron sampling for density of states:
      G. Lehmann and M. Taut, Phys. status solidi (b) 54, 469 (1972)

This list may not be complete. Please suggest additional citations or
report any other bugs at https://github.com/shankar1729/jdftx/issues

Initialization completed successfully at t[s]:     49.56


----------- Band structure minimization -------------
Minimization will be done independently for each quantum number.

---- Minimization of quantum number:     0  [ +0.0000000 +0.0000000 +0.0000000 ]  0.000771605  spin +1 ----
BandDavidson: Iter:   0  Eband: -0.009243150656536
BandDavidson: Iter:   1  Eband: -0.014704205227645  dEband: -5.461055e-03  t[s]:     59.65
BandDavidson: Iter:   2  Eband: -0.016555147418111  dEband: -1.850942e-03  t[s]:     65.60
BandDavidson: Iter:   3  Eband: -0.017572966321327  dEband: -1.017819e-03  t[s]:     71.51
BandDavidson: Iter:   4  Eband: -0.018085243083130  dEband: -5.122768e-04  t[s]:     77.41
BandDavidson: Iter:   5  Eband: -0.018269605266865  dEband: -1.843622e-04  t[s]:     83.32
BandDavidson: Iter:   6  Eband: -0.018364421503848  dEband: -9.481624e-05  t[s]:     89.22
BandDavidson: Iter:   7  Eband: -0.018411639270721  dEband: -4.721777e-05  t[s]:     95.11
BandDavidson: Iter:   8  Eband: -0.018439849483606  dEband: -2.821021e-05  t[s]:    101.00
BandDavidson: Iter:   9  Eband: -0.018470482792301  dEband: -3.063331e-05  t[s]:    106.89
BandDavidson: Iter:  10  Eband: -0.018492174493662  dEband: -2.169170e-05  t[s]:    112.80
BandDavidson: Iter:  11  Eband: -0.018507340573804  dEband: -1.516608e-05  t[s]:    118.71
BandDavidson: Iter:  12  Eband: -0.018517882310976  dEband: -1.054174e-05  t[s]:    124.59
BandDavidson: Iter:  13  Eband: -0.018526005964197  dEband: -8.123653e-06  t[s]:    130.43
BandDavidson: Iter:  14  Eband: -0.018531991239724  dEband: -5.985276e-06  t[s]:    136.24
BandDavidson: Iter:  15  Eband: -0.018537034072593  dEband: -5.042833e-06  t[s]:    142.05
BandDavidson: Iter:  16  Eband: -0.018541183133640  dEband: -4.149061e-06  t[s]:    147.86
BandDavidson: Iter:  17  Eband: -0.018545836435063  dEband: -4.653301e-06  t[s]:    153.68
BandDavidson: Iter:  18  Eband: -0.018552842049698  dEband: -7.005615e-06  t[s]:    159.50
BandDavidson: Iter:  19  Eband: -0.018558060415112  dEband: -5.218365e-06  t[s]:    165.38
BandDavidson: Iter:  20  Eband: -0.018562845590631  dEband: -4.785176e-06  t[s]:    171.12
BandDavidson: Iter:  21  Eband: -0.018566201862503  dEband: -3.356272e-06  t[s]:    176.85
BandDavidson: Iter:  22  Eband: -0.018569101864032  dEband: -2.900002e-06  t[s]:    182.58
BandDavidson: Iter:  23  Eband: -0.018574160273515  dEband: -5.058409e-06  t[s]:    188.33
BandDavidson: Iter:  24  Eband: -0.018579201285466  dEband: -5.041012e-06  t[s]:    194.07
BandDavidson: Iter:  25  Eband: -0.018583680809825  dEband: -4.479524e-06  t[s]:    199.81
BandDavidson: Iter:  26  Eband: -0.018588673602000  dEband: -4.992792e-06  t[s]:    205.54
BandDavidson: Iter:  27  Eband: -0.018592962752965  dEband: -4.289151e-06  t[s]:    211.14
BandDavidson: Iter:  28  Eband: -0.018595588844807  dEband: -2.626092e-06  t[s]:    216.70
BandDavidson: Iter:  29  Eband: -0.018597404121869  dEband: -1.815277e-06  t[s]:    221.98
BandDavidson: Iter:  30  Eband: -0.018598725632488  dEband: -1.321511e-06  t[s]:    227.20
BandDavidson: Iter:  31  Eband: -0.018599769530016  dEband: -1.043898e-06  t[s]:    231.98
BandDavidson: Iter:  32  Eband: -0.018601090054134  dEband: -1.320524e-06  t[s]:    236.42
BandDavidson: Iter:  33  Eband: -0.018603520413770  dEband: -2.430360e-06  t[s]:    240.73
BandDavidson: Iter:  34  Eband: -0.018606891315448  dEband: -3.370902e-06  t[s]:    245.05
BandDavidson: Iter:  35  Eband: -0.018609541503648  dEband: -2.650188e-06  t[s]:    249.33
BandDavidson: Iter:  36  Eband: -0.018611213056647  dEband: -1.671553e-06  t[s]:    253.61
BandDavidson: Iter:  37  Eband: -0.018612343582871  dEband: -1.130526e-06  t[s]:    257.67
BandDavidson: Iter:  38  Eband: -0.018613117116853  dEband: -7.735340e-07  t[s]:    261.53
BandDavidson: Iter:  39  Eband: -0.018613677253244  dEband: -5.601364e-07  t[s]:    265.38
BandDavidson: Iter:  40  Eband: -0.018614096876144  dEband: -4.196229e-07  t[s]:    269.24
BandDavidson: Iter:  41  Eband: -0.018614424361846  dEband: -3.274857e-07  t[s]:    273.11
BandDavidson: Iter:  42  Eband: -0.018614680622323  dEband: -2.562605e-07  t[s]:    276.95
BandDavidson: Iter:  43  Eband: -0.018614885343174  dEband: -2.047209e-07  t[s]:    280.80
BandDavidson: Iter:  44  Eband: -0.018615048166125  dEband: -1.628230e-07  t[s]:    284.65
BandDavidson: Iter:  45  Eband: -0.018615179467482  dEband: -1.313014e-07  t[s]:    288.45
BandDavidson: Iter:  46  Eband: -0.018615284698555  dEband: -1.052311e-07  t[s]:    292.25
BandDavidson: Iter:  47  Eband: -0.018615369460433  dEband: -8.476188e-08  t[s]:    296.04
BandDavidson: Iter:  48  Eband: -0.018615437762185  dEband: -6.830175e-08  t[s]:    299.81
BandDavidson: Iter:  49  Eband: -0.018615493293852  dEband: -5.553167e-08  t[s]:    303.46
BandDavidson: Iter:  50  Eband: -0.018615538137014  dEband: -4.484316e-08  t[s]:    307.03
BandDavidson: Iter:  51  Eband: -0.018615574599939  dEband: -3.646292e-08  t[s]:    310.55
BandDavidson: Iter:  52  Eband: -0.018615604309973  dEband: -2.971003e-08  t[s]:    313.99
BandDavidson: Iter:  53  Eband: -0.018615628451226  dEband: -2.414125e-08  t[s]:    317.33
BandDavidson: Iter:  54  Eband: -0.018615648333997  dEband: -1.988277e-08  t[s]:    320.65
BandDavidson: Iter:  55  Eband: -0.018615664657724  dEband: -1.632373e-08  t[s]:    323.98
BandDavidson: Iter:  56  Eband: -0.018615678104767  dEband: -1.344704e-08  t[s]:    327.25
BandDavidson: Iter:  57  Eband: -0.018615689184121  dEband: -1.107935e-08  t[s]:    330.51
BandDavidson: Iter:  58  Eband: -0.018615698326586  dEband: -9.142465e-09  t[s]:    333.70
BandDavidson: Converged (dEband<1.000000e-08)

---- Minimization of quantum number:     1  [ +0.0000000 +0.0277778 +0.0000000 ]  0.004629630  spin +1 ----
BandDavidson: Iter:   0  Eband: -0.055425411646719
BandDavidson: Iter:   1  Eband: -0.088279366882931  dEband: -3.285396e-02  t[s]:    343.43
BandDavidson: Iter:   2  Eband: -0.099414098960258  dEband: -1.113473e-02  t[s]:    349.43
BandDavidson: Iter:   3  Eband: -0.105181378481632  dEband: -5.767280e-03  t[s]:    355.46
BandDavidson: Iter:   4  Eband: -0.108491563699637  dEband: -3.310185e-03  t[s]:    361.49
BandDavidson: Iter:   5  Eband: -0.109786825911963  dEband: -1.295262e-03  t[s]:    367.48
BandDavidson: Iter:   6  Eband: -0.110239719699083  dEband: -4.528938e-04  t[s]:    373.49
BandDavidson: Iter:   7  Eband: -0.110533574495405  dEband: -2.938548e-04  t[s]:    379.49
BandDavidson: Iter:   8  Eband: -0.110685433026635  dEband: -1.518585e-04  t[s]:    385.49
BandDavidson: Iter:   9  Eband: -0.110846588454537  dEband: -1.611554e-04  t[s]:    391.48
BandDavidson: Iter:  10  Eband: -0.110986048547020  dEband: -1.394601e-04  t[s]:    397.52
BandDavidson: Iter:  11  Eband: -0.111068855734141  dEband: -8.280719e-05  t[s]:    403.50
BandDavidson: Iter:  12  Eband: -0.111141164671249  dEband: -7.230894e-05  t[s]:    409.47
BandDavidson: Iter:  13  Eband: -0.111211905353004  dEband: -7.074068e-05  t[s]:    415.38
BandDavidson: Iter:  14  Eband: -0.111278626872902  dEband: -6.672152e-05  t[s]:    421.27
BandDavidson: Iter:  15  Eband: -0.111327865538694  dEband: -4.923867e-05  t[s]:    427.18
BandDavidson: Iter:  16  Eband: -0.111367467650247  dEband: -3.960211e-05  t[s]:    433.07
BandDavidson: Iter:  17  Eband: -0.111400433764264  dEband: -3.296611e-05  t[s]:    438.98
BandDavidson: Iter:  18  Eband: -0.111425232190703  dEband: -2.479843e-05  t[s]:    444.86
BandDavidson: Iter:  19  Eband: -0.111447709300493  dEband: -2.247711e-05  t[s]:    450.74
BandDavidson: Iter:  20  Eband: -0.111474712098253  dEband: -2.700280e-05  t[s]:    456.57
BandDavidson: Iter:  21  Eband: -0.111500601923712  dEband: -2.588983e-05  t[s]:    462.35
BandDavidson: Iter:  22  Eband: -0.111524174357441  dEband: -2.357243e-05  t[s]:    468.05
BandDavidson: Iter:  23  Eband: -0.111549210102695  dEband: -2.503575e-05  t[s]:    473.79
BandDavidson: Iter:  24  Eband: -0.111570372714265  dEband: -2.116261e-05  t[s]:    479.50
BandDavidson: Iter:  25  Eband: -0.111587430489964  dEband: -1.705778e-05  t[s]:    485.21
BandDavidson: Iter:  26  Eband: -0.111601430753304  dEband: -1.400026e-05  t[s]:    490.92
BandDavidson: Iter:  27  Eband: -0.111613374062690  dEband: -1.194331e-05  t[s]:    496.56
BandDavidson: Iter:  28  Eband: -0.111625288907759  dEband: -1.191485e-05  t[s]:    501.92
BandDavidson: Iter:  29  Eband: -0.111639903805019  dEband: -1.461490e-05  t[s]:    507.12
BandDavidson: Iter:  30  Eband: -0.111656134590720  dEband: -1.623079e-05  t[s]:    512.19
BandDavidson: Iter:  31  Eband: -0.111669635228321  dEband: -1.350064e-05  t[s]:    517.03
BandDavidson: Iter:  32  Eband: -0.111680369566362  dEband: -1.073434e-05  t[s]:    521.47
BandDavidson: Iter:  33  Eband: -0.111688584784752  dEband: -8.215218e-06  t[s]:    525.73
BandDavidson: Iter:  34  Eband: -0.111694931534641  dEband: -6.346750e-06  t[s]:    530.01
BandDavidson: Iter:  35  Eband: -0.111700004981425  dEband: -5.073447e-06  t[s]:    534.30
BandDavidson: Iter:  36  Eband: -0.111704109961027  dEband: -4.104980e-06  t[s]:    538.61
BandDavidson: Iter:  37  Eband: -0.111707421894147  dEband: -3.311933e-06  t[s]:    542.68
BandDavidson: Iter:  38  Eband: -0.111710064909611  dEband: -2.643015e-06  t[s]:    546.58
BandDavidson: Iter:  39  Eband: -0.111712195153920  dEband: -2.130244e-06  t[s]:    550.44
BandDavidson: Iter:  40  Eband: -0.111713948672825  dEband: -1.753519e-06  t[s]:    554.29
BandDavidson: Iter:  41  Eband: -0.111715395746871  dEband: -1.447074e-06  t[s]:    558.12
BandDavidson: Iter:  42  Eband: -0.111716596221678  dEband: -1.200475e-06  t[s]:    561.98
BandDavidson: Iter:  43  Eband: -0.111717587112259  dEband: -9.908906e-07  t[s]:    565.83
BandDavidson: Iter:  44  Eband: -0.111718405701641  dEband: -8.185894e-07  t[s]:    569.61
BandDavidson: Iter:  45  Eband: -0.111719084470262  dEband: -6.787686e-07  t[s]:    573.41
BandDavidson: Iter:  46  Eband: -0.111719647892216  dEband: -5.634220e-07  t[s]:    577.20
BandDavidson: Iter:  47  Eband: -0.111720115765631  dEband: -4.678734e-07  t[s]:    580.96
BandDavidson: Iter:  48  Eband: -0.111720503046087  dEband: -3.872805e-07  t[s]:    584.73
BandDavidson: Iter:  49  Eband: -0.111720823313602  dEband: -3.202675e-07  t[s]:    588.45
BandDavidson: Iter:  50  Eband: -0.111721088118451  dEband: -2.648048e-07  t[s]:    592.13
BandDavidson: Iter:  51  Eband: -0.111721308587951  dEband: -2.204695e-07  t[s]:    595.75
BandDavidson: Iter:  52  Eband: -0.111721490441365  dEband: -1.818534e-07  t[s]:    599.24
BandDavidson: Iter:  53  Eband: -0.111721641678938  dEband: -1.512376e-07  t[s]:    602.60
BandDavidson: Iter:  54  Eband: -0.111721765139590  dEband: -1.234607e-07  t[s]:    605.92
BandDavidson: Iter:  55  Eband: -0.111721867569752  dEband: -1.024302e-07  t[s]:    609.20
BandDavidson: Iter:  56  Eband: -0.111721951615707  dEband: -8.404596e-08  t[s]:    612.40
BandDavidson: Iter:  57  Eband: -0.111722021550573  dEband: -6.993487e-08  t[s]:    615.62
BandDavidson: Iter:  58  Eband: -0.111722079747351  dEband: -5.819678e-08  t[s]:    618.82
BandDavidson: Iter:  59  Eband: -0.111722128570529  dEband: -4.882318e-08  t[s]:    622.01
BandDavidson: Iter:  60  Eband: -0.111722169094329  dEband: -4.052380e-08  t[s]:    625.18
BandDavidson: Iter:  61  Eband: -0.111722202987848  dEband: -3.389352e-08  t[s]:    628.30
BandDavidson: Iter:  62  Eband: -0.111722230843006  dEband: -2.785516e-08  t[s]:    631.42
BandDavidson: Iter:  63  Eband: -0.111722253973368  dEband: -2.313036e-08  t[s]:    634.43
BandDavidson: Iter:  64  Eband: -0.111722273091904  dEband: -1.911854e-08  t[s]:    637.45
BandDavidson: Iter:  65  Eband: -0.111722289089403  dEband: -1.599750e-08  t[s]:    640.48
BandDavidson: Iter:  66  Eband: -0.111722302389365  dEband: -1.329996e-08  t[s]:    643.48
BandDavidson: Iter:  67  Eband: -0.111722313514041  dEband: -1.112468e-08  t[s]:    646.43
BandDavidson: Iter:  68  Eband: -0.111722322769170  dEband: -9.255130e-09  t[s]:    649.39
BandDavidson: Converged (dEband<1.000000e-08)

---- Minimization of quantum number:     2  [ +0.0000000 +0.0555556 +0.0000000 ]  0.004629630  spin +1 ----
BandDavidson: Iter:   0  Eband: -0.055420382715525
BandDavidson: Iter:   1  Eband: -0.088441272168502  dEband: -3.302089e-02  t[s]:    659.03
BandDavidson: Iter:   2  Eband: -0.099549884148566  dEband: -1.110861e-02  t[s]:    664.99
BandDavidson: Iter:   3  Eband: -0.104898054848204  dEband: -5.348171e-03  t[s]:    670.95
BandDavidson: Iter:   4  Eband: -0.108238542179891  dEband: -3.340487e-03  t[s]:    676.92
BandDavidson: Iter:   5  Eband: -0.109743189720712  dEband: -1.504648e-03  t[s]:    682.86
BandDavidson: Iter:   6  Eband: -0.110361108870276  dEband: -6.179191e-04  t[s]:    688.80
BandDavidson: Iter:   7  Eband: -0.110573377071277  dEband: -2.122682e-04  t[s]:    694.74
BandDavidson: Iter:   8  Eband: -0.110812337788467  dEband: -2.389607e-04  t[s]:    700.67
BandDavidson: Iter:   9  Eband: -0.110985826131025  dEband: -1.734883e-04  t[s]:    706.62
BandDavidson: Iter:  10  Eband: -0.111080321389836  dEband: -9.449526e-05  t[s]:    712.56
BandDavidson: Iter:  11  Eband: -0.111153456815641  dEband: -7.313543e-05  t[s]:    718.50
BandDavidson: Iter:  12  Eband: -0.111218051178131  dEband: -6.459436e-05  t[s]:    724.42
BandDavidson: Iter:  13  Eband: -0.111277410014336  dEband: -5.935884e-05  t[s]:    730.28
BandDavidson: Iter:  14  Eband: -0.111320483835252  dEband: -4.307382e-05  t[s]:    736.09
BandDavidson: Iter:  15  Eband: -0.111356362307074  dEband: -3.587847e-05  t[s]:    741.90
BandDavidson: Iter:  16  Eband: -0.111388992844062  dEband: -3.263054e-05  t[s]:    747.71
BandDavidson: Iter:  17  Eband: -0.111420711674606  dEband: -3.171883e-05  t[s]:    753.54
BandDavidson: Iter:  18  Eband: -0.111462728235417  dEband: -4.201656e-05  t[s]:    759.36
BandDavidson: Iter:  19  Eband: -0.111512866074083  dEband: -5.013784e-05  t[s]:    765.19
BandDavidson: Iter:  20  Eband: -0.111557073489516  dEband: -4.420742e-05  t[s]:    771.01
BandDavidson: Iter:  21  Eband: -0.111589743095132  dEband: -3.266961e-05  t[s]:    776.75
BandDavidson: Iter:  22  Eband: -0.111617463285908  dEband: -2.772019e-05  t[s]:    782.50
BandDavidson: Iter:  23  Eband: -0.111645055757833  dEband: -2.759247e-05  t[s]:    788.25
BandDavidson: Iter:  24  Eband: -0.111668238340757  dEband: -2.318258e-05  t[s]:    793.93
BandDavidson: Iter:  25  Eband: -0.111687733830854  dEband: -1.949549e-05  t[s]:    799.62
BandDavidson: Iter:  26  Eband: -0.111703426314218  dEband: -1.569248e-05  t[s]:    805.32
BandDavidson: Iter:  27  Eband: -0.111715907634124  dEband: -1.248132e-05  t[s]:    810.99
BandDavidson: Iter:  28  Eband: -0.111725954992204  dEband: -1.004736e-05  t[s]:    816.43
BandDavidson: Iter:  29  Eband: -0.111734515189232  dEband: -8.560197e-06  t[s]:    821.61
BandDavidson: Iter:  30  Eband: -0.111742660255227  dEband: -8.145066e-06  t[s]:    826.62
BandDavidson: Iter:  31  Eband: -0.111749851950769  dEband: -7.191696e-06  t[s]:    831.36
BandDavidson: Iter:  32  Eband: -0.111755850111872  dEband: -5.998161e-06  t[s]:    835.84
BandDavidson: Iter:  33  Eband: -0.111760728940763  dEband: -4.878829e-06  t[s]:    840.08
BandDavidson: Iter:  34  Eband: -0.111764759533395  dEband: -4.030593e-06  t[s]:    844.31
BandDavidson: Iter:  35  Eband: -0.111768091617322  dEband: -3.332084e-06  t[s]:    848.56
BandDavidson: Iter:  36  Eband: -0.111770854123724  dEband: -2.762506e-06  t[s]:    852.71
BandDavidson: Iter:  37  Eband: -0.111773130740710  dEband: -2.276617e-06  t[s]:    856.83
BandDavidson: Iter:  38  Eband: -0.111774974735846  dEband: -1.843995e-06  t[s]:    860.66
BandDavidson: Iter:  39  Eband: -0.111776469001290  dEband: -1.494265e-06  t[s]:    864.50
BandDavidson: Iter:  40  Eband: -0.111777706282251  dEband: -1.237281e-06  t[s]:    868.33
BandDavidson: Iter:  41  Eband: -0.111778739151751  dEband: -1.032869e-06  t[s]:    872.16
BandDavidson: Iter:  42  Eband: -0.111779612116492  dEband: -8.729647e-07  t[s]:    876.00
BandDavidson: Iter:  43  Eband: -0.111780342418030  dEband: -7.303015e-07  t[s]:    879.82
BandDavidson: Iter:  44  Eband: -0.111780955197264  dEband: -6.127792e-07  t[s]:    883.64
BandDavidson: Iter:  45  Eband: -0.111781466290590  dEband: -5.110933e-07  t[s]:    887.42
BandDavidson: Iter:  46  Eband: -0.111781893238406  dEband: -4.269478e-07  t[s]:    891.22
BandDavidson: Iter:  47  Eband: -0.111782249479739  dEband: -3.562413e-07  t[s]:    894.99
BandDavidson: Iter:  48  Eband: -0.111782546554865  dEband: -2.970751e-07  t[s]:    898.69
BandDavidson: Iter:  49  Eband: -0.111782794775800  dEband: -2.482209e-07  t[s]:    902.35
BandDavidson: Iter:  50  Eband: -0.111783002079687  dEband: -2.073039e-07  t[s]:    906.04
BandDavidson: Iter:  51  Eband: -0.111783174732267  dEband: -1.726526e-07  t[s]:    909.59
BandDavidson: Iter:  52  Eband: -0.111783318660087  dEband: -1.439278e-07  t[s]:    913.12
BandDavidson: Iter:  53  Eband: -0.111783439103763  dEband: -1.204437e-07  t[s]:    916.55
BandDavidson: Iter:  54  Eband: -0.111783540030550  dEband: -1.009268e-07  t[s]:    919.88
BandDavidson: Iter:  55  Eband: -0.111783624965634  dEband: -8.493508e-08  t[s]:    923.20
BandDavidson: Iter:  56  Eband: -0.111783696482750  dEband: -7.151712e-08  t[s]:    926.44
BandDavidson: Iter:  57  Eband: -0.111783756649272  dEband: -6.016652e-08  t[s]:    929.65
BandDavidson: Iter:  58  Eband: -0.111783807513894  dEband: -5.086462e-08  t[s]:    932.84
BandDavidson: Iter:  59  Eband: -0.111783850514342  dEband: -4.300045e-08  t[s]:    936.05
BandDavidson: Iter:  60  Eband: -0.111783886985565  dEband: -3.647122e-08  t[s]:    939.28
BandDavidson: Iter:  61  Eband: -0.111783917678168  dEband: -3.069260e-08  t[s]:    942.36
BandDavidson: Iter:  62  Eband: -0.111783943638970  dEband: -2.596080e-08  t[s]:    945.43
BandDavidson: Iter:  63  Eband: -0.111783965637957  dEband: -2.199899e-08  t[s]:    948.47
BandDavidson: Iter:  64  Eband: -0.111783984373952  dEband: -1.873600e-08  t[s]:    951.50
BandDavidson: Iter:  65  Eband: -0.111784000362892  dEband: -1.598894e-08  t[s]:    954.51
BandDavidson: Iter:  66  Eband: -0.111784013975683  dEband: -1.361279e-08  t[s]:    957.54
BandDavidson: Iter:  67  Eband: -0.111784025581332  dEband: -1.160565e-08  t[s]:    960.52
BandDavidson: Iter:  68  Eband: -0.111784035475567  dEband: -9.894235e-09  t[s]:    963.49
BandDavidson: Converged (dEband<1.000000e-08)

---- Minimization of quantum number:     3  [ +0.0000000 +0.0833333 +0.0000000 ]  0.004629630  spin +1 ----
BandDavidson: Iter:   0  Eband: -0.055317172767489
BandDavidson: Iter:   1  Eband: -0.088199784703210  dEband: -3.288261e-02  t[s]:    973.14
BandDavidson: Iter:   2  Eband: -0.099311224266524  dEband: -1.111144e-02  t[s]:    979.09
BandDavidson: Iter:   3  Eband: -0.104507116804598  dEband: -5.195893e-03  t[s]:    985.05
BandDavidson: Iter:   4  Eband: -0.107756092216817  dEband: -3.248975e-03  t[s]:    991.03
BandDavidson: Iter:   5  Eband: -0.109288653393744  dEband: -1.532561e-03  t[s]:    997.00
BandDavidson: Iter:   6  Eband: -0.110004445281129  dEband: -7.157919e-04  t[s]:   1002.93
BandDavidson: Iter:   7  Eband: -0.110324556342457  dEband: -3.201111e-04  t[s]:   1008.92
BandDavidson: Iter:   8  Eband: -0.110536425888568  dEband: -2.118695e-04  t[s]:   1014.89
BandDavidson: Iter:   9  Eband: -0.110694594635001  dEband: -1.581687e-04  t[s]:   1020.87
BandDavidson: Iter:  10  Eband: -0.110901957892308  dEband: -2.073633e-04  t[s]:   1026.79
BandDavidson: Iter:  11  Eband: -0.111051632264257  dEband: -1.496744e-04  t[s]:   1032.76
BandDavidson: Iter:  12  Eband: -0.111142413422456  dEband: -9.078116e-05  t[s]:   1038.67
BandDavidson: Iter:  13  Eband: -0.111209056677485  dEband: -6.664326e-05  t[s]:   1044.54
BandDavidson: Iter:  14  Eband: -0.111269112300925  dEband: -6.005562e-05  t[s]:   1050.36
BandDavidson: Iter:  15  Eband: -0.111335736283957  dEband: -6.662398e-05  t[s]:   1056.19
BandDavidson: Iter:  16  Eband: -0.111404284275198  dEband: -6.854799e-05  t[s]:   1062.01
BandDavidson: Iter:  17  Eband: -0.111472030169182  dEband: -6.774589e-05  t[s]:   1067.87
BandDavidson: Iter:  18  Eband: -0.111528153101837  dEband: -5.612293e-05  t[s]:   1073.68
BandDavidson: Iter:  19  Eband: -0.111571225104471  dEband: -4.307200e-05  t[s]:   1079.50
BandDavidson: Iter:  20  Eband: -0.111605319296798  dEband: -3.409419e-05  t[s]:   1085.35
BandDavidson: Iter:  21  Eband: -0.111637562926961  dEband: -3.224363e-05  t[s]:   1091.09
BandDavidson: Iter:  22  Eband: -0.111666421338850  dEband: -2.885841e-05  t[s]:   1096.81
BandDavidson: Iter:  23  Eband: -0.111690794797925  dEband: -2.437346e-05  t[s]:   1102.57
BandDavidson: Iter:  24  Eband: -0.111710128812355  dEband: -1.933401e-05  t[s]:   1108.26
BandDavidson: Iter:  25  Eband: -0.111724888458081  dEband: -1.475965e-05  t[s]:   1113.90
BandDavidson: Iter:  26  Eband: -0.111736744259739  dEband: -1.185580e-05  t[s]:   1119.55
BandDavidson: Iter:  27  Eband: -0.111747320775833  dEband: -1.057652e-05  t[s]:   1125.17
BandDavidson: Iter:  28  Eband: -0.111761963504890  dEband: -1.464273e-05  t[s]:   1130.71
BandDavidson: Iter:  29  Eband: -0.111777037827436  dEband: -1.507432e-05  t[s]:   1135.90
BandDavidson: Iter:  30  Eband: -0.111789186824065  dEband: -1.214900e-05  t[s]:   1140.98
BandDavidson: Iter:  31  Eband: -0.111798225320780  dEband: -9.038497e-06  t[s]:   1145.73
BandDavidson: Iter:  32  Eband: -0.111805274016195  dEband: -7.048695e-06  t[s]:   1150.35
BandDavidson: Iter:  33  Eband: -0.111810842141973  dEband: -5.568126e-06  t[s]:   1154.59
BandDavidson: Iter:  34  Eband: -0.111815298895208  dEband: -4.456753e-06  t[s]:   1158.79
BandDavidson: Iter:  35  Eband: -0.111818925166196  dEband: -3.626271e-06  t[s]:   1163.05
BandDavidson: Iter:  36  Eband: -0.111821917558079  dEband: -2.992392e-06  t[s]:   1167.30
BandDavidson: Iter:  37  Eband: -0.111824383800009  dEband: -2.466242e-06  t[s]:   1171.41
BandDavidson: Iter:  38  Eband: -0.111826421059906  dEband: -2.037260e-06  t[s]:   1175.37
BandDavidson: Iter:  39  Eband: -0.111828089819930  dEband: -1.668760e-06  t[s]:   1179.24
BandDavidson: Iter:  40  Eband: -0.111829481566769  dEband: -1.391747e-06  t[s]:   1183.05
BandDavidson: Iter:  41  Eband: -0.111830649404934  dEband: -1.167838e-06  t[s]:   1186.89
BandDavidson: Iter:  42  Eband: -0.111831639259689  dEband: -9.898548e-07  t[s]:   1190.72
BandDavidson: Iter:  43  Eband: -0.111832476890902  dEband: -8.376312e-07  t[s]:   1194.54
BandDavidson: Iter:  44  Eband: -0.111833188377255  dEband: -7.114864e-07  t[s]:   1198.36
BandDavidson: Iter:  45  Eband: -0.111833791735025  dEband: -6.033578e-07  t[s]:   1202.15
BandDavidson: Iter:  46  Eband: -0.111834306133682  dEband: -5.143987e-07  t[s]:   1205.90
BandDavidson: Iter:  47  Eband: -0.111834744011601  dEband: -4.378779e-07  t[s]:   1209.63
BandDavidson: Iter:  48  Eband: -0.111835117591531  dEband: -3.735799e-07  t[s]:   1213.34
BandDavidson: Iter:  49  Eband: -0.111835436936152  dEband: -3.193446e-07  t[s]:   1216.95
BandDavidson: Iter:  50  Eband: -0.111835708169828  dEband: -2.712337e-07  t[s]:   1220.50
BandDavidson: Iter:  51  Eband: -0.111835939075744  dEband: -2.309059e-07  t[s]:   1223.97
BandDavidson: Iter:  52  Eband: -0.111836136817714  dEband: -1.977420e-07  t[s]:   1227.42
BandDavidson: Iter:  53  Eband: -0.111836306263541  dEband: -1.694458e-07  t[s]:   1230.78
BandDavidson: Iter:  54  Eband: -0.111836451163503  dEband: -1.449000e-07  t[s]:   1234.07
BandDavidson: Iter:  55  Eband: -0.111836575302616  dEband: -1.241391e-07  t[s]:   1237.35
BandDavidson: Iter:  56  Eband: -0.111836682072032  dEband: -1.067694e-07  t[s]:   1240.63
BandDavidson: Iter:  57  Eband: -0.111836773560902  dEband: -9.148887e-08  t[s]:   1243.82
BandDavidson: Iter:  58  Eband: -0.111836852096937  dEband: -7.853603e-08  t[s]:   1247.02
BandDavidson: Iter:  59  Eband: -0.111836919565385  dEband: -6.746845e-08  t[s]:   1250.19
BandDavidson: Iter:  60  Eband: -0.111836977643895  dEband: -5.807851e-08  t[s]:   1253.31
BandDavidson: Iter:  61  Eband: -0.111837027667237  dEband: -5.002334e-08  t[s]:   1256.41
BandDavidson: Iter:  62  Eband: -0.111837070760396  dEband: -4.309316e-08  t[s]:   1259.46
BandDavidson: Iter:  63  Eband: -0.111837107967689  dEband: -3.720729e-08  t[s]:   1262.46
BandDavidson: Iter:  64  Eband: -0.111837140095689  dEband: -3.212800e-08  t[s]:   1265.43
BandDavidson: Iter:  65  Eband: -0.111837167839299  dEband: -2.774361e-08  t[s]:   1268.42
BandDavidson: Iter:  66  Eband: -0.111837191887707  dEband: -2.404841e-08  t[s]:   1271.39
BandDavidson: Iter:  67  Eband: -0.111837212729514  dEband: -2.084181e-08  t[s]:   1274.38
BandDavidson: Iter:  68  Eband: -0.111837230785646  dEband: -1.805613e-08  t[s]:   1277.36
BandDavidson: Iter:  69  Eband: -0.111837246419786  dEband: -1.563414e-08  t[s]:   1280.34
BandDavidson: Iter:  70  Eband: -0.111837259859052  dEband: -1.343927e-08  t[s]:   1283.19
BandDavidson: Iter:  71  Eband: -0.111837271513493  dEband: -1.165444e-08  t[s]:   1286.04
BandDavidson: Iter:  72  Eband: -0.111837281596987  dEband: -1.008349e-08  t[s]:   1288.87
BandDavidson: Iter:  73  Eband: -0.111837290417605  dEband: -8.820618e-09  t[s]:   1291.70
BandDavidson: Converged (dEband<1.000000e-08)

---- Minimization of quantum number:     4  [ +0.0000000 +0.1111111 +0.0000000 ]  0.004629630  spin +1 ----
BandDavidson: Iter:   0  Eband: -0.055347778825496
BandDavidson: Iter:   1  Eband: -0.088388891842227  dEband: -3.304111e-02  t[s]:   1301.35
BandDavidson: Iter:   2  Eband: -0.099618349259586  dEband: -1.122946e-02  t[s]:   1307.27
BandDavidson: Iter:   3  Eband: -0.104654168643442  dEband: -5.035819e-03  t[s]:   1313.18
BandDavidson: Iter:   4  Eband: -0.107736032194499  dEband: -3.081864e-03  t[s]:   1319.12
BandDavidson: Iter:   5  Eband: -0.109107591986589  dEband: -1.371560e-03  t[s]:   1325.06
BandDavidson: Iter:   6  Eband: -0.109905088041871  dEband: -7.974961e-04  t[s]:   1330.97
BandDavidson: Iter:   7  Eband: -0.110207468401899  dEband: -3.023804e-04  t[s]:   1336.90
BandDavidson: Iter:   8  Eband: -0.110414756171171  dEband: -2.072878e-04  t[s]:   1342.81
BandDavidson: Iter:   9  Eband: -0.110598406810747  dEband: -1.836506e-04  t[s]:   1348.69
BandDavidson: Iter:  10  Eband: -0.110766157568632  dEband: -1.677508e-04  t[s]:   1354.62
BandDavidson: Iter:  11  Eband: -0.110931120657036  dEband: -1.649631e-04  t[s]:   1360.56
BandDavidson: Iter:  12  Eband: -0.111081826874503  dEband: -1.507062e-04  t[s]:   1366.42
BandDavidson: Iter:  13  Eband: -0.111223227820177  dEband: -1.414009e-04  t[s]:   1372.24
BandDavidson: Iter:  14  Eband: -0.111319211058495  dEband: -9.598324e-05  t[s]:   1378.02
BandDavidson: Iter:  15  Eband: -0.111407617575355  dEband: -8.840652e-05  t[s]:   1383.82
BandDavidson: Iter:  16  Eband: -0.111491923022169  dEband: -8.430545e-05  t[s]:   1389.61
BandDavidson: Iter:  17  Eband: -0.111556012516980  dEband: -6.408949e-05  t[s]:   1395.39
BandDavidson: Iter:  18  Eband: -0.111615525997638  dEband: -5.951348e-05  t[s]:   1401.16
BandDavidson: Iter:  19  Eband: -0.111661146137800  dEband: -4.562014e-05  t[s]:   1406.95
BandDavidson: Iter:  20  Eband: -0.111695118217719  dEband: -3.397208e-05  t[s]:   1412.71
BandDavidson: Iter:  21  Eband: -0.111722906466307  dEband: -2.778825e-05  t[s]:   1418.40
BandDavidson: Iter:  22  Eband: -0.111745739033175  dEband: -2.283257e-05  t[s]:   1424.07
BandDavidson: Iter:  23  Eband: -0.111764787995183  dEband: -1.904896e-05  t[s]:   1429.72
BandDavidson: Iter:  24  Eband: -0.111780145091203  dEband: -1.535710e-05  t[s]:   1435.39
BandDavidson: Iter:  25  Eband: -0.111794878414903  dEband: -1.473332e-05  t[s]:   1441.00
BandDavidson: Iter:  26  Eband: -0.111809421478314  dEband: -1.454306e-05  t[s]:   1446.65
BandDavidson: Iter:  27  Eband: -0.111821984087526  dEband: -1.256261e-05  t[s]:   1452.24
BandDavidson: Iter:  28  Eband: -0.111832477038187  dEband: -1.049295e-05  t[s]:   1457.74
BandDavidson: Iter:  29  Eband: -0.111841535742455  dEband: -9.058704e-06  t[s]:   1463.00
BandDavidson: Iter:  30  Eband: -0.111849077711338  dEband: -7.541969e-06  t[s]:   1467.91
BandDavidson: Iter:  31  Eband: -0.111855284761857  dEband: -6.207051e-06  t[s]:   1472.67
BandDavidson: Iter:  32  Eband: -0.111860446972657  dEband: -5.162211e-06  t[s]:   1477.18
BandDavidson: Iter:  33  Eband: -0.111864750760097  dEband: -4.303787e-06  t[s]:   1481.39
BandDavidson: Iter:  34  Eband: -0.111868377092895  dEband: -3.626333e-06  t[s]:   1485.61
BandDavidson: Iter:  35  Eband: -0.111871469129714  dEband: -3.092037e-06  t[s]:   1489.81
BandDavidson: Iter:  36  Eband: -0.111874117804470  dEband: -2.648675e-06  t[s]:   1494.02
BandDavidson: Iter:  37  Eband: -0.111876365478018  dEband: -2.247674e-06  t[s]:   1498.02
BandDavidson: Iter:  38  Eband: -0.111878267071831  dEband: -1.901594e-06  t[s]:   1501.98
BandDavidson: Iter:  39  Eband: -0.111879894442348  dEband: -1.627371e-06  t[s]:   1505.81
BandDavidson: Iter:  40  Eband: -0.111881293398571  dEband: -1.398956e-06  t[s]:   1509.62
BandDavidson: Iter:  41  Eband: -0.111882494266021  dEband: -1.200867e-06  t[s]:   1513.39
BandDavidson: Iter:  42  Eband: -0.111883523194955  dEband: -1.028929e-06  t[s]:   1517.12
BandDavidson: Iter:  43  Eband: -0.111884418040184  dEband: -8.948452e-07  t[s]:   1520.89
BandDavidson: Iter:  44  Eband: -0.111885184918350  dEband: -7.668782e-07  t[s]:   1524.61
BandDavidson: Iter:  45  Eband: -0.111885853482442  dEband: -6.685641e-07  t[s]:   1528.32
BandDavidson: Iter:  46  Eband: -0.111886431903990  dEband: -5.784215e-07  t[s]:   1532.05
BandDavidson: Iter:  47  Eband: -0.111886937728494  dEband: -5.058245e-07  t[s]:   1535.70
BandDavidson: Iter:  48  Eband: -0.111887371730122  dEband: -4.340016e-07  t[s]:   1539.27
BandDavidson: Iter:  49  Eband: -0.111887745353475  dEband: -3.736234e-07  t[s]:   1542.77
BandDavidson: Iter:  50  Eband: -0.111888066274140  dEband: -3.209207e-07  t[s]:   1546.24
BandDavidson: Iter:  51  Eband: -0.111888345008393  dEband: -2.787343e-07  t[s]:   1549.60
BandDavidson: Iter:  52  Eband: -0.111888585168681  dEband: -2.401603e-07  t[s]:   1552.91
BandDavidson: Iter:  53  Eband: -0.111888795255941  dEband: -2.100873e-07  t[s]:   1556.15
BandDavidson: Iter:  54  Eband: -0.111888977714567  dEband: -1.824586e-07  t[s]:   1559.35
BandDavidson: Iter:  55  Eband: -0.111889138582003  dEband: -1.608674e-07  t[s]:   1562.53
BandDavidson: Iter:  56  Eband: -0.111889278086133  dEband: -1.395041e-07  t[s]:   1565.69
BandDavidson: Iter:  57  Eband: -0.111889400101141  dEband: -1.220150e-07  t[s]:   1568.86
BandDavidson: Iter:  58  Eband: -0.111889506453883  dEband: -1.063527e-07  t[s]:   1572.00
BandDavidson: Iter:  59  Eband: -0.111889599216314  dEband: -9.276243e-08  t[s]:   1575.08
BandDavidson: Iter:  60  Eband: -0.111889679922615  dEband: -8.070630e-08  t[s]:   1578.15
BandDavidson: Iter:  61  Eband: -0.111889749902678  dEband: -6.998006e-08  t[s]:   1581.15
BandDavidson: Iter:  62  Eband: -0.111889811255673  dEband: -6.135300e-08  t[s]:   1584.14
BandDavidson: Iter:  63  Eband: -0.111889864743266  dEband: -5.348759e-08  t[s]:   1587.11
BandDavidson: Iter:  64  Eband: -0.111889911687434  dEband: -4.694417e-08  t[s]:   1590.08
BandDavidson: Iter:  65  Eband: -0.111889952754578  dEband: -4.106714e-08  t[s]:   1593.02
BandDavidson: Iter:  66  Eband: -0.111889989068486  dEband: -3.631391e-08  t[s]:   1595.95
BandDavidson: Iter:  67  Eband: -0.111890020888855  dEband: -3.182037e-08  t[s]:   1598.87
BandDavidson: Iter:  68  Eband: -0.111890048886012  dEband: -2.799716e-08  t[s]:   1601.76
BandDavidson: Iter:  69  Eband: -0.111890073460582  dEband: -2.457457e-08  t[s]:   1604.62
BandDavidson: Iter:  70  Eband: -0.111890094983450  dEband: -2.152287e-08  t[s]:   1607.47
BandDavidson: Iter:  71  Eband: -0.111890113802299  dEband: -1.881885e-08  t[s]:   1610.29
BandDavidson: Iter:  72  Eband: -0.111890130335271  dEband: -1.653297e-08  t[s]:   1613.07
BandDavidson: Iter:  73  Eband: -0.111890144900656  dEband: -1.456539e-08  t[s]:   1615.86
BandDavidson: Iter:  74  Eband: -0.111890157741759  dEband: -1.284110e-08  t[s]:   1618.65
BandDavidson: Iter:  75  Eband: -0.111890169015540  dEband: -1.127378e-08  t[s]:   1621.44
BandDavidson: Iter:  76  Eband: -0.111890178903295  dEband: -9.887755e-09  t[s]:   1624.24
BandDavidson: Converged (dEband<1.000000e-08)

---- Minimization of quantum number:     5  [ +0.0000000 +0.1388889 +0.0000000 ]  0.004629630  spin +1 ----
BandDavidson: Iter:   0  Eband: -0.055262464259822
BandDavidson: Iter:   1  Eband: -0.088404603003969  dEband: -3.314214e-02  t[s]:   1633.86
BandDavidson: Iter:   2  Eband: -0.100050455012401  dEband: -1.164585e-02  t[s]:   1639.79
BandDavidson: Iter:   3  Eband: -0.104707888015017  dEband: -4.657433e-03  t[s]:   1645.71
BandDavidson: Iter:   4  Eband: -0.107756793923507  dEband: -3.048906e-03  t[s]:   1651.62
BandDavidson: Iter:   5  Eband: -0.109223633449143  dEband: -1.466840e-03  t[s]:   1657.56
BandDavidson: Iter:   6  Eband: -0.109972290309340  dEband: -7.486569e-04  t[s]:   1663.55
BandDavidson: Iter:   7  Eband: -0.110276085818589  dEband: -3.037955e-04  t[s]:   1669.50
BandDavidson: Iter:   8  Eband: -0.110544162559813  dEband: -2.680767e-04  t[s]:   1675.43
BandDavidson: Iter:   9  Eband: -0.110894773186846  dEband: -3.506106e-04  t[s]:   1681.34
BandDavidson: Iter:  10  Eband: -0.111098380799832  dEband: -2.036076e-04  t[s]:   1687.30
BandDavidson: Iter:  11  Eband: -0.111205274546766  dEband: -1.068937e-04  t[s]:   1693.23
BandDavidson: Iter:  12  Eband: -0.111291592761618  dEband: -8.631821e-05  t[s]:   1699.12
BandDavidson: Iter:  13  Eband: -0.111380462626654  dEband: -8.886987e-05  t[s]:   1704.98
BandDavidson: Iter:  14  Eband: -0.111469384527673  dEband: -8.892190e-05  t[s]:   1710.79
BandDavidson: Iter:  15  Eband: -0.111545018983013  dEband: -7.563446e-05  t[s]:   1716.59
BandDavidson: Iter:  16  Eband: -0.111605424180966  dEband: -6.040520e-05  t[s]:   1722.37
BandDavidson: Iter:  17  Eband: -0.111656546742317  dEband: -5.112256e-05  t[s]:   1728.15
BandDavidson: Iter:  18  Eband: -0.111696218158363  dEband: -3.967142e-05  t[s]:   1733.94
BandDavidson: Iter:  19  Eband: -0.111726305752476  dEband: -3.008759e-05  t[s]:   1739.73
BandDavidson: Iter:  20  Eband: -0.111750013955735  dEband: -2.370820e-05  t[s]:   1745.54
BandDavidson: Iter:  21  Eband: -0.111769292729851  dEband: -1.927877e-05  t[s]:   1751.34
BandDavidson: Iter:  22  Eband: -0.111786883271451  dEband: -1.759054e-05  t[s]:   1757.06
BandDavidson: Iter:  23  Eband: -0.111802897181613  dEband: -1.601391e-05  t[s]:   1762.76
BandDavidson: Iter:  24  Eband: -0.111816583048455  dEband: -1.368587e-05  t[s]:   1768.48
BandDavidson: Iter:  25  Eband: -0.111827978278858  dEband: -1.139523e-05  t[s]:   1774.19
BandDavidson: Iter:  26  Eband: -0.111837348213934  dEband: -9.369935e-06  t[s]:   1779.82
BandDavidson: Iter:  27  Eband: -0.111845010186441  dEband: -7.661973e-06  t[s]:   1785.44
BandDavidson: Iter:  28  Eband: -0.111851331861537  dEband: -6.321675e-06  t[s]:   1790.97
BandDavidson: Iter:  29  Eband: -0.111856720197286  dEband: -5.388336e-06  t[s]:   1796.16
BandDavidson: Iter:  30  Eband: -0.111862300945549  dEband: -5.580748e-06  t[s]:   1801.20
BandDavidson: Iter:  31  Eband: -0.111868284405415  dEband: -5.983460e-06  t[s]:   1805.95
BandDavidson: Iter:  32  Eband: -0.111874270168795  dEband: -5.985763e-06  t[s]:   1810.54
BandDavidson: Iter:  33  Eband: -0.111879542649219  dEband: -5.272480e-06  t[s]:   1814.75
BandDavidson: Iter:  34  Eband: -0.111883964492840  dEband: -4.421844e-06  t[s]:   1818.97
BandDavidson: Iter:  35  Eband: -0.111887769824785  dEband: -3.805332e-06  t[s]:   1823.19
BandDavidson: Iter:  36  Eband: -0.111891037252483  dEband: -3.267428e-06  t[s]:   1827.33
BandDavidson: Iter:  37  Eband: -0.111893856770611  dEband: -2.819518e-06  t[s]:   1831.39
BandDavidson: Iter:  38  Eband: -0.111896265410393  dEband: -2.408640e-06  t[s]:   1835.35
BandDavidson: Iter:  39  Eband: -0.111898302574991  dEband: -2.037165e-06  t[s]:   1839.24
BandDavidson: Iter:  40  Eband: -0.111900111924717  dEband: -1.809350e-06  t[s]:   1843.12
BandDavidson: Iter:  41  Eband: -0.111901716560986  dEband: -1.604636e-06  t[s]:   1846.92
BandDavidson: Iter:  42  Eband: -0.111903101099563  dEband: -1.384539e-06  t[s]:   1850.72
BandDavidson: Iter:  43  Eband: -0.111904315420544  dEband: -1.214321e-06  t[s]:   1854.50
BandDavidson: Iter:  44  Eband: -0.111905370547180  dEband: -1.055127e-06  t[s]:   1858.23
BandDavidson: Iter:  45  Eband: -0.111906313651933  dEband: -9.431048e-07  t[s]:   1861.96
BandDavidson: Iter:  46  Eband: -0.111907173019149  dEband: -8.593672e-07  t[s]:   1865.64
BandDavidson: Iter:  47  Eband: -0.111908030821744  dEband: -8.578026e-07  t[s]:   1869.26
BandDavidson: Iter:  48  Eband: -0.111909194343599  dEband: -1.163522e-06  t[s]:   1872.85
BandDavidson: Iter:  49  Eband: -0.111910674822097  dEband: -1.480478e-06  t[s]:   1876.38
BandDavidson: Iter:  50  Eband: -0.111912152105885  dEband: -1.477284e-06  t[s]:   1879.83
BandDavidson: Iter:  51  Eband: -0.111913447940674  dEband: -1.295835e-06  t[s]:   1883.27
BandDavidson: Iter:  52  Eband: -0.111914573446318  dEband: -1.125506e-06  t[s]:   1886.53
BandDavidson: Iter:  53  Eband: -0.111915545814527  dEband: -9.723682e-07  t[s]:   1889.79
BandDavidson: Iter:  54  Eband: -0.111916398463326  dEband: -8.526488e-07  t[s]:   1892.99
BandDavidson: Iter:  55  Eband: -0.111917144304168  dEband: -7.458408e-07  t[s]:   1896.23
BandDavidson: Iter:  56  Eband: -0.111917804242912  dEband: -6.599387e-07  t[s]:   1899.36
BandDavidson: Iter:  57  Eband: -0.111918382626095  dEband: -5.783832e-07  t[s]:   1902.52
BandDavidson: Iter:  58  Eband: -0.111918883711191  dEband: -5.010851e-07  t[s]:   1905.61
BandDavidson: Iter:  59  Eband: -0.111919316437785  dEband: -4.327266e-07  t[s]:   1908.66
BandDavidson: Iter:  60  Eband: -0.111919695920049  dEband: -3.794823e-07  t[s]:   1911.68
BandDavidson: Iter:  61  Eband: -0.111920026587079  dEband: -3.306670e-07  t[s]:   1914.69
BandDavidson: Iter:  62  Eband: -0.111920321026311  dEband: -2.944392e-07  t[s]:   1917.69
BandDavidson: Iter:  63  Eband: -0.111920577535629  dEband: -2.565093e-07  t[s]:   1920.69
BandDavidson: Iter:  64  Eband: -0.111920802991929  dEband: -2.254563e-07  t[s]:   1923.69
BandDavidson: Iter:  65  Eband: -0.111920998028349  dEband: -1.950364e-07  t[s]:   1926.65
BandDavidson: Iter:  66  Eband: -0.111921163600797  dEband: -1.655724e-07  t[s]:   1929.59
BandDavidson: Iter:  67  Eband: -0.111921306492123  dEband: -1.428913e-07  t[s]:   1932.44
BandDavidson: Iter:  68  Eband: -0.111921430767509  dEband: -1.242754e-07  t[s]:   1935.28
BandDavidson: Iter:  69  Eband: -0.111921540649761  dEband: -1.098823e-07  t[s]:   1938.15
BandDavidson: Iter:  70  Eband: -0.111921637095175  dEband: -9.644541e-08  t[s]:   1940.99
BandDavidson: Iter:  71  Eband: -0.111921723550884  dEband: -8.645571e-08  t[s]:   1943.85
BandDavidson: Iter:  72  Eband: -0.111921799052173  dEband: -7.550129e-08  t[s]:   1946.69
BandDavidson: Iter:  73  Eband: -0.111921865980965  dEband: -6.692879e-08  t[s]:   1949.54
BandDavidson: Iter:  74  Eband: -0.111921924567031  dEband: -5.858607e-08  t[s]:   1952.33
BandDavidson: Iter:  75  Eband: -0.111921976172125  dEband: -5.160509e-08  t[s]:   1955.13
BandDavidson: Iter:  76  Eband: -0.111922021710294  dEband: -4.553817e-08  t[s]:   1957.90
BandDavidson: Iter:  77  Eband: -0.111922062310999  dEband: -4.060070e-08  t[s]:   1960.68
BandDavidson: Iter:  78  Eband: -0.111922098163315  dEband: -3.585232e-08  t[s]:   1963.43
BandDavidson: Iter:  79  Eband: -0.111922130072530  dEband: -3.190921e-08  t[s]:   1966.17
BandDavidson: Iter:  80  Eband: -0.111922158382917  dEband: -2.831039e-08  t[s]:   1968.87
BandDavidson: Iter:  81  Eband: -0.111922183469124  dEband: -2.508621e-08  t[s]:   1971.58
BandDavidson: Iter:  82  Eband: -0.111922205675006  dEband: -2.220588e-08  t[s]:   1974.21
BandDavidson: Iter:  83  Eband: -0.111922225398404  dEband: -1.972340e-08  t[s]:   1976.84
BandDavidson: Iter:  84  Eband: -0.111922242929499  dEband: -1.753110e-08  t[s]:   1979.43
BandDavidson: Iter:  85  Eband: -0.111922258608861  dEband: -1.567936e-08  t[s]:   1982.01
BandDavidson: Iter:  86  Eband: -0.111922272585926  dEband: -1.397706e-08  t[s]:   1984.55
BandDavidson: Iter:  87  Eband: -0.111922285167023  dEband: -1.258110e-08  t[s]:   1987.10
BandDavidson: Iter:  88  Eband: -0.111922296374114  dEband: -1.120709e-08  t[s]:   1989.63
BandDavidson: Iter:  89  Eband: -0.111922306427249  dEband: -1.005314e-08  t[s]:   1992.16
BandDavidson: Iter:  90  Eband: -0.111922315386507  dEband: -8.959258e-09  t[s]:   1994.69
BandDavidson: Converged (dEband<1.000000e-08)
Setting wave functions to eigenvectors of Hamiltonian
	FillingsUpdate:  mu: -0.086316134  nElectrons: 121.000000  magneticMoment: [ Abs: 0.18146  Tot: +0.18056 ]

Dumping 'Na-0.331.dosUp' ... done.
Dumping 'Na-0.331.dosDn' ... done.
End date and time: Thu Mar 31 22:23:05 2022  (Duration: 0-0:45:47.30)
Done!
