Second Layer Distance is 0.325

--------------------------------------------------------------------------
The library attempted to open the following supporting CUDA libraries,
but each of them failed.  CUDA-aware support is disabled.
libcuda.so.1: cannot open shared object file: No such file or directory
libcuda.dylib: cannot open shared object file: No such file or directory
/usr/lib64/libcuda.so.1: cannot open shared object file: No such file or directory
/usr/lib64/libcuda.dylib: cannot open shared object file: No such file or directory
If you are not interested in CUDA-aware support, then run with
--mca opal_warn_on_missing_libcuda 0 to suppress this message.  If you are interested
in CUDA-aware support, then try setting LD_LIBRARY_PATH to the location
of libcuda.so.1 to get passed this issue.
--------------------------------------------------------------------------
--------------------------------------------------------------------------
No OpenFabrics connection schemes reported that they were able to be
used on a specific port.  As such, the openib BTL (OpenFabrics
support) will be disabled for this port.

  Local host:           d-6-15-4
  Local device:         mlx5_1
  Local port:           1
  CPCs attempted:       rdmacm, udcm
--------------------------------------------------------------------------

*************** JDFTx 1.6.0 (git hash 42ebbcc2) ***************

Start date and time: Thu Mar 31 21:37:18 2022
Executable jdftx with command-line: -i Moire.dos.in
Running on hosts (process indices):  d-6-15-4 (0-37)
Divided in process groups (process indices):  0 (0)  1 (1)  2 (2)  3 (3)  4 (4)  5 (5)  6 (6)  7 (7)  8 (8)  9 (9)  10 (10)  11 (11)  12 (12)  13 (13)  14 (14)  15 (15)  16 (16)  17 (17)  18 (18)  19 (19)  20 (20)  21 (21)  22 (22)  23 (23)  24 (24)  25 (25)  26 (26)  27 (27)  28 (28)  29 (29)  30 (30)  31 (31)  32 (32)  33 (33)  34 (34)  35 (35)  36 (36)  37 (37)
Resource initialization completed at t[s]:      0.00
Run totals: 38 processes, 48 threads, 0 GPUs


Input parsed successfully to the following command list (including defaults):

basis kpoint-dependent
coords-type Lattice
core-overlap-check vector
coulomb-interaction Slab 001
davidson-band-ratio 1.1
dump End DOS
dump-name Na-0.325.$VAR
elec-cutoff 20
elec-eigen-algo Davidson
elec-ex-corr gga-PBE
elec-initial-magnetization 0.100000 no
elec-smearing Fermi 1e-05
electronic-minimize  \
	dirUpdateScheme      FletcherReeves \
	linminMethod         DirUpdateRecommended \
	nIterations          100 \
	history              15 \
	knormThreshold       0 \
	energyDiffThreshold  1e-08 \
	nEnergyDiff          2 \
	alphaTstart          1 \
	alphaTmin            1e-10 \
	updateTestStepSize   yes \
	alphaTreduceFactor   0.1 \
	alphaTincreaseFactor 3 \
	nAlphaAdjustMax      3 \
	wolfeEnergy          0.0001 \
	wolfeGradient        0.9 \
	fdTest               no
exchange-regularization WignerSeitzTruncated
fix-electron-density ../Na-0.325.$VAR
fluid None
fluid-ex-corr (null) lda-PZ
fluid-gummel-loop 10 1.000000e-05
fluid-minimize  \
	dirUpdateScheme      PolakRibiere \
	linminMethod         DirUpdateRecommended \
	nIterations          100 \
	history              15 \
	knormThreshold       0 \
	energyDiffThreshold  0 \
	nEnergyDiff          2 \
	alphaTstart          1 \
	alphaTmin            1e-10 \
	updateTestStepSize   yes \
	alphaTreduceFactor   0.1 \
	alphaTincreaseFactor 3 \
	nAlphaAdjustMax      3 \
	wolfeEnergy          0.0001 \
	wolfeGradient        0.9 \
	fdTest               no
fluid-solvent H2O 55.338 ScalarEOS \
	epsBulk 78.4 \
	pMol 0.92466 \
	epsInf 1.77 \
	Pvap 1.06736e-10 \
	sigmaBulk 4.62e-05 \
	Rvdw 2.61727 \
	Res 1.42 \
	tauNuc 343133 \
	poleEl 15 7 1
forces-output-coords Positions
ion N   0.952380952380952   0.761904761904762   0.000000000000000 0
ion N   1.428571428571428   1.285714285714286   0.325000000000000 0
ion N   0.380952380952381   0.904761904761905   0.000000000000000 0
ion N   0.714285714285714   1.142857142857143   0.325000000000000 0
ion N   0.523809523809524   0.619047619047619   0.000000000000000 0
ion N   1.000000000000000   1.000000000000000   0.325000000000000 0
ion N   0.666666666666667   0.333333333333333   0.000000000000000 0
ion N   1.285714285714286   0.857142857142857   0.325000000000000 0
ion N   0.809523809523810   0.047619047619048   0.000000000000000 0
ion N   1.571428571428571   0.714285714285714   0.325000000000000 0
ion N   0.095238095238095   0.476190476190476   0.000000000000000 0
ion N   0.238095238095238   0.190476190476190   0.000000000000000 0
ion N   0.857142857142857   0.571428571428571   0.325000000000000 0
ion N   1.142857142857143   0.428571428571429   0.325000000000000 0
ion B   0.571428571428572   0.857142857142857   0.000000000000000 0
ion B   0.952380952380952   1.190476190476190   0.325000000000000 0
ion B   0.714285714285714   0.571428571428571   0.000000000000000 0
ion B   1.238095238095238   1.047619047619047   0.325000000000000 0
ion B   0.857142857142857   0.285714285714286   0.000000000000000 0
ion B   1.523809523809524   0.904761904761905   0.325000000000000 0
ion B   0.142857142857143   0.714285714285714   0.000000000000000 0
ion B   0.285714285714286   0.428571428571429   0.000000000000000 0
ion B   0.809523809523810   0.761904761904762   0.325000000000000 0
ion B   0.428571428571429   0.142857142857143   0.000000000000000 0
ion B   1.095238095238095   0.619047619047619   0.325000000000000 0
ion B   1.380952380952381   0.476190476190476   0.325000000000000 0
ion B   0.000000000000000   0.000000000000000   0.000000000000000 0
ion B   0.666666666666667   0.333333333333333   0.325000000000000 0
ion Na   0.333333333300000   0.666666666600000   0.162500000000000 0
ion-species SG15/$ID_ONCV_PBE.upf
ion-width 0
ionic-minimize  \
	dirUpdateScheme      L-BFGS \
	linminMethod         DirUpdateRecommended \
	nIterations          0 \
	history              15 \
	knormThreshold       0.0001 \
	energyDiffThreshold  1e-06 \
	nEnergyDiff          2 \
	alphaTstart          1 \
	alphaTmin            1e-10 \
	updateTestStepSize   yes \
	alphaTreduceFactor   0.1 \
	alphaTincreaseFactor 3 \
	nAlphaAdjustMax      3 \
	wolfeEnergy          0.0001 \
	wolfeGradient        0.9 \
	fdTest               no
kpoint   0.000000000000   0.000000000000   0.000000000000  1.00000000000000
kpoint-folding 36 36 1 
latt-move-scale 1 1 1
latt-scale 1 1 1 
lattice  \
	 -11.818700000000000    2.363740000000000    0.000000000000000  \
	   4.094120000000000  -12.282400000000001    0.000000000000000  \
	   0.000000000000000    0.000000000000000   40.000000000000000 
lattice-minimize  \
	dirUpdateScheme      L-BFGS \
	linminMethod         DirUpdateRecommended \
	nIterations          0 \
	history              15 \
	knormThreshold       0 \
	energyDiffThreshold  1e-06 \
	nEnergyDiff          2 \
	alphaTstart          1 \
	alphaTmin            1e-10 \
	updateTestStepSize   yes \
	alphaTreduceFactor   0.1 \
	alphaTincreaseFactor 3 \
	nAlphaAdjustMax      3 \
	wolfeEnergy          0.0001 \
	wolfeGradient        0.9 \
	fdTest               no
lcao-params -1 1e-06 1e-05
pcm-variant GLSSA13
spintype z-spin
subspace-rotation-factor 1 yes
symmetries automatic
symmetry-threshold 0.0001
van-der-waals D3



---------- Setting up symmetries ----------

Found 24 point-group symmetries of the bravais lattice
Found 6 space-group symmetries with basis
Applied RMS atom displacement 1.31765e-10 bohrs to make symmetries exact.

---------- Initializing the Grid ----------
R = 
[     -11.8187      2.36374            0  ]
[      4.09412     -12.2824            0  ]
[            0            0           40  ]
unit cell volume = 5419.38
G =
[  -0.569604   -0.10962          0  ]
[  -0.189867    -0.5481          0  ]
[          0          0    0.15708  ]
Minimum fftbox size, Smin = [  52  52  164  ]
Chosen fftbox size, S = [  54  54  168  ]

---------- Exchange Correlation functional ----------
Initalized PBE GGA exchange.
Initalized PBE GGA correlation.

---------- Setting up pseudopotentials ----------
Width of ionic core gaussian charges (only for fluid interactions / plotting) set to 0

Reading pseudopotential file '/home/gridsan/aligho/DFT/build-Nov24/pseudopotentials/SG15/N_ONCV_PBE.upf':
  'N' pseudopotential, 'PBE' functional
  Generated using ONCVPSP code by D. R. Hamann
  Author: Martin Schlipf and Francois Gygi  Date: 150915.
  5 valence electrons, 2 orbitals, 4 projectors, 1058 radial grid points, with lMax = 1
  Transforming local potential to a uniform radial grid of dG=0.02 with 1514 points.
  Transforming nonlocal projectors to a uniform radial grid of dG=0.02 with 432 points.
    2S    l: 0   occupation:  2.0   eigenvalue: -0.682907
    2P    l: 1   occupation:  3.0   eigenvalue: -0.260548
  Transforming atomic orbitals to a uniform radial grid of dG=0.02 with 432 points.
  Core radius for overlap checks: 1.35 bohrs.
  Reading pulay file /home/gridsan/aligho/DFT/build-Nov24/pseudopotentials/SG15/N_ONCV_PBE.pulay ... using dE_dnG = -2.956256e-02 computed for Ecut = 20.

Reading pseudopotential file '/home/gridsan/aligho/DFT/build-Nov24/pseudopotentials/SG15/B_ONCV_PBE.upf':
  'B' pseudopotential, 'PBE' functional
  Generated using ONCVPSP code by D. R. Hamann
  Author: Martin Schlipf and Francois Gygi  Date: 150915.
  3 valence electrons, 2 orbitals, 4 projectors, 1534 radial grid points, with lMax = 1
  Transforming local potential to a uniform radial grid of dG=0.02 with 1514 points.
  Transforming nonlocal projectors to a uniform radial grid of dG=0.02 with 432 points.
    2S    l: 0   occupation:  2.0   eigenvalue: -0.347027
    2P    l: 1   occupation:  1.0   eigenvalue: -0.132548
  Transforming atomic orbitals to a uniform radial grid of dG=0.02 with 432 points.
  Core radius for overlap checks: 1.60 bohrs.
  Reading pulay file /home/gridsan/aligho/DFT/build-Nov24/pseudopotentials/SG15/B_ONCV_PBE.pulay ... using dE_dnG = -3.748568e-04 computed for Ecut = 20.

Reading pseudopotential file '/home/gridsan/aligho/DFT/build-Nov24/pseudopotentials/SG15/Na_ONCV_PBE.upf':
  'Na' pseudopotential, 'PBE' functional
  Generated using ONCVPSP code by D. R. Hamann
  Author: Martin Schlipf and Francois Gygi  Date: 150915.
  9 valence electrons, 3 orbitals, 4 projectors, 1992 radial grid points, with lMax = 1
  Transforming local potential to a uniform radial grid of dG=0.02 with 1514 points.
  Transforming nonlocal projectors to a uniform radial grid of dG=0.02 with 432 points.
    2S    l: 0   occupation:  2.0   eigenvalue: -2.085640
    2P    l: 1   occupation:  6.0   eigenvalue: -1.053708
    3S    l: 0   occupation:  1.0   eigenvalue: -0.100838
  Transforming atomic orbitals to a uniform radial grid of dG=0.02 with 432 points.
  Core radius for overlap checks: 2.01 bohrs.
  Reading pulay file /home/gridsan/aligho/DFT/build-Nov24/pseudopotentials/SG15/Na_ONCV_PBE.pulay ... using dE_dnG = -2.946487e-03 computed for Ecut = 20.

Initialized 3 species with 29 total atoms.

Folded 1 k-points by 36x36x1 to 1296 k-points.

---------- Setting up k-points, bands, fillings ----------
Adding inversion symmetry to k-mesh for non-inversion-symmetric unit cell.
Reduced to 127 k-points under symmetry. 
Computing the number of bands and number of electrons
Calculating initial fillings.
nElectrons: 121.000000   nBands: 117   nStates: 254

----- Setting up reduced wavefunction bases (one per k-point) -----
average nbasis = 23152.266 , ideal nbasis = 23152.016

----- Initializing Supercell corresponding to k-point mesh -----
Lattice vector linear combinations in supercell:
[  36   0   0  ]
[   0  36   0  ]
[   0   0   1  ]
Supercell lattice vectors:
[  -425.473  85.0946  0  ]
[  147.388  -442.166  0  ]
[  0  0  40  ]

---------- Setting up coulomb interaction ----------
Initialized slab truncation along lattice direction 001

Initializing DFT-D3 calculator:
	Parameters set for gga-PBE functional
	s6:  1.000  s_r6:  1.217
	s8:  0.722  s_r8:  1.000
	Per-atom parameters loaded for:
	 N:  sqrtQ[a0]:  2.712  Rcov[a0]:  1.342  CN: [ 0.00 0.99 2.01 2.99 ]
	 B:  sqrtQ[a0]:  3.644  Rcov[a0]:  1.455  CN: [ 0.00 0.97 1.94 2.91 4.59 ]
	Na:  sqrtQ[a0]:  6.586  Rcov[a0]:  2.646  CN: [ 0.00 0.97 ]

---------- Setting up 2D ewald sum ----------
Optimum gaussian width for ewald sums = 6.943804 bohr.
Real space sums over 289 unit cells with max indices [  8  8  0  ]
Reciprocal space sums over 81 terms with max indices [  4  4  0  ]

Computing DFT-D3 correction:
# coordination-number N 3.140 3.140 3.156 3.140 3.156 3.138 3.138 3.156 3.140 3.156 3.156 3.140 3.140 3.156
# coordination-number B 3.367 3.344 3.344 3.344 3.344 3.367 3.367 3.367 3.344 3.344 3.367 3.367 3.343 3.343
# coordination-number Na 0.348
# diagonal-C6 N 15.61 15.61 15.60 15.61 15.60 15.61 15.61 15.60 15.61 15.60 15.60 15.61 15.61 15.60
# diagonal-C6 B 31.44 31.44 31.44 31.44 31.44 31.44 31.44 31.44 31.44 31.44 31.44 31.44 31.44 31.44
# diagonal-C6 Na 1090.14
EvdW_6 =   -0.031345
EvdW_8 =   -0.029416

---------- Allocating electronic variables ----------
Reading n_up from file '../Na-0.325.n_up' ... done
Reading n_dn from file '../Na-0.325.n_dn' ... done
Initializing wave functions:  linear combination of atomic orbitals
[d-6-15-4:93252] 37 more processes have sent help message help-mpi-common-cuda.txt / dlopen failed
[d-6-15-4:93252] Set MCA parameter "orte_base_help_aggregate" to 0 to see all help / error messages
[d-6-15-4:93252] 37 more processes have sent help message help-mpi-btl-openib-cpc-base.txt / no cpcs for port


---- Citations for features of the code used in this run ----

   Software package:
      R. Sundararaman, K. Letchworth-Weaver, K.A. Schwarz, D. Gunceler, Y. Ozhabes and T.A. Arias, 'JDFTx: software for joint density-functional theory', SoftwareX 6, 278 (2017)

   gga-PBE exchange-correlation functional:
      J.P. Perdew, K. Burke and M. Ernzerhof, Phys. Rev. Lett. 77, 3865 (1996)

   Pseudopotentials:
      M Schlipf and F Gygi, Comput. Phys. Commun. 196, 36 (2015)

   Truncated Coulomb potentials:
      R. Sundararaman and T.A. Arias, Phys. Rev. B 87, 165122 (2013)

   DFT-D3 dispersion correction:
      S. Grimme, J. Antony, S. Ehrlich and H. Krieg, J. Chem. Phys. 132, 154104 (2010)

   Total energy minimization with Auxiliary Hamiltonian:
      C. Freysoldt, S. Boeck, and J. Neugebauer, Phys. Rev. B 79, 241103(R) (2009)

   Linear-tetrahedron sampling for density of states:
      G. Lehmann and M. Taut, Phys. status solidi (b) 54, 469 (1972)

This list may not be complete. Please suggest additional citations or
report any other bugs at https://github.com/shankar1729/jdftx/issues

Initialization completed successfully at t[s]:     51.79


----------- Band structure minimization -------------
Minimization will be done independently for each quantum number.

---- Minimization of quantum number:     0  [ +0.0000000 +0.0000000 +0.0000000 ]  0.000771605  spin +1 ----
BandDavidson: Iter:   0  Eband: -0.009349549140263
BandDavidson: Iter:   1  Eband: -0.014860451378829  dEband: -5.510902e-03  t[s]:     62.91
BandDavidson: Iter:   2  Eband: -0.016708206995751  dEband: -1.847756e-03  t[s]:     69.49
BandDavidson: Iter:   3  Eband: -0.017600867026552  dEband: -8.926600e-04  t[s]:     76.06
BandDavidson: Iter:   4  Eband: -0.018155301703091  dEband: -5.544347e-04  t[s]:     82.58
BandDavidson: Iter:   5  Eband: -0.018357489256282  dEband: -2.021876e-04  t[s]:     89.08
BandDavidson: Iter:   6  Eband: -0.018458876070601  dEband: -1.013868e-04  t[s]:     95.58
BandDavidson: Iter:   7  Eband: -0.018506087554486  dEband: -4.721148e-05  t[s]:    102.06
BandDavidson: Iter:   8  Eband: -0.018533685922536  dEband: -2.759837e-05  t[s]:    108.52
BandDavidson: Iter:   9  Eband: -0.018551351708978  dEband: -1.766579e-05  t[s]:    115.02
BandDavidson: Iter:  10  Eband: -0.018570988168981  dEband: -1.963646e-05  t[s]:    121.50
BandDavidson: Iter:  11  Eband: -0.018589050019068  dEband: -1.806185e-05  t[s]:    127.98
BandDavidson: Iter:  12  Eband: -0.018599401205949  dEband: -1.035119e-05  t[s]:    134.47
BandDavidson: Iter:  13  Eband: -0.018605936518335  dEband: -6.535312e-06  t[s]:    140.84
BandDavidson: Iter:  14  Eband: -0.018610975346187  dEband: -5.038828e-06  t[s]:    147.23
BandDavidson: Iter:  15  Eband: -0.018615117380944  dEband: -4.142035e-06  t[s]:    153.61
BandDavidson: Iter:  16  Eband: -0.018619827281015  dEband: -4.709900e-06  t[s]:    160.00
BandDavidson: Iter:  17  Eband: -0.018624217309316  dEband: -4.390028e-06  t[s]:    166.39
BandDavidson: Iter:  18  Eband: -0.018627793808461  dEband: -3.576499e-06  t[s]:    172.77
BandDavidson: Iter:  19  Eband: -0.018631838763359  dEband: -4.044955e-06  t[s]:    179.15
BandDavidson: Iter:  20  Eband: -0.018635792642452  dEband: -3.953879e-06  t[s]:    185.52
BandDavidson: Iter:  21  Eband: -0.018638680867918  dEband: -2.888225e-06  t[s]:    191.73
BandDavidson: Iter:  22  Eband: -0.018641173736723  dEband: -2.492869e-06  t[s]:    197.95
BandDavidson: Iter:  23  Eband: -0.018643253994559  dEband: -2.080258e-06  t[s]:    204.16
BandDavidson: Iter:  24  Eband: -0.018645422193332  dEband: -2.168199e-06  t[s]:    210.38
BandDavidson: Iter:  25  Eband: -0.018647931522388  dEband: -2.509329e-06  t[s]:    216.59
BandDavidson: Iter:  26  Eband: -0.018650124871907  dEband: -2.193350e-06  t[s]:    222.75
BandDavidson: Iter:  27  Eband: -0.018651856795225  dEband: -1.731923e-06  t[s]:    228.82
BandDavidson: Iter:  28  Eband: -0.018653175090920  dEband: -1.318296e-06  t[s]:    234.77
BandDavidson: Iter:  29  Eband: -0.018654190620056  dEband: -1.015529e-06  t[s]:    240.39
BandDavidson: Iter:  30  Eband: -0.018655035168829  dEband: -8.445488e-07  t[s]:    246.02
BandDavidson: Iter:  31  Eband: -0.018655780697605  dEband: -7.455288e-07  t[s]:    251.18
BandDavidson: Iter:  32  Eband: -0.018656523815356  dEband: -7.431178e-07  t[s]:    256.10
BandDavidson: Iter:  33  Eband: -0.018657621976830  dEband: -1.098161e-06  t[s]:    260.67
BandDavidson: Iter:  34  Eband: -0.018659433809886  dEband: -1.811833e-06  t[s]:    265.29
BandDavidson: Iter:  35  Eband: -0.018662033155123  dEband: -2.599345e-06  t[s]:    269.88
BandDavidson: Iter:  36  Eband: -0.018664359887777  dEband: -2.326733e-06  t[s]:    274.38
BandDavidson: Iter:  37  Eband: -0.018666085988759  dEband: -1.726101e-06  t[s]:    278.82
BandDavidson: Iter:  38  Eband: -0.018667343193341  dEband: -1.257205e-06  t[s]:    283.01
BandDavidson: Iter:  39  Eband: -0.018668244840945  dEband: -9.016476e-07  t[s]:    287.15
BandDavidson: Iter:  40  Eband: -0.018668959698056  dEband: -7.148571e-07  t[s]:    291.29
BandDavidson: Iter:  41  Eband: -0.018669526190408  dEband: -5.664924e-07  t[s]:    295.43
BandDavidson: Iter:  42  Eband: -0.018669979830975  dEband: -4.536406e-07  t[s]:    299.58
BandDavidson: Iter:  43  Eband: -0.018670348972343  dEband: -3.691414e-07  t[s]:    303.75
BandDavidson: Iter:  44  Eband: -0.018670651050757  dEband: -3.020784e-07  t[s]:    307.90
BandDavidson: Iter:  45  Eband: -0.018670899238822  dEband: -2.481881e-07  t[s]:    311.99
BandDavidson: Iter:  46  Eband: -0.018671102440188  dEband: -2.032014e-07  t[s]:    316.05
BandDavidson: Iter:  47  Eband: -0.018671269556816  dEband: -1.671166e-07  t[s]:    320.03
BandDavidson: Iter:  48  Eband: -0.018671406894617  dEband: -1.373378e-07  t[s]:    323.97
BandDavidson: Iter:  49  Eband: -0.018671520418093  dEband: -1.135235e-07  t[s]:    327.87
BandDavidson: Iter:  50  Eband: -0.018671613887588  dEband: -9.346950e-08  t[s]:    331.73
BandDavidson: Iter:  51  Eband: -0.018671691048080  dEband: -7.716049e-08  t[s]:    335.50
BandDavidson: Iter:  52  Eband: -0.018671754618965  dEband: -6.357088e-08  t[s]:    339.08
BandDavidson: Iter:  53  Eband: -0.018671807162704  dEband: -5.254374e-08  t[s]:    342.67
BandDavidson: Iter:  54  Eband: -0.018671850613326  dEband: -4.345062e-08  t[s]:    346.25
BandDavidson: Iter:  55  Eband: -0.018671886593374  dEband: -3.598005e-08  t[s]:    349.79
BandDavidson: Iter:  56  Eband: -0.018671916444123  dEband: -2.985075e-08  t[s]:    353.31
BandDavidson: Iter:  57  Eband: -0.018671941237616  dEband: -2.479349e-08  t[s]:    356.77
BandDavidson: Iter:  58  Eband: -0.018671961847027  dEband: -2.060941e-08  t[s]:    360.23
BandDavidson: Iter:  59  Eband: -0.018671979018539  dEband: -1.717151e-08  t[s]:    363.70
BandDavidson: Iter:  60  Eband: -0.018671993320028  dEband: -1.430149e-08  t[s]:    367.18
BandDavidson: Iter:  61  Eband: -0.018672005251830  dEband: -1.193180e-08  t[s]:    370.66
BandDavidson: Iter:  62  Eband: -0.018672015189906  dEband: -9.938075e-09  t[s]:    374.13
BandDavidson: Converged (dEband<1.000000e-08)

---- Minimization of quantum number:     1  [ +0.0000000 +0.0277778 +0.0000000 ]  0.004629630  spin +1 ----
BandDavidson: Iter:   0  Eband: -0.056077936189966
BandDavidson: Iter:   1  Eband: -0.089175454853539  dEband: -3.309752e-02  t[s]:    384.60
BandDavidson: Iter:   2  Eband: -0.100310217599182  dEband: -1.113476e-02  t[s]:    391.03
BandDavidson: Iter:   3  Eband: -0.105459962842224  dEband: -5.149745e-03  t[s]:    397.46
BandDavidson: Iter:   4  Eband: -0.108969538445503  dEband: -3.509576e-03  t[s]:    403.92
BandDavidson: Iter:   5  Eband: -0.110334047473622  dEband: -1.364509e-03  t[s]:    410.34
BandDavidson: Iter:   6  Eband: -0.110813172133663  dEband: -4.791247e-04  t[s]:    416.77
BandDavidson: Iter:   7  Eband: -0.111079750177841  dEband: -2.665780e-04  t[s]:    423.25
BandDavidson: Iter:   8  Eband: -0.111220559820992  dEband: -1.408096e-04  t[s]:    429.68
BandDavidson: Iter:   9  Eband: -0.111308459889697  dEband: -8.790007e-05  t[s]:    436.11
BandDavidson: Iter:  10  Eband: -0.111401479193276  dEband: -9.301930e-05  t[s]:    442.60
BandDavidson: Iter:  11  Eband: -0.111519569594548  dEband: -1.180904e-04  t[s]:    449.06
BandDavidson: Iter:  12  Eband: -0.111586100501767  dEband: -6.653091e-05  t[s]:    455.50
BandDavidson: Iter:  13  Eband: -0.111629292965682  dEband: -4.319246e-05  t[s]:    461.84
BandDavidson: Iter:  14  Eband: -0.111662003908840  dEband: -3.271094e-05  t[s]:    468.15
BandDavidson: Iter:  15  Eband: -0.111708108941707  dEband: -4.610503e-05  t[s]:    474.48
BandDavidson: Iter:  16  Eband: -0.111758342941976  dEband: -5.023400e-05  t[s]:    480.81
BandDavidson: Iter:  17  Eband: -0.111794211796692  dEband: -3.586885e-05  t[s]:    487.16
BandDavidson: Iter:  18  Eband: -0.111823892348423  dEband: -2.968055e-05  t[s]:    493.50
BandDavidson: Iter:  19  Eband: -0.111849721105669  dEband: -2.582876e-05  t[s]:    499.88
BandDavidson: Iter:  20  Eband: -0.111872250967794  dEband: -2.252986e-05  t[s]:    506.30
BandDavidson: Iter:  21  Eband: -0.111893941479561  dEband: -2.169051e-05  t[s]:    512.54
BandDavidson: Iter:  22  Eband: -0.111917809825241  dEband: -2.386835e-05  t[s]:    518.73
BandDavidson: Iter:  23  Eband: -0.111938684139857  dEband: -2.087431e-05  t[s]:    524.96
BandDavidson: Iter:  24  Eband: -0.111956583698158  dEband: -1.789956e-05  t[s]:    531.15
BandDavidson: Iter:  25  Eband: -0.111971563363537  dEband: -1.497967e-05  t[s]:    537.31
BandDavidson: Iter:  26  Eband: -0.111983933646319  dEband: -1.237028e-05  t[s]:    543.44
BandDavidson: Iter:  27  Eband: -0.111993964089621  dEband: -1.003044e-05  t[s]:    549.50
BandDavidson: Iter:  28  Eband: -0.112002635168233  dEband: -8.671079e-06  t[s]:    555.32
BandDavidson: Iter:  29  Eband: -0.112011633590378  dEband: -8.998422e-06  t[s]:    560.84
BandDavidson: Iter:  30  Eband: -0.112020900002487  dEband: -9.266412e-06  t[s]:    566.30
BandDavidson: Iter:  31  Eband: -0.112029523183208  dEband: -8.623181e-06  t[s]:    571.60
BandDavidson: Iter:  32  Eband: -0.112036901556147  dEband: -7.378373e-06  t[s]:    576.55
BandDavidson: Iter:  33  Eband: -0.112042915798629  dEband: -6.014242e-06  t[s]:    581.19
BandDavidson: Iter:  34  Eband: -0.112047794740076  dEband: -4.878941e-06  t[s]:    585.84
BandDavidson: Iter:  35  Eband: -0.112051961617667  dEband: -4.166878e-06  t[s]:    590.49
BandDavidson: Iter:  36  Eband: -0.112055987555732  dEband: -4.025938e-06  t[s]:    595.14
BandDavidson: Iter:  37  Eband: -0.112059803778987  dEband: -3.816223e-06  t[s]:    599.61
BandDavidson: Iter:  38  Eband: -0.112063018505279  dEband: -3.214726e-06  t[s]:    603.87
BandDavidson: Iter:  39  Eband: -0.112065679410760  dEband: -2.660905e-06  t[s]:    608.08
BandDavidson: Iter:  40  Eband: -0.112067871109961  dEband: -2.191699e-06  t[s]:    612.27
BandDavidson: Iter:  41  Eband: -0.112069679038992  dEband: -1.807929e-06  t[s]:    616.45
BandDavidson: Iter:  42  Eband: -0.112071190756601  dEband: -1.511718e-06  t[s]:    620.63
BandDavidson: Iter:  43  Eband: -0.112072443793303  dEband: -1.253037e-06  t[s]:    624.73
BandDavidson: Iter:  44  Eband: -0.112073476078590  dEband: -1.032285e-06  t[s]:    628.84
BandDavidson: Iter:  45  Eband: -0.112074332126165  dEband: -8.560476e-07  t[s]:    632.94
BandDavidson: Iter:  46  Eband: -0.112075050818514  dEband: -7.186923e-07  t[s]:    637.05
BandDavidson: Iter:  47  Eband: -0.112075651102009  dEband: -6.002835e-07  t[s]:    641.13
BandDavidson: Iter:  48  Eband: -0.112076154832956  dEband: -5.037309e-07  t[s]:    645.20
BandDavidson: Iter:  49  Eband: -0.112076576753999  dEband: -4.219210e-07  t[s]:    649.23
BandDavidson: Iter:  50  Eband: -0.112076930129965  dEband: -3.533760e-07  t[s]:    653.24
BandDavidson: Iter:  51  Eband: -0.112077226046446  dEband: -2.959165e-07  t[s]:    657.13
BandDavidson: Iter:  52  Eband: -0.112077472400109  dEband: -2.463537e-07  t[s]:    660.91
BandDavidson: Iter:  53  Eband: -0.112077677187158  dEband: -2.047870e-07  t[s]:    664.53
BandDavidson: Iter:  54  Eband: -0.112077847521507  dEband: -1.703343e-07  t[s]:    668.06
BandDavidson: Iter:  55  Eband: -0.112077990068350  dEband: -1.425468e-07  t[s]:    671.52
BandDavidson: Iter:  56  Eband: -0.112078109482830  dEband: -1.194145e-07  t[s]:    674.98
BandDavidson: Iter:  57  Eband: -0.112078209786164  dEband: -1.003033e-07  t[s]:    678.47
BandDavidson: Iter:  58  Eband: -0.112078293678911  dEband: -8.389275e-08  t[s]:    681.96
BandDavidson: Iter:  59  Eband: -0.112078364017737  dEband: -7.033883e-08  t[s]:    685.40
BandDavidson: Iter:  60  Eband: -0.112078422615704  dEband: -5.859797e-08  t[s]:    688.79
BandDavidson: Iter:  61  Eband: -0.112078471646552  dEband: -4.903085e-08  t[s]:    692.14
BandDavidson: Iter:  62  Eband: -0.112078512451287  dEband: -4.080473e-08  t[s]:    695.49
BandDavidson: Iter:  63  Eband: -0.112078546466142  dEband: -3.401486e-08  t[s]:    698.79
BandDavidson: Iter:  64  Eband: -0.112078574716807  dEband: -2.825067e-08  t[s]:    702.09
BandDavidson: Iter:  65  Eband: -0.112078598270200  dEband: -2.355339e-08  t[s]:    705.36
BandDavidson: Iter:  66  Eband: -0.112078617901967  dEband: -1.963177e-08  t[s]:    708.64
BandDavidson: Iter:  67  Eband: -0.112078634314975  dEband: -1.641301e-08  t[s]:    711.86
BandDavidson: Iter:  68  Eband: -0.112078648071061  dEband: -1.375609e-08  t[s]:    715.10
BandDavidson: Iter:  69  Eband: -0.112078659601683  dEband: -1.153062e-08  t[s]:    718.22
BandDavidson: Iter:  70  Eband: -0.112078669310461  dEband: -9.708777e-09  t[s]:    721.35
BandDavidson: Converged (dEband<1.000000e-08)

---- Minimization of quantum number:     2  [ +0.0000000 +0.0555556 +0.0000000 ]  0.004629630  spin +1 ----
BandDavidson: Iter:   0  Eband: -0.056072055614498
BandDavidson: Iter:   1  Eband: -0.089366474170025  dEband: -3.329442e-02  t[s]:    731.83
BandDavidson: Iter:   2  Eband: -0.100465498440201  dEband: -1.109902e-02  t[s]:    738.26
BandDavidson: Iter:   3  Eband: -0.105217758118906  dEband: -4.752260e-03  t[s]:    744.69
BandDavidson: Iter:   4  Eband: -0.108641891943499  dEband: -3.424134e-03  t[s]:    751.12
BandDavidson: Iter:   5  Eband: -0.110112457093181  dEband: -1.470565e-03  t[s]:    757.55
BandDavidson: Iter:   6  Eband: -0.110915671449670  dEband: -8.032144e-04  t[s]:    763.98
BandDavidson: Iter:   7  Eband: -0.111131037160820  dEband: -2.153657e-04  t[s]:    770.40
BandDavidson: Iter:   8  Eband: -0.111308262116977  dEband: -1.772250e-04  t[s]:    776.81
BandDavidson: Iter:   9  Eband: -0.111489688958079  dEband: -1.814268e-04  t[s]:    783.23
BandDavidson: Iter:  10  Eband: -0.111580017752946  dEband: -9.032879e-05  t[s]:    789.63
BandDavidson: Iter:  11  Eband: -0.111636934421577  dEband: -5.691667e-05  t[s]:    796.05
BandDavidson: Iter:  12  Eband: -0.111683830405435  dEband: -4.689598e-05  t[s]:    802.48
BandDavidson: Iter:  13  Eband: -0.111737088154703  dEband: -5.325775e-05  t[s]:    808.84
BandDavidson: Iter:  14  Eband: -0.111777637333885  dEband: -4.054918e-05  t[s]:    815.17
BandDavidson: Iter:  15  Eband: -0.111815462175282  dEband: -3.782484e-05  t[s]:    821.51
BandDavidson: Iter:  16  Eband: -0.111856448527214  dEband: -4.098635e-05  t[s]:    827.84
BandDavidson: Iter:  17  Eband: -0.111903206594563  dEband: -4.675807e-05  t[s]:    834.15
BandDavidson: Iter:  18  Eband: -0.111942009813767  dEband: -3.880322e-05  t[s]:    840.48
BandDavidson: Iter:  19  Eband: -0.111974441146599  dEband: -3.243133e-05  t[s]:    846.83
BandDavidson: Iter:  20  Eband: -0.112002182278094  dEband: -2.774113e-05  t[s]:    853.17
BandDavidson: Iter:  21  Eband: -0.112025329005013  dEband: -2.314673e-05  t[s]:    859.39
BandDavidson: Iter:  22  Eband: -0.112044988229226  dEband: -1.965922e-05  t[s]:    865.56
BandDavidson: Iter:  23  Eband: -0.112061241610598  dEband: -1.625338e-05  t[s]:    871.74
BandDavidson: Iter:  24  Eband: -0.112074954854392  dEband: -1.371324e-05  t[s]:    877.92
BandDavidson: Iter:  25  Eband: -0.112086498355513  dEband: -1.154350e-05  t[s]:    884.07
BandDavidson: Iter:  26  Eband: -0.112096451258271  dEband: -9.952903e-06  t[s]:    890.22
BandDavidson: Iter:  27  Eband: -0.112105634952234  dEband: -9.183694e-06  t[s]:    896.23
BandDavidson: Iter:  28  Eband: -0.112115386167879  dEband: -9.751216e-06  t[s]:    902.10
BandDavidson: Iter:  29  Eband: -0.112124746862886  dEband: -9.360695e-06  t[s]:    907.62
BandDavidson: Iter:  30  Eband: -0.112132916554668  dEband: -8.169692e-06  t[s]:    913.01
BandDavidson: Iter:  31  Eband: -0.112139792822829  dEband: -6.876268e-06  t[s]:    918.31
BandDavidson: Iter:  32  Eband: -0.112145637684291  dEband: -5.844861e-06  t[s]:    923.25
BandDavidson: Iter:  33  Eband: -0.112150571669558  dEband: -4.933985e-06  t[s]:    927.95
BandDavidson: Iter:  34  Eband: -0.112154723248621  dEband: -4.151579e-06  t[s]:    932.60
BandDavidson: Iter:  35  Eband: -0.112158198525961  dEband: -3.475277e-06  t[s]:    937.25
BandDavidson: Iter:  36  Eband: -0.112161102388039  dEband: -2.903862e-06  t[s]:    941.86
BandDavidson: Iter:  37  Eband: -0.112163521950313  dEband: -2.419562e-06  t[s]:    946.33
BandDavidson: Iter:  38  Eband: -0.112165530161353  dEband: -2.008211e-06  t[s]:    950.52
BandDavidson: Iter:  39  Eband: -0.112167203636954  dEband: -1.673476e-06  t[s]:    954.69
BandDavidson: Iter:  40  Eband: -0.112168621469360  dEband: -1.417832e-06  t[s]:    958.85
BandDavidson: Iter:  41  Eband: -0.112169831176774  dEband: -1.209707e-06  t[s]:    963.05
BandDavidson: Iter:  42  Eband: -0.112170864828377  dEband: -1.033652e-06  t[s]:    967.21
BandDavidson: Iter:  43  Eband: -0.112171748321198  dEband: -8.834928e-07  t[s]:    971.37
BandDavidson: Iter:  44  Eband: -0.112172503527104  dEband: -7.552059e-07  t[s]:    975.58
BandDavidson: Iter:  45  Eband: -0.112173145330960  dEband: -6.418039e-07  t[s]:    979.68
BandDavidson: Iter:  46  Eband: -0.112173688904976  dEband: -5.435740e-07  t[s]:    983.79
BandDavidson: Iter:  47  Eband: -0.112174149581657  dEband: -4.606767e-07  t[s]:    987.79
BandDavidson: Iter:  48  Eband: -0.112174537944558  dEband: -3.883629e-07  t[s]:    991.77
BandDavidson: Iter:  49  Eband: -0.112174868108046  dEband: -3.301635e-07  t[s]:    995.72
BandDavidson: Iter:  50  Eband: -0.112175147050443  dEband: -2.789424e-07  t[s]:    999.57
BandDavidson: Iter:  51  Eband: -0.112175384195929  dEband: -2.371455e-07  t[s]:   1003.37
BandDavidson: Iter:  52  Eband: -0.112175585259858  dEband: -2.010639e-07  t[s]:   1007.08
BandDavidson: Iter:  53  Eband: -0.112175756277674  dEband: -1.710178e-07  t[s]:   1010.68
BandDavidson: Iter:  54  Eband: -0.112175900621547  dEband: -1.443439e-07  t[s]:   1014.25
BandDavidson: Iter:  55  Eband: -0.112176023539805  dEband: -1.229183e-07  t[s]:   1017.75
BandDavidson: Iter:  56  Eband: -0.112176127656246  dEband: -1.041164e-07  t[s]:   1021.28
BandDavidson: Iter:  57  Eband: -0.112176216781867  dEband: -8.912562e-08  t[s]:   1024.75
BandDavidson: Iter:  58  Eband: -0.112176292330761  dEband: -7.554889e-08  t[s]:   1028.22
BandDavidson: Iter:  59  Eband: -0.112176357040397  dEband: -6.470964e-08  t[s]:   1031.71
BandDavidson: Iter:  60  Eband: -0.112176411959757  dEband: -5.491936e-08  t[s]:   1035.17
BandDavidson: Iter:  61  Eband: -0.112176458798639  dEband: -4.683888e-08  t[s]:   1038.53
BandDavidson: Iter:  62  Eband: -0.112176498550221  dEband: -3.975158e-08  t[s]:   1041.90
BandDavidson: Iter:  63  Eband: -0.112176532413066  dEband: -3.386284e-08  t[s]:   1045.22
BandDavidson: Iter:  64  Eband: -0.112176561240015  dEband: -2.882695e-08  t[s]:   1048.49
BandDavidson: Iter:  65  Eband: -0.112176585733831  dEband: -2.449382e-08  t[s]:   1051.77
BandDavidson: Iter:  66  Eband: -0.112176606651177  dEband: -2.091735e-08  t[s]:   1055.01
BandDavidson: Iter:  67  Eband: -0.112176624427043  dEband: -1.777587e-08  t[s]:   1058.23
BandDavidson: Iter:  68  Eband: -0.112176639609197  dEband: -1.518215e-08  t[s]:   1061.34
BandDavidson: Iter:  69  Eband: -0.112176652525387  dEband: -1.291619e-08  t[s]:   1064.48
BandDavidson: Iter:  70  Eband: -0.112176663596510  dEband: -1.107112e-08  t[s]:   1067.61
BandDavidson: Iter:  71  Eband: -0.112176673030044  dEband: -9.433534e-09  t[s]:   1070.75
BandDavidson: Converged (dEband<1.000000e-08)

---- Minimization of quantum number:     3  [ +0.0000000 +0.0833333 +0.0000000 ]  0.004629630  spin +1 ----
BandDavidson: Iter:   0  Eband: -0.055985831323871
BandDavidson: Iter:   1  Eband: -0.089186720270132  dEband: -3.320089e-02  t[s]:   1081.25
BandDavidson: Iter:   2  Eband: -0.100213115332062  dEband: -1.102640e-02  t[s]:   1087.70
BandDavidson: Iter:   3  Eband: -0.104905629403217  dEband: -4.692514e-03  t[s]:   1094.15
BandDavidson: Iter:   4  Eband: -0.108060249559425  dEband: -3.154620e-03  t[s]:   1100.61
BandDavidson: Iter:   5  Eband: -0.109527163111659  dEband: -1.466914e-03  t[s]:   1107.05
BandDavidson: Iter:   6  Eband: -0.110455896392609  dEband: -9.287333e-04  t[s]:   1113.50
BandDavidson: Iter:   7  Eband: -0.110853415995335  dEband: -3.975196e-04  t[s]:   1119.96
BandDavidson: Iter:   8  Eband: -0.111074046904410  dEband: -2.206309e-04  t[s]:   1126.42
BandDavidson: Iter:   9  Eband: -0.111334017979709  dEband: -2.599711e-04  t[s]:   1132.84
BandDavidson: Iter:  10  Eband: -0.111485850663722  dEband: -1.518327e-04  t[s]:   1139.28
BandDavidson: Iter:  11  Eband: -0.111568675593258  dEband: -8.282493e-05  t[s]:   1145.71
BandDavidson: Iter:  12  Eband: -0.111628911675912  dEband: -6.023608e-05  t[s]:   1152.16
BandDavidson: Iter:  13  Eband: -0.111699110498509  dEband: -7.019882e-05  t[s]:   1158.45
BandDavidson: Iter:  14  Eband: -0.111778865095209  dEband: -7.975460e-05  t[s]:   1164.74
BandDavidson: Iter:  15  Eband: -0.111852881765127  dEband: -7.401667e-05  t[s]:   1171.03
BandDavidson: Iter:  16  Eband: -0.111917032343126  dEband: -6.415058e-05  t[s]:   1177.33
BandDavidson: Iter:  17  Eband: -0.111971821695912  dEband: -5.478935e-05  t[s]:   1183.62
BandDavidson: Iter:  18  Eband: -0.112015147371894  dEband: -4.332568e-05  t[s]:   1189.90
BandDavidson: Iter:  19  Eband: -0.112051365963318  dEband: -3.621859e-05  t[s]:   1196.18
BandDavidson: Iter:  20  Eband: -0.112079378963665  dEband: -2.801300e-05  t[s]:   1202.45
BandDavidson: Iter:  21  Eband: -0.112102022458866  dEband: -2.264350e-05  t[s]:   1208.66
BandDavidson: Iter:  22  Eband: -0.112119806464506  dEband: -1.778401e-05  t[s]:   1214.88
BandDavidson: Iter:  23  Eband: -0.112134767585490  dEband: -1.496112e-05  t[s]:   1221.10
BandDavidson: Iter:  24  Eband: -0.112148255820091  dEband: -1.348823e-05  t[s]:   1227.24
BandDavidson: Iter:  25  Eband: -0.112159679213986  dEband: -1.142339e-05  t[s]:   1233.37
BandDavidson: Iter:  26  Eband: -0.112169208990839  dEband: -9.529777e-06  t[s]:   1239.51
BandDavidson: Iter:  27  Eband: -0.112177195427124  dEband: -7.986436e-06  t[s]:   1245.65
BandDavidson: Iter:  28  Eband: -0.112183986689438  dEband: -6.791262e-06  t[s]:   1251.59
BandDavidson: Iter:  29  Eband: -0.112189823787979  dEband: -5.837099e-06  t[s]:   1257.13
BandDavidson: Iter:  30  Eband: -0.112194856849996  dEband: -5.033062e-06  t[s]:   1262.62
BandDavidson: Iter:  31  Eband: -0.112199263096400  dEband: -4.406246e-06  t[s]:   1267.84
BandDavidson: Iter:  32  Eband: -0.112203165142319  dEband: -3.902046e-06  t[s]:   1272.81
BandDavidson: Iter:  33  Eband: -0.112206742831556  dEband: -3.577689e-06  t[s]:   1277.49
BandDavidson: Iter:  34  Eband: -0.112210026154559  dEband: -3.283323e-06  t[s]:   1282.11
BandDavidson: Iter:  35  Eband: -0.112213215096777  dEband: -3.188942e-06  t[s]:   1286.72
BandDavidson: Iter:  36  Eband: -0.112216195506649  dEband: -2.980410e-06  t[s]:   1291.34
BandDavidson: Iter:  37  Eband: -0.112218831188221  dEband: -2.635682e-06  t[s]:   1295.88
BandDavidson: Iter:  38  Eband: -0.112221414212961  dEband: -2.583025e-06  t[s]:   1300.16
BandDavidson: Iter:  39  Eband: -0.112225541543639  dEband: -4.127331e-06  t[s]:   1304.39
BandDavidson: Iter:  40  Eband: -0.112229290964212  dEband: -3.749421e-06  t[s]:   1308.55
BandDavidson: Iter:  41  Eband: -0.112232608460504  dEband: -3.317496e-06  t[s]:   1312.70
BandDavidson: Iter:  42  Eband: -0.112235476705352  dEband: -2.868245e-06  t[s]:   1316.85
BandDavidson: Iter:  43  Eband: -0.112237922072248  dEband: -2.445367e-06  t[s]:   1321.04
BandDavidson: Iter:  44  Eband: -0.112240023137147  dEband: -2.101065e-06  t[s]:   1325.18
BandDavidson: Iter:  45  Eband: -0.112241817227869  dEband: -1.794091e-06  t[s]:   1329.26
BandDavidson: Iter:  46  Eband: -0.112243361196666  dEband: -1.543969e-06  t[s]:   1333.33
BandDavidson: Iter:  47  Eband: -0.112244697755274  dEband: -1.336559e-06  t[s]:   1337.42
BandDavidson: Iter:  48  Eband: -0.112245855372745  dEband: -1.157617e-06  t[s]:   1341.44
BandDavidson: Iter:  49  Eband: -0.112246859474412  dEband: -1.004102e-06  t[s]:   1345.37
BandDavidson: Iter:  50  Eband: -0.112247729407180  dEband: -8.699328e-07  t[s]:   1349.21
BandDavidson: Iter:  51  Eband: -0.112248483598052  dEband: -7.541909e-07  t[s]:   1352.97
BandDavidson: Iter:  52  Eband: -0.112249138794159  dEband: -6.551961e-07  t[s]:   1356.69
BandDavidson: Iter:  53  Eband: -0.112249706308644  dEband: -5.675145e-07  t[s]:   1360.25
BandDavidson: Iter:  54  Eband: -0.112250198899708  dEband: -4.925911e-07  t[s]:   1363.79
BandDavidson: Iter:  55  Eband: -0.112250627765519  dEband: -4.288658e-07  t[s]:   1367.33
BandDavidson: Iter:  56  Eband: -0.112251002141978  dEband: -3.743765e-07  t[s]:   1370.86
BandDavidson: Iter:  57  Eband: -0.112251328710453  dEband: -3.265685e-07  t[s]:   1374.34
BandDavidson: Iter:  58  Eband: -0.112251612671199  dEband: -2.839607e-07  t[s]:   1377.78
BandDavidson: Iter:  59  Eband: -0.112251861958324  dEband: -2.492871e-07  t[s]:   1381.24
BandDavidson: Iter:  60  Eband: -0.112252077621029  dEband: -2.156627e-07  t[s]:   1384.63
BandDavidson: Iter:  61  Eband: -0.112252266132301  dEband: -1.885113e-07  t[s]:   1387.95
BandDavidson: Iter:  62  Eband: -0.112252429936748  dEband: -1.638044e-07  t[s]:   1391.26
BandDavidson: Iter:  63  Eband: -0.112252573983019  dEband: -1.440463e-07  t[s]:   1394.54
BandDavidson: Iter:  64  Eband: -0.112252699393273  dEband: -1.254103e-07  t[s]:   1397.83
BandDavidson: Iter:  65  Eband: -0.112252808474376  dEband: -1.090811e-07  t[s]:   1401.06
BandDavidson: Iter:  66  Eband: -0.112252903252452  dEband: -9.477808e-08  t[s]:   1404.27
BandDavidson: Iter:  67  Eband: -0.112252986378170  dEband: -8.312572e-08  t[s]:   1407.50
BandDavidson: Iter:  68  Eband: -0.112253058659486  dEband: -7.228132e-08  t[s]:   1410.71
BandDavidson: Iter:  69  Eband: -0.112253120599429  dEband: -6.193994e-08  t[s]:   1413.83
BandDavidson: Iter:  70  Eband: -0.112253173689297  dEband: -5.308987e-08  t[s]:   1416.91
BandDavidson: Iter:  71  Eband: -0.112253219770073  dEband: -4.608078e-08  t[s]:   1419.98
BandDavidson: Iter:  72  Eband: -0.112253259774902  dEband: -4.000483e-08  t[s]:   1423.08
BandDavidson: Iter:  73  Eband: -0.112253294615849  dEband: -3.484095e-08  t[s]:   1426.17
BandDavidson: Iter:  74  Eband: -0.112253324912944  dEband: -3.029710e-08  t[s]:   1429.26
BandDavidson: Iter:  75  Eband: -0.112253351329997  dEband: -2.641705e-08  t[s]:   1432.29
BandDavidson: Iter:  76  Eband: -0.112253374377285  dEband: -2.304729e-08  t[s]:   1435.33
BandDavidson: Iter:  77  Eband: -0.112253394600320  dEband: -2.022304e-08  t[s]:   1438.34
BandDavidson: Iter:  78  Eband: -0.112253411963609  dEband: -1.736329e-08  t[s]:   1441.33
BandDavidson: Iter:  79  Eband: -0.112253426909391  dEband: -1.494578e-08  t[s]:   1444.25
BandDavidson: Iter:  80  Eband: -0.112253439731915  dEband: -1.282252e-08  t[s]:   1447.12
BandDavidson: Iter:  81  Eband: -0.112253450784796  dEband: -1.105288e-08  t[s]:   1449.98
BandDavidson: Iter:  82  Eband: -0.112253460327941  dEband: -9.543145e-09  t[s]:   1452.86
BandDavidson: Converged (dEband<1.000000e-08)

---- Minimization of quantum number:     4  [ +0.0000000 +0.1111111 +0.0000000 ]  0.004629630  spin +1 ----
BandDavidson: Iter:   0  Eband: -0.056013509697786
BandDavidson: Iter:   1  Eband: -0.089351752225033  dEband: -3.333824e-02  t[s]:   1463.33
BandDavidson: Iter:   2  Eband: -0.100433182814649  dEband: -1.108143e-02  t[s]:   1469.74
BandDavidson: Iter:   3  Eband: -0.105088991824948  dEband: -4.655809e-03  t[s]:   1476.14
BandDavidson: Iter:   4  Eband: -0.108106943134162  dEband: -3.017951e-03  t[s]:   1482.53
BandDavidson: Iter:   5  Eband: -0.109581748402310  dEband: -1.474805e-03  t[s]:   1488.93
BandDavidson: Iter:   6  Eband: -0.110399022952178  dEband: -8.172745e-04  t[s]:   1495.33
BandDavidson: Iter:   7  Eband: -0.110781296711114  dEband: -3.822738e-04  t[s]:   1501.74
BandDavidson: Iter:   8  Eband: -0.110977058388492  dEband: -1.957617e-04  t[s]:   1508.13
BandDavidson: Iter:   9  Eband: -0.111117900189177  dEband: -1.408418e-04  t[s]:   1514.53
BandDavidson: Iter:  10  Eband: -0.111292871812952  dEband: -1.749716e-04  t[s]:   1520.90
BandDavidson: Iter:  11  Eband: -0.111396143562955  dEband: -1.032718e-04  t[s]:   1527.28
BandDavidson: Iter:  12  Eband: -0.111518922451588  dEband: -1.227789e-04  t[s]:   1533.65
BandDavidson: Iter:  13  Eband: -0.111659551129446  dEband: -1.406287e-04  t[s]:   1539.90
BandDavidson: Iter:  14  Eband: -0.111765525454378  dEband: -1.059743e-04  t[s]:   1546.14
BandDavidson: Iter:  15  Eband: -0.111857713450787  dEband: -9.218800e-05  t[s]:   1552.37
BandDavidson: Iter:  16  Eband: -0.111937361471461  dEband: -7.964802e-05  t[s]:   1558.63
BandDavidson: Iter:  17  Eband: -0.112000273958994  dEband: -6.291249e-05  t[s]:   1564.85
BandDavidson: Iter:  18  Eband: -0.112052355233803  dEband: -5.208127e-05  t[s]:   1571.08
BandDavidson: Iter:  19  Eband: -0.112088894447835  dEband: -3.653921e-05  t[s]:   1577.32
BandDavidson: Iter:  20  Eband: -0.112117339123746  dEband: -2.844468e-05  t[s]:   1583.54
BandDavidson: Iter:  21  Eband: -0.112142024343993  dEband: -2.468522e-05  t[s]:   1589.73
BandDavidson: Iter:  22  Eband: -0.112162777797006  dEband: -2.075345e-05  t[s]:   1595.85
BandDavidson: Iter:  23  Eband: -0.112180095046544  dEband: -1.731725e-05  t[s]:   1601.97
BandDavidson: Iter:  24  Eband: -0.112194642308797  dEband: -1.454726e-05  t[s]:   1608.07
BandDavidson: Iter:  25  Eband: -0.112207520332093  dEband: -1.287802e-05  t[s]:   1614.17
BandDavidson: Iter:  26  Eband: -0.112218874102416  dEband: -1.135377e-05  t[s]:   1620.22
BandDavidson: Iter:  27  Eband: -0.112228890082179  dEband: -1.001598e-05  t[s]:   1626.35
BandDavidson: Iter:  28  Eband: -0.112237510078914  dEband: -8.619997e-06  t[s]:   1632.27
BandDavidson: Iter:  29  Eband: -0.112244843039553  dEband: -7.332961e-06  t[s]:   1637.78
BandDavidson: Iter:  30  Eband: -0.112251047317743  dEband: -6.204278e-06  t[s]:   1643.11
BandDavidson: Iter:  31  Eband: -0.112256605373595  dEband: -5.558056e-06  t[s]:   1648.22
BandDavidson: Iter:  32  Eband: -0.112261539330353  dEband: -4.933957e-06  t[s]:   1653.10
BandDavidson: Iter:  33  Eband: -0.112265857406625  dEband: -4.318076e-06  t[s]:   1657.66
BandDavidson: Iter:  34  Eband: -0.112269598072145  dEband: -3.740666e-06  t[s]:   1662.25
BandDavidson: Iter:  35  Eband: -0.112272881175976  dEband: -3.283104e-06  t[s]:   1666.83
BandDavidson: Iter:  36  Eband: -0.112275771675819  dEband: -2.890500e-06  t[s]:   1671.41
BandDavidson: Iter:  37  Eband: -0.112278348500508  dEband: -2.576825e-06  t[s]:   1675.86
BandDavidson: Iter:  38  Eband: -0.112280651539000  dEband: -2.303038e-06  t[s]:   1680.03
BandDavidson: Iter:  39  Eband: -0.112283447506500  dEband: -2.795967e-06  t[s]:   1684.22
BandDavidson: Iter:  40  Eband: -0.112286353557322  dEband: -2.906051e-06  t[s]:   1688.35
BandDavidson: Iter:  41  Eband: -0.112288999582077  dEband: -2.646025e-06  t[s]:   1692.49
BandDavidson: Iter:  42  Eband: -0.112291266017779  dEband: -2.266436e-06  t[s]:   1696.62
BandDavidson: Iter:  43  Eband: -0.112293204642453  dEband: -1.938625e-06  t[s]:   1700.66
BandDavidson: Iter:  44  Eband: -0.112294891560242  dEband: -1.686918e-06  t[s]:   1704.72
BandDavidson: Iter:  45  Eband: -0.112296377756933  dEband: -1.486197e-06  t[s]:   1708.78
BandDavidson: Iter:  46  Eband: -0.112297694539645  dEband: -1.316783e-06  t[s]:   1712.79
BandDavidson: Iter:  47  Eband: -0.112298866397035  dEband: -1.171857e-06  t[s]:   1716.76
BandDavidson: Iter:  48  Eband: -0.112299894182596  dEband: -1.027786e-06  t[s]:   1720.64
BandDavidson: Iter:  49  Eband: -0.112300799526593  dEband: -9.053440e-07  t[s]:   1724.49
BandDavidson: Iter:  50  Eband: -0.112301593097280  dEband: -7.935707e-07  t[s]:   1728.25
BandDavidson: Iter:  51  Eband: -0.112302300742274  dEband: -7.076450e-07  t[s]:   1731.89
BandDavidson: Iter:  52  Eband: -0.112302930162048  dEband: -6.294198e-07  t[s]:   1735.59
BandDavidson: Iter:  53  Eband: -0.112303496181609  dEband: -5.660196e-07  t[s]:   1739.13
BandDavidson: Iter:  54  Eband: -0.112303997746579  dEband: -5.015650e-07  t[s]:   1742.61
BandDavidson: Iter:  55  Eband: -0.112304449935111  dEband: -4.521885e-07  t[s]:   1746.10
BandDavidson: Iter:  56  Eband: -0.112304852106648  dEband: -4.021715e-07  t[s]:   1749.52
BandDavidson: Iter:  57  Eband: -0.112305214108105  dEband: -3.620015e-07  t[s]:   1753.01
BandDavidson: Iter:  58  Eband: -0.112305535409465  dEband: -3.213014e-07  t[s]:   1756.42
BandDavidson: Iter:  59  Eband: -0.112305822261476  dEband: -2.868520e-07  t[s]:   1759.82
BandDavidson: Iter:  60  Eband: -0.112306074283672  dEband: -2.520222e-07  t[s]:   1763.16
BandDavidson: Iter:  61  Eband: -0.112306298882133  dEband: -2.245985e-07  t[s]:   1766.46
BandDavidson: Iter:  62  Eband: -0.112306498365375  dEband: -1.994832e-07  t[s]:   1769.71
BandDavidson: Iter:  63  Eband: -0.112306673865853  dEband: -1.755005e-07  t[s]:   1772.97
BandDavidson: Iter:  64  Eband: -0.112306829488022  dEband: -1.556222e-07  t[s]:   1776.12
BandDavidson: Iter:  65  Eband: -0.112306967100236  dEband: -1.376122e-07  t[s]:   1779.33
BandDavidson: Iter:  66  Eband: -0.112307088755551  dEband: -1.216553e-07  t[s]:   1782.48
BandDavidson: Iter:  67  Eband: -0.112307196207452  dEband: -1.074519e-07  t[s]:   1785.63
BandDavidson: Iter:  68  Eband: -0.112307290994431  dEband: -9.478698e-08  t[s]:   1788.69
BandDavidson: Iter:  69  Eband: -0.112307374764809  dEband: -8.377038e-08  t[s]:   1791.79
BandDavidson: Iter:  70  Eband: -0.112307448855139  dEband: -7.409033e-08  t[s]:   1794.85
BandDavidson: Iter:  71  Eband: -0.112307514152885  dEband: -6.529775e-08  t[s]:   1797.91
BandDavidson: Iter:  72  Eband: -0.112307571955889  dEband: -5.780300e-08  t[s]:   1800.93
BandDavidson: Iter:  73  Eband: -0.112307622937222  dEband: -5.098133e-08  t[s]:   1803.99
BandDavidson: Iter:  74  Eband: -0.112307668146589  dEband: -4.520937e-08  t[s]:   1807.01
BandDavidson: Iter:  75  Eband: -0.112307707965368  dEband: -3.981878e-08  t[s]:   1810.06
BandDavidson: Iter:  76  Eband: -0.112307743161865  dEband: -3.519650e-08  t[s]:   1813.05
BandDavidson: Iter:  77  Eband: -0.112307774059143  dEband: -3.089728e-08  t[s]:   1816.06
BandDavidson: Iter:  78  Eband: -0.112307801350618  dEband: -2.729148e-08  t[s]:   1819.06
BandDavidson: Iter:  79  Eband: -0.112307825329628  dEband: -2.397901e-08  t[s]:   1822.02
BandDavidson: Iter:  80  Eband: -0.112307846365202  dEband: -2.103557e-08  t[s]:   1824.94
BandDavidson: Iter:  81  Eband: -0.112307864927634  dEband: -1.856243e-08  t[s]:   1827.86
BandDavidson: Iter:  82  Eband: -0.112307881254658  dEband: -1.632702e-08  t[s]:   1830.77
BandDavidson: Iter:  83  Eband: -0.112307895696521  dEband: -1.444186e-08  t[s]:   1833.68
BandDavidson: Iter:  84  Eband: -0.112307908321136  dEband: -1.262462e-08  t[s]:   1836.60
BandDavidson: Iter:  85  Eband: -0.112307919411757  dEband: -1.109062e-08  t[s]:   1839.47
BandDavidson: Iter:  86  Eband: -0.112307929087401  dEband: -9.675644e-09  t[s]:   1842.25
BandDavidson: Converged (dEband<1.000000e-08)

---- Minimization of quantum number:     5  [ +0.0000000 +0.1388889 +0.0000000 ]  0.004629630  spin +1 ----
BandDavidson: Iter:   0  Eband: -0.055913526198222
BandDavidson: Iter:   1  Eband: -0.089330658602120  dEband: -3.341713e-02  t[s]:   1852.79
BandDavidson: Iter:   2  Eband: -0.100531090885808  dEband: -1.120043e-02  t[s]:   1859.22
BandDavidson: Iter:   3  Eband: -0.105068638254094  dEband: -4.537547e-03  t[s]:   1865.64
BandDavidson: Iter:   4  Eband: -0.107997899054044  dEband: -2.929261e-03  t[s]:   1872.06
BandDavidson: Iter:   5  Eband: -0.109360821150295  dEband: -1.362922e-03  t[s]:   1878.47
BandDavidson: Iter:   6  Eband: -0.110351143815804  dEband: -9.903227e-04  t[s]:   1884.90
BandDavidson: Iter:   7  Eband: -0.110771374424202  dEband: -4.202306e-04  t[s]:   1891.31
BandDavidson: Iter:   8  Eband: -0.110981689986210  dEband: -2.103156e-04  t[s]:   1897.73
BandDavidson: Iter:   9  Eband: -0.111196861881313  dEband: -2.151719e-04  t[s]:   1904.14
BandDavidson: Iter:  10  Eband: -0.111395882257124  dEband: -1.990204e-04  t[s]:   1910.56
BandDavidson: Iter:  11  Eband: -0.111520906551809  dEband: -1.250243e-04  t[s]:   1916.98
BandDavidson: Iter:  12  Eband: -0.111616403594556  dEband: -9.549704e-05  t[s]:   1923.38
BandDavidson: Iter:  13  Eband: -0.111712592513292  dEband: -9.618892e-05  t[s]:   1929.67
BandDavidson: Iter:  14  Eband: -0.111789012417283  dEband: -7.641990e-05  t[s]:   1935.94
BandDavidson: Iter:  15  Eband: -0.111860606971445  dEband: -7.159455e-05  t[s]:   1942.22
BandDavidson: Iter:  16  Eband: -0.111925081066687  dEband: -6.447410e-05  t[s]:   1948.49
BandDavidson: Iter:  17  Eband: -0.111985954376287  dEband: -6.087331e-05  t[s]:   1954.76
BandDavidson: Iter:  18  Eband: -0.112044170136431  dEband: -5.821576e-05  t[s]:   1961.04
BandDavidson: Iter:  19  Eband: -0.112092234872333  dEband: -4.806474e-05  t[s]:   1967.32
BandDavidson: Iter:  20  Eband: -0.112130670781510  dEband: -3.843591e-05  t[s]:   1973.59
BandDavidson: Iter:  21  Eband: -0.112162600511338  dEband: -3.192973e-05  t[s]:   1979.87
BandDavidson: Iter:  22  Eband: -0.112188102898221  dEband: -2.550239e-05  t[s]:   1986.09
BandDavidson: Iter:  23  Eband: -0.112208620243777  dEband: -2.051735e-05  t[s]:   1992.28
BandDavidson: Iter:  24  Eband: -0.112225401107776  dEband: -1.678086e-05  t[s]:   1998.46
BandDavidson: Iter:  25  Eband: -0.112239267940781  dEband: -1.386683e-05  t[s]:   2004.65
BandDavidson: Iter:  26  Eband: -0.112250765215187  dEband: -1.149727e-05  t[s]:   2010.82
BandDavidson: Iter:  27  Eband: -0.112260455539802  dEband: -9.690325e-06  t[s]:   2016.90
BandDavidson: Iter:  28  Eband: -0.112268666792964  dEband: -8.211253e-06  t[s]:   2022.92
BandDavidson: Iter:  29  Eband: -0.112275585367182  dEband: -6.918574e-06  t[s]:   2028.53
BandDavidson: Iter:  30  Eband: -0.112281416483047  dEband: -5.831116e-06  t[s]:   2033.99
BandDavidson: Iter:  31  Eband: -0.112286340865617  dEband: -4.924383e-06  t[s]:   2039.18
BandDavidson: Iter:  32  Eband: -0.112290654124918  dEband: -4.313259e-06  t[s]:   2044.13
BandDavidson: Iter:  33  Eband: -0.112294856602709  dEband: -4.202478e-06  t[s]:   2048.77
BandDavidson: Iter:  34  Eband: -0.112298598207101  dEband: -3.741604e-06  t[s]:   2053.32
BandDavidson: Iter:  35  Eband: -0.112301918896569  dEband: -3.320689e-06  t[s]:   2057.91
BandDavidson: Iter:  36  Eband: -0.112304865666589  dEband: -2.946770e-06  t[s]:   2062.43
BandDavidson: Iter:  37  Eband: -0.112307500607958  dEband: -2.634941e-06  t[s]:   2066.83
BandDavidson: Iter:  38  Eband: -0.112309879216853  dEband: -2.378609e-06  t[s]:   2071.12
BandDavidson: Iter:  39  Eband: -0.112312058224305  dEband: -2.179007e-06  t[s]:   2075.38
BandDavidson: Iter:  40  Eband: -0.112314061549084  dEband: -2.003325e-06  t[s]:   2079.53
BandDavidson: Iter:  41  Eband: -0.112315934948808  dEband: -1.873400e-06  t[s]:   2083.66
BandDavidson: Iter:  42  Eband: -0.112317700044295  dEband: -1.765095e-06  t[s]:   2087.78
BandDavidson: Iter:  43  Eband: -0.112319361204646  dEband: -1.661160e-06  t[s]:   2091.91
BandDavidson: Iter:  44  Eband: -0.112320916145052  dEband: -1.554940e-06  t[s]:   2096.00
BandDavidson: Iter:  45  Eband: -0.112322365688236  dEband: -1.449543e-06  t[s]:   2100.06
BandDavidson: Iter:  46  Eband: -0.112323701222103  dEband: -1.335534e-06  t[s]:   2104.07
BandDavidson: Iter:  47  Eband: -0.112324923408570  dEband: -1.222186e-06  t[s]:   2108.04
BandDavidson: Iter:  48  Eband: -0.112326037919605  dEband: -1.114511e-06  t[s]:   2111.99
BandDavidson: Iter:  49  Eband: -0.112327051026014  dEband: -1.013106e-06  t[s]:   2115.87
BandDavidson: Iter:  50  Eband: -0.112327979725954  dEband: -9.286999e-07  t[s]:   2119.72
BandDavidson: Iter:  51  Eband: -0.112328828899128  dEband: -8.491732e-07  t[s]:   2123.51
BandDavidson: Iter:  52  Eband: -0.112329608377390  dEband: -7.794783e-07  t[s]:   2127.28
BandDavidson: Iter:  53  Eband: -0.112330318000583  dEband: -7.096232e-07  t[s]:   2130.89
BandDavidson: Iter:  54  Eband: -0.112330963038808  dEband: -6.450382e-07  t[s]:   2134.40
BandDavidson: Iter:  55  Eband: -0.112331549145161  dEband: -5.861064e-07  t[s]:   2137.88
BandDavidson: Iter:  56  Eband: -0.112332087276636  dEband: -5.381315e-07  t[s]:   2141.32
BandDavidson: Iter:  57  Eband: -0.112332582111859  dEband: -4.948352e-07  t[s]:   2144.75
BandDavidson: Iter:  58  Eband: -0.112333034973916  dEband: -4.528621e-07  t[s]:   2148.16
BandDavidson: Iter:  59  Eband: -0.112333448984789  dEband: -4.140109e-07  t[s]:   2151.50
BandDavidson: Iter:  60  Eband: -0.112333827889232  dEband: -3.789044e-07  t[s]:   2154.87
BandDavidson: Iter:  61  Eband: -0.112334172850114  dEband: -3.449609e-07  t[s]:   2158.13
BandDavidson: Iter:  62  Eband: -0.112334486888908  dEband: -3.140388e-07  t[s]:   2161.40
BandDavidson: Iter:  63  Eband: -0.112334771744131  dEband: -2.848552e-07  t[s]:   2164.63
BandDavidson: Iter:  64  Eband: -0.112335030847597  dEband: -2.591035e-07  t[s]:   2167.86
BandDavidson: Iter:  65  Eband: -0.112335266282282  dEband: -2.354347e-07  t[s]:   2171.07
BandDavidson: Iter:  66  Eband: -0.112335479412910  dEband: -2.131306e-07  t[s]:   2174.24
BandDavidson: Iter:  67  Eband: -0.112335672288337  dEband: -1.928754e-07  t[s]:   2177.37
BandDavidson: Iter:  68  Eband: -0.112335846885310  dEband: -1.745970e-07  t[s]:   2180.43
BandDavidson: Iter:  69  Eband: -0.112336004956050  dEband: -1.580707e-07  t[s]:   2183.52
BandDavidson: Iter:  70  Eband: -0.112336148041603  dEband: -1.430856e-07  t[s]:   2186.59
BandDavidson: Iter:  71  Eband: -0.112336277225265  dEband: -1.291837e-07  t[s]:   2189.66
BandDavidson: Iter:  72  Eband: -0.112336393621000  dEband: -1.163957e-07  t[s]:   2192.70
BandDavidson: Iter:  73  Eband: -0.112336498092946  dEband: -1.044719e-07  t[s]:   2195.74
BandDavidson: Iter:  74  Eband: -0.112336592191163  dEband: -9.409822e-08  t[s]:   2198.78
BandDavidson: Iter:  75  Eband: -0.112336676824547  dEband: -8.463338e-08  t[s]:   2201.82
BandDavidson: Iter:  76  Eband: -0.112336752997231  dEband: -7.617268e-08  t[s]:   2204.85
BandDavidson: Iter:  77  Eband: -0.112336821620812  dEband: -6.862358e-08  t[s]:   2207.91
BandDavidson: Iter:  78  Eband: -0.112336883233808  dEband: -6.161300e-08  t[s]:   2210.94
BandDavidson: Iter:  79  Eband: -0.112336938684169  dEband: -5.545036e-08  t[s]:   2213.96
BandDavidson: Iter:  80  Eband: -0.112336988062234  dEband: -4.937807e-08  t[s]:   2216.90
BandDavidson: Iter:  81  Eband: -0.112337032340002  dEband: -4.427777e-08  t[s]:   2219.83
BandDavidson: Iter:  82  Eband: -0.112337072004152  dEband: -3.966415e-08  t[s]:   2222.73
BandDavidson: Iter:  83  Eband: -0.112337107883131  dEband: -3.587898e-08  t[s]:   2225.65
BandDavidson: Iter:  84  Eband: -0.112337140173729  dEband: -3.229060e-08  t[s]:   2228.53
BandDavidson: Iter:  85  Eband: -0.112337169421136  dEband: -2.924741e-08  t[s]:   2231.33
BandDavidson: Iter:  86  Eband: -0.112337195773712  dEband: -2.635258e-08  t[s]:   2234.14
BandDavidson: Iter:  87  Eband: -0.112337219700786  dEband: -2.392707e-08  t[s]:   2236.94
BandDavidson: Iter:  88  Eband: -0.112337241295318  dEband: -2.159453e-08  t[s]:   2239.75
BandDavidson: Iter:  89  Eband: -0.112337260888374  dEband: -1.959306e-08  t[s]:   2242.54
BandDavidson: Iter:  90  Eband: -0.112337278618543  dEband: -1.773017e-08  t[s]:   2245.35
BandDavidson: Iter:  91  Eband: -0.112337294624609  dEband: -1.600607e-08  t[s]:   2248.11
BandDavidson: Iter:  92  Eband: -0.112337309053904  dEband: -1.442930e-08  t[s]:   2250.84
BandDavidson: Iter:  93  Eband: -0.112337322047956  dEband: -1.299405e-08  t[s]:   2253.55
BandDavidson: Iter:  94  Eband: -0.112337333813976  dEband: -1.176602e-08  t[s]:   2256.25
BandDavidson: Iter:  95  Eband: -0.112337344442679  dEband: -1.062870e-08  t[s]:   2258.95
BandDavidson: Iter:  96  Eband: -0.112337354075266  dEband: -9.632587e-09  t[s]:   2261.66
BandDavidson: Converged (dEband<1.000000e-08)
Setting wave functions to eigenvectors of Hamiltonian
	FillingsUpdate:  mu: -0.086312182  nElectrons: 121.000000  magneticMoment: [ Abs: 0.18150  Tot: -0.18056 ]

Dumping 'Na-0.325.dosUp' ... done.
Dumping 'Na-0.325.dosDn' ... done.
End date and time: Thu Mar 31 22:26:01 2022  (Duration: 0-0:48:42.89)
Done!
