Second Layer Distance is 0.319

--------------------------------------------------------------------------
The library attempted to open the following supporting CUDA libraries,
but each of them failed.  CUDA-aware support is disabled.
libcuda.so.1: cannot open shared object file: No such file or directory
libcuda.dylib: cannot open shared object file: No such file or directory
/usr/lib64/libcuda.so.1: cannot open shared object file: No such file or directory
/usr/lib64/libcuda.dylib: cannot open shared object file: No such file or directory
If you are not interested in CUDA-aware support, then run with
--mca opal_warn_on_missing_libcuda 0 to suppress this message.  If you are interested
in CUDA-aware support, then try setting LD_LIBRARY_PATH to the location
of libcuda.so.1 to get passed this issue.
--------------------------------------------------------------------------
--------------------------------------------------------------------------
No OpenFabrics connection schemes reported that they were able to be
used on a specific port.  As such, the openib BTL (OpenFabrics
support) will be disabled for this port.

  Local host:           d-6-13-1
  Local device:         mlx5_1
  Local port:           1
  CPCs attempted:       rdmacm, udcm
--------------------------------------------------------------------------

*************** JDFTx 1.6.0 (git hash 42ebbcc2) ***************

Start date and time: Thu Mar 31 21:37:18 2022
Executable jdftx with command-line: -i Moire.dos.in
Running on hosts (process indices):  d-6-13-1 (0-37)
Divided in process groups (process indices):  0 (0)  1 (1)  2 (2)  3 (3)  4 (4)  5 (5)  6 (6)  7 (7)  8 (8)  9 (9)  10 (10)  11 (11)  12 (12)  13 (13)  14 (14)  15 (15)  16 (16)  17 (17)  18 (18)  19 (19)  20 (20)  21 (21)  22 (22)  23 (23)  24 (24)  25 (25)  26 (26)  27 (27)  28 (28)  29 (29)  30 (30)  31 (31)  32 (32)  33 (33)  34 (34)  35 (35)  36 (36)  37 (37)
Resource initialization completed at t[s]:      0.00
Run totals: 38 processes, 48 threads, 0 GPUs


Input parsed successfully to the following command list (including defaults):

basis kpoint-dependent
coords-type Lattice
core-overlap-check vector
coulomb-interaction Slab 001
davidson-band-ratio 1.1
dump End DOS
dump-name Na-0.319.$VAR
elec-cutoff 20
elec-eigen-algo Davidson
elec-ex-corr gga-PBE
elec-initial-magnetization 0.100000 no
elec-smearing Fermi 1e-05
electronic-minimize  \
	dirUpdateScheme      FletcherReeves \
	linminMethod         DirUpdateRecommended \
	nIterations          100 \
	history              15 \
	knormThreshold       0 \
	energyDiffThreshold  1e-08 \
	nEnergyDiff          2 \
	alphaTstart          1 \
	alphaTmin            1e-10 \
	updateTestStepSize   yes \
	alphaTreduceFactor   0.1 \
	alphaTincreaseFactor 3 \
	nAlphaAdjustMax      3 \
	wolfeEnergy          0.0001 \
	wolfeGradient        0.9 \
	fdTest               no
exchange-regularization WignerSeitzTruncated
fix-electron-density ../Na-0.319.$VAR
fluid None
fluid-ex-corr (null) lda-PZ
fluid-gummel-loop 10 1.000000e-05
fluid-minimize  \
	dirUpdateScheme      PolakRibiere \
	linminMethod         DirUpdateRecommended \
	nIterations          100 \
	history              15 \
	knormThreshold       0 \
	energyDiffThreshold  0 \
	nEnergyDiff          2 \
	alphaTstart          1 \
	alphaTmin            1e-10 \
	updateTestStepSize   yes \
	alphaTreduceFactor   0.1 \
	alphaTincreaseFactor 3 \
	nAlphaAdjustMax      3 \
	wolfeEnergy          0.0001 \
	wolfeGradient        0.9 \
	fdTest               no
fluid-solvent H2O 55.338 ScalarEOS \
	epsBulk 78.4 \
	pMol 0.92466 \
	epsInf 1.77 \
	Pvap 1.06736e-10 \
	sigmaBulk 4.62e-05 \
	Rvdw 2.61727 \
	Res 1.42 \
	tauNuc 343133 \
	poleEl 15 7 1
forces-output-coords Positions
ion N   0.952380952380952   0.761904761904762   0.000000000000000 0
ion N   1.428571428571428   1.285714285714286   0.319000000000000 0
ion N   0.380952380952381   0.904761904761905   0.000000000000000 0
ion N   0.714285714285714   1.142857142857143   0.319000000000000 0
ion N   0.523809523809524   0.619047619047619   0.000000000000000 0
ion N   1.000000000000000   1.000000000000000   0.319000000000000 0
ion N   0.666666666666667   0.333333333333333   0.000000000000000 0
ion N   1.285714285714286   0.857142857142857   0.319000000000000 0
ion N   0.809523809523810   0.047619047619048   0.000000000000000 0
ion N   1.571428571428571   0.714285714285714   0.319000000000000 0
ion N   0.095238095238095   0.476190476190476   0.000000000000000 0
ion N   0.238095238095238   0.190476190476190   0.000000000000000 0
ion N   0.857142857142857   0.571428571428571   0.319000000000000 0
ion N   1.142857142857143   0.428571428571429   0.319000000000000 0
ion B   0.571428571428572   0.857142857142857   0.000000000000000 0
ion B   0.952380952380952   1.190476190476190   0.319000000000000 0
ion B   0.714285714285714   0.571428571428571   0.000000000000000 0
ion B   1.238095238095238   1.047619047619047   0.319000000000000 0
ion B   0.857142857142857   0.285714285714286   0.000000000000000 0
ion B   1.523809523809524   0.904761904761905   0.319000000000000 0
ion B   0.142857142857143   0.714285714285714   0.000000000000000 0
ion B   0.285714285714286   0.428571428571429   0.000000000000000 0
ion B   0.809523809523810   0.761904761904762   0.319000000000000 0
ion B   0.428571428571429   0.142857142857143   0.000000000000000 0
ion B   1.095238095238095   0.619047619047619   0.319000000000000 0
ion B   1.380952380952381   0.476190476190476   0.319000000000000 0
ion B   0.000000000000000   0.000000000000000   0.000000000000000 0
ion B   0.666666666666667   0.333333333333333   0.319000000000000 0
ion Na   0.333333333300000   0.666666666600000   0.159500000000000 0
ion-species SG15/$ID_ONCV_PBE.upf
ion-width 0
ionic-minimize  \
	dirUpdateScheme      L-BFGS \
	linminMethod         DirUpdateRecommended \
	nIterations          0 \
	history              15 \
	knormThreshold       0.0001 \
	energyDiffThreshold  1e-06 \
	nEnergyDiff          2 \
	alphaTstart          1 \
	alphaTmin            1e-10 \
	updateTestStepSize   yes \
	alphaTreduceFactor   0.1 \
	alphaTincreaseFactor 3 \
	nAlphaAdjustMax      3 \
	wolfeEnergy          0.0001 \
	wolfeGradient        0.9 \
	fdTest               no
kpoint   0.000000000000   0.000000000000   0.000000000000  1.00000000000000
kpoint-folding 36 36 1 
latt-move-scale 1 1 1
latt-scale 1 1 1 
lattice  \
	 -11.818700000000000    2.363740000000000    0.000000000000000  \
	   4.094120000000000  -12.282400000000001    0.000000000000000  \
	   0.000000000000000    0.000000000000000   40.000000000000000 
lattice-minimize  \
	dirUpdateScheme      L-BFGS \
	linminMethod         DirUpdateRecommended \
	nIterations          0 \
	history              15 \
	knormThreshold       0 \
	energyDiffThreshold  1e-06 \
	nEnergyDiff          2 \
	alphaTstart          1 \
	alphaTmin            1e-10 \
	updateTestStepSize   yes \
	alphaTreduceFactor   0.1 \
	alphaTincreaseFactor 3 \
	nAlphaAdjustMax      3 \
	wolfeEnergy          0.0001 \
	wolfeGradient        0.9 \
	fdTest               no
lcao-params -1 1e-06 1e-05
pcm-variant GLSSA13
spintype z-spin
subspace-rotation-factor 1 yes
symmetries automatic
symmetry-threshold 0.0001
van-der-waals D3



---------- Setting up symmetries ----------

Found 24 point-group symmetries of the bravais lattice
Found 6 space-group symmetries with basis
Applied RMS atom displacement 1.31765e-10 bohrs to make symmetries exact.

---------- Initializing the Grid ----------
R = 
[     -11.8187      2.36374            0  ]
[      4.09412     -12.2824            0  ]
[            0            0           40  ]
unit cell volume = 5419.38
G =
[  -0.569604   -0.10962          0  ]
[  -0.189867    -0.5481          0  ]
[          0          0    0.15708  ]
Minimum fftbox size, Smin = [  52  52  164  ]
Chosen fftbox size, S = [  54  54  168  ]

---------- Exchange Correlation functional ----------
Initalized PBE GGA exchange.
Initalized PBE GGA correlation.

---------- Setting up pseudopotentials ----------
Width of ionic core gaussian charges (only for fluid interactions / plotting) set to 0

Reading pseudopotential file '/home/gridsan/aligho/DFT/build-Nov24/pseudopotentials/SG15/N_ONCV_PBE.upf':
  'N' pseudopotential, 'PBE' functional
  Generated using ONCVPSP code by D. R. Hamann
  Author: Martin Schlipf and Francois Gygi  Date: 150915.
  5 valence electrons, 2 orbitals, 4 projectors, 1058 radial grid points, with lMax = 1
  Transforming local potential to a uniform radial grid of dG=0.02 with 1514 points.
  Transforming nonlocal projectors to a uniform radial grid of dG=0.02 with 432 points.
    2S    l: 0   occupation:  2.0   eigenvalue: -0.682907
    2P    l: 1   occupation:  3.0   eigenvalue: -0.260548
  Transforming atomic orbitals to a uniform radial grid of dG=0.02 with 432 points.
  Core radius for overlap checks: 1.35 bohrs.
  Reading pulay file /home/gridsan/aligho/DFT/build-Nov24/pseudopotentials/SG15/N_ONCV_PBE.pulay ... using dE_dnG = -2.956256e-02 computed for Ecut = 20.

Reading pseudopotential file '/home/gridsan/aligho/DFT/build-Nov24/pseudopotentials/SG15/B_ONCV_PBE.upf':
  'B' pseudopotential, 'PBE' functional
  Generated using ONCVPSP code by D. R. Hamann
  Author: Martin Schlipf and Francois Gygi  Date: 150915.
  3 valence electrons, 2 orbitals, 4 projectors, 1534 radial grid points, with lMax = 1
  Transforming local potential to a uniform radial grid of dG=0.02 with 1514 points.
  Transforming nonlocal projectors to a uniform radial grid of dG=0.02 with 432 points.
    2S    l: 0   occupation:  2.0   eigenvalue: -0.347027
    2P    l: 1   occupation:  1.0   eigenvalue: -0.132548
  Transforming atomic orbitals to a uniform radial grid of dG=0.02 with 432 points.
  Core radius for overlap checks: 1.60 bohrs.
  Reading pulay file /home/gridsan/aligho/DFT/build-Nov24/pseudopotentials/SG15/B_ONCV_PBE.pulay ... using dE_dnG = -3.748568e-04 computed for Ecut = 20.

Reading pseudopotential file '/home/gridsan/aligho/DFT/build-Nov24/pseudopotentials/SG15/Na_ONCV_PBE.upf':
  'Na' pseudopotential, 'PBE' functional
  Generated using ONCVPSP code by D. R. Hamann
  Author: Martin Schlipf and Francois Gygi  Date: 150915.
  9 valence electrons, 3 orbitals, 4 projectors, 1992 radial grid points, with lMax = 1
  Transforming local potential to a uniform radial grid of dG=0.02 with 1514 points.
  Transforming nonlocal projectors to a uniform radial grid of dG=0.02 with 432 points.
    2S    l: 0   occupation:  2.0   eigenvalue: -2.085640
    2P    l: 1   occupation:  6.0   eigenvalue: -1.053708
    3S    l: 0   occupation:  1.0   eigenvalue: -0.100838
  Transforming atomic orbitals to a uniform radial grid of dG=0.02 with 432 points.
  Core radius for overlap checks: 2.01 bohrs.
  Reading pulay file /home/gridsan/aligho/DFT/build-Nov24/pseudopotentials/SG15/Na_ONCV_PBE.pulay ... using dE_dnG = -2.946487e-03 computed for Ecut = 20.

Initialized 3 species with 29 total atoms.

Folded 1 k-points by 36x36x1 to 1296 k-points.

---------- Setting up k-points, bands, fillings ----------
Adding inversion symmetry to k-mesh for non-inversion-symmetric unit cell.
Reduced to 127 k-points under symmetry. 
Computing the number of bands and number of electrons
Calculating initial fillings.
nElectrons: 121.000000   nBands: 117   nStates: 254

----- Setting up reduced wavefunction bases (one per k-point) -----
average nbasis = 23152.266 , ideal nbasis = 23152.016

----- Initializing Supercell corresponding to k-point mesh -----
Lattice vector linear combinations in supercell:
[  36   0   0  ]
[   0  36   0  ]
[   0   0   1  ]
Supercell lattice vectors:
[  -425.473  85.0946  0  ]
[  147.388  -442.166  0  ]
[  0  0  40  ]

---------- Setting up coulomb interaction ----------
Initialized slab truncation along lattice direction 001

Initializing DFT-D3 calculator:
	Parameters set for gga-PBE functional
	s6:  1.000  s_r6:  1.217
	s8:  0.722  s_r8:  1.000
	Per-atom parameters loaded for:
	 N:  sqrtQ[a0]:  2.712  Rcov[a0]:  1.342  CN: [ 0.00 0.99 2.01 2.99 ]
	 B:  sqrtQ[a0]:  3.644  Rcov[a0]:  1.455  CN: [ 0.00 0.97 1.94 2.91 4.59 ]
	Na:  sqrtQ[a0]:  6.586  Rcov[a0]:  2.646  CN: [ 0.00 0.97 ]

---------- Setting up 2D ewald sum ----------
Optimum gaussian width for ewald sums = 6.943804 bohr.
Real space sums over 289 unit cells with max indices [  8  8  0  ]
Reciprocal space sums over 81 terms with max indices [  4  4  0  ]

Computing DFT-D3 correction:
# coordination-number N 3.140 3.140 3.160 3.140 3.160 3.139 3.139 3.160 3.140 3.160 3.160 3.140 3.140 3.160
# coordination-number B 3.373 3.345 3.345 3.345 3.345 3.373 3.373 3.373 3.345 3.345 3.373 3.373 3.343 3.343
# coordination-number Na 0.412
# diagonal-C6 N 15.61 15.61 15.60 15.61 15.60 15.61 15.61 15.60 15.61 15.60 15.60 15.61 15.61 15.60
# diagonal-C6 B 31.43 31.44 31.44 31.44 31.44 31.43 31.43 31.43 31.44 31.44 31.43 31.43 31.44 31.44
# diagonal-C6 Na 909.56
EvdW_6 =   -0.031355
EvdW_8 =   -0.029588

---------- Allocating electronic variables ----------
Reading n_up from file '../Na-0.319.n_up' ... done
Reading n_dn from file '../Na-0.319.n_dn' ... done
Initializing wave functions:  linear combination of atomic orbitals
[d-6-13-1:02598] 37 more processes have sent help message help-mpi-common-cuda.txt / dlopen failed
[d-6-13-1:02598] Set MCA parameter "orte_base_help_aggregate" to 0 to see all help / error messages
[d-6-13-1:02598] 37 more processes have sent help message help-mpi-btl-openib-cpc-base.txt / no cpcs for port


---- Citations for features of the code used in this run ----

   Software package:
      R. Sundararaman, K. Letchworth-Weaver, K.A. Schwarz, D. Gunceler, Y. Ozhabes and T.A. Arias, 'JDFTx: software for joint density-functional theory', SoftwareX 6, 278 (2017)

   gga-PBE exchange-correlation functional:
      J.P. Perdew, K. Burke and M. Ernzerhof, Phys. Rev. Lett. 77, 3865 (1996)

   Pseudopotentials:
      M Schlipf and F Gygi, Comput. Phys. Commun. 196, 36 (2015)

   Truncated Coulomb potentials:
      R. Sundararaman and T.A. Arias, Phys. Rev. B 87, 165122 (2013)

   DFT-D3 dispersion correction:
      S. Grimme, J. Antony, S. Ehrlich and H. Krieg, J. Chem. Phys. 132, 154104 (2010)

   Total energy minimization with Auxiliary Hamiltonian:
      C. Freysoldt, S. Boeck, and J. Neugebauer, Phys. Rev. B 79, 241103(R) (2009)

   Linear-tetrahedron sampling for density of states:
      G. Lehmann and M. Taut, Phys. status solidi (b) 54, 469 (1972)

This list may not be complete. Please suggest additional citations or
report any other bugs at https://github.com/shankar1729/jdftx/issues

Initialization completed successfully at t[s]:     50.16


----------- Band structure minimization -------------
Minimization will be done independently for each quantum number.

---- Minimization of quantum number:     0  [ +0.0000000 +0.0000000 +0.0000000 ]  0.000771605  spin +1 ----
BandDavidson: Iter:   0  Eband: -0.009441345599750
BandDavidson: Iter:   1  Eband: -0.014977792884737  dEband: -5.536447e-03  t[s]:     60.84
BandDavidson: Iter:   2  Eband: -0.016841526341639  dEband: -1.863733e-03  t[s]:     67.13
BandDavidson: Iter:   3  Eband: -0.017683861377055  dEband: -8.423350e-04  t[s]:     73.34
BandDavidson: Iter:   4  Eband: -0.018247673411326  dEband: -5.638120e-04  t[s]:     79.58
BandDavidson: Iter:   5  Eband: -0.018447470818560  dEband: -1.997974e-04  t[s]:     85.81
BandDavidson: Iter:   6  Eband: -0.018557174366469  dEband: -1.097035e-04  t[s]:     92.05
BandDavidson: Iter:   7  Eband: -0.018608108735637  dEband: -5.093437e-05  t[s]:     98.28
BandDavidson: Iter:   8  Eband: -0.018636162000076  dEband: -2.805326e-05  t[s]:    104.49
BandDavidson: Iter:   9  Eband: -0.018653676714233  dEband: -1.751471e-05  t[s]:    110.73
BandDavidson: Iter:  10  Eband: -0.018665322028132  dEband: -1.164531e-05  t[s]:    116.97
BandDavidson: Iter:  11  Eband: -0.018680569332944  dEband: -1.524730e-05  t[s]:    123.21
BandDavidson: Iter:  12  Eband: -0.018691394790696  dEband: -1.082546e-05  t[s]:    129.45
BandDavidson: Iter:  13  Eband: -0.018698305124981  dEband: -6.910334e-06  t[s]:    135.57
BandDavidson: Iter:  14  Eband: -0.018703014508886  dEband: -4.709384e-06  t[s]:    141.71
BandDavidson: Iter:  15  Eband: -0.018710012353715  dEband: -6.997845e-06  t[s]:    147.84
BandDavidson: Iter:  16  Eband: -0.018715747236785  dEband: -5.734883e-06  t[s]:    154.01
BandDavidson: Iter:  17  Eband: -0.018719682465081  dEband: -3.935228e-06  t[s]:    160.20
BandDavidson: Iter:  18  Eband: -0.018722695288810  dEband: -3.012824e-06  t[s]:    166.39
BandDavidson: Iter:  19  Eband: -0.018725091937497  dEband: -2.396649e-06  t[s]:    172.56
BandDavidson: Iter:  20  Eband: -0.018727084218927  dEband: -1.992281e-06  t[s]:    178.73
BandDavidson: Iter:  21  Eband: -0.018728790530586  dEband: -1.706312e-06  t[s]:    184.81
BandDavidson: Iter:  22  Eband: -0.018730287038091  dEband: -1.496508e-06  t[s]:    190.81
BandDavidson: Iter:  23  Eband: -0.018731593703413  dEband: -1.306665e-06  t[s]:    196.82
BandDavidson: Iter:  24  Eband: -0.018732737259208  dEband: -1.143556e-06  t[s]:    202.83
BandDavidson: Iter:  25  Eband: -0.018733726908975  dEband: -9.896498e-07  t[s]:    208.82
BandDavidson: Iter:  26  Eband: -0.018734576481645  dEband: -8.495727e-07  t[s]:    214.81
BandDavidson: Iter:  27  Eband: -0.018735301859375  dEband: -7.253777e-07  t[s]:    220.67
BandDavidson: Iter:  28  Eband: -0.018735929580916  dEband: -6.277215e-07  t[s]:    226.40
BandDavidson: Iter:  29  Eband: -0.018736481037985  dEband: -5.514571e-07  t[s]:    231.88
BandDavidson: Iter:  30  Eband: -0.018736976333211  dEband: -4.952952e-07  t[s]:    237.20
BandDavidson: Iter:  31  Eband: -0.018737434728758  dEband: -4.583955e-07  t[s]:    242.17
BandDavidson: Iter:  32  Eband: -0.018737868070829  dEband: -4.333421e-07  t[s]:    246.75
BandDavidson: Iter:  33  Eband: -0.018738302283729  dEband: -4.342129e-07  t[s]:    251.17
BandDavidson: Iter:  34  Eband: -0.018738817622591  dEband: -5.153389e-07  t[s]:    255.63
BandDavidson: Iter:  35  Eband: -0.018739333445823  dEband: -5.158232e-07  t[s]:    260.09
BandDavidson: Iter:  36  Eband: -0.018739810747984  dEband: -4.773022e-07  t[s]:    264.54
BandDavidson: Iter:  37  Eband: -0.018740247732041  dEband: -4.369841e-07  t[s]:    268.92
BandDavidson: Iter:  38  Eband: -0.018740648142831  dEband: -4.004108e-07  t[s]:    272.99
BandDavidson: Iter:  39  Eband: -0.018741027729901  dEband: -3.795871e-07  t[s]:    277.06
BandDavidson: Iter:  40  Eband: -0.018741383607337  dEband: -3.558774e-07  t[s]:    281.07
BandDavidson: Iter:  41  Eband: -0.018741709679775  dEband: -3.260724e-07  t[s]:    285.06
BandDavidson: Iter:  42  Eband: -0.018742011379159  dEband: -3.016994e-07  t[s]:    289.06
BandDavidson: Iter:  43  Eband: -0.018742297102533  dEband: -2.857234e-07  t[s]:    293.05
BandDavidson: Iter:  44  Eband: -0.018742569386946  dEband: -2.722844e-07  t[s]:    297.04
BandDavidson: Iter:  45  Eband: -0.018742827237609  dEband: -2.578507e-07  t[s]:    300.97
BandDavidson: Iter:  46  Eband: -0.018743067267837  dEband: -2.400302e-07  t[s]:    304.84
BandDavidson: Iter:  47  Eband: -0.018743280270347  dEband: -2.130025e-07  t[s]:    308.63
BandDavidson: Iter:  48  Eband: -0.018743464287737  dEband: -1.840174e-07  t[s]:    312.42
BandDavidson: Iter:  49  Eband: -0.018743621406646  dEband: -1.571189e-07  t[s]:    316.20
BandDavidson: Iter:  50  Eband: -0.018743754210736  dEband: -1.328041e-07  t[s]:    319.82
BandDavidson: Iter:  51  Eband: -0.018743865939340  dEband: -1.117286e-07  t[s]:    323.32
BandDavidson: Iter:  52  Eband: -0.018743959628455  dEband: -9.368911e-08  t[s]:    326.73
BandDavidson: Iter:  53  Eband: -0.018744038119860  dEband: -7.849140e-08  t[s]:    330.15
BandDavidson: Iter:  54  Eband: -0.018744103849062  dEband: -6.572920e-08  t[s]:    333.58
BandDavidson: Iter:  55  Eband: -0.018744159023097  dEband: -5.517403e-08  t[s]:    336.98
BandDavidson: Iter:  56  Eband: -0.018744205164553  dEband: -4.614146e-08  t[s]:    340.38
BandDavidson: Iter:  57  Eband: -0.018744243747297  dEband: -3.858274e-08  t[s]:    343.71
BandDavidson: Iter:  58  Eband: -0.018744275883645  dEband: -3.213635e-08  t[s]:    346.99
BandDavidson: Iter:  59  Eband: -0.018744302738706  dEband: -2.685506e-08  t[s]:    350.25
BandDavidson: Iter:  60  Eband: -0.018744325100636  dEband: -2.236193e-08  t[s]:    353.51
BandDavidson: Iter:  61  Eband: -0.018744343851778  dEband: -1.875114e-08  t[s]:    356.76
BandDavidson: Iter:  62  Eband: -0.018744359518517  dEband: -1.566674e-08  t[s]:    360.01
BandDavidson: Iter:  63  Eband: -0.018744372632192  dEband: -1.311367e-08  t[s]:    363.20
BandDavidson: Iter:  64  Eband: -0.018744383550627  dEband: -1.091843e-08  t[s]:    366.28
BandDavidson: Iter:  65  Eband: -0.018744392632243  dEband: -9.081617e-09  t[s]:    369.33
BandDavidson: Converged (dEband<1.000000e-08)

---- Minimization of quantum number:     1  [ +0.0000000 +0.0277778 +0.0000000 ]  0.004629630  spin +1 ----
BandDavidson: Iter:   0  Eband: -0.056642419250741
BandDavidson: Iter:   1  Eband: -0.089881259119536  dEband: -3.323884e-02  t[s]:    379.38
BandDavidson: Iter:   2  Eband: -0.101094080949767  dEband: -1.121282e-02  t[s]:    385.57
BandDavidson: Iter:   3  Eband: -0.106068189029271  dEband: -4.974108e-03  t[s]:    391.78
BandDavidson: Iter:   4  Eband: -0.109704135787506  dEband: -3.635947e-03  t[s]:    397.96
BandDavidson: Iter:   5  Eband: -0.111063248794930  dEband: -1.359113e-03  t[s]:    404.13
BandDavidson: Iter:   6  Eband: -0.111493567391354  dEband: -4.303186e-04  t[s]:    410.34
BandDavidson: Iter:   7  Eband: -0.111738584623338  dEband: -2.450172e-04  t[s]:    416.56
BandDavidson: Iter:   8  Eband: -0.111867176943102  dEband: -1.285923e-04  t[s]:    422.78
BandDavidson: Iter:   9  Eband: -0.111944011378617  dEband: -7.683444e-05  t[s]:    428.96
BandDavidson: Iter:  10  Eband: -0.112000725279185  dEband: -5.671390e-05  t[s]:    435.16
BandDavidson: Iter:  11  Eband: -0.112113861165954  dEband: -1.131359e-04  t[s]:    441.37
BandDavidson: Iter:  12  Eband: -0.112173915283690  dEband: -6.005412e-05  t[s]:    447.58
BandDavidson: Iter:  13  Eband: -0.112209241073118  dEband: -3.532579e-05  t[s]:    453.67
BandDavidson: Iter:  14  Eband: -0.112235529855691  dEband: -2.628878e-05  t[s]:    459.74
BandDavidson: Iter:  15  Eband: -0.112255554733154  dEband: -2.002488e-05  t[s]:    465.87
BandDavidson: Iter:  16  Eband: -0.112272181155061  dEband: -1.662642e-05  t[s]:    471.99
BandDavidson: Iter:  17  Eband: -0.112306956830196  dEband: -3.477568e-05  t[s]:    478.10
BandDavidson: Iter:  18  Eband: -0.112337608566673  dEband: -3.065174e-05  t[s]:    484.22
BandDavidson: Iter:  19  Eband: -0.112362538603568  dEband: -2.493004e-05  t[s]:    490.33
BandDavidson: Iter:  20  Eband: -0.112384076784474  dEband: -2.153818e-05  t[s]:    496.44
BandDavidson: Iter:  21  Eband: -0.112404732787549  dEband: -2.065600e-05  t[s]:    502.42
BandDavidson: Iter:  22  Eband: -0.112425407787730  dEband: -2.067500e-05  t[s]:    508.37
BandDavidson: Iter:  23  Eband: -0.112444578615838  dEband: -1.917083e-05  t[s]:    514.29
BandDavidson: Iter:  24  Eband: -0.112461770322488  dEband: -1.719171e-05  t[s]:    520.23
BandDavidson: Iter:  25  Eband: -0.112476346829550  dEband: -1.457651e-05  t[s]:    526.18
BandDavidson: Iter:  26  Eband: -0.112488443805103  dEband: -1.209698e-05  t[s]:    532.10
BandDavidson: Iter:  27  Eband: -0.112498497035057  dEband: -1.005323e-05  t[s]:    537.88
BandDavidson: Iter:  28  Eband: -0.112506756270299  dEband: -8.259235e-06  t[s]:    543.56
BandDavidson: Iter:  29  Eband: -0.112513697532263  dEband: -6.941262e-06  t[s]:    548.93
BandDavidson: Iter:  30  Eband: -0.112519383112271  dEband: -5.685580e-06  t[s]:    554.16
BandDavidson: Iter:  31  Eband: -0.112524108812666  dEband: -4.725700e-06  t[s]:    559.33
BandDavidson: Iter:  32  Eband: -0.112528070164364  dEband: -3.961352e-06  t[s]:    564.01
BandDavidson: Iter:  33  Eband: -0.112531406870862  dEband: -3.336706e-06  t[s]:    568.42
BandDavidson: Iter:  34  Eband: -0.112534257288689  dEband: -2.850418e-06  t[s]:    572.87
BandDavidson: Iter:  35  Eband: -0.112536743192426  dEband: -2.485904e-06  t[s]:    577.30
BandDavidson: Iter:  36  Eband: -0.112539004090524  dEband: -2.260898e-06  t[s]:    581.64
BandDavidson: Iter:  37  Eband: -0.112541067168346  dEband: -2.063078e-06  t[s]:    585.90
BandDavidson: Iter:  38  Eband: -0.112542845340083  dEband: -1.778172e-06  t[s]:    589.94
BandDavidson: Iter:  39  Eband: -0.112544362390357  dEband: -1.517050e-06  t[s]:    593.98
BandDavidson: Iter:  40  Eband: -0.112545682912370  dEband: -1.320522e-06  t[s]:    597.98
BandDavidson: Iter:  41  Eband: -0.112546831536669  dEband: -1.148624e-06  t[s]:    602.00
BandDavidson: Iter:  42  Eband: -0.112547830065496  dEband: -9.985288e-07  t[s]:    605.98
BandDavidson: Iter:  43  Eband: -0.112548694387671  dEband: -8.643222e-07  t[s]:    609.94
BandDavidson: Iter:  44  Eband: -0.112549437360760  dEband: -7.429731e-07  t[s]:    613.88
BandDavidson: Iter:  45  Eband: -0.112550082927608  dEband: -6.455668e-07  t[s]:    617.84
BandDavidson: Iter:  46  Eband: -0.112550641216672  dEband: -5.582891e-07  t[s]:    621.72
BandDavidson: Iter:  47  Eband: -0.112551134177771  dEband: -4.929611e-07  t[s]:    625.63
BandDavidson: Iter:  48  Eband: -0.112551578028804  dEband: -4.438510e-07  t[s]:    629.52
BandDavidson: Iter:  49  Eband: -0.112551993932735  dEband: -4.159039e-07  t[s]:    633.36
BandDavidson: Iter:  50  Eband: -0.112552396847608  dEband: -4.029149e-07  t[s]:    637.18
BandDavidson: Iter:  51  Eband: -0.112552791817354  dEband: -3.949697e-07  t[s]:    640.98
BandDavidson: Iter:  52  Eband: -0.112553158532647  dEband: -3.667153e-07  t[s]:    644.63
BandDavidson: Iter:  53  Eband: -0.112553483342419  dEband: -3.248098e-07  t[s]:    648.04
BandDavidson: Iter:  54  Eband: -0.112553771726269  dEband: -2.883839e-07  t[s]:    651.41
BandDavidson: Iter:  55  Eband: -0.112554020919104  dEband: -2.491928e-07  t[s]:    654.76
BandDavidson: Iter:  56  Eband: -0.112554236177788  dEband: -2.152587e-07  t[s]:    658.09
BandDavidson: Iter:  57  Eband: -0.112554417576261  dEband: -1.813985e-07  t[s]:    661.38
BandDavidson: Iter:  58  Eband: -0.112554571495529  dEband: -1.539193e-07  t[s]:    664.66
BandDavidson: Iter:  59  Eband: -0.112554700624479  dEband: -1.291289e-07  t[s]:    667.95
BandDavidson: Iter:  60  Eband: -0.112554810293577  dEband: -1.096691e-07  t[s]:    671.25
BandDavidson: Iter:  61  Eband: -0.112554902291673  dEband: -9.199810e-08  t[s]:    674.53
BandDavidson: Iter:  62  Eband: -0.112554979887763  dEband: -7.759609e-08  t[s]:    677.73
BandDavidson: Iter:  63  Eband: -0.112555044657453  dEband: -6.476969e-08  t[s]:    680.94
BandDavidson: Iter:  64  Eband: -0.112555098937512  dEband: -5.428006e-08  t[s]:    684.12
BandDavidson: Iter:  65  Eband: -0.112555143985220  dEband: -4.504771e-08  t[s]:    687.23
BandDavidson: Iter:  66  Eband: -0.112555181503722  dEband: -3.751850e-08  t[s]:    690.33
BandDavidson: Iter:  67  Eband: -0.112555212694476  dEband: -3.119075e-08  t[s]:    693.39
BandDavidson: Iter:  68  Eband: -0.112555238625410  dEband: -2.593093e-08  t[s]:    696.41
BandDavidson: Iter:  69  Eband: -0.112555260210507  dEband: -2.158510e-08  t[s]:    699.40
BandDavidson: Iter:  70  Eband: -0.112555278205374  dEband: -1.799487e-08  t[s]:    702.33
BandDavidson: Iter:  71  Eband: -0.112555293204809  dEband: -1.499943e-08  t[s]:    705.15
BandDavidson: Iter:  72  Eband: -0.112555305738194  dEband: -1.253339e-08  t[s]:    707.96
BandDavidson: Iter:  73  Eband: -0.112555316161397  dEband: -1.042320e-08  t[s]:    710.73
BandDavidson: Iter:  74  Eband: -0.112555324898051  dEband: -8.736654e-09  t[s]:    713.50
BandDavidson: Converged (dEband<1.000000e-08)

---- Minimization of quantum number:     2  [ +0.0000000 +0.0555556 +0.0000000 ]  0.004629630  spin +1 ----
BandDavidson: Iter:   0  Eband: -0.056639479466567
BandDavidson: Iter:   1  Eband: -0.090077964535987  dEband: -3.343849e-02  t[s]:    723.59
BandDavidson: Iter:   2  Eband: -0.101283089129156  dEband: -1.120512e-02  t[s]:    729.79
BandDavidson: Iter:   3  Eband: -0.105797613036870  dEband: -4.514524e-03  t[s]:    736.00
BandDavidson: Iter:   4  Eband: -0.109149774747891  dEband: -3.352162e-03  t[s]:    742.17
BandDavidson: Iter:   5  Eband: -0.110755278032626  dEband: -1.605503e-03  t[s]:    748.35
BandDavidson: Iter:   6  Eband: -0.111555635179579  dEband: -8.003571e-04  t[s]:    754.54
BandDavidson: Iter:   7  Eband: -0.111754014032279  dEband: -1.983789e-04  t[s]:    760.74
BandDavidson: Iter:   8  Eband: -0.111864816537688  dEband: -1.108025e-04  t[s]:    766.93
BandDavidson: Iter:   9  Eband: -0.112049454908325  dEband: -1.846384e-04  t[s]:    773.13
BandDavidson: Iter:  10  Eband: -0.112134947129106  dEband: -8.549222e-05  t[s]:    779.32
BandDavidson: Iter:  11  Eband: -0.112189284520869  dEband: -5.433739e-05  t[s]:    785.52
BandDavidson: Iter:  12  Eband: -0.112230190608497  dEband: -4.090609e-05  t[s]:    791.72
BandDavidson: Iter:  13  Eband: -0.112259327895028  dEband: -2.913729e-05  t[s]:    797.81
BandDavidson: Iter:  14  Eband: -0.112281948399798  dEband: -2.262050e-05  t[s]:    803.92
BandDavidson: Iter:  15  Eband: -0.112308921230944  dEband: -2.697283e-05  t[s]:    810.01
BandDavidson: Iter:  16  Eband: -0.112337557814272  dEband: -2.863658e-05  t[s]:    816.11
BandDavidson: Iter:  17  Eband: -0.112364916240500  dEband: -2.735843e-05  t[s]:    822.19
BandDavidson: Iter:  18  Eband: -0.112394743575510  dEband: -2.982734e-05  t[s]:    828.26
BandDavidson: Iter:  19  Eband: -0.112428252678231  dEband: -3.350910e-05  t[s]:    834.36
BandDavidson: Iter:  20  Eband: -0.112462491284952  dEband: -3.423861e-05  t[s]:    840.45
BandDavidson: Iter:  21  Eband: -0.112495585964444  dEband: -3.309468e-05  t[s]:    846.57
BandDavidson: Iter:  22  Eband: -0.112526087627840  dEband: -3.050166e-05  t[s]:    852.59
BandDavidson: Iter:  23  Eband: -0.112551235736994  dEband: -2.514811e-05  t[s]:    858.57
BandDavidson: Iter:  24  Eband: -0.112572303175545  dEband: -2.106744e-05  t[s]:    864.56
BandDavidson: Iter:  25  Eband: -0.112589367527364  dEband: -1.706435e-05  t[s]:    870.50
BandDavidson: Iter:  26  Eband: -0.112602788685515  dEband: -1.342116e-05  t[s]:    876.48
BandDavidson: Iter:  27  Eband: -0.112613700781016  dEband: -1.091210e-05  t[s]:    882.33
BandDavidson: Iter:  28  Eband: -0.112622709332760  dEband: -9.008552e-06  t[s]:    887.92
BandDavidson: Iter:  29  Eband: -0.112630227690452  dEband: -7.518358e-06  t[s]:    893.22
BandDavidson: Iter:  30  Eband: -0.112636600039752  dEband: -6.372349e-06  t[s]:    898.49
BandDavidson: Iter:  31  Eband: -0.112642140874971  dEband: -5.540835e-06  t[s]:    903.60
BandDavidson: Iter:  32  Eband: -0.112646889773420  dEband: -4.748898e-06  t[s]:    908.33
BandDavidson: Iter:  33  Eband: -0.112651029119429  dEband: -4.139346e-06  t[s]:    912.79
BandDavidson: Iter:  34  Eband: -0.112654702670221  dEband: -3.673551e-06  t[s]:    917.24
BandDavidson: Iter:  35  Eband: -0.112657958365259  dEband: -3.255695e-06  t[s]:    921.63
BandDavidson: Iter:  36  Eband: -0.112660887638691  dEband: -2.929273e-06  t[s]:    925.99
BandDavidson: Iter:  37  Eband: -0.112663475195832  dEband: -2.587557e-06  t[s]:    930.24
BandDavidson: Iter:  38  Eband: -0.112665760837185  dEband: -2.285641e-06  t[s]:    934.33
BandDavidson: Iter:  39  Eband: -0.112667742781369  dEband: -1.981944e-06  t[s]:    938.33
BandDavidson: Iter:  40  Eband: -0.112669472179307  dEband: -1.729398e-06  t[s]:    942.35
BandDavidson: Iter:  41  Eband: -0.112670995021700  dEband: -1.522842e-06  t[s]:    946.37
BandDavidson: Iter:  42  Eband: -0.112672334822637  dEband: -1.339801e-06  t[s]:    950.39
BandDavidson: Iter:  43  Eband: -0.112673525337560  dEband: -1.190515e-06  t[s]:    954.41
BandDavidson: Iter:  44  Eband: -0.112674579353052  dEband: -1.054015e-06  t[s]:    958.41
BandDavidson: Iter:  45  Eband: -0.112675511728165  dEband: -9.323751e-07  t[s]:    962.39
BandDavidson: Iter:  46  Eband: -0.112676335494915  dEband: -8.237667e-07  t[s]:    966.36
BandDavidson: Iter:  47  Eband: -0.112677056568306  dEband: -7.210734e-07  t[s]:    970.25
BandDavidson: Iter:  48  Eband: -0.112677691751679  dEband: -6.351834e-07  t[s]:    974.13
BandDavidson: Iter:  49  Eband: -0.112678256222901  dEband: -5.644712e-07  t[s]:    978.02
BandDavidson: Iter:  50  Eband: -0.112678751976103  dEband: -4.957532e-07  t[s]:    981.71
BandDavidson: Iter:  51  Eband: -0.112679190317482  dEband: -4.383414e-07  t[s]:    985.37
BandDavidson: Iter:  52  Eband: -0.112679574576210  dEband: -3.842587e-07  t[s]:    988.97
BandDavidson: Iter:  53  Eband: -0.112679911816831  dEband: -3.372406e-07  t[s]:    992.37
BandDavidson: Iter:  54  Eband: -0.112680205899920  dEband: -2.940831e-07  t[s]:    995.80
BandDavidson: Iter:  55  Eband: -0.112680464283243  dEband: -2.583833e-07  t[s]:    999.21
BandDavidson: Iter:  56  Eband: -0.112680689082861  dEband: -2.247996e-07  t[s]:   1002.54
BandDavidson: Iter:  57  Eband: -0.112680884501320  dEband: -1.954185e-07  t[s]:   1005.89
BandDavidson: Iter:  58  Eband: -0.112681053696146  dEband: -1.691948e-07  t[s]:   1009.23
BandDavidson: Iter:  59  Eband: -0.112681200031220  dEband: -1.463351e-07  t[s]:   1012.57
BandDavidson: Iter:  60  Eband: -0.112681326080633  dEband: -1.260494e-07  t[s]:   1015.89
BandDavidson: Iter:  61  Eband: -0.112681434032143  dEband: -1.079515e-07  t[s]:   1019.08
BandDavidson: Iter:  62  Eband: -0.112681526599414  dEband: -9.256727e-08  t[s]:   1022.27
BandDavidson: Iter:  63  Eband: -0.112681605712579  dEband: -7.911316e-08  t[s]:   1025.45
BandDavidson: Iter:  64  Eband: -0.112681673560579  dEband: -6.784800e-08  t[s]:   1028.56
BandDavidson: Iter:  65  Eband: -0.112681731332412  dEband: -5.777183e-08  t[s]:   1031.65
BandDavidson: Iter:  66  Eband: -0.112681780848819  dEband: -4.951641e-08  t[s]:   1034.70
BandDavidson: Iter:  67  Eband: -0.112681823090684  dEband: -4.224186e-08  t[s]:   1037.71
BandDavidson: Iter:  68  Eband: -0.112681859434158  dEband: -3.634347e-08  t[s]:   1040.71
BandDavidson: Iter:  69  Eband: -0.112681890440109  dEband: -3.100595e-08  t[s]:   1043.71
BandDavidson: Iter:  70  Eband: -0.112681917133483  dEband: -2.669337e-08  t[s]:   1046.63
BandDavidson: Iter:  71  Eband: -0.112681939848808  dEband: -2.271532e-08  t[s]:   1049.57
BandDavidson: Iter:  72  Eband: -0.112681959346752  dEband: -1.949794e-08  t[s]:   1052.49
BandDavidson: Iter:  73  Eband: -0.112681975891800  dEband: -1.654505e-08  t[s]:   1055.35
BandDavidson: Iter:  74  Eband: -0.112681990004361  dEband: -1.411256e-08  t[s]:   1058.21
BandDavidson: Iter:  75  Eband: -0.112682002011698  dEband: -1.200734e-08  t[s]:   1061.04
BandDavidson: Iter:  76  Eband: -0.112682012288178  dEband: -1.027648e-08  t[s]:   1063.87
BandDavidson: Iter:  77  Eband: -0.112682021028405  dEband: -8.740227e-09  t[s]:   1066.65
BandDavidson: Converged (dEband<1.000000e-08)

---- Minimization of quantum number:     3  [ +0.0000000 +0.0833333 +0.0000000 ]  0.004629630  spin +1 ----
BandDavidson: Iter:   0  Eband: -0.056565072324341
BandDavidson: Iter:   1  Eband: -0.089938145048054  dEband: -3.337307e-02  t[s]:   1076.74
BandDavidson: Iter:   2  Eband: -0.101046661923436  dEband: -1.110852e-02  t[s]:   1082.94
BandDavidson: Iter:   3  Eband: -0.105495254716069  dEband: -4.448593e-03  t[s]:   1089.14
BandDavidson: Iter:   4  Eband: -0.108515782719520  dEband: -3.020528e-03  t[s]:   1095.34
BandDavidson: Iter:   5  Eband: -0.109989217873149  dEband: -1.473435e-03  t[s]:   1101.54
BandDavidson: Iter:   6  Eband: -0.111006276330201  dEband: -1.017058e-03  t[s]:   1107.73
BandDavidson: Iter:   7  Eband: -0.111450961945398  dEband: -4.446856e-04  t[s]:   1113.91
BandDavidson: Iter:   8  Eband: -0.111690489905559  dEband: -2.395280e-04  t[s]:   1120.12
BandDavidson: Iter:   9  Eband: -0.111810655646751  dEband: -1.201657e-04  t[s]:   1126.29
BandDavidson: Iter:  10  Eband: -0.111895207165035  dEband: -8.455152e-05  t[s]:   1132.47
BandDavidson: Iter:  11  Eband: -0.112022969492402  dEband: -1.277623e-04  t[s]:   1138.66
BandDavidson: Iter:  12  Eband: -0.112106772034054  dEband: -8.380254e-05  t[s]:   1144.86
BandDavidson: Iter:  13  Eband: -0.112168549426065  dEband: -6.177739e-05  t[s]:   1150.87
BandDavidson: Iter:  14  Eband: -0.112219276799258  dEband: -5.072737e-05  t[s]:   1156.91
BandDavidson: Iter:  15  Eband: -0.112279306376576  dEband: -6.002958e-05  t[s]:   1162.95
BandDavidson: Iter:  16  Eband: -0.112339188389515  dEband: -5.988201e-05  t[s]:   1169.00
BandDavidson: Iter:  17  Eband: -0.112417799283274  dEband: -7.861089e-05  t[s]:   1175.05
BandDavidson: Iter:  18  Eband: -0.112477071212147  dEband: -5.927193e-05  t[s]:   1181.09
BandDavidson: Iter:  19  Eband: -0.112526626216835  dEband: -4.955500e-05  t[s]:   1187.16
BandDavidson: Iter:  20  Eband: -0.112570022184544  dEband: -4.339597e-05  t[s]:   1193.22
BandDavidson: Iter:  21  Eband: -0.112607158106566  dEband: -3.713592e-05  t[s]:   1199.27
BandDavidson: Iter:  22  Eband: -0.112637199996706  dEband: -3.004189e-05  t[s]:   1205.26
BandDavidson: Iter:  23  Eband: -0.112660403434551  dEband: -2.320344e-05  t[s]:   1211.23
BandDavidson: Iter:  24  Eband: -0.112678478164697  dEband: -1.807473e-05  t[s]:   1217.12
BandDavidson: Iter:  25  Eband: -0.112694052913116  dEband: -1.557475e-05  t[s]:   1223.03
BandDavidson: Iter:  26  Eband: -0.112706521999240  dEband: -1.246909e-05  t[s]:   1228.91
BandDavidson: Iter:  27  Eband: -0.112716716755288  dEband: -1.019476e-05  t[s]:   1234.81
BandDavidson: Iter:  28  Eband: -0.112725215394912  dEband: -8.498640e-06  t[s]:   1240.46
BandDavidson: Iter:  29  Eband: -0.112732199589905  dEband: -6.984195e-06  t[s]:   1245.85
BandDavidson: Iter:  30  Eband: -0.112738303251651  dEband: -6.103662e-06  t[s]:   1251.12
BandDavidson: Iter:  31  Eband: -0.112743793515418  dEband: -5.490264e-06  t[s]:   1256.17
BandDavidson: Iter:  32  Eband: -0.112748489995888  dEband: -4.696480e-06  t[s]:   1260.89
BandDavidson: Iter:  33  Eband: -0.112752370832444  dEband: -3.880837e-06  t[s]:   1265.35
BandDavidson: Iter:  34  Eband: -0.112755590175469  dEband: -3.219343e-06  t[s]:   1269.78
BandDavidson: Iter:  35  Eband: -0.112758338637099  dEband: -2.748462e-06  t[s]:   1274.24
BandDavidson: Iter:  36  Eband: -0.112760683650845  dEband: -2.345014e-06  t[s]:   1278.64
BandDavidson: Iter:  37  Eband: -0.112762587143916  dEband: -1.903493e-06  t[s]:   1282.91
BandDavidson: Iter:  38  Eband: -0.112764174068932  dEband: -1.586925e-06  t[s]:   1286.92
BandDavidson: Iter:  39  Eband: -0.112765542811860  dEband: -1.368743e-06  t[s]:   1290.95
BandDavidson: Iter:  40  Eband: -0.112766792411220  dEband: -1.249599e-06  t[s]:   1294.98
BandDavidson: Iter:  41  Eband: -0.112768010948988  dEband: -1.218538e-06  t[s]:   1298.97
BandDavidson: Iter:  42  Eband: -0.112769276221326  dEband: -1.265272e-06  t[s]:   1303.00
BandDavidson: Iter:  43  Eband: -0.112770607269858  dEband: -1.331049e-06  t[s]:   1307.00
BandDavidson: Iter:  44  Eband: -0.112771949640477  dEband: -1.342371e-06  t[s]:   1310.99
BandDavidson: Iter:  45  Eband: -0.112773221400330  dEband: -1.271760e-06  t[s]:   1314.96
BandDavidson: Iter:  46  Eband: -0.112774383150540  dEband: -1.161750e-06  t[s]:   1318.90
BandDavidson: Iter:  47  Eband: -0.112775434056730  dEband: -1.050906e-06  t[s]:   1322.78
BandDavidson: Iter:  48  Eband: -0.112776372363333  dEband: -9.383066e-07  t[s]:   1326.66
BandDavidson: Iter:  49  Eband: -0.112777202554672  dEband: -8.301913e-07  t[s]:   1330.47
BandDavidson: Iter:  50  Eband: -0.112777931634611  dEband: -7.290799e-07  t[s]:   1334.18
BandDavidson: Iter:  51  Eband: -0.112778567249957  dEband: -6.356153e-07  t[s]:   1337.84
BandDavidson: Iter:  52  Eband: -0.112779122001522  dEband: -5.547516e-07  t[s]:   1341.33
BandDavidson: Iter:  53  Eband: -0.112779603336993  dEband: -4.813355e-07  t[s]:   1344.77
BandDavidson: Iter:  54  Eband: -0.112780021538516  dEband: -4.182015e-07  t[s]:   1348.18
BandDavidson: Iter:  55  Eband: -0.112780382912061  dEband: -3.613735e-07  t[s]:   1351.55
BandDavidson: Iter:  56  Eband: -0.112780694653818  dEband: -3.117418e-07  t[s]:   1354.89
BandDavidson: Iter:  57  Eband: -0.112780964121545  dEband: -2.694677e-07  t[s]:   1358.24
BandDavidson: Iter:  58  Eband: -0.112781197992779  dEband: -2.338712e-07  t[s]:   1361.59
BandDavidson: Iter:  59  Eband: -0.112781403039491  dEband: -2.050467e-07  t[s]:   1364.89
BandDavidson: Iter:  60  Eband: -0.112781582181609  dEband: -1.791421e-07  t[s]:   1368.19
BandDavidson: Iter:  61  Eband: -0.112781740094327  dEband: -1.579127e-07  t[s]:   1371.36
BandDavidson: Iter:  62  Eband: -0.112781878130191  dEband: -1.380359e-07  t[s]:   1374.51
BandDavidson: Iter:  63  Eband: -0.112781998666240  dEband: -1.205360e-07  t[s]:   1377.63
BandDavidson: Iter:  64  Eband: -0.112782103761154  dEband: -1.050949e-07  t[s]:   1380.77
BandDavidson: Iter:  65  Eband: -0.112782195608839  dEband: -9.184769e-08  t[s]:   1383.84
BandDavidson: Iter:  66  Eband: -0.112782275550329  dEband: -7.994149e-08  t[s]:   1386.95
BandDavidson: Iter:  67  Eband: -0.112782344550038  dEband: -6.899971e-08  t[s]:   1389.92
BandDavidson: Iter:  68  Eband: -0.112782403934205  dEband: -5.938417e-08  t[s]:   1392.90
BandDavidson: Iter:  69  Eband: -0.112782455173452  dEband: -5.123925e-08  t[s]:   1395.82
BandDavidson: Iter:  70  Eband: -0.112782499264204  dEband: -4.409075e-08  t[s]:   1398.78
BandDavidson: Iter:  71  Eband: -0.112782537472118  dEband: -3.820791e-08  t[s]:   1401.70
BandDavidson: Iter:  72  Eband: -0.112782570440976  dEband: -3.296886e-08  t[s]:   1404.66
BandDavidson: Iter:  73  Eband: -0.112782599225328  dEband: -2.878435e-08  t[s]:   1407.59
BandDavidson: Iter:  74  Eband: -0.112782624128352  dEband: -2.490302e-08  t[s]:   1410.54
BandDavidson: Iter:  75  Eband: -0.112782645749400  dEband: -2.162105e-08  t[s]:   1413.40
BandDavidson: Iter:  76  Eband: -0.112782664305858  dEband: -1.855646e-08  t[s]:   1416.23
BandDavidson: Iter:  77  Eband: -0.112782680284957  dEband: -1.597910e-08  t[s]:   1419.05
BandDavidson: Iter:  78  Eband: -0.112782693985573  dEband: -1.370062e-08  t[s]:   1421.88
BandDavidson: Iter:  79  Eband: -0.112782705729958  dEband: -1.174439e-08  t[s]:   1424.70
BandDavidson: Iter:  80  Eband: -0.112782715733217  dEband: -1.000326e-08  t[s]:   1427.49
BandDavidson: Iter:  81  Eband: -0.112782724269311  dEband: -8.536094e-09  t[s]:   1430.24
BandDavidson: Converged (dEband<1.000000e-08)

---- Minimization of quantum number:     4  [ +0.0000000 +0.1111111 +0.0000000 ]  0.004629630  spin +1 ----
BandDavidson: Iter:   0  Eband: -0.056591119491037
BandDavidson: Iter:   1  Eband: -0.089920109967823  dEband: -3.332899e-02  t[s]:   1440.29
BandDavidson: Iter:   2  Eband: -0.101228792208690  dEband: -1.130868e-02  t[s]:   1446.45
BandDavidson: Iter:   3  Eband: -0.105624841869900  dEband: -4.396050e-03  t[s]:   1452.62
BandDavidson: Iter:   4  Eband: -0.108536948619751  dEband: -2.912107e-03  t[s]:   1458.78
BandDavidson: Iter:   5  Eband: -0.109738670303883  dEband: -1.201722e-03  t[s]:   1464.91
BandDavidson: Iter:   6  Eband: -0.110625908700938  dEband: -8.872384e-04  t[s]:   1471.05
BandDavidson: Iter:   7  Eband: -0.111068970781636  dEband: -4.430621e-04  t[s]:   1477.20
BandDavidson: Iter:   8  Eband: -0.111373362090643  dEband: -3.043913e-04  t[s]:   1483.35
BandDavidson: Iter:   9  Eband: -0.111611870524448  dEband: -2.385084e-04  t[s]:   1489.48
BandDavidson: Iter:  10  Eband: -0.111733372616323  dEband: -1.215021e-04  t[s]:   1495.62
BandDavidson: Iter:  11  Eband: -0.111878253636498  dEband: -1.448810e-04  t[s]:   1501.72
BandDavidson: Iter:  12  Eband: -0.111969598167344  dEband: -9.134453e-05  t[s]:   1507.86
BandDavidson: Iter:  13  Eband: -0.112038920534620  dEband: -6.932237e-05  t[s]:   1513.85
BandDavidson: Iter:  14  Eband: -0.112099513364668  dEband: -6.059283e-05  t[s]:   1519.85
BandDavidson: Iter:  15  Eband: -0.112187128508171  dEband: -8.761514e-05  t[s]:   1525.86
BandDavidson: Iter:  16  Eband: -0.112268205083203  dEband: -8.107658e-05  t[s]:   1531.86
BandDavidson: Iter:  17  Eband: -0.112337974152416  dEband: -6.976907e-05  t[s]:   1537.85
BandDavidson: Iter:  18  Eband: -0.112395845115113  dEband: -5.787096e-05  t[s]:   1543.84
BandDavidson: Iter:  19  Eband: -0.112441406731434  dEband: -4.556162e-05  t[s]:   1549.83
BandDavidson: Iter:  20  Eband: -0.112513531142424  dEband: -7.212441e-05  t[s]:   1555.82
BandDavidson: Iter:  21  Eband: -0.112598854952403  dEband: -8.532381e-05  t[s]:   1561.80
BandDavidson: Iter:  22  Eband: -0.112647320549573  dEband: -4.846560e-05  t[s]:   1567.71
BandDavidson: Iter:  23  Eband: -0.112681103626750  dEband: -3.378308e-05  t[s]:   1573.57
BandDavidson: Iter:  24  Eband: -0.112705806021060  dEband: -2.470239e-05  t[s]:   1579.44
BandDavidson: Iter:  25  Eband: -0.112725510609775  dEband: -1.970459e-05  t[s]:   1585.27
BandDavidson: Iter:  26  Eband: -0.112742138420464  dEband: -1.662781e-05  t[s]:   1591.11
BandDavidson: Iter:  27  Eband: -0.112756162310908  dEband: -1.402389e-05  t[s]:   1596.90
BandDavidson: Iter:  28  Eband: -0.112768078311478  dEband: -1.191600e-05  t[s]:   1602.56
BandDavidson: Iter:  29  Eband: -0.112778383761096  dEband: -1.030545e-05  t[s]:   1607.90
BandDavidson: Iter:  30  Eband: -0.112787463350340  dEband: -9.079589e-06  t[s]:   1613.09
BandDavidson: Iter:  31  Eband: -0.112795550077610  dEband: -8.086727e-06  t[s]:   1617.98
BandDavidson: Iter:  32  Eband: -0.112802479311638  dEband: -6.929234e-06  t[s]:   1622.71
BandDavidson: Iter:  33  Eband: -0.112808324182681  dEband: -5.844871e-06  t[s]:   1627.06
BandDavidson: Iter:  34  Eband: -0.112813224199201  dEband: -4.900017e-06  t[s]:   1631.43
BandDavidson: Iter:  35  Eband: -0.112817411013496  dEband: -4.186814e-06  t[s]:   1635.81
BandDavidson: Iter:  36  Eband: -0.112821032401814  dEband: -3.621388e-06  t[s]:   1640.18
BandDavidson: Iter:  37  Eband: -0.112824195052118  dEband: -3.162650e-06  t[s]:   1644.37
BandDavidson: Iter:  38  Eband: -0.112827090789206  dEband: -2.895737e-06  t[s]:   1648.49
BandDavidson: Iter:  39  Eband: -0.112830097749474  dEband: -3.006960e-06  t[s]:   1652.54
BandDavidson: Iter:  40  Eband: -0.112833328993053  dEband: -3.231244e-06  t[s]:   1656.46
BandDavidson: Iter:  41  Eband: -0.112836425719480  dEband: -3.096726e-06  t[s]:   1660.40
BandDavidson: Iter:  42  Eband: -0.112839210438384  dEband: -2.784719e-06  t[s]:   1664.34
BandDavidson: Iter:  43  Eband: -0.112841671329162  dEband: -2.460891e-06  t[s]:   1668.25
BandDavidson: Iter:  44  Eband: -0.112843826552455  dEband: -2.155223e-06  t[s]:   1672.14
BandDavidson: Iter:  45  Eband: -0.112845692525581  dEband: -1.865973e-06  t[s]:   1676.02
BandDavidson: Iter:  46  Eband: -0.112847320221923  dEband: -1.627696e-06  t[s]:   1679.88
BandDavidson: Iter:  47  Eband: -0.112848738076300  dEband: -1.417854e-06  t[s]:   1683.72
BandDavidson: Iter:  48  Eband: -0.112849962342201  dEband: -1.224266e-06  t[s]:   1687.46
BandDavidson: Iter:  49  Eband: -0.112851015878173  dEband: -1.053536e-06  t[s]:   1691.13
BandDavidson: Iter:  50  Eband: -0.112851923280582  dEband: -9.074024e-07  t[s]:   1694.72
BandDavidson: Iter:  51  Eband: -0.112852710149141  dEband: -7.868686e-07  t[s]:   1698.17
BandDavidson: Iter:  52  Eband: -0.112853399805802  dEband: -6.896567e-07  t[s]:   1701.65
BandDavidson: Iter:  53  Eband: -0.112853998029523  dEband: -5.982237e-07  t[s]:   1705.02
BandDavidson: Iter:  54  Eband: -0.112854512651043  dEband: -5.146215e-07  t[s]:   1708.38
BandDavidson: Iter:  55  Eband: -0.112854959985271  dEband: -4.473342e-07  t[s]:   1711.67
BandDavidson: Iter:  56  Eband: -0.112855349347295  dEband: -3.893620e-07  t[s]:   1714.94
BandDavidson: Iter:  57  Eband: -0.112855691261195  dEband: -3.419139e-07  t[s]:   1718.23
BandDavidson: Iter:  58  Eband: -0.112855989208732  dEband: -2.979475e-07  t[s]:   1721.51
BandDavidson: Iter:  59  Eband: -0.112856248895084  dEband: -2.596864e-07  t[s]:   1724.68
BandDavidson: Iter:  60  Eband: -0.112856475507099  dEband: -2.266120e-07  t[s]:   1727.77
BandDavidson: Iter:  61  Eband: -0.112856673869486  dEband: -1.983624e-07  t[s]:   1730.86
BandDavidson: Iter:  62  Eband: -0.112856847582857  dEband: -1.737134e-07  t[s]:   1733.94
BandDavidson: Iter:  63  Eband: -0.112857000285134  dEband: -1.527023e-07  t[s]:   1737.04
BandDavidson: Iter:  64  Eband: -0.112857134164074  dEband: -1.338789e-07  t[s]:   1740.06
BandDavidson: Iter:  65  Eband: -0.112857251767898  dEband: -1.176038e-07  t[s]:   1743.11
BandDavidson: Iter:  66  Eband: -0.112857355045277  dEband: -1.032774e-07  t[s]:   1746.07
BandDavidson: Iter:  67  Eband: -0.112857445794831  dEband: -9.074955e-08  t[s]:   1749.05
BandDavidson: Iter:  68  Eband: -0.112857525659036  dEband: -7.986420e-08  t[s]:   1752.01
BandDavidson: Iter:  69  Eband: -0.112857595806443  dEband: -7.014741e-08  t[s]:   1754.94
BandDavidson: Iter:  70  Eband: -0.112857657571061  dEband: -6.176462e-08  t[s]:   1757.83
BandDavidson: Iter:  71  Eband: -0.112857711954833  dEband: -5.438377e-08  t[s]:   1760.74
BandDavidson: Iter:  72  Eband: -0.112857759710842  dEband: -4.775601e-08  t[s]:   1763.63
BandDavidson: Iter:  73  Eband: -0.112857801687537  dEband: -4.197670e-08  t[s]:   1766.53
BandDavidson: Iter:  74  Eband: -0.112857838519797  dEband: -3.683226e-08  t[s]:   1769.43
BandDavidson: Iter:  75  Eband: -0.112857870938720  dEband: -3.241892e-08  t[s]:   1772.32
BandDavidson: Iter:  76  Eband: -0.112857899422592  dEband: -2.848387e-08  t[s]:   1775.24
BandDavidson: Iter:  77  Eband: -0.112857924437418  dEband: -2.501483e-08  t[s]:   1778.08
BandDavidson: Iter:  78  Eband: -0.112857946427230  dEband: -2.198981e-08  t[s]:   1780.95
BandDavidson: Iter:  79  Eband: -0.112857965720587  dEband: -1.929336e-08  t[s]:   1783.80
BandDavidson: Iter:  80  Eband: -0.112857982677717  dEband: -1.695713e-08  t[s]:   1786.66
BandDavidson: Iter:  81  Eband: -0.112857997573899  dEband: -1.489618e-08  t[s]:   1789.46
BandDavidson: Iter:  82  Eband: -0.112858010640190  dEband: -1.306629e-08  t[s]:   1792.29
BandDavidson: Iter:  83  Eband: -0.112858022095225  dEband: -1.145504e-08  t[s]:   1795.02
BandDavidson: Iter:  84  Eband: -0.112858032031618  dEband: -9.936393e-09  t[s]:   1797.74
BandDavidson: Converged (dEband<1.000000e-08)

---- Minimization of quantum number:     5  [ +0.0000000 +0.1388889 +0.0000000 ]  0.004629630  spin +1 ----
BandDavidson: Iter:   0  Eband: -0.056478298142295
BandDavidson: Iter:   1  Eband: -0.090010980140422  dEband: -3.353268e-02  t[s]:   1807.79
BandDavidson: Iter:   2  Eband: -0.101304604501073  dEband: -1.129362e-02  t[s]:   1813.94
BandDavidson: Iter:   3  Eband: -0.105651182300222  dEband: -4.346578e-03  t[s]:   1820.09
BandDavidson: Iter:   4  Eband: -0.108329867345920  dEband: -2.678685e-03  t[s]:   1826.24
BandDavidson: Iter:   5  Eband: -0.109670950154570  dEband: -1.341083e-03  t[s]:   1832.39
BandDavidson: Iter:   6  Eband: -0.110617420300034  dEband: -9.464701e-04  t[s]:   1838.54
BandDavidson: Iter:   7  Eband: -0.111135281497655  dEband: -5.178612e-04  t[s]:   1844.69
BandDavidson: Iter:   8  Eband: -0.111478188124778  dEband: -3.429066e-04  t[s]:   1850.85
BandDavidson: Iter:   9  Eband: -0.111631011770956  dEband: -1.528236e-04  t[s]:   1857.01
BandDavidson: Iter:  10  Eband: -0.111774193207852  dEband: -1.431814e-04  t[s]:   1863.15
BandDavidson: Iter:  11  Eband: -0.111922157150843  dEband: -1.479639e-04  t[s]:   1869.29
BandDavidson: Iter:  12  Eband: -0.112039983618091  dEband: -1.178265e-04  t[s]:   1875.45
BandDavidson: Iter:  13  Eband: -0.112138402703613  dEband: -9.841909e-05  t[s]:   1881.47
BandDavidson: Iter:  14  Eband: -0.112209845932024  dEband: -7.144323e-05  t[s]:   1887.50
BandDavidson: Iter:  15  Eband: -0.112264953788457  dEband: -5.510786e-05  t[s]:   1893.50
BandDavidson: Iter:  16  Eband: -0.112331868150666  dEband: -6.691436e-05  t[s]:   1899.45
BandDavidson: Iter:  17  Eband: -0.112401633897410  dEband: -6.976575e-05  t[s]:   1905.47
BandDavidson: Iter:  18  Eband: -0.112463310995021  dEband: -6.167710e-05  t[s]:   1911.48
BandDavidson: Iter:  19  Eband: -0.112515501774638  dEband: -5.219078e-05  t[s]:   1917.50
BandDavidson: Iter:  20  Eband: -0.112560973422744  dEband: -4.547165e-05  t[s]:   1923.50
BandDavidson: Iter:  21  Eband: -0.112601320001166  dEband: -4.034658e-05  t[s]:   1929.50
BandDavidson: Iter:  22  Eband: -0.112638113666719  dEband: -3.679367e-05  t[s]:   1935.51
BandDavidson: Iter:  23  Eband: -0.112671159843162  dEband: -3.304618e-05  t[s]:   1941.43
BandDavidson: Iter:  24  Eband: -0.112699382341520  dEband: -2.822250e-05  t[s]:   1947.35
BandDavidson: Iter:  25  Eband: -0.112724408719783  dEband: -2.502638e-05  t[s]:   1953.27
BandDavidson: Iter:  26  Eband: -0.112745965214460  dEband: -2.155649e-05  t[s]:   1959.15
BandDavidson: Iter:  27  Eband: -0.112764796737108  dEband: -1.883152e-05  t[s]:   1965.00
BandDavidson: Iter:  28  Eband: -0.112781309904062  dEband: -1.651317e-05  t[s]:   1970.66
BandDavidson: Iter:  29  Eband: -0.112795684294603  dEband: -1.437439e-05  t[s]:   1975.98
BandDavidson: Iter:  30  Eband: -0.112808034753289  dEband: -1.235046e-05  t[s]:   1981.21
BandDavidson: Iter:  31  Eband: -0.112818776141491  dEband: -1.074139e-05  t[s]:   1986.14
BandDavidson: Iter:  32  Eband: -0.112828046207962  dEband: -9.270066e-06  t[s]:   1990.85
BandDavidson: Iter:  33  Eband: -0.112836099051167  dEband: -8.052843e-06  t[s]:   1995.26
BandDavidson: Iter:  34  Eband: -0.112843206580225  dEband: -7.107529e-06  t[s]:   1999.63
BandDavidson: Iter:  35  Eband: -0.112849644003350  dEband: -6.437423e-06  t[s]:   2004.02
BandDavidson: Iter:  36  Eband: -0.112855439333699  dEband: -5.795330e-06  t[s]:   2008.33
BandDavidson: Iter:  37  Eband: -0.112860645069602  dEband: -5.205736e-06  t[s]:   2012.55
BandDavidson: Iter:  38  Eband: -0.112865298429212  dEband: -4.653360e-06  t[s]:   2016.71
BandDavidson: Iter:  39  Eband: -0.112869429314209  dEband: -4.130885e-06  t[s]:   2020.82
BandDavidson: Iter:  40  Eband: -0.112873080397331  dEband: -3.651083e-06  t[s]:   2024.81
BandDavidson: Iter:  41  Eband: -0.112876262693073  dEband: -3.182296e-06  t[s]:   2028.77
BandDavidson: Iter:  42  Eband: -0.112879021995731  dEband: -2.759303e-06  t[s]:   2032.68
BandDavidson: Iter:  43  Eband: -0.112881435076432  dEband: -2.413081e-06  t[s]:   2036.61
BandDavidson: Iter:  44  Eband: -0.112883537182603  dEband: -2.102106e-06  t[s]:   2040.51
BandDavidson: Iter:  45  Eband: -0.112885361833274  dEband: -1.824651e-06  t[s]:   2044.38
BandDavidson: Iter:  46  Eband: -0.112886944762440  dEband: -1.582929e-06  t[s]:   2048.26
BandDavidson: Iter:  47  Eband: -0.112888313251103  dEband: -1.368489e-06  t[s]:   2052.09
BandDavidson: Iter:  48  Eband: -0.112889500265216  dEband: -1.187014e-06  t[s]:   2055.82
BandDavidson: Iter:  49  Eband: -0.112890536216558  dEband: -1.035951e-06  t[s]:   2059.54
BandDavidson: Iter:  50  Eband: -0.112891437366377  dEband: -9.011498e-07  t[s]:   2063.13
BandDavidson: Iter:  51  Eband: -0.112892228239017  dEband: -7.908726e-07  t[s]:   2066.71
BandDavidson: Iter:  52  Eband: -0.112892919985272  dEband: -6.917463e-07  t[s]:   2070.13
BandDavidson: Iter:  53  Eband: -0.112893528217887  dEband: -6.082326e-07  t[s]:   2073.52
BandDavidson: Iter:  54  Eband: -0.112894068839793  dEband: -5.406219e-07  t[s]:   2076.87
BandDavidson: Iter:  55  Eband: -0.112894543623619  dEband: -4.747838e-07  t[s]:   2080.17
BandDavidson: Iter:  56  Eband: -0.112894965787288  dEband: -4.221637e-07  t[s]:   2083.41
BandDavidson: Iter:  57  Eband: -0.112895343860538  dEband: -3.780732e-07  t[s]:   2086.65
BandDavidson: Iter:  58  Eband: -0.112895681058981  dEband: -3.371984e-07  t[s]:   2089.86
BandDavidson: Iter:  59  Eband: -0.112895983354708  dEband: -3.022957e-07  t[s]:   2093.03
BandDavidson: Iter:  60  Eband: -0.112896253678690  dEband: -2.703240e-07  t[s]:   2096.18
BandDavidson: Iter:  61  Eband: -0.112896498282435  dEband: -2.446037e-07  t[s]:   2099.27
BandDavidson: Iter:  62  Eband: -0.112896718450428  dEband: -2.201680e-07  t[s]:   2102.37
BandDavidson: Iter:  63  Eband: -0.112896917618114  dEband: -1.991677e-07  t[s]:   2105.43
BandDavidson: Iter:  64  Eband: -0.112897098764180  dEband: -1.811461e-07  t[s]:   2108.48
BandDavidson: Iter:  65  Eband: -0.112897261183540  dEband: -1.624194e-07  t[s]:   2111.52
BandDavidson: Iter:  66  Eband: -0.112897408914779  dEband: -1.477312e-07  t[s]:   2114.49
BandDavidson: Iter:  67  Eband: -0.112897542122061  dEband: -1.332073e-07  t[s]:   2117.47
BandDavidson: Iter:  68  Eband: -0.112897663141530  dEband: -1.210195e-07  t[s]:   2120.44
BandDavidson: Iter:  69  Eband: -0.112897772663105  dEband: -1.095216e-07  t[s]:   2123.41
BandDavidson: Iter:  70  Eband: -0.112897872117261  dEband: -9.945416e-08  t[s]:   2126.38
BandDavidson: Iter:  71  Eband: -0.112897961703283  dEband: -8.958602e-08  t[s]:   2129.36
BandDavidson: Iter:  72  Eband: -0.112898042849475  dEband: -8.114619e-08  t[s]:   2132.33
BandDavidson: Iter:  73  Eband: -0.112898115754345  dEband: -7.290487e-08  t[s]:   2135.31
BandDavidson: Iter:  74  Eband: -0.112898181588810  dEband: -6.583446e-08  t[s]:   2138.28
BandDavidson: Iter:  75  Eband: -0.112898240251510  dEband: -5.866270e-08  t[s]:   2141.23
BandDavidson: Iter:  76  Eband: -0.112898291953791  dEband: -5.170228e-08  t[s]:   2144.19
BandDavidson: Iter:  77  Eband: -0.112898337380732  dEband: -4.542694e-08  t[s]:   2147.05
BandDavidson: Iter:  78  Eband: -0.112898377951646  dEband: -4.057091e-08  t[s]:   2149.92
BandDavidson: Iter:  79  Eband: -0.112898414017838  dEband: -3.606619e-08  t[s]:   2152.78
BandDavidson: Iter:  80  Eband: -0.112898446178315  dEband: -3.216048e-08  t[s]:   2155.62
BandDavidson: Iter:  81  Eband: -0.112898474669325  dEband: -2.849101e-08  t[s]:   2158.40
BandDavidson: Iter:  82  Eband: -0.112898500113141  dEband: -2.544382e-08  t[s]:   2161.20
BandDavidson: Iter:  83  Eband: -0.112898522698610  dEband: -2.258547e-08  t[s]:   2163.93
BandDavidson: Iter:  84  Eband: -0.112898542845111  dEband: -2.014650e-08  t[s]:   2166.67
BandDavidson: Iter:  85  Eband: -0.112898560789202  dEband: -1.794409e-08  t[s]:   2169.38
BandDavidson: Iter:  86  Eband: -0.112898576800569  dEband: -1.601137e-08  t[s]:   2172.12
BandDavidson: Iter:  87  Eband: -0.112898591040605  dEband: -1.424004e-08  t[s]:   2174.84
BandDavidson: Iter:  88  Eband: -0.112898603746330  dEband: -1.270573e-08  t[s]:   2177.52
BandDavidson: Iter:  89  Eband: -0.112898615033278  dEband: -1.128695e-08  t[s]:   2180.20
BandDavidson: Iter:  90  Eband: -0.112898625121454  dEband: -1.008818e-08  t[s]:   2182.83
BandDavidson: Iter:  91  Eband: -0.112898634058322  dEband: -8.936868e-09  t[s]:   2185.52
BandDavidson: Converged (dEband<1.000000e-08)
Setting wave functions to eigenvectors of Hamiltonian
	FillingsUpdate:  mu: -0.085955880  nElectrons: 121.000000  magneticMoment: [ Abs: 0.18156  Tot: -0.18056 ]

Dumping 'Na-0.319.dosUp' ... done.
Dumping 'Na-0.319.dosDn' ... done.
End date and time: Thu Mar 31 22:24:05 2022  (Duration: 0-0:46:47.03)
Done!
