Second Layer Distance is 0.292

--------------------------------------------------------------------------
The library attempted to open the following supporting CUDA libraries,
but each of them failed.  CUDA-aware support is disabled.
libcuda.so.1: cannot open shared object file: No such file or directory
libcuda.dylib: cannot open shared object file: No such file or directory
/usr/lib64/libcuda.so.1: cannot open shared object file: No such file or directory
/usr/lib64/libcuda.dylib: cannot open shared object file: No such file or directory
If you are not interested in CUDA-aware support, then run with
--mca opal_warn_on_missing_libcuda 0 to suppress this message.  If you are interested
in CUDA-aware support, then try setting LD_LIBRARY_PATH to the location
of libcuda.so.1 to get passed this issue.
--------------------------------------------------------------------------
--------------------------------------------------------------------------
No OpenFabrics connection schemes reported that they were able to be
used on a specific port.  As such, the openib BTL (OpenFabrics
support) will be disabled for this port.

  Local host:           d-4-12-3
  Local device:         mlx5_1
  Local port:           1
  CPCs attempted:       rdmacm, udcm
--------------------------------------------------------------------------

*************** JDFTx 1.6.0 (git hash 42ebbcc2) ***************

Start date and time: Thu Mar 31 21:37:18 2022
Executable jdftx with command-line: -i Moire.dos.in
Running on hosts (process indices):  d-4-12-3 (0-37)
Divided in process groups (process indices):  0 (0)  1 (1)  2 (2)  3 (3)  4 (4)  5 (5)  6 (6)  7 (7)  8 (8)  9 (9)  10 (10)  11 (11)  12 (12)  13 (13)  14 (14)  15 (15)  16 (16)  17 (17)  18 (18)  19 (19)  20 (20)  21 (21)  22 (22)  23 (23)  24 (24)  25 (25)  26 (26)  27 (27)  28 (28)  29 (29)  30 (30)  31 (31)  32 (32)  33 (33)  34 (34)  35 (35)  36 (36)  37 (37)
Resource initialization completed at t[s]:      0.00
Run totals: 38 processes, 48 threads, 0 GPUs


Input parsed successfully to the following command list (including defaults):

basis kpoint-dependent
coords-type Lattice
core-overlap-check vector
coulomb-interaction Slab 001
davidson-band-ratio 1.1
dump End DOS
dump-name Na-0.292.$VAR
elec-cutoff 20
elec-eigen-algo Davidson
elec-ex-corr gga-PBE
elec-initial-magnetization 0.100000 no
elec-smearing Fermi 1e-05
electronic-minimize  \
	dirUpdateScheme      FletcherReeves \
	linminMethod         DirUpdateRecommended \
	nIterations          100 \
	history              15 \
	knormThreshold       0 \
	energyDiffThreshold  1e-08 \
	nEnergyDiff          2 \
	alphaTstart          1 \
	alphaTmin            1e-10 \
	updateTestStepSize   yes \
	alphaTreduceFactor   0.1 \
	alphaTincreaseFactor 3 \
	nAlphaAdjustMax      3 \
	wolfeEnergy          0.0001 \
	wolfeGradient        0.9 \
	fdTest               no
exchange-regularization WignerSeitzTruncated
fix-electron-density ../Na-0.292.$VAR
fluid None
fluid-ex-corr (null) lda-PZ
fluid-gummel-loop 10 1.000000e-05
fluid-minimize  \
	dirUpdateScheme      PolakRibiere \
	linminMethod         DirUpdateRecommended \
	nIterations          100 \
	history              15 \
	knormThreshold       0 \
	energyDiffThreshold  0 \
	nEnergyDiff          2 \
	alphaTstart          1 \
	alphaTmin            1e-10 \
	updateTestStepSize   yes \
	alphaTreduceFactor   0.1 \
	alphaTincreaseFactor 3 \
	nAlphaAdjustMax      3 \
	wolfeEnergy          0.0001 \
	wolfeGradient        0.9 \
	fdTest               no
fluid-solvent H2O 55.338 ScalarEOS \
	epsBulk 78.4 \
	pMol 0.92466 \
	epsInf 1.77 \
	Pvap 1.06736e-10 \
	sigmaBulk 4.62e-05 \
	Rvdw 2.61727 \
	Res 1.42 \
	tauNuc 343133 \
	poleEl 15 7 1
forces-output-coords Positions
ion N   0.952380952380952   0.761904761904762   0.000000000000000 0
ion N   1.428571428571428   1.285714285714286   0.292000000000000 0
ion N   0.380952380952381   0.904761904761905   0.000000000000000 0
ion N   0.714285714285714   1.142857142857143   0.292000000000000 0
ion N   0.523809523809524   0.619047619047619   0.000000000000000 0
ion N   1.000000000000000   1.000000000000000   0.292000000000000 0
ion N   0.666666666666667   0.333333333333333   0.000000000000000 0
ion N   1.285714285714286   0.857142857142857   0.292000000000000 0
ion N   0.809523809523810   0.047619047619048   0.000000000000000 0
ion N   1.571428571428571   0.714285714285714   0.292000000000000 0
ion N   0.095238095238095   0.476190476190476   0.000000000000000 0
ion N   0.238095238095238   0.190476190476190   0.000000000000000 0
ion N   0.857142857142857   0.571428571428571   0.292000000000000 0
ion N   1.142857142857143   0.428571428571429   0.292000000000000 0
ion B   0.571428571428572   0.857142857142857   0.000000000000000 0
ion B   0.952380952380952   1.190476190476190   0.292000000000000 0
ion B   0.714285714285714   0.571428571428571   0.000000000000000 0
ion B   1.238095238095238   1.047619047619047   0.292000000000000 0
ion B   0.857142857142857   0.285714285714286   0.000000000000000 0
ion B   1.523809523809524   0.904761904761905   0.292000000000000 0
ion B   0.142857142857143   0.714285714285714   0.000000000000000 0
ion B   0.285714285714286   0.428571428571429   0.000000000000000 0
ion B   0.809523809523810   0.761904761904762   0.292000000000000 0
ion B   0.428571428571429   0.142857142857143   0.000000000000000 0
ion B   1.095238095238095   0.619047619047619   0.292000000000000 0
ion B   1.380952380952381   0.476190476190476   0.292000000000000 0
ion B   0.000000000000000   0.000000000000000   0.000000000000000 0
ion B   0.666666666666667   0.333333333333333   0.292000000000000 0
ion Na   0.333333333300000   0.666666666600000   0.146000000000000 0
ion-species SG15/$ID_ONCV_PBE.upf
ion-width 0
ionic-minimize  \
	dirUpdateScheme      L-BFGS \
	linminMethod         DirUpdateRecommended \
	nIterations          0 \
	history              15 \
	knormThreshold       0.0001 \
	energyDiffThreshold  1e-06 \
	nEnergyDiff          2 \
	alphaTstart          1 \
	alphaTmin            1e-10 \
	updateTestStepSize   yes \
	alphaTreduceFactor   0.1 \
	alphaTincreaseFactor 3 \
	nAlphaAdjustMax      3 \
	wolfeEnergy          0.0001 \
	wolfeGradient        0.9 \
	fdTest               no
kpoint   0.000000000000   0.000000000000   0.000000000000  1.00000000000000
kpoint-folding 36 36 1 
latt-move-scale 1 1 1
latt-scale 1 1 1 
lattice  \
	 -11.818700000000000    2.363740000000000    0.000000000000000  \
	   4.094120000000000  -12.282400000000001    0.000000000000000  \
	   0.000000000000000    0.000000000000000   40.000000000000000 
lattice-minimize  \
	dirUpdateScheme      L-BFGS \
	linminMethod         DirUpdateRecommended \
	nIterations          0 \
	history              15 \
	knormThreshold       0 \
	energyDiffThreshold  1e-06 \
	nEnergyDiff          2 \
	alphaTstart          1 \
	alphaTmin            1e-10 \
	updateTestStepSize   yes \
	alphaTreduceFactor   0.1 \
	alphaTincreaseFactor 3 \
	nAlphaAdjustMax      3 \
	wolfeEnergy          0.0001 \
	wolfeGradient        0.9 \
	fdTest               no
lcao-params -1 1e-06 1e-05
pcm-variant GLSSA13
spintype z-spin
subspace-rotation-factor 1 yes
symmetries automatic
symmetry-threshold 0.0001
van-der-waals D3



---------- Setting up symmetries ----------

Found 24 point-group symmetries of the bravais lattice
Found 6 space-group symmetries with basis
Applied RMS atom displacement 1.31765e-10 bohrs to make symmetries exact.

---------- Initializing the Grid ----------
R = 
[     -11.8187      2.36374            0  ]
[      4.09412     -12.2824            0  ]
[            0            0           40  ]
unit cell volume = 5419.38
G =
[  -0.569604   -0.10962          0  ]
[  -0.189867    -0.5481          0  ]
[          0          0    0.15708  ]
Minimum fftbox size, Smin = [  52  52  164  ]
Chosen fftbox size, S = [  54  54  168  ]

---------- Exchange Correlation functional ----------
Initalized PBE GGA exchange.
Initalized PBE GGA correlation.

---------- Setting up pseudopotentials ----------
Width of ionic core gaussian charges (only for fluid interactions / plotting) set to 0

Reading pseudopotential file '/home/gridsan/aligho/DFT/build-Nov24/pseudopotentials/SG15/N_ONCV_PBE.upf':
  'N' pseudopotential, 'PBE' functional
  Generated using ONCVPSP code by D. R. Hamann
  Author: Martin Schlipf and Francois Gygi  Date: 150915.
  5 valence electrons, 2 orbitals, 4 projectors, 1058 radial grid points, with lMax = 1
  Transforming local potential to a uniform radial grid of dG=0.02 with 1514 points.
  Transforming nonlocal projectors to a uniform radial grid of dG=0.02 with 432 points.
    2S    l: 0   occupation:  2.0   eigenvalue: -0.682907
    2P    l: 1   occupation:  3.0   eigenvalue: -0.260548
  Transforming atomic orbitals to a uniform radial grid of dG=0.02 with 432 points.
  Core radius for overlap checks: 1.35 bohrs.
  Reading pulay file /home/gridsan/aligho/DFT/build-Nov24/pseudopotentials/SG15/N_ONCV_PBE.pulay ... using dE_dnG = -2.956256e-02 computed for Ecut = 20.

Reading pseudopotential file '/home/gridsan/aligho/DFT/build-Nov24/pseudopotentials/SG15/B_ONCV_PBE.upf':
  'B' pseudopotential, 'PBE' functional
  Generated using ONCVPSP code by D. R. Hamann
  Author: Martin Schlipf and Francois Gygi  Date: 150915.
  3 valence electrons, 2 orbitals, 4 projectors, 1534 radial grid points, with lMax = 1
  Transforming local potential to a uniform radial grid of dG=0.02 with 1514 points.
  Transforming nonlocal projectors to a uniform radial grid of dG=0.02 with 432 points.
    2S    l: 0   occupation:  2.0   eigenvalue: -0.347027
    2P    l: 1   occupation:  1.0   eigenvalue: -0.132548
  Transforming atomic orbitals to a uniform radial grid of dG=0.02 with 432 points.
  Core radius for overlap checks: 1.60 bohrs.
  Reading pulay file /home/gridsan/aligho/DFT/build-Nov24/pseudopotentials/SG15/B_ONCV_PBE.pulay ... using dE_dnG = -3.748568e-04 computed for Ecut = 20.

Reading pseudopotential file '/home/gridsan/aligho/DFT/build-Nov24/pseudopotentials/SG15/Na_ONCV_PBE.upf':
  'Na' pseudopotential, 'PBE' functional
  Generated using ONCVPSP code by D. R. Hamann
  Author: Martin Schlipf and Francois Gygi  Date: 150915.
  9 valence electrons, 3 orbitals, 4 projectors, 1992 radial grid points, with lMax = 1
  Transforming local potential to a uniform radial grid of dG=0.02 with 1514 points.
  Transforming nonlocal projectors to a uniform radial grid of dG=0.02 with 432 points.
    2S    l: 0   occupation:  2.0   eigenvalue: -2.085640
    2P    l: 1   occupation:  6.0   eigenvalue: -1.053708
    3S    l: 0   occupation:  1.0   eigenvalue: -0.100838
  Transforming atomic orbitals to a uniform radial grid of dG=0.02 with 432 points.
  Core radius for overlap checks: 2.01 bohrs.
  Reading pulay file /home/gridsan/aligho/DFT/build-Nov24/pseudopotentials/SG15/Na_ONCV_PBE.pulay ... using dE_dnG = -2.946487e-03 computed for Ecut = 20.

Initialized 3 species with 29 total atoms.

Folded 1 k-points by 36x36x1 to 1296 k-points.

---------- Setting up k-points, bands, fillings ----------
Adding inversion symmetry to k-mesh for non-inversion-symmetric unit cell.
Reduced to 127 k-points under symmetry. 
Computing the number of bands and number of electrons
Calculating initial fillings.
nElectrons: 121.000000   nBands: 117   nStates: 254

----- Setting up reduced wavefunction bases (one per k-point) -----
average nbasis = 23152.266 , ideal nbasis = 23152.016

----- Initializing Supercell corresponding to k-point mesh -----
Lattice vector linear combinations in supercell:
[  36   0   0  ]
[   0  36   0  ]
[   0   0   1  ]
Supercell lattice vectors:
[  -425.473  85.0946  0  ]
[  147.388  -442.166  0  ]
[  0  0  40  ]

---------- Setting up coulomb interaction ----------
Initialized slab truncation along lattice direction 001

Initializing DFT-D3 calculator:
	Parameters set for gga-PBE functional
	s6:  1.000  s_r6:  1.217
	s8:  0.722  s_r8:  1.000
	Per-atom parameters loaded for:
	 N:  sqrtQ[a0]:  2.712  Rcov[a0]:  1.342  CN: [ 0.00 0.99 2.01 2.99 ]
	 B:  sqrtQ[a0]:  3.644  Rcov[a0]:  1.455  CN: [ 0.00 0.97 1.94 2.91 4.59 ]
	Na:  sqrtQ[a0]:  6.586  Rcov[a0]:  2.646  CN: [ 0.00 0.97 ]

---------- Setting up 2D ewald sum ----------
Optimum gaussian width for ewald sums = 6.943804 bohr.
Real space sums over 289 unit cells with max indices [  8  8  0  ]
Reciprocal space sums over 81 terms with max indices [  4  4  0  ]

Computing DFT-D3 correction:
# coordination-number N 3.142 3.142 3.194 3.142 3.194 3.140 3.140 3.194 3.142 3.194 3.194 3.142 3.142 3.194
# coordination-number B 3.421 3.348 3.348 3.348 3.348 3.421 3.421 3.421 3.348 3.348 3.421 3.421 3.344 3.344
# coordination-number Na 0.943
# diagonal-C6 N 15.61 15.61 15.60 15.61 15.60 15.61 15.61 15.60 15.61 15.60 15.60 15.61 15.61 15.60
# diagonal-C6 B 31.41 31.44 31.44 31.44 31.44 31.41 31.41 31.41 31.44 31.44 31.41 31.41 31.44 31.44
# diagonal-C6 Na 204.49
EvdW_6 =   -0.031630
EvdW_8 =   -0.030286

---------- Allocating electronic variables ----------
Reading n_up from file '../Na-0.292.n_up' ... done
Reading n_dn from file '../Na-0.292.n_dn' ... done
Initializing wave functions:  linear combination of atomic orbitals
[d-4-12-3:48445] 37 more processes have sent help message help-mpi-common-cuda.txt / dlopen failed
[d-4-12-3:48445] Set MCA parameter "orte_base_help_aggregate" to 0 to see all help / error messages
[d-4-12-3:48445] 37 more processes have sent help message help-mpi-btl-openib-cpc-base.txt / no cpcs for port


---- Citations for features of the code used in this run ----

   Software package:
      R. Sundararaman, K. Letchworth-Weaver, K.A. Schwarz, D. Gunceler, Y. Ozhabes and T.A. Arias, 'JDFTx: software for joint density-functional theory', SoftwareX 6, 278 (2017)

   gga-PBE exchange-correlation functional:
      J.P. Perdew, K. Burke and M. Ernzerhof, Phys. Rev. Lett. 77, 3865 (1996)

   Pseudopotentials:
      M Schlipf and F Gygi, Comput. Phys. Commun. 196, 36 (2015)

   Truncated Coulomb potentials:
      R. Sundararaman and T.A. Arias, Phys. Rev. B 87, 165122 (2013)

   DFT-D3 dispersion correction:
      S. Grimme, J. Antony, S. Ehrlich and H. Krieg, J. Chem. Phys. 132, 154104 (2010)

   Total energy minimization with Auxiliary Hamiltonian:
      C. Freysoldt, S. Boeck, and J. Neugebauer, Phys. Rev. B 79, 241103(R) (2009)

   Linear-tetrahedron sampling for density of states:
      G. Lehmann and M. Taut, Phys. status solidi (b) 54, 469 (1972)

This list may not be complete. Please suggest additional citations or
report any other bugs at https://github.com/shankar1729/jdftx/issues

Initialization completed successfully at t[s]:     49.48


----------- Band structure minimization -------------
Minimization will be done independently for each quantum number.

---- Minimization of quantum number:     0  [ +0.0000000 +0.0000000 +0.0000000 ]  0.000771605  spin +1 ----
BandDavidson: Iter:   0  Eband: -0.009746555924697
BandDavidson: Iter:   1  Eband: -0.015324970295175  dEband: -5.578414e-03  t[s]:     60.25
BandDavidson: Iter:   2  Eband: -0.017224490351301  dEband: -1.899520e-03  t[s]:     66.58
BandDavidson: Iter:   3  Eband: -0.017931394009867  dEband: -7.069037e-04  t[s]:     72.88
BandDavidson: Iter:   4  Eband: -0.018519718630602  dEband: -5.883246e-04  t[s]:     79.18
BandDavidson: Iter:   5  Eband: -0.018699528632810  dEband: -1.798100e-04  t[s]:     85.48
BandDavidson: Iter:   6  Eband: -0.018820689792526  dEband: -1.211612e-04  t[s]:     91.81
BandDavidson: Iter:   7  Eband: -0.018895126632096  dEband: -7.443684e-05  t[s]:     98.15
BandDavidson: Iter:   8  Eband: -0.018930730422262  dEband: -3.560379e-05  t[s]:    104.49
BandDavidson: Iter:   9  Eband: -0.018966628640515  dEband: -3.589822e-05  t[s]:    110.83
BandDavidson: Iter:  10  Eband: -0.019006065093469  dEband: -3.943645e-05  t[s]:    117.17
BandDavidson: Iter:  11  Eband: -0.019027442259302  dEband: -2.137717e-05  t[s]:    123.51
BandDavidson: Iter:  12  Eband: -0.019038609652999  dEband: -1.116739e-05  t[s]:    129.82
BandDavidson: Iter:  13  Eband: -0.019045431047107  dEband: -6.821394e-06  t[s]:    136.09
BandDavidson: Iter:  14  Eband: -0.019050489760120  dEband: -5.058713e-06  t[s]:    142.32
BandDavidson: Iter:  15  Eband: -0.019054521402656  dEband: -4.031643e-06  t[s]:    148.54
BandDavidson: Iter:  16  Eband: -0.019057837148952  dEband: -3.315746e-06  t[s]:    154.75
BandDavidson: Iter:  17  Eband: -0.019060639366992  dEband: -2.802218e-06  t[s]:    160.98
BandDavidson: Iter:  18  Eband: -0.019063057870819  dEband: -2.418504e-06  t[s]:    167.21
BandDavidson: Iter:  19  Eband: -0.019065186495058  dEband: -2.128624e-06  t[s]:    173.43
BandDavidson: Iter:  20  Eband: -0.019067145891074  dEband: -1.959396e-06  t[s]:    179.66
BandDavidson: Iter:  21  Eband: -0.019068959743349  dEband: -1.813852e-06  t[s]:    185.89
BandDavidson: Iter:  22  Eband: -0.019071974749568  dEband: -3.015006e-06  t[s]:    191.92
BandDavidson: Iter:  23  Eband: -0.019075316126406  dEband: -3.341377e-06  t[s]:    197.95
BandDavidson: Iter:  24  Eband: -0.019077876127104  dEband: -2.560001e-06  t[s]:    204.00
BandDavidson: Iter:  25  Eband: -0.019079869353238  dEband: -1.993226e-06  t[s]:    210.02
BandDavidson: Iter:  26  Eband: -0.019081453109554  dEband: -1.583756e-06  t[s]:    216.05
BandDavidson: Iter:  27  Eband: -0.019082695812463  dEband: -1.242703e-06  t[s]:    222.01
BandDavidson: Iter:  28  Eband: -0.019083664189775  dEband: -9.683773e-07  t[s]:    227.81
BandDavidson: Iter:  29  Eband: -0.019084414019439  dEband: -7.498297e-07  t[s]:    233.39
BandDavidson: Iter:  30  Eband: -0.019084994649361  dEband: -5.806299e-07  t[s]:    238.65
BandDavidson: Iter:  31  Eband: -0.019085444052064  dEband: -4.494027e-07  t[s]:    243.61
BandDavidson: Iter:  32  Eband: -0.019085794938242  dEband: -3.508862e-07  t[s]:    248.22
BandDavidson: Iter:  33  Eband: -0.019086071481989  dEband: -2.765437e-07  t[s]:    252.75
BandDavidson: Iter:  34  Eband: -0.019086290498355  dEband: -2.190164e-07  t[s]:    257.26
BandDavidson: Iter:  35  Eband: -0.019086465274386  dEband: -1.747760e-07  t[s]:    261.76
BandDavidson: Iter:  36  Eband: -0.019086604448241  dEband: -1.391739e-07  t[s]:    266.20
BandDavidson: Iter:  37  Eband: -0.019086715078943  dEband: -1.106307e-07  t[s]:    270.41
BandDavidson: Iter:  38  Eband: -0.019086803072396  dEband: -8.799345e-08  t[s]:    274.49
BandDavidson: Iter:  39  Eband: -0.019086873518950  dEband: -7.044655e-08  t[s]:    278.54
BandDavidson: Iter:  40  Eband: -0.019086930126305  dEband: -5.660736e-08  t[s]:    282.58
BandDavidson: Iter:  41  Eband: -0.019086976002230  dEband: -4.587592e-08  t[s]:    286.62
BandDavidson: Iter:  42  Eband: -0.019087013318005  dEband: -3.731578e-08  t[s]:    290.65
BandDavidson: Iter:  43  Eband: -0.019087043690729  dEband: -3.037272e-08  t[s]:    294.66
BandDavidson: Iter:  44  Eband: -0.019087068417885  dEband: -2.472716e-08  t[s]:    298.64
BandDavidson: Iter:  45  Eband: -0.019087088543848  dEband: -2.012596e-08  t[s]:    302.65
BandDavidson: Iter:  46  Eband: -0.019087104942098  dEband: -1.639825e-08  t[s]:    306.65
BandDavidson: Iter:  47  Eband: -0.019087118296843  dEband: -1.335475e-08  t[s]:    310.48
BandDavidson: Iter:  48  Eband: -0.019087129187759  dEband: -1.089092e-08  t[s]:    314.32
BandDavidson: Iter:  49  Eband: -0.019087138095768  dEband: -8.908009e-09  t[s]:    318.12
BandDavidson: Converged (dEband<1.000000e-08)

---- Minimization of quantum number:     1  [ +0.0000000 +0.0277778 +0.0000000 ]  0.004629630  spin +1 ----
BandDavidson: Iter:   0  Eband: -0.058512831079272
BandDavidson: Iter:   1  Eband: -0.091913935012775  dEband: -3.340110e-02  t[s]:    328.33
BandDavidson: Iter:   2  Eband: -0.103337528533660  dEband: -1.142359e-02  t[s]:    334.61
BandDavidson: Iter:   3  Eband: -0.107398387969500  dEband: -4.060859e-03  t[s]:    340.87
BandDavidson: Iter:   4  Eband: -0.110988640596233  dEband: -3.590253e-03  t[s]:    347.13
BandDavidson: Iter:   5  Eband: -0.112239620316479  dEband: -1.250980e-03  t[s]:    353.40
BandDavidson: Iter:   6  Eband: -0.113334423442387  dEband: -1.094803e-03  t[s]:    359.64
BandDavidson: Iter:   7  Eband: -0.113701771624776  dEband: -3.673482e-04  t[s]:    365.88
BandDavidson: Iter:   8  Eband: -0.113934310490205  dEband: -2.325389e-04  t[s]:    372.11
BandDavidson: Iter:   9  Eband: -0.114047912904449  dEband: -1.136024e-04  t[s]:    378.36
BandDavidson: Iter:  10  Eband: -0.114113997723866  dEband: -6.608482e-05  t[s]:    384.63
BandDavidson: Iter:  11  Eband: -0.114158791438806  dEband: -4.479371e-05  t[s]:    390.88
BandDavidson: Iter:  12  Eband: -0.114191504343895  dEband: -3.271291e-05  t[s]:    397.09
BandDavidson: Iter:  13  Eband: -0.114216871942958  dEband: -2.536760e-05  t[s]:    403.26
BandDavidson: Iter:  14  Eband: -0.114237407149168  dEband: -2.053521e-05  t[s]:    409.39
BandDavidson: Iter:  15  Eband: -0.114255151815488  dEband: -1.774467e-05  t[s]:    415.52
BandDavidson: Iter:  16  Eband: -0.114271665707103  dEband: -1.651389e-05  t[s]:    421.67
BandDavidson: Iter:  17  Eband: -0.114288864605565  dEband: -1.719890e-05  t[s]:    427.80
BandDavidson: Iter:  18  Eband: -0.114308678281940  dEband: -1.981368e-05  t[s]:    433.94
BandDavidson: Iter:  19  Eband: -0.114330231849244  dEband: -2.155357e-05  t[s]:    440.11
BandDavidson: Iter:  20  Eband: -0.114350765192764  dEband: -2.053334e-05  t[s]:    446.26
BandDavidson: Iter:  21  Eband: -0.114375310764736  dEband: -2.454557e-05  t[s]:    452.48
BandDavidson: Iter:  22  Eband: -0.114400567702758  dEband: -2.525694e-05  t[s]:    458.50
BandDavidson: Iter:  23  Eband: -0.114420897096322  dEband: -2.032939e-05  t[s]:    464.51
BandDavidson: Iter:  24  Eband: -0.114436911562679  dEband: -1.601447e-05  t[s]:    470.54
BandDavidson: Iter:  25  Eband: -0.114449691162100  dEband: -1.277960e-05  t[s]:    476.55
BandDavidson: Iter:  26  Eband: -0.114459848125664  dEband: -1.015696e-05  t[s]:    482.56
BandDavidson: Iter:  27  Eband: -0.114467898539871  dEband: -8.050414e-06  t[s]:    488.62
BandDavidson: Iter:  28  Eband: -0.114474228918934  dEband: -6.330379e-06  t[s]:    494.42
BandDavidson: Iter:  29  Eband: -0.114479181977503  dEband: -4.953059e-06  t[s]:    499.88
BandDavidson: Iter:  30  Eband: -0.114483067918534  dEband: -3.885941e-06  t[s]:    505.18
BandDavidson: Iter:  31  Eband: -0.114486139046866  dEband: -3.071128e-06  t[s]:    510.16
BandDavidson: Iter:  32  Eband: -0.114488554038655  dEband: -2.414992e-06  t[s]:    514.80
BandDavidson: Iter:  33  Eband: -0.114490470799359  dEband: -1.916761e-06  t[s]:    519.30
BandDavidson: Iter:  34  Eband: -0.114492000952427  dEband: -1.530153e-06  t[s]:    523.82
BandDavidson: Iter:  35  Eband: -0.114493235631017  dEband: -1.234679e-06  t[s]:    528.34
BandDavidson: Iter:  36  Eband: -0.114494229485457  dEband: -9.938544e-07  t[s]:    532.73
BandDavidson: Iter:  37  Eband: -0.114495025195548  dEband: -7.957101e-07  t[s]:    536.89
BandDavidson: Iter:  38  Eband: -0.114495658252462  dEband: -6.330569e-07  t[s]:    540.96
BandDavidson: Iter:  39  Eband: -0.114496168054221  dEband: -5.098018e-07  t[s]:    545.01
BandDavidson: Iter:  40  Eband: -0.114496581393136  dEband: -4.133389e-07  t[s]:    549.06
BandDavidson: Iter:  41  Eband: -0.114496918282544  dEband: -3.368894e-07  t[s]:    553.11
BandDavidson: Iter:  42  Eband: -0.114497193202112  dEband: -2.749196e-07  t[s]:    557.17
BandDavidson: Iter:  43  Eband: -0.114497418436818  dEband: -2.252347e-07  t[s]:    561.22
BandDavidson: Iter:  44  Eband: -0.114497603105205  dEband: -1.846684e-07  t[s]:    565.26
BandDavidson: Iter:  45  Eband: -0.114497754408848  dEband: -1.513036e-07  t[s]:    569.25
BandDavidson: Iter:  46  Eband: -0.114497878227464  dEband: -1.238186e-07  t[s]:    573.25
BandDavidson: Iter:  47  Eband: -0.114497979717933  dEband: -1.014905e-07  t[s]:    577.20
BandDavidson: Iter:  48  Eband: -0.114498063101926  dEband: -8.338399e-08  t[s]:    581.16
BandDavidson: Iter:  49  Eband: -0.114498131813961  dEband: -6.871203e-08  t[s]:    585.11
BandDavidson: Iter:  50  Eband: -0.114498188342271  dEband: -5.652831e-08  t[s]:    588.92
BandDavidson: Iter:  51  Eband: -0.114498235245099  dEband: -4.690283e-08  t[s]:    592.67
BandDavidson: Iter:  52  Eband: -0.114498273949187  dEband: -3.870409e-08  t[s]:    596.36
BandDavidson: Iter:  53  Eband: -0.114498305755307  dEband: -3.180612e-08  t[s]:    599.87
BandDavidson: Iter:  54  Eband: -0.114498332025487  dEband: -2.627018e-08  t[s]:    603.30
BandDavidson: Iter:  55  Eband: -0.114498353755334  dEband: -2.172985e-08  t[s]:    606.74
BandDavidson: Iter:  56  Eband: -0.114498371776978  dEband: -1.802164e-08  t[s]:    610.13
BandDavidson: Iter:  57  Eband: -0.114498386721071  dEband: -1.494409e-08  t[s]:    613.49
BandDavidson: Iter:  58  Eband: -0.114498399124348  dEband: -1.240328e-08  t[s]:    616.85
BandDavidson: Iter:  59  Eband: -0.114498409408746  dEband: -1.028440e-08  t[s]:    620.16
BandDavidson: Iter:  60  Eband: -0.114498417945286  dEband: -8.536541e-09  t[s]:    623.47
BandDavidson: Converged (dEband<1.000000e-08)

---- Minimization of quantum number:     2  [ +0.0000000 +0.0555556 +0.0000000 ]  0.004629630  spin +1 ----
BandDavidson: Iter:   0  Eband: -0.058562084650792
BandDavidson: Iter:   1  Eband: -0.092257189246492  dEband: -3.369510e-02  t[s]:    633.70
BandDavidson: Iter:   2  Eband: -0.103693412838862  dEband: -1.143622e-02  t[s]:    639.99
BandDavidson: Iter:   3  Eband: -0.107583851216876  dEband: -3.890438e-03  t[s]:    646.27
BandDavidson: Iter:   4  Eband: -0.110644595591382  dEband: -3.060744e-03  t[s]:    652.53
BandDavidson: Iter:   5  Eband: -0.111674262645945  dEband: -1.029667e-03  t[s]:    658.82
BandDavidson: Iter:   6  Eband: -0.112417900684515  dEband: -7.436380e-04  t[s]:    665.09
BandDavidson: Iter:   7  Eband: -0.113055581259457  dEband: -6.376806e-04  t[s]:    671.36
BandDavidson: Iter:   8  Eband: -0.113447678209945  dEband: -3.920970e-04  t[s]:    677.63
BandDavidson: Iter:   9  Eband: -0.113778370135747  dEband: -3.306919e-04  t[s]:    683.89
BandDavidson: Iter:  10  Eband: -0.113996054636083  dEband: -2.176845e-04  t[s]:    690.16
BandDavidson: Iter:  11  Eband: -0.114094218500026  dEband: -9.816386e-05  t[s]:    696.44
BandDavidson: Iter:  12  Eband: -0.114151323616633  dEband: -5.710512e-05  t[s]:    702.67
BandDavidson: Iter:  13  Eband: -0.114190103604377  dEband: -3.877999e-05  t[s]:    708.86
BandDavidson: Iter:  14  Eband: -0.114220433384304  dEband: -3.032978e-05  t[s]:    715.00
BandDavidson: Iter:  15  Eband: -0.114245792502870  dEband: -2.535912e-05  t[s]:    721.15
BandDavidson: Iter:  16  Eband: -0.114268489941217  dEband: -2.269744e-05  t[s]:    727.28
BandDavidson: Iter:  17  Eband: -0.114290982625830  dEband: -2.249268e-05  t[s]:    733.42
BandDavidson: Iter:  18  Eband: -0.114314373909926  dEband: -2.339128e-05  t[s]:    739.57
BandDavidson: Iter:  19  Eband: -0.114339240205528  dEband: -2.486630e-05  t[s]:    745.70
BandDavidson: Iter:  20  Eband: -0.114364669618281  dEband: -2.542941e-05  t[s]:    751.84
BandDavidson: Iter:  21  Eband: -0.114388917166577  dEband: -2.424755e-05  t[s]:    757.99
BandDavidson: Iter:  22  Eband: -0.114410467429066  dEband: -2.155026e-05  t[s]:    764.04
BandDavidson: Iter:  23  Eband: -0.114428743873104  dEband: -1.827644e-05  t[s]:    770.09
BandDavidson: Iter:  24  Eband: -0.114443698086905  dEband: -1.495421e-05  t[s]:    776.07
BandDavidson: Iter:  25  Eband: -0.114456157688124  dEband: -1.245960e-05  t[s]:    782.03
BandDavidson: Iter:  26  Eband: -0.114466533087227  dEband: -1.037540e-05  t[s]:    788.00
BandDavidson: Iter:  27  Eband: -0.114474805609822  dEband: -8.272523e-06  t[s]:    793.96
BandDavidson: Iter:  28  Eband: -0.114481322694607  dEband: -6.517085e-06  t[s]:    799.49
BandDavidson: Iter:  29  Eband: -0.114486495733165  dEband: -5.173039e-06  t[s]:    804.72
BandDavidson: Iter:  30  Eband: -0.114490678646348  dEband: -4.182913e-06  t[s]:    809.97
BandDavidson: Iter:  31  Eband: -0.114494047636126  dEband: -3.368990e-06  t[s]:    814.84
BandDavidson: Iter:  32  Eband: -0.114496750360802  dEband: -2.702725e-06  t[s]:    819.52
BandDavidson: Iter:  33  Eband: -0.114498931794908  dEband: -2.181434e-06  t[s]:    823.95
BandDavidson: Iter:  34  Eband: -0.114500708906558  dEband: -1.777112e-06  t[s]:    828.43
BandDavidson: Iter:  35  Eband: -0.114502169303152  dEband: -1.460397e-06  t[s]:    832.86
BandDavidson: Iter:  36  Eband: -0.114503373333252  dEband: -1.204030e-06  t[s]:    837.21
BandDavidson: Iter:  37  Eband: -0.114504365142955  dEband: -9.918097e-07  t[s]:    841.53
BandDavidson: Iter:  38  Eband: -0.114505179057020  dEband: -8.139141e-07  t[s]:    845.64
BandDavidson: Iter:  39  Eband: -0.114505850229909  dEband: -6.711729e-07  t[s]:    849.69
BandDavidson: Iter:  40  Eband: -0.114506406903864  dEband: -5.566740e-07  t[s]:    853.75
BandDavidson: Iter:  41  Eband: -0.114506870708179  dEband: -4.638043e-07  t[s]:    857.79
BandDavidson: Iter:  42  Eband: -0.114507259642316  dEband: -3.889341e-07  t[s]:    861.81
BandDavidson: Iter:  43  Eband: -0.114507584967050  dEband: -3.253247e-07  t[s]:    865.86
BandDavidson: Iter:  44  Eband: -0.114507858761918  dEband: -2.737949e-07  t[s]:    869.87
BandDavidson: Iter:  45  Eband: -0.114508089164216  dEband: -2.304023e-07  t[s]:    873.86
BandDavidson: Iter:  46  Eband: -0.114508284139768  dEband: -1.949756e-07  t[s]:    877.85
BandDavidson: Iter:  47  Eband: -0.114508449971229  dEband: -1.658315e-07  t[s]:    881.83
BandDavidson: Iter:  48  Eband: -0.114508590318232  dEband: -1.403470e-07  t[s]:    885.74
BandDavidson: Iter:  49  Eband: -0.114508709276938  dEband: -1.189587e-07  t[s]:    889.66
BandDavidson: Iter:  50  Eband: -0.114508809851633  dEband: -1.005747e-07  t[s]:    893.51
BandDavidson: Iter:  51  Eband: -0.114508895549877  dEband: -8.569824e-08  t[s]:    897.29
BandDavidson: Iter:  52  Eband: -0.114508968430874  dEband: -7.288100e-08  t[s]:    900.94
BandDavidson: Iter:  53  Eband: -0.114509031243766  dEband: -6.281289e-08  t[s]:    904.48
BandDavidson: Iter:  54  Eband: -0.114509084794013  dEband: -5.355025e-08  t[s]:    907.94
BandDavidson: Iter:  55  Eband: -0.114509129588645  dEband: -4.479463e-08  t[s]:    911.37
BandDavidson: Iter:  56  Eband: -0.114509168423089  dEband: -3.883444e-08  t[s]:    914.74
BandDavidson: Iter:  57  Eband: -0.114509201399083  dEband: -3.297599e-08  t[s]:    918.10
BandDavidson: Iter:  58  Eband: -0.114509229351966  dEband: -2.795288e-08  t[s]:    921.46
BandDavidson: Iter:  59  Eband: -0.114509253417650  dEband: -2.406568e-08  t[s]:    924.82
BandDavidson: Iter:  60  Eband: -0.114509273907655  dEband: -2.049000e-08  t[s]:    928.16
BandDavidson: Iter:  61  Eband: -0.114509291858689  dEband: -1.795103e-08  t[s]:    931.41
BandDavidson: Iter:  62  Eband: -0.114509306950824  dEband: -1.509213e-08  t[s]:    934.54
BandDavidson: Iter:  63  Eband: -0.114509320141672  dEband: -1.319085e-08  t[s]:    937.66
BandDavidson: Iter:  64  Eband: -0.114509331188215  dEband: -1.104654e-08  t[s]:    940.76
BandDavidson: Iter:  65  Eband: -0.114509340864550  dEband: -9.676335e-09  t[s]:    943.86
BandDavidson: Converged (dEband<1.000000e-08)

---- Minimization of quantum number:     3  [ +0.0000000 +0.0833333 +0.0000000 ]  0.004629630  spin +1 ----
BandDavidson: Iter:   0  Eband: -0.058488660918202
BandDavidson: Iter:   1  Eband: -0.092117705300003  dEband: -3.362904e-02  t[s]:    954.13
BandDavidson: Iter:   2  Eband: -0.103441610474252  dEband: -1.132391e-02  t[s]:    960.40
BandDavidson: Iter:   3  Eband: -0.107324264916270  dEband: -3.882654e-03  t[s]:    966.70
BandDavidson: Iter:   4  Eband: -0.110233848078982  dEband: -2.909583e-03  t[s]:    972.97
BandDavidson: Iter:   5  Eband: -0.111220334910697  dEband: -9.864868e-04  t[s]:    979.26
BandDavidson: Iter:   6  Eband: -0.112013060880791  dEband: -7.927260e-04  t[s]:    985.54
BandDavidson: Iter:   7  Eband: -0.112685239836692  dEband: -6.721790e-04  t[s]:    991.82
BandDavidson: Iter:   8  Eband: -0.113185513375888  dEband: -5.002735e-04  t[s]:    998.09
BandDavidson: Iter:   9  Eband: -0.113385884948758  dEband: -2.003716e-04  t[s]:   1004.37
BandDavidson: Iter:  10  Eband: -0.113719553250792  dEband: -3.336683e-04  t[s]:   1010.63
BandDavidson: Iter:  11  Eband: -0.113942648948343  dEband: -2.230957e-04  t[s]:   1016.91
BandDavidson: Iter:  12  Eband: -0.114032324478312  dEband: -8.967553e-05  t[s]:   1023.15
BandDavidson: Iter:  13  Eband: -0.114086490217403  dEband: -5.416574e-05  t[s]:   1029.32
BandDavidson: Iter:  14  Eband: -0.114128253040372  dEband: -4.176282e-05  t[s]:   1035.50
BandDavidson: Iter:  15  Eband: -0.114171082631084  dEband: -4.282959e-05  t[s]:   1041.64
BandDavidson: Iter:  16  Eband: -0.114212603734728  dEband: -4.152110e-05  t[s]:   1047.78
BandDavidson: Iter:  17  Eband: -0.114251173167303  dEband: -3.856943e-05  t[s]:   1053.91
BandDavidson: Iter:  18  Eband: -0.114290938889613  dEband: -3.976572e-05  t[s]:   1060.03
BandDavidson: Iter:  19  Eband: -0.114329584904992  dEband: -3.864602e-05  t[s]:   1066.14
BandDavidson: Iter:  20  Eband: -0.114363660979467  dEband: -3.407607e-05  t[s]:   1072.27
BandDavidson: Iter:  21  Eband: -0.114393695932235  dEband: -3.003495e-05  t[s]:   1078.39
BandDavidson: Iter:  22  Eband: -0.114419177423302  dEband: -2.548149e-05  t[s]:   1084.42
BandDavidson: Iter:  23  Eband: -0.114441432833038  dEband: -2.225541e-05  t[s]:   1090.42
BandDavidson: Iter:  24  Eband: -0.114461091320709  dEband: -1.965849e-05  t[s]:   1096.35
BandDavidson: Iter:  25  Eband: -0.114478327754756  dEband: -1.723643e-05  t[s]:   1102.29
BandDavidson: Iter:  26  Eband: -0.114492844499545  dEband: -1.451674e-05  t[s]:   1108.25
BandDavidson: Iter:  27  Eband: -0.114505776011129  dEband: -1.293151e-05  t[s]:   1114.17
BandDavidson: Iter:  28  Eband: -0.114516460717282  dEband: -1.068471e-05  t[s]:   1119.95
BandDavidson: Iter:  29  Eband: -0.114524853146222  dEband: -8.392429e-06  t[s]:   1125.42
BandDavidson: Iter:  30  Eband: -0.114531379134308  dEband: -6.525988e-06  t[s]:   1130.71
BandDavidson: Iter:  31  Eband: -0.114536515287752  dEband: -5.136153e-06  t[s]:   1135.61
BandDavidson: Iter:  32  Eband: -0.114540597591136  dEband: -4.082303e-06  t[s]:   1140.31
BandDavidson: Iter:  33  Eband: -0.114543888298019  dEband: -3.290707e-06  t[s]:   1144.77
BandDavidson: Iter:  34  Eband: -0.114546556124107  dEband: -2.667826e-06  t[s]:   1149.21
BandDavidson: Iter:  35  Eband: -0.114548749768957  dEband: -2.193645e-06  t[s]:   1153.64
BandDavidson: Iter:  36  Eband: -0.114550560371780  dEband: -1.810603e-06  t[s]:   1157.97
BandDavidson: Iter:  37  Eband: -0.114552070614114  dEband: -1.510242e-06  t[s]:   1162.20
BandDavidson: Iter:  38  Eband: -0.114553380926560  dEband: -1.310312e-06  t[s]:   1166.47
BandDavidson: Iter:  39  Eband: -0.114554721080477  dEband: -1.340154e-06  t[s]:   1170.63
BandDavidson: Iter:  40  Eband: -0.114556385420287  dEband: -1.664340e-06  t[s]:   1174.66
BandDavidson: Iter:  41  Eband: -0.114558094903742  dEband: -1.709483e-06  t[s]:   1178.70
BandDavidson: Iter:  42  Eband: -0.114559592647015  dEband: -1.497743e-06  t[s]:   1182.75
BandDavidson: Iter:  43  Eband: -0.114560861889628  dEband: -1.269243e-06  t[s]:   1186.74
BandDavidson: Iter:  44  Eband: -0.114561945505612  dEband: -1.083616e-06  t[s]:   1190.75
BandDavidson: Iter:  45  Eband: -0.114562867843593  dEband: -9.223380e-07  t[s]:   1194.73
BandDavidson: Iter:  46  Eband: -0.114563659033240  dEband: -7.911896e-07  t[s]:   1198.68
BandDavidson: Iter:  47  Eband: -0.114564336228724  dEband: -6.771955e-07  t[s]:   1202.65
BandDavidson: Iter:  48  Eband: -0.114564917498814  dEband: -5.812701e-07  t[s]:   1206.59
BandDavidson: Iter:  49  Eband: -0.114565416243005  dEband: -4.987442e-07  t[s]:   1210.47
BandDavidson: Iter:  50  Eband: -0.114565845271121  dEband: -4.290281e-07  t[s]:   1214.28
BandDavidson: Iter:  51  Eband: -0.114566213993239  dEband: -3.687221e-07  t[s]:   1218.05
BandDavidson: Iter:  52  Eband: -0.114566531528897  dEband: -3.175357e-07  t[s]:   1221.66
BandDavidson: Iter:  53  Eband: -0.114566805531089  dEband: -2.740022e-07  t[s]:   1225.26
BandDavidson: Iter:  54  Eband: -0.114567042078959  dEband: -2.365479e-07  t[s]:   1228.72
BandDavidson: Iter:  55  Eband: -0.114567246105770  dEband: -2.040268e-07  t[s]:   1232.19
BandDavidson: Iter:  56  Eband: -0.114567423111725  dEband: -1.770060e-07  t[s]:   1235.54
BandDavidson: Iter:  57  Eband: -0.114567576292829  dEband: -1.531811e-07  t[s]:   1238.90
BandDavidson: Iter:  58  Eband: -0.114567709087844  dEband: -1.327950e-07  t[s]:   1242.22
BandDavidson: Iter:  59  Eband: -0.114567824091851  dEband: -1.150040e-07  t[s]:   1245.51
BandDavidson: Iter:  60  Eband: -0.114567923887527  dEband: -9.979568e-08  t[s]:   1248.78
BandDavidson: Iter:  61  Eband: -0.114568010371484  dEband: -8.648396e-08  t[s]:   1252.03
BandDavidson: Iter:  62  Eband: -0.114568085347984  dEband: -7.497650e-08  t[s]:   1255.23
BandDavidson: Iter:  63  Eband: -0.114568149914834  dEband: -6.456685e-08  t[s]:   1258.38
BandDavidson: Iter:  64  Eband: -0.114568205827611  dEband: -5.591278e-08  t[s]:   1261.54
BandDavidson: Iter:  65  Eband: -0.114568254435272  dEband: -4.860766e-08  t[s]:   1264.63
BandDavidson: Iter:  66  Eband: -0.114568296711193  dEband: -4.227592e-08  t[s]:   1267.67
BandDavidson: Iter:  67  Eband: -0.114568333517088  dEband: -3.680589e-08  t[s]:   1270.71
BandDavidson: Iter:  68  Eband: -0.114568365614311  dEband: -3.209722e-08  t[s]:   1273.76
BandDavidson: Iter:  69  Eband: -0.114568393577477  dEband: -2.796317e-08  t[s]:   1276.80
BandDavidson: Iter:  70  Eband: -0.114568417971967  dEband: -2.439449e-08  t[s]:   1279.80
BandDavidson: Iter:  71  Eband: -0.114568439223133  dEband: -2.125117e-08  t[s]:   1282.76
BandDavidson: Iter:  72  Eband: -0.114568457766004  dEband: -1.854287e-08  t[s]:   1285.68
BandDavidson: Iter:  73  Eband: -0.114568473944710  dEband: -1.617871e-08  t[s]:   1288.61
BandDavidson: Iter:  74  Eband: -0.114568488070280  dEband: -1.412557e-08  t[s]:   1291.56
BandDavidson: Iter:  75  Eband: -0.114568500407942  dEband: -1.233766e-08  t[s]:   1294.45
BandDavidson: Iter:  76  Eband: -0.114568511163625  dEband: -1.075568e-08  t[s]:   1297.34
BandDavidson: Iter:  77  Eband: -0.114568520558525  dEband: -9.394900e-09  t[s]:   1300.21
BandDavidson: Converged (dEband<1.000000e-08)

---- Minimization of quantum number:     4  [ +0.0000000 +0.1111111 +0.0000000 ]  0.004629630  spin +1 ----
BandDavidson: Iter:   0  Eband: -0.058499936408751
BandDavidson: Iter:   1  Eband: -0.092168759252285  dEband: -3.366882e-02  t[s]:   1310.43
BandDavidson: Iter:   2  Eband: -0.103567830541954  dEband: -1.139907e-02  t[s]:   1316.69
BandDavidson: Iter:   3  Eband: -0.107479377527728  dEband: -3.911547e-03  t[s]:   1322.92
BandDavidson: Iter:   4  Eband: -0.110227274587057  dEband: -2.747897e-03  t[s]:   1329.17
BandDavidson: Iter:   5  Eband: -0.111260502857497  dEband: -1.033228e-03  t[s]:   1335.42
BandDavidson: Iter:   6  Eband: -0.111933553266078  dEband: -6.730504e-04  t[s]:   1341.62
BandDavidson: Iter:   7  Eband: -0.112553852295101  dEband: -6.202990e-04  t[s]:   1347.85
BandDavidson: Iter:   8  Eband: -0.113036482861832  dEband: -4.826306e-04  t[s]:   1354.04
BandDavidson: Iter:   9  Eband: -0.113315994438891  dEband: -2.795116e-04  t[s]:   1360.27
BandDavidson: Iter:  10  Eband: -0.113589424659728  dEband: -2.734302e-04  t[s]:   1366.49
BandDavidson: Iter:  11  Eband: -0.113777160980745  dEband: -1.877363e-04  t[s]:   1372.72
BandDavidson: Iter:  12  Eband: -0.113915839331052  dEband: -1.386784e-04  t[s]:   1378.91
BandDavidson: Iter:  13  Eband: -0.114051702439632  dEband: -1.358631e-04  t[s]:   1385.02
BandDavidson: Iter:  14  Eband: -0.114163318277262  dEband: -1.116158e-04  t[s]:   1391.17
BandDavidson: Iter:  15  Eband: -0.114241153661985  dEband: -7.783538e-05  t[s]:   1397.27
BandDavidson: Iter:  16  Eband: -0.114299838512754  dEband: -5.868485e-05  t[s]:   1403.36
BandDavidson: Iter:  17  Eband: -0.114346906630870  dEband: -4.706812e-05  t[s]:   1409.44
BandDavidson: Iter:  18  Eband: -0.114393747884409  dEband: -4.684125e-05  t[s]:   1415.51
BandDavidson: Iter:  19  Eband: -0.114434935331008  dEband: -4.118745e-05  t[s]:   1421.63
BandDavidson: Iter:  20  Eband: -0.114469391853363  dEband: -3.445652e-05  t[s]:   1427.70
BandDavidson: Iter:  21  Eband: -0.114497008694705  dEband: -2.761684e-05  t[s]:   1433.81
BandDavidson: Iter:  22  Eband: -0.114519090994144  dEband: -2.208230e-05  t[s]:   1439.79
BandDavidson: Iter:  23  Eband: -0.114537152960612  dEband: -1.806197e-05  t[s]:   1445.79
BandDavidson: Iter:  24  Eband: -0.114551503054985  dEband: -1.435009e-05  t[s]:   1451.75
BandDavidson: Iter:  25  Eband: -0.114563079875835  dEband: -1.157682e-05  t[s]:   1457.67
BandDavidson: Iter:  26  Eband: -0.114572191872224  dEband: -9.111996e-06  t[s]:   1463.60
BandDavidson: Iter:  27  Eband: -0.114579499768526  dEband: -7.307896e-06  t[s]:   1469.52
BandDavidson: Iter:  28  Eband: -0.114585331928847  dEband: -5.832160e-06  t[s]:   1475.30
BandDavidson: Iter:  29  Eband: -0.114590077772295  dEband: -4.745843e-06  t[s]:   1480.79
BandDavidson: Iter:  30  Eband: -0.114597760289947  dEband: -7.682518e-06  t[s]:   1486.03
BandDavidson: Iter:  31  Eband: -0.114605863040599  dEband: -8.102751e-06  t[s]:   1490.94
BandDavidson: Iter:  32  Eband: -0.114612146172779  dEband: -6.283132e-06  t[s]:   1495.51
BandDavidson: Iter:  33  Eband: -0.114617172590437  dEband: -5.026418e-06  t[s]:   1499.96
BandDavidson: Iter:  34  Eband: -0.114621482885375  dEband: -4.310295e-06  t[s]:   1504.37
BandDavidson: Iter:  35  Eband: -0.114624959892773  dEband: -3.477007e-06  t[s]:   1508.78
BandDavidson: Iter:  36  Eband: -0.114627763647590  dEband: -2.803755e-06  t[s]:   1513.08
BandDavidson: Iter:  37  Eband: -0.114630073102567  dEband: -2.309455e-06  t[s]:   1517.32
BandDavidson: Iter:  38  Eband: -0.114631981911773  dEband: -1.908809e-06  t[s]:   1521.38
BandDavidson: Iter:  39  Eband: -0.114633571851559  dEband: -1.589940e-06  t[s]:   1525.36
BandDavidson: Iter:  40  Eband: -0.114634908375835  dEband: -1.336524e-06  t[s]:   1529.37
BandDavidson: Iter:  41  Eband: -0.114636040495940  dEband: -1.132120e-06  t[s]:   1533.32
BandDavidson: Iter:  42  Eband: -0.114637004064571  dEband: -9.635686e-07  t[s]:   1537.30
BandDavidson: Iter:  43  Eband: -0.114637825900463  dEband: -8.218359e-07  t[s]:   1541.27
BandDavidson: Iter:  44  Eband: -0.114638527737331  dEband: -7.018369e-07  t[s]:   1545.20
BandDavidson: Iter:  45  Eband: -0.114639125808547  dEband: -5.980712e-07  t[s]:   1549.11
BandDavidson: Iter:  46  Eband: -0.114639636661040  dEband: -5.108525e-07  t[s]:   1553.00
BandDavidson: Iter:  47  Eband: -0.114640071206117  dEband: -4.345451e-07  t[s]:   1556.87
BandDavidson: Iter:  48  Eband: -0.114640440632124  dEband: -3.694260e-07  t[s]:   1560.69
BandDavidson: Iter:  49  Eband: -0.114640756190388  dEband: -3.155583e-07  t[s]:   1564.46
BandDavidson: Iter:  50  Eband: -0.114641024354140  dEband: -2.681638e-07  t[s]:   1568.13
BandDavidson: Iter:  51  Eband: -0.114641252392929  dEband: -2.280388e-07  t[s]:   1571.77
BandDavidson: Iter:  52  Eband: -0.114641446682487  dEband: -1.942896e-07  t[s]:   1575.33
BandDavidson: Iter:  53  Eband: -0.114641612378781  dEband: -1.656963e-07  t[s]:   1578.79
BandDavidson: Iter:  54  Eband: -0.114641753480928  dEband: -1.411021e-07  t[s]:   1582.19
BandDavidson: Iter:  55  Eband: -0.114641873471963  dEband: -1.199910e-07  t[s]:   1585.54
BandDavidson: Iter:  56  Eband: -0.114641975891156  dEband: -1.024192e-07  t[s]:   1588.83
BandDavidson: Iter:  57  Eband: -0.114642063792062  dEband: -8.790091e-08  t[s]:   1592.12
BandDavidson: Iter:  58  Eband: -0.114642139355399  dEband: -7.556334e-08  t[s]:   1595.39
BandDavidson: Iter:  59  Eband: -0.114642204257905  dEband: -6.490251e-08  t[s]:   1598.66
BandDavidson: Iter:  60  Eband: -0.114642260086528  dEband: -5.582862e-08  t[s]:   1601.89
BandDavidson: Iter:  61  Eband: -0.114642307981919  dEband: -4.789539e-08  t[s]:   1605.06
BandDavidson: Iter:  62  Eband: -0.114642349026001  dEband: -4.104408e-08  t[s]:   1608.21
BandDavidson: Iter:  63  Eband: -0.114642384233150  dEband: -3.520715e-08  t[s]:   1611.30
BandDavidson: Iter:  64  Eband: -0.114642414322889  dEband: -3.008974e-08  t[s]:   1614.39
BandDavidson: Iter:  65  Eband: -0.114642440213196  dEband: -2.589031e-08  t[s]:   1617.46
BandDavidson: Iter:  66  Eband: -0.114642462414760  dEband: -2.220156e-08  t[s]:   1620.53
BandDavidson: Iter:  67  Eband: -0.114642481515538  dEband: -1.910078e-08  t[s]:   1623.58
BandDavidson: Iter:  68  Eband: -0.114642497911143  dEband: -1.639560e-08  t[s]:   1626.63
BandDavidson: Iter:  69  Eband: -0.114642512008031  dEband: -1.409689e-08  t[s]:   1629.62
BandDavidson: Iter:  70  Eband: -0.114642524129712  dEband: -1.212168e-08  t[s]:   1632.56
BandDavidson: Iter:  71  Eband: -0.114642534568661  dEband: -1.043895e-08  t[s]:   1635.50
BandDavidson: Iter:  72  Eband: -0.114642543579016  dEband: -9.010355e-09  t[s]:   1638.41
BandDavidson: Converged (dEband<1.000000e-08)

---- Minimization of quantum number:     5  [ +0.0000000 +0.1388889 +0.0000000 ]  0.004629630  spin +1 ----
BandDavidson: Iter:   0  Eband: -0.058381060233598
BandDavidson: Iter:   1  Eband: -0.092181870414886  dEband: -3.380081e-02  t[s]:   1648.63
BandDavidson: Iter:   2  Eband: -0.103610138886885  dEband: -1.142827e-02  t[s]:   1654.89
BandDavidson: Iter:   3  Eband: -0.107467562166037  dEband: -3.857423e-03  t[s]:   1661.14
BandDavidson: Iter:   4  Eband: -0.109729620839336  dEband: -2.262059e-03  t[s]:   1667.38
BandDavidson: Iter:   5  Eband: -0.110819382508708  dEband: -1.089762e-03  t[s]:   1673.63
BandDavidson: Iter:   6  Eband: -0.111693159915247  dEband: -8.737774e-04  t[s]:   1679.88
BandDavidson: Iter:   7  Eband: -0.112396457342473  dEband: -7.032974e-04  t[s]:   1686.11
BandDavidson: Iter:   8  Eband: -0.112831621252886  dEband: -4.351639e-04  t[s]:   1692.34
BandDavidson: Iter:   9  Eband: -0.113141970062055  dEband: -3.103488e-04  t[s]:   1698.57
BandDavidson: Iter:  10  Eband: -0.113494741895309  dEband: -3.527718e-04  t[s]:   1704.81
BandDavidson: Iter:  11  Eband: -0.113727617271607  dEband: -2.328754e-04  t[s]:   1711.03
BandDavidson: Iter:  12  Eband: -0.113896449033923  dEband: -1.688318e-04  t[s]:   1717.21
BandDavidson: Iter:  13  Eband: -0.114046520564719  dEband: -1.500715e-04  t[s]:   1723.35
BandDavidson: Iter:  14  Eband: -0.114160351392053  dEband: -1.138308e-04  t[s]:   1729.49
BandDavidson: Iter:  15  Eband: -0.114259869755692  dEband: -9.951836e-05  t[s]:   1735.58
BandDavidson: Iter:  16  Eband: -0.114336489416231  dEband: -7.661966e-05  t[s]:   1741.67
BandDavidson: Iter:  17  Eband: -0.114394178545740  dEband: -5.768913e-05  t[s]:   1747.76
BandDavidson: Iter:  18  Eband: -0.114438399068130  dEband: -4.422052e-05  t[s]:   1753.85
BandDavidson: Iter:  19  Eband: -0.114473683126619  dEband: -3.528406e-05  t[s]:   1759.94
BandDavidson: Iter:  20  Eband: -0.114503037246949  dEband: -2.935412e-05  t[s]:   1766.01
BandDavidson: Iter:  21  Eband: -0.114528174580261  dEband: -2.513733e-05  t[s]:   1772.09
BandDavidson: Iter:  22  Eband: -0.114549289339791  dEband: -2.111476e-05  t[s]:   1778.18
BandDavidson: Iter:  23  Eband: -0.114566594858963  dEband: -1.730552e-05  t[s]:   1784.18
BandDavidson: Iter:  24  Eband: -0.114580748350436  dEband: -1.415349e-05  t[s]:   1790.19
BandDavidson: Iter:  25  Eband: -0.114592280908679  dEband: -1.153256e-05  t[s]:   1796.19
BandDavidson: Iter:  26  Eband: -0.114601778244000  dEband: -9.497335e-06  t[s]:   1802.15
BandDavidson: Iter:  27  Eband: -0.114609946891281  dEband: -8.168647e-06  t[s]:   1807.99
BandDavidson: Iter:  28  Eband: -0.114618167272795  dEband: -8.220382e-06  t[s]:   1813.73
BandDavidson: Iter:  29  Eband: -0.114627855422412  dEband: -9.688150e-06  t[s]:   1819.23
BandDavidson: Iter:  30  Eband: -0.114639244168643  dEband: -1.138875e-05  t[s]:   1824.40
BandDavidson: Iter:  31  Eband: -0.114649358851099  dEband: -1.011468e-05  t[s]:   1829.32
BandDavidson: Iter:  32  Eband: -0.114657474591423  dEband: -8.115740e-06  t[s]:   1833.91
BandDavidson: Iter:  33  Eband: -0.114663949468629  dEband: -6.474877e-06  t[s]:   1838.40
BandDavidson: Iter:  34  Eband: -0.114669212328457  dEband: -5.262860e-06  t[s]:   1842.82
BandDavidson: Iter:  35  Eband: -0.114673516944936  dEband: -4.304616e-06  t[s]:   1847.22
BandDavidson: Iter:  36  Eband: -0.114677076805900  dEband: -3.559861e-06  t[s]:   1851.43
BandDavidson: Iter:  37  Eband: -0.114679999814947  dEband: -2.923009e-06  t[s]:   1855.64
BandDavidson: Iter:  38  Eband: -0.114682425425377  dEband: -2.425610e-06  t[s]:   1859.71
BandDavidson: Iter:  39  Eband: -0.114684443889984  dEband: -2.018465e-06  t[s]:   1863.69
BandDavidson: Iter:  40  Eband: -0.114686153104053  dEband: -1.709214e-06  t[s]:   1867.69
BandDavidson: Iter:  41  Eband: -0.114687606926146  dEband: -1.453822e-06  t[s]:   1871.69
BandDavidson: Iter:  42  Eband: -0.114688860714279  dEband: -1.253788e-06  t[s]:   1875.68
BandDavidson: Iter:  43  Eband: -0.114689911815782  dEband: -1.051102e-06  t[s]:   1879.61
BandDavidson: Iter:  44  Eband: -0.114690803545583  dEband: -8.917298e-07  t[s]:   1883.53
BandDavidson: Iter:  45  Eband: -0.114691557341917  dEband: -7.537963e-07  t[s]:   1887.46
BandDavidson: Iter:  46  Eband: -0.114692198244874  dEband: -6.409030e-07  t[s]:   1891.36
BandDavidson: Iter:  47  Eband: -0.114692740780630  dEband: -5.425358e-07  t[s]:   1895.23
BandDavidson: Iter:  48  Eband: -0.114693204020976  dEband: -4.632403e-07  t[s]:   1899.03
BandDavidson: Iter:  49  Eband: -0.114693597596693  dEband: -3.935757e-07  t[s]:   1902.82
BandDavidson: Iter:  50  Eband: -0.114693933599440  dEband: -3.360027e-07  t[s]:   1906.56
BandDavidson: Iter:  51  Eband: -0.114694218969877  dEband: -2.853704e-07  t[s]:   1910.19
BandDavidson: Iter:  52  Eband: -0.114694461196352  dEband: -2.422265e-07  t[s]:   1913.74
BandDavidson: Iter:  53  Eband: -0.114694667594447  dEband: -2.063981e-07  t[s]:   1917.29
BandDavidson: Iter:  54  Eband: -0.114694844165637  dEband: -1.765712e-07  t[s]:   1920.80
BandDavidson: Iter:  55  Eband: -0.114694995218222  dEband: -1.510526e-07  t[s]:   1924.28
BandDavidson: Iter:  56  Eband: -0.114695123856912  dEband: -1.286387e-07  t[s]:   1927.66
BandDavidson: Iter:  57  Eband: -0.114695234094109  dEband: -1.102372e-07  t[s]:   1930.93
BandDavidson: Iter:  58  Eband: -0.114695328332764  dEband: -9.423866e-08  t[s]:   1934.20
BandDavidson: Iter:  59  Eband: -0.114695409377710  dEband: -8.104495e-08  t[s]:   1937.42
BandDavidson: Iter:  60  Eband: -0.114695478890260  dEband: -6.951255e-08  t[s]:   1940.52
BandDavidson: Iter:  61  Eband: -0.114695538548584  dEband: -5.965832e-08  t[s]:   1943.62
BandDavidson: Iter:  62  Eband: -0.114695590014874  dEband: -5.146629e-08  t[s]:   1946.71
BandDavidson: Iter:  63  Eband: -0.114695634276956  dEband: -4.426208e-08  t[s]:   1949.79
BandDavidson: Iter:  64  Eband: -0.114695672461114  dEband: -3.818416e-08  t[s]:   1952.87
BandDavidson: Iter:  65  Eband: -0.114695705361979  dEband: -3.290086e-08  t[s]:   1955.92
BandDavidson: Iter:  66  Eband: -0.114695733794594  dEband: -2.843262e-08  t[s]:   1958.98
BandDavidson: Iter:  67  Eband: -0.114695758292667  dEband: -2.449807e-08  t[s]:   1961.98
BandDavidson: Iter:  68  Eband: -0.114695779387849  dEband: -2.109518e-08  t[s]:   1965.01
BandDavidson: Iter:  69  Eband: -0.114695797571059  dEband: -1.818321e-08  t[s]:   1967.96
BandDavidson: Iter:  70  Eband: -0.114695813166995  dEband: -1.559594e-08  t[s]:   1970.92
BandDavidson: Iter:  71  Eband: -0.114695826595348  dEband: -1.342835e-08  t[s]:   1973.88
BandDavidson: Iter:  72  Eband: -0.114695838128356  dEband: -1.153301e-08  t[s]:   1976.81
BandDavidson: Iter:  73  Eband: -0.114695848065166  dEband: -9.936810e-09  t[s]:   1979.69
BandDavidson: Converged (dEband<1.000000e-08)
Setting wave functions to eigenvectors of Hamiltonian
	FillingsUpdate:  mu: -0.081779319  nElectrons: 121.000000  magneticMoment: [ Abs: 0.01399  Tot: -0.01389 ]

Dumping 'Na-0.292.dosUp' ... done.
Dumping 'Na-0.292.dosDn' ... done.
End date and time: Thu Mar 31 22:22:26 2022  (Duration: 0-0:45:07.65)
Done!
