Second Layer Distance is 0.31

--------------------------------------------------------------------------
The library attempted to open the following supporting CUDA libraries,
but each of them failed.  CUDA-aware support is disabled.
libcuda.so.1: cannot open shared object file: No such file or directory
libcuda.dylib: cannot open shared object file: No such file or directory
/usr/lib64/libcuda.so.1: cannot open shared object file: No such file or directory
/usr/lib64/libcuda.dylib: cannot open shared object file: No such file or directory
If you are not interested in CUDA-aware support, then run with
--mca opal_warn_on_missing_libcuda 0 to suppress this message.  If you are interested
in CUDA-aware support, then try setting LD_LIBRARY_PATH to the location
of libcuda.so.1 to get passed this issue.
--------------------------------------------------------------------------
--------------------------------------------------------------------------
No OpenFabrics connection schemes reported that they were able to be
used on a specific port.  As such, the openib BTL (OpenFabrics
support) will be disabled for this port.

  Local host:           d-6-9-4
  Local device:         mlx5_1
  Local port:           1
  CPCs attempted:       rdmacm, udcm
--------------------------------------------------------------------------

*************** JDFTx 1.6.0 (git hash 42ebbcc2) ***************

Start date and time: Thu Mar 31 21:37:18 2022
Executable jdftx with command-line: -i Moire.dos.in
Running on hosts (process indices):  d-6-9-4 (0-37)
Divided in process groups (process indices):  0 (0)  1 (1)  2 (2)  3 (3)  4 (4)  5 (5)  6 (6)  7 (7)  8 (8)  9 (9)  10 (10)  11 (11)  12 (12)  13 (13)  14 (14)  15 (15)  16 (16)  17 (17)  18 (18)  19 (19)  20 (20)  21 (21)  22 (22)  23 (23)  24 (24)  25 (25)  26 (26)  27 (27)  28 (28)  29 (29)  30 (30)  31 (31)  32 (32)  33 (33)  34 (34)  35 (35)  36 (36)  37 (37)
Resource initialization completed at t[s]:      0.00
Run totals: 38 processes, 48 threads, 0 GPUs


Input parsed successfully to the following command list (including defaults):

basis kpoint-dependent
coords-type Lattice
core-overlap-check vector
coulomb-interaction Slab 001
davidson-band-ratio 1.1
dump End DOS
dump-name Na-0.31.$VAR
elec-cutoff 20
elec-eigen-algo Davidson
elec-ex-corr gga-PBE
elec-initial-magnetization 0.100000 no
elec-smearing Fermi 1e-05
electronic-minimize  \
	dirUpdateScheme      FletcherReeves \
	linminMethod         DirUpdateRecommended \
	nIterations          100 \
	history              15 \
	knormThreshold       0 \
	energyDiffThreshold  1e-08 \
	nEnergyDiff          2 \
	alphaTstart          1 \
	alphaTmin            1e-10 \
	updateTestStepSize   yes \
	alphaTreduceFactor   0.1 \
	alphaTincreaseFactor 3 \
	nAlphaAdjustMax      3 \
	wolfeEnergy          0.0001 \
	wolfeGradient        0.9 \
	fdTest               no
exchange-regularization WignerSeitzTruncated
fix-electron-density ../Na-0.31.$VAR
fluid None
fluid-ex-corr (null) lda-PZ
fluid-gummel-loop 10 1.000000e-05
fluid-minimize  \
	dirUpdateScheme      PolakRibiere \
	linminMethod         DirUpdateRecommended \
	nIterations          100 \
	history              15 \
	knormThreshold       0 \
	energyDiffThreshold  0 \
	nEnergyDiff          2 \
	alphaTstart          1 \
	alphaTmin            1e-10 \
	updateTestStepSize   yes \
	alphaTreduceFactor   0.1 \
	alphaTincreaseFactor 3 \
	nAlphaAdjustMax      3 \
	wolfeEnergy          0.0001 \
	wolfeGradient        0.9 \
	fdTest               no
fluid-solvent H2O 55.338 ScalarEOS \
	epsBulk 78.4 \
	pMol 0.92466 \
	epsInf 1.77 \
	Pvap 1.06736e-10 \
	sigmaBulk 4.62e-05 \
	Rvdw 2.61727 \
	Res 1.42 \
	tauNuc 343133 \
	poleEl 15 7 1
forces-output-coords Positions
ion N   0.952380952380952   0.761904761904762   0.000000000000000 0
ion N   1.428571428571428   1.285714285714286   0.310000000000000 0
ion N   0.380952380952381   0.904761904761905   0.000000000000000 0
ion N   0.714285714285714   1.142857142857143   0.310000000000000 0
ion N   0.523809523809524   0.619047619047619   0.000000000000000 0
ion N   1.000000000000000   1.000000000000000   0.310000000000000 0
ion N   0.666666666666667   0.333333333333333   0.000000000000000 0
ion N   1.285714285714286   0.857142857142857   0.310000000000000 0
ion N   0.809523809523810   0.047619047619048   0.000000000000000 0
ion N   1.571428571428571   0.714285714285714   0.310000000000000 0
ion N   0.095238095238095   0.476190476190476   0.000000000000000 0
ion N   0.238095238095238   0.190476190476190   0.000000000000000 0
ion N   0.857142857142857   0.571428571428571   0.310000000000000 0
ion N   1.142857142857143   0.428571428571429   0.310000000000000 0
ion B   0.571428571428572   0.857142857142857   0.000000000000000 0
ion B   0.952380952380952   1.190476190476190   0.310000000000000 0
ion B   0.714285714285714   0.571428571428571   0.000000000000000 0
ion B   1.238095238095238   1.047619047619047   0.310000000000000 0
ion B   0.857142857142857   0.285714285714286   0.000000000000000 0
ion B   1.523809523809524   0.904761904761905   0.310000000000000 0
ion B   0.142857142857143   0.714285714285714   0.000000000000000 0
ion B   0.285714285714286   0.428571428571429   0.000000000000000 0
ion B   0.809523809523810   0.761904761904762   0.310000000000000 0
ion B   0.428571428571429   0.142857142857143   0.000000000000000 0
ion B   1.095238095238095   0.619047619047619   0.310000000000000 0
ion B   1.380952380952381   0.476190476190476   0.310000000000000 0
ion B   0.000000000000000   0.000000000000000   0.000000000000000 0
ion B   0.666666666666667   0.333333333333333   0.310000000000000 0
ion Na   0.333333333300000   0.666666666600000   0.155000000000000 0
ion-species SG15/$ID_ONCV_PBE.upf
ion-width 0
ionic-minimize  \
	dirUpdateScheme      L-BFGS \
	linminMethod         DirUpdateRecommended \
	nIterations          0 \
	history              15 \
	knormThreshold       0.0001 \
	energyDiffThreshold  1e-06 \
	nEnergyDiff          2 \
	alphaTstart          1 \
	alphaTmin            1e-10 \
	updateTestStepSize   yes \
	alphaTreduceFactor   0.1 \
	alphaTincreaseFactor 3 \
	nAlphaAdjustMax      3 \
	wolfeEnergy          0.0001 \
	wolfeGradient        0.9 \
	fdTest               no
kpoint   0.000000000000   0.000000000000   0.000000000000  1.00000000000000
kpoint-folding 36 36 1 
latt-move-scale 1 1 1
latt-scale 1 1 1 
lattice  \
	 -11.818700000000000    2.363740000000000    0.000000000000000  \
	   4.094120000000000  -12.282400000000001    0.000000000000000  \
	   0.000000000000000    0.000000000000000   40.000000000000000 
lattice-minimize  \
	dirUpdateScheme      L-BFGS \
	linminMethod         DirUpdateRecommended \
	nIterations          0 \
	history              15 \
	knormThreshold       0 \
	energyDiffThreshold  1e-06 \
	nEnergyDiff          2 \
	alphaTstart          1 \
	alphaTmin            1e-10 \
	updateTestStepSize   yes \
	alphaTreduceFactor   0.1 \
	alphaTincreaseFactor 3 \
	nAlphaAdjustMax      3 \
	wolfeEnergy          0.0001 \
	wolfeGradient        0.9 \
	fdTest               no
lcao-params -1 1e-06 1e-05
pcm-variant GLSSA13
spintype z-spin
subspace-rotation-factor 1 yes
symmetries automatic
symmetry-threshold 0.0001
van-der-waals D3



---------- Setting up symmetries ----------

Found 24 point-group symmetries of the bravais lattice
Found 6 space-group symmetries with basis
Applied RMS atom displacement 1.31765e-10 bohrs to make symmetries exact.

---------- Initializing the Grid ----------
R = 
[     -11.8187      2.36374            0  ]
[      4.09412     -12.2824            0  ]
[            0            0           40  ]
unit cell volume = 5419.38
G =
[  -0.569604   -0.10962          0  ]
[  -0.189867    -0.5481          0  ]
[          0          0    0.15708  ]
Minimum fftbox size, Smin = [  52  52  164  ]
Chosen fftbox size, S = [  54  54  168  ]

---------- Exchange Correlation functional ----------
Initalized PBE GGA exchange.
Initalized PBE GGA correlation.

---------- Setting up pseudopotentials ----------
Width of ionic core gaussian charges (only for fluid interactions / plotting) set to 0

Reading pseudopotential file '/home/gridsan/aligho/DFT/build-Nov24/pseudopotentials/SG15/N_ONCV_PBE.upf':
  'N' pseudopotential, 'PBE' functional
  Generated using ONCVPSP code by D. R. Hamann
  Author: Martin Schlipf and Francois Gygi  Date: 150915.
  5 valence electrons, 2 orbitals, 4 projectors, 1058 radial grid points, with lMax = 1
  Transforming local potential to a uniform radial grid of dG=0.02 with 1514 points.
  Transforming nonlocal projectors to a uniform radial grid of dG=0.02 with 432 points.
    2S    l: 0   occupation:  2.0   eigenvalue: -0.682907
    2P    l: 1   occupation:  3.0   eigenvalue: -0.260548
  Transforming atomic orbitals to a uniform radial grid of dG=0.02 with 432 points.
  Core radius for overlap checks: 1.35 bohrs.
  Reading pulay file /home/gridsan/aligho/DFT/build-Nov24/pseudopotentials/SG15/N_ONCV_PBE.pulay ... using dE_dnG = -2.956256e-02 computed for Ecut = 20.

Reading pseudopotential file '/home/gridsan/aligho/DFT/build-Nov24/pseudopotentials/SG15/B_ONCV_PBE.upf':
  'B' pseudopotential, 'PBE' functional
  Generated using ONCVPSP code by D. R. Hamann
  Author: Martin Schlipf and Francois Gygi  Date: 150915.
  3 valence electrons, 2 orbitals, 4 projectors, 1534 radial grid points, with lMax = 1
  Transforming local potential to a uniform radial grid of dG=0.02 with 1514 points.
  Transforming nonlocal projectors to a uniform radial grid of dG=0.02 with 432 points.
    2S    l: 0   occupation:  2.0   eigenvalue: -0.347027
    2P    l: 1   occupation:  1.0   eigenvalue: -0.132548
  Transforming atomic orbitals to a uniform radial grid of dG=0.02 with 432 points.
  Core radius for overlap checks: 1.60 bohrs.
  Reading pulay file /home/gridsan/aligho/DFT/build-Nov24/pseudopotentials/SG15/B_ONCV_PBE.pulay ... using dE_dnG = -3.748568e-04 computed for Ecut = 20.

Reading pseudopotential file '/home/gridsan/aligho/DFT/build-Nov24/pseudopotentials/SG15/Na_ONCV_PBE.upf':
  'Na' pseudopotential, 'PBE' functional
  Generated using ONCVPSP code by D. R. Hamann
  Author: Martin Schlipf and Francois Gygi  Date: 150915.
  9 valence electrons, 3 orbitals, 4 projectors, 1992 radial grid points, with lMax = 1
  Transforming local potential to a uniform radial grid of dG=0.02 with 1514 points.
  Transforming nonlocal projectors to a uniform radial grid of dG=0.02 with 432 points.
    2S    l: 0   occupation:  2.0   eigenvalue: -2.085640
    2P    l: 1   occupation:  6.0   eigenvalue: -1.053708
    3S    l: 0   occupation:  1.0   eigenvalue: -0.100838
  Transforming atomic orbitals to a uniform radial grid of dG=0.02 with 432 points.
  Core radius for overlap checks: 2.01 bohrs.
  Reading pulay file /home/gridsan/aligho/DFT/build-Nov24/pseudopotentials/SG15/Na_ONCV_PBE.pulay ... using dE_dnG = -2.946487e-03 computed for Ecut = 20.

Initialized 3 species with 29 total atoms.

Folded 1 k-points by 36x36x1 to 1296 k-points.

---------- Setting up k-points, bands, fillings ----------
Adding inversion symmetry to k-mesh for non-inversion-symmetric unit cell.
Reduced to 127 k-points under symmetry. 
Computing the number of bands and number of electrons
Calculating initial fillings.
nElectrons: 121.000000   nBands: 117   nStates: 254

----- Setting up reduced wavefunction bases (one per k-point) -----
average nbasis = 23152.266 , ideal nbasis = 23152.016

----- Initializing Supercell corresponding to k-point mesh -----
Lattice vector linear combinations in supercell:
[  36   0   0  ]
[   0  36   0  ]
[   0   0   1  ]
Supercell lattice vectors:
[  -425.473  85.0946  0  ]
[  147.388  -442.166  0  ]
[  0  0  40  ]

---------- Setting up coulomb interaction ----------
Initialized slab truncation along lattice direction 001

Initializing DFT-D3 calculator:
	Parameters set for gga-PBE functional
	s6:  1.000  s_r6:  1.217
	s8:  0.722  s_r8:  1.000
	Per-atom parameters loaded for:
	 N:  sqrtQ[a0]:  2.712  Rcov[a0]:  1.342  CN: [ 0.00 0.99 2.01 2.99 ]
	 B:  sqrtQ[a0]:  3.644  Rcov[a0]:  1.455  CN: [ 0.00 0.97 1.94 2.91 4.59 ]
	Na:  sqrtQ[a0]:  6.586  Rcov[a0]:  2.646  CN: [ 0.00 0.97 ]

---------- Setting up 2D ewald sum ----------
Optimum gaussian width for ewald sums = 6.943804 bohr.
Real space sums over 289 unit cells with max indices [  8  8  0  ]
Reciprocal space sums over 81 terms with max indices [  4  4  0  ]

Computing DFT-D3 correction:
# coordination-number N 3.141 3.141 3.168 3.141 3.168 3.139 3.139 3.168 3.141 3.168 3.168 3.141 3.141 3.168
# coordination-number B 3.384 3.346 3.346 3.346 3.346 3.384 3.384 3.384 3.346 3.346 3.384 3.384 3.343 3.343
# coordination-number Na 0.536
# diagonal-C6 N 15.61 15.61 15.60 15.61 15.60 15.61 15.61 15.60 15.61 15.60 15.60 15.61 15.61 15.60
# diagonal-C6 B 31.43 31.44 31.44 31.44 31.44 31.43 31.43 31.43 31.44 31.44 31.43 31.43 31.44 31.44
# diagonal-C6 Na 567.72
EvdW_6 =   -0.031312
EvdW_8 =   -0.029787

---------- Allocating electronic variables ----------
Reading n_up from file '../Na-0.31.n_up' ... done
Reading n_dn from file '../Na-0.31.n_dn' ... done
Initializing wave functions:  linear combination of atomic orbitals
[d-6-9-4:17795] 37 more processes have sent help message help-mpi-common-cuda.txt / dlopen failed
[d-6-9-4:17795] Set MCA parameter "orte_base_help_aggregate" to 0 to see all help / error messages
[d-6-9-4:17795] 37 more processes have sent help message help-mpi-btl-openib-cpc-base.txt / no cpcs for port


---- Citations for features of the code used in this run ----

   Software package:
      R. Sundararaman, K. Letchworth-Weaver, K.A. Schwarz, D. Gunceler, Y. Ozhabes and T.A. Arias, 'JDFTx: software for joint density-functional theory', SoftwareX 6, 278 (2017)

   gga-PBE exchange-correlation functional:
      J.P. Perdew, K. Burke and M. Ernzerhof, Phys. Rev. Lett. 77, 3865 (1996)

   Pseudopotentials:
      M Schlipf and F Gygi, Comput. Phys. Commun. 196, 36 (2015)

   Truncated Coulomb potentials:
      R. Sundararaman and T.A. Arias, Phys. Rev. B 87, 165122 (2013)

   DFT-D3 dispersion correction:
      S. Grimme, J. Antony, S. Ehrlich and H. Krieg, J. Chem. Phys. 132, 154104 (2010)

   Total energy minimization with Auxiliary Hamiltonian:
      C. Freysoldt, S. Boeck, and J. Neugebauer, Phys. Rev. B 79, 241103(R) (2009)

   Linear-tetrahedron sampling for density of states:
      G. Lehmann and M. Taut, Phys. status solidi (b) 54, 469 (1972)

This list may not be complete. Please suggest additional citations or
report any other bugs at https://github.com/shankar1729/jdftx/issues

Initialization completed successfully at t[s]:     50.25


----------- Band structure minimization -------------
Minimization will be done independently for each quantum number.

---- Minimization of quantum number:     0  [ +0.0000000 +0.0000000 +0.0000000 ]  0.000771605  spin +1 ----
BandDavidson: Iter:   0  Eband: -0.009558925365734
BandDavidson: Iter:   1  Eband: -0.015118388048923  dEband: -5.559463e-03  t[s]:     60.85
BandDavidson: Iter:   2  Eband: -0.017001765178542  dEband: -1.883377e-03  t[s]:     67.13
BandDavidson: Iter:   3  Eband: -0.017800194250324  dEband: -7.984291e-04  t[s]:     73.34
BandDavidson: Iter:   4  Eband: -0.018355052085243  dEband: -5.548578e-04  t[s]:     79.55
BandDavidson: Iter:   5  Eband: -0.018532035728576  dEband: -1.769836e-04  t[s]:     85.75
BandDavidson: Iter:   6  Eband: -0.018684909773769  dEband: -1.528740e-04  t[s]:     91.96
BandDavidson: Iter:   7  Eband: -0.018748508959454  dEband: -6.359919e-05  t[s]:     98.14
BandDavidson: Iter:   8  Eband: -0.018781000099952  dEband: -3.249114e-05  t[s]:    104.31
BandDavidson: Iter:   9  Eband: -0.018796593050092  dEband: -1.559295e-05  t[s]:    110.48
BandDavidson: Iter:  10  Eband: -0.018805723699333  dEband: -9.130649e-06  t[s]:    116.69
BandDavidson: Iter:  11  Eband: -0.018811640185795  dEband: -5.916486e-06  t[s]:    122.89
BandDavidson: Iter:  12  Eband: -0.018815756664736  dEband: -4.116479e-06  t[s]:    129.11
BandDavidson: Iter:  13  Eband: -0.018818820612277  dEband: -3.063948e-06  t[s]:    135.19
BandDavidson: Iter:  14  Eband: -0.018823704548406  dEband: -4.883936e-06  t[s]:    141.28
BandDavidson: Iter:  15  Eband: -0.018828818142023  dEband: -5.113594e-06  t[s]:    147.37
BandDavidson: Iter:  16  Eband: -0.018832667478408  dEband: -3.849336e-06  t[s]:    153.48
BandDavidson: Iter:  17  Eband: -0.018835534611841  dEband: -2.867133e-06  t[s]:    159.59
BandDavidson: Iter:  18  Eband: -0.018838025666074  dEband: -2.491054e-06  t[s]:    165.71
BandDavidson: Iter:  19  Eband: -0.018840134435257  dEband: -2.108769e-06  t[s]:    171.82
BandDavidson: Iter:  20  Eband: -0.018842828360433  dEband: -2.693925e-06  t[s]:    177.94
BandDavidson: Iter:  21  Eband: -0.018845586213635  dEband: -2.757853e-06  t[s]:    184.05
BandDavidson: Iter:  22  Eband: -0.018849131896468  dEband: -3.545683e-06  t[s]:    190.00
BandDavidson: Iter:  23  Eband: -0.018852612602500  dEband: -3.480706e-06  t[s]:    195.95
BandDavidson: Iter:  24  Eband: -0.018855209039399  dEband: -2.596437e-06  t[s]:    201.87
BandDavidson: Iter:  25  Eband: -0.018857159107372  dEband: -1.950068e-06  t[s]:    207.79
BandDavidson: Iter:  26  Eband: -0.018858763332967  dEband: -1.604226e-06  t[s]:    213.73
BandDavidson: Iter:  27  Eband: -0.018860084138897  dEband: -1.320806e-06  t[s]:    219.66
BandDavidson: Iter:  28  Eband: -0.018861174362871  dEband: -1.090224e-06  t[s]:    225.43
BandDavidson: Iter:  29  Eband: -0.018862076517617  dEband: -9.021547e-07  t[s]:    230.88
BandDavidson: Iter:  30  Eband: -0.018862826756575  dEband: -7.502390e-07  t[s]:    236.21
BandDavidson: Iter:  31  Eband: -0.018863447746903  dEband: -6.209903e-07  t[s]:    241.19
BandDavidson: Iter:  32  Eband: -0.018863955266547  dEband: -5.075196e-07  t[s]:    245.80
BandDavidson: Iter:  33  Eband: -0.018864370860177  dEband: -4.155936e-07  t[s]:    250.24
BandDavidson: Iter:  34  Eband: -0.018864713917199  dEband: -3.430570e-07  t[s]:    254.69
BandDavidson: Iter:  35  Eband: -0.018864998498085  dEband: -2.845809e-07  t[s]:    259.16
BandDavidson: Iter:  36  Eband: -0.018865234076663  dEband: -2.355786e-07  t[s]:    263.56
BandDavidson: Iter:  37  Eband: -0.018865427487160  dEband: -1.934105e-07  t[s]:    267.87
BandDavidson: Iter:  38  Eband: -0.018865585157671  dEband: -1.576705e-07  t[s]:    271.96
BandDavidson: Iter:  39  Eband: -0.018865711301259  dEband: -1.261436e-07  t[s]:    275.95
BandDavidson: Iter:  40  Eband: -0.018865813463666  dEband: -1.021624e-07  t[s]:    279.93
BandDavidson: Iter:  41  Eband: -0.018865896549977  dEband: -8.308631e-08  t[s]:    283.93
BandDavidson: Iter:  42  Eband: -0.018865965152887  dEband: -6.860291e-08  t[s]:    287.92
BandDavidson: Iter:  43  Eband: -0.018866022060220  dEband: -5.690733e-08  t[s]:    291.91
BandDavidson: Iter:  44  Eband: -0.018866069449011  dEband: -4.738879e-08  t[s]:    295.86
BandDavidson: Iter:  45  Eband: -0.018866108537311  dEband: -3.908830e-08  t[s]:    299.77
BandDavidson: Iter:  46  Eband: -0.018866141086857  dEband: -3.254955e-08  t[s]:    303.70
BandDavidson: Iter:  47  Eband: -0.018866168090922  dEband: -2.700407e-08  t[s]:    307.56
BandDavidson: Iter:  48  Eband: -0.018866190588096  dEband: -2.249717e-08  t[s]:    311.40
BandDavidson: Iter:  49  Eband: -0.018866209281499  dEband: -1.869340e-08  t[s]:    315.18
BandDavidson: Iter:  50  Eband: -0.018866224851209  dEband: -1.556971e-08  t[s]:    318.88
BandDavidson: Iter:  51  Eband: -0.018866237726440  dEband: -1.287523e-08  t[s]:    322.39
BandDavidson: Iter:  52  Eband: -0.018866248408118  dEband: -1.068168e-08  t[s]:    325.82
BandDavidson: Iter:  53  Eband: -0.018866257315074  dEband: -8.906957e-09  t[s]:    329.25
BandDavidson: Converged (dEband<1.000000e-08)

---- Minimization of quantum number:     1  [ +0.0000000 +0.0277778 +0.0000000 ]  0.004629630  spin +1 ----
BandDavidson: Iter:   0  Eband: -0.057367271593681
BandDavidson: Iter:   1  Eband: -0.090664408927652  dEband: -3.329714e-02  t[s]:    339.24
BandDavidson: Iter:   2  Eband: -0.102042745426889  dEband: -1.137834e-02  t[s]:    345.41
BandDavidson: Iter:   3  Eband: -0.106823624182511  dEband: -4.780879e-03  t[s]:    351.58
BandDavidson: Iter:   4  Eband: -0.110145423631313  dEband: -3.321799e-03  t[s]:    357.76
BandDavidson: Iter:   5  Eband: -0.111323073551598  dEband: -1.177650e-03  t[s]:    363.92
BandDavidson: Iter:   6  Eband: -0.112096478539488  dEband: -7.734050e-04  t[s]:    370.09
BandDavidson: Iter:   7  Eband: -0.112451855074656  dEband: -3.553765e-04  t[s]:    376.28
BandDavidson: Iter:   8  Eband: -0.112659938722734  dEband: -2.080836e-04  t[s]:    382.46
BandDavidson: Iter:   9  Eband: -0.112757509514706  dEband: -9.757079e-05  t[s]:    388.63
BandDavidson: Iter:  10  Eband: -0.112810264856132  dEband: -5.275534e-05  t[s]:    394.78
BandDavidson: Iter:  11  Eband: -0.112850402316757  dEband: -4.013746e-05  t[s]:    400.93
BandDavidson: Iter:  12  Eband: -0.112899436879546  dEband: -4.903456e-05  t[s]:    407.08
BandDavidson: Iter:  13  Eband: -0.112932785182198  dEband: -3.334830e-05  t[s]:    413.10
BandDavidson: Iter:  14  Eband: -0.112955256493528  dEband: -2.247131e-05  t[s]:    419.17
BandDavidson: Iter:  15  Eband: -0.112973008557646  dEband: -1.775206e-05  t[s]:    425.21
BandDavidson: Iter:  16  Eband: -0.112987386298190  dEband: -1.437774e-05  t[s]:    431.27
BandDavidson: Iter:  17  Eband: -0.112999167789932  dEband: -1.178149e-05  t[s]:    437.31
BandDavidson: Iter:  18  Eband: -0.113009828352983  dEband: -1.066056e-05  t[s]:    443.35
BandDavidson: Iter:  19  Eband: -0.113021242481638  dEband: -1.141413e-05  t[s]:    449.42
BandDavidson: Iter:  20  Eband: -0.113046085041628  dEband: -2.484256e-05  t[s]:    455.50
BandDavidson: Iter:  21  Eband: -0.113069478355710  dEband: -2.339331e-05  t[s]:    461.51
BandDavidson: Iter:  22  Eband: -0.113090909756920  dEband: -2.143140e-05  t[s]:    467.42
BandDavidson: Iter:  23  Eband: -0.113112513886723  dEband: -2.160413e-05  t[s]:    473.36
BandDavidson: Iter:  24  Eband: -0.113133927585483  dEband: -2.141370e-05  t[s]:    479.29
BandDavidson: Iter:  25  Eband: -0.113152597707982  dEband: -1.867012e-05  t[s]:    485.21
BandDavidson: Iter:  26  Eband: -0.113167697820489  dEband: -1.510011e-05  t[s]:    491.12
BandDavidson: Iter:  27  Eband: -0.113179771572373  dEband: -1.207375e-05  t[s]:    496.99
BandDavidson: Iter:  28  Eband: -0.113189466200802  dEband: -9.694628e-06  t[s]:    502.69
BandDavidson: Iter:  29  Eband: -0.113197340305662  dEband: -7.874105e-06  t[s]:    508.08
BandDavidson: Iter:  30  Eband: -0.113203729211702  dEband: -6.388906e-06  t[s]:    513.29
BandDavidson: Iter:  31  Eband: -0.113209011153401  dEband: -5.281942e-06  t[s]:    518.50
BandDavidson: Iter:  32  Eband: -0.113213361576046  dEband: -4.350423e-06  t[s]:    523.06
BandDavidson: Iter:  33  Eband: -0.113216983183795  dEband: -3.621608e-06  t[s]:    527.51
BandDavidson: Iter:  34  Eband: -0.113220553023400  dEband: -3.569840e-06  t[s]:    531.99
BandDavidson: Iter:  35  Eband: -0.113224967992688  dEband: -4.414969e-06  t[s]:    536.45
BandDavidson: Iter:  36  Eband: -0.113228972766420  dEband: -4.004774e-06  t[s]:    540.85
BandDavidson: Iter:  37  Eband: -0.113232383471075  dEband: -3.410705e-06  t[s]:    545.15
BandDavidson: Iter:  38  Eband: -0.113235228209749  dEband: -2.844739e-06  t[s]:    549.36
BandDavidson: Iter:  39  Eband: -0.113237630073696  dEband: -2.401864e-06  t[s]:    553.40
BandDavidson: Iter:  40  Eband: -0.113239646316175  dEband: -2.016242e-06  t[s]:    557.38
BandDavidson: Iter:  41  Eband: -0.113241360996188  dEband: -1.714680e-06  t[s]:    561.40
BandDavidson: Iter:  42  Eband: -0.113242827929291  dEband: -1.466933e-06  t[s]:    565.41
BandDavidson: Iter:  43  Eband: -0.113244090264729  dEband: -1.262335e-06  t[s]:    569.39
BandDavidson: Iter:  44  Eband: -0.113245176926628  dEband: -1.086662e-06  t[s]:    573.36
BandDavidson: Iter:  45  Eband: -0.113246113844979  dEband: -9.369184e-07  t[s]:    577.28
BandDavidson: Iter:  46  Eband: -0.113246913389545  dEband: -7.995446e-07  t[s]:    581.22
BandDavidson: Iter:  47  Eband: -0.113247592389928  dEband: -6.790004e-07  t[s]:    585.19
BandDavidson: Iter:  48  Eband: -0.113248163193952  dEband: -5.708040e-07  t[s]:    589.11
BandDavidson: Iter:  49  Eband: -0.113248643644358  dEband: -4.804504e-07  t[s]:    593.00
BandDavidson: Iter:  50  Eband: -0.113249046233667  dEband: -4.025893e-07  t[s]:    596.80
BandDavidson: Iter:  51  Eband: -0.113249383779422  dEband: -3.375458e-07  t[s]:    600.49
BandDavidson: Iter:  52  Eband: -0.113249664539159  dEband: -2.807597e-07  t[s]:    604.03
BandDavidson: Iter:  53  Eband: -0.113249900889502  dEband: -2.363503e-07  t[s]:    607.47
BandDavidson: Iter:  54  Eband: -0.113250099373107  dEband: -1.984836e-07  t[s]:    610.84
BandDavidson: Iter:  55  Eband: -0.113250267287205  dEband: -1.679141e-07  t[s]:    614.23
BandDavidson: Iter:  56  Eband: -0.113250408469225  dEband: -1.411820e-07  t[s]:    617.58
BandDavidson: Iter:  57  Eband: -0.113250527644731  dEband: -1.191755e-07  t[s]:    620.90
BandDavidson: Iter:  58  Eband: -0.113250627996040  dEband: -1.003513e-07  t[s]:    624.19
BandDavidson: Iter:  59  Eband: -0.113250712887457  dEband: -8.489142e-08  t[s]:    627.47
BandDavidson: Iter:  60  Eband: -0.113250784441996  dEband: -7.155454e-08  t[s]:    630.75
BandDavidson: Iter:  61  Eband: -0.113250844801809  dEband: -6.035981e-08  t[s]:    634.06
BandDavidson: Iter:  62  Eband: -0.113250895043460  dEband: -5.024165e-08  t[s]:    637.25
BandDavidson: Iter:  63  Eband: -0.113250936873906  dEband: -4.183045e-08  t[s]:    640.43
BandDavidson: Iter:  64  Eband: -0.113250971348141  dEband: -3.447423e-08  t[s]:    643.55
BandDavidson: Iter:  65  Eband: -0.113251000081997  dEband: -2.873386e-08  t[s]:    646.60
BandDavidson: Iter:  66  Eband: -0.113251023980415  dEband: -2.389842e-08  t[s]:    649.68
BandDavidson: Iter:  67  Eband: -0.113251044145052  dEband: -2.016464e-08  t[s]:    652.74
BandDavidson: Iter:  68  Eband: -0.113251061023922  dEband: -1.687887e-08  t[s]:    655.74
BandDavidson: Iter:  69  Eband: -0.113251075168687  dEband: -1.414477e-08  t[s]:    658.68
BandDavidson: Iter:  70  Eband: -0.113251086971631  dEband: -1.180294e-08  t[s]:    661.57
BandDavidson: Iter:  71  Eband: -0.113251096913487  dEband: -9.941857e-09  t[s]:    664.41
BandDavidson: Converged (dEband<1.000000e-08)

---- Minimization of quantum number:     2  [ +0.0000000 +0.0555556 +0.0000000 ]  0.004629630  spin +1 ----
BandDavidson: Iter:   0  Eband: -0.057373417338141
BandDavidson: Iter:   1  Eband: -0.090947687838893  dEband: -3.357427e-02  t[s]:    674.44
BandDavidson: Iter:   2  Eband: -0.102284512606233  dEband: -1.133682e-02  t[s]:    680.63
BandDavidson: Iter:   3  Eband: -0.106545577972013  dEband: -4.261065e-03  t[s]:    686.80
BandDavidson: Iter:   4  Eband: -0.109752938432157  dEband: -3.207360e-03  t[s]:    692.96
BandDavidson: Iter:   5  Eband: -0.111389706771041  dEband: -1.636768e-03  t[s]:    699.11
BandDavidson: Iter:   6  Eband: -0.112096028718859  dEband: -7.063219e-04  t[s]:    705.28
BandDavidson: Iter:   7  Eband: -0.112422188576205  dEband: -3.261599e-04  t[s]:    711.45
BandDavidson: Iter:   8  Eband: -0.112596458333206  dEband: -1.742698e-04  t[s]:    717.60
BandDavidson: Iter:   9  Eband: -0.112685274237298  dEband: -8.881590e-05  t[s]:    723.78
BandDavidson: Iter:  10  Eband: -0.112747983851741  dEband: -6.270961e-05  t[s]:    729.98
BandDavidson: Iter:  11  Eband: -0.112793280512649  dEband: -4.529666e-05  t[s]:    736.11
BandDavidson: Iter:  12  Eband: -0.112874621060962  dEband: -8.134055e-05  t[s]:    742.27
BandDavidson: Iter:  13  Eband: -0.112930799792266  dEband: -5.617873e-05  t[s]:    748.28
BandDavidson: Iter:  14  Eband: -0.112967339302241  dEband: -3.653951e-05  t[s]:    754.31
BandDavidson: Iter:  15  Eband: -0.112992136109457  dEband: -2.479681e-05  t[s]:    760.34
BandDavidson: Iter:  16  Eband: -0.113010890574071  dEband: -1.875446e-05  t[s]:    766.37
BandDavidson: Iter:  17  Eband: -0.113027435971075  dEband: -1.654540e-05  t[s]:    772.40
BandDavidson: Iter:  18  Eband: -0.113046668241005  dEband: -1.923227e-05  t[s]:    778.44
BandDavidson: Iter:  19  Eband: -0.113077870233005  dEband: -3.120199e-05  t[s]:    784.47
BandDavidson: Iter:  20  Eband: -0.113115171521607  dEband: -3.730129e-05  t[s]:    790.55
BandDavidson: Iter:  21  Eband: -0.113149678344769  dEband: -3.450682e-05  t[s]:    796.65
BandDavidson: Iter:  22  Eband: -0.113179153973664  dEband: -2.947563e-05  t[s]:    802.66
BandDavidson: Iter:  23  Eband: -0.113209500902644  dEband: -3.034693e-05  t[s]:    808.64
BandDavidson: Iter:  24  Eband: -0.113237280999923  dEband: -2.778010e-05  t[s]:    814.62
BandDavidson: Iter:  25  Eband: -0.113262074526164  dEband: -2.479353e-05  t[s]:    820.55
BandDavidson: Iter:  26  Eband: -0.113282547293700  dEband: -2.047277e-05  t[s]:    826.48
BandDavidson: Iter:  27  Eband: -0.113298998448667  dEband: -1.645115e-05  t[s]:    832.42
BandDavidson: Iter:  28  Eband: -0.113312876334626  dEband: -1.387789e-05  t[s]:    838.02
BandDavidson: Iter:  29  Eband: -0.113324681017787  dEband: -1.180468e-05  t[s]:    843.27
BandDavidson: Iter:  30  Eband: -0.113334468334120  dEband: -9.787316e-06  t[s]:    848.49
BandDavidson: Iter:  31  Eband: -0.113342508347784  dEband: -8.040014e-06  t[s]:    853.60
BandDavidson: Iter:  32  Eband: -0.113349192189811  dEband: -6.683842e-06  t[s]:    858.31
BandDavidson: Iter:  33  Eband: -0.113354742763264  dEband: -5.550573e-06  t[s]:    862.72
BandDavidson: Iter:  34  Eband: -0.113359394123167  dEband: -4.651360e-06  t[s]:    867.18
BandDavidson: Iter:  35  Eband: -0.113363344967509  dEband: -3.950844e-06  t[s]:    871.63
BandDavidson: Iter:  36  Eband: -0.113366698855373  dEband: -3.353888e-06  t[s]:    875.96
BandDavidson: Iter:  37  Eband: -0.113369557888004  dEband: -2.859033e-06  t[s]:    880.20
BandDavidson: Iter:  38  Eband: -0.113371959535429  dEband: -2.401647e-06  t[s]:    884.39
BandDavidson: Iter:  39  Eband: -0.113373962789045  dEband: -2.003254e-06  t[s]:    888.47
BandDavidson: Iter:  40  Eband: -0.113375633774921  dEband: -1.670986e-06  t[s]:    892.48
BandDavidson: Iter:  41  Eband: -0.113377043588126  dEband: -1.409813e-06  t[s]:    896.52
BandDavidson: Iter:  42  Eband: -0.113378235338931  dEband: -1.191751e-06  t[s]:    900.54
BandDavidson: Iter:  43  Eband: -0.113379244285737  dEband: -1.008947e-06  t[s]:    904.51
BandDavidson: Iter:  44  Eband: -0.113380099628650  dEband: -8.553429e-07  t[s]:    908.51
BandDavidson: Iter:  45  Eband: -0.113380825398707  dEband: -7.257701e-07  t[s]:    912.51
BandDavidson: Iter:  46  Eband: -0.113381439756413  dEband: -6.143577e-07  t[s]:    916.46
BandDavidson: Iter:  47  Eband: -0.113381958868055  dEband: -5.191116e-07  t[s]:    920.44
BandDavidson: Iter:  48  Eband: -0.113382396758258  dEband: -4.378902e-07  t[s]:    924.42
BandDavidson: Iter:  49  Eband: -0.113382764928335  dEband: -3.681701e-07  t[s]:    928.29
BandDavidson: Iter:  50  Eband: -0.113383074239932  dEband: -3.093116e-07  t[s]:    932.11
BandDavidson: Iter:  51  Eband: -0.113383333583631  dEband: -2.593437e-07  t[s]:    935.77
BandDavidson: Iter:  52  Eband: -0.113383551060997  dEband: -2.174774e-07  t[s]:    939.44
BandDavidson: Iter:  53  Eband: -0.113383734156597  dEband: -1.830956e-07  t[s]:    942.91
BandDavidson: Iter:  54  Eband: -0.113383888365219  dEband: -1.542086e-07  t[s]:    946.33
BandDavidson: Iter:  55  Eband: -0.113384019076525  dEband: -1.307113e-07  t[s]:    949.75
BandDavidson: Iter:  56  Eband: -0.113384129708105  dEband: -1.106316e-07  t[s]:    953.12
BandDavidson: Iter:  57  Eband: -0.113384223607352  dEband: -9.389925e-08  t[s]:    956.48
BandDavidson: Iter:  58  Eband: -0.113384303240651  dEband: -7.963330e-08  t[s]:    959.86
BandDavidson: Iter:  59  Eband: -0.113384370958203  dEband: -6.771755e-08  t[s]:    963.18
BandDavidson: Iter:  60  Eband: -0.113384428391930  dEband: -5.743373e-08  t[s]:    966.50
BandDavidson: Iter:  61  Eband: -0.113384477215620  dEband: -4.882369e-08  t[s]:    969.80
BandDavidson: Iter:  62  Eband: -0.113384518544319  dEband: -4.132870e-08  t[s]:    972.93
BandDavidson: Iter:  63  Eband: -0.113384553512491  dEband: -3.496817e-08  t[s]:    976.09
BandDavidson: Iter:  64  Eband: -0.113384583169053  dEband: -2.965656e-08  t[s]:    979.18
BandDavidson: Iter:  65  Eband: -0.113384608333322  dEband: -2.516427e-08  t[s]:    982.29
BandDavidson: Iter:  66  Eband: -0.113384629753063  dEband: -2.141974e-08  t[s]:    985.30
BandDavidson: Iter:  67  Eband: -0.113384647991679  dEband: -1.823862e-08  t[s]:    988.36
BandDavidson: Iter:  68  Eband: -0.113384663540844  dEband: -1.554916e-08  t[s]:    991.38
BandDavidson: Iter:  69  Eband: -0.113384676808122  dEband: -1.326728e-08  t[s]:    994.39
BandDavidson: Iter:  70  Eband: -0.113384688128879  dEband: -1.132076e-08  t[s]:    997.34
BandDavidson: Iter:  71  Eband: -0.113384697785326  dEband: -9.656447e-09  t[s]:   1000.26
BandDavidson: Converged (dEband<1.000000e-08)

---- Minimization of quantum number:     3  [ +0.0000000 +0.0833333 +0.0000000 ]  0.004629630  spin +1 ----
BandDavidson: Iter:   0  Eband: -0.057310097707625
BandDavidson: Iter:   1  Eband: -0.090827232213976  dEband: -3.351713e-02  t[s]:   1010.43
BandDavidson: Iter:   2  Eband: -0.102054354014744  dEband: -1.122712e-02  t[s]:   1016.71
BandDavidson: Iter:   3  Eband: -0.106265965017430  dEband: -4.211611e-03  t[s]:   1022.97
BandDavidson: Iter:   4  Eband: -0.109192784390176  dEband: -2.926819e-03  t[s]:   1029.22
BandDavidson: Iter:   5  Eband: -0.110963245508204  dEband: -1.770461e-03  t[s]:   1035.47
BandDavidson: Iter:   6  Eband: -0.111819053234605  dEband: -8.558077e-04  t[s]:   1041.72
BandDavidson: Iter:   7  Eband: -0.112204461233216  dEband: -3.854080e-04  t[s]:   1047.97
BandDavidson: Iter:   8  Eband: -0.112410351513405  dEband: -2.058903e-04  t[s]:   1054.23
BandDavidson: Iter:   9  Eband: -0.112558776324128  dEband: -1.484248e-04  t[s]:   1060.46
BandDavidson: Iter:  10  Eband: -0.112646462723182  dEband: -8.768640e-05  t[s]:   1066.70
BandDavidson: Iter:  11  Eband: -0.112733453761569  dEband: -8.699104e-05  t[s]:   1072.94
BandDavidson: Iter:  12  Eband: -0.112810757894072  dEband: -7.730413e-05  t[s]:   1079.14
BandDavidson: Iter:  13  Eband: -0.112863882367444  dEband: -5.312447e-05  t[s]:   1085.25
BandDavidson: Iter:  14  Eband: -0.112905912279152  dEband: -4.202991e-05  t[s]:   1091.34
BandDavidson: Iter:  15  Eband: -0.112956050698050  dEband: -5.013842e-05  t[s]:   1097.45
BandDavidson: Iter:  16  Eband: -0.113008797363104  dEband: -5.274667e-05  t[s]:   1103.54
BandDavidson: Iter:  17  Eband: -0.113057485470051  dEband: -4.868811e-05  t[s]:   1109.64
BandDavidson: Iter:  18  Eband: -0.113115714023254  dEband: -5.822855e-05  t[s]:   1115.73
BandDavidson: Iter:  19  Eband: -0.113165097849626  dEband: -4.938383e-05  t[s]:   1121.81
BandDavidson: Iter:  20  Eband: -0.113205800552273  dEband: -4.070270e-05  t[s]:   1127.93
BandDavidson: Iter:  21  Eband: -0.113247640963356  dEband: -4.184041e-05  t[s]:   1134.01
BandDavidson: Iter:  22  Eband: -0.113285995705887  dEband: -3.835474e-05  t[s]:   1140.02
BandDavidson: Iter:  23  Eband: -0.113317894932171  dEband: -3.189923e-05  t[s]:   1145.97
BandDavidson: Iter:  24  Eband: -0.113344950561588  dEband: -2.705563e-05  t[s]:   1151.90
BandDavidson: Iter:  25  Eband: -0.113367374064495  dEband: -2.242350e-05  t[s]:   1157.85
BandDavidson: Iter:  26  Eband: -0.113386232793379  dEband: -1.885873e-05  t[s]:   1163.78
BandDavidson: Iter:  27  Eband: -0.113401923843268  dEband: -1.569105e-05  t[s]:   1169.66
BandDavidson: Iter:  28  Eband: -0.113414576608369  dEband: -1.265277e-05  t[s]:   1175.27
BandDavidson: Iter:  29  Eband: -0.113424750825094  dEband: -1.017422e-05  t[s]:   1180.60
BandDavidson: Iter:  30  Eband: -0.113433057576766  dEband: -8.306752e-06  t[s]:   1185.84
BandDavidson: Iter:  31  Eband: -0.113439840744567  dEband: -6.783168e-06  t[s]:   1190.91
BandDavidson: Iter:  32  Eband: -0.113445453278294  dEband: -5.612534e-06  t[s]:   1195.61
BandDavidson: Iter:  33  Eband: -0.113450173250551  dEband: -4.719972e-06  t[s]:   1200.01
BandDavidson: Iter:  34  Eband: -0.113454245645562  dEband: -4.072395e-06  t[s]:   1204.42
BandDavidson: Iter:  35  Eband: -0.113457871281709  dEband: -3.625636e-06  t[s]:   1208.82
BandDavidson: Iter:  36  Eband: -0.113461133484609  dEband: -3.262203e-06  t[s]:   1213.11
BandDavidson: Iter:  37  Eband: -0.113464028500135  dEband: -2.895016e-06  t[s]:   1217.34
BandDavidson: Iter:  38  Eband: -0.113466620835628  dEband: -2.592335e-06  t[s]:   1221.50
BandDavidson: Iter:  39  Eband: -0.113468921200921  dEband: -2.300365e-06  t[s]:   1225.59
BandDavidson: Iter:  40  Eband: -0.113470981739677  dEband: -2.060539e-06  t[s]:   1229.67
BandDavidson: Iter:  41  Eband: -0.113472812785212  dEband: -1.831046e-06  t[s]:   1233.68
BandDavidson: Iter:  42  Eband: -0.113474427251563  dEband: -1.614466e-06  t[s]:   1237.69
BandDavidson: Iter:  43  Eband: -0.113475848193343  dEband: -1.420942e-06  t[s]:   1241.69
BandDavidson: Iter:  44  Eband: -0.113477093587171  dEband: -1.245394e-06  t[s]:   1245.66
BandDavidson: Iter:  45  Eband: -0.113478186500617  dEband: -1.092913e-06  t[s]:   1249.63
BandDavidson: Iter:  46  Eband: -0.113479142960463  dEband: -9.564598e-07  t[s]:   1253.48
BandDavidson: Iter:  47  Eband: -0.113479977365766  dEband: -8.344053e-07  t[s]:   1257.43
BandDavidson: Iter:  48  Eband: -0.113480698357392  dEband: -7.209916e-07  t[s]:   1261.36
BandDavidson: Iter:  49  Eband: -0.113481320888593  dEband: -6.225312e-07  t[s]:   1265.17
BandDavidson: Iter:  50  Eband: -0.113481853896398  dEband: -5.330078e-07  t[s]:   1268.96
BandDavidson: Iter:  51  Eband: -0.113482307250735  dEband: -4.533543e-07  t[s]:   1272.64
BandDavidson: Iter:  52  Eband: -0.113482692466806  dEband: -3.852161e-07  t[s]:   1276.24
BandDavidson: Iter:  53  Eband: -0.113483020062631  dEband: -3.275958e-07  t[s]:   1279.77
BandDavidson: Iter:  54  Eband: -0.113483297987355  dEband: -2.779247e-07  t[s]:   1283.20
BandDavidson: Iter:  55  Eband: -0.113483535349958  dEband: -2.373626e-07  t[s]:   1286.62
BandDavidson: Iter:  56  Eband: -0.113483738057085  dEband: -2.027071e-07  t[s]:   1289.97
BandDavidson: Iter:  57  Eband: -0.113483912188577  dEband: -1.741315e-07  t[s]:   1293.35
BandDavidson: Iter:  58  Eband: -0.113484061422581  dEband: -1.492340e-07  t[s]:   1296.71
BandDavidson: Iter:  59  Eband: -0.113484189482449  dEband: -1.280599e-07  t[s]:   1300.02
BandDavidson: Iter:  60  Eband: -0.113484299841796  dEband: -1.103593e-07  t[s]:   1303.34
BandDavidson: Iter:  61  Eband: -0.113484393854499  dEband: -9.401270e-08  t[s]:   1306.58
BandDavidson: Iter:  62  Eband: -0.113484474458258  dEband: -8.060376e-08  t[s]:   1309.74
BandDavidson: Iter:  63  Eband: -0.113484543716070  dEband: -6.925781e-08  t[s]:   1312.89
BandDavidson: Iter:  64  Eband: -0.113484603484004  dEband: -5.976793e-08  t[s]:   1315.99
BandDavidson: Iter:  65  Eband: -0.113484655080996  dEband: -5.159699e-08  t[s]:   1319.09
BandDavidson: Iter:  66  Eband: -0.113484699774556  dEband: -4.469356e-08  t[s]:   1322.19
BandDavidson: Iter:  67  Eband: -0.113484738377350  dEband: -3.860279e-08  t[s]:   1325.23
BandDavidson: Iter:  68  Eband: -0.113484771818115  dEband: -3.344076e-08  t[s]:   1328.25
BandDavidson: Iter:  69  Eband: -0.113484800682602  dEband: -2.886449e-08  t[s]:   1331.30
BandDavidson: Iter:  70  Eband: -0.113484825654874  dEband: -2.497227e-08  t[s]:   1334.30
BandDavidson: Iter:  71  Eband: -0.113484847167227  dEband: -2.151235e-08  t[s]:   1337.27
BandDavidson: Iter:  72  Eband: -0.113484865762906  dEband: -1.859568e-08  t[s]:   1340.19
BandDavidson: Iter:  73  Eband: -0.113484881771265  dEband: -1.600836e-08  t[s]:   1343.13
BandDavidson: Iter:  74  Eband: -0.113484895607248  dEband: -1.383598e-08  t[s]:   1346.06
BandDavidson: Iter:  75  Eband: -0.113484907499000  dEband: -1.189175e-08  t[s]:   1348.96
BandDavidson: Iter:  76  Eband: -0.113484917775073  dEband: -1.027607e-08  t[s]:   1351.84
BandDavidson: Iter:  77  Eband: -0.113484926621840  dEband: -8.846768e-09  t[s]:   1354.74
BandDavidson: Converged (dEband<1.000000e-08)

---- Minimization of quantum number:     4  [ +0.0000000 +0.1111111 +0.0000000 ]  0.004629630  spin +1 ----
BandDavidson: Iter:   0  Eband: -0.057333650608087
BandDavidson: Iter:   1  Eband: -0.090917552315674  dEband: -3.358390e-02  t[s]:   1364.84
BandDavidson: Iter:   2  Eband: -0.102209697295721  dEband: -1.129214e-02  t[s]:   1371.03
BandDavidson: Iter:   3  Eband: -0.106375166677180  dEband: -4.165469e-03  t[s]:   1377.23
BandDavidson: Iter:   4  Eband: -0.109163591192563  dEband: -2.788425e-03  t[s]:   1383.43
BandDavidson: Iter:   5  Eband: -0.110722371172970  dEband: -1.558780e-03  t[s]:   1389.63
BandDavidson: Iter:   6  Eband: -0.111692924611912  dEband: -9.705534e-04  t[s]:   1395.81
BandDavidson: Iter:   7  Eband: -0.112065680076965  dEband: -3.727555e-04  t[s]:   1402.00
BandDavidson: Iter:   8  Eband: -0.112239601940920  dEband: -1.739219e-04  t[s]:   1408.20
BandDavidson: Iter:   9  Eband: -0.112387226936596  dEband: -1.476250e-04  t[s]:   1414.40
BandDavidson: Iter:  10  Eband: -0.112489596455879  dEband: -1.023695e-04  t[s]:   1420.58
BandDavidson: Iter:  11  Eband: -0.112572710463209  dEband: -8.311401e-05  t[s]:   1426.78
BandDavidson: Iter:  12  Eband: -0.112698114522541  dEband: -1.254041e-04  t[s]:   1432.98
BandDavidson: Iter:  13  Eband: -0.112804689687751  dEband: -1.065752e-04  t[s]:   1439.02
BandDavidson: Iter:  14  Eband: -0.112914079735546  dEband: -1.093900e-04  t[s]:   1445.07
BandDavidson: Iter:  15  Eband: -0.112997875158058  dEband: -8.379542e-05  t[s]:   1451.12
BandDavidson: Iter:  16  Eband: -0.113061246057540  dEband: -6.337090e-05  t[s]:   1457.15
BandDavidson: Iter:  17  Eband: -0.113111600799615  dEband: -5.035474e-05  t[s]:   1463.20
BandDavidson: Iter:  18  Eband: -0.113168236022778  dEband: -5.663522e-05  t[s]:   1469.23
BandDavidson: Iter:  19  Eband: -0.113212911806134  dEband: -4.467578e-05  t[s]:   1475.24
BandDavidson: Iter:  20  Eband: -0.113247586762136  dEband: -3.467496e-05  t[s]:   1481.28
BandDavidson: Iter:  21  Eband: -0.113274572510221  dEband: -2.698575e-05  t[s]:   1487.32
BandDavidson: Iter:  22  Eband: -0.113296390563320  dEband: -2.181805e-05  t[s]:   1493.28
BandDavidson: Iter:  23  Eband: -0.113320397676247  dEband: -2.400711e-05  t[s]:   1499.17
BandDavidson: Iter:  24  Eband: -0.113354695973894  dEband: -3.429830e-05  t[s]:   1505.08
BandDavidson: Iter:  25  Eband: -0.113390661444415  dEband: -3.596547e-05  t[s]:   1510.96
BandDavidson: Iter:  26  Eband: -0.113419700685220  dEband: -2.903924e-05  t[s]:   1516.82
BandDavidson: Iter:  27  Eband: -0.113442024347797  dEband: -2.232366e-05  t[s]:   1522.64
BandDavidson: Iter:  28  Eband: -0.113459884335326  dEband: -1.785999e-05  t[s]:   1528.30
BandDavidson: Iter:  29  Eband: -0.113474056002357  dEband: -1.417167e-05  t[s]:   1533.71
BandDavidson: Iter:  30  Eband: -0.113485686103723  dEband: -1.163010e-05  t[s]:   1538.89
BandDavidson: Iter:  31  Eband: -0.113495222115519  dEband: -9.536012e-06  t[s]:   1543.83
BandDavidson: Iter:  32  Eband: -0.113503160110303  dEband: -7.937995e-06  t[s]:   1548.58
BandDavidson: Iter:  33  Eband: -0.113509617076870  dEband: -6.456967e-06  t[s]:   1552.95
BandDavidson: Iter:  34  Eband: -0.113515013645298  dEband: -5.396568e-06  t[s]:   1557.31
BandDavidson: Iter:  35  Eband: -0.113519780457116  dEband: -4.766812e-06  t[s]:   1561.69
BandDavidson: Iter:  36  Eband: -0.113524320195289  dEband: -4.539738e-06  t[s]:   1566.04
BandDavidson: Iter:  37  Eband: -0.113528735538158  dEband: -4.415343e-06  t[s]:   1570.28
BandDavidson: Iter:  38  Eband: -0.113532831097866  dEband: -4.095560e-06  t[s]:   1574.34
BandDavidson: Iter:  39  Eband: -0.113536438898668  dEband: -3.607801e-06  t[s]:   1578.31
BandDavidson: Iter:  40  Eband: -0.113539572484309  dEband: -3.133586e-06  t[s]:   1582.25
BandDavidson: Iter:  41  Eband: -0.113542291700957  dEband: -2.719217e-06  t[s]:   1586.19
BandDavidson: Iter:  42  Eband: -0.113544644008019  dEband: -2.352307e-06  t[s]:   1590.12
BandDavidson: Iter:  43  Eband: -0.113546685516401  dEband: -2.041508e-06  t[s]:   1594.03
BandDavidson: Iter:  44  Eband: -0.113548453735783  dEband: -1.768219e-06  t[s]:   1597.97
BandDavidson: Iter:  45  Eband: -0.113549987094914  dEband: -1.533359e-06  t[s]:   1601.89
BandDavidson: Iter:  46  Eband: -0.113551300122857  dEband: -1.313028e-06  t[s]:   1605.83
BandDavidson: Iter:  47  Eband: -0.113552433004762  dEband: -1.132882e-06  t[s]:   1609.77
BandDavidson: Iter:  48  Eband: -0.113553413340184  dEband: -9.803354e-07  t[s]:   1613.58
BandDavidson: Iter:  49  Eband: -0.113554253191543  dEband: -8.398514e-07  t[s]:   1617.26
BandDavidson: Iter:  50  Eband: -0.113554981793110  dEband: -7.286016e-07  t[s]:   1620.86
BandDavidson: Iter:  51  Eband: -0.113555613943045  dEband: -6.321499e-07  t[s]:   1624.43
BandDavidson: Iter:  52  Eband: -0.113556162833287  dEband: -5.488902e-07  t[s]:   1627.91
BandDavidson: Iter:  53  Eband: -0.113556639455655  dEband: -4.766224e-07  t[s]:   1631.32
BandDavidson: Iter:  54  Eband: -0.113557056162332  dEband: -4.167067e-07  t[s]:   1634.74
BandDavidson: Iter:  55  Eband: -0.113557419489803  dEband: -3.633275e-07  t[s]:   1638.10
BandDavidson: Iter:  56  Eband: -0.113557736901768  dEband: -3.174120e-07  t[s]:   1641.43
BandDavidson: Iter:  57  Eband: -0.113558013521236  dEband: -2.766195e-07  t[s]:   1644.72
BandDavidson: Iter:  58  Eband: -0.113558255651719  dEband: -2.421305e-07  t[s]:   1648.02
BandDavidson: Iter:  59  Eband: -0.113558465329867  dEband: -2.096781e-07  t[s]:   1651.22
BandDavidson: Iter:  60  Eband: -0.113558646624108  dEband: -1.812942e-07  t[s]:   1654.43
BandDavidson: Iter:  61  Eband: -0.113558803809436  dEband: -1.571853e-07  t[s]:   1657.59
BandDavidson: Iter:  62  Eband: -0.113558940234213  dEband: -1.364248e-07  t[s]:   1660.70
BandDavidson: Iter:  63  Eband: -0.113559058460807  dEband: -1.182266e-07  t[s]:   1663.79
BandDavidson: Iter:  64  Eband: -0.113559160885367  dEband: -1.024246e-07  t[s]:   1666.84
BandDavidson: Iter:  65  Eband: -0.113559250323360  dEband: -8.943799e-08  t[s]:   1669.84
BandDavidson: Iter:  66  Eband: -0.113559328475748  dEband: -7.815239e-08  t[s]:   1672.85
BandDavidson: Iter:  67  Eband: -0.113559397052454  dEband: -6.857671e-08  t[s]:   1675.86
BandDavidson: Iter:  68  Eband: -0.113559456968613  dEband: -5.991616e-08  t[s]:   1678.86
BandDavidson: Iter:  69  Eband: -0.113559509532549  dEband: -5.256394e-08  t[s]:   1681.88
BandDavidson: Iter:  70  Eband: -0.113559555383874  dEband: -4.585133e-08  t[s]:   1684.87
BandDavidson: Iter:  71  Eband: -0.113559595446014  dEband: -4.006214e-08  t[s]:   1687.89
BandDavidson: Iter:  72  Eband: -0.113559630261695  dEband: -3.481568e-08  t[s]:   1690.86
BandDavidson: Iter:  73  Eband: -0.113559660491821  dEband: -3.023013e-08  t[s]:   1693.81
BandDavidson: Iter:  74  Eband: -0.113559686829945  dEband: -2.633812e-08  t[s]:   1696.74
BandDavidson: Iter:  75  Eband: -0.113559709778717  dEband: -2.294877e-08  t[s]:   1699.64
BandDavidson: Iter:  76  Eband: -0.113559729782688  dEband: -2.000397e-08  t[s]:   1702.51
BandDavidson: Iter:  77  Eband: -0.113559747293676  dEband: -1.751099e-08  t[s]:   1705.39
BandDavidson: Iter:  78  Eband: -0.113559762644861  dEband: -1.535118e-08  t[s]:   1708.25
BandDavidson: Iter:  79  Eband: -0.113559776103652  dEband: -1.345879e-08  t[s]:   1711.12
BandDavidson: Iter:  80  Eband: -0.113559787922387  dEband: -1.181873e-08  t[s]:   1713.98
BandDavidson: Iter:  81  Eband: -0.113559798290324  dEband: -1.036794e-08  t[s]:   1716.85
BandDavidson: Iter:  82  Eband: -0.113559807367850  dEband: -9.077525e-09  t[s]:   1719.72
BandDavidson: Converged (dEband<1.000000e-08)

---- Minimization of quantum number:     5  [ +0.0000000 +0.1388889 +0.0000000 ]  0.004629630  spin +1 ----
BandDavidson: Iter:   0  Eband: -0.057206623515343
BandDavidson: Iter:   1  Eband: -0.090903521551352  dEband: -3.369690e-02  t[s]:   1729.86
BandDavidson: Iter:   2  Eband: -0.102254819672397  dEband: -1.135130e-02  t[s]:   1736.06
BandDavidson: Iter:   3  Eband: -0.106376262591823  dEband: -4.121443e-03  t[s]:   1742.27
BandDavidson: Iter:   4  Eband: -0.108875275995899  dEband: -2.499013e-03  t[s]:   1748.50
BandDavidson: Iter:   5  Eband: -0.110331876931613  dEband: -1.456601e-03  t[s]:   1754.72
BandDavidson: Iter:   6  Eband: -0.111274794664295  dEband: -9.429177e-04  t[s]:   1760.91
BandDavidson: Iter:   7  Eband: -0.111852826972099  dEband: -5.780323e-04  t[s]:   1767.09
BandDavidson: Iter:   8  Eband: -0.112149419799380  dEband: -2.965928e-04  t[s]:   1773.25
BandDavidson: Iter:   9  Eband: -0.112304877181874  dEband: -1.554574e-04  t[s]:   1779.42
BandDavidson: Iter:  10  Eband: -0.112416688597936  dEband: -1.118114e-04  t[s]:   1785.58
BandDavidson: Iter:  11  Eband: -0.112494584680818  dEband: -7.789608e-05  t[s]:   1791.75
BandDavidson: Iter:  12  Eband: -0.112564256206142  dEband: -6.967153e-05  t[s]:   1797.91
BandDavidson: Iter:  13  Eband: -0.112681815968672  dEband: -1.175598e-04  t[s]:   1803.93
BandDavidson: Iter:  14  Eband: -0.112760146459406  dEband: -7.833049e-05  t[s]:   1809.97
BandDavidson: Iter:  15  Eband: -0.112823600172549  dEband: -6.345371e-05  t[s]:   1816.02
BandDavidson: Iter:  16  Eband: -0.112892349855428  dEband: -6.874968e-05  t[s]:   1822.06
BandDavidson: Iter:  17  Eband: -0.112973078293994  dEband: -8.072844e-05  t[s]:   1828.09
BandDavidson: Iter:  18  Eband: -0.113059261744771  dEband: -8.618345e-05  t[s]:   1834.12
BandDavidson: Iter:  19  Eband: -0.113129405925289  dEband: -7.014418e-05  t[s]:   1840.14
BandDavidson: Iter:  20  Eband: -0.113184335236958  dEband: -5.492931e-05  t[s]:   1846.15
BandDavidson: Iter:  21  Eband: -0.113231171151053  dEband: -4.683591e-05  t[s]:   1852.18
BandDavidson: Iter:  22  Eband: -0.113287884955589  dEband: -5.671380e-05  t[s]:   1858.15
BandDavidson: Iter:  23  Eband: -0.113345580886495  dEband: -5.769593e-05  t[s]:   1864.14
BandDavidson: Iter:  24  Eband: -0.113392850636935  dEband: -4.726975e-05  t[s]:   1870.07
BandDavidson: Iter:  25  Eband: -0.113428821439724  dEband: -3.597080e-05  t[s]:   1875.99
BandDavidson: Iter:  26  Eband: -0.113457789168440  dEband: -2.896773e-05  t[s]:   1881.88
BandDavidson: Iter:  27  Eband: -0.113480958177304  dEband: -2.316901e-05  t[s]:   1887.67
BandDavidson: Iter:  28  Eband: -0.113500574356866  dEband: -1.961618e-05  t[s]:   1893.26
BandDavidson: Iter:  29  Eband: -0.113516484721842  dEband: -1.591036e-05  t[s]:   1898.69
BandDavidson: Iter:  30  Eband: -0.113529205443009  dEband: -1.272072e-05  t[s]:   1903.88
BandDavidson: Iter:  31  Eband: -0.113539509088540  dEband: -1.030365e-05  t[s]:   1908.75
BandDavidson: Iter:  32  Eband: -0.113547894955636  dEband: -8.385867e-06  t[s]:   1913.43
BandDavidson: Iter:  33  Eband: -0.113554867993497  dEband: -6.973038e-06  t[s]:   1917.83
BandDavidson: Iter:  34  Eband: -0.113560780208590  dEband: -5.912215e-06  t[s]:   1922.24
BandDavidson: Iter:  35  Eband: -0.113565927574995  dEband: -5.147366e-06  t[s]:   1926.65
BandDavidson: Iter:  36  Eband: -0.113570484032121  dEband: -4.556457e-06  t[s]:   1931.03
BandDavidson: Iter:  37  Eband: -0.113574432469781  dEband: -3.948438e-06  t[s]:   1935.19
BandDavidson: Iter:  38  Eband: -0.113577822343327  dEband: -3.389874e-06  t[s]:   1939.36
BandDavidson: Iter:  39  Eband: -0.113580787734236  dEband: -2.965391e-06  t[s]:   1943.51
BandDavidson: Iter:  40  Eband: -0.113583356981408  dEband: -2.569247e-06  t[s]:   1947.47
BandDavidson: Iter:  41  Eband: -0.113585559174301  dEband: -2.202193e-06  t[s]:   1951.43
BandDavidson: Iter:  42  Eband: -0.113587441292124  dEband: -1.882118e-06  t[s]:   1955.36
BandDavidson: Iter:  43  Eband: -0.113589051058919  dEband: -1.609767e-06  t[s]:   1959.29
BandDavidson: Iter:  44  Eband: -0.113590432997171  dEband: -1.381938e-06  t[s]:   1963.24
BandDavidson: Iter:  45  Eband: -0.113591623048667  dEband: -1.190051e-06  t[s]:   1967.13
BandDavidson: Iter:  46  Eband: -0.113592641372541  dEband: -1.018324e-06  t[s]:   1971.02
BandDavidson: Iter:  47  Eband: -0.113593516234332  dEband: -8.748618e-07  t[s]:   1974.86
BandDavidson: Iter:  48  Eband: -0.113594263298222  dEband: -7.470639e-07  t[s]:   1978.57
BandDavidson: Iter:  49  Eband: -0.113594903776844  dEband: -6.404786e-07  t[s]:   1982.24
BandDavidson: Iter:  50  Eband: -0.113595454115368  dEband: -5.503385e-07  t[s]:   1985.80
BandDavidson: Iter:  51  Eband: -0.113595929115598  dEband: -4.750002e-07  t[s]:   1989.38
BandDavidson: Iter:  52  Eband: -0.113596338718533  dEband: -4.096029e-07  t[s]:   1992.89
BandDavidson: Iter:  53  Eband: -0.113596692675115  dEband: -3.539566e-07  t[s]:   1996.26
BandDavidson: Iter:  54  Eband: -0.113596997947706  dEband: -3.052726e-07  t[s]:   1999.63
BandDavidson: Iter:  55  Eband: -0.113597263069320  dEband: -2.651216e-07  t[s]:   2002.89
BandDavidson: Iter:  56  Eband: -0.113597492353463  dEband: -2.292841e-07  t[s]:   2006.15
BandDavidson: Iter:  57  Eband: -0.113597692588053  dEband: -2.002346e-07  t[s]:   2009.39
BandDavidson: Iter:  58  Eband: -0.113597866828462  dEband: -1.742404e-07  t[s]:   2012.62
BandDavidson: Iter:  59  Eband: -0.113598018406618  dEband: -1.515782e-07  t[s]:   2015.79
BandDavidson: Iter:  60  Eband: -0.113598150319189  dEband: -1.319126e-07  t[s]:   2018.90
BandDavidson: Iter:  61  Eband: -0.113598265209415  dEband: -1.148902e-07  t[s]:   2022.00
BandDavidson: Iter:  62  Eband: -0.113598365676528  dEband: -1.004671e-07  t[s]:   2025.08
BandDavidson: Iter:  63  Eband: -0.113598453261842  dEband: -8.758531e-08  t[s]:   2028.15
BandDavidson: Iter:  64  Eband: -0.113598530155541  dEband: -7.689370e-08  t[s]:   2031.23
BandDavidson: Iter:  65  Eband: -0.113598597019655  dEband: -6.686411e-08  t[s]:   2034.27
BandDavidson: Iter:  66  Eband: -0.113598655564782  dEband: -5.854513e-08  t[s]:   2037.26
BandDavidson: Iter:  67  Eband: -0.113598706446917  dEband: -5.088214e-08  t[s]:   2040.24
BandDavidson: Iter:  68  Eband: -0.113598751020504  dEband: -4.457359e-08  t[s]:   2043.23
BandDavidson: Iter:  69  Eband: -0.113598789778251  dEband: -3.875775e-08  t[s]:   2046.20
BandDavidson: Iter:  70  Eband: -0.113598823834726  dEband: -3.405647e-08  t[s]:   2049.19
BandDavidson: Iter:  71  Eband: -0.113598853616410  dEband: -2.978168e-08  t[s]:   2052.17
BandDavidson: Iter:  72  Eband: -0.113598879878556  dEband: -2.626215e-08  t[s]:   2055.15
BandDavidson: Iter:  73  Eband: -0.113598902832811  dEband: -2.295426e-08  t[s]:   2058.13
BandDavidson: Iter:  74  Eband: -0.113598923071237  dEband: -2.023843e-08  t[s]:   2061.12
BandDavidson: Iter:  75  Eband: -0.113598940742024  dEband: -1.767079e-08  t[s]:   2064.07
BandDavidson: Iter:  76  Eband: -0.113598956338695  dEband: -1.559667e-08  t[s]:   2067.01
BandDavidson: Iter:  77  Eband: -0.113598969967902  dEband: -1.362921e-08  t[s]:   2069.84
BandDavidson: Iter:  78  Eband: -0.113598981913109  dEband: -1.194521e-08  t[s]:   2072.67
BandDavidson: Iter:  79  Eband: -0.113598992382058  dEband: -1.046895e-08  t[s]:   2075.47
BandDavidson: Iter:  80  Eband: -0.113599001588187  dEband: -9.206129e-09  t[s]:   2078.29
BandDavidson: Converged (dEband<1.000000e-08)
Setting wave functions to eigenvectors of Hamiltonian
	FillingsUpdate:  mu: -0.085056398  nElectrons: 121.000000  magneticMoment: [ Abs: 0.18165  Tot: -0.18056 ]

Dumping 'Na-0.31.dosUp' ... done.
Dumping 'Na-0.31.dosDn' ... done.
End date and time: Thu Mar 31 22:24:36 2022  (Duration: 0-0:47:17.73)
Done!
