Second Layer Distance is 0.301

--------------------------------------------------------------------------
The library attempted to open the following supporting CUDA libraries,
but each of them failed.  CUDA-aware support is disabled.
libcuda.so.1: cannot open shared object file: No such file or directory
libcuda.dylib: cannot open shared object file: No such file or directory
/usr/lib64/libcuda.so.1: cannot open shared object file: No such file or directory
/usr/lib64/libcuda.dylib: cannot open shared object file: No such file or directory
If you are not interested in CUDA-aware support, then run with
--mca opal_warn_on_missing_libcuda 0 to suppress this message.  If you are interested
in CUDA-aware support, then try setting LD_LIBRARY_PATH to the location
of libcuda.so.1 to get passed this issue.
--------------------------------------------------------------------------
--------------------------------------------------------------------------
No OpenFabrics connection schemes reported that they were able to be
used on a specific port.  As such, the openib BTL (OpenFabrics
support) will be disabled for this port.

  Local host:           d-5-13-4
  Local device:         mlx5_1
  Local port:           1
  CPCs attempted:       rdmacm, udcm
--------------------------------------------------------------------------

*************** JDFTx 1.6.0 (git hash 42ebbcc2) ***************

Start date and time: Thu Mar 31 21:37:18 2022
Executable jdftx with command-line: -i Moire.dos.in
Running on hosts (process indices):  d-5-13-4 (0-37)
Divided in process groups (process indices):  0 (0)  1 (1)  2 (2)  3 (3)  4 (4)  5 (5)  6 (6)  7 (7)  8 (8)  9 (9)  10 (10)  11 (11)  12 (12)  13 (13)  14 (14)  15 (15)  16 (16)  17 (17)  18 (18)  19 (19)  20 (20)  21 (21)  22 (22)  23 (23)  24 (24)  25 (25)  26 (26)  27 (27)  28 (28)  29 (29)  30 (30)  31 (31)  32 (32)  33 (33)  34 (34)  35 (35)  36 (36)  37 (37)
Resource initialization completed at t[s]:      0.00
Run totals: 38 processes, 48 threads, 0 GPUs


Input parsed successfully to the following command list (including defaults):

basis kpoint-dependent
coords-type Lattice
core-overlap-check vector
coulomb-interaction Slab 001
davidson-band-ratio 1.1
dump End DOS
dump-name Na-0.301.$VAR
elec-cutoff 20
elec-eigen-algo Davidson
elec-ex-corr gga-PBE
elec-initial-magnetization 0.100000 no
elec-smearing Fermi 1e-05
electronic-minimize  \
	dirUpdateScheme      FletcherReeves \
	linminMethod         DirUpdateRecommended \
	nIterations          100 \
	history              15 \
	knormThreshold       0 \
	energyDiffThreshold  1e-08 \
	nEnergyDiff          2 \
	alphaTstart          1 \
	alphaTmin            1e-10 \
	updateTestStepSize   yes \
	alphaTreduceFactor   0.1 \
	alphaTincreaseFactor 3 \
	nAlphaAdjustMax      3 \
	wolfeEnergy          0.0001 \
	wolfeGradient        0.9 \
	fdTest               no
exchange-regularization WignerSeitzTruncated
fix-electron-density ../Na-0.301.$VAR
fluid None
fluid-ex-corr (null) lda-PZ
fluid-gummel-loop 10 1.000000e-05
fluid-minimize  \
	dirUpdateScheme      PolakRibiere \
	linminMethod         DirUpdateRecommended \
	nIterations          100 \
	history              15 \
	knormThreshold       0 \
	energyDiffThreshold  0 \
	nEnergyDiff          2 \
	alphaTstart          1 \
	alphaTmin            1e-10 \
	updateTestStepSize   yes \
	alphaTreduceFactor   0.1 \
	alphaTincreaseFactor 3 \
	nAlphaAdjustMax      3 \
	wolfeEnergy          0.0001 \
	wolfeGradient        0.9 \
	fdTest               no
fluid-solvent H2O 55.338 ScalarEOS \
	epsBulk 78.4 \
	pMol 0.92466 \
	epsInf 1.77 \
	Pvap 1.06736e-10 \
	sigmaBulk 4.62e-05 \
	Rvdw 2.61727 \
	Res 1.42 \
	tauNuc 343133 \
	poleEl 15 7 1
forces-output-coords Positions
ion N   0.952380952380952   0.761904761904762   0.000000000000000 0
ion N   1.428571428571428   1.285714285714286   0.301000000000000 0
ion N   0.380952380952381   0.904761904761905   0.000000000000000 0
ion N   0.714285714285714   1.142857142857143   0.301000000000000 0
ion N   0.523809523809524   0.619047619047619   0.000000000000000 0
ion N   1.000000000000000   1.000000000000000   0.301000000000000 0
ion N   0.666666666666667   0.333333333333333   0.000000000000000 0
ion N   1.285714285714286   0.857142857142857   0.301000000000000 0
ion N   0.809523809523810   0.047619047619048   0.000000000000000 0
ion N   1.571428571428571   0.714285714285714   0.301000000000000 0
ion N   0.095238095238095   0.476190476190476   0.000000000000000 0
ion N   0.238095238095238   0.190476190476190   0.000000000000000 0
ion N   0.857142857142857   0.571428571428571   0.301000000000000 0
ion N   1.142857142857143   0.428571428571429   0.301000000000000 0
ion B   0.571428571428572   0.857142857142857   0.000000000000000 0
ion B   0.952380952380952   1.190476190476190   0.301000000000000 0
ion B   0.714285714285714   0.571428571428571   0.000000000000000 0
ion B   1.238095238095238   1.047619047619047   0.301000000000000 0
ion B   0.857142857142857   0.285714285714286   0.000000000000000 0
ion B   1.523809523809524   0.904761904761905   0.301000000000000 0
ion B   0.142857142857143   0.714285714285714   0.000000000000000 0
ion B   0.285714285714286   0.428571428571429   0.000000000000000 0
ion B   0.809523809523810   0.761904761904762   0.301000000000000 0
ion B   0.428571428571429   0.142857142857143   0.000000000000000 0
ion B   1.095238095238095   0.619047619047619   0.301000000000000 0
ion B   1.380952380952381   0.476190476190476   0.301000000000000 0
ion B   0.000000000000000   0.000000000000000   0.000000000000000 0
ion B   0.666666666666667   0.333333333333333   0.301000000000000 0
ion Na   0.333333333300000   0.666666666600000   0.150500000000000 0
ion-species SG15/$ID_ONCV_PBE.upf
ion-width 0
ionic-minimize  \
	dirUpdateScheme      L-BFGS \
	linminMethod         DirUpdateRecommended \
	nIterations          0 \
	history              15 \
	knormThreshold       0.0001 \
	energyDiffThreshold  1e-06 \
	nEnergyDiff          2 \
	alphaTstart          1 \
	alphaTmin            1e-10 \
	updateTestStepSize   yes \
	alphaTreduceFactor   0.1 \
	alphaTincreaseFactor 3 \
	nAlphaAdjustMax      3 \
	wolfeEnergy          0.0001 \
	wolfeGradient        0.9 \
	fdTest               no
kpoint   0.000000000000   0.000000000000   0.000000000000  1.00000000000000
kpoint-folding 36 36 1 
latt-move-scale 1 1 1
latt-scale 1 1 1 
lattice  \
	 -11.818700000000000    2.363740000000000    0.000000000000000  \
	   4.094120000000000  -12.282400000000001    0.000000000000000  \
	   0.000000000000000    0.000000000000000   40.000000000000000 
lattice-minimize  \
	dirUpdateScheme      L-BFGS \
	linminMethod         DirUpdateRecommended \
	nIterations          0 \
	history              15 \
	knormThreshold       0 \
	energyDiffThreshold  1e-06 \
	nEnergyDiff          2 \
	alphaTstart          1 \
	alphaTmin            1e-10 \
	updateTestStepSize   yes \
	alphaTreduceFactor   0.1 \
	alphaTincreaseFactor 3 \
	nAlphaAdjustMax      3 \
	wolfeEnergy          0.0001 \
	wolfeGradient        0.9 \
	fdTest               no
lcao-params -1 1e-06 1e-05
pcm-variant GLSSA13
spintype z-spin
subspace-rotation-factor 1 yes
symmetries automatic
symmetry-threshold 0.0001
van-der-waals D3



---------- Setting up symmetries ----------

Found 24 point-group symmetries of the bravais lattice
Found 6 space-group symmetries with basis
Applied RMS atom displacement 1.31765e-10 bohrs to make symmetries exact.

---------- Initializing the Grid ----------
R = 
[     -11.8187      2.36374            0  ]
[      4.09412     -12.2824            0  ]
[            0            0           40  ]
unit cell volume = 5419.38
G =
[  -0.569604   -0.10962          0  ]
[  -0.189867    -0.5481          0  ]
[          0          0    0.15708  ]
Minimum fftbox size, Smin = [  52  52  164  ]
Chosen fftbox size, S = [  54  54  168  ]

---------- Exchange Correlation functional ----------
Initalized PBE GGA exchange.
Initalized PBE GGA correlation.

---------- Setting up pseudopotentials ----------
Width of ionic core gaussian charges (only for fluid interactions / plotting) set to 0

Reading pseudopotential file '/home/gridsan/aligho/DFT/build-Nov24/pseudopotentials/SG15/N_ONCV_PBE.upf':
  'N' pseudopotential, 'PBE' functional
  Generated using ONCVPSP code by D. R. Hamann
  Author: Martin Schlipf and Francois Gygi  Date: 150915.
  5 valence electrons, 2 orbitals, 4 projectors, 1058 radial grid points, with lMax = 1
  Transforming local potential to a uniform radial grid of dG=0.02 with 1514 points.
  Transforming nonlocal projectors to a uniform radial grid of dG=0.02 with 432 points.
    2S    l: 0   occupation:  2.0   eigenvalue: -0.682907
    2P    l: 1   occupation:  3.0   eigenvalue: -0.260548
  Transforming atomic orbitals to a uniform radial grid of dG=0.02 with 432 points.
  Core radius for overlap checks: 1.35 bohrs.
  Reading pulay file /home/gridsan/aligho/DFT/build-Nov24/pseudopotentials/SG15/N_ONCV_PBE.pulay ... using dE_dnG = -2.956256e-02 computed for Ecut = 20.

Reading pseudopotential file '/home/gridsan/aligho/DFT/build-Nov24/pseudopotentials/SG15/B_ONCV_PBE.upf':
  'B' pseudopotential, 'PBE' functional
  Generated using ONCVPSP code by D. R. Hamann
  Author: Martin Schlipf and Francois Gygi  Date: 150915.
  3 valence electrons, 2 orbitals, 4 projectors, 1534 radial grid points, with lMax = 1
  Transforming local potential to a uniform radial grid of dG=0.02 with 1514 points.
  Transforming nonlocal projectors to a uniform radial grid of dG=0.02 with 432 points.
    2S    l: 0   occupation:  2.0   eigenvalue: -0.347027
    2P    l: 1   occupation:  1.0   eigenvalue: -0.132548
  Transforming atomic orbitals to a uniform radial grid of dG=0.02 with 432 points.
  Core radius for overlap checks: 1.60 bohrs.
  Reading pulay file /home/gridsan/aligho/DFT/build-Nov24/pseudopotentials/SG15/B_ONCV_PBE.pulay ... using dE_dnG = -3.748568e-04 computed for Ecut = 20.

Reading pseudopotential file '/home/gridsan/aligho/DFT/build-Nov24/pseudopotentials/SG15/Na_ONCV_PBE.upf':
  'Na' pseudopotential, 'PBE' functional
  Generated using ONCVPSP code by D. R. Hamann
  Author: Martin Schlipf and Francois Gygi  Date: 150915.
  9 valence electrons, 3 orbitals, 4 projectors, 1992 radial grid points, with lMax = 1
  Transforming local potential to a uniform radial grid of dG=0.02 with 1514 points.
  Transforming nonlocal projectors to a uniform radial grid of dG=0.02 with 432 points.
    2S    l: 0   occupation:  2.0   eigenvalue: -2.085640
    2P    l: 1   occupation:  6.0   eigenvalue: -1.053708
    3S    l: 0   occupation:  1.0   eigenvalue: -0.100838
  Transforming atomic orbitals to a uniform radial grid of dG=0.02 with 432 points.
  Core radius for overlap checks: 2.01 bohrs.
  Reading pulay file /home/gridsan/aligho/DFT/build-Nov24/pseudopotentials/SG15/Na_ONCV_PBE.pulay ... using dE_dnG = -2.946487e-03 computed for Ecut = 20.

Initialized 3 species with 29 total atoms.

Folded 1 k-points by 36x36x1 to 1296 k-points.

---------- Setting up k-points, bands, fillings ----------
Adding inversion symmetry to k-mesh for non-inversion-symmetric unit cell.
Reduced to 127 k-points under symmetry. 
Computing the number of bands and number of electrons
Calculating initial fillings.
nElectrons: 121.000000   nBands: 117   nStates: 254

----- Setting up reduced wavefunction bases (one per k-point) -----
average nbasis = 23152.266 , ideal nbasis = 23152.016

----- Initializing Supercell corresponding to k-point mesh -----
Lattice vector linear combinations in supercell:
[  36   0   0  ]
[   0  36   0  ]
[   0   0   1  ]
Supercell lattice vectors:
[  -425.473  85.0946  0  ]
[  147.388  -442.166  0  ]
[  0  0  40  ]

---------- Setting up coulomb interaction ----------
Initialized slab truncation along lattice direction 001

Initializing DFT-D3 calculator:
	Parameters set for gga-PBE functional
	s6:  1.000  s_r6:  1.217
	s8:  0.722  s_r8:  1.000
	Per-atom parameters loaded for:
	 N:  sqrtQ[a0]:  2.712  Rcov[a0]:  1.342  CN: [ 0.00 0.99 2.01 2.99 ]
	 B:  sqrtQ[a0]:  3.644  Rcov[a0]:  1.455  CN: [ 0.00 0.97 1.94 2.91 4.59 ]
	Na:  sqrtQ[a0]:  6.586  Rcov[a0]:  2.646  CN: [ 0.00 0.97 ]

---------- Setting up 2D ewald sum ----------
Optimum gaussian width for ewald sums = 6.943804 bohr.
Real space sums over 289 unit cells with max indices [  8  8  0  ]
Reciprocal space sums over 81 terms with max indices [  4  4  0  ]

Computing DFT-D3 correction:
# coordination-number N 3.141 3.141 3.179 3.141 3.179 3.139 3.139 3.179 3.141 3.179 3.179 3.141 3.141 3.179
# coordination-number B 3.400 3.347 3.347 3.347 3.347 3.400 3.400 3.400 3.347 3.347 3.400 3.400 3.344 3.344
# coordination-number Na 0.707
# diagonal-C6 N 15.61 15.61 15.60 15.61 15.60 15.61 15.61 15.60 15.61 15.60 15.60 15.61 15.61 15.60
# diagonal-C6 B 31.42 31.44 31.44 31.44 31.44 31.42 31.42 31.42 31.44 31.44 31.42 31.42 31.44 31.44
# diagonal-C6 Na 300.62
EvdW_6 =   -0.031360
EvdW_8 =   -0.029992

---------- Allocating electronic variables ----------
Reading n_up from file '../Na-0.301.n_up' ... done
Reading n_dn from file '../Na-0.301.n_dn' ... done
Initializing wave functions:  linear combination of atomic orbitals
[d-5-13-4:19241] 37 more processes have sent help message help-mpi-common-cuda.txt / dlopen failed
[d-5-13-4:19241] Set MCA parameter "orte_base_help_aggregate" to 0 to see all help / error messages
[d-5-13-4:19241] 37 more processes have sent help message help-mpi-btl-openib-cpc-base.txt / no cpcs for port


---- Citations for features of the code used in this run ----

   Software package:
      R. Sundararaman, K. Letchworth-Weaver, K.A. Schwarz, D. Gunceler, Y. Ozhabes and T.A. Arias, 'JDFTx: software for joint density-functional theory', SoftwareX 6, 278 (2017)

   gga-PBE exchange-correlation functional:
      J.P. Perdew, K. Burke and M. Ernzerhof, Phys. Rev. Lett. 77, 3865 (1996)

   Pseudopotentials:
      M Schlipf and F Gygi, Comput. Phys. Commun. 196, 36 (2015)

   Truncated Coulomb potentials:
      R. Sundararaman and T.A. Arias, Phys. Rev. B 87, 165122 (2013)

   DFT-D3 dispersion correction:
      S. Grimme, J. Antony, S. Ehrlich and H. Krieg, J. Chem. Phys. 132, 154104 (2010)

   Total energy minimization with Auxiliary Hamiltonian:
      C. Freysoldt, S. Boeck, and J. Neugebauer, Phys. Rev. B 79, 241103(R) (2009)

   Linear-tetrahedron sampling for density of states:
      G. Lehmann and M. Taut, Phys. status solidi (b) 54, 469 (1972)

This list may not be complete. Please suggest additional citations or
report any other bugs at https://github.com/shankar1729/jdftx/issues

Initialization completed successfully at t[s]:     50.97


----------- Band structure minimization -------------
Minimization will be done independently for each quantum number.

---- Minimization of quantum number:     0  [ +0.0000000 +0.0000000 +0.0000000 ]  0.000771605  spin +1 ----
BandDavidson: Iter:   0  Eband: -0.009656032987685
BandDavidson: Iter:   1  Eband: -0.015227745705681  dEband: -5.571713e-03  t[s]:     61.97
BandDavidson: Iter:   2  Eband: -0.017127622926274  dEband: -1.899877e-03  t[s]:     68.45
BandDavidson: Iter:   3  Eband: -0.017909056850481  dEband: -7.814339e-04  t[s]:     74.92
BandDavidson: Iter:   4  Eband: -0.018474713168170  dEband: -5.656563e-04  t[s]:     81.33
BandDavidson: Iter:   5  Eband: -0.018656681473695  dEband: -1.819683e-04  t[s]:     87.74
BandDavidson: Iter:   6  Eband: -0.018781728309698  dEband: -1.250468e-04  t[s]:     94.13
BandDavidson: Iter:   7  Eband: -0.018867982776818  dEband: -8.625447e-05  t[s]:    100.51
BandDavidson: Iter:   8  Eband: -0.018907098501405  dEband: -3.911572e-05  t[s]:    106.90
BandDavidson: Iter:   9  Eband: -0.018923830588817  dEband: -1.673209e-05  t[s]:    113.28
BandDavidson: Iter:  10  Eband: -0.018933552455383  dEband: -9.721867e-06  t[s]:    119.66
BandDavidson: Iter:  11  Eband: -0.018939956556992  dEband: -6.404102e-06  t[s]:    126.05
BandDavidson: Iter:  12  Eband: -0.018944477182134  dEband: -4.520625e-06  t[s]:    132.42
BandDavidson: Iter:  13  Eband: -0.018947983103590  dEband: -3.505921e-06  t[s]:    138.74
BandDavidson: Iter:  14  Eband: -0.018950832413515  dEband: -2.849310e-06  t[s]:    145.03
BandDavidson: Iter:  15  Eband: -0.018953248891000  dEband: -2.416477e-06  t[s]:    151.29
BandDavidson: Iter:  16  Eband: -0.018955381229637  dEband: -2.132339e-06  t[s]:    157.58
BandDavidson: Iter:  17  Eband: -0.018957353176653  dEband: -1.971947e-06  t[s]:    163.86
BandDavidson: Iter:  18  Eband: -0.018959791757054  dEband: -2.438580e-06  t[s]:    170.15
BandDavidson: Iter:  19  Eband: -0.018962319658868  dEband: -2.527902e-06  t[s]:    176.44
BandDavidson: Iter:  20  Eband: -0.018967196165961  dEband: -4.876507e-06  t[s]:    182.73
BandDavidson: Iter:  21  Eband: -0.018972188315779  dEband: -4.992150e-06  t[s]:    189.02
BandDavidson: Iter:  22  Eband: -0.018975876608332  dEband: -3.688293e-06  t[s]:    195.14
BandDavidson: Iter:  23  Eband: -0.018978716366770  dEband: -2.839758e-06  t[s]:    201.27
BandDavidson: Iter:  24  Eband: -0.018981000421700  dEband: -2.284055e-06  t[s]:    207.39
BandDavidson: Iter:  25  Eband: -0.018982844544234  dEband: -1.844123e-06  t[s]:    213.50
BandDavidson: Iter:  26  Eband: -0.018984315913708  dEband: -1.471369e-06  t[s]:    219.61
BandDavidson: Iter:  27  Eband: -0.018985480729249  dEband: -1.164816e-06  t[s]:    225.72
BandDavidson: Iter:  28  Eband: -0.018986393578558  dEband: -9.128493e-07  t[s]:    231.65
BandDavidson: Iter:  29  Eband: -0.018987114540474  dEband: -7.209619e-07  t[s]:    237.32
BandDavidson: Iter:  30  Eband: -0.018987676894437  dEband: -5.623540e-07  t[s]:    242.55
BandDavidson: Iter:  31  Eband: -0.018988118109884  dEband: -4.412154e-07  t[s]:    247.66
BandDavidson: Iter:  32  Eband: -0.018988468836303  dEband: -3.507264e-07  t[s]:    252.37
BandDavidson: Iter:  33  Eband: -0.018988751301434  dEband: -2.824651e-07  t[s]:    256.98
BandDavidson: Iter:  34  Eband: -0.018988980035426  dEband: -2.287340e-07  t[s]:    261.58
BandDavidson: Iter:  35  Eband: -0.018989165465011  dEband: -1.854296e-07  t[s]:    266.14
BandDavidson: Iter:  36  Eband: -0.018989316627523  dEband: -1.511625e-07  t[s]:    270.68
BandDavidson: Iter:  37  Eband: -0.018989439057738  dEband: -1.224302e-07  t[s]:    275.02
BandDavidson: Iter:  38  Eband: -0.018989538374586  dEband: -9.931685e-08  t[s]:    279.23
BandDavidson: Iter:  39  Eband: -0.018989619048664  dEband: -8.067408e-08  t[s]:    283.34
BandDavidson: Iter:  40  Eband: -0.018989684981961  dEband: -6.593330e-08  t[s]:    287.46
BandDavidson: Iter:  41  Eband: -0.018989738932152  dEband: -5.395019e-08  t[s]:    291.58
BandDavidson: Iter:  42  Eband: -0.018989783250176  dEband: -4.431802e-08  t[s]:    295.68
BandDavidson: Iter:  43  Eband: -0.018989819662016  dEband: -3.641184e-08  t[s]:    299.78
BandDavidson: Iter:  44  Eband: -0.018989849576768  dEband: -2.991475e-08  t[s]:    303.87
BandDavidson: Iter:  45  Eband: -0.018989874024849  dEband: -2.444808e-08  t[s]:    307.95
BandDavidson: Iter:  46  Eband: -0.018989893948408  dEband: -1.992356e-08  t[s]:    311.97
BandDavidson: Iter:  47  Eband: -0.018989910196066  dEband: -1.624766e-08  t[s]:    315.92
BandDavidson: Iter:  48  Eband: -0.018989923525834  dEband: -1.332977e-08  t[s]:    319.79
BandDavidson: Iter:  49  Eband: -0.018989934495615  dEband: -1.096978e-08  t[s]:    323.66
BandDavidson: Iter:  50  Eband: -0.018989943526129  dEband: -9.030514e-09  t[s]:    327.43
BandDavidson: Converged (dEband<1.000000e-08)

---- Minimization of quantum number:     1  [ +0.0000000 +0.0277778 +0.0000000 ]  0.004629630  spin +1 ----
BandDavidson: Iter:   0  Eband: -0.057964462328294
BandDavidson: Iter:   1  Eband: -0.091453230442894  dEband: -3.348877e-02  t[s]:    337.78
BandDavidson: Iter:   2  Eband: -0.102795547869945  dEband: -1.134232e-02  t[s]:    344.13
BandDavidson: Iter:   3  Eband: -0.107282504128753  dEband: -4.486956e-03  t[s]:    350.48
BandDavidson: Iter:   4  Eband: -0.110798279316359  dEband: -3.515775e-03  t[s]:    356.82
BandDavidson: Iter:   5  Eband: -0.112183157324730  dEband: -1.384878e-03  t[s]:    363.18
BandDavidson: Iter:   6  Eband: -0.112873388120294  dEband: -6.902308e-04  t[s]:    369.54
BandDavidson: Iter:   7  Eband: -0.113230190073376  dEband: -3.568020e-04  t[s]:    375.90
BandDavidson: Iter:   8  Eband: -0.113412432937238  dEband: -1.822429e-04  t[s]:    382.24
BandDavidson: Iter:   9  Eband: -0.113496823959010  dEband: -8.439102e-05  t[s]:    388.56
BandDavidson: Iter:  10  Eband: -0.113547726133406  dEband: -5.090217e-05  t[s]:    394.88
BandDavidson: Iter:  11  Eband: -0.113581506579991  dEband: -3.378045e-05  t[s]:    401.21
BandDavidson: Iter:  12  Eband: -0.113605406971601  dEband: -2.390039e-05  t[s]:    407.50
BandDavidson: Iter:  13  Eband: -0.113623334165428  dEband: -1.792719e-05  t[s]:    413.78
BandDavidson: Iter:  14  Eband: -0.113637350732402  dEband: -1.401657e-05  t[s]:    420.02
BandDavidson: Iter:  15  Eband: -0.113648979643856  dEband: -1.162891e-05  t[s]:    426.28
BandDavidson: Iter:  16  Eband: -0.113659287747761  dEband: -1.030810e-05  t[s]:    432.54
BandDavidson: Iter:  17  Eband: -0.113669242734911  dEband: -9.954987e-06  t[s]:    438.82
BandDavidson: Iter:  18  Eband: -0.113689360075625  dEband: -2.011734e-05  t[s]:    445.09
BandDavidson: Iter:  19  Eband: -0.113715986266853  dEband: -2.662619e-05  t[s]:    451.35
BandDavidson: Iter:  20  Eband: -0.113743917481795  dEband: -2.793121e-05  t[s]:    457.61
BandDavidson: Iter:  21  Eband: -0.113773317426643  dEband: -2.939994e-05  t[s]:    463.87
BandDavidson: Iter:  22  Eband: -0.113800720349550  dEband: -2.740292e-05  t[s]:    470.05
BandDavidson: Iter:  23  Eband: -0.113823197899943  dEband: -2.247755e-05  t[s]:    476.16
BandDavidson: Iter:  24  Eband: -0.113841214059331  dEband: -1.801616e-05  t[s]:    482.27
BandDavidson: Iter:  25  Eband: -0.113855803524398  dEband: -1.458947e-05  t[s]:    488.41
BandDavidson: Iter:  26  Eband: -0.113867818830232  dEband: -1.201531e-05  t[s]:    494.52
BandDavidson: Iter:  27  Eband: -0.113878198315195  dEband: -1.037948e-05  t[s]:    500.60
BandDavidson: Iter:  28  Eband: -0.113887777787923  dEband: -9.579473e-06  t[s]:    506.49
BandDavidson: Iter:  29  Eband: -0.113895863758563  dEband: -8.085971e-06  t[s]:    512.09
BandDavidson: Iter:  30  Eband: -0.113902505101103  dEband: -6.641343e-06  t[s]:    517.47
BandDavidson: Iter:  31  Eband: -0.113907990009685  dEband: -5.484909e-06  t[s]:    522.75
BandDavidson: Iter:  32  Eband: -0.113912488014272  dEband: -4.498005e-06  t[s]:    527.40
BandDavidson: Iter:  33  Eband: -0.113916184445092  dEband: -3.696431e-06  t[s]:    531.98
BandDavidson: Iter:  34  Eband: -0.113919250525833  dEband: -3.066081e-06  t[s]:    536.60
BandDavidson: Iter:  35  Eband: -0.113921818856582  dEband: -2.568331e-06  t[s]:    541.21
BandDavidson: Iter:  36  Eband: -0.113923969889270  dEband: -2.151033e-06  t[s]:    545.78
BandDavidson: Iter:  37  Eband: -0.113925759930176  dEband: -1.790041e-06  t[s]:    550.10
BandDavidson: Iter:  38  Eband: -0.113927232597192  dEband: -1.472667e-06  t[s]:    554.32
BandDavidson: Iter:  39  Eband: -0.113928457686854  dEband: -1.225090e-06  t[s]:    558.44
BandDavidson: Iter:  40  Eband: -0.113929477962178  dEband: -1.020275e-06  t[s]:    562.53
BandDavidson: Iter:  41  Eband: -0.113930330479174  dEband: -8.525170e-07  t[s]:    566.68
BandDavidson: Iter:  42  Eband: -0.113931047402187  dEband: -7.169230e-07  t[s]:    570.83
BandDavidson: Iter:  43  Eband: -0.113931653408712  dEband: -6.060065e-07  t[s]:    574.91
BandDavidson: Iter:  44  Eband: -0.113932165463714  dEband: -5.120550e-07  t[s]:    578.99
BandDavidson: Iter:  45  Eband: -0.113932598364402  dEband: -4.329007e-07  t[s]:    583.04
BandDavidson: Iter:  46  Eband: -0.113932964772997  dEband: -3.664086e-07  t[s]:    587.08
BandDavidson: Iter:  47  Eband: -0.113933275053226  dEband: -3.102802e-07  t[s]:    591.14
BandDavidson: Iter:  48  Eband: -0.113933538555696  dEband: -2.635025e-07  t[s]:    595.19
BandDavidson: Iter:  49  Eband: -0.113933760822863  dEband: -2.222672e-07  t[s]:    599.14
BandDavidson: Iter:  50  Eband: -0.113933955056642  dEband: -1.942338e-07  t[s]:    603.07
BandDavidson: Iter:  51  Eband: -0.113934115533886  dEband: -1.604772e-07  t[s]:    606.89
BandDavidson: Iter:  52  Eband: -0.113934248265270  dEband: -1.327314e-07  t[s]:    610.63
BandDavidson: Iter:  53  Eband: -0.113934359520009  dEband: -1.112547e-07  t[s]:    614.28
BandDavidson: Iter:  54  Eband: -0.113934453114550  dEband: -9.359454e-08  t[s]:    617.80
BandDavidson: Iter:  55  Eband: -0.113934532210683  dEband: -7.909613e-08  t[s]:    621.22
BandDavidson: Iter:  56  Eband: -0.113934599103261  dEband: -6.689258e-08  t[s]:    624.67
BandDavidson: Iter:  57  Eband: -0.113934656059881  dEband: -5.695662e-08  t[s]:    628.09
BandDavidson: Iter:  58  Eband: -0.113934704253112  dEband: -4.819323e-08  t[s]:    631.50
BandDavidson: Iter:  59  Eband: -0.113934745323717  dEband: -4.107061e-08  t[s]:    634.90
BandDavidson: Iter:  60  Eband: -0.113934779965445  dEband: -3.464173e-08  t[s]:    638.29
BandDavidson: Iter:  61  Eband: -0.113934809346317  dEband: -2.938087e-08  t[s]:    641.69
BandDavidson: Iter:  62  Eband: -0.113934834077270  dEband: -2.473095e-08  t[s]:    644.97
BandDavidson: Iter:  63  Eband: -0.113934854931236  dEband: -2.085397e-08  t[s]:    648.19
BandDavidson: Iter:  64  Eband: -0.113934872576845  dEband: -1.764561e-08  t[s]:    651.38
BandDavidson: Iter:  65  Eband: -0.113934887537391  dEband: -1.496055e-08  t[s]:    654.49
BandDavidson: Iter:  66  Eband: -0.113934900274283  dEband: -1.273689e-08  t[s]:    657.59
BandDavidson: Iter:  67  Eband: -0.113934911073505  dEband: -1.079922e-08  t[s]:    660.66
BandDavidson: Iter:  68  Eband: -0.113934920282116  dEband: -9.208611e-09  t[s]:    663.71
BandDavidson: Converged (dEband<1.000000e-08)

---- Minimization of quantum number:     2  [ +0.0000000 +0.0555556 +0.0000000 ]  0.004629630  spin +1 ----
BandDavidson: Iter:   0  Eband: -0.057987662968094
BandDavidson: Iter:   1  Eband: -0.091642535961365  dEband: -3.365487e-02  t[s]:    674.10
BandDavidson: Iter:   2  Eband: -0.103083560046511  dEband: -1.144102e-02  t[s]:    680.49
BandDavidson: Iter:   3  Eband: -0.107238208473783  dEband: -4.154648e-03  t[s]:    686.85
BandDavidson: Iter:   4  Eband: -0.110313389319004  dEband: -3.075181e-03  t[s]:    693.22
BandDavidson: Iter:   5  Eband: -0.111779349635687  dEband: -1.465960e-03  t[s]:    699.60
BandDavidson: Iter:   6  Eband: -0.112716168919919  dEband: -9.368193e-04  t[s]:    705.96
BandDavidson: Iter:   7  Eband: -0.113067107671313  dEband: -3.509388e-04  t[s]:    712.32
BandDavidson: Iter:   8  Eband: -0.113276140188765  dEband: -2.090325e-04  t[s]:    718.68
BandDavidson: Iter:   9  Eband: -0.113395479230046  dEband: -1.193390e-04  t[s]:    725.02
BandDavidson: Iter:  10  Eband: -0.113469315469989  dEband: -7.383624e-05  t[s]:    731.38
BandDavidson: Iter:  11  Eband: -0.113518959181481  dEband: -4.964371e-05  t[s]:    737.73
BandDavidson: Iter:  12  Eband: -0.113555201405708  dEband: -3.624222e-05  t[s]:    744.04
BandDavidson: Iter:  13  Eband: -0.113590584343162  dEband: -3.538294e-05  t[s]:    750.28
BandDavidson: Iter:  14  Eband: -0.113632610488685  dEband: -4.202615e-05  t[s]:    756.51
BandDavidson: Iter:  15  Eband: -0.113665157775589  dEband: -3.254729e-05  t[s]:    762.72
BandDavidson: Iter:  16  Eband: -0.113692769921517  dEband: -2.761215e-05  t[s]:    768.93
BandDavidson: Iter:  17  Eband: -0.113717744254498  dEband: -2.497433e-05  t[s]:    775.14
BandDavidson: Iter:  18  Eband: -0.113741000267934  dEband: -2.325601e-05  t[s]:    781.36
BandDavidson: Iter:  19  Eband: -0.113770012268111  dEband: -2.901200e-05  t[s]:    787.59
BandDavidson: Iter:  20  Eband: -0.113801822696837  dEband: -3.181043e-05  t[s]:    793.82
BandDavidson: Iter:  21  Eband: -0.113829453960728  dEband: -2.763126e-05  t[s]:    800.04
BandDavidson: Iter:  22  Eband: -0.113856007093905  dEband: -2.655313e-05  t[s]:    806.19
BandDavidson: Iter:  23  Eband: -0.113880786618464  dEband: -2.477952e-05  t[s]:    812.32
BandDavidson: Iter:  24  Eband: -0.113902002731707  dEband: -2.121611e-05  t[s]:    818.43
BandDavidson: Iter:  25  Eband: -0.113918947669793  dEband: -1.694494e-05  t[s]:    824.49
BandDavidson: Iter:  26  Eband: -0.113932823760087  dEband: -1.387609e-05  t[s]:    830.55
BandDavidson: Iter:  27  Eband: -0.113944323472574  dEband: -1.149971e-05  t[s]:    836.57
BandDavidson: Iter:  28  Eband: -0.113953607197951  dEband: -9.283725e-06  t[s]:    842.20
BandDavidson: Iter:  29  Eband: -0.113961134451205  dEband: -7.527253e-06  t[s]:    847.54
BandDavidson: Iter:  30  Eband: -0.113967973468335  dEband: -6.839017e-06  t[s]:    852.86
BandDavidson: Iter:  31  Eband: -0.113975144435152  dEband: -7.170967e-06  t[s]:    858.13
BandDavidson: Iter:  32  Eband: -0.113981741864020  dEband: -6.597429e-06  t[s]:    862.88
BandDavidson: Iter:  33  Eband: -0.113987129429137  dEband: -5.387565e-06  t[s]:    867.52
BandDavidson: Iter:  34  Eband: -0.113991398334618  dEband: -4.268905e-06  t[s]:    872.10
BandDavidson: Iter:  35  Eband: -0.113994905220680  dEband: -3.506886e-06  t[s]:    876.68
BandDavidson: Iter:  36  Eband: -0.113997790496259  dEband: -2.885276e-06  t[s]:    881.26
BandDavidson: Iter:  37  Eband: -0.114000174883657  dEband: -2.384387e-06  t[s]:    885.66
BandDavidson: Iter:  38  Eband: -0.114002116685380  dEband: -1.941802e-06  t[s]:    889.99
BandDavidson: Iter:  39  Eband: -0.114003700017090  dEband: -1.583332e-06  t[s]:    894.11
BandDavidson: Iter:  40  Eband: -0.114004989585852  dEband: -1.289569e-06  t[s]:    898.23
BandDavidson: Iter:  41  Eband: -0.114006065476112  dEband: -1.075890e-06  t[s]:    902.28
BandDavidson: Iter:  42  Eband: -0.114006968121982  dEband: -9.026459e-07  t[s]:    906.41
BandDavidson: Iter:  43  Eband: -0.114007728492413  dEband: -7.603704e-07  t[s]:    910.52
BandDavidson: Iter:  44  Eband: -0.114008370033597  dEband: -6.415412e-07  t[s]:    914.60
BandDavidson: Iter:  45  Eband: -0.114008910503431  dEband: -5.404698e-07  t[s]:    918.74
BandDavidson: Iter:  46  Eband: -0.114009365421746  dEband: -4.549183e-07  t[s]:    922.80
BandDavidson: Iter:  47  Eband: -0.114009748678580  dEband: -3.832568e-07  t[s]:    926.83
BandDavidson: Iter:  48  Eband: -0.114010071437544  dEband: -3.227590e-07  t[s]:    930.91
BandDavidson: Iter:  49  Eband: -0.114010344138899  dEband: -2.727014e-07  t[s]:    934.94
BandDavidson: Iter:  50  Eband: -0.114010574075404  dEband: -2.299365e-07  t[s]:    938.90
BandDavidson: Iter:  51  Eband: -0.114010768095537  dEband: -1.940201e-07  t[s]:    942.81
BandDavidson: Iter:  52  Eband: -0.114010931405849  dEband: -1.633103e-07  t[s]:    946.58
BandDavidson: Iter:  53  Eband: -0.114011068719632  dEband: -1.373138e-07  t[s]:    950.16
BandDavidson: Iter:  54  Eband: -0.114011184426210  dEband: -1.157066e-07  t[s]:    953.72
BandDavidson: Iter:  55  Eband: -0.114011282011334  dEband: -9.758512e-08  t[s]:    957.12
BandDavidson: Iter:  56  Eband: -0.114011364661415  dEband: -8.265008e-08  t[s]:    960.59
BandDavidson: Iter:  57  Eband: -0.114011434647799  dEband: -6.998638e-08  t[s]:    964.00
BandDavidson: Iter:  58  Eband: -0.114011494094936  dEband: -5.944714e-08  t[s]:    967.45
BandDavidson: Iter:  59  Eband: -0.114011544487460  dEband: -5.039252e-08  t[s]:    970.88
BandDavidson: Iter:  60  Eband: -0.114011587188103  dEband: -4.270064e-08  t[s]:    974.23
BandDavidson: Iter:  61  Eband: -0.114011623417522  dEband: -3.622942e-08  t[s]:    977.58
BandDavidson: Iter:  62  Eband: -0.114011654203555  dEband: -3.078603e-08  t[s]:    980.84
BandDavidson: Iter:  63  Eband: -0.114011680306760  dEband: -2.610321e-08  t[s]:    984.05
BandDavidson: Iter:  64  Eband: -0.114011702506187  dEband: -2.219943e-08  t[s]:    987.22
BandDavidson: Iter:  65  Eband: -0.114011721288394  dEband: -1.878221e-08  t[s]:    990.34
BandDavidson: Iter:  66  Eband: -0.114011737291316  dEband: -1.600292e-08  t[s]:    993.44
BandDavidson: Iter:  67  Eband: -0.114011750899045  dEband: -1.360773e-08  t[s]:    996.55
BandDavidson: Iter:  68  Eband: -0.114011762496326  dEband: -1.159728e-08  t[s]:    999.62
BandDavidson: Iter:  69  Eband: -0.114011772359498  dEband: -9.863172e-09  t[s]:   1002.72
BandDavidson: Converged (dEband<1.000000e-08)

---- Minimization of quantum number:     3  [ +0.0000000 +0.0833333 +0.0000000 ]  0.004629630  spin +1 ----
BandDavidson: Iter:   0  Eband: -0.057924020272611
BandDavidson: Iter:   1  Eband: -0.091512582088578  dEband: -3.358856e-02  t[s]:   1013.06
BandDavidson: Iter:   2  Eband: -0.102840261862324  dEband: -1.132768e-02  t[s]:   1019.46
BandDavidson: Iter:   3  Eband: -0.106968158557697  dEband: -4.127897e-03  t[s]:   1025.83
BandDavidson: Iter:   4  Eband: -0.109807476285686  dEband: -2.839318e-03  t[s]:   1032.19
BandDavidson: Iter:   5  Eband: -0.111143535917324  dEband: -1.336060e-03  t[s]:   1038.57
BandDavidson: Iter:   6  Eband: -0.112189559821589  dEband: -1.046024e-03  t[s]:   1044.94
BandDavidson: Iter:   7  Eband: -0.112875681404805  dEband: -6.861216e-04  t[s]:   1051.29
BandDavidson: Iter:   8  Eband: -0.113101392773737  dEband: -2.257114e-04  t[s]:   1057.65
BandDavidson: Iter:   9  Eband: -0.113262107116939  dEband: -1.607143e-04  t[s]:   1064.01
BandDavidson: Iter:  10  Eband: -0.113359149697324  dEband: -9.704258e-05  t[s]:   1070.38
BandDavidson: Iter:  11  Eband: -0.113429999805148  dEband: -7.085011e-05  t[s]:   1076.72
BandDavidson: Iter:  12  Eband: -0.113503958081311  dEband: -7.395828e-05  t[s]:   1083.06
BandDavidson: Iter:  13  Eband: -0.113562887407186  dEband: -5.892933e-05  t[s]:   1089.32
BandDavidson: Iter:  14  Eband: -0.113608814964710  dEband: -4.592756e-05  t[s]:   1095.52
BandDavidson: Iter:  15  Eband: -0.113649829905019  dEband: -4.101494e-05  t[s]:   1101.72
BandDavidson: Iter:  16  Eband: -0.113695120395643  dEband: -4.529049e-05  t[s]:   1107.95
BandDavidson: Iter:  17  Eband: -0.113739227882855  dEband: -4.410749e-05  t[s]:   1114.15
BandDavidson: Iter:  18  Eband: -0.113784441579931  dEband: -4.521370e-05  t[s]:   1120.37
BandDavidson: Iter:  19  Eband: -0.113830293986208  dEband: -4.585241e-05  t[s]:   1126.59
BandDavidson: Iter:  20  Eband: -0.113867056906331  dEband: -3.676292e-05  t[s]:   1132.78
BandDavidson: Iter:  21  Eband: -0.113897734938511  dEband: -3.067803e-05  t[s]:   1138.97
BandDavidson: Iter:  22  Eband: -0.113924075224170  dEband: -2.634029e-05  t[s]:   1145.09
BandDavidson: Iter:  23  Eband: -0.113948047692185  dEband: -2.397247e-05  t[s]:   1151.21
BandDavidson: Iter:  24  Eband: -0.113971942875680  dEband: -2.389518e-05  t[s]:   1157.25
BandDavidson: Iter:  25  Eband: -0.113994988173211  dEband: -2.304530e-05  t[s]:   1163.28
BandDavidson: Iter:  26  Eband: -0.114014535127225  dEband: -1.954695e-05  t[s]:   1169.33
BandDavidson: Iter:  27  Eband: -0.114030422364018  dEband: -1.588724e-05  t[s]:   1175.29
BandDavidson: Iter:  28  Eband: -0.114043467264691  dEband: -1.304490e-05  t[s]:   1181.12
BandDavidson: Iter:  29  Eband: -0.114054042824323  dEband: -1.057556e-05  t[s]:   1186.72
BandDavidson: Iter:  30  Eband: -0.114062497157135  dEband: -8.454333e-06  t[s]:   1192.03
BandDavidson: Iter:  31  Eband: -0.114069362780677  dEband: -6.865624e-06  t[s]:   1197.12
BandDavidson: Iter:  32  Eband: -0.114075047404599  dEband: -5.684624e-06  t[s]:   1201.84
BandDavidson: Iter:  33  Eband: -0.114079704395644  dEband: -4.656991e-06  t[s]:   1206.49
BandDavidson: Iter:  34  Eband: -0.114083532798025  dEband: -3.828402e-06  t[s]:   1211.05
BandDavidson: Iter:  35  Eband: -0.114086707008684  dEband: -3.174211e-06  t[s]:   1215.59
BandDavidson: Iter:  36  Eband: -0.114089369869363  dEband: -2.662861e-06  t[s]:   1220.16
BandDavidson: Iter:  37  Eband: -0.114091603157711  dEband: -2.233288e-06  t[s]:   1224.54
BandDavidson: Iter:  38  Eband: -0.114093472829379  dEband: -1.869672e-06  t[s]:   1228.86
BandDavidson: Iter:  39  Eband: -0.114095036501437  dEband: -1.563672e-06  t[s]:   1233.09
BandDavidson: Iter:  40  Eband: -0.114096341506722  dEband: -1.305005e-06  t[s]:   1237.29
BandDavidson: Iter:  41  Eband: -0.114097432875851  dEband: -1.091369e-06  t[s]:   1241.38
BandDavidson: Iter:  42  Eband: -0.114098352774506  dEband: -9.198987e-07  t[s]:   1245.47
BandDavidson: Iter:  43  Eband: -0.114099129492055  dEband: -7.767175e-07  t[s]:   1249.59
BandDavidson: Iter:  44  Eband: -0.114099787581122  dEband: -6.580891e-07  t[s]:   1253.61
BandDavidson: Iter:  45  Eband: -0.114100340867804  dEband: -5.532867e-07  t[s]:   1257.64
BandDavidson: Iter:  46  Eband: -0.114100810220808  dEband: -4.693530e-07  t[s]:   1261.70
BandDavidson: Iter:  47  Eband: -0.114101207431982  dEband: -3.972112e-07  t[s]:   1265.71
BandDavidson: Iter:  48  Eband: -0.114101545159851  dEband: -3.377279e-07  t[s]:   1269.75
BandDavidson: Iter:  49  Eband: -0.114101828914133  dEband: -2.837543e-07  t[s]:   1273.69
BandDavidson: Iter:  50  Eband: -0.114102069006501  dEband: -2.400924e-07  t[s]:   1277.55
BandDavidson: Iter:  51  Eband: -0.114102271097360  dEband: -2.020909e-07  t[s]:   1281.36
BandDavidson: Iter:  52  Eband: -0.114102442557198  dEband: -1.714598e-07  t[s]:   1285.08
BandDavidson: Iter:  53  Eband: -0.114102586768444  dEband: -1.442112e-07  t[s]:   1288.71
BandDavidson: Iter:  54  Eband: -0.114102708389059  dEband: -1.216206e-07  t[s]:   1292.24
BandDavidson: Iter:  55  Eband: -0.114102809921089  dEband: -1.015320e-07  t[s]:   1295.64
BandDavidson: Iter:  56  Eband: -0.114102895939131  dEband: -8.601804e-08  t[s]:   1299.10
BandDavidson: Iter:  57  Eband: -0.114102968054550  dEband: -7.211542e-08  t[s]:   1302.52
BandDavidson: Iter:  58  Eband: -0.114103028750945  dEband: -6.069640e-08  t[s]:   1305.94
BandDavidson: Iter:  59  Eband: -0.114103079524024  dEband: -5.077308e-08  t[s]:   1309.29
BandDavidson: Iter:  60  Eband: -0.114103122356537  dEband: -4.283251e-08  t[s]:   1312.65
BandDavidson: Iter:  61  Eband: -0.114103158317764  dEband: -3.596123e-08  t[s]:   1315.94
BandDavidson: Iter:  62  Eband: -0.114103188577070  dEband: -3.025931e-08  t[s]:   1319.20
BandDavidson: Iter:  63  Eband: -0.114103214050775  dEband: -2.547371e-08  t[s]:   1322.43
BandDavidson: Iter:  64  Eband: -0.114103235408118  dEband: -2.135734e-08  t[s]:   1325.60
BandDavidson: Iter:  65  Eband: -0.114103253398192  dEband: -1.799007e-08  t[s]:   1328.71
BandDavidson: Iter:  66  Eband: -0.114103268549939  dEband: -1.515175e-08  t[s]:   1331.80
BandDavidson: Iter:  67  Eband: -0.114103281487733  dEband: -1.293779e-08  t[s]:   1334.92
BandDavidson: Iter:  68  Eband: -0.114103292481403  dEband: -1.099367e-08  t[s]:   1338.00
BandDavidson: Iter:  69  Eband: -0.114103301889020  dEband: -9.407617e-09  t[s]:   1341.12
BandDavidson: Converged (dEband<1.000000e-08)

---- Minimization of quantum number:     4  [ +0.0000000 +0.1111111 +0.0000000 ]  0.004629630  spin +1 ----
BandDavidson: Iter:   0  Eband: -0.057943577109123
BandDavidson: Iter:   1  Eband: -0.091579547347161  dEband: -3.363597e-02  t[s]:   1351.41
BandDavidson: Iter:   2  Eband: -0.102980720045534  dEband: -1.140117e-02  t[s]:   1357.74
BandDavidson: Iter:   3  Eband: -0.107056749046258  dEband: -4.076029e-03  t[s]:   1364.07
BandDavidson: Iter:   4  Eband: -0.109836113562544  dEband: -2.779365e-03  t[s]:   1370.39
BandDavidson: Iter:   5  Eband: -0.111335051502517  dEband: -1.498938e-03  t[s]:   1376.71
BandDavidson: Iter:   6  Eband: -0.112279240136716  dEband: -9.441886e-04  t[s]:   1383.03
BandDavidson: Iter:   7  Eband: -0.112749779774018  dEband: -4.705396e-04  t[s]:   1389.35
BandDavidson: Iter:   8  Eband: -0.112958756316661  dEband: -2.089765e-04  t[s]:   1395.66
BandDavidson: Iter:   9  Eband: -0.113117410418294  dEband: -1.586541e-04  t[s]:   1401.99
BandDavidson: Iter:  10  Eband: -0.113226847219733  dEband: -1.094368e-04  t[s]:   1408.29
BandDavidson: Iter:  11  Eband: -0.113305365858192  dEband: -7.851864e-05  t[s]:   1414.60
BandDavidson: Iter:  12  Eband: -0.113364515318756  dEband: -5.914946e-05  t[s]:   1420.89
BandDavidson: Iter:  13  Eband: -0.113445503332980  dEband: -8.098801e-05  t[s]:   1427.11
BandDavidson: Iter:  14  Eband: -0.113550342591256  dEband: -1.048393e-04  t[s]:   1433.28
BandDavidson: Iter:  15  Eband: -0.113646927030313  dEband: -9.658444e-05  t[s]:   1439.45
BandDavidson: Iter:  16  Eband: -0.113719797145481  dEband: -7.287012e-05  t[s]:   1445.63
BandDavidson: Iter:  17  Eband: -0.113773682643783  dEband: -5.388550e-05  t[s]:   1451.78
BandDavidson: Iter:  18  Eband: -0.113816511407770  dEband: -4.282876e-05  t[s]:   1457.94
BandDavidson: Iter:  19  Eband: -0.113860988146776  dEband: -4.447674e-05  t[s]:   1464.13
BandDavidson: Iter:  20  Eband: -0.113904963483937  dEband: -4.397534e-05  t[s]:   1470.29
BandDavidson: Iter:  21  Eband: -0.113944490053377  dEband: -3.952657e-05  t[s]:   1476.45
BandDavidson: Iter:  22  Eband: -0.113977215701005  dEband: -3.272565e-05  t[s]:   1482.52
BandDavidson: Iter:  23  Eband: -0.114005740932988  dEband: -2.852523e-05  t[s]:   1488.62
BandDavidson: Iter:  24  Eband: -0.114034016977453  dEband: -2.827604e-05  t[s]:   1494.64
BandDavidson: Iter:  25  Eband: -0.114063249388128  dEband: -2.923241e-05  t[s]:   1500.62
BandDavidson: Iter:  26  Eband: -0.114089001501553  dEband: -2.575211e-05  t[s]:   1506.61
BandDavidson: Iter:  27  Eband: -0.114108611631135  dEband: -1.961013e-05  t[s]:   1512.54
BandDavidson: Iter:  28  Eband: -0.114125631546991  dEband: -1.701992e-05  t[s]:   1518.24
BandDavidson: Iter:  29  Eband: -0.114137960331846  dEband: -1.232878e-05  t[s]:   1523.69
BandDavidson: Iter:  30  Eband: -0.114146487315174  dEband: -8.526983e-06  t[s]:   1529.05
BandDavidson: Iter:  31  Eband: -0.114153035352744  dEband: -6.548038e-06  t[s]:   1534.04
BandDavidson: Iter:  32  Eband: -0.114158100509677  dEband: -5.065157e-06  t[s]:   1538.75
BandDavidson: Iter:  33  Eband: -0.114162171787052  dEband: -4.071277e-06  t[s]:   1543.26
BandDavidson: Iter:  34  Eband: -0.114165468005267  dEband: -3.296218e-06  t[s]:   1547.76
BandDavidson: Iter:  35  Eband: -0.114168171386412  dEband: -2.703381e-06  t[s]:   1552.27
BandDavidson: Iter:  36  Eband: -0.114170387190711  dEband: -2.215804e-06  t[s]:   1556.79
BandDavidson: Iter:  37  Eband: -0.114172205493126  dEband: -1.818302e-06  t[s]:   1561.08
BandDavidson: Iter:  38  Eband: -0.114173688629986  dEband: -1.483137e-06  t[s]:   1565.28
BandDavidson: Iter:  39  Eband: -0.114174915856874  dEband: -1.227227e-06  t[s]:   1569.41
BandDavidson: Iter:  40  Eband: -0.114175931102451  dEband: -1.015246e-06  t[s]:   1573.46
BandDavidson: Iter:  41  Eband: -0.114176778432281  dEband: -8.473298e-07  t[s]:   1577.52
BandDavidson: Iter:  42  Eband: -0.114177487413076  dEband: -7.089808e-07  t[s]:   1581.58
BandDavidson: Iter:  43  Eband: -0.114178080887475  dEband: -5.934744e-07  t[s]:   1585.60
BandDavidson: Iter:  44  Eband: -0.114178579171631  dEband: -4.982842e-07  t[s]:   1589.63
BandDavidson: Iter:  45  Eband: -0.114178997610039  dEband: -4.184384e-07  t[s]:   1593.62
BandDavidson: Iter:  46  Eband: -0.114179350033485  dEband: -3.524234e-07  t[s]:   1597.60
BandDavidson: Iter:  47  Eband: -0.114179646536355  dEband: -2.965029e-07  t[s]:   1601.56
BandDavidson: Iter:  48  Eband: -0.114179896706136  dEband: -2.501698e-07  t[s]:   1605.48
BandDavidson: Iter:  49  Eband: -0.114180107273900  dEband: -2.105678e-07  t[s]:   1609.25
BandDavidson: Iter:  50  Eband: -0.114180285385158  dEband: -1.781113e-07  t[s]:   1612.97
BandDavidson: Iter:  51  Eband: -0.114180435200088  dEband: -1.498149e-07  t[s]:   1616.65
BandDavidson: Iter:  52  Eband: -0.114180561673743  dEband: -1.264737e-07  t[s]:   1620.27
BandDavidson: Iter:  53  Eband: -0.114180667929607  dEband: -1.062559e-07  t[s]:   1623.76
BandDavidson: Iter:  54  Eband: -0.114180757756760  dEband: -8.982715e-08  t[s]:   1627.25
BandDavidson: Iter:  55  Eband: -0.114180833784924  dEband: -7.602816e-08  t[s]:   1630.64
BandDavidson: Iter:  56  Eband: -0.114180898343352  dEband: -6.455843e-08  t[s]:   1634.01
BandDavidson: Iter:  57  Eband: -0.114180953281242  dEband: -5.493789e-08  t[s]:   1637.41
BandDavidson: Iter:  58  Eband: -0.114181000012308  dEband: -4.673107e-08  t[s]:   1640.75
BandDavidson: Iter:  59  Eband: -0.114181039780976  dEband: -3.976867e-08  t[s]:   1644.02
BandDavidson: Iter:  60  Eband: -0.114181073689636  dEband: -3.390866e-08  t[s]:   1647.28
BandDavidson: Iter:  61  Eband: -0.114181102644039  dEband: -2.895440e-08  t[s]:   1650.49
BandDavidson: Iter:  62  Eband: -0.114181127347271  dEband: -2.470323e-08  t[s]:   1653.64
BandDavidson: Iter:  63  Eband: -0.114181148448391  dEband: -2.110112e-08  t[s]:   1656.79
BandDavidson: Iter:  64  Eband: -0.114181166505538  dEband: -1.805715e-08  t[s]:   1659.94
BandDavidson: Iter:  65  Eband: -0.114181181925713  dEband: -1.542018e-08  t[s]:   1662.99
BandDavidson: Iter:  66  Eband: -0.114181195080102  dEband: -1.315439e-08  t[s]:   1666.05
BandDavidson: Iter:  67  Eband: -0.114181206370481  dEband: -1.129038e-08  t[s]:   1669.11
BandDavidson: Iter:  68  Eband: -0.114181216027557  dEband: -9.657076e-09  t[s]:   1672.17
BandDavidson: Converged (dEband<1.000000e-08)

---- Minimization of quantum number:     5  [ +0.0000000 +0.1388889 +0.0000000 ]  0.004629630  spin +1 ----
BandDavidson: Iter:   0  Eband: -0.057813530731038
BandDavidson: Iter:   1  Eband: -0.091579396674915  dEband: -3.376587e-02  t[s]:   1682.46
BandDavidson: Iter:   2  Eband: -0.103004819701010  dEband: -1.142542e-02  t[s]:   1688.78
BandDavidson: Iter:   3  Eband: -0.107037873157321  dEband: -4.033053e-03  t[s]:   1695.13
BandDavidson: Iter:   4  Eband: -0.109527437829839  dEband: -2.489565e-03  t[s]:   1701.48
BandDavidson: Iter:   5  Eband: -0.110702800537427  dEband: -1.175363e-03  t[s]:   1707.83
BandDavidson: Iter:   6  Eband: -0.111576755112644  dEband: -8.739546e-04  t[s]:   1714.18
BandDavidson: Iter:   7  Eband: -0.112262719984719  dEband: -6.859649e-04  t[s]:   1720.53
BandDavidson: Iter:   8  Eband: -0.112659009736612  dEband: -3.962898e-04  t[s]:   1726.86
BandDavidson: Iter:   9  Eband: -0.112968945129487  dEband: -3.099354e-04  t[s]:   1733.22
BandDavidson: Iter:  10  Eband: -0.113145951685777  dEband: -1.770066e-04  t[s]:   1739.53
BandDavidson: Iter:  11  Eband: -0.113274178262813  dEband: -1.282266e-04  t[s]:   1745.86
BandDavidson: Iter:  12  Eband: -0.113425655662172  dEband: -1.514774e-04  t[s]:   1752.21
BandDavidson: Iter:  13  Eband: -0.113547663839904  dEband: -1.220082e-04  t[s]:   1758.45
BandDavidson: Iter:  14  Eband: -0.113644627481072  dEband: -9.696364e-05  t[s]:   1764.64
BandDavidson: Iter:  15  Eband: -0.113722353887139  dEband: -7.772641e-05  t[s]:   1770.84
BandDavidson: Iter:  16  Eband: -0.113789750531712  dEband: -6.739664e-05  t[s]:   1777.04
BandDavidson: Iter:  17  Eband: -0.113845879973309  dEband: -5.612944e-05  t[s]:   1783.23
BandDavidson: Iter:  18  Eband: -0.113891729945228  dEband: -4.584997e-05  t[s]:   1789.42
BandDavidson: Iter:  19  Eband: -0.113932315082635  dEband: -4.058514e-05  t[s]:   1795.63
BandDavidson: Iter:  20  Eband: -0.113974183489734  dEband: -4.186841e-05  t[s]:   1801.80
BandDavidson: Iter:  21  Eband: -0.114015239002818  dEband: -4.105551e-05  t[s]:   1808.02
BandDavidson: Iter:  22  Eband: -0.114049224438575  dEband: -3.398544e-05  t[s]:   1814.16
BandDavidson: Iter:  23  Eband: -0.114074507147262  dEband: -2.528271e-05  t[s]:   1820.29
BandDavidson: Iter:  24  Eband: -0.114096181978264  dEband: -2.167483e-05  t[s]:   1826.38
BandDavidson: Iter:  25  Eband: -0.114115590456251  dEband: -1.940848e-05  t[s]:   1832.43
BandDavidson: Iter:  26  Eband: -0.114133427769046  dEband: -1.783731e-05  t[s]:   1838.47
BandDavidson: Iter:  27  Eband: -0.114149455717881  dEband: -1.602795e-05  t[s]:   1844.40
BandDavidson: Iter:  28  Eband: -0.114162713785383  dEband: -1.325807e-05  t[s]:   1850.13
BandDavidson: Iter:  29  Eband: -0.114173326291652  dEband: -1.061251e-05  t[s]:   1855.69
BandDavidson: Iter:  30  Eband: -0.114181728557336  dEband: -8.402266e-06  t[s]:   1860.98
BandDavidson: Iter:  31  Eband: -0.114188581365815  dEband: -6.852808e-06  t[s]:   1865.98
BandDavidson: Iter:  32  Eband: -0.114194293120336  dEband: -5.711755e-06  t[s]:   1870.72
BandDavidson: Iter:  33  Eband: -0.114199118058157  dEband: -4.824938e-06  t[s]:   1875.22
BandDavidson: Iter:  34  Eband: -0.114203206035382  dEband: -4.087977e-06  t[s]:   1879.72
BandDavidson: Iter:  35  Eband: -0.114206690004771  dEband: -3.483969e-06  t[s]:   1884.17
BandDavidson: Iter:  36  Eband: -0.114209643952944  dEband: -2.953948e-06  t[s]:   1888.52
BandDavidson: Iter:  37  Eband: -0.114212110306182  dEband: -2.466353e-06  t[s]:   1892.73
BandDavidson: Iter:  38  Eband: -0.114214160502837  dEband: -2.050197e-06  t[s]:   1896.99
BandDavidson: Iter:  39  Eband: -0.114215870646378  dEband: -1.710144e-06  t[s]:   1901.10
BandDavidson: Iter:  40  Eband: -0.114217310002610  dEband: -1.439356e-06  t[s]:   1905.23
BandDavidson: Iter:  41  Eband: -0.114218530412945  dEband: -1.220410e-06  t[s]:   1909.28
BandDavidson: Iter:  42  Eband: -0.114219566896410  dEband: -1.036483e-06  t[s]:   1913.33
BandDavidson: Iter:  43  Eband: -0.114220455280661  dEband: -8.883843e-07  t[s]:   1917.38
BandDavidson: Iter:  44  Eband: -0.114221211428231  dEband: -7.561476e-07  t[s]:   1921.42
BandDavidson: Iter:  45  Eband: -0.114221857588661  dEband: -6.461604e-07  t[s]:   1925.44
BandDavidson: Iter:  46  Eband: -0.114222405419961  dEband: -5.478313e-07  t[s]:   1929.44
BandDavidson: Iter:  47  Eband: -0.114222868564826  dEband: -4.631449e-07  t[s]:   1933.42
BandDavidson: Iter:  48  Eband: -0.114223257889107  dEband: -3.893243e-07  t[s]:   1937.37
BandDavidson: Iter:  49  Eband: -0.114223588819441  dEband: -3.309303e-07  t[s]:   1941.26
BandDavidson: Iter:  50  Eband: -0.114223869818162  dEband: -2.809987e-07  t[s]:   1945.02
BandDavidson: Iter:  51  Eband: -0.114224109981229  dEband: -2.401631e-07  t[s]:   1948.73
BandDavidson: Iter:  52  Eband: -0.114224315255174  dEband: -2.052739e-07  t[s]:   1952.43
BandDavidson: Iter:  53  Eband: -0.114224490273607  dEband: -1.750184e-07  t[s]:   1955.99
BandDavidson: Iter:  54  Eband: -0.114224640184523  dEband: -1.499109e-07  t[s]:   1959.53
BandDavidson: Iter:  55  Eband: -0.114224768198601  dEband: -1.280141e-07  t[s]:   1963.03
BandDavidson: Iter:  56  Eband: -0.114224876882964  dEband: -1.086844e-07  t[s]:   1966.36
BandDavidson: Iter:  57  Eband: -0.114224969617063  dEband: -9.273410e-08  t[s]:   1969.71
BandDavidson: Iter:  58  Eband: -0.114225049013952  dEband: -7.939689e-08  t[s]:   1973.04
BandDavidson: Iter:  59  Eband: -0.114225116924301  dEband: -6.791035e-08  t[s]:   1976.36
BandDavidson: Iter:  60  Eband: -0.114225175133535  dEband: -5.820923e-08  t[s]:   1979.55
BandDavidson: Iter:  61  Eband: -0.114225224936315  dEband: -4.980278e-08  t[s]:   1982.76
BandDavidson: Iter:  62  Eband: -0.114225267854030  dEband: -4.291771e-08  t[s]:   1985.93
BandDavidson: Iter:  63  Eband: -0.114225304903345  dEband: -3.704931e-08  t[s]:   1989.13
BandDavidson: Iter:  64  Eband: -0.114225336819519  dEband: -3.191617e-08  t[s]:   1992.31
BandDavidson: Iter:  65  Eband: -0.114225364521930  dEband: -2.770241e-08  t[s]:   1995.52
BandDavidson: Iter:  66  Eband: -0.114225388322055  dEband: -2.380013e-08  t[s]:   1998.63
BandDavidson: Iter:  67  Eband: -0.114225408857934  dEband: -2.053588e-08  t[s]:   2001.78
BandDavidson: Iter:  68  Eband: -0.114225426447804  dEband: -1.758987e-08  t[s]:   2004.83
BandDavidson: Iter:  69  Eband: -0.114225441598927  dEband: -1.515112e-08  t[s]:   2007.93
BandDavidson: Iter:  70  Eband: -0.114225454577721  dEband: -1.297879e-08  t[s]:   2011.01
BandDavidson: Iter:  71  Eband: -0.114225465769055  dEband: -1.119133e-08  t[s]:   2014.09
BandDavidson: Iter:  72  Eband: -0.114225475370902  dEband: -9.601847e-09  t[s]:   2017.13
BandDavidson: Converged (dEband<1.000000e-08)
Setting wave functions to eigenvectors of Hamiltonian
	FillingsUpdate:  mu: -0.083516002  nElectrons: 121.000000  magneticMoment: [ Abs: 0.01398  Tot: -0.01389 ]

Dumping 'Na-0.301.dosUp' ... done.
Dumping 'Na-0.301.dosDn' ... done.
End date and time: Thu Mar 31 22:24:53 2022  (Duration: 0-0:47:34.48)
Done!
