Second Layer Distance is 0.328

--------------------------------------------------------------------------
The library attempted to open the following supporting CUDA libraries,
but each of them failed.  CUDA-aware support is disabled.
libcuda.so.1: cannot open shared object file: No such file or directory
libcuda.dylib: cannot open shared object file: No such file or directory
/usr/lib64/libcuda.so.1: cannot open shared object file: No such file or directory
/usr/lib64/libcuda.dylib: cannot open shared object file: No such file or directory
If you are not interested in CUDA-aware support, then run with
--mca opal_warn_on_missing_libcuda 0 to suppress this message.  If you are interested
in CUDA-aware support, then try setting LD_LIBRARY_PATH to the location
of libcuda.so.1 to get passed this issue.
--------------------------------------------------------------------------
--------------------------------------------------------------------------
No OpenFabrics connection schemes reported that they were able to be
used on a specific port.  As such, the openib BTL (OpenFabrics
support) will be disabled for this port.

  Local host:           d-5-14-2
  Local device:         mlx5_1
  Local port:           1
  CPCs attempted:       rdmacm, udcm
--------------------------------------------------------------------------
[d-5-14-2:36691] [[39098,0],0] ORTE_ERROR_LOG: Out of resource in file util/show_help.c at line 507

*************** JDFTx 1.6.0 (git hash 42ebbcc2) ***************

Start date and time: Sat Apr  2 15:57:48 2022
Executable jdftx with command-line: -i Moire.dos.in
Running on hosts (process indices):  d-5-14-2 (0-37)
Divided in process groups (process indices):  0 (0)  1 (1)  2 (2)  3 (3)  4 (4)  5 (5)  6 (6)  7 (7)  8 (8)  9 (9)  10 (10)  11 (11)  12 (12)  13 (13)  14 (14)  15 (15)  16 (16)  17 (17)  18 (18)  19 (19)  20 (20)  21 (21)  22 (22)  23 (23)  24 (24)  25 (25)  26 (26)  27 (27)  28 (28)  29 (29)  30 (30)  31 (31)  32 (32)  33 (33)  34 (34)  35 (35)  36 (36)  37 (37)
Resource initialization completed at t[s]:      0.00
Run totals: 38 processes, 48 threads, 0 GPUs


Input parsed successfully to the following command list (including defaults):

basis kpoint-dependent
coords-type Lattice
core-overlap-check vector
coulomb-interaction Slab 001
davidson-band-ratio 1.1
dump End DOS
dump-name Cs-0.328.$VAR
elec-cutoff 20
elec-eigen-algo Davidson
elec-ex-corr gga-PBE
elec-initial-magnetization 1.000000 no
elec-smearing Fermi 1e-05
electronic-minimize  \
	dirUpdateScheme      FletcherReeves \
	linminMethod         DirUpdateRecommended \
	nIterations          100 \
	history              15 \
	knormThreshold       0 \
	energyDiffThreshold  1e-08 \
	nEnergyDiff          2 \
	alphaTstart          1 \
	alphaTmin            1e-10 \
	updateTestStepSize   yes \
	alphaTreduceFactor   0.1 \
	alphaTincreaseFactor 3 \
	nAlphaAdjustMax      3 \
	wolfeEnergy          0.0001 \
	wolfeGradient        0.9 \
	fdTest               no
exchange-regularization WignerSeitzTruncated
fix-electron-density ../Cs-0.328.$VAR
fluid None
fluid-ex-corr (null) lda-PZ
fluid-gummel-loop 10 1.000000e-05
fluid-minimize  \
	dirUpdateScheme      PolakRibiere \
	linminMethod         DirUpdateRecommended \
	nIterations          100 \
	history              15 \
	knormThreshold       0 \
	energyDiffThreshold  0 \
	nEnergyDiff          2 \
	alphaTstart          1 \
	alphaTmin            1e-10 \
	updateTestStepSize   yes \
	alphaTreduceFactor   0.1 \
	alphaTincreaseFactor 3 \
	nAlphaAdjustMax      3 \
	wolfeEnergy          0.0001 \
	wolfeGradient        0.9 \
	fdTest               no
fluid-solvent H2O 55.338 ScalarEOS \
	epsBulk 78.4 \
	pMol 0.92466 \
	epsInf 1.77 \
	Pvap 1.06736e-10 \
	sigmaBulk 4.62e-05 \
	Rvdw 2.61727 \
	Res 1.42 \
	tauNuc 343133 \
	poleEl 15 7 1
forces-output-coords Positions
ion N   0.952380952380952   0.761904761904762   0.000000000000000 0
ion N   1.428571428571428   1.285714285714286   0.328000000000000 0
ion N   0.380952380952381   0.904761904761905   0.000000000000000 0
ion N   0.714285714285714   1.142857142857143   0.328000000000000 0
ion N   0.523809523809524   0.619047619047619   0.000000000000000 0
ion N   1.000000000000000   1.000000000000000   0.328000000000000 0
ion N   0.666666666666667   0.333333333333333   0.000000000000000 0
ion N   1.285714285714286   0.857142857142857   0.328000000000000 0
ion N   0.809523809523810   0.047619047619048   0.000000000000000 0
ion N   1.571428571428571   0.714285714285714   0.328000000000000 0
ion N   0.095238095238095   0.476190476190476   0.000000000000000 0
ion N   0.238095238095238   0.190476190476190   0.000000000000000 0
ion N   0.857142857142857   0.571428571428571   0.328000000000000 0
ion N   1.142857142857143   0.428571428571429   0.328000000000000 0
ion B   0.571428571428572   0.857142857142857   0.000000000000000 0
ion B   0.952380952380952   1.190476190476190   0.328000000000000 0
ion B   0.714285714285714   0.571428571428571   0.000000000000000 0
ion B   1.238095238095238   1.047619047619047   0.328000000000000 0
ion B   0.857142857142857   0.285714285714286   0.000000000000000 0
ion B   1.523809523809524   0.904761904761905   0.328000000000000 0
ion B   0.142857142857143   0.714285714285714   0.000000000000000 0
ion B   0.285714285714286   0.428571428571429   0.000000000000000 0
ion B   0.809523809523810   0.761904761904762   0.328000000000000 0
ion B   0.428571428571429   0.142857142857143   0.000000000000000 0
ion B   1.095238095238095   0.619047619047619   0.328000000000000 0
ion B   1.380952380952381   0.476190476190476   0.328000000000000 0
ion B   0.000000000000000   0.000000000000000   0.000000000000000 0
ion B   0.666666666666667   0.333333333333333   0.328000000000000 0
ion Cs   0.333333333300000   0.666666666600000   0.164000000000000 0
ion-species SG15/$ID_ONCV_PBE.upf
ion-width 0
ionic-minimize  \
	dirUpdateScheme      L-BFGS \
	linminMethod         DirUpdateRecommended \
	nIterations          0 \
	history              15 \
	knormThreshold       0.0001 \
	energyDiffThreshold  1e-06 \
	nEnergyDiff          2 \
	alphaTstart          1 \
	alphaTmin            1e-10 \
	updateTestStepSize   yes \
	alphaTreduceFactor   0.1 \
	alphaTincreaseFactor 3 \
	nAlphaAdjustMax      3 \
	wolfeEnergy          0.0001 \
	wolfeGradient        0.9 \
	fdTest               no
kpoint   0.000000000000   0.000000000000   0.000000000000  1.00000000000000
kpoint-folding 36 36 1 
latt-move-scale 1 1 1
latt-scale 1 1 1 
lattice  \
	 -11.818700000000000    2.363740000000000    0.000000000000000  \
	   4.094120000000000  -12.282400000000001    0.000000000000000  \
	   0.000000000000000    0.000000000000000   40.000000000000000 
lattice-minimize  \
	dirUpdateScheme      L-BFGS \
	linminMethod         DirUpdateRecommended \
	nIterations          0 \
	history              15 \
	knormThreshold       0 \
	energyDiffThreshold  1e-06 \
	nEnergyDiff          2 \
	alphaTstart          1 \
	alphaTmin            1e-10 \
	updateTestStepSize   yes \
	alphaTreduceFactor   0.1 \
	alphaTincreaseFactor 3 \
	nAlphaAdjustMax      3 \
	wolfeEnergy          0.0001 \
	wolfeGradient        0.9 \
	fdTest               no
lcao-params -1 1e-06 1e-05
pcm-variant GLSSA13
spintype z-spin
subspace-rotation-factor 1 yes
symmetries automatic
symmetry-threshold 0.0001
van-der-waals D3



---------- Setting up symmetries ----------

Found 24 point-group symmetries of the bravais lattice
Found 6 space-group symmetries with basis
Applied RMS atom displacement 1.31765e-10 bohrs to make symmetries exact.

---------- Initializing the Grid ----------
R = 
[     -11.8187      2.36374            0  ]
[      4.09412     -12.2824            0  ]
[            0            0           40  ]
unit cell volume = 5419.38
G =
[  -0.569604   -0.10962          0  ]
[  -0.189867    -0.5481          0  ]
[          0          0    0.15708  ]
Minimum fftbox size, Smin = [  52  52  164  ]
Chosen fftbox size, S = [  54  54  168  ]

---------- Exchange Correlation functional ----------
Initalized PBE GGA exchange.
Initalized PBE GGA correlation.

---------- Setting up pseudopotentials ----------
Width of ionic core gaussian charges (only for fluid interactions / plotting) set to 0

Reading pseudopotential file '/home/gridsan/aligho/DFT/build-Nov24/pseudopotentials/SG15/N_ONCV_PBE.upf':
  'N' pseudopotential, 'PBE' functional
  Generated using ONCVPSP code by D. R. Hamann
  Author: Martin Schlipf and Francois Gygi  Date: 150915.
  5 valence electrons, 2 orbitals, 4 projectors, 1058 radial grid points, with lMax = 1
  Transforming local potential to a uniform radial grid of dG=0.02 with 1514 points.
  Transforming nonlocal projectors to a uniform radial grid of dG=0.02 with 432 points.
    2S    l: 0   occupation:  2.0   eigenvalue: -0.682907
    2P    l: 1   occupation:  3.0   eigenvalue: -0.260548
  Transforming atomic orbitals to a uniform radial grid of dG=0.02 with 432 points.
  Core radius for overlap checks: 1.35 bohrs.
  Reading pulay file /home/gridsan/aligho/DFT/build-Nov24/pseudopotentials/SG15/N_ONCV_PBE.pulay ... using dE_dnG = -2.956256e-02 computed for Ecut = 20.

Reading pseudopotential file '/home/gridsan/aligho/DFT/build-Nov24/pseudopotentials/SG15/B_ONCV_PBE.upf':
  'B' pseudopotential, 'PBE' functional
  Generated using ONCVPSP code by D. R. Hamann
  Author: Martin Schlipf and Francois Gygi  Date: 150915.
  3 valence electrons, 2 orbitals, 4 projectors, 1534 radial grid points, with lMax = 1
  Transforming local potential to a uniform radial grid of dG=0.02 with 1514 points.
  Transforming nonlocal projectors to a uniform radial grid of dG=0.02 with 432 points.
    2S    l: 0   occupation:  2.0   eigenvalue: -0.347027
    2P    l: 1   occupation:  1.0   eigenvalue: -0.132548
  Transforming atomic orbitals to a uniform radial grid of dG=0.02 with 432 points.
  Core radius for overlap checks: 1.60 bohrs.
  Reading pulay file /home/gridsan/aligho/DFT/build-Nov24/pseudopotentials/SG15/B_ONCV_PBE.pulay ... using dE_dnG = -3.748568e-04 computed for Ecut = 20.

Reading pseudopotential file '/home/gridsan/aligho/DFT/build-Nov24/pseudopotentials/SG15/Cs_ONCV_PBE.upf':
  'Cs' pseudopotential, 'PBE' functional
  Generated using ONCVPSP code by D. R. Hamann
  Author: Martin Schlipf and Francois Gygi  Date: 150915.
  9 valence electrons, 3 orbitals, 6 projectors, 2414 radial grid points, with lMax = 2
  Transforming local potential to a uniform radial grid of dG=0.02 with 1514 points.
  Transforming nonlocal projectors to a uniform radial grid of dG=0.02 with 432 points.
    5S    l: 0   occupation:  2.0   eigenvalue: -0.982388
    5P    l: 1   occupation:  6.0   eigenvalue: -0.496786
    6S    l: 0   occupation:  1.0   eigenvalue: -0.076670
  Transforming atomic orbitals to a uniform radial grid of dG=0.02 with 432 points.
  Core radius for overlap checks: 2.06 bohrs.
  Reading pulay file /home/gridsan/aligho/DFT/build-Nov24/pseudopotentials/SG15/Cs_ONCV_PBE.pulay ... using dE_dnG = -1.008762e-04 computed for Ecut = 20.

Initialized 3 species with 29 total atoms.

Folded 1 k-points by 36x36x1 to 1296 k-points.

---------- Setting up k-points, bands, fillings ----------
Adding inversion symmetry to k-mesh for non-inversion-symmetric unit cell.
Reduced to 127 k-points under symmetry. 
Computing the number of bands and number of electrons
Calculating initial fillings.
nElectrons: 121.000000   nBands: 117   nStates: 254

----- Setting up reduced wavefunction bases (one per k-point) -----
average nbasis = 23152.266 , ideal nbasis = 23152.016

----- Initializing Supercell corresponding to k-point mesh -----
Lattice vector linear combinations in supercell:
[  36   0   0  ]
[   0  36   0  ]
[   0   0   1  ]
Supercell lattice vectors:
[  -425.473  85.0946  0  ]
[  147.388  -442.166  0  ]
[  0  0  40  ]

---------- Setting up coulomb interaction ----------
Initialized slab truncation along lattice direction 001

Initializing DFT-D3 calculator:
	Parameters set for gga-PBE functional
	s6:  1.000  s_r6:  1.217
	s8:  0.722  s_r8:  1.000
	Per-atom parameters loaded for:
	 N:  sqrtQ[a0]:  2.712  Rcov[a0]:  1.342  CN: [ 0.00 0.99 2.01 2.99 ]
	 B:  sqrtQ[a0]:  3.644  Rcov[a0]:  1.455  CN: [ 0.00 0.97 1.94 2.91 4.59 ]
	Cs:  sqrtQ[a0]: 11.022  Rcov[a0]:  3.950  CN: [ 0.00 0.99 ]

---------- Setting up 2D ewald sum ----------
Optimum gaussian width for ewald sums = 6.943804 bohr.
Real space sums over 289 unit cells with max indices [  8  8  0  ]
Reciprocal space sums over 81 terms with max indices [  4  4  0  ]

Computing DFT-D3 correction:
# coordination-number N 3.209 3.209 3.611 3.209 3.611 3.172 3.172 3.611 3.209 3.611 3.611 3.209 3.209 3.611
# coordination-number B 3.900 3.434 3.434 3.434 3.434 3.900 3.900 3.900 3.434 3.434 3.900 3.900 3.386 3.386
# coordination-number Cs 7.833
# diagonal-C6 N 15.60 15.60 15.58 15.60 15.58 15.60 15.60 15.58 15.60 15.58 15.58 15.60 15.60 15.58
# diagonal-C6 B 28.42 31.40 31.40 31.40 31.40 28.42 28.42 28.42 31.40 31.40 28.42 28.42 31.43 31.43
# diagonal-C6 Cs 649.09
EvdW_6 =   -0.029956
EvdW_8 =   -0.034953

---------- Allocating electronic variables ----------
Reading n_up from file '../Cs-0.328.n_up' ... done
Reading n_dn from file '../Cs-0.328.n_dn' ... done
Initializing wave functions:  linear combination of atomic orbitals
[d-5-14-2:36691] 37 more processes have sent help message help-mpi-common-cuda.txt / dlopen failed
[d-5-14-2:36691] Set MCA parameter "orte_base_help_aggregate" to 0 to see all help / error messages
[d-5-14-2:36691] 36 more processes have sent help message help-mpi-btl-openib-cpc-base.txt / no cpcs for port


---- Citations for features of the code used in this run ----

   Software package:
      R. Sundararaman, K. Letchworth-Weaver, K.A. Schwarz, D. Gunceler, Y. Ozhabes and T.A. Arias, 'JDFTx: software for joint density-functional theory', SoftwareX 6, 278 (2017)

   gga-PBE exchange-correlation functional:
      J.P. Perdew, K. Burke and M. Ernzerhof, Phys. Rev. Lett. 77, 3865 (1996)

   Pseudopotentials:
      M Schlipf and F Gygi, Comput. Phys. Commun. 196, 36 (2015)

   Truncated Coulomb potentials:
      R. Sundararaman and T.A. Arias, Phys. Rev. B 87, 165122 (2013)

   DFT-D3 dispersion correction:
      S. Grimme, J. Antony, S. Ehrlich and H. Krieg, J. Chem. Phys. 132, 154104 (2010)

   Total energy minimization with Auxiliary Hamiltonian:
      C. Freysoldt, S. Boeck, and J. Neugebauer, Phys. Rev. B 79, 241103(R) (2009)

   Linear-tetrahedron sampling for density of states:
      G. Lehmann and M. Taut, Phys. status solidi (b) 54, 469 (1972)

This list may not be complete. Please suggest additional citations or
report any other bugs at https://github.com/shankar1729/jdftx/issues

Initialization completed successfully at t[s]:     49.34


----------- Band structure minimization -------------
Minimization will be done independently for each quantum number.

---- Minimization of quantum number:     0  [ +0.0000000 +0.0000000 +0.0000000 ]  0.000771605  spin +1 ----
BandDavidson: Iter:   0  Eband: -0.007121242911051
BandDavidson: Iter:   1  Eband: -0.012796883766479  dEband: -5.675641e-03  t[s]:     60.21
BandDavidson: Iter:   2  Eband: -0.014508739162262  dEband: -1.711855e-03  t[s]:     66.60
BandDavidson: Iter:   3  Eband: -0.015402979424255  dEband: -8.942403e-04  t[s]:     72.98
BandDavidson: Iter:   4  Eband: -0.015927778365659  dEband: -5.247989e-04  t[s]:     79.32
BandDavidson: Iter:   5  Eband: -0.016165039539791  dEband: -2.372612e-04  t[s]:     85.69
BandDavidson: Iter:   6  Eband: -0.016303668147794  dEband: -1.386286e-04  t[s]:     92.06
BandDavidson: Iter:   7  Eband: -0.016383791401727  dEband: -8.012325e-05  t[s]:     98.41
BandDavidson: Iter:   8  Eband: -0.016428507025906  dEband: -4.471562e-05  t[s]:    104.79
BandDavidson: Iter:   9  Eband: -0.016455355918140  dEband: -2.684889e-05  t[s]:    111.16
BandDavidson: Iter:  10  Eband: -0.016474131807081  dEband: -1.877589e-05  t[s]:    117.54
BandDavidson: Iter:  11  Eband: -0.016487766207773  dEband: -1.363440e-05  t[s]:    123.94
BandDavidson: Iter:  12  Eband: -0.016498011012125  dEband: -1.024480e-05  t[s]:    130.34
BandDavidson: Iter:  13  Eband: -0.016505906240448  dEband: -7.895228e-06  t[s]:    136.75
BandDavidson: Iter:  14  Eband: -0.016512212033805  dEband: -6.305793e-06  t[s]:    143.19
BandDavidson: Iter:  15  Eband: -0.016517389486263  dEband: -5.177452e-06  t[s]:    149.60
BandDavidson: Iter:  16  Eband: -0.016521789223038  dEband: -4.399737e-06  t[s]:    156.06
BandDavidson: Iter:  17  Eband: -0.016525665038423  dEband: -3.875815e-06  t[s]:    162.49
BandDavidson: Iter:  18  Eband: -0.016529214881489  dEband: -3.549843e-06  t[s]:    168.90
BandDavidson: Iter:  19  Eband: -0.016532519704542  dEband: -3.304823e-06  t[s]:    175.30
BandDavidson: Iter:  20  Eband: -0.016535670224703  dEband: -3.150520e-06  t[s]:    181.67
BandDavidson: Iter:  21  Eband: -0.016538664404831  dEband: -2.994180e-06  t[s]:    187.92
BandDavidson: Iter:  22  Eband: -0.016541571549830  dEband: -2.907145e-06  t[s]:    194.18
BandDavidson: Iter:  23  Eband: -0.016544755293625  dEband: -3.183744e-06  t[s]:    200.48
BandDavidson: Iter:  24  Eband: -0.016547629351961  dEband: -2.874058e-06  t[s]:    206.74
BandDavidson: Iter:  25  Eband: -0.016550025658880  dEband: -2.396307e-06  t[s]:    213.00
BandDavidson: Iter:  26  Eband: -0.016551998966992  dEband: -1.973308e-06  t[s]:    219.29
BandDavidson: Iter:  27  Eband: -0.016553607213175  dEband: -1.608246e-06  t[s]:    225.42
BandDavidson: Iter:  28  Eband: -0.016554907243423  dEband: -1.300030e-06  t[s]:    231.38
BandDavidson: Iter:  29  Eband: -0.016556133051055  dEband: -1.225808e-06  t[s]:    237.14
BandDavidson: Iter:  30  Eband: -0.016557123583367  dEband: -9.905323e-07  t[s]:    242.76
BandDavidson: Iter:  31  Eband: -0.016557922291012  dEband: -7.987076e-07  t[s]:    247.82
BandDavidson: Iter:  32  Eband: -0.016558557928779  dEband: -6.356378e-07  t[s]:    252.47
BandDavidson: Iter:  33  Eband: -0.016559070563376  dEband: -5.126346e-07  t[s]:    257.04
BandDavidson: Iter:  34  Eband: -0.016559491315296  dEband: -4.207519e-07  t[s]:    261.61
BandDavidson: Iter:  35  Eband: -0.016559840915658  dEband: -3.496004e-07  t[s]:    266.17
BandDavidson: Iter:  36  Eband: -0.016560130343694  dEband: -2.894280e-07  t[s]:    270.73
BandDavidson: Iter:  37  Eband: -0.016560370891780  dEband: -2.405481e-07  t[s]:    275.29
BandDavidson: Iter:  38  Eband: -0.016560569536939  dEband: -1.986452e-07  t[s]:    279.85
BandDavidson: Iter:  39  Eband: -0.016560733523707  dEband: -1.639868e-07  t[s]:    284.38
BandDavidson: Iter:  40  Eband: -0.016560868195368  dEband: -1.346717e-07  t[s]:    288.85
BandDavidson: Iter:  41  Eband: -0.016560978651371  dEband: -1.104560e-07  t[s]:    293.18
BandDavidson: Iter:  42  Eband: -0.016561068264174  dEband: -8.961280e-08  t[s]:    297.27
BandDavidson: Iter:  43  Eband: -0.016561141230949  dEband: -7.296678e-08  t[s]:    301.38
BandDavidson: Iter:  44  Eband: -0.016561201293403  dEband: -6.006245e-08  t[s]:    305.47
BandDavidson: Iter:  45  Eband: -0.016561250978036  dEband: -4.968463e-08  t[s]:    309.56
BandDavidson: Iter:  46  Eband: -0.016561291985760  dEband: -4.100772e-08  t[s]:    313.59
BandDavidson: Iter:  47  Eband: -0.016561325850088  dEband: -3.386433e-08  t[s]:    317.46
BandDavidson: Iter:  48  Eband: -0.016561353834785  dEband: -2.798470e-08  t[s]:    321.33
BandDavidson: Iter:  49  Eband: -0.016561377040651  dEband: -2.320587e-08  t[s]:    325.17
BandDavidson: Iter:  50  Eband: -0.016561396301365  dEband: -1.926071e-08  t[s]:    328.96
BandDavidson: Iter:  51  Eband: -0.016561412286418  dEband: -1.598505e-08  t[s]:    332.74
BandDavidson: Iter:  52  Eband: -0.016561425630125  dEband: -1.334371e-08  t[s]:    336.50
BandDavidson: Iter:  53  Eband: -0.016561436746156  dEband: -1.111603e-08  t[s]:    340.20
BandDavidson: Iter:  54  Eband: -0.016561446066819  dEband: -9.320664e-09  t[s]:    343.84
BandDavidson: Converged (dEband<1.000000e-08)

---- Minimization of quantum number:     1  [ +0.0000000 +0.0277778 +0.0000000 ]  0.004629630  spin +1 ----
BandDavidson: Iter:   0  Eband: -0.042752908359434
BandDavidson: Iter:   1  Eband: -0.076759805689077  dEband: -3.400690e-02  t[s]:    354.11
BandDavidson: Iter:   2  Eband: -0.087248275389228  dEband: -1.048847e-02  t[s]:    360.41
BandDavidson: Iter:   3  Eband: -0.092342200388835  dEband: -5.093925e-03  t[s]:    366.71
BandDavidson: Iter:   4  Eband: -0.095666999826473  dEband: -3.324799e-03  t[s]:    373.01
BandDavidson: Iter:   5  Eband: -0.097051780557537  dEband: -1.384781e-03  t[s]:    379.29
BandDavidson: Iter:   6  Eband: -0.097824094329857  dEband: -7.723138e-04  t[s]:    385.60
BandDavidson: Iter:   7  Eband: -0.098267223218507  dEband: -4.431289e-04  t[s]:    391.88
BandDavidson: Iter:   8  Eband: -0.098521336166942  dEband: -2.541129e-04  t[s]:    398.18
BandDavidson: Iter:   9  Eband: -0.098691349074215  dEband: -1.700129e-04  t[s]:    404.47
BandDavidson: Iter:  10  Eband: -0.098808270586643  dEband: -1.169215e-04  t[s]:    410.75
BandDavidson: Iter:  11  Eband: -0.098892396853978  dEband: -8.412627e-05  t[s]:    417.04
BandDavidson: Iter:  12  Eband: -0.098956375589429  dEband: -6.397874e-05  t[s]:    423.36
BandDavidson: Iter:  13  Eband: -0.099006665418078  dEband: -5.028983e-05  t[s]:    429.65
BandDavidson: Iter:  14  Eband: -0.099047674230750  dEband: -4.100881e-05  t[s]:    435.95
BandDavidson: Iter:  15  Eband: -0.099082040438603  dEband: -3.436621e-05  t[s]:    442.27
BandDavidson: Iter:  16  Eband: -0.099111954182861  dEband: -2.991374e-05  t[s]:    448.58
BandDavidson: Iter:  17  Eband: -0.099138878760203  dEband: -2.692458e-05  t[s]:    454.93
BandDavidson: Iter:  18  Eband: -0.099164042840452  dEband: -2.516408e-05  t[s]:    461.25
BandDavidson: Iter:  19  Eband: -0.099188121090231  dEband: -2.407825e-05  t[s]:    467.60
BandDavidson: Iter:  20  Eband: -0.099211677808390  dEband: -2.355672e-05  t[s]:    473.94
BandDavidson: Iter:  21  Eband: -0.099234853854996  dEband: -2.317605e-05  t[s]:    480.20
BandDavidson: Iter:  22  Eband: -0.099257015698241  dEband: -2.216184e-05  t[s]:    486.41
BandDavidson: Iter:  23  Eband: -0.099277454297313  dEband: -2.043860e-05  t[s]:    492.67
BandDavidson: Iter:  24  Eband: -0.099295547598800  dEband: -1.809330e-05  t[s]:    498.90
BandDavidson: Iter:  25  Eband: -0.099311071176350  dEband: -1.552358e-05  t[s]:    505.13
BandDavidson: Iter:  26  Eband: -0.099324154484444  dEband: -1.308331e-05  t[s]:    511.36
BandDavidson: Iter:  27  Eband: -0.099335020375479  dEband: -1.086589e-05  t[s]:    517.46
BandDavidson: Iter:  28  Eband: -0.099343940547918  dEband: -8.920172e-06  t[s]:    523.48
BandDavidson: Iter:  29  Eband: -0.099351156808595  dEband: -7.216261e-06  t[s]:    529.23
BandDavidson: Iter:  30  Eband: -0.099356930857269  dEband: -5.774049e-06  t[s]:    534.70
BandDavidson: Iter:  31  Eband: -0.099361556882119  dEband: -4.626025e-06  t[s]:    539.88
BandDavidson: Iter:  32  Eband: -0.099365259886198  dEband: -3.703004e-06  t[s]:    544.54
BandDavidson: Iter:  33  Eband: -0.099368254027574  dEband: -2.994141e-06  t[s]:    549.08
BandDavidson: Iter:  34  Eband: -0.099370705087726  dEband: -2.451060e-06  t[s]:    553.66
BandDavidson: Iter:  35  Eband: -0.099372725385279  dEband: -2.020298e-06  t[s]:    558.23
BandDavidson: Iter:  36  Eband: -0.099374391826825  dEband: -1.666442e-06  t[s]:    562.81
BandDavidson: Iter:  37  Eband: -0.099375769331940  dEband: -1.377505e-06  t[s]:    567.37
BandDavidson: Iter:  38  Eband: -0.099376901621775  dEband: -1.132290e-06  t[s]:    571.90
BandDavidson: Iter:  39  Eband: -0.099377830952455  dEband: -9.293307e-07  t[s]:    576.45
BandDavidson: Iter:  40  Eband: -0.099378591166370  dEband: -7.602139e-07  t[s]:    580.93
BandDavidson: Iter:  41  Eband: -0.099379208830478  dEband: -6.176641e-07  t[s]:    585.17
BandDavidson: Iter:  42  Eband: -0.099379713358663  dEband: -5.045282e-07  t[s]:    589.33
BandDavidson: Iter:  43  Eband: -0.099380126703879  dEband: -4.133452e-07  t[s]:    593.51
BandDavidson: Iter:  44  Eband: -0.099380467959920  dEband: -3.412560e-07  t[s]:    597.61
BandDavidson: Iter:  45  Eband: -0.099380750878492  dEband: -2.829186e-07  t[s]:    601.72
BandDavidson: Iter:  46  Eband: -0.099380986282218  dEband: -2.354037e-07  t[s]:    605.83
BandDavidson: Iter:  47  Eband: -0.099381182415429  dEband: -1.961332e-07  t[s]:    609.92
BandDavidson: Iter:  48  Eband: -0.099381346163138  dEband: -1.637477e-07  t[s]:    614.01
BandDavidson: Iter:  49  Eband: -0.099381482616639  dEband: -1.364535e-07  t[s]:    618.14
BandDavidson: Iter:  50  Eband: -0.099381596564538  dEband: -1.139479e-07  t[s]:    622.23
BandDavidson: Iter:  51  Eband: -0.099381691568264  dEband: -9.500373e-08  t[s]:    626.31
BandDavidson: Iter:  52  Eband: -0.099381770727989  dEband: -7.915972e-08  t[s]:    630.39
BandDavidson: Iter:  53  Eband: -0.099381836682766  dEband: -6.595478e-08  t[s]:    634.37
BandDavidson: Iter:  54  Eband: -0.099381891384240  dEband: -5.470147e-08  t[s]:    638.18
BandDavidson: Iter:  55  Eband: -0.099381936883093  dEband: -4.549885e-08  t[s]:    641.91
BandDavidson: Iter:  56  Eband: -0.099381974791076  dEband: -3.790798e-08  t[s]:    645.61
BandDavidson: Iter:  57  Eband: -0.099382006352422  dEband: -3.156135e-08  t[s]:    649.19
BandDavidson: Iter:  58  Eband: -0.099382032607245  dEband: -2.625482e-08  t[s]:    652.65
BandDavidson: Iter:  59  Eband: -0.099382054575761  dEband: -2.196852e-08  t[s]:    656.04
BandDavidson: Iter:  60  Eband: -0.099382073026618  dEband: -1.845086e-08  t[s]:    659.44
BandDavidson: Iter:  61  Eband: -0.099382088554769  dEband: -1.552815e-08  t[s]:    662.80
BandDavidson: Iter:  62  Eband: -0.099382101623967  dEband: -1.306920e-08  t[s]:    666.13
BandDavidson: Iter:  63  Eband: -0.099382112626337  dEband: -1.100237e-08  t[s]:    669.40
BandDavidson: Iter:  64  Eband: -0.099382121915450  dEband: -9.289113e-09  t[s]:    672.67
BandDavidson: Converged (dEband<1.000000e-08)

---- Minimization of quantum number:     2  [ +0.0000000 +0.0555556 +0.0000000 ]  0.004629630  spin +1 ----
BandDavidson: Iter:   0  Eband: -0.042678043990847
BandDavidson: Iter:   1  Eband: -0.076639380154491  dEband: -3.396134e-02  t[s]:    682.93
BandDavidson: Iter:   2  Eband: -0.087074961830452  dEband: -1.043558e-02  t[s]:    689.26
BandDavidson: Iter:   3  Eband: -0.092164691928980  dEband: -5.089730e-03  t[s]:    695.58
BandDavidson: Iter:   4  Eband: -0.095434443707559  dEband: -3.269752e-03  t[s]:    701.91
BandDavidson: Iter:   5  Eband: -0.097055564011073  dEband: -1.621120e-03  t[s]:    708.23
BandDavidson: Iter:   6  Eband: -0.097821862045966  dEband: -7.662980e-04  t[s]:    714.55
BandDavidson: Iter:   7  Eband: -0.098213626595079  dEband: -3.917645e-04  t[s]:    720.88
BandDavidson: Iter:   8  Eband: -0.098447281035821  dEband: -2.336544e-04  t[s]:    727.21
BandDavidson: Iter:   9  Eband: -0.098616674286478  dEband: -1.693933e-04  t[s]:    733.53
BandDavidson: Iter:  10  Eband: -0.098738540195526  dEband: -1.218659e-04  t[s]:    739.88
BandDavidson: Iter:  11  Eband: -0.098829005506500  dEband: -9.046531e-05  t[s]:    746.21
BandDavidson: Iter:  12  Eband: -0.098899401769289  dEband: -7.039626e-05  t[s]:    752.53
BandDavidson: Iter:  13  Eband: -0.098955849501528  dEband: -5.644773e-05  t[s]:    758.83
BandDavidson: Iter:  14  Eband: -0.099002935023074  dEband: -4.708552e-05  t[s]:    765.15
BandDavidson: Iter:  15  Eband: -0.099043518484581  dEband: -4.058346e-05  t[s]:    771.43
BandDavidson: Iter:  16  Eband: -0.099080064308235  dEband: -3.654582e-05  t[s]:    777.74
BandDavidson: Iter:  17  Eband: -0.099114593421066  dEband: -3.452911e-05  t[s]:    784.05
BandDavidson: Iter:  18  Eband: -0.099148635178668  dEband: -3.404176e-05  t[s]:    790.35
BandDavidson: Iter:  19  Eband: -0.099182593799432  dEband: -3.395862e-05  t[s]:    796.66
BandDavidson: Iter:  20  Eband: -0.099215823779794  dEband: -3.322998e-05  t[s]:    802.96
BandDavidson: Iter:  21  Eband: -0.099247751169647  dEband: -3.192739e-05  t[s]:    809.21
BandDavidson: Iter:  22  Eband: -0.099276623657817  dEband: -2.887249e-05  t[s]:    815.49
BandDavidson: Iter:  23  Eband: -0.099301876766493  dEband: -2.525311e-05  t[s]:    821.77
BandDavidson: Iter:  24  Eband: -0.099323643419633  dEband: -2.176665e-05  t[s]:    827.95
BandDavidson: Iter:  25  Eband: -0.099342242038069  dEband: -1.859862e-05  t[s]:    834.12
BandDavidson: Iter:  26  Eband: -0.099357920490960  dEband: -1.567845e-05  t[s]:    840.26
BandDavidson: Iter:  27  Eband: -0.099370942132270  dEband: -1.302164e-05  t[s]:    846.34
BandDavidson: Iter:  28  Eband: -0.099381683709571  dEband: -1.074158e-05  t[s]:    852.34
BandDavidson: Iter:  29  Eband: -0.099390554194379  dEband: -8.870485e-06  t[s]:    858.07
BandDavidson: Iter:  30  Eband: -0.099397818047020  dEband: -7.263853e-06  t[s]:    863.51
BandDavidson: Iter:  31  Eband: -0.099403757686938  dEband: -5.939640e-06  t[s]:    868.63
BandDavidson: Iter:  32  Eband: -0.099408619210032  dEband: -4.861523e-06  t[s]:    873.44
BandDavidson: Iter:  33  Eband: -0.099412595945081  dEband: -3.976735e-06  t[s]:    877.91
BandDavidson: Iter:  34  Eband: -0.099415876559144  dEband: -3.280614e-06  t[s]:    882.45
BandDavidson: Iter:  35  Eband: -0.099418612774512  dEband: -2.736215e-06  t[s]:    886.96
BandDavidson: Iter:  36  Eband: -0.099420899138768  dEband: -2.286364e-06  t[s]:    891.38
BandDavidson: Iter:  37  Eband: -0.099422805569972  dEband: -1.906431e-06  t[s]:    895.92
BandDavidson: Iter:  38  Eband: -0.099424385334387  dEband: -1.579764e-06  t[s]:    900.47
BandDavidson: Iter:  39  Eband: -0.099425690780460  dEband: -1.305446e-06  t[s]:    905.02
BandDavidson: Iter:  40  Eband: -0.099426768780698  dEband: -1.078000e-06  t[s]:    909.41
BandDavidson: Iter:  41  Eband: -0.099427656204150  dEband: -8.874235e-07  t[s]:    913.65
BandDavidson: Iter:  42  Eband: -0.099428391915335  dEband: -7.357112e-07  t[s]:    917.76
BandDavidson: Iter:  43  Eband: -0.099429004598800  dEband: -6.126835e-07  t[s]:    921.86
BandDavidson: Iter:  44  Eband: -0.099429516719129  dEband: -5.121203e-07  t[s]:    925.95
BandDavidson: Iter:  45  Eband: -0.099429947665020  dEband: -4.309459e-07  t[s]:    930.07
BandDavidson: Iter:  46  Eband: -0.099430310429805  dEband: -3.627648e-07  t[s]:    934.16
BandDavidson: Iter:  47  Eband: -0.099430616608934  dEband: -3.061791e-07  t[s]:    938.27
BandDavidson: Iter:  48  Eband: -0.099430874603619  dEband: -2.579947e-07  t[s]:    942.38
BandDavidson: Iter:  49  Eband: -0.099431092573360  dEband: -2.179697e-07  t[s]:    946.47
BandDavidson: Iter:  50  Eband: -0.099431276718855  dEband: -1.841455e-07  t[s]:    950.58
BandDavidson: Iter:  51  Eband: -0.099431432161938  dEband: -1.554431e-07  t[s]:    954.61
BandDavidson: Iter:  52  Eband: -0.099431563579199  dEband: -1.314173e-07  t[s]:    958.62
BandDavidson: Iter:  53  Eband: -0.099431674503566  dEband: -1.109244e-07  t[s]:    962.59
BandDavidson: Iter:  54  Eband: -0.099431768361687  dEband: -9.385812e-08  t[s]:    966.56
BandDavidson: Iter:  55  Eband: -0.099431847870948  dEband: -7.950926e-08  t[s]:    970.52
BandDavidson: Iter:  56  Eband: -0.099431915307117  dEband: -6.743617e-08  t[s]:    974.43
BandDavidson: Iter:  57  Eband: -0.099431972199775  dEband: -5.689266e-08  t[s]:    978.16
BandDavidson: Iter:  58  Eband: -0.099432020212163  dEband: -4.801239e-08  t[s]:    981.66
BandDavidson: Iter:  59  Eband: -0.099432060806315  dEband: -4.059415e-08  t[s]:    985.07
BandDavidson: Iter:  60  Eband: -0.099432095373735  dEband: -3.456742e-08  t[s]:    988.47
BandDavidson: Iter:  61  Eband: -0.099432124847160  dEband: -2.947343e-08  t[s]:    991.84
BandDavidson: Iter:  62  Eband: -0.099432149990828  dEband: -2.514367e-08  t[s]:    995.18
BandDavidson: Iter:  63  Eband: -0.099432171508661  dEband: -2.151783e-08  t[s]:    998.53
BandDavidson: Iter:  64  Eband: -0.099432189933721  dEband: -1.842506e-08  t[s]:   1001.86
BandDavidson: Iter:  65  Eband: -0.099432205746794  dEband: -1.581307e-08  t[s]:   1005.16
BandDavidson: Iter:  66  Eband: -0.099432219283159  dEband: -1.353637e-08  t[s]:   1008.35
BandDavidson: Iter:  67  Eband: -0.099432230887705  dEband: -1.160455e-08  t[s]:   1011.58
BandDavidson: Iter:  68  Eband: -0.099432240840694  dEband: -9.952989e-09  t[s]:   1014.78
BandDavidson: Converged (dEband<1.000000e-08)

---- Minimization of quantum number:     3  [ +0.0000000 +0.0833333 +0.0000000 ]  0.004629630  spin +1 ----
BandDavidson: Iter:   0  Eband: -0.042659185774745
BandDavidson: Iter:   1  Eband: -0.076772753302272  dEband: -3.411357e-02  t[s]:   1025.08
BandDavidson: Iter:   2  Eband: -0.087076541695416  dEband: -1.030379e-02  t[s]:   1031.44
BandDavidson: Iter:   3  Eband: -0.092037263092321  dEband: -4.960721e-03  t[s]:   1037.80
BandDavidson: Iter:   4  Eband: -0.095273669338051  dEband: -3.236406e-03  t[s]:   1044.16
BandDavidson: Iter:   5  Eband: -0.096835158811036  dEband: -1.561489e-03  t[s]:   1050.50
BandDavidson: Iter:   6  Eband: -0.097637521105969  dEband: -8.023623e-04  t[s]:   1056.82
BandDavidson: Iter:   7  Eband: -0.098076913476075  dEband: -4.393924e-04  t[s]:   1063.15
BandDavidson: Iter:   8  Eband: -0.098336670463633  dEband: -2.597570e-04  t[s]:   1069.48
BandDavidson: Iter:   9  Eband: -0.098505356948339  dEband: -1.686865e-04  t[s]:   1075.79
BandDavidson: Iter:  10  Eband: -0.098643699191357  dEband: -1.383422e-04  t[s]:   1082.12
BandDavidson: Iter:  11  Eband: -0.098750349682287  dEband: -1.066505e-04  t[s]:   1088.45
BandDavidson: Iter:  12  Eband: -0.098834100742444  dEband: -8.375106e-05  t[s]:   1094.78
BandDavidson: Iter:  13  Eband: -0.098901829864420  dEband: -6.772912e-05  t[s]:   1101.10
BandDavidson: Iter:  14  Eband: -0.098959213136823  dEband: -5.738327e-05  t[s]:   1107.45
BandDavidson: Iter:  15  Eband: -0.099009045877949  dEband: -4.983274e-05  t[s]:   1113.76
BandDavidson: Iter:  16  Eband: -0.099054993264974  dEband: -4.594739e-05  t[s]:   1120.07
BandDavidson: Iter:  17  Eband: -0.099100257545602  dEband: -4.526428e-05  t[s]:   1126.38
BandDavidson: Iter:  18  Eband: -0.099144519316975  dEband: -4.426177e-05  t[s]:   1132.69
BandDavidson: Iter:  19  Eband: -0.099185629560186  dEband: -4.111024e-05  t[s]:   1138.99
BandDavidson: Iter:  20  Eband: -0.099223596169168  dEband: -3.796661e-05  t[s]:   1145.30
BandDavidson: Iter:  21  Eband: -0.099258202961492  dEband: -3.460679e-05  t[s]:   1151.59
BandDavidson: Iter:  22  Eband: -0.099289216004094  dEband: -3.101304e-05  t[s]:   1157.86
BandDavidson: Iter:  23  Eband: -0.099316449979149  dEband: -2.723398e-05  t[s]:   1164.14
BandDavidson: Iter:  24  Eband: -0.099340167405892  dEband: -2.371743e-05  t[s]:   1170.43
BandDavidson: Iter:  25  Eband: -0.099360148160335  dEband: -1.998075e-05  t[s]:   1176.58
BandDavidson: Iter:  26  Eband: -0.099376868016080  dEband: -1.671986e-05  t[s]:   1182.74
BandDavidson: Iter:  27  Eband: -0.099390713358155  dEband: -1.384534e-05  t[s]:   1188.91
BandDavidson: Iter:  28  Eband: -0.099402154104705  dEband: -1.144075e-05  t[s]:   1195.00
BandDavidson: Iter:  29  Eband: -0.099411561928202  dEband: -9.407823e-06  t[s]:   1200.93
BandDavidson: Iter:  30  Eband: -0.099419227850601  dEband: -7.665922e-06  t[s]:   1206.47
BandDavidson: Iter:  31  Eband: -0.099425471919969  dEband: -6.244069e-06  t[s]:   1211.57
BandDavidson: Iter:  32  Eband: -0.099430747617942  dEband: -5.275698e-06  t[s]:   1216.24
BandDavidson: Iter:  33  Eband: -0.099435412216497  dEband: -4.664599e-06  t[s]:   1220.75
BandDavidson: Iter:  34  Eband: -0.099439447147527  dEband: -4.034931e-06  t[s]:   1225.26
BandDavidson: Iter:  35  Eband: -0.099442869675050  dEband: -3.422528e-06  t[s]:   1229.78
BandDavidson: Iter:  36  Eband: -0.099445727902389  dEband: -2.858227e-06  t[s]:   1234.30
BandDavidson: Iter:  37  Eband: -0.099448121849536  dEband: -2.393947e-06  t[s]:   1238.82
BandDavidson: Iter:  38  Eband: -0.099450129469205  dEband: -2.007620e-06  t[s]:   1243.36
BandDavidson: Iter:  39  Eband: -0.099451820367562  dEband: -1.690898e-06  t[s]:   1247.80
BandDavidson: Iter:  40  Eband: -0.099453237002062  dEband: -1.416635e-06  t[s]:   1252.15
BandDavidson: Iter:  41  Eband: -0.099454429220460  dEband: -1.192218e-06  t[s]:   1256.42
BandDavidson: Iter:  42  Eband: -0.099455429664465  dEband: -1.000444e-06  t[s]:   1260.62
BandDavidson: Iter:  43  Eband: -0.099456276204867  dEband: -8.465404e-07  t[s]:   1264.74
BandDavidson: Iter:  44  Eband: -0.099456993746357  dEband: -7.175415e-07  t[s]:   1268.83
BandDavidson: Iter:  45  Eband: -0.099457606883229  dEband: -6.131369e-07  t[s]:   1272.92
BandDavidson: Iter:  46  Eband: -0.099458130600490  dEband: -5.237173e-07  t[s]:   1276.98
BandDavidson: Iter:  47  Eband: -0.099458579573030  dEband: -4.489725e-07  t[s]:   1281.07
BandDavidson: Iter:  48  Eband: -0.099458964486270  dEband: -3.849132e-07  t[s]:   1285.15
BandDavidson: Iter:  49  Eband: -0.099459295256450  dEband: -3.307702e-07  t[s]:   1289.20
BandDavidson: Iter:  50  Eband: -0.099459578878275  dEband: -2.836218e-07  t[s]:   1293.28
BandDavidson: Iter:  51  Eband: -0.099459822510753  dEband: -2.436325e-07  t[s]:   1297.38
BandDavidson: Iter:  52  Eband: -0.099460031054540  dEband: -2.085438e-07  t[s]:   1301.38
BandDavidson: Iter:  53  Eband: -0.099460209505091  dEband: -1.784506e-07  t[s]:   1305.41
BandDavidson: Iter:  54  Eband: -0.099460362705057  dEband: -1.532000e-07  t[s]:   1309.41
BandDavidson: Iter:  55  Eband: -0.099460494234134  dEband: -1.315291e-07  t[s]:   1313.32
BandDavidson: Iter:  56  Eband: -0.099460606572969  dEband: -1.123388e-07  t[s]:   1317.09
BandDavidson: Iter:  57  Eband: -0.099460702711358  dEband: -9.613839e-08  t[s]:   1320.74
BandDavidson: Iter:  58  Eband: -0.099460785160206  dEband: -8.244885e-08  t[s]:   1324.38
BandDavidson: Iter:  59  Eband: -0.099460855782858  dEband: -7.062265e-08  t[s]:   1327.90
BandDavidson: Iter:  60  Eband: -0.099460916521535  dEband: -6.073868e-08  t[s]:   1331.30
BandDavidson: Iter:  61  Eband: -0.099460968639539  dEband: -5.211800e-08  t[s]:   1334.65
BandDavidson: Iter:  62  Eband: -0.099461013741291  dEband: -4.510175e-08  t[s]:   1337.96
BandDavidson: Iter:  63  Eband: -0.099461052503134  dEband: -3.876184e-08  t[s]:   1341.32
BandDavidson: Iter:  64  Eband: -0.099461086257983  dEband: -3.375485e-08  t[s]:   1344.62
BandDavidson: Iter:  65  Eband: -0.099461115294060  dEband: -2.903608e-08  t[s]:   1347.93
BandDavidson: Iter:  66  Eband: -0.099461140593762  dEband: -2.529970e-08  t[s]:   1351.17
BandDavidson: Iter:  67  Eband: -0.099461162274624  dEband: -2.168086e-08  t[s]:   1354.39
BandDavidson: Iter:  68  Eband: -0.099461181166126  dEband: -1.889150e-08  t[s]:   1357.61
BandDavidson: Iter:  69  Eband: -0.099461197377590  dEband: -1.621146e-08  t[s]:   1360.81
BandDavidson: Iter:  70  Eband: -0.099461211500770  dEband: -1.412318e-08  t[s]:   1364.00
BandDavidson: Iter:  71  Eband: -0.099461223617619  dEband: -1.211685e-08  t[s]:   1367.13
BandDavidson: Iter:  72  Eband: -0.099461234131343  dEband: -1.051372e-08  t[s]:   1370.25
BandDavidson: Iter:  73  Eband: -0.099461243163490  dEband: -9.032147e-09  t[s]:   1373.37
BandDavidson: Converged (dEband<1.000000e-08)

---- Minimization of quantum number:     4  [ +0.0000000 +0.1111111 +0.0000000 ]  0.004629630  spin +1 ----
BandDavidson: Iter:   0  Eband: -0.042644355194745
BandDavidson: Iter:   1  Eband: -0.076854745340870  dEband: -3.421039e-02  t[s]:   1383.61
BandDavidson: Iter:   2  Eband: -0.087275537450312  dEband: -1.042079e-02  t[s]:   1389.89
BandDavidson: Iter:   3  Eband: -0.092266561542434  dEband: -4.991024e-03  t[s]:   1396.16
BandDavidson: Iter:   4  Eband: -0.095326492057131  dEband: -3.059931e-03  t[s]:   1402.43
BandDavidson: Iter:   5  Eband: -0.096891071192584  dEband: -1.564579e-03  t[s]:   1408.73
BandDavidson: Iter:   6  Eband: -0.097709110655662  dEband: -8.180395e-04  t[s]:   1415.00
BandDavidson: Iter:   7  Eband: -0.098081174283621  dEband: -3.720636e-04  t[s]:   1421.28
BandDavidson: Iter:   8  Eband: -0.098300964748719  dEband: -2.197905e-04  t[s]:   1427.56
BandDavidson: Iter:   9  Eband: -0.098454471537735  dEband: -1.535068e-04  t[s]:   1433.83
BandDavidson: Iter:  10  Eband: -0.098585518362795  dEband: -1.310468e-04  t[s]:   1440.10
BandDavidson: Iter:  11  Eband: -0.098695016206504  dEband: -1.094978e-04  t[s]:   1446.36
BandDavidson: Iter:  12  Eband: -0.098792604267867  dEband: -9.758806e-05  t[s]:   1452.65
BandDavidson: Iter:  13  Eband: -0.098880342029589  dEband: -8.773776e-05  t[s]:   1458.92
BandDavidson: Iter:  14  Eband: -0.098961408548071  dEband: -8.106652e-05  t[s]:   1465.17
BandDavidson: Iter:  15  Eband: -0.099030758934403  dEband: -6.935039e-05  t[s]:   1471.45
BandDavidson: Iter:  16  Eband: -0.099093003735912  dEband: -6.224480e-05  t[s]:   1477.71
BandDavidson: Iter:  17  Eband: -0.099149594543924  dEband: -5.659081e-05  t[s]:   1483.96
BandDavidson: Iter:  18  Eband: -0.099199991614927  dEband: -5.039707e-05  t[s]:   1490.22
BandDavidson: Iter:  19  Eband: -0.099245030360217  dEband: -4.503875e-05  t[s]:   1496.47
BandDavidson: Iter:  20  Eband: -0.099284610053870  dEband: -3.957969e-05  t[s]:   1502.71
BandDavidson: Iter:  21  Eband: -0.099319325252171  dEband: -3.471520e-05  t[s]:   1508.95
BandDavidson: Iter:  22  Eband: -0.099349269376091  dEband: -2.994412e-05  t[s]:   1515.16
BandDavidson: Iter:  23  Eband: -0.099375037028826  dEband: -2.576765e-05  t[s]:   1521.37
BandDavidson: Iter:  24  Eband: -0.099397564620790  dEband: -2.252759e-05  t[s]:   1527.57
BandDavidson: Iter:  25  Eband: -0.099417330774295  dEband: -1.976615e-05  t[s]:   1533.67
BandDavidson: Iter:  26  Eband: -0.099434963093531  dEband: -1.763232e-05  t[s]:   1539.78
BandDavidson: Iter:  27  Eband: -0.099450142135360  dEband: -1.517904e-05  t[s]:   1545.92
BandDavidson: Iter:  28  Eband: -0.099462726981964  dEband: -1.258485e-05  t[s]:   1551.99
BandDavidson: Iter:  29  Eband: -0.099473112241192  dEband: -1.038526e-05  t[s]:   1557.75
BandDavidson: Iter:  30  Eband: -0.099481677461451  dEband: -8.565220e-06  t[s]:   1563.32
BandDavidson: Iter:  31  Eband: -0.099488718464700  dEband: -7.041003e-06  t[s]:   1568.32
BandDavidson: Iter:  32  Eband: -0.099494575756643  dEband: -5.857292e-06  t[s]:   1573.19
BandDavidson: Iter:  33  Eband: -0.099499466620314  dEband: -4.890864e-06  t[s]:   1577.69
BandDavidson: Iter:  34  Eband: -0.099503597133539  dEband: -4.130513e-06  t[s]:   1582.16
BandDavidson: Iter:  35  Eband: -0.099507112392845  dEband: -3.515259e-06  t[s]:   1586.65
BandDavidson: Iter:  36  Eband: -0.099510132442068  dEband: -3.020049e-06  t[s]:   1591.12
BandDavidson: Iter:  37  Eband: -0.099512711379676  dEband: -2.578938e-06  t[s]:   1595.59
BandDavidson: Iter:  38  Eband: -0.099514907134111  dEband: -2.195754e-06  t[s]:   1599.95
BandDavidson: Iter:  39  Eband: -0.099516767108508  dEband: -1.859974e-06  t[s]:   1604.29
BandDavidson: Iter:  40  Eband: -0.099518358719533  dEband: -1.591611e-06  t[s]:   1608.54
BandDavidson: Iter:  41  Eband: -0.099519719797569  dEband: -1.361078e-06  t[s]:   1612.74
BandDavidson: Iter:  42  Eband: -0.099520888780906  dEband: -1.168983e-06  t[s]:   1616.84
BandDavidson: Iter:  43  Eband: -0.099521894448739  dEband: -1.005668e-06  t[s]:   1620.93
BandDavidson: Iter:  44  Eband: -0.099522759393590  dEband: -8.649449e-07  t[s]:   1624.99
BandDavidson: Iter:  45  Eband: -0.099523504291732  dEband: -7.448981e-07  t[s]:   1629.02
BandDavidson: Iter:  46  Eband: -0.099524149734619  dEband: -6.454429e-07  t[s]:   1633.04
BandDavidson: Iter:  47  Eband: -0.099524709145723  dEband: -5.594111e-07  t[s]:   1637.05
BandDavidson: Iter:  48  Eband: -0.099525196702301  dEband: -4.875566e-07  t[s]:   1641.08
BandDavidson: Iter:  49  Eband: -0.099525620224473  dEband: -4.235222e-07  t[s]:   1645.12
BandDavidson: Iter:  50  Eband: -0.099525986840464  dEband: -3.666160e-07  t[s]:   1649.08
BandDavidson: Iter:  51  Eband: -0.099526305994635  dEband: -3.191542e-07  t[s]:   1653.04
BandDavidson: Iter:  52  Eband: -0.099526583871378  dEband: -2.778767e-07  t[s]:   1657.00
BandDavidson: Iter:  53  Eband: -0.099526825367226  dEband: -2.414958e-07  t[s]:   1660.83
BandDavidson: Iter:  54  Eband: -0.099527034482516  dEband: -2.091153e-07  t[s]:   1664.56
BandDavidson: Iter:  55  Eband: -0.099527216410378  dEband: -1.819279e-07  t[s]:   1668.22
BandDavidson: Iter:  56  Eband: -0.099527374510958  dEband: -1.581006e-07  t[s]:   1671.88
BandDavidson: Iter:  57  Eband: -0.099527512386676  dEband: -1.378757e-07  t[s]:   1675.46
BandDavidson: Iter:  58  Eband: -0.099527632431590  dEband: -1.200449e-07  t[s]:   1679.00
BandDavidson: Iter:  59  Eband: -0.099527737187959  dEband: -1.047564e-07  t[s]:   1682.49
BandDavidson: Iter:  60  Eband: -0.099527828887336  dEband: -9.169938e-08  t[s]:   1685.89
BandDavidson: Iter:  61  Eband: -0.099527908932126  dEband: -8.004479e-08  t[s]:   1689.25
BandDavidson: Iter:  62  Eband: -0.099527978770039  dEband: -6.983791e-08  t[s]:   1692.51
BandDavidson: Iter:  63  Eband: -0.099528039755057  dEband: -6.098502e-08  t[s]:   1695.75
BandDavidson: Iter:  64  Eband: -0.099528092962694  dEband: -5.320764e-08  t[s]:   1698.97
BandDavidson: Iter:  65  Eband: -0.099528139466676  dEband: -4.650398e-08  t[s]:   1702.20
BandDavidson: Iter:  66  Eband: -0.099528179969518  dEband: -4.050284e-08  t[s]:   1705.34
BandDavidson: Iter:  67  Eband: -0.099528215423161  dEband: -3.545364e-08  t[s]:   1708.48
BandDavidson: Iter:  68  Eband: -0.099528246358318  dEband: -3.093516e-08  t[s]:   1711.64
BandDavidson: Iter:  69  Eband: -0.099528273550945  dEband: -2.719263e-08  t[s]:   1714.75
BandDavidson: Iter:  70  Eband: -0.099528297296284  dEband: -2.374534e-08  t[s]:   1717.88
BandDavidson: Iter:  71  Eband: -0.099528318199846  dEband: -2.090356e-08  t[s]:   1720.94
BandDavidson: Iter:  72  Eband: -0.099528336519916  dEband: -1.832007e-08  t[s]:   1724.02
BandDavidson: Iter:  73  Eband: -0.099528352693959  dEband: -1.617404e-08  t[s]:   1727.08
BandDavidson: Iter:  74  Eband: -0.099528366875969  dEband: -1.418201e-08  t[s]:   1730.14
BandDavidson: Iter:  75  Eband: -0.099528379388726  dEband: -1.251276e-08  t[s]:   1733.13
BandDavidson: Iter:  76  Eband: -0.099528390353220  dEband: -1.096449e-08  t[s]:   1736.14
BandDavidson: Iter:  77  Eband: -0.099528400044088  dEband: -9.690868e-09  t[s]:   1739.15
BandDavidson: Converged (dEband<1.000000e-08)

---- Minimization of quantum number:     5  [ +0.0000000 +0.1388889 +0.0000000 ]  0.004629630  spin +1 ----
BandDavidson: Iter:   0  Eband: -0.042593263650006
BandDavidson: Iter:   1  Eband: -0.076828697405417  dEband: -3.423543e-02  t[s]:   1749.40
BandDavidson: Iter:   2  Eband: -0.087336914743057  dEband: -1.050822e-02  t[s]:   1755.68
BandDavidson: Iter:   3  Eband: -0.092197230181793  dEband: -4.860315e-03  t[s]:   1761.97
BandDavidson: Iter:   4  Eband: -0.095315504357759  dEband: -3.118274e-03  t[s]:   1768.27
BandDavidson: Iter:   5  Eband: -0.096735996089424  dEband: -1.420492e-03  t[s]:   1774.58
BandDavidson: Iter:   6  Eband: -0.097460142033277  dEband: -7.241459e-04  t[s]:   1780.89
BandDavidson: Iter:   7  Eband: -0.097951458068288  dEband: -4.913160e-04  t[s]:   1787.20
BandDavidson: Iter:   8  Eband: -0.098238020848085  dEband: -2.865628e-04  t[s]:   1793.50
BandDavidson: Iter:   9  Eband: -0.098427002370250  dEband: -1.889815e-04  t[s]:   1799.80
BandDavidson: Iter:  10  Eband: -0.098582184605663  dEband: -1.551822e-04  t[s]:   1806.09
BandDavidson: Iter:  11  Eband: -0.098722982842374  dEband: -1.407982e-04  t[s]:   1812.39
BandDavidson: Iter:  12  Eband: -0.098839236164621  dEband: -1.162533e-04  t[s]:   1818.70
BandDavidson: Iter:  13  Eband: -0.098937481974808  dEband: -9.824581e-05  t[s]:   1825.00
BandDavidson: Iter:  14  Eband: -0.099020562464432  dEband: -8.308049e-05  t[s]:   1831.29
BandDavidson: Iter:  15  Eband: -0.099092236520648  dEband: -7.167406e-05  t[s]:   1837.58
BandDavidson: Iter:  16  Eband: -0.099153347763296  dEband: -6.111124e-05  t[s]:   1843.86
BandDavidson: Iter:  17  Eband: -0.099205387896695  dEband: -5.204013e-05  t[s]:   1850.15
BandDavidson: Iter:  18  Eband: -0.099251986731953  dEband: -4.659884e-05  t[s]:   1856.43
BandDavidson: Iter:  19  Eband: -0.099295571416710  dEband: -4.358468e-05  t[s]:   1862.71
BandDavidson: Iter:  20  Eband: -0.099334770159873  dEband: -3.919874e-05  t[s]:   1868.98
BandDavidson: Iter:  21  Eband: -0.099368262275241  dEband: -3.349212e-05  t[s]:   1875.25
BandDavidson: Iter:  22  Eband: -0.099396319050609  dEband: -2.805678e-05  t[s]:   1881.55
BandDavidson: Iter:  23  Eband: -0.099421005447153  dEband: -2.468640e-05  t[s]:   1887.79
BandDavidson: Iter:  24  Eband: -0.099442614074388  dEband: -2.160863e-05  t[s]:   1894.03
BandDavidson: Iter:  25  Eband: -0.099461212120158  dEband: -1.859805e-05  t[s]:   1900.27
BandDavidson: Iter:  26  Eband: -0.099477194512094  dEband: -1.598239e-05  t[s]:   1906.40
BandDavidson: Iter:  27  Eband: -0.099490871961129  dEband: -1.367745e-05  t[s]:   1912.50
BandDavidson: Iter:  28  Eband: -0.099502579868790  dEband: -1.170791e-05  t[s]:   1918.42
BandDavidson: Iter:  29  Eband: -0.099512593054559  dEband: -1.001319e-05  t[s]:   1924.27
BandDavidson: Iter:  30  Eband: -0.099521086625321  dEband: -8.493571e-06  t[s]:   1929.67
BandDavidson: Iter:  31  Eband: -0.099528212347231  dEband: -7.125722e-06  t[s]:   1934.81
BandDavidson: Iter:  32  Eband: -0.099534224086029  dEband: -6.011739e-06  t[s]:   1939.63
BandDavidson: Iter:  33  Eband: -0.099539289255481  dEband: -5.065169e-06  t[s]:   1944.16
BandDavidson: Iter:  34  Eband: -0.099543624538045  dEband: -4.335283e-06  t[s]:   1948.55
BandDavidson: Iter:  35  Eband: -0.099547350881300  dEband: -3.726343e-06  t[s]:   1953.03
BandDavidson: Iter:  36  Eband: -0.099550571816263  dEband: -3.220935e-06  t[s]:   1957.51
BandDavidson: Iter:  37  Eband: -0.099553368597457  dEband: -2.796781e-06  t[s]:   1961.98
BandDavidson: Iter:  38  Eband: -0.099555789108735  dEband: -2.420511e-06  t[s]:   1966.27
BandDavidson: Iter:  39  Eband: -0.099557872295121  dEband: -2.083186e-06  t[s]:   1970.51
BandDavidson: Iter:  40  Eband: -0.099559678575591  dEband: -1.806280e-06  t[s]:   1974.77
BandDavidson: Iter:  41  Eband: -0.099561247770121  dEband: -1.569195e-06  t[s]:   1979.03
BandDavidson: Iter:  42  Eband: -0.099562612803960  dEband: -1.365034e-06  t[s]:   1983.25
BandDavidson: Iter:  43  Eband: -0.099563805900989  dEband: -1.193097e-06  t[s]:   1987.43
BandDavidson: Iter:  44  Eband: -0.099564843173300  dEband: -1.037272e-06  t[s]:   1991.47
BandDavidson: Iter:  45  Eband: -0.099565744209285  dEband: -9.010360e-07  t[s]:   1995.49
BandDavidson: Iter:  46  Eband: -0.099566533603687  dEband: -7.893944e-07  t[s]:   1999.52
BandDavidson: Iter:  47  Eband: -0.099567225907054  dEband: -6.923034e-07  t[s]:   2003.55
BandDavidson: Iter:  48  Eband: -0.099567836437199  dEband: -6.105301e-07  t[s]:   2007.57
BandDavidson: Iter:  49  Eband: -0.099568374631706  dEband: -5.381945e-07  t[s]:   2011.60
BandDavidson: Iter:  50  Eband: -0.099568852138888  dEband: -4.775072e-07  t[s]:   2015.62
BandDavidson: Iter:  51  Eband: -0.099569274355794  dEband: -4.222169e-07  t[s]:   2019.56
BandDavidson: Iter:  52  Eband: -0.099569648451294  dEband: -3.740955e-07  t[s]:   2023.44
BandDavidson: Iter:  53  Eband: -0.099569980627596  dEband: -3.321763e-07  t[s]:   2027.21
BandDavidson: Iter:  54  Eband: -0.099570276405984  dEband: -2.957784e-07  t[s]:   2030.94
BandDavidson: Iter:  55  Eband: -0.099570538573637  dEband: -2.621677e-07  t[s]:   2034.59
BandDavidson: Iter:  56  Eband: -0.099570771663380  dEband: -2.330897e-07  t[s]:   2038.21
BandDavidson: Iter:  57  Eband: -0.099570980611366  dEband: -2.089480e-07  t[s]:   2041.79
BandDavidson: Iter:  58  Eband: -0.099571168922495  dEband: -1.883111e-07  t[s]:   2045.37
BandDavidson: Iter:  59  Eband: -0.099571338080893  dEband: -1.691584e-07  t[s]:   2048.89
BandDavidson: Iter:  60  Eband: -0.099571490920217  dEband: -1.528393e-07  t[s]:   2052.36
BandDavidson: Iter:  61  Eband: -0.099571628584535  dEband: -1.376643e-07  t[s]:   2055.76
BandDavidson: Iter:  62  Eband: -0.099571753172943  dEband: -1.245884e-07  t[s]:   2059.09
BandDavidson: Iter:  63  Eband: -0.099571865420788  dEband: -1.122478e-07  t[s]:   2062.37
BandDavidson: Iter:  64  Eband: -0.099571966329610  dEband: -1.009088e-07  t[s]:   2065.64
BandDavidson: Iter:  65  Eband: -0.099572057185383  dEband: -9.085577e-08  t[s]:   2068.85
BandDavidson: Iter:  66  Eband: -0.099572139101962  dEband: -8.191658e-08  t[s]:   2072.04
BandDavidson: Iter:  67  Eband: -0.099572213019437  dEband: -7.391747e-08  t[s]:   2075.17
BandDavidson: Iter:  68  Eband: -0.099572279779312  dEband: -6.675987e-08  t[s]:   2078.32
BandDavidson: Iter:  69  Eband: -0.099572339994913  dEband: -6.021560e-08  t[s]:   2081.43
BandDavidson: Iter:  70  Eband: -0.099572394509426  dEband: -5.451451e-08  t[s]:   2084.55
BandDavidson: Iter:  71  Eband: -0.099572443485095  dEband: -4.897567e-08  t[s]:   2087.66
BandDavidson: Iter:  72  Eband: -0.099572488034673  dEband: -4.454958e-08  t[s]:   2090.78
BandDavidson: Iter:  73  Eband: -0.099572527877309  dEband: -3.984264e-08  t[s]:   2093.80
BandDavidson: Iter:  74  Eband: -0.099572563885674  dEband: -3.600837e-08  t[s]:   2096.80
BandDavidson: Iter:  75  Eband: -0.099572596069051  dEband: -3.218338e-08  t[s]:   2099.79
BandDavidson: Iter:  76  Eband: -0.099572624955806  dEband: -2.888675e-08  t[s]:   2102.80
BandDavidson: Iter:  77  Eband: -0.099572650747707  dEband: -2.579190e-08  t[s]:   2105.76
BandDavidson: Iter:  78  Eband: -0.099572673716843  dEband: -2.296914e-08  t[s]:   2108.73
BandDavidson: Iter:  79  Eband: -0.099572694295689  dEband: -2.057885e-08  t[s]:   2111.68
BandDavidson: Iter:  80  Eband: -0.099572712718178  dEband: -1.842249e-08  t[s]:   2114.63
BandDavidson: Iter:  81  Eband: -0.099572729139786  dEband: -1.642161e-08  t[s]:   2117.54
BandDavidson: Iter:  82  Eband: -0.099572743859073  dEband: -1.471929e-08  t[s]:   2120.47
BandDavidson: Iter:  83  Eband: -0.099572757019484  dEband: -1.316041e-08  t[s]:   2123.38
BandDavidson: Iter:  84  Eband: -0.099572768869177  dEband: -1.184969e-08  t[s]:   2126.30
BandDavidson: Iter:  85  Eband: -0.099572779511299  dEband: -1.064212e-08  t[s]:   2129.16
BandDavidson: Iter:  86  Eband: -0.099572789076427  dEband: -9.565128e-09  t[s]:   2132.02
BandDavidson: Converged (dEband<1.000000e-08)
Setting wave functions to eigenvectors of Hamiltonian
	FillingsUpdate:  mu: -0.049565408  nElectrons: 121.000000  magneticMoment: [ Abs: 0.15336  Tot: +0.15278 ]

Dumping 'Cs-0.328.dosUp' ... done.
Dumping 'Cs-0.328.dosDn' ... done.
End date and time: Sat Apr  2 16:47:40 2022  (Duration: 0-0:49:51.92)
Done!
