Second Layer Distance is 0.334

--------------------------------------------------------------------------
The library attempted to open the following supporting CUDA libraries,
but each of them failed.  CUDA-aware support is disabled.
libcuda.so.1: cannot open shared object file: No such file or directory
libcuda.dylib: cannot open shared object file: No such file or directory
/usr/lib64/libcuda.so.1: cannot open shared object file: No such file or directory
/usr/lib64/libcuda.dylib: cannot open shared object file: No such file or directory
If you are not interested in CUDA-aware support, then run with
--mca opal_warn_on_missing_libcuda 0 to suppress this message.  If you are interested
in CUDA-aware support, then try setting LD_LIBRARY_PATH to the location
of libcuda.so.1 to get passed this issue.
--------------------------------------------------------------------------
--------------------------------------------------------------------------
No OpenFabrics connection schemes reported that they were able to be
used on a specific port.  As such, the openib BTL (OpenFabrics
support) will be disabled for this port.

  Local host:           d-17-1-2
  Local device:         mlx5_1
  Local port:           1
  CPCs attempted:       rdmacm, udcm
--------------------------------------------------------------------------

*************** JDFTx 1.6.0 (git hash 42ebbcc2) ***************

Start date and time: Sat Apr  2 15:57:48 2022
Executable jdftx with command-line: -i Moire.dos.in
Running on hosts (process indices):  d-17-1-2 (0-37)
Divided in process groups (process indices):  0 (0)  1 (1)  2 (2)  3 (3)  4 (4)  5 (5)  6 (6)  7 (7)  8 (8)  9 (9)  10 (10)  11 (11)  12 (12)  13 (13)  14 (14)  15 (15)  16 (16)  17 (17)  18 (18)  19 (19)  20 (20)  21 (21)  22 (22)  23 (23)  24 (24)  25 (25)  26 (26)  27 (27)  28 (28)  29 (29)  30 (30)  31 (31)  32 (32)  33 (33)  34 (34)  35 (35)  36 (36)  37 (37)
Resource initialization completed at t[s]:      0.00
Run totals: 38 processes, 48 threads, 0 GPUs


Input parsed successfully to the following command list (including defaults):

basis kpoint-dependent
coords-type Lattice
core-overlap-check vector
coulomb-interaction Slab 001
davidson-band-ratio 1.1
dump End DOS
dump-name Cs-0.334.$VAR
elec-cutoff 20
elec-eigen-algo Davidson
elec-ex-corr gga-PBE
elec-initial-magnetization 1.000000 no
elec-smearing Fermi 1e-05
electronic-minimize  \
	dirUpdateScheme      FletcherReeves \
	linminMethod         DirUpdateRecommended \
	nIterations          100 \
	history              15 \
	knormThreshold       0 \
	energyDiffThreshold  1e-08 \
	nEnergyDiff          2 \
	alphaTstart          1 \
	alphaTmin            1e-10 \
	updateTestStepSize   yes \
	alphaTreduceFactor   0.1 \
	alphaTincreaseFactor 3 \
	nAlphaAdjustMax      3 \
	wolfeEnergy          0.0001 \
	wolfeGradient        0.9 \
	fdTest               no
exchange-regularization WignerSeitzTruncated
fix-electron-density ../Cs-0.334.$VAR
fluid None
fluid-ex-corr (null) lda-PZ
fluid-gummel-loop 10 1.000000e-05
fluid-minimize  \
	dirUpdateScheme      PolakRibiere \
	linminMethod         DirUpdateRecommended \
	nIterations          100 \
	history              15 \
	knormThreshold       0 \
	energyDiffThreshold  0 \
	nEnergyDiff          2 \
	alphaTstart          1 \
	alphaTmin            1e-10 \
	updateTestStepSize   yes \
	alphaTreduceFactor   0.1 \
	alphaTincreaseFactor 3 \
	nAlphaAdjustMax      3 \
	wolfeEnergy          0.0001 \
	wolfeGradient        0.9 \
	fdTest               no
fluid-solvent H2O 55.338 ScalarEOS \
	epsBulk 78.4 \
	pMol 0.92466 \
	epsInf 1.77 \
	Pvap 1.06736e-10 \
	sigmaBulk 4.62e-05 \
	Rvdw 2.61727 \
	Res 1.42 \
	tauNuc 343133 \
	poleEl 15 7 1
forces-output-coords Positions
ion N   0.952380952380952   0.761904761904762   0.000000000000000 0
ion N   1.428571428571428   1.285714285714286   0.334000000000000 0
ion N   0.380952380952381   0.904761904761905   0.000000000000000 0
ion N   0.714285714285714   1.142857142857143   0.334000000000000 0
ion N   0.523809523809524   0.619047619047619   0.000000000000000 0
ion N   1.000000000000000   1.000000000000000   0.334000000000000 0
ion N   0.666666666666667   0.333333333333333   0.000000000000000 0
ion N   1.285714285714286   0.857142857142857   0.334000000000000 0
ion N   0.809523809523810   0.047619047619048   0.000000000000000 0
ion N   1.571428571428571   0.714285714285714   0.334000000000000 0
ion N   0.095238095238095   0.476190476190476   0.000000000000000 0
ion N   0.238095238095238   0.190476190476190   0.000000000000000 0
ion N   0.857142857142857   0.571428571428571   0.334000000000000 0
ion N   1.142857142857143   0.428571428571429   0.334000000000000 0
ion B   0.571428571428572   0.857142857142857   0.000000000000000 0
ion B   0.952380952380952   1.190476190476190   0.334000000000000 0
ion B   0.714285714285714   0.571428571428571   0.000000000000000 0
ion B   1.238095238095238   1.047619047619047   0.334000000000000 0
ion B   0.857142857142857   0.285714285714286   0.000000000000000 0
ion B   1.523809523809524   0.904761904761905   0.334000000000000 0
ion B   0.142857142857143   0.714285714285714   0.000000000000000 0
ion B   0.285714285714286   0.428571428571429   0.000000000000000 0
ion B   0.809523809523810   0.761904761904762   0.334000000000000 0
ion B   0.428571428571429   0.142857142857143   0.000000000000000 0
ion B   1.095238095238095   0.619047619047619   0.334000000000000 0
ion B   1.380952380952381   0.476190476190476   0.334000000000000 0
ion B   0.000000000000000   0.000000000000000   0.000000000000000 0
ion B   0.666666666666667   0.333333333333333   0.334000000000000 0
ion Cs   0.333333333300000   0.666666666600000   0.167000000000000 0
ion-species SG15/$ID_ONCV_PBE.upf
ion-width 0
ionic-minimize  \
	dirUpdateScheme      L-BFGS \
	linminMethod         DirUpdateRecommended \
	nIterations          0 \
	history              15 \
	knormThreshold       0.0001 \
	energyDiffThreshold  1e-06 \
	nEnergyDiff          2 \
	alphaTstart          1 \
	alphaTmin            1e-10 \
	updateTestStepSize   yes \
	alphaTreduceFactor   0.1 \
	alphaTincreaseFactor 3 \
	nAlphaAdjustMax      3 \
	wolfeEnergy          0.0001 \
	wolfeGradient        0.9 \
	fdTest               no
kpoint   0.000000000000   0.000000000000   0.000000000000  1.00000000000000
kpoint-folding 36 36 1 
latt-move-scale 1 1 1
latt-scale 1 1 1 
lattice  \
	 -11.818700000000000    2.363740000000000    0.000000000000000  \
	   4.094120000000000  -12.282400000000001    0.000000000000000  \
	   0.000000000000000    0.000000000000000   40.000000000000000 
lattice-minimize  \
	dirUpdateScheme      L-BFGS \
	linminMethod         DirUpdateRecommended \
	nIterations          0 \
	history              15 \
	knormThreshold       0 \
	energyDiffThreshold  1e-06 \
	nEnergyDiff          2 \
	alphaTstart          1 \
	alphaTmin            1e-10 \
	updateTestStepSize   yes \
	alphaTreduceFactor   0.1 \
	alphaTincreaseFactor 3 \
	nAlphaAdjustMax      3 \
	wolfeEnergy          0.0001 \
	wolfeGradient        0.9 \
	fdTest               no
lcao-params -1 1e-06 1e-05
pcm-variant GLSSA13
spintype z-spin
subspace-rotation-factor 1 yes
symmetries automatic
symmetry-threshold 0.0001
van-der-waals D3



---------- Setting up symmetries ----------

Found 24 point-group symmetries of the bravais lattice
Found 6 space-group symmetries with basis
Applied RMS atom displacement 1.31765e-10 bohrs to make symmetries exact.

---------- Initializing the Grid ----------
R = 
[     -11.8187      2.36374            0  ]
[      4.09412     -12.2824            0  ]
[            0            0           40  ]
unit cell volume = 5419.38
G =
[  -0.569604   -0.10962          0  ]
[  -0.189867    -0.5481          0  ]
[          0          0    0.15708  ]
Minimum fftbox size, Smin = [  52  52  164  ]
Chosen fftbox size, S = [  54  54  168  ]

---------- Exchange Correlation functional ----------
Initalized PBE GGA exchange.
Initalized PBE GGA correlation.

---------- Setting up pseudopotentials ----------
Width of ionic core gaussian charges (only for fluid interactions / plotting) set to 0

Reading pseudopotential file '/home/gridsan/aligho/DFT/build-Nov24/pseudopotentials/SG15/N_ONCV_PBE.upf':
  'N' pseudopotential, 'PBE' functional
  Generated using ONCVPSP code by D. R. Hamann
  Author: Martin Schlipf and Francois Gygi  Date: 150915.
  5 valence electrons, 2 orbitals, 4 projectors, 1058 radial grid points, with lMax = 1
  Transforming local potential to a uniform radial grid of dG=0.02 with 1514 points.
  Transforming nonlocal projectors to a uniform radial grid of dG=0.02 with 432 points.
    2S    l: 0   occupation:  2.0   eigenvalue: -0.682907
    2P    l: 1   occupation:  3.0   eigenvalue: -0.260548
  Transforming atomic orbitals to a uniform radial grid of dG=0.02 with 432 points.
  Core radius for overlap checks: 1.35 bohrs.
  Reading pulay file /home/gridsan/aligho/DFT/build-Nov24/pseudopotentials/SG15/N_ONCV_PBE.pulay ... using dE_dnG = -2.956256e-02 computed for Ecut = 20.

Reading pseudopotential file '/home/gridsan/aligho/DFT/build-Nov24/pseudopotentials/SG15/B_ONCV_PBE.upf':
  'B' pseudopotential, 'PBE' functional
  Generated using ONCVPSP code by D. R. Hamann
  Author: Martin Schlipf and Francois Gygi  Date: 150915.
  3 valence electrons, 2 orbitals, 4 projectors, 1534 radial grid points, with lMax = 1
  Transforming local potential to a uniform radial grid of dG=0.02 with 1514 points.
  Transforming nonlocal projectors to a uniform radial grid of dG=0.02 with 432 points.
    2S    l: 0   occupation:  2.0   eigenvalue: -0.347027
    2P    l: 1   occupation:  1.0   eigenvalue: -0.132548
  Transforming atomic orbitals to a uniform radial grid of dG=0.02 with 432 points.
  Core radius for overlap checks: 1.60 bohrs.
  Reading pulay file /home/gridsan/aligho/DFT/build-Nov24/pseudopotentials/SG15/B_ONCV_PBE.pulay ... using dE_dnG = -3.748568e-04 computed for Ecut = 20.

Reading pseudopotential file '/home/gridsan/aligho/DFT/build-Nov24/pseudopotentials/SG15/Cs_ONCV_PBE.upf':
  'Cs' pseudopotential, 'PBE' functional
  Generated using ONCVPSP code by D. R. Hamann
  Author: Martin Schlipf and Francois Gygi  Date: 150915.
  9 valence electrons, 3 orbitals, 6 projectors, 2414 radial grid points, with lMax = 2
  Transforming local potential to a uniform radial grid of dG=0.02 with 1514 points.
  Transforming nonlocal projectors to a uniform radial grid of dG=0.02 with 432 points.
    5S    l: 0   occupation:  2.0   eigenvalue: -0.982388
    5P    l: 1   occupation:  6.0   eigenvalue: -0.496786
    6S    l: 0   occupation:  1.0   eigenvalue: -0.076670
  Transforming atomic orbitals to a uniform radial grid of dG=0.02 with 432 points.
  Core radius for overlap checks: 2.06 bohrs.
  Reading pulay file /home/gridsan/aligho/DFT/build-Nov24/pseudopotentials/SG15/Cs_ONCV_PBE.pulay ... using dE_dnG = -1.008762e-04 computed for Ecut = 20.

Initialized 3 species with 29 total atoms.

Folded 1 k-points by 36x36x1 to 1296 k-points.

---------- Setting up k-points, bands, fillings ----------
Adding inversion symmetry to k-mesh for non-inversion-symmetric unit cell.
Reduced to 127 k-points under symmetry. 
Computing the number of bands and number of electrons
Calculating initial fillings.
nElectrons: 121.000000   nBands: 117   nStates: 254

----- Setting up reduced wavefunction bases (one per k-point) -----
average nbasis = 23152.266 , ideal nbasis = 23152.016

----- Initializing Supercell corresponding to k-point mesh -----
Lattice vector linear combinations in supercell:
[  36   0   0  ]
[   0  36   0  ]
[   0   0   1  ]
Supercell lattice vectors:
[  -425.473  85.0946  0  ]
[  147.388  -442.166  0  ]
[  0  0  40  ]

---------- Setting up coulomb interaction ----------
Initialized slab truncation along lattice direction 001

Initializing DFT-D3 calculator:
	Parameters set for gga-PBE functional
	s6:  1.000  s_r6:  1.217
	s8:  0.722  s_r8:  1.000
	Per-atom parameters loaded for:
	 N:  sqrtQ[a0]:  2.712  Rcov[a0]:  1.342  CN: [ 0.00 0.99 2.01 2.99 ]
	 B:  sqrtQ[a0]:  3.644  Rcov[a0]:  1.455  CN: [ 0.00 0.97 1.94 2.91 4.59 ]
	Cs:  sqrtQ[a0]: 11.022  Rcov[a0]:  3.950  CN: [ 0.00 0.99 ]

---------- Setting up 2D ewald sum ----------
Optimum gaussian width for ewald sums = 6.943804 bohr.
Real space sums over 289 unit cells with max indices [  8  8  0  ]
Reciprocal space sums over 81 terms with max indices [  4  4  0  ]

Computing DFT-D3 correction:
# coordination-number N 3.201 3.201 3.551 3.201 3.551 3.169 3.169 3.551 3.201 3.551 3.551 3.201 3.201 3.551
# coordination-number B 3.838 3.423 3.423 3.423 3.423 3.838 3.838 3.838 3.423 3.423 3.838 3.838 3.381 3.381
# coordination-number Cs 6.965
# diagonal-C6 N 15.60 15.60 15.58 15.60 15.58 15.60 15.60 15.58 15.60 15.58 15.58 15.60 15.60 15.58
# diagonal-C6 B 28.81 31.41 31.41 31.41 31.41 28.81 28.81 28.81 31.41 31.41 28.81 28.81 31.43 31.43
# diagonal-C6 Cs 649.09
EvdW_6 =   -0.030197
EvdW_8 =   -0.034926

---------- Allocating electronic variables ----------
Reading n_up from file '../Cs-0.334.n_up' ... done
Reading n_dn from file '../Cs-0.334.n_dn' ... done
Initializing wave functions:  linear combination of atomic orbitals
[d-17-1-2:52441] 37 more processes have sent help message help-mpi-common-cuda.txt / dlopen failed
[d-17-1-2:52441] Set MCA parameter "orte_base_help_aggregate" to 0 to see all help / error messages
[d-17-1-2:52441] 37 more processes have sent help message help-mpi-btl-openib-cpc-base.txt / no cpcs for port


---- Citations for features of the code used in this run ----

   Software package:
      R. Sundararaman, K. Letchworth-Weaver, K.A. Schwarz, D. Gunceler, Y. Ozhabes and T.A. Arias, 'JDFTx: software for joint density-functional theory', SoftwareX 6, 278 (2017)

   gga-PBE exchange-correlation functional:
      J.P. Perdew, K. Burke and M. Ernzerhof, Phys. Rev. Lett. 77, 3865 (1996)

   Pseudopotentials:
      M Schlipf and F Gygi, Comput. Phys. Commun. 196, 36 (2015)

   Truncated Coulomb potentials:
      R. Sundararaman and T.A. Arias, Phys. Rev. B 87, 165122 (2013)

   DFT-D3 dispersion correction:
      S. Grimme, J. Antony, S. Ehrlich and H. Krieg, J. Chem. Phys. 132, 154104 (2010)

   Total energy minimization with Auxiliary Hamiltonian:
      C. Freysoldt, S. Boeck, and J. Neugebauer, Phys. Rev. B 79, 241103(R) (2009)

   Linear-tetrahedron sampling for density of states:
      G. Lehmann and M. Taut, Phys. status solidi (b) 54, 469 (1972)

This list may not be complete. Please suggest additional citations or
report any other bugs at https://github.com/shankar1729/jdftx/issues

Initialization completed successfully at t[s]:     47.95


----------- Band structure minimization -------------
Minimization will be done independently for each quantum number.

---- Minimization of quantum number:     0  [ +0.0000000 +0.0000000 +0.0000000 ]  0.000771605  spin +1 ----
BandDavidson: Iter:   0  Eband: -0.006975918309889
BandDavidson: Iter:   1  Eband: -0.012617677128848  dEband: -5.641759e-03  t[s]:     58.62
BandDavidson: Iter:   2  Eband: -0.014312228130372  dEband: -1.694551e-03  t[s]:     64.87
BandDavidson: Iter:   3  Eband: -0.015231034915266  dEband: -9.188068e-04  t[s]:     71.10
BandDavidson: Iter:   4  Eband: -0.015786418566824  dEband: -5.553837e-04  t[s]:     77.31
BandDavidson: Iter:   5  Eband: -0.016053239114483  dEband: -2.668205e-04  t[s]:     83.53
BandDavidson: Iter:   6  Eband: -0.016168046773656  dEband: -1.148077e-04  t[s]:     89.77
BandDavidson: Iter:   7  Eband: -0.016232998061257  dEband: -6.495129e-05  t[s]:     96.02
BandDavidson: Iter:   8  Eband: -0.016274029082071  dEband: -4.103102e-05  t[s]:    102.29
BandDavidson: Iter:   9  Eband: -0.016301626360844  dEband: -2.759728e-05  t[s]:    108.57
BandDavidson: Iter:  10  Eband: -0.016321694858532  dEband: -2.006850e-05  t[s]:    114.86
BandDavidson: Iter:  11  Eband: -0.016336763146161  dEband: -1.506829e-05  t[s]:    121.15
BandDavidson: Iter:  12  Eband: -0.016348463244780  dEband: -1.170010e-05  t[s]:    127.44
BandDavidson: Iter:  13  Eband: -0.016357770522233  dEband: -9.307277e-06  t[s]:    133.73
BandDavidson: Iter:  14  Eband: -0.016365401686008  dEband: -7.631164e-06  t[s]:    140.03
BandDavidson: Iter:  15  Eband: -0.016371850941297  dEband: -6.449255e-06  t[s]:    146.32
BandDavidson: Iter:  16  Eband: -0.016377464028560  dEband: -5.613087e-06  t[s]:    152.58
BandDavidson: Iter:  17  Eband: -0.016382437525703  dEband: -4.973497e-06  t[s]:    158.85
BandDavidson: Iter:  18  Eband: -0.016386943107487  dEband: -4.505582e-06  t[s]:    165.10
BandDavidson: Iter:  19  Eband: -0.016391010982065  dEband: -4.067875e-06  t[s]:    171.35
BandDavidson: Iter:  20  Eband: -0.016394614371457  dEband: -3.603389e-06  t[s]:    177.60
BandDavidson: Iter:  21  Eband: -0.016397773817712  dEband: -3.159446e-06  t[s]:    183.70
BandDavidson: Iter:  22  Eband: -0.016400480377427  dEband: -2.706560e-06  t[s]:    189.77
BandDavidson: Iter:  23  Eband: -0.016402781146460  dEband: -2.300769e-06  t[s]:    195.91
BandDavidson: Iter:  24  Eband: -0.016404746600235  dEband: -1.965454e-06  t[s]:    202.07
BandDavidson: Iter:  25  Eband: -0.016406536781563  dEband: -1.790181e-06  t[s]:    208.23
BandDavidson: Iter:  26  Eband: -0.016408229224342  dEband: -1.692443e-06  t[s]:    214.32
BandDavidson: Iter:  27  Eband: -0.016409844425756  dEband: -1.615201e-06  t[s]:    220.33
BandDavidson: Iter:  28  Eband: -0.016411164249882  dEband: -1.319824e-06  t[s]:    226.19
BandDavidson: Iter:  29  Eband: -0.016412228099419  dEband: -1.063850e-06  t[s]:    231.80
BandDavidson: Iter:  30  Eband: -0.016413085071004  dEband: -8.569716e-07  t[s]:    237.19
BandDavidson: Iter:  31  Eband: -0.016413774361064  dEband: -6.892901e-07  t[s]:    242.18
BandDavidson: Iter:  32  Eband: -0.016414331165067  dEband: -5.568040e-07  t[s]:    246.70
BandDavidson: Iter:  33  Eband: -0.016414783481442  dEband: -4.523164e-07  t[s]:    251.19
BandDavidson: Iter:  34  Eband: -0.016415156450928  dEband: -3.729695e-07  t[s]:    255.68
BandDavidson: Iter:  35  Eband: -0.016415466010778  dEband: -3.095599e-07  t[s]:    260.14
BandDavidson: Iter:  36  Eband: -0.016415723418927  dEband: -2.574081e-07  t[s]:    264.59
BandDavidson: Iter:  37  Eband: -0.016415937218250  dEband: -2.137993e-07  t[s]:    269.04
BandDavidson: Iter:  38  Eband: -0.016416114098240  dEband: -1.768800e-07  t[s]:    273.47
BandDavidson: Iter:  39  Eband: -0.016416259878566  dEband: -1.457803e-07  t[s]:    277.81
BandDavidson: Iter:  40  Eband: -0.016416379501793  dEband: -1.196232e-07  t[s]:    282.07
BandDavidson: Iter:  41  Eband: -0.016416477563006  dEband: -9.806121e-08  t[s]:    286.21
BandDavidson: Iter:  42  Eband: -0.016416557292679  dEband: -7.972967e-08  t[s]:    290.19
BandDavidson: Iter:  43  Eband: -0.016416623153018  dEband: -6.586034e-08  t[s]:    294.17
BandDavidson: Iter:  44  Eband: -0.016416677591859  dEband: -5.443884e-08  t[s]:    298.16
BandDavidson: Iter:  45  Eband: -0.016416722775568  dEband: -4.518371e-08  t[s]:    302.10
BandDavidson: Iter:  46  Eband: -0.016416760282340  dEband: -3.750677e-08  t[s]:    305.94
BandDavidson: Iter:  47  Eband: -0.016416791554403  dEband: -3.127206e-08  t[s]:    309.78
BandDavidson: Iter:  48  Eband: -0.016416817681452  dEband: -2.612705e-08  t[s]:    313.58
BandDavidson: Iter:  49  Eband: -0.016416839571273  dEband: -2.188982e-08  t[s]:    317.35
BandDavidson: Iter:  50  Eband: -0.016416857792572  dEband: -1.822130e-08  t[s]:    321.05
BandDavidson: Iter:  51  Eband: -0.016416872933259  dEband: -1.514069e-08  t[s]:    324.66
BandDavidson: Iter:  52  Eband: -0.016416885545718  dEband: -1.261246e-08  t[s]:    328.28
BandDavidson: Iter:  53  Eband: -0.016416896107926  dEband: -1.056221e-08  t[s]:    331.89
BandDavidson: Iter:  54  Eband: -0.016416904970893  dEband: -8.862968e-09  t[s]:    335.45
BandDavidson: Converged (dEband<1.000000e-08)

---- Minimization of quantum number:     1  [ +0.0000000 +0.0277778 +0.0000000 ]  0.004629630  spin +1 ----
BandDavidson: Iter:   0  Eband: -0.041876524407525
BandDavidson: Iter:   1  Eband: -0.075734670948923  dEband: -3.385815e-02  t[s]:    345.45
BandDavidson: Iter:   2  Eband: -0.086088638441570  dEband: -1.035397e-02  t[s]:    351.63
BandDavidson: Iter:   3  Eband: -0.091422391089987  dEband: -5.333753e-03  t[s]:    357.83
BandDavidson: Iter:   4  Eband: -0.094976777545384  dEband: -3.554386e-03  t[s]:    364.04
BandDavidson: Iter:   5  Eband: -0.096440584558205  dEband: -1.463807e-03  t[s]:    370.20
BandDavidson: Iter:   6  Eband: -0.097093204675625  dEband: -6.526201e-04  t[s]:    376.38
BandDavidson: Iter:   7  Eband: -0.097435233863766  dEband: -3.420292e-04  t[s]:    382.55
BandDavidson: Iter:   8  Eband: -0.097657927727317  dEband: -2.226939e-04  t[s]:    388.70
BandDavidson: Iter:   9  Eband: -0.097812924032925  dEband: -1.549963e-04  t[s]:    394.80
BandDavidson: Iter:  10  Eband: -0.097925316257510  dEband: -1.123922e-04  t[s]:    400.94
BandDavidson: Iter:  11  Eband: -0.098011272006468  dEband: -8.595575e-05  t[s]:    407.08
BandDavidson: Iter:  12  Eband: -0.098079048091436  dEband: -6.777608e-05  t[s]:    413.20
BandDavidson: Iter:  13  Eband: -0.098134193554147  dEband: -5.514546e-05  t[s]:    419.36
BandDavidson: Iter:  14  Eband: -0.098180275582545  dEband: -4.608203e-05  t[s]:    425.51
BandDavidson: Iter:  15  Eband: -0.098219968204134  dEband: -3.969262e-05  t[s]:    431.67
BandDavidson: Iter:  16  Eband: -0.098255194269172  dEband: -3.522607e-05  t[s]:    437.84
BandDavidson: Iter:  17  Eband: -0.098287094350264  dEband: -3.190008e-05  t[s]:    444.01
BandDavidson: Iter:  18  Eband: -0.098316218345191  dEband: -2.912399e-05  t[s]:    450.15
BandDavidson: Iter:  19  Eband: -0.098342961787249  dEband: -2.674344e-05  t[s]:    456.34
BandDavidson: Iter:  20  Eband: -0.098367430517428  dEband: -2.446873e-05  t[s]:    462.54
BandDavidson: Iter:  21  Eband: -0.098389410944587  dEband: -2.198043e-05  t[s]:    468.68
BandDavidson: Iter:  22  Eband: -0.098408826940855  dEband: -1.941600e-05  t[s]:    474.76
BandDavidson: Iter:  23  Eband: -0.098425695000651  dEband: -1.686806e-05  t[s]:    480.86
BandDavidson: Iter:  24  Eband: -0.098440103760525  dEband: -1.440876e-05  t[s]:    486.96
BandDavidson: Iter:  25  Eband: -0.098452209933018  dEband: -1.210617e-05  t[s]:    493.05
BandDavidson: Iter:  26  Eband: -0.098462301463101  dEband: -1.009153e-05  t[s]:    499.13
BandDavidson: Iter:  27  Eband: -0.098470614397452  dEband: -8.312934e-06  t[s]:    505.10
BandDavidson: Iter:  28  Eband: -0.098477415919455  dEband: -6.801522e-06  t[s]:    510.95
BandDavidson: Iter:  29  Eband: -0.098482925288818  dEband: -5.509369e-06  t[s]:    516.44
BandDavidson: Iter:  30  Eband: -0.098487388873424  dEband: -4.463585e-06  t[s]:    521.77
BandDavidson: Iter:  31  Eband: -0.098491019558093  dEband: -3.630685e-06  t[s]:    526.79
BandDavidson: Iter:  32  Eband: -0.098493965422480  dEband: -2.945864e-06  t[s]:    531.32
BandDavidson: Iter:  33  Eband: -0.098496359068470  dEband: -2.393646e-06  t[s]:    535.75
BandDavidson: Iter:  34  Eband: -0.098498335365359  dEband: -1.976297e-06  t[s]:    540.19
BandDavidson: Iter:  35  Eband: -0.098499975506330  dEband: -1.640141e-06  t[s]:    544.64
BandDavidson: Iter:  36  Eband: -0.098501340074178  dEband: -1.364568e-06  t[s]:    549.09
BandDavidson: Iter:  37  Eband: -0.098502472655123  dEband: -1.132581e-06  t[s]:    553.55
BandDavidson: Iter:  38  Eband: -0.098503416477100  dEband: -9.438220e-07  t[s]:    557.99
BandDavidson: Iter:  39  Eband: -0.098504200765560  dEband: -7.842885e-07  t[s]:    562.38
BandDavidson: Iter:  40  Eband: -0.098504850745491  dEband: -6.499799e-07  t[s]:    566.61
BandDavidson: Iter:  41  Eband: -0.098505387917298  dEband: -5.371718e-07  t[s]:    570.65
BandDavidson: Iter:  42  Eband: -0.098505832727784  dEband: -4.448105e-07  t[s]:    574.67
BandDavidson: Iter:  43  Eband: -0.098506203519261  dEband: -3.707915e-07  t[s]:    578.69
BandDavidson: Iter:  44  Eband: -0.098506513743407  dEband: -3.102241e-07  t[s]:    582.66
BandDavidson: Iter:  45  Eband: -0.098506772679292  dEband: -2.589359e-07  t[s]:    586.68
BandDavidson: Iter:  46  Eband: -0.098506989120199  dEband: -2.164409e-07  t[s]:    590.64
BandDavidson: Iter:  47  Eband: -0.098507170959398  dEband: -1.818392e-07  t[s]:    594.57
BandDavidson: Iter:  48  Eband: -0.098507322715483  dEband: -1.517561e-07  t[s]:    598.53
BandDavidson: Iter:  49  Eband: -0.098507449678346  dEband: -1.269629e-07  t[s]:    602.49
BandDavidson: Iter:  50  Eband: -0.098507556261903  dEband: -1.065836e-07  t[s]:    606.42
BandDavidson: Iter:  51  Eband: -0.098507645615372  dEband: -8.935347e-08  t[s]:    610.34
BandDavidson: Iter:  52  Eband: -0.098507720414675  dEband: -7.479930e-08  t[s]:    614.23
BandDavidson: Iter:  53  Eband: -0.098507783032625  dEband: -6.261795e-08  t[s]:    618.05
BandDavidson: Iter:  54  Eband: -0.098507835478966  dEband: -5.244634e-08  t[s]:    621.74
BandDavidson: Iter:  55  Eband: -0.098507879543450  dEband: -4.406448e-08  t[s]:    625.36
BandDavidson: Iter:  56  Eband: -0.098507916405359  dEband: -3.686191e-08  t[s]:    628.94
BandDavidson: Iter:  57  Eband: -0.098507947478459  dEband: -3.107310e-08  t[s]:    632.44
BandDavidson: Iter:  58  Eband: -0.098507973434628  dEband: -2.595617e-08  t[s]:    635.86
BandDavidson: Iter:  59  Eband: -0.098507995304108  dEband: -2.186948e-08  t[s]:    639.12
BandDavidson: Iter:  60  Eband: -0.098508013721542  dEband: -1.841743e-08  t[s]:    642.40
BandDavidson: Iter:  61  Eband: -0.098508029263015  dEband: -1.554147e-08  t[s]:    645.65
BandDavidson: Iter:  62  Eband: -0.098508042466459  dEband: -1.320344e-08  t[s]:    648.90
BandDavidson: Iter:  63  Eband: -0.098508053646473  dEband: -1.118001e-08  t[s]:    652.11
BandDavidson: Iter:  64  Eband: -0.098508063146303  dEband: -9.499830e-09  t[s]:    655.30
BandDavidson: Converged (dEband<1.000000e-08)

---- Minimization of quantum number:     2  [ +0.0000000 +0.0555556 +0.0000000 ]  0.004629630  spin +1 ----
BandDavidson: Iter:   0  Eband: -0.041799554221705
BandDavidson: Iter:   1  Eband: -0.075599142896225  dEband: -3.379959e-02  t[s]:    665.34
BandDavidson: Iter:   2  Eband: -0.085922268782138  dEband: -1.032313e-02  t[s]:    671.52
BandDavidson: Iter:   3  Eband: -0.091339905551342  dEband: -5.417637e-03  t[s]:    677.69
BandDavidson: Iter:   4  Eband: -0.094732348067389  dEband: -3.392443e-03  t[s]:    683.89
BandDavidson: Iter:   5  Eband: -0.096288488949294  dEband: -1.556141e-03  t[s]:    690.10
BandDavidson: Iter:   6  Eband: -0.097013798750731  dEband: -7.253098e-04  t[s]:    696.29
BandDavidson: Iter:   7  Eband: -0.097375355968761  dEband: -3.615572e-04  t[s]:    702.53
BandDavidson: Iter:   8  Eband: -0.097601468081150  dEband: -2.261121e-04  t[s]:    708.68
BandDavidson: Iter:   9  Eband: -0.097762157546071  dEband: -1.606895e-04  t[s]:    714.88
BandDavidson: Iter:  10  Eband: -0.097881033007265  dEband: -1.188755e-04  t[s]:    721.04
BandDavidson: Iter:  11  Eband: -0.097972094480458  dEband: -9.106147e-05  t[s]:    727.20
BandDavidson: Iter:  12  Eband: -0.098044559388510  dEband: -7.246491e-05  t[s]:    733.37
BandDavidson: Iter:  13  Eband: -0.098103834270411  dEband: -5.927488e-05  t[s]:    739.55
BandDavidson: Iter:  14  Eband: -0.098154111598792  dEband: -5.027733e-05  t[s]:    745.73
BandDavidson: Iter:  15  Eband: -0.098198850653475  dEband: -4.473905e-05  t[s]:    751.90
BandDavidson: Iter:  16  Eband: -0.098240513127437  dEband: -4.166247e-05  t[s]:    758.05
BandDavidson: Iter:  17  Eband: -0.098279428917721  dEband: -3.891579e-05  t[s]:    764.18
BandDavidson: Iter:  18  Eband: -0.098315592922198  dEband: -3.616400e-05  t[s]:    770.33
BandDavidson: Iter:  19  Eband: -0.098349082890986  dEband: -3.348997e-05  t[s]:    776.47
BandDavidson: Iter:  20  Eband: -0.098379657448239  dEband: -3.057456e-05  t[s]:    782.62
BandDavidson: Iter:  21  Eband: -0.098407012927401  dEband: -2.735548e-05  t[s]:    788.74
BandDavidson: Iter:  22  Eband: -0.098431063643941  dEband: -2.405072e-05  t[s]:    794.89
BandDavidson: Iter:  23  Eband: -0.098451802903392  dEband: -2.073926e-05  t[s]:    800.99
BandDavidson: Iter:  24  Eband: -0.098469220707247  dEband: -1.741780e-05  t[s]:    807.03
BandDavidson: Iter:  25  Eband: -0.098483690597185  dEband: -1.446989e-05  t[s]:    813.07
BandDavidson: Iter:  26  Eband: -0.098495675267049  dEband: -1.198467e-05  t[s]:    819.14
BandDavidson: Iter:  27  Eband: -0.098505512023824  dEband: -9.836757e-06  t[s]:    825.08
BandDavidson: Iter:  28  Eband: -0.098513561564928  dEband: -8.049541e-06  t[s]:    831.00
BandDavidson: Iter:  29  Eband: -0.098520159563023  dEband: -6.597998e-06  t[s]:    836.67
BandDavidson: Iter:  30  Eband: -0.098525486787787  dEband: -5.327225e-06  t[s]:    841.93
BandDavidson: Iter:  31  Eband: -0.098529788716348  dEband: -4.301929e-06  t[s]:    846.95
BandDavidson: Iter:  32  Eband: -0.098533282341124  dEband: -3.493625e-06  t[s]:    851.46
BandDavidson: Iter:  33  Eband: -0.098536141650979  dEband: -2.859310e-06  t[s]:    855.84
BandDavidson: Iter:  34  Eband: -0.098538501218880  dEband: -2.359568e-06  t[s]:    860.28
BandDavidson: Iter:  35  Eband: -0.098540463012302  dEband: -1.961793e-06  t[s]:    864.76
BandDavidson: Iter:  36  Eband: -0.098542094081181  dEband: -1.631069e-06  t[s]:    869.20
BandDavidson: Iter:  37  Eband: -0.098543456818789  dEband: -1.362738e-06  t[s]:    873.65
BandDavidson: Iter:  38  Eband: -0.098544592328403  dEband: -1.135510e-06  t[s]:    878.04
BandDavidson: Iter:  39  Eband: -0.098545536791826  dEband: -9.444634e-07  t[s]:    882.43
BandDavidson: Iter:  40  Eband: -0.098546320223698  dEband: -7.834319e-07  t[s]:    886.66
BandDavidson: Iter:  41  Eband: -0.098546964857016  dEband: -6.446333e-07  t[s]:    890.81
BandDavidson: Iter:  42  Eband: -0.098547497589251  dEband: -5.327322e-07  t[s]:    894.88
BandDavidson: Iter:  43  Eband: -0.098547939627550  dEband: -4.420383e-07  t[s]:    898.84
BandDavidson: Iter:  44  Eband: -0.098548309842749  dEband: -3.702152e-07  t[s]:    902.81
BandDavidson: Iter:  45  Eband: -0.098548620276310  dEband: -3.104336e-07  t[s]:    906.81
BandDavidson: Iter:  46  Eband: -0.098548881758201  dEband: -2.614819e-07  t[s]:    910.78
BandDavidson: Iter:  47  Eband: -0.098549102341327  dEband: -2.205831e-07  t[s]:    914.75
BandDavidson: Iter:  48  Eband: -0.098549288985330  dEband: -1.866440e-07  t[s]:    918.72
BandDavidson: Iter:  49  Eband: -0.098549446923422  dEband: -1.579381e-07  t[s]:    922.66
BandDavidson: Iter:  50  Eband: -0.098549580867214  dEband: -1.339438e-07  t[s]:    926.58
BandDavidson: Iter:  51  Eband: -0.098549693589042  dEband: -1.127218e-07  t[s]:    930.48
BandDavidson: Iter:  52  Eband: -0.098549788971057  dEband: -9.538201e-08  t[s]:    934.37
BandDavidson: Iter:  53  Eband: -0.098549869593272  dEband: -8.062221e-08  t[s]:    938.22
BandDavidson: Iter:  54  Eband: -0.098549937820251  dEband: -6.822698e-08  t[s]:    942.09
BandDavidson: Iter:  55  Eband: -0.098549995705456  dEband: -5.788521e-08  t[s]:    945.94
BandDavidson: Iter:  56  Eband: -0.098550045124000  dEband: -4.941854e-08  t[s]:    949.76
BandDavidson: Iter:  57  Eband: -0.098550086897953  dEband: -4.177395e-08  t[s]:    953.39
BandDavidson: Iter:  58  Eband: -0.098550122104360  dEband: -3.520641e-08  t[s]:    956.75
BandDavidson: Iter:  59  Eband: -0.098550151841620  dEband: -2.973726e-08  t[s]:    960.09
BandDavidson: Iter:  60  Eband: -0.098550177169765  dEband: -2.532814e-08  t[s]:    963.36
BandDavidson: Iter:  61  Eband: -0.098550198869795  dEband: -2.170003e-08  t[s]:    966.57
BandDavidson: Iter:  62  Eband: -0.098550217532665  dEband: -1.866287e-08  t[s]:    969.77
BandDavidson: Iter:  63  Eband: -0.098550233584817  dEband: -1.605215e-08  t[s]:    972.96
BandDavidson: Iter:  64  Eband: -0.098550247424310  dEband: -1.383949e-08  t[s]:    976.18
BandDavidson: Iter:  65  Eband: -0.098550259330897  dEband: -1.190659e-08  t[s]:    979.35
BandDavidson: Iter:  66  Eband: -0.098550269578108  dEband: -1.024721e-08  t[s]:    982.53
BandDavidson: Iter:  67  Eband: -0.098550278363355  dEband: -8.785247e-09  t[s]:    985.66
BandDavidson: Converged (dEband<1.000000e-08)

---- Minimization of quantum number:     3  [ +0.0000000 +0.0833333 +0.0000000 ]  0.004629630  spin +1 ----
BandDavidson: Iter:   0  Eband: -0.041767025711368
BandDavidson: Iter:   1  Eband: -0.075485114828051  dEband: -3.371809e-02  t[s]:    995.71
BandDavidson: Iter:   2  Eband: -0.085872353630593  dEband: -1.038724e-02  t[s]:   1001.94
BandDavidson: Iter:   3  Eband: -0.091200810872723  dEband: -5.328457e-03  t[s]:   1008.13
BandDavidson: Iter:   4  Eband: -0.094708032133025  dEband: -3.507221e-03  t[s]:   1014.29
BandDavidson: Iter:   5  Eband: -0.096161957476606  dEband: -1.453925e-03  t[s]:   1020.46
BandDavidson: Iter:   6  Eband: -0.096866409964724  dEband: -7.044525e-04  t[s]:   1026.63
BandDavidson: Iter:   7  Eband: -0.097278011582453  dEband: -4.116016e-04  t[s]:   1032.81
BandDavidson: Iter:   8  Eband: -0.097542321939348  dEband: -2.643104e-04  t[s]:   1038.97
BandDavidson: Iter:   9  Eband: -0.097724972631137  dEband: -1.826507e-04  t[s]:   1045.16
BandDavidson: Iter:  10  Eband: -0.097851846238539  dEband: -1.268736e-04  t[s]:   1051.35
BandDavidson: Iter:  11  Eband: -0.097949802352823  dEband: -9.795611e-05  t[s]:   1057.53
BandDavidson: Iter:  12  Eband: -0.098033591037548  dEband: -8.378868e-05  t[s]:   1063.70
BandDavidson: Iter:  13  Eband: -0.098106209346741  dEband: -7.261831e-05  t[s]:   1069.87
BandDavidson: Iter:  14  Eband: -0.098168385197172  dEband: -6.217585e-05  t[s]:   1076.03
BandDavidson: Iter:  15  Eband: -0.098222071013801  dEband: -5.368582e-05  t[s]:   1082.22
BandDavidson: Iter:  16  Eband: -0.098271599796563  dEband: -4.952878e-05  t[s]:   1088.36
BandDavidson: Iter:  17  Eband: -0.098317508074252  dEband: -4.590828e-05  t[s]:   1094.53
BandDavidson: Iter:  18  Eband: -0.098360590711057  dEband: -4.308264e-05  t[s]:   1100.76
BandDavidson: Iter:  19  Eband: -0.098400168617684  dEband: -3.957791e-05  t[s]:   1106.91
BandDavidson: Iter:  20  Eband: -0.098435374748356  dEband: -3.520613e-05  t[s]:   1113.06
BandDavidson: Iter:  21  Eband: -0.098465893084709  dEband: -3.051834e-05  t[s]:   1119.20
BandDavidson: Iter:  22  Eband: -0.098491926582779  dEband: -2.603350e-05  t[s]:   1125.31
BandDavidson: Iter:  23  Eband: -0.098513858334308  dEband: -2.193175e-05  t[s]:   1131.44
BandDavidson: Iter:  24  Eband: -0.098532046325128  dEband: -1.818799e-05  t[s]:   1137.51
BandDavidson: Iter:  25  Eband: -0.098547002295931  dEband: -1.495597e-05  t[s]:   1143.50
BandDavidson: Iter:  26  Eband: -0.098559273834490  dEband: -1.227154e-05  t[s]:   1149.49
BandDavidson: Iter:  27  Eband: -0.098569302660722  dEband: -1.002883e-05  t[s]:   1155.52
BandDavidson: Iter:  28  Eband: -0.098577461569587  dEband: -8.158909e-06  t[s]:   1161.46
BandDavidson: Iter:  29  Eband: -0.098584067599925  dEband: -6.606030e-06  t[s]:   1167.06
BandDavidson: Iter:  30  Eband: -0.098589393678588  dEband: -5.326079e-06  t[s]:   1172.40
BandDavidson: Iter:  31  Eband: -0.098593718581380  dEband: -4.324903e-06  t[s]:   1177.33
BandDavidson: Iter:  32  Eband: -0.098597220341021  dEband: -3.501760e-06  t[s]:   1181.84
BandDavidson: Iter:  33  Eband: -0.098600084298608  dEband: -2.863958e-06  t[s]:   1186.22
BandDavidson: Iter:  34  Eband: -0.098602462466542  dEband: -2.378168e-06  t[s]:   1190.62
BandDavidson: Iter:  35  Eband: -0.098604452983180  dEband: -1.990517e-06  t[s]:   1195.04
BandDavidson: Iter:  36  Eband: -0.098606122320117  dEband: -1.669337e-06  t[s]:   1199.47
BandDavidson: Iter:  37  Eband: -0.098607526762441  dEband: -1.404442e-06  t[s]:   1203.89
BandDavidson: Iter:  38  Eband: -0.098608707815693  dEband: -1.181053e-06  t[s]:   1208.25
BandDavidson: Iter:  39  Eband: -0.098609696429452  dEband: -9.886138e-07  t[s]:   1212.53
BandDavidson: Iter:  40  Eband: -0.098610523444421  dEband: -8.270150e-07  t[s]:   1216.73
BandDavidson: Iter:  41  Eband: -0.098611217468802  dEband: -6.940244e-07  t[s]:   1220.93
BandDavidson: Iter:  42  Eband: -0.098611801486371  dEband: -5.840176e-07  t[s]:   1225.06
BandDavidson: Iter:  43  Eband: -0.098612291949423  dEband: -4.904631e-07  t[s]:   1229.07
BandDavidson: Iter:  44  Eband: -0.098612705078870  dEband: -4.131294e-07  t[s]:   1233.07
BandDavidson: Iter:  45  Eband: -0.098613054428334  dEband: -3.493495e-07  t[s]:   1237.05
BandDavidson: Iter:  46  Eband: -0.098613350607026  dEband: -2.961787e-07  t[s]:   1241.06
BandDavidson: Iter:  47  Eband: -0.098613601678029  dEband: -2.510710e-07  t[s]:   1245.03
BandDavidson: Iter:  48  Eband: -0.098613814700539  dEband: -2.130225e-07  t[s]:   1249.01
BandDavidson: Iter:  49  Eband: -0.098613995478933  dEband: -1.807784e-07  t[s]:   1252.97
BandDavidson: Iter:  50  Eband: -0.098614148635082  dEband: -1.531561e-07  t[s]:   1256.89
BandDavidson: Iter:  51  Eband: -0.098614278490719  dEband: -1.298556e-07  t[s]:   1260.79
BandDavidson: Iter:  52  Eband: -0.098614388804651  dEband: -1.103139e-07  t[s]:   1264.73
BandDavidson: Iter:  53  Eband: -0.098614482615978  dEband: -9.381133e-08  t[s]:   1268.58
BandDavidson: Iter:  54  Eband: -0.098614562533532  dEband: -7.991755e-08  t[s]:   1272.45
BandDavidson: Iter:  55  Eband: -0.098614630612449  dEband: -6.807892e-08  t[s]:   1276.31
BandDavidson: Iter:  56  Eband: -0.098614688584123  dEband: -5.797167e-08  t[s]:   1280.01
BandDavidson: Iter:  57  Eband: -0.098614737761011  dEband: -4.917689e-08  t[s]:   1283.58
BandDavidson: Iter:  58  Eband: -0.098614779663882  dEband: -4.190287e-08  t[s]:   1287.06
BandDavidson: Iter:  59  Eband: -0.098614815401334  dEband: -3.573745e-08  t[s]:   1290.48
BandDavidson: Iter:  60  Eband: -0.098614846010306  dEband: -3.060897e-08  t[s]:   1293.88
BandDavidson: Iter:  61  Eband: -0.098614872119436  dEband: -2.610913e-08  t[s]:   1297.12
BandDavidson: Iter:  62  Eband: -0.098614894492538  dEband: -2.237310e-08  t[s]:   1300.32
BandDavidson: Iter:  63  Eband: -0.098614913678419  dEband: -1.918588e-08  t[s]:   1303.54
BandDavidson: Iter:  64  Eband: -0.098614930223320  dEband: -1.654490e-08  t[s]:   1306.74
BandDavidson: Iter:  65  Eband: -0.098614944470741  dEband: -1.424742e-08  t[s]:   1309.90
BandDavidson: Iter:  66  Eband: -0.098614956777948  dEband: -1.230721e-08  t[s]:   1313.08
BandDavidson: Iter:  67  Eband: -0.098614967377058  dEband: -1.059911e-08  t[s]:   1316.19
BandDavidson: Iter:  68  Eband: -0.098614976499387  dEband: -9.122329e-09  t[s]:   1319.28
BandDavidson: Converged (dEband<1.000000e-08)

---- Minimization of quantum number:     4  [ +0.0000000 +0.1111111 +0.0000000 ]  0.004629630  spin +1 ----
BandDavidson: Iter:   0  Eband: -0.041758367386931
BandDavidson: Iter:   1  Eband: -0.075791457661788  dEband: -3.403309e-02  t[s]:   1329.28
BandDavidson: Iter:   2  Eband: -0.086115760968615  dEband: -1.032430e-02  t[s]:   1335.41
BandDavidson: Iter:   3  Eband: -0.091403780732069  dEband: -5.288020e-03  t[s]:   1341.53
BandDavidson: Iter:   4  Eband: -0.094485370074386  dEband: -3.081589e-03  t[s]:   1347.65
BandDavidson: Iter:   5  Eband: -0.096093916594862  dEband: -1.608547e-03  t[s]:   1353.79
BandDavidson: Iter:   6  Eband: -0.096855694753894  dEband: -7.617782e-04  t[s]:   1359.90
BandDavidson: Iter:   7  Eband: -0.097216301714738  dEband: -3.606070e-04  t[s]:   1366.02
BandDavidson: Iter:   8  Eband: -0.097434077169479  dEband: -2.177755e-04  t[s]:   1372.13
BandDavidson: Iter:   9  Eband: -0.097596041167578  dEband: -1.619640e-04  t[s]:   1378.24
BandDavidson: Iter:  10  Eband: -0.097736345219615  dEband: -1.403041e-04  t[s]:   1384.35
BandDavidson: Iter:  11  Eband: -0.097852574276173  dEband: -1.162291e-04  t[s]:   1390.47
BandDavidson: Iter:  12  Eband: -0.097956052585441  dEband: -1.034783e-04  t[s]:   1396.61
BandDavidson: Iter:  13  Eband: -0.098051268378410  dEband: -9.521579e-05  t[s]:   1402.73
BandDavidson: Iter:  14  Eband: -0.098140556965623  dEband: -8.928859e-05  t[s]:   1408.83
BandDavidson: Iter:  15  Eband: -0.098218308200372  dEband: -7.775123e-05  t[s]:   1414.95
BandDavidson: Iter:  16  Eband: -0.098284997549834  dEband: -6.668935e-05  t[s]:   1421.06
BandDavidson: Iter:  17  Eband: -0.098343839019947  dEband: -5.884147e-05  t[s]:   1427.18
BandDavidson: Iter:  18  Eband: -0.098397130204805  dEband: -5.329118e-05  t[s]:   1433.27
BandDavidson: Iter:  19  Eband: -0.098443969262870  dEband: -4.683906e-05  t[s]:   1439.38
BandDavidson: Iter:  20  Eband: -0.098483586085385  dEband: -3.961682e-05  t[s]:   1445.49
BandDavidson: Iter:  21  Eband: -0.098517196619646  dEband: -3.361053e-05  t[s]:   1451.60
BandDavidson: Iter:  22  Eband: -0.098545646495137  dEband: -2.844988e-05  t[s]:   1457.69
BandDavidson: Iter:  23  Eband: -0.098569684061697  dEband: -2.403757e-05  t[s]:   1463.75
BandDavidson: Iter:  24  Eband: -0.098590037411923  dEband: -2.035335e-05  t[s]:   1469.75
BandDavidson: Iter:  25  Eband: -0.098606968133684  dEband: -1.693072e-05  t[s]:   1475.78
BandDavidson: Iter:  26  Eband: -0.098620946077119  dEband: -1.397794e-05  t[s]:   1481.75
BandDavidson: Iter:  27  Eband: -0.098632540235944  dEband: -1.159416e-05  t[s]:   1487.71
BandDavidson: Iter:  28  Eband: -0.098642171225684  dEband: -9.630990e-06  t[s]:   1493.68
BandDavidson: Iter:  29  Eband: -0.098650130512454  dEband: -7.959287e-06  t[s]:   1499.40
BandDavidson: Iter:  30  Eband: -0.098656670348851  dEband: -6.539836e-06  t[s]:   1504.81
BandDavidson: Iter:  31  Eband: -0.098661995846063  dEband: -5.325497e-06  t[s]:   1509.74
BandDavidson: Iter:  32  Eband: -0.098666329785740  dEband: -4.333940e-06  t[s]:   1514.40
BandDavidson: Iter:  33  Eband: -0.098669867243393  dEband: -3.537458e-06  t[s]:   1518.74
BandDavidson: Iter:  34  Eband: -0.098672782134436  dEband: -2.914891e-06  t[s]:   1523.07
BandDavidson: Iter:  35  Eband: -0.098675212187355  dEband: -2.430053e-06  t[s]:   1527.39
BandDavidson: Iter:  36  Eband: -0.098677250727802  dEband: -2.038540e-06  t[s]:   1531.77
BandDavidson: Iter:  37  Eband: -0.098678967803771  dEband: -1.717076e-06  t[s]:   1536.09
BandDavidson: Iter:  38  Eband: -0.098680423173116  dEband: -1.455369e-06  t[s]:   1540.36
BandDavidson: Iter:  39  Eband: -0.098681692107512  dEband: -1.268934e-06  t[s]:   1544.50
BandDavidson: Iter:  40  Eband: -0.098682944835281  dEband: -1.252728e-06  t[s]:   1548.63
BandDavidson: Iter:  41  Eband: -0.098684179982327  dEband: -1.235147e-06  t[s]:   1552.74
BandDavidson: Iter:  42  Eband: -0.098685256029453  dEband: -1.076047e-06  t[s]:   1556.89
BandDavidson: Iter:  43  Eband: -0.098686168989662  dEband: -9.129602e-07  t[s]:   1560.89
BandDavidson: Iter:  44  Eband: -0.098686944167947  dEband: -7.751783e-07  t[s]:   1564.81
BandDavidson: Iter:  45  Eband: -0.098687607886628  dEband: -6.637187e-07  t[s]:   1568.70
BandDavidson: Iter:  46  Eband: -0.098688180661783  dEband: -5.727752e-07  t[s]:   1572.60
BandDavidson: Iter:  47  Eband: -0.098688676399593  dEband: -4.957378e-07  t[s]:   1576.48
BandDavidson: Iter:  48  Eband: -0.098689106968587  dEband: -4.305690e-07  t[s]:   1580.37
BandDavidson: Iter:  49  Eband: -0.098689481639132  dEband: -3.746705e-07  t[s]:   1584.22
BandDavidson: Iter:  50  Eband: -0.098689807149951  dEband: -3.255108e-07  t[s]:   1588.07
BandDavidson: Iter:  51  Eband: -0.098690090814201  dEband: -2.836642e-07  t[s]:   1591.92
BandDavidson: Iter:  52  Eband: -0.098690337366190  dEband: -2.465520e-07  t[s]:   1595.72
BandDavidson: Iter:  53  Eband: -0.098690552597444  dEband: -2.152313e-07  t[s]:   1599.46
BandDavidson: Iter:  54  Eband: -0.098690739611716  dEband: -1.870143e-07  t[s]:   1603.13
BandDavidson: Iter:  55  Eband: -0.098690902357978  dEband: -1.627463e-07  t[s]:   1606.71
BandDavidson: Iter:  56  Eband: -0.098691044071133  dEband: -1.417132e-07  t[s]:   1610.27
BandDavidson: Iter:  57  Eband: -0.098691167921085  dEband: -1.238500e-07  t[s]:   1613.76
BandDavidson: Iter:  58  Eband: -0.098691276055362  dEband: -1.081343e-07  t[s]:   1617.23
BandDavidson: Iter:  59  Eband: -0.098691371072640  dEband: -9.501728e-08  t[s]:   1620.61
BandDavidson: Iter:  60  Eband: -0.098691454230675  dEband: -8.315804e-08  t[s]:   1623.94
BandDavidson: Iter:  61  Eband: -0.098691527205258  dEband: -7.297458e-08  t[s]:   1627.15
BandDavidson: Iter:  62  Eband: -0.098691591116695  dEband: -6.391144e-08  t[s]:   1630.28
BandDavidson: Iter:  63  Eband: -0.098691647314231  dEband: -5.619754e-08  t[s]:   1633.41
BandDavidson: Iter:  64  Eband: -0.098691696464157  dEband: -4.914993e-08  t[s]:   1636.50
BandDavidson: Iter:  65  Eband: -0.098691739747569  dEband: -4.328341e-08  t[s]:   1639.60
BandDavidson: Iter:  66  Eband: -0.098691777669468  dEband: -3.792190e-08  t[s]:   1642.65
BandDavidson: Iter:  67  Eband: -0.098691811045556  dEband: -3.337609e-08  t[s]:   1645.68
BandDavidson: Iter:  68  Eband: -0.098691840413664  dEband: -2.936811e-08  t[s]:   1648.70
BandDavidson: Iter:  69  Eband: -0.098691866275486  dEband: -2.586182e-08  t[s]:   1651.70
BandDavidson: Iter:  70  Eband: -0.098691889070850  dEband: -2.279536e-08  t[s]:   1654.70
BandDavidson: Iter:  71  Eband: -0.098691909233736  dEband: -2.016289e-08  t[s]:   1657.64
BandDavidson: Iter:  72  Eband: -0.098691927035550  dEband: -1.780181e-08  t[s]:   1660.58
BandDavidson: Iter:  73  Eband: -0.098691942772356  dEband: -1.573681e-08  t[s]:   1663.53
BandDavidson: Iter:  74  Eband: -0.098691956711865  dEband: -1.393951e-08  t[s]:   1666.43
BandDavidson: Iter:  75  Eband: -0.098691969028939  dEband: -1.231707e-08  t[s]:   1669.34
BandDavidson: Iter:  76  Eband: -0.098691979945868  dEband: -1.091693e-08  t[s]:   1672.24
BandDavidson: Iter:  77  Eband: -0.098691989565102  dEband: -9.619234e-09  t[s]:   1675.12
BandDavidson: Converged (dEband<1.000000e-08)

---- Minimization of quantum number:     5  [ +0.0000000 +0.1388889 +0.0000000 ]  0.004629630  spin +1 ----
BandDavidson: Iter:   0  Eband: -0.041716996215214
BandDavidson: Iter:   1  Eband: -0.075798886326014  dEband: -3.408189e-02  t[s]:   1685.05
BandDavidson: Iter:   2  Eband: -0.086249487569243  dEband: -1.045060e-02  t[s]:   1691.15
BandDavidson: Iter:   3  Eband: -0.091401841662893  dEband: -5.152354e-03  t[s]:   1697.25
BandDavidson: Iter:   4  Eband: -0.094533036583352  dEband: -3.131195e-03  t[s]:   1703.34
BandDavidson: Iter:   5  Eband: -0.095938884534527  dEband: -1.405848e-03  t[s]:   1709.43
BandDavidson: Iter:   6  Eband: -0.096713278333035  dEband: -7.743938e-04  t[s]:   1715.57
BandDavidson: Iter:   7  Eband: -0.097160421015079  dEband: -4.471427e-04  t[s]:   1721.67
BandDavidson: Iter:   8  Eband: -0.097439060824195  dEband: -2.786398e-04  t[s]:   1727.76
BandDavidson: Iter:   9  Eband: -0.097649655433403  dEband: -2.105946e-04  t[s]:   1733.84
BandDavidson: Iter:  10  Eband: -0.097810682886713  dEband: -1.610275e-04  t[s]:   1739.93
BandDavidson: Iter:  11  Eband: -0.097945681741487  dEband: -1.349989e-04  t[s]:   1746.04
BandDavidson: Iter:  12  Eband: -0.098069592923807  dEband: -1.239112e-04  t[s]:   1752.13
BandDavidson: Iter:  13  Eband: -0.098172816487814  dEband: -1.032236e-04  t[s]:   1758.21
BandDavidson: Iter:  14  Eband: -0.098256416590240  dEband: -8.360010e-05  t[s]:   1764.31
BandDavidson: Iter:  15  Eband: -0.098324042156909  dEband: -6.762557e-05  t[s]:   1770.38
BandDavidson: Iter:  16  Eband: -0.098381125191528  dEband: -5.708303e-05  t[s]:   1776.46
BandDavidson: Iter:  17  Eband: -0.098432043324180  dEband: -5.091813e-05  t[s]:   1782.58
BandDavidson: Iter:  18  Eband: -0.098477594853879  dEband: -4.555153e-05  t[s]:   1788.64
BandDavidson: Iter:  19  Eband: -0.098516469726375  dEband: -3.887487e-05  t[s]:   1794.71
BandDavidson: Iter:  20  Eband: -0.098549629420196  dEband: -3.315969e-05  t[s]:   1800.81
BandDavidson: Iter:  21  Eband: -0.098577807270569  dEband: -2.817785e-05  t[s]:   1806.87
BandDavidson: Iter:  22  Eband: -0.098602317841186  dEband: -2.451057e-05  t[s]:   1812.94
BandDavidson: Iter:  23  Eband: -0.098624143166010  dEband: -2.182532e-05  t[s]:   1818.98
BandDavidson: Iter:  24  Eband: -0.098643873942889  dEband: -1.973078e-05  t[s]:   1825.04
BandDavidson: Iter:  25  Eband: -0.098661905584315  dEband: -1.803164e-05  t[s]:   1831.02
BandDavidson: Iter:  26  Eband: -0.098677972875620  dEband: -1.606729e-05  t[s]:   1836.95
BandDavidson: Iter:  27  Eband: -0.098691935655832  dEband: -1.396278e-05  t[s]:   1842.82
BandDavidson: Iter:  28  Eband: -0.098703697160222  dEband: -1.176150e-05  t[s]:   1848.52
BandDavidson: Iter:  29  Eband: -0.098713570482339  dEband: -9.873322e-06  t[s]:   1854.14
BandDavidson: Iter:  30  Eband: -0.098722272462047  dEband: -8.701980e-06  t[s]:   1859.42
BandDavidson: Iter:  31  Eband: -0.098730794784463  dEband: -8.522322e-06  t[s]:   1864.38
BandDavidson: Iter:  32  Eband: -0.098738975948497  dEband: -8.181164e-06  t[s]:   1868.96
BandDavidson: Iter:  33  Eband: -0.098746295618350  dEband: -7.319670e-06  t[s]:   1873.28
BandDavidson: Iter:  34  Eband: -0.098752699520203  dEband: -6.403902e-06  t[s]:   1877.64
BandDavidson: Iter:  35  Eband: -0.098758293645264  dEband: -5.594125e-06  t[s]:   1881.94
BandDavidson: Iter:  36  Eband: -0.098763118583558  dEband: -4.824938e-06  t[s]:   1886.17
BandDavidson: Iter:  37  Eband: -0.098767321654919  dEband: -4.203071e-06  t[s]:   1890.49
BandDavidson: Iter:  38  Eband: -0.098770930572219  dEband: -3.608917e-06  t[s]:   1894.70
BandDavidson: Iter:  39  Eband: -0.098774044578463  dEband: -3.114006e-06  t[s]:   1898.86
BandDavidson: Iter:  40  Eband: -0.098776740843545  dEband: -2.696265e-06  t[s]:   1902.99
BandDavidson: Iter:  41  Eband: -0.098779073620353  dEband: -2.332777e-06  t[s]:   1907.13
BandDavidson: Iter:  42  Eband: -0.098781085194843  dEband: -2.011574e-06  t[s]:   1911.21
BandDavidson: Iter:  43  Eband: -0.098782830261393  dEband: -1.745067e-06  t[s]:   1915.24
BandDavidson: Iter:  44  Eband: -0.098784337935568  dEband: -1.507674e-06  t[s]:   1919.16
BandDavidson: Iter:  45  Eband: -0.098785647699932  dEband: -1.309764e-06  t[s]:   1923.08
BandDavidson: Iter:  46  Eband: -0.098786776781870  dEband: -1.129082e-06  t[s]:   1926.97
BandDavidson: Iter:  47  Eband: -0.098787766097611  dEband: -9.893157e-07  t[s]:   1930.88
BandDavidson: Iter:  48  Eband: -0.098788633134128  dEband: -8.670365e-07  t[s]:   1934.76
BandDavidson: Iter:  49  Eband: -0.098789397685050  dEband: -7.645509e-07  t[s]:   1938.66
BandDavidson: Iter:  50  Eband: -0.098790065278756  dEband: -6.675937e-07  t[s]:   1942.56
BandDavidson: Iter:  51  Eband: -0.098790651013153  dEband: -5.857344e-07  t[s]:   1946.39
BandDavidson: Iter:  52  Eband: -0.098791164339491  dEband: -5.133263e-07  t[s]:   1950.17
BandDavidson: Iter:  53  Eband: -0.098791617893335  dEband: -4.535538e-07  t[s]:   1953.90
BandDavidson: Iter:  54  Eband: -0.098792015227791  dEband: -3.973345e-07  t[s]:   1957.50
BandDavidson: Iter:  55  Eband: -0.098792366611183  dEband: -3.513834e-07  t[s]:   1961.05
BandDavidson: Iter:  56  Eband: -0.098792673106467  dEband: -3.064953e-07  t[s]:   1964.55
BandDavidson: Iter:  57  Eband: -0.098792943858956  dEband: -2.707525e-07  t[s]:   1968.02
BandDavidson: Iter:  58  Eband: -0.098793181161996  dEband: -2.373030e-07  t[s]:   1971.50
BandDavidson: Iter:  59  Eband: -0.098793390384457  dEband: -2.092225e-07  t[s]:   1974.92
BandDavidson: Iter:  60  Eband: -0.098793574284505  dEband: -1.839000e-07  t[s]:   1978.31
BandDavidson: Iter:  61  Eband: -0.098793735007986  dEband: -1.607235e-07  t[s]:   1981.52
BandDavidson: Iter:  62  Eband: -0.098793875764482  dEband: -1.407565e-07  t[s]:   1984.71
BandDavidson: Iter:  63  Eband: -0.098793998890655  dEband: -1.231262e-07  t[s]:   1987.84
BandDavidson: Iter:  64  Eband: -0.098794107218560  dEband: -1.083279e-07  t[s]:   1990.98
BandDavidson: Iter:  65  Eband: -0.098794202393842  dEband: -9.517528e-08  t[s]:   1994.13
BandDavidson: Iter:  66  Eband: -0.098794285713369  dEband: -8.331953e-08  t[s]:   1997.20
BandDavidson: Iter:  67  Eband: -0.098794358514210  dEband: -7.280084e-08  t[s]:   2000.22
BandDavidson: Iter:  68  Eband: -0.098794422657364  dEband: -6.414315e-08  t[s]:   2003.22
BandDavidson: Iter:  69  Eband: -0.098794479235005  dEband: -5.657764e-08  t[s]:   2006.20
BandDavidson: Iter:  70  Eband: -0.098794529191623  dEband: -4.995662e-08  t[s]:   2009.17
BandDavidson: Iter:  71  Eband: -0.098794573383132  dEband: -4.419151e-08  t[s]:   2012.15
BandDavidson: Iter:  72  Eband: -0.098794612395324  dEband: -3.901219e-08  t[s]:   2015.02
BandDavidson: Iter:  73  Eband: -0.098794646850546  dEband: -3.445522e-08  t[s]:   2017.87
BandDavidson: Iter:  74  Eband: -0.098794677290155  dEband: -3.043961e-08  t[s]:   2020.73
BandDavidson: Iter:  75  Eband: -0.098794704105466  dEband: -2.681531e-08  t[s]:   2023.58
BandDavidson: Iter:  76  Eband: -0.098794728033148  dEband: -2.392768e-08  t[s]:   2026.44
BandDavidson: Iter:  77  Eband: -0.098794749145269  dEband: -2.111212e-08  t[s]:   2029.26
BandDavidson: Iter:  78  Eband: -0.098794767867187  dEband: -1.872192e-08  t[s]:   2032.07
BandDavidson: Iter:  79  Eband: -0.098794784418660  dEband: -1.655147e-08  t[s]:   2034.89
BandDavidson: Iter:  80  Eband: -0.098794799052077  dEband: -1.463342e-08  t[s]:   2037.71
BandDavidson: Iter:  81  Eband: -0.098794811960170  dEband: -1.290809e-08  t[s]:   2040.49
BandDavidson: Iter:  82  Eband: -0.098794823403342  dEband: -1.144317e-08  t[s]:   2043.28
BandDavidson: Iter:  83  Eband: -0.098794833467151  dEband: -1.006381e-08  t[s]:   2046.02
BandDavidson: Iter:  84  Eband: -0.098794842360405  dEband: -8.893254e-09  t[s]:   2048.77
BandDavidson: Converged (dEband<1.000000e-08)
Setting wave functions to eigenvectors of Hamiltonian
	FillingsUpdate:  mu: -0.049166943  nElectrons: 121.000000  magneticMoment: [ Abs: 0.15329  Tot: +0.15278 ]

Dumping 'Cs-0.334.dosUp' ... done.
Dumping 'Cs-0.334.dosDn' ... done.
End date and time: Sat Apr  2 16:46:38 2022  (Duration: 0-0:48:50.21)
Done!
