The alkali metal is Cs
scale=2
magnetization=0.2
--------------------------------------------------------------------------
The library attempted to open the following supporting CUDA libraries,
but each of them failed.  CUDA-aware support is disabled.
libcuda.so.1: cannot open shared object file: No such file or directory
libcuda.dylib: cannot open shared object file: No such file or directory
/usr/lib64/libcuda.so.1: cannot open shared object file: No such file or directory
/usr/lib64/libcuda.dylib: cannot open shared object file: No such file or directory
If you are not interested in CUDA-aware support, then run with
--mca opal_warn_on_missing_libcuda 0 to suppress this message.  If you are interested
in CUDA-aware support, then try setting LD_LIBRARY_PATH to the location
of libcuda.so.1 to get passed this issue.
--------------------------------------------------------------------------
--------------------------------------------------------------------------
No OpenFabrics connection schemes reported that they were able to be
used on a specific port.  As such, the openib BTL (OpenFabrics
support) will be disabled for this port.

  Local host:           d-6-2-2
  Local device:         mlx5_1
  Local port:           1
  CPCs attempted:       rdmacm, udcm
--------------------------------------------------------------------------

*************** JDFTx 1.6.0 (git hash 42ebbcc2) ***************

Start date and time: Sun Feb  6 13:22:58 2022
Executable jdftx with command-line: -i Alkali.in
Running on hosts (process indices):  d-6-2-2 (0-18)
Divided in process groups (process indices):  0 (0)  1 (1)  2 (2)  3 (3)  4 (4)  5 (5)  6 (6)  7 (7)  8 (8)  9 (9)  10 (10)  11 (11)  12 (12)  13 (13)  14 (14)  15 (15)  16 (16)  17 (17)  18 (18)
Resource initialization completed at t[s]:      0.00
Run totals: 19 processes, 48 threads, 0 GPUs


Input parsed successfully to the following command list (including defaults):

basis kpoint-dependent
coords-type Lattice
core-overlap-check vector
coulomb-interaction Slab 001
davidson-band-ratio 1.1
dump End None
dump-name $INPUT.$VAR
elec-cutoff 20
elec-eigen-algo Davidson
elec-ex-corr gga-PBE
elec-initial-magnetization 0.200000 yes
elec-smearing Fermi 1e-05
electronic-minimize  \
	dirUpdateScheme      FletcherReeves \
	linminMethod         DirUpdateRecommended \
	nIterations          100 \
	history              15 \
	knormThreshold       0 \
	energyDiffThreshold  1e-08 \
	nEnergyDiff          2 \
	alphaTstart          1 \
	alphaTmin            1e-10 \
	updateTestStepSize   yes \
	alphaTreduceFactor   0.1 \
	alphaTincreaseFactor 3 \
	nAlphaAdjustMax      3 \
	wolfeEnergy          0.0001 \
	wolfeGradient        0.9 \
	fdTest               no
electronic-scf  \
	nIterations	10000 \
	energyDiffThreshold	1e-08 \
	residualThreshold	1e-07 \
	mixFraction	0.5 \
	qMetric	0.8 \
	history	10 \
	nEigSteps	2 \
	eigDiffThreshold	1e-08 \
	mixedVariable	Density \
	qKerker	0.8 \
	qKappa	-1 \
	verbose	no \
	mixFractionMag	1.5
exchange-regularization WignerSeitzTruncated
fluid None
fluid-ex-corr (null) lda-PZ
fluid-gummel-loop 10 1.000000e-05
fluid-minimize  \
	dirUpdateScheme      PolakRibiere \
	linminMethod         DirUpdateRecommended \
	nIterations          100 \
	history              15 \
	knormThreshold       0 \
	energyDiffThreshold  0 \
	nEnergyDiff          2 \
	alphaTstart          1 \
	alphaTmin            1e-10 \
	updateTestStepSize   yes \
	alphaTreduceFactor   0.1 \
	alphaTincreaseFactor 3 \
	nAlphaAdjustMax      3 \
	wolfeEnergy          0.0001 \
	wolfeGradient        0.9 \
	fdTest               no
fluid-solvent H2O 55.338 ScalarEOS \
	epsBulk 78.4 \
	pMol 0.92466 \
	epsInf 1.77 \
	Pvap 1.06736e-10 \
	sigmaBulk 4.62e-05 \
	Rvdw 2.61727 \
	Res 1.42 \
	tauNuc 343133 \
	poleEl 15 7 1
forces-output-coords Positions
ion Cs   0.000000000000000   0.000000000000000   0.000000000000000 0
ion-species SG15/$ID_ONCV_PBE.upf
ion-width 0
ionic-minimize  \
	dirUpdateScheme      L-BFGS \
	linminMethod         DirUpdateRecommended \
	nIterations          0 \
	history              15 \
	knormThreshold       0.0001 \
	energyDiffThreshold  1e-06 \
	nEnergyDiff          2 \
	alphaTstart          1 \
	alphaTmin            1e-10 \
	updateTestStepSize   yes \
	alphaTreduceFactor   0.1 \
	alphaTincreaseFactor 3 \
	nAlphaAdjustMax      3 \
	wolfeEnergy          0.0001 \
	wolfeGradient        0.9 \
	fdTest               no
kpoint   0.000000000000   0.000000000000   0.000000000000  1.00000000000000
kpoint-folding 12 12 1 
latt-move-scale 1 1 1
latt-scale 2 2 1 
lattice  \
	   4.727486978767153   -2.363743489383575    0.000000000000000  \
	  -0.000000000000000    4.094123819672498    0.000000000000000  \
	   0.000000000000000    0.000000000000000   40.000000000000000 
lattice-minimize  \
	dirUpdateScheme      L-BFGS \
	linminMethod         DirUpdateRecommended \
	nIterations          0 \
	history              15 \
	knormThreshold       0 \
	energyDiffThreshold  1e-06 \
	nEnergyDiff          2 \
	alphaTstart          1 \
	alphaTmin            1e-10 \
	updateTestStepSize   yes \
	alphaTreduceFactor   0.1 \
	alphaTincreaseFactor 3 \
	nAlphaAdjustMax      3 \
	wolfeEnergy          0.0001 \
	wolfeGradient        0.9 \
	fdTest               no
lcao-params -1 1e-06 1e-05
pcm-variant GLSSA13
spintype z-spin
subspace-rotation-factor 1 yes
symmetries automatic
symmetry-threshold 0.0001



---------- Setting up symmetries ----------

Found 24 point-group symmetries of the bravais lattice
Found 24 space-group symmetries with basis
Applied RMS atom displacement 0 bohrs to make symmetries exact.

---------- Initializing the Grid ----------
R = 
[      9.45497     -4.72749            0  ]
[            0      8.18825            0  ]
[            0            0           40  ]
unit cell volume = 3096.79
G =
[   0.664538   0.383671         -0  ]
[          0   0.767342         -0  ]
[         -0         -0    0.15708  ]
Minimum fftbox size, Smin = [  40  40  164  ]
Chosen fftbox size, S = [  40  40  168  ]

---------- Exchange Correlation functional ----------
Initalized PBE GGA exchange.
Initalized PBE GGA correlation.

---------- Setting up pseudopotentials ----------
Width of ionic core gaussian charges (only for fluid interactions / plotting) set to 0

Reading pseudopotential file '/home/gridsan/aligho/DFT/build-Nov24/pseudopotentials/SG15/Cs_ONCV_PBE.upf':
  'Cs' pseudopotential, 'PBE' functional
  Generated using ONCVPSP code by D. R. Hamann
  Author: Martin Schlipf and Francois Gygi  Date: 150915.
  9 valence electrons, 3 orbitals, 6 projectors, 2414 radial grid points, with lMax = 2
  Transforming local potential to a uniform radial grid of dG=0.02 with 1489 points.
  Transforming nonlocal projectors to a uniform radial grid of dG=0.02 with 432 points.
    5S    l: 0   occupation:  2.0   eigenvalue: -0.982388
    5P    l: 1   occupation:  6.0   eigenvalue: -0.496786
    6S    l: 0   occupation:  1.0   eigenvalue: -0.076670
  Transforming atomic orbitals to a uniform radial grid of dG=0.02 with 432 points.
  Core radius for overlap checks: 2.06 bohrs.
  Reading pulay file /home/gridsan/aligho/DFT/build-Nov24/pseudopotentials/SG15/Cs_ONCV_PBE.pulay ... using dE_dnG = -1.008762e-04 computed for Ecut = 20.

Initialized 1 species with 1 total atoms.

Folded 1 k-points by 12x12x1 to 144 k-points.

---------- Setting up k-points, bands, fillings ----------
Reduced to 19 k-points under symmetry. 
Computing the number of bands and number of electrons
Calculating initial fillings.
nElectrons:   9.000000   nBands: 6   nStates: 38

----- Setting up reduced wavefunction bases (one per k-point) -----
average nbasis = 13230.521 , ideal nbasis = 13229.709

---------- Setting up coulomb interaction ----------
Initialized slab truncation along lattice direction 001

---------- Setting up 2D ewald sum ----------
Optimum gaussian width for ewald sums = 5.249020 bohr.
Real space sums over 289 unit cells with max indices [  8  8  0  ]
Reciprocal space sums over 81 terms with max indices [  4  4  0  ]

---------- Allocating electronic variables ----------
Initializing wave functions:  linear combination of atomic orbitals
Note: number of bands (6) exceeds available atomic orbitals (5)
Cs pseudo-atom occupations:   s ( 2 1 )  p ( 6 )
	FillingsUpdate:  mu: -0.090798619  nElectrons: 9.000000  magneticMoment: [ Abs: 0.20000  Tot: +0.20000 ]
LCAOMinimize: Iter:   0  F: -20.1820493159215175  |grad|_K:  4.161e-05  alpha:  1.000e+00
	FillingsUpdate:  mu: -0.090780410  nElectrons: 9.000000  magneticMoment: [ Abs: 0.20000  Tot: +0.20000 ]
LCAOMinimize: Iter:   1  F: -20.1820504736937352  |grad|_K:  4.406e-07  alpha:  9.776e-01  linmin: -4.370e-02  cgtest:  3.574e-01  t[s]:      4.63
LCAOMinimize: Encountered beta<0, resetting CG.
[d-6-2-2:44041] 18 more processes have sent help message help-mpi-common-cuda.txt / dlopen failed
[d-6-2-2:44041] Set MCA parameter "orte_base_help_aggregate" to 0 to see all help / error messages
[d-6-2-2:44041] 18 more processes have sent help message help-mpi-btl-openib-cpc-base.txt / no cpcs for port
	FillingsUpdate:  mu: -0.090780546  nElectrons: 9.000000  magneticMoment: [ Abs: 0.20000  Tot: +0.20000 ]
LCAOMinimize: Iter:   2  F: -20.1820504738262549  |grad|_K:  1.800e-09  alpha:  9.979e-01  linmin: -1.228e-01  cgtest:  7.754e-01  t[s]:      5.81
LCAOMinimize: Encountered beta<0, resetting CG.
LCAOMinimize: 	Wrong curvature in test step, increasing alphaT to 2.993659e+00.
	FillingsUpdate:  mu: -0.090780546  nElectrons: 9.000000  magneticMoment: [ Abs: 0.20000  Tot: +0.20000 ]
LCAOMinimize: Iter:   3  F: -20.1820504738262692  |grad|_K:  2.124e-11  alpha: -2.072e-01  linmin:  1.264e-02  cgtest: -2.679e-01  t[s]:      6.98
LCAOMinimize: Converged (|Delta F|<1.000000e-06 for 2 iters).


---- Citations for features of the code used in this run ----

   Software package:
      R. Sundararaman, K. Letchworth-Weaver, K.A. Schwarz, D. Gunceler, Y. Ozhabes and T.A. Arias, 'JDFTx: software for joint density-functional theory', SoftwareX 6, 278 (2017)

   gga-PBE exchange-correlation functional:
      J.P. Perdew, K. Burke and M. Ernzerhof, Phys. Rev. Lett. 77, 3865 (1996)

   Pseudopotentials:
      M Schlipf and F Gygi, Comput. Phys. Commun. 196, 36 (2015)

   Truncated Coulomb potentials:
      R. Sundararaman and T.A. Arias, Phys. Rev. B 87, 165122 (2013)

This list may not be complete. Please suggest additional citations or
report any other bugs at https://github.com/shankar1729/jdftx/issues

Initialization completed successfully at t[s]:      7.08


-------- Electronic minimization -----------
Will mix electronic density at each iteration.
	FillingsUpdate:  mu: -0.090780546  nElectrons: 9.000000  magneticMoment: [ Abs: 0.20000  Tot: +0.20000 ]
	FillingsUpdate:  mu: -0.103011065  nElectrons: 9.000000  magneticMoment: [ Abs: 0.20000  Tot: +0.20000 ]
SCF: Cycle:  0   F: -20.186857803021148   dF: -4.807e-03   |Residual|: 1.174e-02   |deigs|: 1.881e-01  t[s]:      9.49
	FillingsUpdate:  mu: -0.103612745  nElectrons: 9.000000  magneticMoment: [ Abs: 0.20000  Tot: +0.20000 ]
SCF: Cycle:  1   F: -20.187252614693925   dF: -3.948e-04   |Residual|: 9.808e-03   |deigs|: 4.555e-03  t[s]:     11.34
	FillingsUpdate:  mu: -0.099926763  nElectrons: 9.000000  magneticMoment: [ Abs: 0.20976  Tot: +0.20000 ]
SCF: Cycle:  2   F: -20.187576691522029   dF: -3.241e-04   |Residual|: 4.328e-03   |deigs|: 3.403e-03  t[s]:     13.24
	FillingsUpdate:  mu: -0.099572890  nElectrons: 9.000000  magneticMoment: [ Abs: 0.20000  Tot: +0.20000 ]
SCF: Cycle:  3   F: -20.187699228855685   dF: -1.225e-04   |Residual|: 3.302e-03   |deigs|: 1.924e-03  t[s]:     15.14
	FillingsUpdate:  mu: -0.096919170  nElectrons: 9.000000  magneticMoment: [ Abs: 0.20118  Tot: +0.20000 ]
SCF: Cycle:  4   F: -20.187772559024118   dF: -7.333e-05   |Residual|: 2.378e-03   |deigs|: 3.402e-03  t[s]:     17.10
	FillingsUpdate:  mu: -0.094297024  nElectrons: 9.000000  magneticMoment: [ Abs: 0.20368  Tot: +0.20000 ]
SCF: Cycle:  5   F: -20.187813808980273   dF: -4.125e-05   |Residual|: 2.104e-03   |deigs|: 3.122e-03  t[s]:     19.03
	FillingsUpdate:  mu: -0.092073141  nElectrons: 9.000000  magneticMoment: [ Abs: 0.20688  Tot: +0.20000 ]
SCF: Cycle:  6   F: -20.187824413590167   dF: -1.060e-05   |Residual|: 1.466e-03   |deigs|: 2.668e-03  t[s]:     20.99
	FillingsUpdate:  mu: -0.090677215  nElectrons: 9.000000  magneticMoment: [ Abs: 0.20492  Tot: +0.20000 ]
SCF: Cycle:  7   F: -20.187847302499566   dF: -2.289e-05   |Residual|: 1.234e-03   |deigs|: 1.481e-03  t[s]:     22.94
	FillingsUpdate:  mu: -0.089117369  nElectrons: 9.000000  magneticMoment: [ Abs: 0.20152  Tot: +0.20000 ]
SCF: Cycle:  8   F: -20.187868621767365   dF: -2.132e-05   |Residual|: 9.582e-04   |deigs|: 1.525e-03  t[s]:     24.93
	FillingsUpdate:  mu: -0.087503348  nElectrons: 9.000000  magneticMoment: [ Abs: 0.20298  Tot: +0.20000 ]
SCF: Cycle:  9   F: -20.187853782532549   dF: +1.484e-05   |Residual|: 8.909e-04   |deigs|: 1.709e-03  t[s]:     26.99
	FillingsUpdate:  mu: -0.085489531  nElectrons: 9.000000  magneticMoment: [ Abs: 0.20401  Tot: +0.20000 ]
SCF: Cycle: 10   F: -20.187856121559605   dF: -2.339e-06   |Residual|: 8.386e-04   |deigs|: 2.245e-03  t[s]:     29.09
	FillingsUpdate:  mu: -0.083918184  nElectrons: 9.000000  magneticMoment: [ Abs: 0.20253  Tot: +0.20000 ]
SCF: Cycle: 11   F: -20.187884124344066   dF: -2.800e-05   |Residual|: 7.140e-04   |deigs|: 1.937e-03  t[s]:     31.29
	FillingsUpdate:  mu: -0.082721428  nElectrons: 9.000000  magneticMoment: [ Abs: 0.20268  Tot: +0.20000 ]
SCF: Cycle: 12   F: -20.187901591606668   dF: -1.747e-05   |Residual|: 6.590e-04   |deigs|: 1.131e-03  t[s]:     33.38
	FillingsUpdate:  mu: -0.080727984  nElectrons: 9.000000  magneticMoment: [ Abs: 0.20185  Tot: +0.20000 ]
SCF: Cycle: 13   F: -20.187911935324500   dF: -1.034e-05   |Residual|: 5.940e-04   |deigs|: 2.071e-03  t[s]:     35.42
	FillingsUpdate:  mu: -0.079310198  nElectrons: 9.000000  magneticMoment: [ Abs: 0.20096  Tot: +0.20000 ]
SCF: Cycle: 14   F: -20.187920152952692   dF: -8.218e-06   |Residual|: 4.422e-04   |deigs|: 1.571e-03  t[s]:     37.44
	FillingsUpdate:  mu: -0.078848551  nElectrons: 9.000000  magneticMoment: [ Abs: 0.20101  Tot: +0.20000 ]
SCF: Cycle: 15   F: -20.187923861268658   dF: -3.708e-06   |Residual|: 3.441e-04   |deigs|: 1.008e-03  t[s]:     39.52
	FillingsUpdate:  mu: -0.078526670  nElectrons: 9.000000  magneticMoment: [ Abs: 0.20034  Tot: +0.20000 ]
SCF: Cycle: 16   F: -20.187927220669152   dF: -3.359e-06   |Residual|: 2.333e-04   |deigs|: 4.368e-04  t[s]:     41.58
	FillingsUpdate:  mu: -0.078486488  nElectrons: 9.000000  magneticMoment: [ Abs: 0.20009  Tot: +0.20000 ]
SCF: Cycle: 17   F: -20.187928073770863   dF: -8.531e-07   |Residual|: 1.202e-04   |deigs|: 1.185e-04  t[s]:     43.72
	FillingsUpdate:  mu: -0.078560492  nElectrons: 9.000000  magneticMoment: [ Abs: 0.20023  Tot: +0.20000 ]
SCF: Cycle: 18   F: -20.187928289042667   dF: -2.153e-07   |Residual|: 6.545e-05   |deigs|: 1.241e-04  t[s]:     45.82
	FillingsUpdate:  mu: -0.078538773  nElectrons: 9.000000  magneticMoment: [ Abs: 0.20014  Tot: +0.20000 ]
SCF: Cycle: 19   F: -20.187928424583966   dF: -1.355e-07   |Residual|: 4.100e-05   |deigs|: 4.200e-04  t[s]:     47.90
	FillingsUpdate:  mu: -0.078568169  nElectrons: 9.000000  magneticMoment: [ Abs: 0.20009  Tot: +0.20000 ]
SCF: Cycle: 20   F: -20.187928479803041   dF: -5.522e-08   |Residual|: 2.753e-05   |deigs|: 8.959e-05  t[s]:     49.96
	FillingsUpdate:  mu: -0.078601604  nElectrons: 9.000000  magneticMoment: [ Abs: 0.20008  Tot: +0.20000 ]
SCF: Cycle: 21   F: -20.187928502279462   dF: -2.248e-08   |Residual|: 1.503e-05   |deigs|: 8.308e-05  t[s]:     52.04
	FillingsUpdate:  mu: -0.078612434  nElectrons: 9.000000  magneticMoment: [ Abs: 0.20007  Tot: +0.20000 ]
SCF: Cycle: 22   F: -20.187928511461855   dF: -9.182e-09   |Residual|: 9.374e-06   |deigs|: 2.633e-04  t[s]:     54.10
	FillingsUpdate:  mu: -0.078625156  nElectrons: 9.000000  magneticMoment: [ Abs: 0.20008  Tot: +0.20000 ]
SCF: Cycle: 23   F: -20.187928516887602   dF: -5.426e-09   |Residual|: 5.645e-06   |deigs|: 4.410e-04  t[s]:     56.18
SCF: Converged (|Delta E|<1.000000e-08 for 2 iters).


# Ionic positions in lattice coordinates:
ion Cs   0.000000000000000   0.000000000000000   0.000000000000000 0

# Forces in Lattice coordinates:
force Cs  -0.000000000000000   0.000000000000000   0.000000000000000 0

# Energy components:
   Eewald =      -18.0480261003326561
       EH =       -1.8358687741219846
     Eloc =       -5.7486775223142619
      Enl =        3.4429058264965748
   Epulay =        0.0000000264484078
      Exc =       -3.1438824583388696
       KE =        5.1456209967354125
-------------------------------------
     Etot =      -20.1879280054273735
       TS =        0.0000005114602277
-------------------------------------
        F =      -20.1879285168876024

IonicMinimize: Iter:   0  F: -20.187928516887602  |grad|_K:  0.000e+00  t[s]:     56.30
IonicMinimize: Converged (|grad|_K<1.000000e-04).

#--- Lowdin population analysis ---
# oxidation-state Cs +0.047
# magnetic-moments Cs +0.177

End date and time: Sun Feb  6 13:23:55 2022  (Duration: 0-0:00:56.33)
Done!
scale=3
magnetization=0.2
--------------------------------------------------------------------------
The library attempted to open the following supporting CUDA libraries,
but each of them failed.  CUDA-aware support is disabled.
libcuda.so.1: cannot open shared object file: No such file or directory
libcuda.dylib: cannot open shared object file: No such file or directory
/usr/lib64/libcuda.so.1: cannot open shared object file: No such file or directory
/usr/lib64/libcuda.dylib: cannot open shared object file: No such file or directory
If you are not interested in CUDA-aware support, then run with
--mca opal_warn_on_missing_libcuda 0 to suppress this message.  If you are interested
in CUDA-aware support, then try setting LD_LIBRARY_PATH to the location
of libcuda.so.1 to get passed this issue.
--------------------------------------------------------------------------
--------------------------------------------------------------------------
No OpenFabrics connection schemes reported that they were able to be
used on a specific port.  As such, the openib BTL (OpenFabrics
support) will be disabled for this port.

  Local host:           d-6-2-2
  Local device:         mlx5_1
  Local port:           1
  CPCs attempted:       rdmacm, udcm
--------------------------------------------------------------------------

*************** JDFTx 1.6.0 (git hash 42ebbcc2) ***************

Start date and time: Sun Feb  6 13:23:56 2022
Executable jdftx with command-line: -i Alkali.in
Running on hosts (process indices):  d-6-2-2 (0-18)
Divided in process groups (process indices):  0 (0)  1 (1)  2 (2)  3 (3)  4 (4)  5 (5)  6 (6)  7 (7)  8 (8)  9 (9)  10 (10)  11 (11)  12 (12)  13 (13)  14 (14)  15 (15)  16 (16)  17 (17)  18 (18)
Resource initialization completed at t[s]:      0.00
Run totals: 19 processes, 48 threads, 0 GPUs


Input parsed successfully to the following command list (including defaults):

basis kpoint-dependent
coords-type Lattice
core-overlap-check vector
coulomb-interaction Slab 001
davidson-band-ratio 1.1
dump End None
dump-name $INPUT.$VAR
elec-cutoff 20
elec-eigen-algo Davidson
elec-ex-corr gga-PBE
elec-initial-magnetization 0.200000 yes
elec-smearing Fermi 1e-05
electronic-minimize  \
	dirUpdateScheme      FletcherReeves \
	linminMethod         DirUpdateRecommended \
	nIterations          100 \
	history              15 \
	knormThreshold       0 \
	energyDiffThreshold  1e-08 \
	nEnergyDiff          2 \
	alphaTstart          1 \
	alphaTmin            1e-10 \
	updateTestStepSize   yes \
	alphaTreduceFactor   0.1 \
	alphaTincreaseFactor 3 \
	nAlphaAdjustMax      3 \
	wolfeEnergy          0.0001 \
	wolfeGradient        0.9 \
	fdTest               no
electronic-scf  \
	nIterations	10000 \
	energyDiffThreshold	1e-08 \
	residualThreshold	1e-07 \
	mixFraction	0.5 \
	qMetric	0.8 \
	history	10 \
	nEigSteps	2 \
	eigDiffThreshold	1e-08 \
	mixedVariable	Density \
	qKerker	0.8 \
	qKappa	-1 \
	verbose	no \
	mixFractionMag	1.5
exchange-regularization WignerSeitzTruncated
fluid None
fluid-ex-corr (null) lda-PZ
fluid-gummel-loop 10 1.000000e-05
fluid-minimize  \
	dirUpdateScheme      PolakRibiere \
	linminMethod         DirUpdateRecommended \
	nIterations          100 \
	history              15 \
	knormThreshold       0 \
	energyDiffThreshold  0 \
	nEnergyDiff          2 \
	alphaTstart          1 \
	alphaTmin            1e-10 \
	updateTestStepSize   yes \
	alphaTreduceFactor   0.1 \
	alphaTincreaseFactor 3 \
	nAlphaAdjustMax      3 \
	wolfeEnergy          0.0001 \
	wolfeGradient        0.9 \
	fdTest               no
fluid-solvent H2O 55.338 ScalarEOS \
	epsBulk 78.4 \
	pMol 0.92466 \
	epsInf 1.77 \
	Pvap 1.06736e-10 \
	sigmaBulk 4.62e-05 \
	Rvdw 2.61727 \
	Res 1.42 \
	tauNuc 343133 \
	poleEl 15 7 1
forces-output-coords Positions
ion Cs   0.000000000000000   0.000000000000000   0.000000000000000 0
ion-species SG15/$ID_ONCV_PBE.upf
ion-width 0
ionic-minimize  \
	dirUpdateScheme      L-BFGS \
	linminMethod         DirUpdateRecommended \
	nIterations          0 \
	history              15 \
	knormThreshold       0.0001 \
	energyDiffThreshold  1e-06 \
	nEnergyDiff          2 \
	alphaTstart          1 \
	alphaTmin            1e-10 \
	updateTestStepSize   yes \
	alphaTreduceFactor   0.1 \
	alphaTincreaseFactor 3 \
	nAlphaAdjustMax      3 \
	wolfeEnergy          0.0001 \
	wolfeGradient        0.9 \
	fdTest               no
kpoint   0.000000000000   0.000000000000   0.000000000000  1.00000000000000
kpoint-folding 12 12 1 
latt-move-scale 1 1 1
latt-scale 3 3 1 
lattice  \
	   4.727486978767153   -2.363743489383575    0.000000000000000  \
	  -0.000000000000000    4.094123819672498    0.000000000000000  \
	   0.000000000000000    0.000000000000000   40.000000000000000 
lattice-minimize  \
	dirUpdateScheme      L-BFGS \
	linminMethod         DirUpdateRecommended \
	nIterations          0 \
	history              15 \
	knormThreshold       0 \
	energyDiffThreshold  1e-06 \
	nEnergyDiff          2 \
	alphaTstart          1 \
	alphaTmin            1e-10 \
	updateTestStepSize   yes \
	alphaTreduceFactor   0.1 \
	alphaTincreaseFactor 3 \
	nAlphaAdjustMax      3 \
	wolfeEnergy          0.0001 \
	wolfeGradient        0.9 \
	fdTest               no
lcao-params -1 1e-06 1e-05
pcm-variant GLSSA13
spintype z-spin
subspace-rotation-factor 1 yes
symmetries automatic
symmetry-threshold 0.0001



---------- Setting up symmetries ----------

Found 24 point-group symmetries of the bravais lattice
Found 24 space-group symmetries with basis
Applied RMS atom displacement 0 bohrs to make symmetries exact.

---------- Initializing the Grid ----------
R = 
[      14.1825     -7.09123            0  ]
[            0      12.2824            0  ]
[            0            0           40  ]
unit cell volume = 6967.77
G =
[   0.443025   0.255781         -0  ]
[          0   0.511561         -0  ]
[         -0         -0    0.15708  ]
Minimum fftbox size, Smin = [  60  60  164  ]
Chosen fftbox size, S = [  60  60  168  ]

---------- Exchange Correlation functional ----------
Initalized PBE GGA exchange.
Initalized PBE GGA correlation.

---------- Setting up pseudopotentials ----------
Width of ionic core gaussian charges (only for fluid interactions / plotting) set to 0

Reading pseudopotential file '/home/gridsan/aligho/DFT/build-Nov24/pseudopotentials/SG15/Cs_ONCV_PBE.upf':
  'Cs' pseudopotential, 'PBE' functional
  Generated using ONCVPSP code by D. R. Hamann
  Author: Martin Schlipf and Francois Gygi  Date: 150915.
  9 valence electrons, 3 orbitals, 6 projectors, 2414 radial grid points, with lMax = 2
  Transforming local potential to a uniform radial grid of dG=0.02 with 1489 points.
  Transforming nonlocal projectors to a uniform radial grid of dG=0.02 with 432 points.
    5S    l: 0   occupation:  2.0   eigenvalue: -0.982388
    5P    l: 1   occupation:  6.0   eigenvalue: -0.496786
    6S    l: 0   occupation:  1.0   eigenvalue: -0.076670
  Transforming atomic orbitals to a uniform radial grid of dG=0.02 with 432 points.
  Core radius for overlap checks: 2.06 bohrs.
  Reading pulay file /home/gridsan/aligho/DFT/build-Nov24/pseudopotentials/SG15/Cs_ONCV_PBE.pulay ... using dE_dnG = -1.008762e-04 computed for Ecut = 20.

Initialized 1 species with 1 total atoms.

Folded 1 k-points by 12x12x1 to 144 k-points.

---------- Setting up k-points, bands, fillings ----------
Reduced to 19 k-points under symmetry. 
Computing the number of bands and number of electrons
Calculating initial fillings.
nElectrons:   9.000000   nBands: 6   nStates: 38

----- Setting up reduced wavefunction bases (one per k-point) -----
average nbasis = 29766.104 , ideal nbasis = 29766.845

---------- Setting up coulomb interaction ----------
Initialized slab truncation along lattice direction 001

---------- Setting up 2D ewald sum ----------
Optimum gaussian width for ewald sums = 7.873530 bohr.
Real space sums over 289 unit cells with max indices [  8  8  0  ]
Reciprocal space sums over 81 terms with max indices [  4  4  0  ]

---------- Allocating electronic variables ----------
Initializing wave functions:  linear combination of atomic orbitals
Note: number of bands (6) exceeds available atomic orbitals (5)
Cs pseudo-atom occupations:   s ( 2 1 )  p ( 6 )
[d-6-2-2:72506] 18 more processes have sent help message help-mpi-common-cuda.txt / dlopen failed
[d-6-2-2:72506] Set MCA parameter "orte_base_help_aggregate" to 0 to see all help / error messages
[d-6-2-2:72506] 18 more processes have sent help message help-mpi-btl-openib-cpc-base.txt / no cpcs for port
	FillingsUpdate:  mu: -0.078790595  nElectrons: 9.000000  magneticMoment: [ Abs: 0.20000  Tot: +0.20000 ]
LCAOMinimize: Iter:   0  F: -20.1752428310867735  |grad|_K:  2.497e-05  alpha:  1.000e+00
	FillingsUpdate:  mu: -0.078784843  nElectrons: 9.000000  magneticMoment: [ Abs: 0.20000  Tot: +0.20000 ]
LCAOMinimize: Iter:   1  F: -20.1752432511508815  |grad|_K:  1.750e-07  alpha:  9.852e-01  linmin: -3.367e-02  cgtest:  6.394e-01  t[s]:      8.79
LCAOMinimize: Encountered beta<0, resetting CG.
	FillingsUpdate:  mu: -0.078784831  nElectrons: 9.000000  magneticMoment: [ Abs: 0.20000  Tot: +0.20000 ]
LCAOMinimize: Iter:   2  F: -20.1752432511714943  |grad|_K:  6.191e-09  alpha:  9.648e-01  linmin: -5.675e-02  cgtest:  9.965e-01  t[s]:     11.17
LCAOMinimize: Encountered beta<0, resetting CG.
LCAOMinimize: Converged (|Delta F|<1.000000e-06 for 2 iters).


---- Citations for features of the code used in this run ----

   Software package:
      R. Sundararaman, K. Letchworth-Weaver, K.A. Schwarz, D. Gunceler, Y. Ozhabes and T.A. Arias, 'JDFTx: software for joint density-functional theory', SoftwareX 6, 278 (2017)

   gga-PBE exchange-correlation functional:
      J.P. Perdew, K. Burke and M. Ernzerhof, Phys. Rev. Lett. 77, 3865 (1996)

   Pseudopotentials:
      M Schlipf and F Gygi, Comput. Phys. Commun. 196, 36 (2015)

   Truncated Coulomb potentials:
      R. Sundararaman and T.A. Arias, Phys. Rev. B 87, 165122 (2013)

This list may not be complete. Please suggest additional citations or
report any other bugs at https://github.com/shankar1729/jdftx/issues

Initialization completed successfully at t[s]:     11.33


-------- Electronic minimization -----------
Will mix electronic density at each iteration.
	FillingsUpdate:  mu: -0.078784831  nElectrons: 9.000000  magneticMoment: [ Abs: 0.20000  Tot: +0.20000 ]
	FillingsUpdate:  mu: -0.082077514  nElectrons: 9.000000  magneticMoment: [ Abs: 0.20000  Tot: +0.20000 ]
SCF: Cycle:  0   F: -20.177619420674358   dF: -2.376e-03   |Residual|: 4.451e-03   |deigs|: 1.730e-01  t[s]:     16.13
	FillingsUpdate:  mu: -0.082419890  nElectrons: 9.000000  magneticMoment: [ Abs: 0.20000  Tot: +0.20000 ]
SCF: Cycle:  1   F: -20.177711559612348   dF: -9.214e-05   |Residual|: 3.973e-03   |deigs|: 4.907e-03  t[s]:     19.80
	FillingsUpdate:  mu: -0.082767579  nElectrons: 9.000000  magneticMoment: [ Abs: 0.20321  Tot: +0.20000 ]
SCF: Cycle:  2   F: -20.177777774897429   dF: -6.622e-05   |Residual|: 1.837e-03   |deigs|: 3.051e-03  t[s]:     23.60
	FillingsUpdate:  mu: -0.082716132  nElectrons: 9.000000  magneticMoment: [ Abs: 0.20156  Tot: +0.20000 ]
SCF: Cycle:  3   F: -20.177801268288889   dF: -2.349e-05   |Residual|: 1.305e-03   |deigs|: 1.487e-03  t[s]:     27.45
	FillingsUpdate:  mu: -0.082509096  nElectrons: 9.000000  magneticMoment: [ Abs: 0.20016  Tot: +0.20000 ]
SCF: Cycle:  4   F: -20.177813544813638   dF: -1.228e-05   |Residual|: 8.354e-04   |deigs|: 8.207e-04  t[s]:     31.45
	FillingsUpdate:  mu: -0.082315693  nElectrons: 9.000000  magneticMoment: [ Abs: 0.20015  Tot: +0.20000 ]
SCF: Cycle:  5   F: -20.177819094353232   dF: -5.550e-06   |Residual|: 6.433e-04   |deigs|: 8.410e-04  t[s]:     35.46
	FillingsUpdate:  mu: -0.081809150  nElectrons: 9.000000  magneticMoment: [ Abs: 0.20165  Tot: +0.20000 ]
SCF: Cycle:  6   F: -20.177820405903141   dF: -1.312e-06   |Residual|: 5.235e-04   |deigs|: 1.096e-03  t[s]:     39.53
	FillingsUpdate:  mu: -0.081426990  nElectrons: 9.000000  magneticMoment: [ Abs: 0.20194  Tot: +0.20000 ]
SCF: Cycle:  7   F: -20.177820680879176   dF: -2.750e-07   |Residual|: 4.296e-04   |deigs|: 6.760e-04  t[s]:     43.62
	FillingsUpdate:  mu: -0.080820021  nElectrons: 9.000000  magneticMoment: [ Abs: 0.20211  Tot: +0.20000 ]
SCF: Cycle:  8   F: -20.177819851191718   dF: +8.297e-07   |Residual|: 3.611e-04   |deigs|: 9.132e-04  t[s]:     47.83
	FillingsUpdate:  mu: -0.080465785  nElectrons: 9.000000  magneticMoment: [ Abs: 0.20108  Tot: +0.20000 ]
SCF: Cycle:  9   F: -20.177822209561334   dF: -2.358e-06   |Residual|: 3.046e-04   |deigs|: 5.306e-04  t[s]:     52.22
	FillingsUpdate:  mu: -0.080173410  nElectrons: 9.000000  magneticMoment: [ Abs: 0.20159  Tot: +0.20000 ]
SCF: Cycle: 10   F: -20.177823365329694   dF: -1.156e-06   |Residual|: 2.694e-04   |deigs|: 4.995e-04  t[s]:     56.53
	FillingsUpdate:  mu: -0.079685460  nElectrons: 9.000000  magneticMoment: [ Abs: 0.20187  Tot: +0.20000 ]
SCF: Cycle: 11   F: -20.177822822893443   dF: +5.424e-07   |Residual|: 2.387e-04   |deigs|: 5.524e-04  t[s]:     60.82
	FillingsUpdate:  mu: -0.079128794  nElectrons: 9.000000  magneticMoment: [ Abs: 0.20129  Tot: +0.20000 ]
SCF: Cycle: 12   F: -20.177821630583566   dF: +1.192e-06   |Residual|: 2.405e-04   |deigs|: 6.064e-04  t[s]:     65.13
	FillingsUpdate:  mu: -0.078866296  nElectrons: 9.000000  magneticMoment: [ Abs: 0.20048  Tot: +0.20000 ]
SCF: Cycle: 13   F: -20.177822839846108   dF: -1.209e-06   |Residual|: 2.239e-04   |deigs|: 8.358e-04  t[s]:     69.45
	FillingsUpdate:  mu: -0.078686316  nElectrons: 9.000000  magneticMoment: [ Abs: 0.20123  Tot: +0.20000 ]
SCF: Cycle: 14   F: -20.177825502984685   dF: -2.663e-06   |Residual|: 1.786e-04   |deigs|: 4.959e-04  t[s]:     73.73
	FillingsUpdate:  mu: -0.078352456  nElectrons: 9.000000  magneticMoment: [ Abs: 0.20111  Tot: +0.20000 ]
SCF: Cycle: 15   F: -20.177827366266431   dF: -1.863e-06   |Residual|: 1.376e-04   |deigs|: 3.594e-04  t[s]:     77.96
	FillingsUpdate:  mu: -0.078195518  nElectrons: 9.000000  magneticMoment: [ Abs: 0.20068  Tot: +0.20000 ]
SCF: Cycle: 16   F: -20.177828106260108   dF: -7.400e-07   |Residual|: 1.016e-04   |deigs|: 1.766e-04  t[s]:     82.17
	FillingsUpdate:  mu: -0.078208889  nElectrons: 9.000000  magneticMoment: [ Abs: 0.20029  Tot: +0.20000 ]
SCF: Cycle: 17   F: -20.177828385237962   dF: -2.790e-07   |Residual|: 6.191e-05   |deigs|: 1.127e-04  t[s]:     86.42
	FillingsUpdate:  mu: -0.078191620  nElectrons: 9.000000  magneticMoment: [ Abs: 0.20024  Tot: +0.20000 ]
SCF: Cycle: 18   F: -20.177828561160268   dF: -1.759e-07   |Residual|: 2.994e-05   |deigs|: 7.275e-05  t[s]:     90.73
	FillingsUpdate:  mu: -0.078181395  nElectrons: 9.000000  magneticMoment: [ Abs: 0.20026  Tot: +0.20000 ]
SCF: Cycle: 19   F: -20.177828587927266   dF: -2.677e-08   |Residual|: 2.113e-05   |deigs|: 4.923e-05  t[s]:     95.05
	FillingsUpdate:  mu: -0.078186558  nElectrons: 9.000000  magneticMoment: [ Abs: 0.20024  Tot: +0.20000 ]
SCF: Cycle: 20   F: -20.177828613755480   dF: -2.583e-08   |Residual|: 1.297e-05   |deigs|: 3.428e-05  t[s]:     99.35
	FillingsUpdate:  mu: -0.078186819  nElectrons: 9.000000  magneticMoment: [ Abs: 0.20026  Tot: +0.20000 ]
SCF: Cycle: 21   F: -20.177828627958938   dF: -1.420e-08   |Residual|: 7.340e-06   |deigs|: 2.164e-05  t[s]:    103.65
	FillingsUpdate:  mu: -0.078191662  nElectrons: 9.000000  magneticMoment: [ Abs: 0.20025  Tot: +0.20000 ]
SCF: Cycle: 22   F: -20.177828631353961   dF: -3.395e-09   |Residual|: 4.571e-06   |deigs|: 1.830e-05  t[s]:    107.93
	FillingsUpdate:  mu: -0.078197138  nElectrons: 9.000000  magneticMoment: [ Abs: 0.20026  Tot: +0.20000 ]
SCF: Cycle: 23   F: -20.177828632604346   dF: -1.250e-09   |Residual|: 2.831e-06   |deigs|: 1.677e-05  t[s]:    112.22
SCF: Converged (|Delta E|<1.000000e-08 for 2 iters).


# Ionic positions in lattice coordinates:
ion Cs   0.000000000000000   0.000000000000000   0.000000000000000 0

# Forces in Lattice coordinates:
force Cs   0.000000000000000  -0.000000000000000   0.000000000000000 0

# Energy components:
   Eewald =      -12.0320174002217755
       EH =        4.0111662997852946
     Eloc =      -17.5802308467729098
      Enl =        3.4316726095658754
   Epulay =       -0.0000000107257212
      Exc =       -3.1082440646553335
       KE =        5.0998252918804514
-------------------------------------
     Etot =      -20.1778281211441168
       TS =        0.0000005114602277
-------------------------------------
        F =      -20.1778286326043457

IonicMinimize: Iter:   0  F: -20.177828632604346  |grad|_K:  0.000e+00  t[s]:    112.48
IonicMinimize: Converged (|grad|_K<1.000000e-04).

#--- Lowdin population analysis ---
# oxidation-state Cs +0.043
# magnetic-moments Cs +0.180

End date and time: Sun Feb  6 13:25:48 2022  (Duration: 0-0:01:52.52)
Done!
scale=4
magnetization=0.2
--------------------------------------------------------------------------
The library attempted to open the following supporting CUDA libraries,
but each of them failed.  CUDA-aware support is disabled.
libcuda.so.1: cannot open shared object file: No such file or directory
libcuda.dylib: cannot open shared object file: No such file or directory
/usr/lib64/libcuda.so.1: cannot open shared object file: No such file or directory
/usr/lib64/libcuda.dylib: cannot open shared object file: No such file or directory
If you are not interested in CUDA-aware support, then run with
--mca opal_warn_on_missing_libcuda 0 to suppress this message.  If you are interested
in CUDA-aware support, then try setting LD_LIBRARY_PATH to the location
of libcuda.so.1 to get passed this issue.
--------------------------------------------------------------------------
[d-6-2-2:27935] [[20099,0],0] ORTE_ERROR_LOG: Out of resource in file util/show_help.c at line 507
--------------------------------------------------------------------------
No OpenFabrics connection schemes reported that they were able to be
used on a specific port.  As such, the openib BTL (OpenFabrics
support) will be disabled for this port.

  Local host:           d-6-2-2
  Local device:         mlx5_1
  Local port:           1
  CPCs attempted:       rdmacm, udcm
--------------------------------------------------------------------------

*************** JDFTx 1.6.0 (git hash 42ebbcc2) ***************

Start date and time: Sun Feb  6 13:25:49 2022
Executable jdftx with command-line: -i Alkali.in
Running on hosts (process indices):  d-6-2-2 (0-18)
Divided in process groups (process indices):  0 (0)  1 (1)  2 (2)  3 (3)  4 (4)  5 (5)  6 (6)  7 (7)  8 (8)  9 (9)  10 (10)  11 (11)  12 (12)  13 (13)  14 (14)  15 (15)  16 (16)  17 (17)  18 (18)
Resource initialization completed at t[s]:      0.00
Run totals: 19 processes, 48 threads, 0 GPUs


Input parsed successfully to the following command list (including defaults):

basis kpoint-dependent
coords-type Lattice
core-overlap-check vector
coulomb-interaction Slab 001
davidson-band-ratio 1.1
dump End None
dump-name $INPUT.$VAR
elec-cutoff 20
elec-eigen-algo Davidson
elec-ex-corr gga-PBE
elec-initial-magnetization 0.200000 yes
elec-smearing Fermi 1e-05
electronic-minimize  \
	dirUpdateScheme      FletcherReeves \
	linminMethod         DirUpdateRecommended \
	nIterations          100 \
	history              15 \
	knormThreshold       0 \
	energyDiffThreshold  1e-08 \
	nEnergyDiff          2 \
	alphaTstart          1 \
	alphaTmin            1e-10 \
	updateTestStepSize   yes \
	alphaTreduceFactor   0.1 \
	alphaTincreaseFactor 3 \
	nAlphaAdjustMax      3 \
	wolfeEnergy          0.0001 \
	wolfeGradient        0.9 \
	fdTest               no
electronic-scf  \
	nIterations	10000 \
	energyDiffThreshold	1e-08 \
	residualThreshold	1e-07 \
	mixFraction	0.5 \
	qMetric	0.8 \
	history	10 \
	nEigSteps	2 \
	eigDiffThreshold	1e-08 \
	mixedVariable	Density \
	qKerker	0.8 \
	qKappa	-1 \
	verbose	no \
	mixFractionMag	1.5
exchange-regularization WignerSeitzTruncated
fluid None
fluid-ex-corr (null) lda-PZ
fluid-gummel-loop 10 1.000000e-05
fluid-minimize  \
	dirUpdateScheme      PolakRibiere \
	linminMethod         DirUpdateRecommended \
	nIterations          100 \
	history              15 \
	knormThreshold       0 \
	energyDiffThreshold  0 \
	nEnergyDiff          2 \
	alphaTstart          1 \
	alphaTmin            1e-10 \
	updateTestStepSize   yes \
	alphaTreduceFactor   0.1 \
	alphaTincreaseFactor 3 \
	nAlphaAdjustMax      3 \
	wolfeEnergy          0.0001 \
	wolfeGradient        0.9 \
	fdTest               no
fluid-solvent H2O 55.338 ScalarEOS \
	epsBulk 78.4 \
	pMol 0.92466 \
	epsInf 1.77 \
	Pvap 1.06736e-10 \
	sigmaBulk 4.62e-05 \
	Rvdw 2.61727 \
	Res 1.42 \
	tauNuc 343133 \
	poleEl 15 7 1
forces-output-coords Positions
ion Cs   0.000000000000000   0.000000000000000   0.000000000000000 0
ion-species SG15/$ID_ONCV_PBE.upf
ion-width 0
ionic-minimize  \
	dirUpdateScheme      L-BFGS \
	linminMethod         DirUpdateRecommended \
	nIterations          0 \
	history              15 \
	knormThreshold       0.0001 \
	energyDiffThreshold  1e-06 \
	nEnergyDiff          2 \
	alphaTstart          1 \
	alphaTmin            1e-10 \
	updateTestStepSize   yes \
	alphaTreduceFactor   0.1 \
	alphaTincreaseFactor 3 \
	nAlphaAdjustMax      3 \
	wolfeEnergy          0.0001 \
	wolfeGradient        0.9 \
	fdTest               no
kpoint   0.000000000000   0.000000000000   0.000000000000  1.00000000000000
kpoint-folding 12 12 1 
latt-move-scale 1 1 1
latt-scale 4 4 1 
lattice  \
	   4.727486978767153   -2.363743489383575    0.000000000000000  \
	  -0.000000000000000    4.094123819672498    0.000000000000000  \
	   0.000000000000000    0.000000000000000   40.000000000000000 
lattice-minimize  \
	dirUpdateScheme      L-BFGS \
	linminMethod         DirUpdateRecommended \
	nIterations          0 \
	history              15 \
	knormThreshold       0 \
	energyDiffThreshold  1e-06 \
	nEnergyDiff          2 \
	alphaTstart          1 \
	alphaTmin            1e-10 \
	updateTestStepSize   yes \
	alphaTreduceFactor   0.1 \
	alphaTincreaseFactor 3 \
	nAlphaAdjustMax      3 \
	wolfeEnergy          0.0001 \
	wolfeGradient        0.9 \
	fdTest               no
lcao-params -1 1e-06 1e-05
pcm-variant GLSSA13
spintype z-spin
subspace-rotation-factor 1 yes
symmetries automatic
symmetry-threshold 0.0001



---------- Setting up symmetries ----------

Found 24 point-group symmetries of the bravais lattice
Found 24 space-group symmetries with basis
Applied RMS atom displacement 0 bohrs to make symmetries exact.

---------- Initializing the Grid ----------
R = 
[      18.9099     -9.45497            0  ]
[            0      16.3765            0  ]
[            0            0           40  ]
unit cell volume = 12387.1
G =
[   0.332269   0.191835         -0  ]
[          0   0.383671         -0  ]
[         -0         -0    0.15708  ]
Minimum fftbox size, Smin = [  80  80  164  ]
Chosen fftbox size, S = [  80  80  168  ]

---------- Exchange Correlation functional ----------
Initalized PBE GGA exchange.
Initalized PBE GGA correlation.

---------- Setting up pseudopotentials ----------
Width of ionic core gaussian charges (only for fluid interactions / plotting) set to 0

Reading pseudopotential file '/home/gridsan/aligho/DFT/build-Nov24/pseudopotentials/SG15/Cs_ONCV_PBE.upf':
  'Cs' pseudopotential, 'PBE' functional
  Generated using ONCVPSP code by D. R. Hamann
  Author: Martin Schlipf and Francois Gygi  Date: 150915.
  9 valence electrons, 3 orbitals, 6 projectors, 2414 radial grid points, with lMax = 2
  Transforming local potential to a uniform radial grid of dG=0.02 with 1489 points.
  Transforming nonlocal projectors to a uniform radial grid of dG=0.02 with 432 points.
    5S    l: 0   occupation:  2.0   eigenvalue: -0.982388
    5P    l: 1   occupation:  6.0   eigenvalue: -0.496786
    6S    l: 0   occupation:  1.0   eigenvalue: -0.076670
  Transforming atomic orbitals to a uniform radial grid of dG=0.02 with 432 points.
  Core radius for overlap checks: 2.06 bohrs.
  Reading pulay file /home/gridsan/aligho/DFT/build-Nov24/pseudopotentials/SG15/Cs_ONCV_PBE.pulay ... using dE_dnG = -1.008762e-04 computed for Ecut = 20.

Initialized 1 species with 1 total atoms.

Folded 1 k-points by 12x12x1 to 144 k-points.

---------- Setting up k-points, bands, fillings ----------
Reduced to 19 k-points under symmetry. 
Computing the number of bands and number of electrons
Calculating initial fillings.
nElectrons:   9.000000   nBands: 6   nStates: 38

----- Setting up reduced wavefunction bases (one per k-point) -----
average nbasis = 52924.021 , ideal nbasis = 52918.836

---------- Setting up coulomb interaction ----------
Initialized slab truncation along lattice direction 001

---------- Setting up 2D ewald sum ----------
Optimum gaussian width for ewald sums = 10.498040 bohr.
Real space sums over 289 unit cells with max indices [  8  8  0  ]
Reciprocal space sums over 81 terms with max indices [  4  4  0  ]

---------- Allocating electronic variables ----------
Initializing wave functions:  linear combination of atomic orbitals
Note: number of bands (6) exceeds available atomic orbitals (5)
Cs pseudo-atom occupations:   s ( 2 1 )  p ( 6 )
[d-6-2-2:27935] 17 more processes have sent help message help-mpi-common-cuda.txt / dlopen failed
[d-6-2-2:27935] Set MCA parameter "orte_base_help_aggregate" to 0 to see all help / error messages
[d-6-2-2:27935] 18 more processes have sent help message help-mpi-btl-openib-cpc-base.txt / no cpcs for port
	FillingsUpdate:  mu: -0.077325013  nElectrons: 9.000000  magneticMoment: [ Abs: 0.20000  Tot: +0.20000 ]
LCAOMinimize: Iter:   0  F: -20.1679160577091778  |grad|_K:  7.609e-06  alpha:  1.000e+00
	FillingsUpdate:  mu: -0.077323444  nElectrons: 9.000000  magneticMoment: [ Abs: 0.20000  Tot: +0.20000 ]
LCAOMinimize: Iter:   1  F: -20.1679160968804290  |grad|_K:  3.784e-08  alpha:  9.891e-01  linmin: -1.362e-02  cgtest:  3.705e-01  t[s]:     15.14
LCAOMinimize: Encountered beta<0, resetting CG.
	FillingsUpdate:  mu: -0.077323444  nElectrons: 9.000000  magneticMoment: [ Abs: 0.20000  Tot: +0.20000 ]
LCAOMinimize: Iter:   2  F: -20.1679160968811964  |grad|_K:  7.660e-09  alpha:  7.979e-01  linmin: -3.324e-02  cgtest:  1.000e+00  t[s]:     19.19
LCAOMinimize: Encountered beta<0, resetting CG.
LCAOMinimize: Converged (|Delta F|<1.000000e-06 for 2 iters).


---- Citations for features of the code used in this run ----

   Software package:
      R. Sundararaman, K. Letchworth-Weaver, K.A. Schwarz, D. Gunceler, Y. Ozhabes and T.A. Arias, 'JDFTx: software for joint density-functional theory', SoftwareX 6, 278 (2017)

   gga-PBE exchange-correlation functional:
      J.P. Perdew, K. Burke and M. Ernzerhof, Phys. Rev. Lett. 77, 3865 (1996)

   Pseudopotentials:
      M Schlipf and F Gygi, Comput. Phys. Commun. 196, 36 (2015)

   Truncated Coulomb potentials:
      R. Sundararaman and T.A. Arias, Phys. Rev. B 87, 165122 (2013)

This list may not be complete. Please suggest additional citations or
report any other bugs at https://github.com/shankar1729/jdftx/issues

Initialization completed successfully at t[s]:     19.46


-------- Electronic minimization -----------
Will mix electronic density at each iteration.
	FillingsUpdate:  mu: -0.077323444  nElectrons: 9.000000  magneticMoment: [ Abs: 0.20000  Tot: +0.20000 ]
	FillingsUpdate:  mu: -0.077535599  nElectrons: 9.000000  magneticMoment: [ Abs: 0.20000  Tot: +0.20000 ]
SCF: Cycle:  0   F: -20.168166080236340   dF: -2.500e-04   |Residual|: 1.020e-03   |deigs|: 1.751e-01  t[s]:     27.61
	FillingsUpdate:  mu: -0.077595381  nElectrons: 9.000000  magneticMoment: [ Abs: 0.20103  Tot: +0.20000 ]
SCF: Cycle:  1   F: -20.168174874536049   dF: -8.794e-06   |Residual|: 8.707e-04   |deigs|: 4.224e-03  t[s]:     34.06
	FillingsUpdate:  mu: -0.077670313  nElectrons: 9.000000  magneticMoment: [ Abs: 0.20092  Tot: +0.20000 ]
SCF: Cycle:  2   F: -20.168177748415587   dF: -2.874e-06   |Residual|: 7.300e-04   |deigs|: 1.235e-03  t[s]:     40.60
	FillingsUpdate:  mu: -0.077874321  nElectrons: 9.000000  magneticMoment: [ Abs: 0.20237  Tot: +0.20000 ]
SCF: Cycle:  3   F: -20.168182855803799   dF: -5.107e-06   |Residual|: 4.747e-04   |deigs|: 7.067e-04  t[s]:     47.24
	FillingsUpdate:  mu: -0.077985055  nElectrons: 9.000000  magneticMoment: [ Abs: 0.20164  Tot: +0.20000 ]
SCF: Cycle:  4   F: -20.168186099716905   dF: -3.244e-06   |Residual|: 3.165e-04   |deigs|: 5.344e-04  t[s]:     53.95
	FillingsUpdate:  mu: -0.078087716  nElectrons: 9.000000  magneticMoment: [ Abs: 0.20163  Tot: +0.20000 ]
SCF: Cycle:  5   F: -20.168188623257837   dF: -2.524e-06   |Residual|: 2.124e-04   |deigs|: 4.915e-04  t[s]:     60.81
	FillingsUpdate:  mu: -0.078062554  nElectrons: 9.000000  magneticMoment: [ Abs: 0.20170  Tot: +0.20000 ]
SCF: Cycle:  6   F: -20.168189583172776   dF: -9.599e-07   |Residual|: 1.431e-04   |deigs|: 4.667e-04  t[s]:     67.80
	FillingsUpdate:  mu: -0.078033852  nElectrons: 9.000000  magneticMoment: [ Abs: 0.20147  Tot: +0.20000 ]
SCF: Cycle:  7   F: -20.168190084970234   dF: -5.018e-07   |Residual|: 1.072e-04   |deigs|: 6.880e-04  t[s]:     74.93
	FillingsUpdate:  mu: -0.077998387  nElectrons: 9.000000  magneticMoment: [ Abs: 0.20136  Tot: +0.20000 ]
SCF: Cycle:  8   F: -20.168190362215441   dF: -2.772e-07   |Residual|: 8.640e-05   |deigs|: 4.933e-04  t[s]:     82.14
	FillingsUpdate:  mu: -0.077935481  nElectrons: 9.000000  magneticMoment: [ Abs: 0.20138  Tot: +0.20000 ]
SCF: Cycle:  9   F: -20.168190427019816   dF: -6.480e-08   |Residual|: 6.983e-05   |deigs|: 2.081e-04  t[s]:     89.45
	FillingsUpdate:  mu: -0.077889007  nElectrons: 9.000000  magneticMoment: [ Abs: 0.20152  Tot: +0.20000 ]
SCF: Cycle: 10   F: -20.168190458740167   dF: -3.172e-08   |Residual|: 6.502e-05   |deigs|: 2.646e-04  t[s]:     96.88
	FillingsUpdate:  mu: -0.077834841  nElectrons: 9.000000  magneticMoment: [ Abs: 0.20155  Tot: +0.20000 ]
SCF: Cycle: 11   F: -20.168190422480784   dF: +3.626e-08   |Residual|: 5.879e-05   |deigs|: 2.544e-04  t[s]:    104.37
	FillingsUpdate:  mu: -0.077761152  nElectrons: 9.000000  magneticMoment: [ Abs: 0.20163  Tot: +0.20000 ]
SCF: Cycle: 12   F: -20.168190288611690   dF: +1.339e-07   |Residual|: 5.090e-05   |deigs|: 1.931e-04  t[s]:    111.79
	FillingsUpdate:  mu: -0.077699789  nElectrons: 9.000000  magneticMoment: [ Abs: 0.20161  Tot: +0.20000 ]
SCF: Cycle: 13   F: -20.168190216589025   dF: +7.202e-08   |Residual|: 4.916e-05   |deigs|: 1.098e-04  t[s]:    119.23
	FillingsUpdate:  mu: -0.077652264  nElectrons: 9.000000  magneticMoment: [ Abs: 0.20155  Tot: +0.20000 ]
SCF: Cycle: 14   F: -20.168190356621196   dF: -1.400e-07   |Residual|: 4.272e-05   |deigs|: 6.632e-05  t[s]:    126.67
	FillingsUpdate:  mu: -0.077594460  nElectrons: 9.000000  magneticMoment: [ Abs: 0.20144  Tot: +0.20000 ]
SCF: Cycle: 15   F: -20.168190378564255   dF: -2.194e-08   |Residual|: 3.901e-05   |deigs|: 6.727e-05  t[s]:    134.10
	FillingsUpdate:  mu: -0.077548546  nElectrons: 9.000000  magneticMoment: [ Abs: 0.20138  Tot: +0.20000 ]
SCF: Cycle: 16   F: -20.168190354377103   dF: +2.419e-08   |Residual|: 3.575e-05   |deigs|: 4.929e-05  t[s]:    141.53
	FillingsUpdate:  mu: -0.077533762  nElectrons: 9.000000  magneticMoment: [ Abs: 0.20132  Tot: +0.20000 ]
SCF: Cycle: 17   F: -20.168190480101384   dF: -1.257e-07   |Residual|: 2.685e-05   |deigs|: 2.422e-05  t[s]:    149.01
	FillingsUpdate:  mu: -0.077518655  nElectrons: 9.000000  magneticMoment: [ Abs: 0.20131  Tot: +0.20000 ]
SCF: Cycle: 18   F: -20.168190520420950   dF: -4.032e-08   |Residual|: 2.139e-05   |deigs|: 2.114e-05  t[s]:    156.46
	FillingsUpdate:  mu: -0.077507787  nElectrons: 9.000000  magneticMoment: [ Abs: 0.20130  Tot: +0.20000 ]
SCF: Cycle: 19   F: -20.168190605421078   dF: -8.500e-08   |Residual|: 1.653e-05   |deigs|: 1.498e-05  t[s]:    163.83
	FillingsUpdate:  mu: -0.077505890  nElectrons: 9.000000  magneticMoment: [ Abs: 0.20131  Tot: +0.20000 ]
SCF: Cycle: 20   F: -20.168190645460061   dF: -4.004e-08   |Residual|: 1.222e-05   |deigs|: 1.101e-05  t[s]:    171.22
	FillingsUpdate:  mu: -0.077505960  nElectrons: 9.000000  magneticMoment: [ Abs: 0.20133  Tot: +0.20000 ]
SCF: Cycle: 21   F: -20.168190663362019   dF: -1.790e-08   |Residual|: 9.098e-06   |deigs|: 1.129e-05  t[s]:    178.64
	FillingsUpdate:  mu: -0.077504750  nElectrons: 9.000000  magneticMoment: [ Abs: 0.20134  Tot: +0.20000 ]
SCF: Cycle: 22   F: -20.168190674318122   dF: -1.096e-08   |Residual|: 5.543e-06   |deigs|: 1.313e-05  t[s]:    186.04
	FillingsUpdate:  mu: -0.077504011  nElectrons: 9.000000  magneticMoment: [ Abs: 0.20134  Tot: +0.20000 ]
SCF: Cycle: 23   F: -20.168190676646276   dF: -2.328e-09   |Residual|: 4.088e-06   |deigs|: 1.637e-05  t[s]:    193.19
	FillingsUpdate:  mu: -0.077503443  nElectrons: 9.000000  magneticMoment: [ Abs: 0.20134  Tot: +0.20000 ]
SCF: Cycle: 24   F: -20.168190678658338   dF: -2.012e-09   |Residual|: 3.215e-06   |deigs|: 2.006e-05  t[s]:    200.61
SCF: Converged (|Delta E|<1.000000e-08 for 2 iters).


# Ionic positions in lattice coordinates:
ion Cs   0.000000000000000   0.000000000000000   0.000000000000000 0

# Forces in Lattice coordinates:
force Cs   0.000000000000000  -0.000000000000000   0.000000000000000 0

# Energy components:
   Eewald =       -9.0240130501663280
       EH =        7.0020129790852295
     Eloc =      -23.5857149300167528
      Enl =        3.4363464292997570
   Epulay =        0.0000000422266766
      Exc =       -3.1050283964958378
       KE =        5.1082067588691489
-------------------------------------
     Etot =      -20.1681901671981088
       TS =        0.0000005114602277
-------------------------------------
        F =      -20.1681906786583376

IonicMinimize: Iter:   0  F: -20.168190678658338  |grad|_K:  0.000e+00  t[s]:    201.02
IonicMinimize: Converged (|grad|_K<1.000000e-04).

#--- Lowdin population analysis ---
# oxidation-state Cs +0.006
# magnetic-moments Cs +0.199

End date and time: Sun Feb  6 13:29:10 2022  (Duration: 0-0:03:21.09)
Done!
