The alkali metal is Cs
scale=2
magnetization=-0.62
--------------------------------------------------------------------------
The library attempted to open the following supporting CUDA libraries,
but each of them failed.  CUDA-aware support is disabled.
libcuda.so.1: cannot open shared object file: No such file or directory
libcuda.dylib: cannot open shared object file: No such file or directory
/usr/lib64/libcuda.so.1: cannot open shared object file: No such file or directory
/usr/lib64/libcuda.dylib: cannot open shared object file: No such file or directory
If you are not interested in CUDA-aware support, then run with
--mca opal_warn_on_missing_libcuda 0 to suppress this message.  If you are interested
in CUDA-aware support, then try setting LD_LIBRARY_PATH to the location
of libcuda.so.1 to get passed this issue.
--------------------------------------------------------------------------
--------------------------------------------------------------------------
No OpenFabrics connection schemes reported that they were able to be
used on a specific port.  As such, the openib BTL (OpenFabrics
support) will be disabled for this port.

  Local host:           d-16-8-3
  Local device:         mlx5_1
  Local port:           1
  CPCs attempted:       rdmacm, udcm
--------------------------------------------------------------------------

*************** JDFTx 1.6.0 (git hash 42ebbcc2) ***************

Start date and time: Sun Feb  6 13:09:09 2022
Executable jdftx with command-line: -i Alkali.in
Running on hosts (process indices):  d-16-8-3 (0-18)
Divided in process groups (process indices):  0 (0)  1 (1)  2 (2)  3 (3)  4 (4)  5 (5)  6 (6)  7 (7)  8 (8)  9 (9)  10 (10)  11 (11)  12 (12)  13 (13)  14 (14)  15 (15)  16 (16)  17 (17)  18 (18)
Resource initialization completed at t[s]:      0.00
Run totals: 19 processes, 48 threads, 0 GPUs


Input parsed successfully to the following command list (including defaults):

basis kpoint-dependent
coords-type Lattice
core-overlap-check vector
coulomb-interaction Slab 001
davidson-band-ratio 1.1
dump End None
dump-name $INPUT.$VAR
elec-cutoff 20
elec-eigen-algo Davidson
elec-ex-corr gga-PBE
elec-initial-magnetization -0.620000 yes
elec-smearing Fermi 1e-05
electronic-minimize  \
	dirUpdateScheme      FletcherReeves \
	linminMethod         DirUpdateRecommended \
	nIterations          100 \
	history              15 \
	knormThreshold       0 \
	energyDiffThreshold  1e-08 \
	nEnergyDiff          2 \
	alphaTstart          1 \
	alphaTmin            1e-10 \
	updateTestStepSize   yes \
	alphaTreduceFactor   0.1 \
	alphaTincreaseFactor 3 \
	nAlphaAdjustMax      3 \
	wolfeEnergy          0.0001 \
	wolfeGradient        0.9 \
	fdTest               no
electronic-scf  \
	nIterations	10000 \
	energyDiffThreshold	1e-08 \
	residualThreshold	1e-07 \
	mixFraction	0.5 \
	qMetric	0.8 \
	history	10 \
	nEigSteps	2 \
	eigDiffThreshold	1e-08 \
	mixedVariable	Density \
	qKerker	0.8 \
	qKappa	-1 \
	verbose	no \
	mixFractionMag	1.5
exchange-regularization WignerSeitzTruncated
fluid None
fluid-ex-corr (null) lda-PZ
fluid-gummel-loop 10 1.000000e-05
fluid-minimize  \
	dirUpdateScheme      PolakRibiere \
	linminMethod         DirUpdateRecommended \
	nIterations          100 \
	history              15 \
	knormThreshold       0 \
	energyDiffThreshold  0 \
	nEnergyDiff          2 \
	alphaTstart          1 \
	alphaTmin            1e-10 \
	updateTestStepSize   yes \
	alphaTreduceFactor   0.1 \
	alphaTincreaseFactor 3 \
	nAlphaAdjustMax      3 \
	wolfeEnergy          0.0001 \
	wolfeGradient        0.9 \
	fdTest               no
fluid-solvent H2O 55.338 ScalarEOS \
	epsBulk 78.4 \
	pMol 0.92466 \
	epsInf 1.77 \
	Pvap 1.06736e-10 \
	sigmaBulk 4.62e-05 \
	Rvdw 2.61727 \
	Res 1.42 \
	tauNuc 343133 \
	poleEl 15 7 1
forces-output-coords Positions
ion Cs   0.000000000000000   0.000000000000000   0.000000000000000 0
ion-species SG15/$ID_ONCV_PBE.upf
ion-width 0
ionic-minimize  \
	dirUpdateScheme      L-BFGS \
	linminMethod         DirUpdateRecommended \
	nIterations          0 \
	history              15 \
	knormThreshold       0.0001 \
	energyDiffThreshold  1e-06 \
	nEnergyDiff          2 \
	alphaTstart          1 \
	alphaTmin            1e-10 \
	updateTestStepSize   yes \
	alphaTreduceFactor   0.1 \
	alphaTincreaseFactor 3 \
	nAlphaAdjustMax      3 \
	wolfeEnergy          0.0001 \
	wolfeGradient        0.9 \
	fdTest               no
kpoint   0.000000000000   0.000000000000   0.000000000000  1.00000000000000
kpoint-folding 12 12 1 
latt-move-scale 1 1 1
latt-scale 2 2 1 
lattice  \
	   4.727486978767153   -2.363743489383575    0.000000000000000  \
	  -0.000000000000000    4.094123819672498    0.000000000000000  \
	   0.000000000000000    0.000000000000000   40.000000000000000 
lattice-minimize  \
	dirUpdateScheme      L-BFGS \
	linminMethod         DirUpdateRecommended \
	nIterations          0 \
	history              15 \
	knormThreshold       0 \
	energyDiffThreshold  1e-06 \
	nEnergyDiff          2 \
	alphaTstart          1 \
	alphaTmin            1e-10 \
	updateTestStepSize   yes \
	alphaTreduceFactor   0.1 \
	alphaTincreaseFactor 3 \
	nAlphaAdjustMax      3 \
	wolfeEnergy          0.0001 \
	wolfeGradient        0.9 \
	fdTest               no
lcao-params -1 1e-06 1e-05
pcm-variant GLSSA13
spintype z-spin
subspace-rotation-factor 1 yes
symmetries automatic
symmetry-threshold 0.0001



---------- Setting up symmetries ----------

Found 24 point-group symmetries of the bravais lattice
Found 24 space-group symmetries with basis
Applied RMS atom displacement 0 bohrs to make symmetries exact.

---------- Initializing the Grid ----------
R = 
[      9.45497     -4.72749            0  ]
[            0      8.18825            0  ]
[            0            0           40  ]
unit cell volume = 3096.79
G =
[   0.664538   0.383671         -0  ]
[          0   0.767342         -0  ]
[         -0         -0    0.15708  ]
Minimum fftbox size, Smin = [  40  40  164  ]
Chosen fftbox size, S = [  40  40  168  ]

---------- Exchange Correlation functional ----------
Initalized PBE GGA exchange.
Initalized PBE GGA correlation.

---------- Setting up pseudopotentials ----------
Width of ionic core gaussian charges (only for fluid interactions / plotting) set to 0

Reading pseudopotential file '/home/gridsan/aligho/DFT/build-Nov24/pseudopotentials/SG15/Cs_ONCV_PBE.upf':
  'Cs' pseudopotential, 'PBE' functional
  Generated using ONCVPSP code by D. R. Hamann
  Author: Martin Schlipf and Francois Gygi  Date: 150915.
  9 valence electrons, 3 orbitals, 6 projectors, 2414 radial grid points, with lMax = 2
  Transforming local potential to a uniform radial grid of dG=0.02 with 1489 points.
  Transforming nonlocal projectors to a uniform radial grid of dG=0.02 with 432 points.
    5S    l: 0   occupation:  2.0   eigenvalue: -0.982388
    5P    l: 1   occupation:  6.0   eigenvalue: -0.496786
    6S    l: 0   occupation:  1.0   eigenvalue: -0.076670
  Transforming atomic orbitals to a uniform radial grid of dG=0.02 with 432 points.
  Core radius for overlap checks: 2.06 bohrs.
  Reading pulay file /home/gridsan/aligho/DFT/build-Nov24/pseudopotentials/SG15/Cs_ONCV_PBE.pulay ... using dE_dnG = -1.008762e-04 computed for Ecut = 20.

Initialized 1 species with 1 total atoms.

Folded 1 k-points by 12x12x1 to 144 k-points.

---------- Setting up k-points, bands, fillings ----------
Reduced to 19 k-points under symmetry. 
Computing the number of bands and number of electrons
Calculating initial fillings.
nElectrons:   9.000000   nBands: 6   nStates: 38

----- Setting up reduced wavefunction bases (one per k-point) -----
average nbasis = 13230.521 , ideal nbasis = 13229.709

---------- Setting up coulomb interaction ----------
Initialized slab truncation along lattice direction 001

---------- Setting up 2D ewald sum ----------
Optimum gaussian width for ewald sums = 5.249020 bohr.
Real space sums over 289 unit cells with max indices [  8  8  0  ]
Reciprocal space sums over 81 terms with max indices [  4  4  0  ]

---------- Allocating electronic variables ----------
Initializing wave functions:  linear combination of atomic orbitals
Note: number of bands (6) exceeds available atomic orbitals (5)
Cs pseudo-atom occupations:   s ( 2 1 )  p ( 6 )
	FillingsUpdate:  mu: -0.094104271  nElectrons: 9.000000  magneticMoment: [ Abs: 0.62000  Tot: -0.62000 ]
LCAOMinimize: Iter:   0  F: -20.1734979861949810  |grad|_K:  2.595e-05  alpha:  1.000e+00
	FillingsUpdate:  mu: -0.094093211  nElectrons: 9.000000  magneticMoment: [ Abs: 0.62000  Tot: -0.62000 ]
LCAOMinimize: Iter:   1  F: -20.1734984371308528  |grad|_K:  2.442e-07  alpha:  9.787e-01  linmin: -3.042e-02  cgtest:  2.564e-01  t[s]:      4.49
LCAOMinimize: Encountered beta<0, resetting CG.
[d-16-8-3:95042] 18 more processes have sent help message help-mpi-common-cuda.txt / dlopen failed
[d-16-8-3:95042] Set MCA parameter "orte_base_help_aggregate" to 0 to see all help / error messages
[d-16-8-3:95042] 18 more processes have sent help message help-mpi-btl-openib-cpc-base.txt / no cpcs for port
	FillingsUpdate:  mu: -0.094093299  nElectrons: 9.000000  magneticMoment: [ Abs: 0.62000  Tot: -0.62000 ]
LCAOMinimize: Iter:   2  F: -20.1734984371709487  |grad|_K:  5.181e-09  alpha:  9.796e-01  linmin: -1.356e-01  cgtest:  9.816e-01  t[s]:      5.67
LCAOMinimize: Encountered beta<0, resetting CG.
LCAOMinimize: Converged (|Delta F|<1.000000e-06 for 2 iters).


---- Citations for features of the code used in this run ----

   Software package:
      R. Sundararaman, K. Letchworth-Weaver, K.A. Schwarz, D. Gunceler, Y. Ozhabes and T.A. Arias, 'JDFTx: software for joint density-functional theory', SoftwareX 6, 278 (2017)

   gga-PBE exchange-correlation functional:
      J.P. Perdew, K. Burke and M. Ernzerhof, Phys. Rev. Lett. 77, 3865 (1996)

   Pseudopotentials:
      M Schlipf and F Gygi, Comput. Phys. Commun. 196, 36 (2015)

   Truncated Coulomb potentials:
      R. Sundararaman and T.A. Arias, Phys. Rev. B 87, 165122 (2013)

This list may not be complete. Please suggest additional citations or
report any other bugs at https://github.com/shankar1729/jdftx/issues

Initialization completed successfully at t[s]:      5.76


-------- Electronic minimization -----------
Will mix electronic density at each iteration.
	FillingsUpdate:  mu: -0.094093299  nElectrons: 9.000000  magneticMoment: [ Abs: 0.62000  Tot: -0.62000 ]
	FillingsUpdate:  mu: -0.108318510  nElectrons: 9.000000  magneticMoment: [ Abs: 0.62000  Tot: -0.62000 ]
SCF: Cycle:  0   F: -20.182698278763226   dF: -9.200e-03   |Residual|: 1.647e-02   |deigs|: 1.880e-01  t[s]:      8.14
	FillingsUpdate:  mu: -0.108631488  nElectrons: 9.000000  magneticMoment: [ Abs: 0.62000  Tot: -0.62000 ]
SCF: Cycle:  1   F: -20.183516988931064   dF: -8.187e-04   |Residual|: 1.250e-02   |deigs|: 5.863e-03  t[s]:      9.91
	FillingsUpdate:  mu: -0.105793316  nElectrons: 9.000000  magneticMoment: [ Abs: 0.62742  Tot: -0.62000 ]
SCF: Cycle:  2   F: -20.183905229312185   dF: -3.882e-04   |Residual|: 6.872e-03   |deigs|: 2.132e-03  t[s]:     11.71
	FillingsUpdate:  mu: -0.103368091  nElectrons: 9.000000  magneticMoment: [ Abs: 0.62000  Tot: -0.62000 ]
SCF: Cycle:  3   F: -20.184085875214311   dF: -1.806e-04   |Residual|: 4.331e-03   |deigs|: 3.116e-03  t[s]:     13.55
	FillingsUpdate:  mu: -0.100485589  nElectrons: 9.000000  magneticMoment: [ Abs: 0.62005  Tot: -0.62000 ]
SCF: Cycle:  4   F: -20.184170887719727   dF: -8.501e-05   |Residual|: 3.211e-03   |deigs|: 3.330e-03  t[s]:     15.40
	FillingsUpdate:  mu: -0.097654312  nElectrons: 9.000000  magneticMoment: [ Abs: 0.62422  Tot: -0.62000 ]
SCF: Cycle:  5   F: -20.184212627138518   dF: -4.174e-05   |Residual|: 2.699e-03   |deigs|: 3.597e-03  t[s]:     17.37
	FillingsUpdate:  mu: -0.094473097  nElectrons: 9.000000  magneticMoment: [ Abs: 0.63417  Tot: -0.62000 ]
SCF: Cycle:  6   F: -20.184208104807741   dF: +4.522e-06   |Residual|: 1.935e-03   |deigs|: 3.779e-03  t[s]:     19.30
	FillingsUpdate:  mu: -0.091724829  nElectrons: 9.000000  magneticMoment: [ Abs: 0.63361  Tot: -0.62000 ]
SCF: Cycle:  7   F: -20.184271469988747   dF: -6.337e-05   |Residual|: 1.650e-03   |deigs|: 3.101e-03  t[s]:     21.28
	FillingsUpdate:  mu: -0.092131913  nElectrons: 9.000000  magneticMoment: [ Abs: 0.62207  Tot: -0.62000 ]
SCF: Cycle:  8   F: -20.184299553129378   dF: -2.808e-05   |Residual|: 1.449e-03   |deigs|: 7.408e-04  t[s]:     23.24
	FillingsUpdate:  mu: -0.089818638  nElectrons: 9.000000  magneticMoment: [ Abs: 0.62426  Tot: -0.62000 ]
SCF: Cycle:  9   F: -20.184289517898893   dF: +1.004e-05   |Residual|: 1.125e-03   |deigs|: 2.416e-03  t[s]:     25.23
	FillingsUpdate:  mu: -0.087739123  nElectrons: 9.000000  magneticMoment: [ Abs: 0.62681  Tot: -0.62000 ]
SCF: Cycle: 10   F: -20.184287999631845   dF: +1.518e-06   |Residual|: 9.106e-04   |deigs|: 2.228e-03  t[s]:     27.28
	FillingsUpdate:  mu: -0.086844770  nElectrons: 9.000000  magneticMoment: [ Abs: 0.62611  Tot: -0.62000 ]
SCF: Cycle: 11   F: -20.184307813899434   dF: -1.981e-05   |Residual|: 8.667e-04   |deigs|: 1.060e-03  t[s]:     29.31
	FillingsUpdate:  mu: -0.085170810  nElectrons: 9.000000  magneticMoment: [ Abs: 0.62788  Tot: -0.62000 ]
SCF: Cycle: 12   F: -20.184328890619618   dF: -2.108e-05   |Residual|: 7.966e-04   |deigs|: 1.770e-03  t[s]:     31.27
	FillingsUpdate:  mu: -0.082673883  nElectrons: 9.000000  magneticMoment: [ Abs: 0.62800  Tot: -0.62000 ]
SCF: Cycle: 13   F: -20.184342068737283   dF: -1.318e-05   |Residual|: 7.086e-04   |deigs|: 2.602e-03  t[s]:     33.30
	FillingsUpdate:  mu: -0.080591126  nElectrons: 9.000000  magneticMoment: [ Abs: 0.62426  Tot: -0.62000 ]
SCF: Cycle: 14   F: -20.184351724174309   dF: -9.655e-06   |Residual|: 6.435e-04   |deigs|: 2.189e-03  t[s]:     35.28
	FillingsUpdate:  mu: -0.079260501  nElectrons: 9.000000  magneticMoment: [ Abs: 0.62122  Tot: -0.62000 ]
SCF: Cycle: 15   F: -20.184360034625531   dF: -8.310e-06   |Residual|: 4.601e-04   |deigs|: 1.436e-03  t[s]:     37.25
	FillingsUpdate:  mu: -0.078262451  nElectrons: 9.000000  magneticMoment: [ Abs: 0.62145  Tot: -0.62000 ]
SCF: Cycle: 16   F: -20.184364857340235   dF: -4.823e-06   |Residual|: 3.416e-04   |deigs|: 1.255e-03  t[s]:     39.26
	FillingsUpdate:  mu: -0.077956986  nElectrons: 9.000000  magneticMoment: [ Abs: 0.62078  Tot: -0.62000 ]
SCF: Cycle: 17   F: -20.184367521140231   dF: -2.664e-06   |Residual|: 2.394e-04   |deigs|: 5.334e-04  t[s]:     41.22
	FillingsUpdate:  mu: -0.078121666  nElectrons: 9.000000  magneticMoment: [ Abs: 0.62145  Tot: -0.62000 ]
SCF: Cycle: 18   F: -20.184368666230274   dF: -1.145e-06   |Residual|: 1.675e-04   |deigs|: 4.584e-04  t[s]:     43.19
	FillingsUpdate:  mu: -0.078207904  nElectrons: 9.000000  magneticMoment: [ Abs: 0.62082  Tot: -0.62000 ]
SCF: Cycle: 19   F: -20.184369869026330   dF: -1.203e-06   |Residual|: 7.794e-05   |deigs|: 3.781e-04  t[s]:     45.14
	FillingsUpdate:  mu: -0.078328877  nElectrons: 9.000000  magneticMoment: [ Abs: 0.62054  Tot: -0.62000 ]
SCF: Cycle: 20   F: -20.184370111210562   dF: -2.422e-07   |Residual|: 4.769e-05   |deigs|: 3.387e-04  t[s]:     47.12
	FillingsUpdate:  mu: -0.078272641  nElectrons: 9.000000  magneticMoment: [ Abs: 0.62055  Tot: -0.62000 ]
SCF: Cycle: 21   F: -20.184370244571660   dF: -1.334e-07   |Residual|: 3.461e-05   |deigs|: 2.287e-04  t[s]:     49.16
	FillingsUpdate:  mu: -0.078316952  nElectrons: 9.000000  magneticMoment: [ Abs: 0.62054  Tot: -0.62000 ]
SCF: Cycle: 22   F: -20.184370331781604   dF: -8.721e-08   |Residual|: 2.433e-05   |deigs|: 2.069e-04  t[s]:     51.16
	FillingsUpdate:  mu: -0.078354020  nElectrons: 9.000000  magneticMoment: [ Abs: 0.62050  Tot: -0.62000 ]
SCF: Cycle: 23   F: -20.184370355900302   dF: -2.412e-08   |Residual|: 1.591e-05   |deigs|: 1.774e-04  t[s]:     53.12
	FillingsUpdate:  mu: -0.078349792  nElectrons: 9.000000  magneticMoment: [ Abs: 0.62048  Tot: -0.62000 ]
SCF: Cycle: 24   F: -20.184370376512501   dF: -2.061e-08   |Residual|: 1.482e-05   |deigs|: 1.764e-04  t[s]:     55.16
	FillingsUpdate:  mu: -0.078335308  nElectrons: 9.000000  magneticMoment: [ Abs: 0.62042  Tot: -0.62000 ]
SCF: Cycle: 25   F: -20.184370398546083   dF: -2.203e-08   |Residual|: 1.232e-05   |deigs|: 1.831e-04  t[s]:     57.14
	FillingsUpdate:  mu: -0.078308954  nElectrons: 9.000000  magneticMoment: [ Abs: 0.62037  Tot: -0.62000 ]
SCF: Cycle: 26   F: -20.184370407274688   dF: -8.729e-09   |Residual|: 1.067e-05   |deigs|: 1.372e-04  t[s]:     59.12
	FillingsUpdate:  mu: -0.078289234  nElectrons: 9.000000  magneticMoment: [ Abs: 0.62033  Tot: -0.62000 ]
SCF: Cycle: 27   F: -20.184370410948901   dF: -3.674e-09   |Residual|: 7.404e-06   |deigs|: 6.113e-04  t[s]:     61.12
SCF: Converged (|Delta E|<1.000000e-08 for 2 iters).


# Ionic positions in lattice coordinates:
ion Cs   0.000000000000000   0.000000000000000   0.000000000000000 0

# Forces in Lattice coordinates:
force Cs   0.000000000000000   0.000000000000000   0.000000000000000 0

# Energy components:
   Eewald =      -18.0480261003326561
       EH =       -1.7799600200228911
     Eloc =       -5.8007063518374844
      Enl =        3.4388198100603700
   Epulay =        0.0000000264484078
      Exc =       -3.1495000481590241
       KE =        5.1550030788030829
-------------------------------------
     Etot =      -20.1843696050401924
       TS =        0.0000008059087085
-------------------------------------
        F =      -20.1843704109489011

IonicMinimize: Iter:   0  F: -20.184370410948901  |grad|_K:  0.000e+00  t[s]:     61.24
IonicMinimize: Converged (|grad|_K<1.000000e-04).

#--- Lowdin population analysis ---
# oxidation-state Cs +0.099
# magnetic-moments Cs -0.529

End date and time: Sun Feb  6 13:10:10 2022  (Duration: 0-0:01:01.26)
Done!
scale=3
magnetization=-0.62
--------------------------------------------------------------------------
The library attempted to open the following supporting CUDA libraries,
but each of them failed.  CUDA-aware support is disabled.
libcuda.so.1: cannot open shared object file: No such file or directory
libcuda.dylib: cannot open shared object file: No such file or directory
/usr/lib64/libcuda.so.1: cannot open shared object file: No such file or directory
/usr/lib64/libcuda.dylib: cannot open shared object file: No such file or directory
If you are not interested in CUDA-aware support, then run with
--mca opal_warn_on_missing_libcuda 0 to suppress this message.  If you are interested
in CUDA-aware support, then try setting LD_LIBRARY_PATH to the location
of libcuda.so.1 to get passed this issue.
--------------------------------------------------------------------------
--------------------------------------------------------------------------
No OpenFabrics connection schemes reported that they were able to be
used on a specific port.  As such, the openib BTL (OpenFabrics
support) will be disabled for this port.

  Local host:           d-16-8-3
  Local device:         mlx5_1
  Local port:           1
  CPCs attempted:       rdmacm, udcm
--------------------------------------------------------------------------

*************** JDFTx 1.6.0 (git hash 42ebbcc2) ***************

Start date and time: Sun Feb  6 13:10:11 2022
Executable jdftx with command-line: -i Alkali.in
Running on hosts (process indices):  d-16-8-3 (0-18)
Divided in process groups (process indices):  0 (0)  1 (1)  2 (2)  3 (3)  4 (4)  5 (5)  6 (6)  7 (7)  8 (8)  9 (9)  10 (10)  11 (11)  12 (12)  13 (13)  14 (14)  15 (15)  16 (16)  17 (17)  18 (18)
Resource initialization completed at t[s]:      0.00
Run totals: 19 processes, 48 threads, 0 GPUs


Input parsed successfully to the following command list (including defaults):

basis kpoint-dependent
coords-type Lattice
core-overlap-check vector
coulomb-interaction Slab 001
davidson-band-ratio 1.1
dump End None
dump-name $INPUT.$VAR
elec-cutoff 20
elec-eigen-algo Davidson
elec-ex-corr gga-PBE
elec-initial-magnetization -0.620000 yes
elec-smearing Fermi 1e-05
electronic-minimize  \
	dirUpdateScheme      FletcherReeves \
	linminMethod         DirUpdateRecommended \
	nIterations          100 \
	history              15 \
	knormThreshold       0 \
	energyDiffThreshold  1e-08 \
	nEnergyDiff          2 \
	alphaTstart          1 \
	alphaTmin            1e-10 \
	updateTestStepSize   yes \
	alphaTreduceFactor   0.1 \
	alphaTincreaseFactor 3 \
	nAlphaAdjustMax      3 \
	wolfeEnergy          0.0001 \
	wolfeGradient        0.9 \
	fdTest               no
electronic-scf  \
	nIterations	10000 \
	energyDiffThreshold	1e-08 \
	residualThreshold	1e-07 \
	mixFraction	0.5 \
	qMetric	0.8 \
	history	10 \
	nEigSteps	2 \
	eigDiffThreshold	1e-08 \
	mixedVariable	Density \
	qKerker	0.8 \
	qKappa	-1 \
	verbose	no \
	mixFractionMag	1.5
exchange-regularization WignerSeitzTruncated
fluid None
fluid-ex-corr (null) lda-PZ
fluid-gummel-loop 10 1.000000e-05
fluid-minimize  \
	dirUpdateScheme      PolakRibiere \
	linminMethod         DirUpdateRecommended \
	nIterations          100 \
	history              15 \
	knormThreshold       0 \
	energyDiffThreshold  0 \
	nEnergyDiff          2 \
	alphaTstart          1 \
	alphaTmin            1e-10 \
	updateTestStepSize   yes \
	alphaTreduceFactor   0.1 \
	alphaTincreaseFactor 3 \
	nAlphaAdjustMax      3 \
	wolfeEnergy          0.0001 \
	wolfeGradient        0.9 \
	fdTest               no
fluid-solvent H2O 55.338 ScalarEOS \
	epsBulk 78.4 \
	pMol 0.92466 \
	epsInf 1.77 \
	Pvap 1.06736e-10 \
	sigmaBulk 4.62e-05 \
	Rvdw 2.61727 \
	Res 1.42 \
	tauNuc 343133 \
	poleEl 15 7 1
forces-output-coords Positions
ion Cs   0.000000000000000   0.000000000000000   0.000000000000000 0
ion-species SG15/$ID_ONCV_PBE.upf
ion-width 0
ionic-minimize  \
	dirUpdateScheme      L-BFGS \
	linminMethod         DirUpdateRecommended \
	nIterations          0 \
	history              15 \
	knormThreshold       0.0001 \
	energyDiffThreshold  1e-06 \
	nEnergyDiff          2 \
	alphaTstart          1 \
	alphaTmin            1e-10 \
	updateTestStepSize   yes \
	alphaTreduceFactor   0.1 \
	alphaTincreaseFactor 3 \
	nAlphaAdjustMax      3 \
	wolfeEnergy          0.0001 \
	wolfeGradient        0.9 \
	fdTest               no
kpoint   0.000000000000   0.000000000000   0.000000000000  1.00000000000000
kpoint-folding 12 12 1 
latt-move-scale 1 1 1
latt-scale 3 3 1 
lattice  \
	   4.727486978767153   -2.363743489383575    0.000000000000000  \
	  -0.000000000000000    4.094123819672498    0.000000000000000  \
	   0.000000000000000    0.000000000000000   40.000000000000000 
lattice-minimize  \
	dirUpdateScheme      L-BFGS \
	linminMethod         DirUpdateRecommended \
	nIterations          0 \
	history              15 \
	knormThreshold       0 \
	energyDiffThreshold  1e-06 \
	nEnergyDiff          2 \
	alphaTstart          1 \
	alphaTmin            1e-10 \
	updateTestStepSize   yes \
	alphaTreduceFactor   0.1 \
	alphaTincreaseFactor 3 \
	nAlphaAdjustMax      3 \
	wolfeEnergy          0.0001 \
	wolfeGradient        0.9 \
	fdTest               no
lcao-params -1 1e-06 1e-05
pcm-variant GLSSA13
spintype z-spin
subspace-rotation-factor 1 yes
symmetries automatic
symmetry-threshold 0.0001



---------- Setting up symmetries ----------

Found 24 point-group symmetries of the bravais lattice
Found 24 space-group symmetries with basis
Applied RMS atom displacement 0 bohrs to make symmetries exact.

---------- Initializing the Grid ----------
R = 
[      14.1825     -7.09123            0  ]
[            0      12.2824            0  ]
[            0            0           40  ]
unit cell volume = 6967.77
G =
[   0.443025   0.255781         -0  ]
[          0   0.511561         -0  ]
[         -0         -0    0.15708  ]
Minimum fftbox size, Smin = [  60  60  164  ]
Chosen fftbox size, S = [  60  60  168  ]

---------- Exchange Correlation functional ----------
Initalized PBE GGA exchange.
Initalized PBE GGA correlation.

---------- Setting up pseudopotentials ----------
Width of ionic core gaussian charges (only for fluid interactions / plotting) set to 0

Reading pseudopotential file '/home/gridsan/aligho/DFT/build-Nov24/pseudopotentials/SG15/Cs_ONCV_PBE.upf':
  'Cs' pseudopotential, 'PBE' functional
  Generated using ONCVPSP code by D. R. Hamann
  Author: Martin Schlipf and Francois Gygi  Date: 150915.
  9 valence electrons, 3 orbitals, 6 projectors, 2414 radial grid points, with lMax = 2
  Transforming local potential to a uniform radial grid of dG=0.02 with 1489 points.
  Transforming nonlocal projectors to a uniform radial grid of dG=0.02 with 432 points.
    5S    l: 0   occupation:  2.0   eigenvalue: -0.982388
    5P    l: 1   occupation:  6.0   eigenvalue: -0.496786
    6S    l: 0   occupation:  1.0   eigenvalue: -0.076670
  Transforming atomic orbitals to a uniform radial grid of dG=0.02 with 432 points.
  Core radius for overlap checks: 2.06 bohrs.
  Reading pulay file /home/gridsan/aligho/DFT/build-Nov24/pseudopotentials/SG15/Cs_ONCV_PBE.pulay ... using dE_dnG = -1.008762e-04 computed for Ecut = 20.

Initialized 1 species with 1 total atoms.

Folded 1 k-points by 12x12x1 to 144 k-points.

---------- Setting up k-points, bands, fillings ----------
Reduced to 19 k-points under symmetry. 
Computing the number of bands and number of electrons
Calculating initial fillings.
nElectrons:   9.000000   nBands: 6   nStates: 38

----- Setting up reduced wavefunction bases (one per k-point) -----
average nbasis = 29766.104 , ideal nbasis = 29766.845

---------- Setting up coulomb interaction ----------
Initialized slab truncation along lattice direction 001

---------- Setting up 2D ewald sum ----------
Optimum gaussian width for ewald sums = 7.873530 bohr.
Real space sums over 289 unit cells with max indices [  8  8  0  ]
Reciprocal space sums over 81 terms with max indices [  4  4  0  ]

---------- Allocating electronic variables ----------
Initializing wave functions:  linear combination of atomic orbitals
Note: number of bands (6) exceeds available atomic orbitals (5)
Cs pseudo-atom occupations:   s ( 2 1 )  p ( 6 )
[d-16-8-3:73453] 18 more processes have sent help message help-mpi-common-cuda.txt / dlopen failed
[d-16-8-3:73453] Set MCA parameter "orte_base_help_aggregate" to 0 to see all help / error messages
[d-16-8-3:73453] 18 more processes have sent help message help-mpi-btl-openib-cpc-base.txt / no cpcs for port
	FillingsUpdate:  mu: -0.081747734  nElectrons: 9.000000  magneticMoment: [ Abs: 0.62000  Tot: -0.62000 ]
LCAOMinimize: Iter:   0  F: -20.1730564027434056  |grad|_K:  1.576e-05  alpha:  1.000e+00
	FillingsUpdate:  mu: -0.081745100  nElectrons: 9.000000  magneticMoment: [ Abs: 0.62000  Tot: -0.62000 ]
LCAOMinimize: Iter:   1  F: -20.1730565710759500  |grad|_K:  1.036e-07  alpha:  9.907e-01  linmin: -1.910e-02  cgtest:  3.254e-01  t[s]:      8.70
LCAOMinimize: Encountered beta<0, resetting CG.
	FillingsUpdate:  mu: -0.081745113  nElectrons: 9.000000  magneticMoment: [ Abs: 0.62000  Tot: -0.62000 ]
LCAOMinimize: Iter:   2  F: -20.1730565710835492  |grad|_K:  2.627e-09  alpha:  1.025e+00  linmin:  1.300e-01  cgtest: -9.873e-01  t[s]:     11.05
LCAOMinimize: Converged (|Delta F|<1.000000e-06 for 2 iters).


---- Citations for features of the code used in this run ----

   Software package:
      R. Sundararaman, K. Letchworth-Weaver, K.A. Schwarz, D. Gunceler, Y. Ozhabes and T.A. Arias, 'JDFTx: software for joint density-functional theory', SoftwareX 6, 278 (2017)

   gga-PBE exchange-correlation functional:
      J.P. Perdew, K. Burke and M. Ernzerhof, Phys. Rev. Lett. 77, 3865 (1996)

   Pseudopotentials:
      M Schlipf and F Gygi, Comput. Phys. Commun. 196, 36 (2015)

   Truncated Coulomb potentials:
      R. Sundararaman and T.A. Arias, Phys. Rev. B 87, 165122 (2013)

This list may not be complete. Please suggest additional citations or
report any other bugs at https://github.com/shankar1729/jdftx/issues

Initialization completed successfully at t[s]:     11.21


-------- Electronic minimization -----------
Will mix electronic density at each iteration.
	FillingsUpdate:  mu: -0.081745113  nElectrons: 9.000000  magneticMoment: [ Abs: 0.62000  Tot: -0.62000 ]
	FillingsUpdate:  mu: -0.083795792  nElectrons: 9.000000  magneticMoment: [ Abs: 0.62000  Tot: -0.62000 ]
SCF: Cycle:  0   F: -20.175572889787276   dF: -2.516e-03   |Residual|: 5.283e-03   |deigs|: 1.734e-01  t[s]:     15.97
	FillingsUpdate:  mu: -0.084105619  nElectrons: 9.000000  magneticMoment: [ Abs: 0.62005  Tot: -0.62000 ]
SCF: Cycle:  1   F: -20.175752711836402   dF: -1.798e-04   |Residual|: 4.595e-03   |deigs|: 4.949e-03  t[s]:     19.65
	FillingsUpdate:  mu: -0.084317179  nElectrons: 9.000000  magneticMoment: [ Abs: 0.62157  Tot: -0.62000 ]
SCF: Cycle:  2   F: -20.175847509968580   dF: -9.480e-05   |Residual|: 3.368e-03   |deigs|: 2.692e-03  t[s]:     23.43
	FillingsUpdate:  mu: -0.084427866  nElectrons: 9.000000  magneticMoment: [ Abs: 0.62297  Tot: -0.62000 ]
SCF: Cycle:  3   F: -20.175905505012341   dF: -5.800e-05   |Residual|: 2.516e-03   |deigs|: 1.460e-03  t[s]:     27.32
	FillingsUpdate:  mu: -0.084138738  nElectrons: 9.000000  magneticMoment: [ Abs: 0.62043  Tot: -0.62000 ]
SCF: Cycle:  4   F: -20.175927960742893   dF: -2.246e-05   |Residual|: 1.200e-03   |deigs|: 1.550e-03  t[s]:     31.18
	FillingsUpdate:  mu: -0.084089957  nElectrons: 9.000000  magneticMoment: [ Abs: 0.62079  Tot: -0.62000 ]
SCF: Cycle:  5   F: -20.175943106933257   dF: -1.515e-05   |Residual|: 8.218e-04   |deigs|: 8.174e-04  t[s]:     35.15
	FillingsUpdate:  mu: -0.083951691  nElectrons: 9.000000  magneticMoment: [ Abs: 0.62105  Tot: -0.62000 ]
SCF: Cycle:  6   F: -20.175952318383864   dF: -9.211e-06   |Residual|: 6.346e-04   |deigs|: 4.896e-04  t[s]:     39.17
	FillingsUpdate:  mu: -0.083580452  nElectrons: 9.000000  magneticMoment: [ Abs: 0.62140  Tot: -0.62000 ]
SCF: Cycle:  7   F: -20.175954075755712   dF: -1.757e-06   |Residual|: 5.484e-04   |deigs|: 4.433e-04  t[s]:     43.18
	FillingsUpdate:  mu: -0.082822024  nElectrons: 9.000000  magneticMoment: [ Abs: 0.62371  Tot: -0.62000 ]
SCF: Cycle:  8   F: -20.175950555328935   dF: +3.520e-06   |Residual|: 4.107e-04   |deigs|: 8.522e-04  t[s]:     47.29
	FillingsUpdate:  mu: -0.082089473  nElectrons: 9.000000  magneticMoment: [ Abs: 0.62355  Tot: -0.62000 ]
SCF: Cycle:  9   F: -20.175950147811967   dF: +4.075e-07   |Residual|: 3.981e-04   |deigs|: 9.322e-04  t[s]:     51.47
	FillingsUpdate:  mu: -0.082031723  nElectrons: 9.000000  magneticMoment: [ Abs: 0.62199  Tot: -0.62000 ]
SCF: Cycle: 10   F: -20.175956221141952   dF: -6.073e-06   |Residual|: 2.946e-04   |deigs|: 3.594e-04  t[s]:     55.80
	FillingsUpdate:  mu: -0.081689506  nElectrons: 9.000000  magneticMoment: [ Abs: 0.62443  Tot: -0.62000 ]
SCF: Cycle: 11   F: -20.175958089270587   dF: -1.868e-06   |Residual|: 2.589e-04   |deigs|: 5.613e-04  t[s]:     60.05
	FillingsUpdate:  mu: -0.081130631  nElectrons: 9.000000  magneticMoment: [ Abs: 0.62430  Tot: -0.62000 ]
SCF: Cycle: 12   F: -20.175957494274094   dF: +5.950e-07   |Residual|: 2.535e-04   |deigs|: 5.902e-04  t[s]:     64.29
	FillingsUpdate:  mu: -0.080636821  nElectrons: 9.000000  magneticMoment: [ Abs: 0.62266  Tot: -0.62000 ]
SCF: Cycle: 13   F: -20.175956762138117   dF: +7.321e-07   |Residual|: 2.380e-04   |deigs|: 6.532e-04  t[s]:     68.50
	FillingsUpdate:  mu: -0.080546956  nElectrons: 9.000000  magneticMoment: [ Abs: 0.62301  Tot: -0.62000 ]
SCF: Cycle: 14   F: -20.175959411645600   dF: -2.650e-06   |Residual|: 2.149e-04   |deigs|: 3.374e-04  t[s]:     72.74
	FillingsUpdate:  mu: -0.080116628  nElectrons: 9.000000  magneticMoment: [ Abs: 0.62204  Tot: -0.62000 ]
SCF: Cycle: 15   F: -20.175962130460515   dF: -2.719e-06   |Residual|: 1.557e-04   |deigs|: 5.099e-04  t[s]:     76.99
	FillingsUpdate:  mu: -0.079667256  nElectrons: 9.000000  magneticMoment: [ Abs: 0.62139  Tot: -0.62000 ]
SCF: Cycle: 16   F: -20.175963155078414   dF: -1.025e-06   |Residual|: 1.098e-04   |deigs|: 5.011e-04  t[s]:     81.18
	FillingsUpdate:  mu: -0.079659471  nElectrons: 9.000000  magneticMoment: [ Abs: 0.62100  Tot: -0.62000 ]
SCF: Cycle: 17   F: -20.175963480421942   dF: -3.253e-07   |Residual|: 8.586e-05   |deigs|: 2.401e-04  t[s]:     85.37
	FillingsUpdate:  mu: -0.079713240  nElectrons: 9.000000  magneticMoment: [ Abs: 0.62098  Tot: -0.62000 ]
SCF: Cycle: 18   F: -20.175963763465042   dF: -2.830e-07   |Residual|: 5.651e-05   |deigs|: 2.276e-04  t[s]:     89.61
	FillingsUpdate:  mu: -0.079703459  nElectrons: 9.000000  magneticMoment: [ Abs: 0.62104  Tot: -0.62000 ]
SCF: Cycle: 19   F: -20.175963889688617   dF: -1.262e-07   |Residual|: 3.795e-05   |deigs|: 1.448e-04  t[s]:     93.86
	FillingsUpdate:  mu: -0.079713035  nElectrons: 9.000000  magneticMoment: [ Abs: 0.62108  Tot: -0.62000 ]
SCF: Cycle: 20   F: -20.175963961530115   dF: -7.184e-08   |Residual|: 2.015e-05   |deigs|: 1.029e-04  t[s]:     98.13
	FillingsUpdate:  mu: -0.079703940  nElectrons: 9.000000  magneticMoment: [ Abs: 0.62108  Tot: -0.62000 ]
SCF: Cycle: 21   F: -20.175963980794357   dF: -1.926e-08   |Residual|: 1.748e-05   |deigs|: 1.396e-04  t[s]:    102.32
	FillingsUpdate:  mu: -0.079710502  nElectrons: 9.000000  magneticMoment: [ Abs: 0.62110  Tot: -0.62000 ]
SCF: Cycle: 22   F: -20.175964000014041   dF: -1.922e-08   |Residual|: 1.264e-05   |deigs|: 8.316e-05  t[s]:    106.50
	FillingsUpdate:  mu: -0.079720436  nElectrons: 9.000000  magneticMoment: [ Abs: 0.62108  Tot: -0.62000 ]
SCF: Cycle: 23   F: -20.175964004597617   dF: -4.584e-09   |Residual|: 7.744e-06   |deigs|: 5.962e-05  t[s]:    110.75
	FillingsUpdate:  mu: -0.079718647  nElectrons: 9.000000  magneticMoment: [ Abs: 0.62109  Tot: -0.62000 ]
SCF: Cycle: 24   F: -20.175964013726684   dF: -9.129e-09   |Residual|: 6.393e-06   |deigs|: 5.130e-05  t[s]:    114.93
SCF: Converged (|Delta E|<1.000000e-08 for 2 iters).


# Ionic positions in lattice coordinates:
ion Cs   0.000000000000000   0.000000000000000   0.000000000000000 0

# Forces in Lattice coordinates:
force Cs   0.000000000000000  -0.000000000000000   0.000000000000000 0

# Energy components:
   Eewald =      -12.0320174002217755
       EH =        4.0209219547082835
     Eloc =      -17.5910677024721060
      Enl =        3.4320268593993744
   Epulay =       -0.0000000107257212
      Exc =       -3.1103056047094277
       KE =        5.1044789477732078
-------------------------------------
     Etot =      -20.1759629562481635
       TS =        0.0000010574785198
-------------------------------------
        F =      -20.1759640137266842

IonicMinimize: Iter:   0  F: -20.175964013726684  |grad|_K:  0.000e+00  t[s]:    115.19
IonicMinimize: Converged (|grad|_K<1.000000e-04).

#--- Lowdin population analysis ---
# oxidation-state Cs +0.066
# magnetic-moments Cs -0.560

End date and time: Sun Feb  6 13:12:07 2022  (Duration: 0-0:01:55.23)
Done!
scale=4
magnetization=-0.62
--------------------------------------------------------------------------
The library attempted to open the following supporting CUDA libraries,
but each of them failed.  CUDA-aware support is disabled.
libcuda.so.1: cannot open shared object file: No such file or directory
libcuda.dylib: cannot open shared object file: No such file or directory
/usr/lib64/libcuda.so.1: cannot open shared object file: No such file or directory
/usr/lib64/libcuda.dylib: cannot open shared object file: No such file or directory
If you are not interested in CUDA-aware support, then run with
--mca opal_warn_on_missing_libcuda 0 to suppress this message.  If you are interested
in CUDA-aware support, then try setting LD_LIBRARY_PATH to the location
of libcuda.so.1 to get passed this issue.
--------------------------------------------------------------------------
--------------------------------------------------------------------------
No OpenFabrics connection schemes reported that they were able to be
used on a specific port.  As such, the openib BTL (OpenFabrics
support) will be disabled for this port.

  Local host:           d-16-8-3
  Local device:         mlx5_1
  Local port:           1
  CPCs attempted:       rdmacm, udcm
--------------------------------------------------------------------------

*************** JDFTx 1.6.0 (git hash 42ebbcc2) ***************

Start date and time: Sun Feb  6 13:12:08 2022
Executable jdftx with command-line: -i Alkali.in
Running on hosts (process indices):  d-16-8-3 (0-18)
Divided in process groups (process indices):  0 (0)  1 (1)  2 (2)  3 (3)  4 (4)  5 (5)  6 (6)  7 (7)  8 (8)  9 (9)  10 (10)  11 (11)  12 (12)  13 (13)  14 (14)  15 (15)  16 (16)  17 (17)  18 (18)
Resource initialization completed at t[s]:      0.00
Run totals: 19 processes, 48 threads, 0 GPUs


Input parsed successfully to the following command list (including defaults):

basis kpoint-dependent
coords-type Lattice
core-overlap-check vector
coulomb-interaction Slab 001
davidson-band-ratio 1.1
dump End None
dump-name $INPUT.$VAR
elec-cutoff 20
elec-eigen-algo Davidson
elec-ex-corr gga-PBE
elec-initial-magnetization -0.620000 yes
elec-smearing Fermi 1e-05
electronic-minimize  \
	dirUpdateScheme      FletcherReeves \
	linminMethod         DirUpdateRecommended \
	nIterations          100 \
	history              15 \
	knormThreshold       0 \
	energyDiffThreshold  1e-08 \
	nEnergyDiff          2 \
	alphaTstart          1 \
	alphaTmin            1e-10 \
	updateTestStepSize   yes \
	alphaTreduceFactor   0.1 \
	alphaTincreaseFactor 3 \
	nAlphaAdjustMax      3 \
	wolfeEnergy          0.0001 \
	wolfeGradient        0.9 \
	fdTest               no
electronic-scf  \
	nIterations	10000 \
	energyDiffThreshold	1e-08 \
	residualThreshold	1e-07 \
	mixFraction	0.5 \
	qMetric	0.8 \
	history	10 \
	nEigSteps	2 \
	eigDiffThreshold	1e-08 \
	mixedVariable	Density \
	qKerker	0.8 \
	qKappa	-1 \
	verbose	no \
	mixFractionMag	1.5
exchange-regularization WignerSeitzTruncated
fluid None
fluid-ex-corr (null) lda-PZ
fluid-gummel-loop 10 1.000000e-05
fluid-minimize  \
	dirUpdateScheme      PolakRibiere \
	linminMethod         DirUpdateRecommended \
	nIterations          100 \
	history              15 \
	knormThreshold       0 \
	energyDiffThreshold  0 \
	nEnergyDiff          2 \
	alphaTstart          1 \
	alphaTmin            1e-10 \
	updateTestStepSize   yes \
	alphaTreduceFactor   0.1 \
	alphaTincreaseFactor 3 \
	nAlphaAdjustMax      3 \
	wolfeEnergy          0.0001 \
	wolfeGradient        0.9 \
	fdTest               no
fluid-solvent H2O 55.338 ScalarEOS \
	epsBulk 78.4 \
	pMol 0.92466 \
	epsInf 1.77 \
	Pvap 1.06736e-10 \
	sigmaBulk 4.62e-05 \
	Rvdw 2.61727 \
	Res 1.42 \
	tauNuc 343133 \
	poleEl 15 7 1
forces-output-coords Positions
ion Cs   0.000000000000000   0.000000000000000   0.000000000000000 0
ion-species SG15/$ID_ONCV_PBE.upf
ion-width 0
ionic-minimize  \
	dirUpdateScheme      L-BFGS \
	linminMethod         DirUpdateRecommended \
	nIterations          0 \
	history              15 \
	knormThreshold       0.0001 \
	energyDiffThreshold  1e-06 \
	nEnergyDiff          2 \
	alphaTstart          1 \
	alphaTmin            1e-10 \
	updateTestStepSize   yes \
	alphaTreduceFactor   0.1 \
	alphaTincreaseFactor 3 \
	nAlphaAdjustMax      3 \
	wolfeEnergy          0.0001 \
	wolfeGradient        0.9 \
	fdTest               no
kpoint   0.000000000000   0.000000000000   0.000000000000  1.00000000000000
kpoint-folding 12 12 1 
latt-move-scale 1 1 1
latt-scale 4 4 1 
lattice  \
	   4.727486978767153   -2.363743489383575    0.000000000000000  \
	  -0.000000000000000    4.094123819672498    0.000000000000000  \
	   0.000000000000000    0.000000000000000   40.000000000000000 
lattice-minimize  \
	dirUpdateScheme      L-BFGS \
	linminMethod         DirUpdateRecommended \
	nIterations          0 \
	history              15 \
	knormThreshold       0 \
	energyDiffThreshold  1e-06 \
	nEnergyDiff          2 \
	alphaTstart          1 \
	alphaTmin            1e-10 \
	updateTestStepSize   yes \
	alphaTreduceFactor   0.1 \
	alphaTincreaseFactor 3 \
	nAlphaAdjustMax      3 \
	wolfeEnergy          0.0001 \
	wolfeGradient        0.9 \
	fdTest               no
lcao-params -1 1e-06 1e-05
pcm-variant GLSSA13
spintype z-spin
subspace-rotation-factor 1 yes
symmetries automatic
symmetry-threshold 0.0001



---------- Setting up symmetries ----------

Found 24 point-group symmetries of the bravais lattice
Found 24 space-group symmetries with basis
Applied RMS atom displacement 0 bohrs to make symmetries exact.

---------- Initializing the Grid ----------
R = 
[      18.9099     -9.45497            0  ]
[            0      16.3765            0  ]
[            0            0           40  ]
unit cell volume = 12387.1
G =
[   0.332269   0.191835         -0  ]
[          0   0.383671         -0  ]
[         -0         -0    0.15708  ]
Minimum fftbox size, Smin = [  80  80  164  ]
Chosen fftbox size, S = [  80  80  168  ]

---------- Exchange Correlation functional ----------
Initalized PBE GGA exchange.
Initalized PBE GGA correlation.

---------- Setting up pseudopotentials ----------
Width of ionic core gaussian charges (only for fluid interactions / plotting) set to 0

Reading pseudopotential file '/home/gridsan/aligho/DFT/build-Nov24/pseudopotentials/SG15/Cs_ONCV_PBE.upf':
  'Cs' pseudopotential, 'PBE' functional
  Generated using ONCVPSP code by D. R. Hamann
  Author: Martin Schlipf and Francois Gygi  Date: 150915.
  9 valence electrons, 3 orbitals, 6 projectors, 2414 radial grid points, with lMax = 2
  Transforming local potential to a uniform radial grid of dG=0.02 with 1489 points.
  Transforming nonlocal projectors to a uniform radial grid of dG=0.02 with 432 points.
    5S    l: 0   occupation:  2.0   eigenvalue: -0.982388
    5P    l: 1   occupation:  6.0   eigenvalue: -0.496786
    6S    l: 0   occupation:  1.0   eigenvalue: -0.076670
  Transforming atomic orbitals to a uniform radial grid of dG=0.02 with 432 points.
  Core radius for overlap checks: 2.06 bohrs.
  Reading pulay file /home/gridsan/aligho/DFT/build-Nov24/pseudopotentials/SG15/Cs_ONCV_PBE.pulay ... using dE_dnG = -1.008762e-04 computed for Ecut = 20.

Initialized 1 species with 1 total atoms.

Folded 1 k-points by 12x12x1 to 144 k-points.

---------- Setting up k-points, bands, fillings ----------
Reduced to 19 k-points under symmetry. 
Computing the number of bands and number of electrons
Calculating initial fillings.
nElectrons:   9.000000   nBands: 6   nStates: 38

----- Setting up reduced wavefunction bases (one per k-point) -----
average nbasis = 52924.021 , ideal nbasis = 52918.836

---------- Setting up coulomb interaction ----------
Initialized slab truncation along lattice direction 001

---------- Setting up 2D ewald sum ----------
Optimum gaussian width for ewald sums = 10.498040 bohr.
Real space sums over 289 unit cells with max indices [  8  8  0  ]
Reciprocal space sums over 81 terms with max indices [  4  4  0  ]

---------- Allocating electronic variables ----------
Initializing wave functions:  linear combination of atomic orbitals
Note: number of bands (6) exceeds available atomic orbitals (5)
Cs pseudo-atom occupations:   s ( 2 1 )  p ( 6 )
[d-16-8-3:41449] 18 more processes have sent help message help-mpi-common-cuda.txt / dlopen failed
[d-16-8-3:41449] Set MCA parameter "orte_base_help_aggregate" to 0 to see all help / error messages
[d-16-8-3:41449] 18 more processes have sent help message help-mpi-btl-openib-cpc-base.txt / no cpcs for port
	FillingsUpdate:  mu: -0.077899983  nElectrons: 9.000000  magneticMoment: [ Abs: 0.62000  Tot: -0.62000 ]
LCAOMinimize: Iter:   0  F: -20.1685776656937179  |grad|_K:  4.838e-06  alpha:  1.000e+00
	FillingsUpdate:  mu: -0.077899007  nElectrons: 9.000000  magneticMoment: [ Abs: 0.62000  Tot: -0.62000 ]
LCAOMinimize: Iter:   1  F: -20.1685776815625317  |grad|_K:  2.325e-08  alpha:  9.913e-01  linmin: -8.410e-04  cgtest:  2.060e-01  t[s]:     14.83
LCAOMinimize: Encountered beta<0, resetting CG.
LCAOMinimize: 	Step increased F by 9.059420e-13, reducing alpha to 2.923032e-01.
	FillingsUpdate:  mu: -0.077899008  nElectrons: 9.000000  magneticMoment: [ Abs: 0.62000  Tot: -0.62000 ]
LCAOMinimize: Iter:   2  F: -20.1685776815628692  |grad|_K:  1.645e-08  alpha:  2.923e-01  linmin: -5.712e-03  cgtest:  1.000e+00  t[s]:     21.12
LCAOMinimize: Encountered beta<0, resetting CG.
LCAOMinimize: Converged (|Delta F|<1.000000e-06 for 2 iters).


---- Citations for features of the code used in this run ----

   Software package:
      R. Sundararaman, K. Letchworth-Weaver, K.A. Schwarz, D. Gunceler, Y. Ozhabes and T.A. Arias, 'JDFTx: software for joint density-functional theory', SoftwareX 6, 278 (2017)

   gga-PBE exchange-correlation functional:
      J.P. Perdew, K. Burke and M. Ernzerhof, Phys. Rev. Lett. 77, 3865 (1996)

   Pseudopotentials:
      M Schlipf and F Gygi, Comput. Phys. Commun. 196, 36 (2015)

   Truncated Coulomb potentials:
      R. Sundararaman and T.A. Arias, Phys. Rev. B 87, 165122 (2013)

This list may not be complete. Please suggest additional citations or
report any other bugs at https://github.com/shankar1729/jdftx/issues

Initialization completed successfully at t[s]:     21.37


-------- Electronic minimization -----------
Will mix electronic density at each iteration.
	FillingsUpdate:  mu: -0.077899008  nElectrons: 9.000000  magneticMoment: [ Abs: 0.62000  Tot: -0.62000 ]
	FillingsUpdate:  mu: -0.078056452  nElectrons: 9.000000  magneticMoment: [ Abs: 0.62000  Tot: -0.62000 ]
SCF: Cycle:  0   F: -20.168758382711140   dF: -1.807e-04   |Residual|: 1.346e-03   |deigs|: 1.739e-01  t[s]:     29.41
	FillingsUpdate:  mu: -0.078078239  nElectrons: 9.000000  magneticMoment: [ Abs: 0.62329  Tot: -0.62000 ]
SCF: Cycle:  1   F: -20.168765197285801   dF: -6.815e-06   |Residual|: 5.732e-04   |deigs|: 5.213e-03  t[s]:     35.82
	FillingsUpdate:  mu: -0.078098539  nElectrons: 9.000000  magneticMoment: [ Abs: 0.62346  Tot: -0.62000 ]
SCF: Cycle:  2   F: -20.168767403298791   dF: -2.206e-06   |Residual|: 4.238e-04   |deigs|: 1.224e-03  t[s]:     42.29
	FillingsUpdate:  mu: -0.078132095  nElectrons: 9.000000  magneticMoment: [ Abs: 0.62437  Tot: -0.62000 ]
SCF: Cycle:  3   F: -20.168768804933855   dF: -1.402e-06   |Residual|: 3.323e-04   |deigs|: 5.594e-04  t[s]:     48.87
	FillingsUpdate:  mu: -0.078158639  nElectrons: 9.000000  magneticMoment: [ Abs: 0.62432  Tot: -0.62000 ]
SCF: Cycle:  4   F: -20.168770228564178   dF: -1.424e-06   |Residual|: 2.461e-04   |deigs|: 3.423e-04  t[s]:     55.51
	FillingsUpdate:  mu: -0.078187795  nElectrons: 9.000000  magneticMoment: [ Abs: 0.62423  Tot: -0.62000 ]
SCF: Cycle:  5   F: -20.168771211943355   dF: -9.834e-07   |Residual|: 1.726e-04   |deigs|: 2.463e-04  t[s]:     62.30
	FillingsUpdate:  mu: -0.078193741  nElectrons: 9.000000  magneticMoment: [ Abs: 0.62430  Tot: -0.62000 ]
SCF: Cycle:  6   F: -20.168771908327983   dF: -6.964e-07   |Residual|: 1.146e-04   |deigs|: 2.721e-04  t[s]:     69.17
	FillingsUpdate:  mu: -0.078184990  nElectrons: 9.000000  magneticMoment: [ Abs: 0.62418  Tot: -0.62000 ]
SCF: Cycle:  7   F: -20.168772304256169   dF: -3.959e-07   |Residual|: 8.998e-05   |deigs|: 3.017e-04  t[s]:     76.12
	FillingsUpdate:  mu: -0.078160720  nElectrons: 9.000000  magneticMoment: [ Abs: 0.62424  Tot: -0.62000 ]
SCF: Cycle:  8   F: -20.168772559930257   dF: -2.557e-07   |Residual|: 7.051e-05   |deigs|: 4.010e-04  t[s]:     83.28
	FillingsUpdate:  mu: -0.078116274  nElectrons: 9.000000  magneticMoment: [ Abs: 0.62423  Tot: -0.62000 ]
SCF: Cycle:  9   F: -20.168772692615384   dF: -1.327e-07   |Residual|: 5.821e-05   |deigs|: 4.583e-04  t[s]:     90.46
	FillingsUpdate:  mu: -0.078075289  nElectrons: 9.000000  magneticMoment: [ Abs: 0.62423  Tot: -0.62000 ]
SCF: Cycle: 10   F: -20.168772681714856   dF: +1.090e-08   |Residual|: 5.158e-05   |deigs|: 4.416e-04  t[s]:     97.81
	FillingsUpdate:  mu: -0.078013823  nElectrons: 9.000000  magneticMoment: [ Abs: 0.62453  Tot: -0.62000 ]
SCF: Cycle: 11   F: -20.168772597343562   dF: +8.437e-08   |Residual|: 5.026e-05   |deigs|: 2.068e-04  t[s]:    105.08
	FillingsUpdate:  mu: -0.077965584  nElectrons: 9.000000  magneticMoment: [ Abs: 0.62459  Tot: -0.62000 ]
SCF: Cycle: 12   F: -20.168772277508932   dF: +3.198e-07   |Residual|: 4.774e-05   |deigs|: 1.352e-04  t[s]:    112.43
	FillingsUpdate:  mu: -0.077932543  nElectrons: 9.000000  magneticMoment: [ Abs: 0.62465  Tot: -0.62000 ]
SCF: Cycle: 13   F: -20.168772250533639   dF: +2.698e-08   |Residual|: 4.139e-05   |deigs|: 1.785e-04  t[s]:    119.75
	FillingsUpdate:  mu: -0.077900499  nElectrons: 9.000000  magneticMoment: [ Abs: 0.62474  Tot: -0.62000 ]
SCF: Cycle: 14   F: -20.168772744817211   dF: -4.943e-07   |Residual|: 3.231e-05   |deigs|: 1.391e-04  t[s]:    127.11
	FillingsUpdate:  mu: -0.077820422  nElectrons: 9.000000  magneticMoment: [ Abs: 0.62476  Tot: -0.62000 ]
SCF: Cycle: 15   F: -20.168772665282376   dF: +7.953e-08   |Residual|: 3.313e-05   |deigs|: 1.088e-04  t[s]:    134.28
	FillingsUpdate:  mu: -0.077753065  nElectrons: 9.000000  magneticMoment: [ Abs: 0.62456  Tot: -0.62000 ]
SCF: Cycle: 16   F: -20.168772725170552   dF: -5.989e-08   |Residual|: 2.901e-05   |deigs|: 9.090e-05  t[s]:    141.64
	FillingsUpdate:  mu: -0.077748180  nElectrons: 9.000000  magneticMoment: [ Abs: 0.62438  Tot: -0.62000 ]
SCF: Cycle: 17   F: -20.168772856414208   dF: -1.312e-07   |Residual|: 2.271e-05   |deigs|: 4.992e-05  t[s]:    148.96
	FillingsUpdate:  mu: -0.077739164  nElectrons: 9.000000  magneticMoment: [ Abs: 0.62428  Tot: -0.62000 ]
SCF: Cycle: 18   F: -20.168772895269452   dF: -3.886e-08   |Residual|: 1.855e-05   |deigs|: 2.816e-05  t[s]:    156.22
	FillingsUpdate:  mu: -0.077725955  nElectrons: 9.000000  magneticMoment: [ Abs: 0.62421  Tot: -0.62000 ]
SCF: Cycle: 19   F: -20.168772891937007   dF: +3.332e-09   |Residual|: 1.451e-05   |deigs|: 2.524e-05  t[s]:    163.55
	FillingsUpdate:  mu: -0.077723601  nElectrons: 9.000000  magneticMoment: [ Abs: 0.62420  Tot: -0.62000 ]
SCF: Cycle: 20   F: -20.168772952975942   dF: -6.104e-08   |Residual|: 1.182e-05   |deigs|: 1.909e-05  t[s]:    170.84
	FillingsUpdate:  mu: -0.077732750  nElectrons: 9.000000  magneticMoment: [ Abs: 0.62420  Tot: -0.62000 ]
SCF: Cycle: 21   F: -20.168772929157836   dF: +2.382e-08   |Residual|: 8.745e-06   |deigs|: 2.832e-05  t[s]:    178.12
	FillingsUpdate:  mu: -0.077739263  nElectrons: 9.000000  magneticMoment: [ Abs: 0.62422  Tot: -0.62000 ]
SCF: Cycle: 22   F: -20.168772972327254   dF: -4.317e-08   |Residual|: 5.717e-06   |deigs|: 3.294e-05  t[s]:    185.38
	FillingsUpdate:  mu: -0.077740855  nElectrons: 9.000000  magneticMoment: [ Abs: 0.62423  Tot: -0.62000 ]
SCF: Cycle: 23   F: -20.168772967382978   dF: +4.944e-09   |Residual|: 4.128e-06   |deigs|: 3.821e-05  t[s]:    192.26
	FillingsUpdate:  mu: -0.077741034  nElectrons: 9.000000  magneticMoment: [ Abs: 0.62423  Tot: -0.62000 ]
SCF: Cycle: 24   F: -20.168772975168636   dF: -7.786e-09   |Residual|: 2.241e-06   |deigs|: 4.181e-05  t[s]:    199.60
	FillingsUpdate:  mu: -0.077740699  nElectrons: 9.000000  magneticMoment: [ Abs: 0.62422  Tot: -0.62000 ]
SCF: Cycle: 25   F: -20.168772978571912   dF: -3.403e-09   |Residual|: 1.498e-06   |deigs|: 3.529e-05  t[s]:    206.44
SCF: Converged (|Delta E|<1.000000e-08 for 2 iters).


# Ionic positions in lattice coordinates:
ion Cs   0.000000000000000   0.000000000000000   0.000000000000000 0

# Forces in Lattice coordinates:
force Cs   0.000000000000000   0.000000000000000   0.000000000000000 0

# Energy components:
   Eewald =       -9.0240130501663280
       EH =        7.0201147908866242
     Eloc =      -23.6061521988279672
      Enl =        3.4374630105847226
   Epulay =        0.0000000422266766
      Exc =       -3.1082908331538652
       KE =        5.1121065320277115
-------------------------------------
     Etot =      -20.1687717064224259
       TS =        0.0000012721494851
-------------------------------------
        F =      -20.1687729785719121

IonicMinimize: Iter:   0  F: -20.168772978571912  |grad|_K:  0.000e+00  t[s]:    206.86
IonicMinimize: Converged (|grad|_K<1.000000e-04).

#--- Lowdin population analysis ---
# oxidation-state Cs +0.003
# magnetic-moments Cs -0.618

End date and time: Sun Feb  6 13:15:34 2022  (Duration: 0-0:03:26.92)
Done!
