The alkali metal is Cs
scale=2
magnetization=-0.28
--------------------------------------------------------------------------
The library attempted to open the following supporting CUDA libraries,
but each of them failed.  CUDA-aware support is disabled.
libcuda.so.1: cannot open shared object file: No such file or directory
libcuda.dylib: cannot open shared object file: No such file or directory
/usr/lib64/libcuda.so.1: cannot open shared object file: No such file or directory
/usr/lib64/libcuda.dylib: cannot open shared object file: No such file or directory
If you are not interested in CUDA-aware support, then run with
--mca opal_warn_on_missing_libcuda 0 to suppress this message.  If you are interested
in CUDA-aware support, then try setting LD_LIBRARY_PATH to the location
of libcuda.so.1 to get passed this issue.
--------------------------------------------------------------------------
--------------------------------------------------------------------------
No OpenFabrics connection schemes reported that they were able to be
used on a specific port.  As such, the openib BTL (OpenFabrics
support) will be disabled for this port.

  Local host:           d-4-6-1
  Local device:         mlx5_1
  Local port:           1
  CPCs attempted:       rdmacm, udcm
--------------------------------------------------------------------------

*************** JDFTx 1.6.0 (git hash 42ebbcc2) ***************

Start date and time: Sun Feb  6 13:16:19 2022
Executable jdftx with command-line: -i Alkali.in
Running on hosts (process indices):  d-4-6-1 (0-18)
Divided in process groups (process indices):  0 (0)  1 (1)  2 (2)  3 (3)  4 (4)  5 (5)  6 (6)  7 (7)  8 (8)  9 (9)  10 (10)  11 (11)  12 (12)  13 (13)  14 (14)  15 (15)  16 (16)  17 (17)  18 (18)
Resource initialization completed at t[s]:      0.00
Run totals: 19 processes, 48 threads, 0 GPUs


Input parsed successfully to the following command list (including defaults):

basis kpoint-dependent
coords-type Lattice
core-overlap-check vector
coulomb-interaction Slab 001
davidson-band-ratio 1.1
dump End None
dump-name $INPUT.$VAR
elec-cutoff 20
elec-eigen-algo Davidson
elec-ex-corr gga-PBE
elec-initial-magnetization -0.280000 yes
elec-smearing Fermi 1e-05
electronic-minimize  \
	dirUpdateScheme      FletcherReeves \
	linminMethod         DirUpdateRecommended \
	nIterations          100 \
	history              15 \
	knormThreshold       0 \
	energyDiffThreshold  1e-08 \
	nEnergyDiff          2 \
	alphaTstart          1 \
	alphaTmin            1e-10 \
	updateTestStepSize   yes \
	alphaTreduceFactor   0.1 \
	alphaTincreaseFactor 3 \
	nAlphaAdjustMax      3 \
	wolfeEnergy          0.0001 \
	wolfeGradient        0.9 \
	fdTest               no
electronic-scf  \
	nIterations	10000 \
	energyDiffThreshold	1e-08 \
	residualThreshold	1e-07 \
	mixFraction	0.5 \
	qMetric	0.8 \
	history	10 \
	nEigSteps	2 \
	eigDiffThreshold	1e-08 \
	mixedVariable	Density \
	qKerker	0.8 \
	qKappa	-1 \
	verbose	no \
	mixFractionMag	1.5
exchange-regularization WignerSeitzTruncated
fluid None
fluid-ex-corr (null) lda-PZ
fluid-gummel-loop 10 1.000000e-05
fluid-minimize  \
	dirUpdateScheme      PolakRibiere \
	linminMethod         DirUpdateRecommended \
	nIterations          100 \
	history              15 \
	knormThreshold       0 \
	energyDiffThreshold  0 \
	nEnergyDiff          2 \
	alphaTstart          1 \
	alphaTmin            1e-10 \
	updateTestStepSize   yes \
	alphaTreduceFactor   0.1 \
	alphaTincreaseFactor 3 \
	nAlphaAdjustMax      3 \
	wolfeEnergy          0.0001 \
	wolfeGradient        0.9 \
	fdTest               no
fluid-solvent H2O 55.338 ScalarEOS \
	epsBulk 78.4 \
	pMol 0.92466 \
	epsInf 1.77 \
	Pvap 1.06736e-10 \
	sigmaBulk 4.62e-05 \
	Rvdw 2.61727 \
	Res 1.42 \
	tauNuc 343133 \
	poleEl 15 7 1
forces-output-coords Positions
ion Cs   0.000000000000000   0.000000000000000   0.000000000000000 0
ion-species SG15/$ID_ONCV_PBE.upf
ion-width 0
ionic-minimize  \
	dirUpdateScheme      L-BFGS \
	linminMethod         DirUpdateRecommended \
	nIterations          0 \
	history              15 \
	knormThreshold       0.0001 \
	energyDiffThreshold  1e-06 \
	nEnergyDiff          2 \
	alphaTstart          1 \
	alphaTmin            1e-10 \
	updateTestStepSize   yes \
	alphaTreduceFactor   0.1 \
	alphaTincreaseFactor 3 \
	nAlphaAdjustMax      3 \
	wolfeEnergy          0.0001 \
	wolfeGradient        0.9 \
	fdTest               no
kpoint   0.000000000000   0.000000000000   0.000000000000  1.00000000000000
kpoint-folding 12 12 1 
latt-move-scale 1 1 1
latt-scale 2 2 1 
lattice  \
	   4.727486978767153   -2.363743489383575    0.000000000000000  \
	  -0.000000000000000    4.094123819672498    0.000000000000000  \
	   0.000000000000000    0.000000000000000   40.000000000000000 
lattice-minimize  \
	dirUpdateScheme      L-BFGS \
	linminMethod         DirUpdateRecommended \
	nIterations          0 \
	history              15 \
	knormThreshold       0 \
	energyDiffThreshold  1e-06 \
	nEnergyDiff          2 \
	alphaTstart          1 \
	alphaTmin            1e-10 \
	updateTestStepSize   yes \
	alphaTreduceFactor   0.1 \
	alphaTincreaseFactor 3 \
	nAlphaAdjustMax      3 \
	wolfeEnergy          0.0001 \
	wolfeGradient        0.9 \
	fdTest               no
lcao-params -1 1e-06 1e-05
pcm-variant GLSSA13
spintype z-spin
subspace-rotation-factor 1 yes
symmetries automatic
symmetry-threshold 0.0001



---------- Setting up symmetries ----------

Found 24 point-group symmetries of the bravais lattice
Found 24 space-group symmetries with basis
Applied RMS atom displacement 0 bohrs to make symmetries exact.

---------- Initializing the Grid ----------
R = 
[      9.45497     -4.72749            0  ]
[            0      8.18825            0  ]
[            0            0           40  ]
unit cell volume = 3096.79
G =
[   0.664538   0.383671         -0  ]
[          0   0.767342         -0  ]
[         -0         -0    0.15708  ]
Minimum fftbox size, Smin = [  40  40  164  ]
Chosen fftbox size, S = [  40  40  168  ]

---------- Exchange Correlation functional ----------
Initalized PBE GGA exchange.
Initalized PBE GGA correlation.

---------- Setting up pseudopotentials ----------
Width of ionic core gaussian charges (only for fluid interactions / plotting) set to 0

Reading pseudopotential file '/home/gridsan/aligho/DFT/build-Nov24/pseudopotentials/SG15/Cs_ONCV_PBE.upf':
  'Cs' pseudopotential, 'PBE' functional
  Generated using ONCVPSP code by D. R. Hamann
  Author: Martin Schlipf and Francois Gygi  Date: 150915.
  9 valence electrons, 3 orbitals, 6 projectors, 2414 radial grid points, with lMax = 2
  Transforming local potential to a uniform radial grid of dG=0.02 with 1489 points.
  Transforming nonlocal projectors to a uniform radial grid of dG=0.02 with 432 points.
    5S    l: 0   occupation:  2.0   eigenvalue: -0.982388
    5P    l: 1   occupation:  6.0   eigenvalue: -0.496786
    6S    l: 0   occupation:  1.0   eigenvalue: -0.076670
  Transforming atomic orbitals to a uniform radial grid of dG=0.02 with 432 points.
  Core radius for overlap checks: 2.06 bohrs.
  Reading pulay file /home/gridsan/aligho/DFT/build-Nov24/pseudopotentials/SG15/Cs_ONCV_PBE.pulay ... using dE_dnG = -1.008762e-04 computed for Ecut = 20.

Initialized 1 species with 1 total atoms.

Folded 1 k-points by 12x12x1 to 144 k-points.

---------- Setting up k-points, bands, fillings ----------
Reduced to 19 k-points under symmetry. 
Computing the number of bands and number of electrons
Calculating initial fillings.
nElectrons:   9.000000   nBands: 6   nStates: 38

----- Setting up reduced wavefunction bases (one per k-point) -----
average nbasis = 13230.521 , ideal nbasis = 13229.709

---------- Setting up coulomb interaction ----------
Initialized slab truncation along lattice direction 001

---------- Setting up 2D ewald sum ----------
Optimum gaussian width for ewald sums = 5.249020 bohr.
Real space sums over 289 unit cells with max indices [  8  8  0  ]
Reciprocal space sums over 81 terms with max indices [  4  4  0  ]

---------- Allocating electronic variables ----------
Initializing wave functions:  linear combination of atomic orbitals
Note: number of bands (6) exceeds available atomic orbitals (5)
Cs pseudo-atom occupations:   s ( 2 1 )  p ( 6 )
	FillingsUpdate:  mu: -0.088860081  nElectrons: 9.000000  magneticMoment: [ Abs: 0.28000  Tot: -0.28000 ]
LCAOMinimize: Iter:   0  F: -20.1809503099563692  |grad|_K:  3.940e-05  alpha:  1.000e+00
	FillingsUpdate:  mu: -0.088842359  nElectrons: 9.000000  magneticMoment: [ Abs: 0.28000  Tot: -0.28000 ]
LCAOMinimize: Iter:   1  F: -20.1809513477040667  |grad|_K:  3.965e-07  alpha:  9.774e-01  linmin: -4.697e-02  cgtest:  3.576e-01  t[s]:      4.69
LCAOMinimize: Encountered beta<0, resetting CG.
[d-4-6-1:27824] 18 more processes have sent help message help-mpi-common-cuda.txt / dlopen failed
[d-4-6-1:27824] Set MCA parameter "orte_base_help_aggregate" to 0 to see all help / error messages
[d-4-6-1:27824] 18 more processes have sent help message help-mpi-btl-openib-cpc-base.txt / no cpcs for port
	FillingsUpdate:  mu: -0.088842474  nElectrons: 9.000000  magneticMoment: [ Abs: 0.28000  Tot: -0.28000 ]
LCAOMinimize: Iter:   2  F: -20.1809513478119733  |grad|_K:  2.562e-09  alpha:  9.948e-01  linmin: -1.484e-01  cgtest:  9.518e-01  t[s]:      5.97
LCAOMinimize: Encountered beta<0, resetting CG.
LCAOMinimize: 	Step increased F by 3.197442e-13, reducing alpha to 1.097315e-03.
LCAOMinimize: 	Step increased F by 3.268497e-13, reducing alpha to 1.097315e-04.
LCAOMinimize: 	Step increased F by 2.060574e-13, reducing alpha to 1.097315e-05.
LCAOMinimize: 	Step failed to reduce F after 3 attempts. Quitting step.
LCAOMinimize: 	Undoing step.
LCAOMinimize: 	Step failed along negative gradient direction.
LCAOMinimize: Probably at roundoff error limit. (Stopping)


---- Citations for features of the code used in this run ----

   Software package:
      R. Sundararaman, K. Letchworth-Weaver, K.A. Schwarz, D. Gunceler, Y. Ozhabes and T.A. Arias, 'JDFTx: software for joint density-functional theory', SoftwareX 6, 278 (2017)

   gga-PBE exchange-correlation functional:
      J.P. Perdew, K. Burke and M. Ernzerhof, Phys. Rev. Lett. 77, 3865 (1996)

   Pseudopotentials:
      M Schlipf and F Gygi, Comput. Phys. Commun. 196, 36 (2015)

   Truncated Coulomb potentials:
      R. Sundararaman and T.A. Arias, Phys. Rev. B 87, 165122 (2013)

This list may not be complete. Please suggest additional citations or
report any other bugs at https://github.com/shankar1729/jdftx/issues

Initialization completed successfully at t[s]:      9.42


-------- Electronic minimization -----------
Will mix electronic density at each iteration.
	FillingsUpdate:  mu: -0.088842474  nElectrons: 9.000000  magneticMoment: [ Abs: 0.28000  Tot: -0.28000 ]
	FillingsUpdate:  mu: -0.102444404  nElectrons: 9.000000  magneticMoment: [ Abs: 0.28000  Tot: -0.28000 ]
SCF: Cycle:  0   F: -20.186370447893630   dF: -5.419e-03   |Residual|: 1.240e-02   |deigs|: 1.881e-01  t[s]:     11.85
	FillingsUpdate:  mu: -0.103334757  nElectrons: 9.000000  magneticMoment: [ Abs: 0.28000  Tot: -0.28000 ]
SCF: Cycle:  1   F: -20.186850709643583   dF: -4.803e-04   |Residual|: 1.014e-02   |deigs|: 5.004e-03  t[s]:     13.72
	FillingsUpdate:  mu: -0.100369707  nElectrons: 9.000000  magneticMoment: [ Abs: 0.28972  Tot: -0.28000 ]
SCF: Cycle:  2   F: -20.187171733080262   dF: -3.210e-04   |Residual|: 4.636e-03   |deigs|: 2.967e-03  t[s]:     15.57
	FillingsUpdate:  mu: -0.099492105  nElectrons: 9.000000  magneticMoment: [ Abs: 0.28000  Tot: -0.28000 ]
SCF: Cycle:  3   F: -20.187308261393959   dF: -1.365e-04   |Residual|: 3.350e-03   |deigs|: 2.209e-03  t[s]:     17.44
	FillingsUpdate:  mu: -0.097129386  nElectrons: 9.000000  magneticMoment: [ Abs: 0.28130  Tot: -0.28000 ]
SCF: Cycle:  4   F: -20.187378803850592   dF: -7.054e-05   |Residual|: 2.508e-03   |deigs|: 3.208e-03  t[s]:     19.33
	FillingsUpdate:  mu: -0.094620599  nElectrons: 9.000000  magneticMoment: [ Abs: 0.28465  Tot: -0.28000 ]
SCF: Cycle:  5   F: -20.187418235036461   dF: -3.943e-05   |Residual|: 2.236e-03   |deigs|: 3.049e-03  t[s]:     21.28
	FillingsUpdate:  mu: -0.092260070  nElectrons: 9.000000  magneticMoment: [ Abs: 0.28963  Tot: -0.28000 ]
SCF: Cycle:  6   F: -20.187424150376501   dF: -5.915e-06   |Residual|: 1.530e-03   |deigs|: 2.881e-03  t[s]:     23.24
	FillingsUpdate:  mu: -0.090457494  nElectrons: 9.000000  magneticMoment: [ Abs: 0.28727  Tot: -0.28000 ]
SCF: Cycle:  7   F: -20.187447888320364   dF: -2.374e-05   |Residual|: 1.259e-03   |deigs|: 1.851e-03  t[s]:     25.21
	FillingsUpdate:  mu: -0.088951131  nElectrons: 9.000000  magneticMoment: [ Abs: 0.28235  Tot: -0.28000 ]
SCF: Cycle:  8   F: -20.187476500706758   dF: -2.861e-05   |Residual|: 1.030e-03   |deigs|: 1.662e-03  t[s]:     27.24
	FillingsUpdate:  mu: -0.087530133  nElectrons: 9.000000  magneticMoment: [ Abs: 0.28346  Tot: -0.28000 ]
SCF: Cycle:  9   F: -20.187465921516310   dF: +1.058e-05   |Residual|: 8.721e-04   |deigs|: 1.537e-03  t[s]:     29.25
	FillingsUpdate:  mu: -0.085575726  nElectrons: 9.000000  magneticMoment: [ Abs: 0.28541  Tot: -0.28000 ]
SCF: Cycle: 10   F: -20.187461108331448   dF: +4.813e-06   |Residual|: 8.169e-04   |deigs|: 2.082e-03  t[s]:     31.28
	FillingsUpdate:  mu: -0.083709432  nElectrons: 9.000000  magneticMoment: [ Abs: 0.28391  Tot: -0.28000 ]
SCF: Cycle: 11   F: -20.187480832582587   dF: -1.972e-05   |Residual|: 7.358e-04   |deigs|: 1.920e-03  t[s]:     33.37
	FillingsUpdate:  mu: -0.082371824  nElectrons: 9.000000  magneticMoment: [ Abs: 0.28391  Tot: -0.28000 ]
SCF: Cycle: 12   F: -20.187503530701086   dF: -2.270e-05   |Residual|: 6.715e-04   |deigs|: 1.281e-03  t[s]:     35.49
	FillingsUpdate:  mu: -0.080814596  nElectrons: 9.000000  magneticMoment: [ Abs: 0.28344  Tot: -0.28000 ]
SCF: Cycle: 13   F: -20.187514378750336   dF: -1.085e-05   |Residual|: 6.217e-04   |deigs|: 1.542e-03  t[s]:     37.57
	FillingsUpdate:  mu: -0.079104739  nElectrons: 9.000000  magneticMoment: [ Abs: 0.28136  Tot: -0.28000 ]
SCF: Cycle: 14   F: -20.187524059366169   dF: -9.681e-06   |Residual|: 4.703e-04   |deigs|: 1.773e-03  t[s]:     39.67
	FillingsUpdate:  mu: -0.078328499  nElectrons: 9.000000  magneticMoment: [ Abs: 0.28141  Tot: -0.28000 ]
SCF: Cycle: 15   F: -20.187528724885865   dF: -4.666e-06   |Residual|: 3.698e-04   |deigs|: 1.437e-03  t[s]:     41.72
	FillingsUpdate:  mu: -0.077963578  nElectrons: 9.000000  magneticMoment: [ Abs: 0.28034  Tot: -0.28000 ]
SCF: Cycle: 16   F: -20.187531952477350   dF: -3.228e-06   |Residual|: 2.784e-04   |deigs|: 7.554e-04  t[s]:     43.74
	FillingsUpdate:  mu: -0.077957377  nElectrons: 9.000000  magneticMoment: [ Abs: 0.28018  Tot: -0.28000 ]
SCF: Cycle: 17   F: -20.187532889498474   dF: -9.370e-07   |Residual|: 1.621e-04   |deigs|: 2.809e-04  t[s]:     45.78
	FillingsUpdate:  mu: -0.078020258  nElectrons: 9.000000  magneticMoment: [ Abs: 0.28019  Tot: -0.28000 ]
SCF: Cycle: 18   F: -20.187533559987468   dF: -6.705e-07   |Residual|: 7.511e-05   |deigs|: 4.297e-04  t[s]:     47.90
	FillingsUpdate:  mu: -0.077979823  nElectrons: 9.000000  magneticMoment: [ Abs: 0.28013  Tot: -0.28000 ]
SCF: Cycle: 19   F: -20.187533877231129   dF: -3.172e-07   |Residual|: 4.313e-05   |deigs|: 5.437e-04  t[s]:     49.98
	FillingsUpdate:  mu: -0.077986505  nElectrons: 9.000000  magneticMoment: [ Abs: 0.28011  Tot: -0.28000 ]
SCF: Cycle: 20   F: -20.187533958807904   dF: -8.158e-08   |Residual|: 2.490e-05   |deigs|: 1.409e-04  t[s]:     52.03
	FillingsUpdate:  mu: -0.077995612  nElectrons: 9.000000  magneticMoment: [ Abs: 0.28011  Tot: -0.28000 ]
SCF: Cycle: 21   F: -20.187534005124004   dF: -4.632e-08   |Residual|: 1.521e-05   |deigs|: 6.805e-05  t[s]:     54.12
	FillingsUpdate:  mu: -0.078010217  nElectrons: 9.000000  magneticMoment: [ Abs: 0.28014  Tot: -0.28000 ]
SCF: Cycle: 22   F: -20.187534023164901   dF: -1.804e-08   |Residual|: 7.783e-06   |deigs|: 4.568e-04  t[s]:     56.19
	FillingsUpdate:  mu: -0.078024505  nElectrons: 9.000000  magneticMoment: [ Abs: 0.28014  Tot: -0.28000 ]
SCF: Cycle: 23   F: -20.187534031964127   dF: -8.799e-09   |Residual|: 3.931e-06   |deigs|: 4.562e-04  t[s]:     58.30
	FillingsUpdate:  mu: -0.078027522  nElectrons: 9.000000  magneticMoment: [ Abs: 0.28014  Tot: -0.28000 ]
SCF: Cycle: 24   F: -20.187534037182452   dF: -5.218e-09   |Residual|: 2.977e-06   |deigs|: 4.268e-04  t[s]:     60.48
SCF: Converged (|Delta E|<1.000000e-08 for 2 iters).


# Ionic positions in lattice coordinates:
ion Cs   0.000000000000000   0.000000000000000   0.000000000000000 0

# Forces in Lattice coordinates:
force Cs  -0.000000000000000   0.000000000000000   0.000000000000000 0

# Energy components:
   Eewald =      -18.0480261003326561
       EH =       -1.8274084797589949
     Eloc =       -5.7563934370508303
      Enl =        3.4422379409377086
   Epulay =        0.0000000264484078
      Exc =       -3.1446119793519789
       KE =        5.1466686113618092
-------------------------------------
     Etot =      -20.1875334177465362
       TS =        0.0000006194359173
-------------------------------------
        F =      -20.1875340371824521

IonicMinimize: Iter:   0  F: -20.187534037182452  |grad|_K:  0.000e+00  t[s]:     60.60
IonicMinimize: Converged (|grad|_K<1.000000e-04).

#--- Lowdin population analysis ---
# oxidation-state Cs +0.055
# magnetic-moments Cs -0.245

End date and time: Sun Feb  6 13:17:19 2022  (Duration: 0-0:01:00.63)
Done!
scale=3
magnetization=-0.28
--------------------------------------------------------------------------
The library attempted to open the following supporting CUDA libraries,
but each of them failed.  CUDA-aware support is disabled.
libcuda.so.1: cannot open shared object file: No such file or directory
libcuda.dylib: cannot open shared object file: No such file or directory
/usr/lib64/libcuda.so.1: cannot open shared object file: No such file or directory
/usr/lib64/libcuda.dylib: cannot open shared object file: No such file or directory
If you are not interested in CUDA-aware support, then run with
--mca opal_warn_on_missing_libcuda 0 to suppress this message.  If you are interested
in CUDA-aware support, then try setting LD_LIBRARY_PATH to the location
of libcuda.so.1 to get passed this issue.
--------------------------------------------------------------------------
--------------------------------------------------------------------------
No OpenFabrics connection schemes reported that they were able to be
used on a specific port.  As such, the openib BTL (OpenFabrics
support) will be disabled for this port.

  Local host:           d-4-6-1
  Local device:         mlx5_1
  Local port:           1
  CPCs attempted:       rdmacm, udcm
--------------------------------------------------------------------------

*************** JDFTx 1.6.0 (git hash 42ebbcc2) ***************

Start date and time: Sun Feb  6 13:17:20 2022
Executable jdftx with command-line: -i Alkali.in
Running on hosts (process indices):  d-4-6-1 (0-18)
Divided in process groups (process indices):  0 (0)  1 (1)  2 (2)  3 (3)  4 (4)  5 (5)  6 (6)  7 (7)  8 (8)  9 (9)  10 (10)  11 (11)  12 (12)  13 (13)  14 (14)  15 (15)  16 (16)  17 (17)  18 (18)
Resource initialization completed at t[s]:      0.00
Run totals: 19 processes, 48 threads, 0 GPUs


Input parsed successfully to the following command list (including defaults):

basis kpoint-dependent
coords-type Lattice
core-overlap-check vector
coulomb-interaction Slab 001
davidson-band-ratio 1.1
dump End None
dump-name $INPUT.$VAR
elec-cutoff 20
elec-eigen-algo Davidson
elec-ex-corr gga-PBE
elec-initial-magnetization -0.280000 yes
elec-smearing Fermi 1e-05
electronic-minimize  \
	dirUpdateScheme      FletcherReeves \
	linminMethod         DirUpdateRecommended \
	nIterations          100 \
	history              15 \
	knormThreshold       0 \
	energyDiffThreshold  1e-08 \
	nEnergyDiff          2 \
	alphaTstart          1 \
	alphaTmin            1e-10 \
	updateTestStepSize   yes \
	alphaTreduceFactor   0.1 \
	alphaTincreaseFactor 3 \
	nAlphaAdjustMax      3 \
	wolfeEnergy          0.0001 \
	wolfeGradient        0.9 \
	fdTest               no
electronic-scf  \
	nIterations	10000 \
	energyDiffThreshold	1e-08 \
	residualThreshold	1e-07 \
	mixFraction	0.5 \
	qMetric	0.8 \
	history	10 \
	nEigSteps	2 \
	eigDiffThreshold	1e-08 \
	mixedVariable	Density \
	qKerker	0.8 \
	qKappa	-1 \
	verbose	no \
	mixFractionMag	1.5
exchange-regularization WignerSeitzTruncated
fluid None
fluid-ex-corr (null) lda-PZ
fluid-gummel-loop 10 1.000000e-05
fluid-minimize  \
	dirUpdateScheme      PolakRibiere \
	linminMethod         DirUpdateRecommended \
	nIterations          100 \
	history              15 \
	knormThreshold       0 \
	energyDiffThreshold  0 \
	nEnergyDiff          2 \
	alphaTstart          1 \
	alphaTmin            1e-10 \
	updateTestStepSize   yes \
	alphaTreduceFactor   0.1 \
	alphaTincreaseFactor 3 \
	nAlphaAdjustMax      3 \
	wolfeEnergy          0.0001 \
	wolfeGradient        0.9 \
	fdTest               no
fluid-solvent H2O 55.338 ScalarEOS \
	epsBulk 78.4 \
	pMol 0.92466 \
	epsInf 1.77 \
	Pvap 1.06736e-10 \
	sigmaBulk 4.62e-05 \
	Rvdw 2.61727 \
	Res 1.42 \
	tauNuc 343133 \
	poleEl 15 7 1
forces-output-coords Positions
ion Cs   0.000000000000000   0.000000000000000   0.000000000000000 0
ion-species SG15/$ID_ONCV_PBE.upf
ion-width 0
ionic-minimize  \
	dirUpdateScheme      L-BFGS \
	linminMethod         DirUpdateRecommended \
	nIterations          0 \
	history              15 \
	knormThreshold       0.0001 \
	energyDiffThreshold  1e-06 \
	nEnergyDiff          2 \
	alphaTstart          1 \
	alphaTmin            1e-10 \
	updateTestStepSize   yes \
	alphaTreduceFactor   0.1 \
	alphaTincreaseFactor 3 \
	nAlphaAdjustMax      3 \
	wolfeEnergy          0.0001 \
	wolfeGradient        0.9 \
	fdTest               no
kpoint   0.000000000000   0.000000000000   0.000000000000  1.00000000000000
kpoint-folding 12 12 1 
latt-move-scale 1 1 1
latt-scale 3 3 1 
lattice  \
	   4.727486978767153   -2.363743489383575    0.000000000000000  \
	  -0.000000000000000    4.094123819672498    0.000000000000000  \
	   0.000000000000000    0.000000000000000   40.000000000000000 
lattice-minimize  \
	dirUpdateScheme      L-BFGS \
	linminMethod         DirUpdateRecommended \
	nIterations          0 \
	history              15 \
	knormThreshold       0 \
	energyDiffThreshold  1e-06 \
	nEnergyDiff          2 \
	alphaTstart          1 \
	alphaTmin            1e-10 \
	updateTestStepSize   yes \
	alphaTreduceFactor   0.1 \
	alphaTincreaseFactor 3 \
	nAlphaAdjustMax      3 \
	wolfeEnergy          0.0001 \
	wolfeGradient        0.9 \
	fdTest               no
lcao-params -1 1e-06 1e-05
pcm-variant GLSSA13
spintype z-spin
subspace-rotation-factor 1 yes
symmetries automatic
symmetry-threshold 0.0001



---------- Setting up symmetries ----------

Found 24 point-group symmetries of the bravais lattice
Found 24 space-group symmetries with basis
Applied RMS atom displacement 0 bohrs to make symmetries exact.

---------- Initializing the Grid ----------
R = 
[      14.1825     -7.09123            0  ]
[            0      12.2824            0  ]
[            0            0           40  ]
unit cell volume = 6967.77
G =
[   0.443025   0.255781         -0  ]
[          0   0.511561         -0  ]
[         -0         -0    0.15708  ]
Minimum fftbox size, Smin = [  60  60  164  ]
Chosen fftbox size, S = [  60  60  168  ]

---------- Exchange Correlation functional ----------
Initalized PBE GGA exchange.
Initalized PBE GGA correlation.

---------- Setting up pseudopotentials ----------
Width of ionic core gaussian charges (only for fluid interactions / plotting) set to 0

Reading pseudopotential file '/home/gridsan/aligho/DFT/build-Nov24/pseudopotentials/SG15/Cs_ONCV_PBE.upf':
  'Cs' pseudopotential, 'PBE' functional
  Generated using ONCVPSP code by D. R. Hamann
  Author: Martin Schlipf and Francois Gygi  Date: 150915.
  9 valence electrons, 3 orbitals, 6 projectors, 2414 radial grid points, with lMax = 2
  Transforming local potential to a uniform radial grid of dG=0.02 with 1489 points.
  Transforming nonlocal projectors to a uniform radial grid of dG=0.02 with 432 points.
    5S    l: 0   occupation:  2.0   eigenvalue: -0.982388
    5P    l: 1   occupation:  6.0   eigenvalue: -0.496786
    6S    l: 0   occupation:  1.0   eigenvalue: -0.076670
  Transforming atomic orbitals to a uniform radial grid of dG=0.02 with 432 points.
  Core radius for overlap checks: 2.06 bohrs.
  Reading pulay file /home/gridsan/aligho/DFT/build-Nov24/pseudopotentials/SG15/Cs_ONCV_PBE.pulay ... using dE_dnG = -1.008762e-04 computed for Ecut = 20.

Initialized 1 species with 1 total atoms.

Folded 1 k-points by 12x12x1 to 144 k-points.

---------- Setting up k-points, bands, fillings ----------
Reduced to 19 k-points under symmetry. 
Computing the number of bands and number of electrons
Calculating initial fillings.
nElectrons:   9.000000   nBands: 6   nStates: 38

----- Setting up reduced wavefunction bases (one per k-point) -----
average nbasis = 29766.104 , ideal nbasis = 29766.845

---------- Setting up coulomb interaction ----------
Initialized slab truncation along lattice direction 001

---------- Setting up 2D ewald sum ----------
Optimum gaussian width for ewald sums = 7.873530 bohr.
Real space sums over 289 unit cells with max indices [  8  8  0  ]
Reciprocal space sums over 81 terms with max indices [  4  4  0  ]

---------- Allocating electronic variables ----------
Initializing wave functions:  linear combination of atomic orbitals
Note: number of bands (6) exceeds available atomic orbitals (5)
Cs pseudo-atom occupations:   s ( 2 1 )  p ( 6 )
[d-4-6-1:73237] 18 more processes have sent help message help-mpi-common-cuda.txt / dlopen failed
[d-4-6-1:73237] Set MCA parameter "orte_base_help_aggregate" to 0 to see all help / error messages
[d-4-6-1:73237] 18 more processes have sent help message help-mpi-btl-openib-cpc-base.txt / no cpcs for port
	FillingsUpdate:  mu: -0.078876558  nElectrons: 9.000000  magneticMoment: [ Abs: 0.28000  Tot: -0.28000 ]
LCAOMinimize: Iter:   0  F: -20.1749469953471596  |grad|_K:  2.435e-05  alpha:  1.000e+00
	FillingsUpdate:  mu: -0.078871183  nElectrons: 9.000000  magneticMoment: [ Abs: 0.28000  Tot: -0.28000 ]
LCAOMinimize: Iter:   1  F: -20.1749473954990677  |grad|_K:  1.760e-07  alpha:  9.866e-01  linmin: -2.989e-02  cgtest:  5.543e-01  t[s]:      8.84
LCAOMinimize: Encountered beta<0, resetting CG.
	FillingsUpdate:  mu: -0.078871178  nElectrons: 9.000000  magneticMoment: [ Abs: 0.28000  Tot: -0.28000 ]
LCAOMinimize: Iter:   2  F: -20.1749473955200358  |grad|_K:  1.341e-09  alpha:  9.935e-01  linmin: -7.171e-02  cgtest:  9.909e-01  t[s]:     11.26
LCAOMinimize: Encountered beta<0, resetting CG.
LCAOMinimize: Converged (|Delta F|<1.000000e-06 for 2 iters).


---- Citations for features of the code used in this run ----

   Software package:
      R. Sundararaman, K. Letchworth-Weaver, K.A. Schwarz, D. Gunceler, Y. Ozhabes and T.A. Arias, 'JDFTx: software for joint density-functional theory', SoftwareX 6, 278 (2017)

   gga-PBE exchange-correlation functional:
      J.P. Perdew, K. Burke and M. Ernzerhof, Phys. Rev. Lett. 77, 3865 (1996)

   Pseudopotentials:
      M Schlipf and F Gygi, Comput. Phys. Commun. 196, 36 (2015)

   Truncated Coulomb potentials:
      R. Sundararaman and T.A. Arias, Phys. Rev. B 87, 165122 (2013)

This list may not be complete. Please suggest additional citations or
report any other bugs at https://github.com/shankar1729/jdftx/issues

Initialization completed successfully at t[s]:     11.42


-------- Electronic minimization -----------
Will mix electronic density at each iteration.
	FillingsUpdate:  mu: -0.078871178  nElectrons: 9.000000  magneticMoment: [ Abs: 0.28000  Tot: -0.28000 ]
	FillingsUpdate:  mu: -0.082226940  nElectrons: 9.000000  magneticMoment: [ Abs: 0.28000  Tot: -0.28000 ]
SCF: Cycle:  0   F: -20.177336368261994   dF: -2.389e-03   |Residual|: 4.581e-03   |deigs|: 1.731e-01  t[s]:     16.23
	FillingsUpdate:  mu: -0.082448400  nElectrons: 9.000000  magneticMoment: [ Abs: 0.28000  Tot: -0.28000 ]
SCF: Cycle:  1   F: -20.177449340865412   dF: -1.130e-04   |Residual|: 4.076e-03   |deigs|: 4.989e-03  t[s]:     20.10
	FillingsUpdate:  mu: -0.082713420  nElectrons: 9.000000  magneticMoment: [ Abs: 0.28256  Tot: -0.28000 ]
SCF: Cycle:  2   F: -20.177519858300140   dF: -7.052e-05   |Residual|: 2.175e-03   |deigs|: 2.438e-03  t[s]:     23.91
	FillingsUpdate:  mu: -0.082710647  nElectrons: 9.000000  magneticMoment: [ Abs: 0.28200  Tot: -0.28000 ]
SCF: Cycle:  3   F: -20.177544218822899   dF: -2.436e-05   |Residual|: 1.494e-03   |deigs|: 1.416e-03  t[s]:     27.77
	FillingsUpdate:  mu: -0.082535187  nElectrons: 9.000000  magneticMoment: [ Abs: 0.28019  Tot: -0.28000 ]
SCF: Cycle:  4   F: -20.177559312812267   dF: -1.509e-05   |Residual|: 9.148e-04   |deigs|: 8.723e-04  t[s]:     31.77
	FillingsUpdate:  mu: -0.082375971  nElectrons: 9.000000  magneticMoment: [ Abs: 0.28018  Tot: -0.28000 ]
SCF: Cycle:  5   F: -20.177565732691715   dF: -6.420e-06   |Residual|: 6.688e-04   |deigs|: 7.509e-04  t[s]:     35.79
	FillingsUpdate:  mu: -0.081990528  nElectrons: 9.000000  magneticMoment: [ Abs: 0.28101  Tot: -0.28000 ]
SCF: Cycle:  6   F: -20.177568553354732   dF: -2.821e-06   |Residual|: 5.350e-04   |deigs|: 1.479e-03  t[s]:     39.84
	FillingsUpdate:  mu: -0.081598678  nElectrons: 9.000000  magneticMoment: [ Abs: 0.28194  Tot: -0.28000 ]
SCF: Cycle:  7   F: -20.177568893943015   dF: -3.406e-07   |Residual|: 4.523e-04   |deigs|: 7.830e-04  t[s]:     44.01
	FillingsUpdate:  mu: -0.080926133  nElectrons: 9.000000  magneticMoment: [ Abs: 0.28257  Tot: -0.28000 ]
SCF: Cycle:  8   F: -20.177566662525738   dF: +2.231e-06   |Residual|: 3.666e-04   |deigs|: 8.451e-04  t[s]:     48.20
	FillingsUpdate:  mu: -0.080495031  nElectrons: 9.000000  magneticMoment: [ Abs: 0.28178  Tot: -0.28000 ]
SCF: Cycle:  9   F: -20.177568800186311   dF: -2.138e-06   |Residual|: 3.236e-04   |deigs|: 6.089e-04  t[s]:     52.50
	FillingsUpdate:  mu: -0.080380540  nElectrons: 9.000000  magneticMoment: [ Abs: 0.28156  Tot: -0.28000 ]
SCF: Cycle: 10   F: -20.177570924910373   dF: -2.125e-06   |Residual|: 2.725e-04   |deigs|: 3.265e-04  t[s]:     56.85
	FillingsUpdate:  mu: -0.079933126  nElectrons: 9.000000  magneticMoment: [ Abs: 0.28217  Tot: -0.28000 ]
SCF: Cycle: 11   F: -20.177571741506469   dF: -8.166e-07   |Residual|: 2.381e-04   |deigs|: 8.194e-04  t[s]:     61.19
	FillingsUpdate:  mu: -0.079313233  nElectrons: 9.000000  magneticMoment: [ Abs: 0.28192  Tot: -0.28000 ]
SCF: Cycle: 12   F: -20.177570479559133   dF: +1.262e-06   |Residual|: 2.406e-04   |deigs|: 6.985e-04  t[s]:     65.52
	FillingsUpdate:  mu: -0.078960891  nElectrons: 9.000000  magneticMoment: [ Abs: 0.28079  Tot: -0.28000 ]
SCF: Cycle: 13   F: -20.177570747858343   dF: -2.683e-07   |Residual|: 2.265e-04   |deigs|: 5.382e-04  t[s]:     69.78
	FillingsUpdate:  mu: -0.078768358  nElectrons: 9.000000  magneticMoment: [ Abs: 0.28139  Tot: -0.28000 ]
SCF: Cycle: 14   F: -20.177573035986622   dF: -2.288e-06   |Residual|: 1.906e-04   |deigs|: 3.242e-04  t[s]:     74.16
	FillingsUpdate:  mu: -0.078430932  nElectrons: 9.000000  magneticMoment: [ Abs: 0.28110  Tot: -0.28000 ]
SCF: Cycle: 15   F: -20.177575061296508   dF: -2.025e-06   |Residual|: 1.408e-04   |deigs|: 3.834e-04  t[s]:     78.50
	FillingsUpdate:  mu: -0.078224425  nElectrons: 9.000000  magneticMoment: [ Abs: 0.28060  Tot: -0.28000 ]
SCF: Cycle: 16   F: -20.177576159905424   dF: -1.099e-06   |Residual|: 9.506e-05   |deigs|: 1.974e-04  t[s]:     82.78
	FillingsUpdate:  mu: -0.078190908  nElectrons: 9.000000  magneticMoment: [ Abs: 0.28038  Tot: -0.28000 ]
SCF: Cycle: 17   F: -20.177576419188174   dF: -2.593e-07   |Residual|: 6.143e-05   |deigs|: 5.796e-05  t[s]:     86.99
	FillingsUpdate:  mu: -0.078191678  nElectrons: 9.000000  magneticMoment: [ Abs: 0.28034  Tot: -0.28000 ]
SCF: Cycle: 18   F: -20.177576599547937   dF: -1.804e-07   |Residual|: 3.265e-05   |deigs|: 4.120e-05  t[s]:     91.26
	FillingsUpdate:  mu: -0.078204560  nElectrons: 9.000000  magneticMoment: [ Abs: 0.28037  Tot: -0.28000 ]
SCF: Cycle: 19   F: -20.177576650019013   dF: -5.047e-08   |Residual|: 2.324e-05   |deigs|: 3.726e-05  t[s]:     95.57
	FillingsUpdate:  mu: -0.078212428  nElectrons: 9.000000  magneticMoment: [ Abs: 0.28035  Tot: -0.28000 ]
SCF: Cycle: 20   F: -20.177576677063161   dF: -2.704e-08   |Residual|: 1.522e-05   |deigs|: 5.089e-05  t[s]:     99.94
	FillingsUpdate:  mu: -0.078219210  nElectrons: 9.000000  magneticMoment: [ Abs: 0.28036  Tot: -0.28000 ]
SCF: Cycle: 21   F: -20.177576694363889   dF: -1.730e-08   |Residual|: 8.805e-06   |deigs|: 6.030e-05  t[s]:    104.25
	FillingsUpdate:  mu: -0.078217594  nElectrons: 9.000000  magneticMoment: [ Abs: 0.28036  Tot: -0.28000 ]
SCF: Cycle: 22   F: -20.177576699800856   dF: -5.437e-09   |Residual|: 6.630e-06   |deigs|: 4.620e-05  t[s]:    108.61
	FillingsUpdate:  mu: -0.078219073  nElectrons: 9.000000  magneticMoment: [ Abs: 0.28036  Tot: -0.28000 ]
SCF: Cycle: 23   F: -20.177576702942744   dF: -3.142e-09   |Residual|: 6.315e-06   |deigs|: 2.463e-04  t[s]:    113.01
SCF: Converged (|Delta E|<1.000000e-08 for 2 iters).


# Ionic positions in lattice coordinates:
ion Cs   0.000000000000000   0.000000000000000   0.000000000000000 0

# Forces in Lattice coordinates:
force Cs   0.000000000000000   0.000000000000000   0.000000000000000 0

# Energy components:
   Eewald =      -12.0320174002217755
       EH =        4.0123521654412704
     Eloc =      -17.5815384249911766
      Enl =        3.4317088416991357
   Epulay =       -0.0000000107257212
      Exc =       -3.1084852265629892
       KE =        5.1004040374392430
-------------------------------------
     Etot =      -20.1775760179220107
       TS =        0.0000006850207335
-------------------------------------
        F =      -20.1775767029427442

IonicMinimize: Iter:   0  F: -20.177576702942744  |grad|_K:  0.000e+00  t[s]:    113.27
IonicMinimize: Converged (|grad|_K<1.000000e-04).

#--- Lowdin population analysis ---
# oxidation-state Cs +0.046
# magnetic-moments Cs -0.252

End date and time: Sun Feb  6 13:19:14 2022  (Duration: 0-0:01:53.32)
Done!
scale=4
magnetization=-0.28
--------------------------------------------------------------------------
The library attempted to open the following supporting CUDA libraries,
but each of them failed.  CUDA-aware support is disabled.
libcuda.so.1: cannot open shared object file: No such file or directory
libcuda.dylib: cannot open shared object file: No such file or directory
/usr/lib64/libcuda.so.1: cannot open shared object file: No such file or directory
/usr/lib64/libcuda.dylib: cannot open shared object file: No such file or directory
If you are not interested in CUDA-aware support, then run with
--mca opal_warn_on_missing_libcuda 0 to suppress this message.  If you are interested
in CUDA-aware support, then try setting LD_LIBRARY_PATH to the location
of libcuda.so.1 to get passed this issue.
--------------------------------------------------------------------------
--------------------------------------------------------------------------
No OpenFabrics connection schemes reported that they were able to be
used on a specific port.  As such, the openib BTL (OpenFabrics
support) will be disabled for this port.

  Local host:           d-4-6-1
  Local device:         mlx5_1
  Local port:           1
  CPCs attempted:       rdmacm, udcm
--------------------------------------------------------------------------

*************** JDFTx 1.6.0 (git hash 42ebbcc2) ***************

Start date and time: Sun Feb  6 13:19:15 2022
Executable jdftx with command-line: -i Alkali.in
Running on hosts (process indices):  d-4-6-1 (0-18)
Divided in process groups (process indices):  0 (0)  1 (1)  2 (2)  3 (3)  4 (4)  5 (5)  6 (6)  7 (7)  8 (8)  9 (9)  10 (10)  11 (11)  12 (12)  13 (13)  14 (14)  15 (15)  16 (16)  17 (17)  18 (18)
Resource initialization completed at t[s]:      0.00
Run totals: 19 processes, 48 threads, 0 GPUs


Input parsed successfully to the following command list (including defaults):

basis kpoint-dependent
coords-type Lattice
core-overlap-check vector
coulomb-interaction Slab 001
davidson-band-ratio 1.1
dump End None
dump-name $INPUT.$VAR
elec-cutoff 20
elec-eigen-algo Davidson
elec-ex-corr gga-PBE
elec-initial-magnetization -0.280000 yes
elec-smearing Fermi 1e-05
electronic-minimize  \
	dirUpdateScheme      FletcherReeves \
	linminMethod         DirUpdateRecommended \
	nIterations          100 \
	history              15 \
	knormThreshold       0 \
	energyDiffThreshold  1e-08 \
	nEnergyDiff          2 \
	alphaTstart          1 \
	alphaTmin            1e-10 \
	updateTestStepSize   yes \
	alphaTreduceFactor   0.1 \
	alphaTincreaseFactor 3 \
	nAlphaAdjustMax      3 \
	wolfeEnergy          0.0001 \
	wolfeGradient        0.9 \
	fdTest               no
electronic-scf  \
	nIterations	10000 \
	energyDiffThreshold	1e-08 \
	residualThreshold	1e-07 \
	mixFraction	0.5 \
	qMetric	0.8 \
	history	10 \
	nEigSteps	2 \
	eigDiffThreshold	1e-08 \
	mixedVariable	Density \
	qKerker	0.8 \
	qKappa	-1 \
	verbose	no \
	mixFractionMag	1.5
exchange-regularization WignerSeitzTruncated
fluid None
fluid-ex-corr (null) lda-PZ
fluid-gummel-loop 10 1.000000e-05
fluid-minimize  \
	dirUpdateScheme      PolakRibiere \
	linminMethod         DirUpdateRecommended \
	nIterations          100 \
	history              15 \
	knormThreshold       0 \
	energyDiffThreshold  0 \
	nEnergyDiff          2 \
	alphaTstart          1 \
	alphaTmin            1e-10 \
	updateTestStepSize   yes \
	alphaTreduceFactor   0.1 \
	alphaTincreaseFactor 3 \
	nAlphaAdjustMax      3 \
	wolfeEnergy          0.0001 \
	wolfeGradient        0.9 \
	fdTest               no
fluid-solvent H2O 55.338 ScalarEOS \
	epsBulk 78.4 \
	pMol 0.92466 \
	epsInf 1.77 \
	Pvap 1.06736e-10 \
	sigmaBulk 4.62e-05 \
	Rvdw 2.61727 \
	Res 1.42 \
	tauNuc 343133 \
	poleEl 15 7 1
forces-output-coords Positions
ion Cs   0.000000000000000   0.000000000000000   0.000000000000000 0
ion-species SG15/$ID_ONCV_PBE.upf
ion-width 0
ionic-minimize  \
	dirUpdateScheme      L-BFGS \
	linminMethod         DirUpdateRecommended \
	nIterations          0 \
	history              15 \
	knormThreshold       0.0001 \
	energyDiffThreshold  1e-06 \
	nEnergyDiff          2 \
	alphaTstart          1 \
	alphaTmin            1e-10 \
	updateTestStepSize   yes \
	alphaTreduceFactor   0.1 \
	alphaTincreaseFactor 3 \
	nAlphaAdjustMax      3 \
	wolfeEnergy          0.0001 \
	wolfeGradient        0.9 \
	fdTest               no
kpoint   0.000000000000   0.000000000000   0.000000000000  1.00000000000000
kpoint-folding 12 12 1 
latt-move-scale 1 1 1
latt-scale 4 4 1 
lattice  \
	   4.727486978767153   -2.363743489383575    0.000000000000000  \
	  -0.000000000000000    4.094123819672498    0.000000000000000  \
	   0.000000000000000    0.000000000000000   40.000000000000000 
lattice-minimize  \
	dirUpdateScheme      L-BFGS \
	linminMethod         DirUpdateRecommended \
	nIterations          0 \
	history              15 \
	knormThreshold       0 \
	energyDiffThreshold  1e-06 \
	nEnergyDiff          2 \
	alphaTstart          1 \
	alphaTmin            1e-10 \
	updateTestStepSize   yes \
	alphaTreduceFactor   0.1 \
	alphaTincreaseFactor 3 \
	nAlphaAdjustMax      3 \
	wolfeEnergy          0.0001 \
	wolfeGradient        0.9 \
	fdTest               no
lcao-params -1 1e-06 1e-05
pcm-variant GLSSA13
spintype z-spin
subspace-rotation-factor 1 yes
symmetries automatic
symmetry-threshold 0.0001



---------- Setting up symmetries ----------

Found 24 point-group symmetries of the bravais lattice
Found 24 space-group symmetries with basis
Applied RMS atom displacement 0 bohrs to make symmetries exact.

---------- Initializing the Grid ----------
R = 
[      18.9099     -9.45497            0  ]
[            0      16.3765            0  ]
[            0            0           40  ]
unit cell volume = 12387.1
G =
[   0.332269   0.191835         -0  ]
[          0   0.383671         -0  ]
[         -0         -0    0.15708  ]
Minimum fftbox size, Smin = [  80  80  164  ]
Chosen fftbox size, S = [  80  80  168  ]

---------- Exchange Correlation functional ----------
Initalized PBE GGA exchange.
Initalized PBE GGA correlation.

---------- Setting up pseudopotentials ----------
Width of ionic core gaussian charges (only for fluid interactions / plotting) set to 0

Reading pseudopotential file '/home/gridsan/aligho/DFT/build-Nov24/pseudopotentials/SG15/Cs_ONCV_PBE.upf':
  'Cs' pseudopotential, 'PBE' functional
  Generated using ONCVPSP code by D. R. Hamann
  Author: Martin Schlipf and Francois Gygi  Date: 150915.
  9 valence electrons, 3 orbitals, 6 projectors, 2414 radial grid points, with lMax = 2
  Transforming local potential to a uniform radial grid of dG=0.02 with 1489 points.
  Transforming nonlocal projectors to a uniform radial grid of dG=0.02 with 432 points.
    5S    l: 0   occupation:  2.0   eigenvalue: -0.982388
    5P    l: 1   occupation:  6.0   eigenvalue: -0.496786
    6S    l: 0   occupation:  1.0   eigenvalue: -0.076670
  Transforming atomic orbitals to a uniform radial grid of dG=0.02 with 432 points.
  Core radius for overlap checks: 2.06 bohrs.
  Reading pulay file /home/gridsan/aligho/DFT/build-Nov24/pseudopotentials/SG15/Cs_ONCV_PBE.pulay ... using dE_dnG = -1.008762e-04 computed for Ecut = 20.

Initialized 1 species with 1 total atoms.

Folded 1 k-points by 12x12x1 to 144 k-points.

---------- Setting up k-points, bands, fillings ----------
Reduced to 19 k-points under symmetry. 
Computing the number of bands and number of electrons
Calculating initial fillings.
nElectrons:   9.000000   nBands: 6   nStates: 38

----- Setting up reduced wavefunction bases (one per k-point) -----
average nbasis = 52924.021 , ideal nbasis = 52918.836

---------- Setting up coulomb interaction ----------
Initialized slab truncation along lattice direction 001

---------- Setting up 2D ewald sum ----------
Optimum gaussian width for ewald sums = 10.498040 bohr.
Real space sums over 289 unit cells with max indices [  8  8  0  ]
Reciprocal space sums over 81 terms with max indices [  4  4  0  ]

---------- Allocating electronic variables ----------
Initializing wave functions:  linear combination of atomic orbitals
Note: number of bands (6) exceeds available atomic orbitals (5)
Cs pseudo-atom occupations:   s ( 2 1 )  p ( 6 )
[d-4-6-1:28962] 18 more processes have sent help message help-mpi-common-cuda.txt / dlopen failed
[d-4-6-1:28962] Set MCA parameter "orte_base_help_aggregate" to 0 to see all help / error messages
[d-4-6-1:28962] 18 more processes have sent help message help-mpi-btl-openib-cpc-base.txt / no cpcs for port
	FillingsUpdate:  mu: -0.077373921  nElectrons: 9.000000  magneticMoment: [ Abs: 0.28000  Tot: -0.28000 ]
LCAOMinimize: Iter:   0  F: -20.1679827355028749  |grad|_K:  7.232e-06  alpha:  1.000e+00
	FillingsUpdate:  mu: -0.077372436  nElectrons: 9.000000  magneticMoment: [ Abs: 0.28000  Tot: -0.28000 ]
LCAOMinimize: Iter:   1  F: -20.1679827708938468  |grad|_K:  3.546e-08  alpha:  9.893e-01  linmin: -6.355e-03  cgtest:  3.569e-01  t[s]:     15.13
LCAOMinimize: Encountered beta<0, resetting CG.
	FillingsUpdate:  mu: -0.077372435  nElectrons: 9.000000  magneticMoment: [ Abs: 0.28000  Tot: -0.28000 ]
LCAOMinimize: Iter:   2  F: -20.1679827708946355  |grad|_K:  4.918e-09  alpha:  8.617e-01  linmin: -1.621e-02  cgtest:  1.000e+00  t[s]:     19.16
LCAOMinimize: Encountered beta<0, resetting CG.
LCAOMinimize: Converged (|Delta F|<1.000000e-06 for 2 iters).


---- Citations for features of the code used in this run ----

   Software package:
      R. Sundararaman, K. Letchworth-Weaver, K.A. Schwarz, D. Gunceler, Y. Ozhabes and T.A. Arias, 'JDFTx: software for joint density-functional theory', SoftwareX 6, 278 (2017)

   gga-PBE exchange-correlation functional:
      J.P. Perdew, K. Burke and M. Ernzerhof, Phys. Rev. Lett. 77, 3865 (1996)

   Pseudopotentials:
      M Schlipf and F Gygi, Comput. Phys. Commun. 196, 36 (2015)

   Truncated Coulomb potentials:
      R. Sundararaman and T.A. Arias, Phys. Rev. B 87, 165122 (2013)

This list may not be complete. Please suggest additional citations or
report any other bugs at https://github.com/shankar1729/jdftx/issues

Initialization completed successfully at t[s]:     19.42


-------- Electronic minimization -----------
Will mix electronic density at each iteration.
	FillingsUpdate:  mu: -0.077372435  nElectrons: 9.000000  magneticMoment: [ Abs: 0.28000  Tot: -0.28000 ]
	FillingsUpdate:  mu: -0.077580628  nElectrons: 9.000000  magneticMoment: [ Abs: 0.28000  Tot: -0.28000 ]
SCF: Cycle:  0   F: -20.168219735262792   dF: -2.370e-04   |Residual|: 1.052e-03   |deigs|: 1.750e-01  t[s]:     27.68
	FillingsUpdate:  mu: -0.077634331  nElectrons: 9.000000  magneticMoment: [ Abs: 0.28139  Tot: -0.28000 ]
SCF: Cycle:  1   F: -20.168228343689147   dF: -8.608e-06   |Residual|: 8.265e-04   |deigs|: 4.385e-03  t[s]:     34.13
	FillingsUpdate:  mu: -0.077698856  nElectrons: 9.000000  magneticMoment: [ Abs: 0.28137  Tot: -0.28000 ]
SCF: Cycle:  2   F: -20.168231233135401   dF: -2.889e-06   |Residual|: 6.925e-04   |deigs|: 8.023e-04  t[s]:     40.79
	FillingsUpdate:  mu: -0.077853583  nElectrons: 9.000000  magneticMoment: [ Abs: 0.28270  Tot: -0.28000 ]
SCF: Cycle:  3   F: -20.168235087355370   dF: -3.854e-06   |Residual|: 4.746e-04   |deigs|: 8.358e-04  t[s]:     47.49
	FillingsUpdate:  mu: -0.077974703  nElectrons: 9.000000  magneticMoment: [ Abs: 0.28222  Tot: -0.28000 ]
SCF: Cycle:  4   F: -20.168238433899983   dF: -3.347e-06   |Residual|: 3.172e-04   |deigs|: 6.029e-04  t[s]:     54.29
	FillingsUpdate:  mu: -0.078076923  nElectrons: 9.000000  magneticMoment: [ Abs: 0.28222  Tot: -0.28000 ]
SCF: Cycle:  5   F: -20.168240781410809   dF: -2.348e-06   |Residual|: 2.051e-04   |deigs|: 5.522e-04  t[s]:     61.21
	FillingsUpdate:  mu: -0.078059170  nElectrons: 9.000000  magneticMoment: [ Abs: 0.28227  Tot: -0.28000 ]
SCF: Cycle:  6   F: -20.168241689107521   dF: -9.077e-07   |Residual|: 1.430e-04   |deigs|: 4.710e-04  t[s]:     68.18
	FillingsUpdate:  mu: -0.078039062  nElectrons: 9.000000  magneticMoment: [ Abs: 0.28203  Tot: -0.28000 ]
SCF: Cycle:  7   F: -20.168242241808926   dF: -5.527e-07   |Residual|: 1.058e-04   |deigs|: 4.686e-04  t[s]:     75.30
	FillingsUpdate:  mu: -0.078006112  nElectrons: 9.000000  magneticMoment: [ Abs: 0.28192  Tot: -0.28000 ]
SCF: Cycle:  8   F: -20.168242557824854   dF: -3.160e-07   |Residual|: 8.493e-05   |deigs|: 2.651e-04  t[s]:     82.65
	FillingsUpdate:  mu: -0.077943693  nElectrons: 9.000000  magneticMoment: [ Abs: 0.28188  Tot: -0.28000 ]
SCF: Cycle:  9   F: -20.168242629496390   dF: -7.167e-08   |Residual|: 6.993e-05   |deigs|: 2.711e-04  t[s]:     90.06
	FillingsUpdate:  mu: -0.077896667  nElectrons: 9.000000  magneticMoment: [ Abs: 0.28208  Tot: -0.28000 ]
SCF: Cycle: 10   F: -20.168242666812354   dF: -3.732e-08   |Residual|: 6.309e-05   |deigs|: 4.704e-04  t[s]:     97.49
	FillingsUpdate:  mu: -0.077851877  nElectrons: 9.000000  magneticMoment: [ Abs: 0.28213  Tot: -0.28000 ]
SCF: Cycle: 11   F: -20.168242643938974   dF: +2.287e-08   |Residual|: 5.898e-05   |deigs|: 3.129e-04  t[s]:    104.91
	FillingsUpdate:  mu: -0.077777000  nElectrons: 9.000000  magneticMoment: [ Abs: 0.28218  Tot: -0.28000 ]
SCF: Cycle: 12   F: -20.168242401114565   dF: +2.428e-07   |Residual|: 5.088e-05   |deigs|: 1.962e-04  t[s]:    112.41
	FillingsUpdate:  mu: -0.077713244  nElectrons: 9.000000  magneticMoment: [ Abs: 0.28222  Tot: -0.28000 ]
SCF: Cycle: 13   F: -20.168242453579772   dF: -5.247e-08   |Residual|: 4.756e-05   |deigs|: 1.175e-04  t[s]:    119.81
	FillingsUpdate:  mu: -0.077663564  nElectrons: 9.000000  magneticMoment: [ Abs: 0.28219  Tot: -0.28000 ]
SCF: Cycle: 14   F: -20.168242612145324   dF: -1.586e-07   |Residual|: 4.202e-05   |deigs|: 9.090e-05  t[s]:    127.35
	FillingsUpdate:  mu: -0.077608561  nElectrons: 9.000000  magneticMoment: [ Abs: 0.28201  Tot: -0.28000 ]
SCF: Cycle: 15   F: -20.168242642815109   dF: -3.067e-08   |Residual|: 3.830e-05   |deigs|: 1.058e-04  t[s]:    134.79
	FillingsUpdate:  mu: -0.077561133  nElectrons: 9.000000  magneticMoment: [ Abs: 0.28195  Tot: -0.28000 ]
SCF: Cycle: 16   F: -20.168242579031272   dF: +6.378e-08   |Residual|: 3.492e-05   |deigs|: 9.560e-05  t[s]:    142.26
	FillingsUpdate:  mu: -0.077547714  nElectrons: 9.000000  magneticMoment: [ Abs: 0.28187  Tot: -0.28000 ]
SCF: Cycle: 17   F: -20.168242742708745   dF: -1.637e-07   |Residual|: 2.663e-05   |deigs|: 6.229e-05  t[s]:    149.78
	FillingsUpdate:  mu: -0.077533658  nElectrons: 9.000000  magneticMoment: [ Abs: 0.28183  Tot: -0.28000 ]
SCF: Cycle: 18   F: -20.168242752401092   dF: -9.692e-09   |Residual|: 2.097e-05   |deigs|: 4.213e-05  t[s]:    157.27
	FillingsUpdate:  mu: -0.077522333  nElectrons: 9.000000  magneticMoment: [ Abs: 0.28183  Tot: -0.28000 ]
SCF: Cycle: 19   F: -20.168242822779490   dF: -7.038e-08   |Residual|: 1.683e-05   |deigs|: 2.483e-05  t[s]:    164.70
	FillingsUpdate:  mu: -0.077515375  nElectrons: 9.000000  magneticMoment: [ Abs: 0.28184  Tot: -0.28000 ]
SCF: Cycle: 20   F: -20.168242865086651   dF: -4.231e-08   |Residual|: 1.210e-05   |deigs|: 1.791e-05  t[s]:    172.11
	FillingsUpdate:  mu: -0.077516947  nElectrons: 9.000000  magneticMoment: [ Abs: 0.28185  Tot: -0.28000 ]
SCF: Cycle: 21   F: -20.168242900609624   dF: -3.552e-08   |Residual|: 8.824e-06   |deigs|: 1.410e-05  t[s]:    179.59
	FillingsUpdate:  mu: -0.077515699  nElectrons: 9.000000  magneticMoment: [ Abs: 0.28186  Tot: -0.28000 ]
SCF: Cycle: 22   F: -20.168242898191526   dF: +2.418e-09   |Residual|: 6.254e-06   |deigs|: 9.953e-06  t[s]:    187.01
	FillingsUpdate:  mu: -0.077515783  nElectrons: 9.000000  magneticMoment: [ Abs: 0.28187  Tot: -0.28000 ]
SCF: Cycle: 23   F: -20.168242906938943   dF: -8.747e-09   |Residual|: 4.339e-06   |deigs|: 1.005e-05  t[s]:    194.52
	FillingsUpdate:  mu: -0.077517144  nElectrons: 9.000000  magneticMoment: [ Abs: 0.28188  Tot: -0.28000 ]
SCF: Cycle: 24   F: -20.168242906330377   dF: +6.086e-10   |Residual|: 3.342e-06   |deigs|: 1.308e-05  t[s]:    201.73
	FillingsUpdate:  mu: -0.077518103  nElectrons: 9.000000  magneticMoment: [ Abs: 0.28186  Tot: -0.28000 ]
SCF: Cycle: 25   F: -20.168242906920806   dF: -5.904e-10   |Residual|: 1.914e-06   |deigs|: 1.595e-05  t[s]:    209.16
	FillingsUpdate:  mu: -0.077519305  nElectrons: 9.000000  magneticMoment: [ Abs: 0.28185  Tot: -0.28000 ]
SCF: Cycle: 26   F: -20.168242910413220   dF: -3.492e-09   |Residual|: 9.870e-07   |deigs|: 2.001e-05  t[s]:    216.38
SCF: Converged (|Delta E|<1.000000e-08 for 2 iters).


# Ionic positions in lattice coordinates:
ion Cs   0.000000000000000   0.000000000000000   0.000000000000000 0

# Forces in Lattice coordinates:
force Cs   0.000000000000000   0.000000000000000   0.000000000000000 0

# Energy components:
   Eewald =       -9.0240130501663280
       EH =        7.0043083579396530
     Eloc =      -23.5883088239043559
      Enl =        3.4364867536147718
   Epulay =        0.0000000422266766
      Exc =       -3.1054134474703425
       KE =        5.1086980008093876
-------------------------------------
     Etot =      -20.1682421669505381
       TS =        0.0000007434626821
-------------------------------------
        F =      -20.1682429104132197

IonicMinimize: Iter:   0  F: -20.168242910413220  |grad|_K:  0.000e+00  t[s]:    216.80
IonicMinimize: Converged (|grad|_K<1.000000e-04).

#--- Lowdin population analysis ---
# oxidation-state Cs +0.006
# magnetic-moments Cs -0.279

End date and time: Sun Feb  6 13:22:52 2022  (Duration: 0-0:03:36.86)
Done!
