The alkali metal is Cs
scale=2
magnetization=-0.48
--------------------------------------------------------------------------
The library attempted to open the following supporting CUDA libraries,
but each of them failed.  CUDA-aware support is disabled.
libcuda.so.1: cannot open shared object file: No such file or directory
libcuda.dylib: cannot open shared object file: No such file or directory
/usr/lib64/libcuda.so.1: cannot open shared object file: No such file or directory
/usr/lib64/libcuda.dylib: cannot open shared object file: No such file or directory
If you are not interested in CUDA-aware support, then run with
--mca opal_warn_on_missing_libcuda 0 to suppress this message.  If you are interested
in CUDA-aware support, then try setting LD_LIBRARY_PATH to the location
of libcuda.so.1 to get passed this issue.
--------------------------------------------------------------------------
--------------------------------------------------------------------------
No OpenFabrics connection schemes reported that they were able to be
used on a specific port.  As such, the openib BTL (OpenFabrics
support) will be disabled for this port.

  Local host:           d-4-9-2
  Local device:         mlx5_1
  Local port:           1
  CPCs attempted:       rdmacm, udcm
--------------------------------------------------------------------------

*************** JDFTx 1.6.0 (git hash 42ebbcc2) ***************

Start date and time: Sun Feb  6 13:15:50 2022
Executable jdftx with command-line: -i Alkali.in
Running on hosts (process indices):  d-4-9-2 (0-18)
Divided in process groups (process indices):  0 (0)  1 (1)  2 (2)  3 (3)  4 (4)  5 (5)  6 (6)  7 (7)  8 (8)  9 (9)  10 (10)  11 (11)  12 (12)  13 (13)  14 (14)  15 (15)  16 (16)  17 (17)  18 (18)
Resource initialization completed at t[s]:      0.00
Run totals: 19 processes, 48 threads, 0 GPUs


Input parsed successfully to the following command list (including defaults):

basis kpoint-dependent
coords-type Lattice
core-overlap-check vector
coulomb-interaction Slab 001
davidson-band-ratio 1.1
dump End None
dump-name $INPUT.$VAR
elec-cutoff 20
elec-eigen-algo Davidson
elec-ex-corr gga-PBE
elec-initial-magnetization -0.480000 yes
elec-smearing Fermi 1e-05
electronic-minimize  \
	dirUpdateScheme      FletcherReeves \
	linminMethod         DirUpdateRecommended \
	nIterations          100 \
	history              15 \
	knormThreshold       0 \
	energyDiffThreshold  1e-08 \
	nEnergyDiff          2 \
	alphaTstart          1 \
	alphaTmin            1e-10 \
	updateTestStepSize   yes \
	alphaTreduceFactor   0.1 \
	alphaTincreaseFactor 3 \
	nAlphaAdjustMax      3 \
	wolfeEnergy          0.0001 \
	wolfeGradient        0.9 \
	fdTest               no
electronic-scf  \
	nIterations	10000 \
	energyDiffThreshold	1e-08 \
	residualThreshold	1e-07 \
	mixFraction	0.5 \
	qMetric	0.8 \
	history	10 \
	nEigSteps	2 \
	eigDiffThreshold	1e-08 \
	mixedVariable	Density \
	qKerker	0.8 \
	qKappa	-1 \
	verbose	no \
	mixFractionMag	1.5
exchange-regularization WignerSeitzTruncated
fluid None
fluid-ex-corr (null) lda-PZ
fluid-gummel-loop 10 1.000000e-05
fluid-minimize  \
	dirUpdateScheme      PolakRibiere \
	linminMethod         DirUpdateRecommended \
	nIterations          100 \
	history              15 \
	knormThreshold       0 \
	energyDiffThreshold  0 \
	nEnergyDiff          2 \
	alphaTstart          1 \
	alphaTmin            1e-10 \
	updateTestStepSize   yes \
	alphaTreduceFactor   0.1 \
	alphaTincreaseFactor 3 \
	nAlphaAdjustMax      3 \
	wolfeEnergy          0.0001 \
	wolfeGradient        0.9 \
	fdTest               no
fluid-solvent H2O 55.338 ScalarEOS \
	epsBulk 78.4 \
	pMol 0.92466 \
	epsInf 1.77 \
	Pvap 1.06736e-10 \
	sigmaBulk 4.62e-05 \
	Rvdw 2.61727 \
	Res 1.42 \
	tauNuc 343133 \
	poleEl 15 7 1
forces-output-coords Positions
ion Cs   0.000000000000000   0.000000000000000   0.000000000000000 0
ion-species SG15/$ID_ONCV_PBE.upf
ion-width 0
ionic-minimize  \
	dirUpdateScheme      L-BFGS \
	linminMethod         DirUpdateRecommended \
	nIterations          0 \
	history              15 \
	knormThreshold       0.0001 \
	energyDiffThreshold  1e-06 \
	nEnergyDiff          2 \
	alphaTstart          1 \
	alphaTmin            1e-10 \
	updateTestStepSize   yes \
	alphaTreduceFactor   0.1 \
	alphaTincreaseFactor 3 \
	nAlphaAdjustMax      3 \
	wolfeEnergy          0.0001 \
	wolfeGradient        0.9 \
	fdTest               no
kpoint   0.000000000000   0.000000000000   0.000000000000  1.00000000000000
kpoint-folding 12 12 1 
latt-move-scale 1 1 1
latt-scale 2 2 1 
lattice  \
	   4.727486978767153   -2.363743489383575    0.000000000000000  \
	  -0.000000000000000    4.094123819672498    0.000000000000000  \
	   0.000000000000000    0.000000000000000   40.000000000000000 
lattice-minimize  \
	dirUpdateScheme      L-BFGS \
	linminMethod         DirUpdateRecommended \
	nIterations          0 \
	history              15 \
	knormThreshold       0 \
	energyDiffThreshold  1e-06 \
	nEnergyDiff          2 \
	alphaTstart          1 \
	alphaTmin            1e-10 \
	updateTestStepSize   yes \
	alphaTreduceFactor   0.1 \
	alphaTincreaseFactor 3 \
	nAlphaAdjustMax      3 \
	wolfeEnergy          0.0001 \
	wolfeGradient        0.9 \
	fdTest               no
lcao-params -1 1e-06 1e-05
pcm-variant GLSSA13
spintype z-spin
subspace-rotation-factor 1 yes
symmetries automatic
symmetry-threshold 0.0001



---------- Setting up symmetries ----------

Found 24 point-group symmetries of the bravais lattice
Found 24 space-group symmetries with basis
Applied RMS atom displacement 0 bohrs to make symmetries exact.

---------- Initializing the Grid ----------
R = 
[      9.45497     -4.72749            0  ]
[            0      8.18825            0  ]
[            0            0           40  ]
unit cell volume = 3096.79
G =
[   0.664538   0.383671         -0  ]
[          0   0.767342         -0  ]
[         -0         -0    0.15708  ]
Minimum fftbox size, Smin = [  40  40  164  ]
Chosen fftbox size, S = [  40  40  168  ]

---------- Exchange Correlation functional ----------
Initalized PBE GGA exchange.
Initalized PBE GGA correlation.

---------- Setting up pseudopotentials ----------
Width of ionic core gaussian charges (only for fluid interactions / plotting) set to 0

Reading pseudopotential file '/home/gridsan/aligho/DFT/build-Nov24/pseudopotentials/SG15/Cs_ONCV_PBE.upf':
  'Cs' pseudopotential, 'PBE' functional
  Generated using ONCVPSP code by D. R. Hamann
  Author: Martin Schlipf and Francois Gygi  Date: 150915.
  9 valence electrons, 3 orbitals, 6 projectors, 2414 radial grid points, with lMax = 2
  Transforming local potential to a uniform radial grid of dG=0.02 with 1489 points.
  Transforming nonlocal projectors to a uniform radial grid of dG=0.02 with 432 points.
    5S    l: 0   occupation:  2.0   eigenvalue: -0.982388
    5P    l: 1   occupation:  6.0   eigenvalue: -0.496786
    6S    l: 0   occupation:  1.0   eigenvalue: -0.076670
  Transforming atomic orbitals to a uniform radial grid of dG=0.02 with 432 points.
  Core radius for overlap checks: 2.06 bohrs.
  Reading pulay file /home/gridsan/aligho/DFT/build-Nov24/pseudopotentials/SG15/Cs_ONCV_PBE.pulay ... using dE_dnG = -1.008762e-04 computed for Ecut = 20.

Initialized 1 species with 1 total atoms.

Folded 1 k-points by 12x12x1 to 144 k-points.

---------- Setting up k-points, bands, fillings ----------
Reduced to 19 k-points under symmetry. 
Computing the number of bands and number of electrons
Calculating initial fillings.
nElectrons:   9.000000   nBands: 6   nStates: 38

----- Setting up reduced wavefunction bases (one per k-point) -----
average nbasis = 13230.521 , ideal nbasis = 13229.709

---------- Setting up coulomb interaction ----------
Initialized slab truncation along lattice direction 001

---------- Setting up 2D ewald sum ----------
Optimum gaussian width for ewald sums = 5.249020 bohr.
Real space sums over 289 unit cells with max indices [  8  8  0  ]
Reciprocal space sums over 81 terms with max indices [  4  4  0  ]

---------- Allocating electronic variables ----------
Initializing wave functions:  linear combination of atomic orbitals
Note: number of bands (6) exceeds available atomic orbitals (5)
Cs pseudo-atom occupations:   s ( 2 1 )  p ( 6 )
	FillingsUpdate:  mu: -0.089178305  nElectrons: 9.000000  magneticMoment: [ Abs: 0.48000  Tot: -0.48000 ]
LCAOMinimize: Iter:   0  F: -20.1770137788302719  |grad|_K:  3.186e-05  alpha:  1.000e+00
	FillingsUpdate:  mu: -0.089164441  nElectrons: 9.000000  magneticMoment: [ Abs: 0.48000  Tot: -0.48000 ]
LCAOMinimize: Iter:   1  F: -20.1770144581847326  |grad|_K:  3.108e-07  alpha:  9.783e-01  linmin: -3.791e-02  cgtest:  2.987e-01  t[s]:      4.73
LCAOMinimize: Encountered beta<0, resetting CG.
[d-4-9-2:80420] 18 more processes have sent help message help-mpi-common-cuda.txt / dlopen failed
[d-4-9-2:80420] Set MCA parameter "orte_base_help_aggregate" to 0 to see all help / error messages
[d-4-9-2:80420] 18 more processes have sent help message help-mpi-btl-openib-cpc-base.txt / no cpcs for port
	FillingsUpdate:  mu: -0.089164550  nElectrons: 9.000000  magneticMoment: [ Abs: 0.48000  Tot: -0.48000 ]
LCAOMinimize: Iter:   2  F: -20.1770144582500173  |grad|_K:  5.090e-09  alpha:  9.846e-01  linmin: -1.450e-01  cgtest:  9.787e-01  t[s]:      5.90
LCAOMinimize: Encountered beta<0, resetting CG.
LCAOMinimize: Converged (|Delta F|<1.000000e-06 for 2 iters).


---- Citations for features of the code used in this run ----

   Software package:
      R. Sundararaman, K. Letchworth-Weaver, K.A. Schwarz, D. Gunceler, Y. Ozhabes and T.A. Arias, 'JDFTx: software for joint density-functional theory', SoftwareX 6, 278 (2017)

   gga-PBE exchange-correlation functional:
      J.P. Perdew, K. Burke and M. Ernzerhof, Phys. Rev. Lett. 77, 3865 (1996)

   Pseudopotentials:
      M Schlipf and F Gygi, Comput. Phys. Commun. 196, 36 (2015)

   Truncated Coulomb potentials:
      R. Sundararaman and T.A. Arias, Phys. Rev. B 87, 165122 (2013)

This list may not be complete. Please suggest additional citations or
report any other bugs at https://github.com/shankar1729/jdftx/issues

Initialization completed successfully at t[s]:      5.99


-------- Electronic minimization -----------
Will mix electronic density at each iteration.
	FillingsUpdate:  mu: -0.089164550  nElectrons: 9.000000  magneticMoment: [ Abs: 0.48000  Tot: -0.48000 ]
	FillingsUpdate:  mu: -0.101645490  nElectrons: 9.000000  magneticMoment: [ Abs: 0.48000  Tot: -0.48000 ]
SCF: Cycle:  0   F: -20.184547566463294   dF: -7.533e-03   |Residual|: 1.494e-02   |deigs|: 1.880e-01  t[s]:      8.35
	FillingsUpdate:  mu: -0.101543032  nElectrons: 9.000000  magneticMoment: [ Abs: 0.48000  Tot: -0.48000 ]
SCF: Cycle:  1   F: -20.185286244848388   dF: -7.387e-04   |Residual|: 1.157e-02   |deigs|: 5.389e-03  t[s]:     10.17
	FillingsUpdate:  mu: -0.098768285  nElectrons: 9.000000  magneticMoment: [ Abs: 0.48849  Tot: -0.48000 ]
SCF: Cycle:  2   F: -20.185645738387048   dF: -3.595e-04   |Residual|: 5.977e-03   |deigs|: 2.395e-03  t[s]:     12.01
	FillingsUpdate:  mu: -0.096821868  nElectrons: 9.000000  magneticMoment: [ Abs: 0.48000  Tot: -0.48000 ]
SCF: Cycle:  3   F: -20.185812176157071   dF: -1.664e-04   |Residual|: 3.948e-03   |deigs|: 2.888e-03  t[s]:     13.84
	FillingsUpdate:  mu: -0.094336802  nElectrons: 9.000000  magneticMoment: [ Abs: 0.48017  Tot: -0.48000 ]
SCF: Cycle:  4   F: -20.185891257411122   dF: -7.908e-05   |Residual|: 2.957e-03   |deigs|: 3.173e-03  t[s]:     15.74
	FillingsUpdate:  mu: -0.091723569  nElectrons: 9.000000  magneticMoment: [ Abs: 0.48543  Tot: -0.48000 ]
SCF: Cycle:  5   F: -20.185933946032968   dF: -4.269e-05   |Residual|: 2.546e-03   |deigs|: 3.337e-03  t[s]:     17.64
	FillingsUpdate:  mu: -0.088869108  nElectrons: 9.000000  magneticMoment: [ Abs: 0.49386  Tot: -0.48000 ]
SCF: Cycle:  6   F: -20.185935254447998   dF: -1.308e-06   |Residual|: 1.771e-03   |deigs|: 3.470e-03  t[s]:     19.60
	FillingsUpdate:  mu: -0.086328485  nElectrons: 9.000000  magneticMoment: [ Abs: 0.49233  Tot: -0.48000 ]
SCF: Cycle:  7   F: -20.185974762988714   dF: -3.951e-05   |Residual|: 1.480e-03   |deigs|: 2.764e-03  t[s]:     21.55
	FillingsUpdate:  mu: -0.085923924  nElectrons: 9.000000  magneticMoment: [ Abs: 0.48311  Tot: -0.48000 ]
SCF: Cycle:  8   F: -20.186007475378958   dF: -3.271e-05   |Residual|: 1.248e-03   |deigs|: 1.127e-03  t[s]:     23.58
	FillingsUpdate:  mu: -0.084100630  nElectrons: 9.000000  magneticMoment: [ Abs: 0.48453  Tot: -0.48000 ]
SCF: Cycle:  9   F: -20.185995743677633   dF: +1.173e-05   |Residual|: 1.034e-03   |deigs|: 1.922e-03  t[s]:     25.59
	FillingsUpdate:  mu: -0.081992395  nElectrons: 9.000000  magneticMoment: [ Abs: 0.48686  Tot: -0.48000 ]
SCF: Cycle: 10   F: -20.185990725398678   dF: +5.018e-06   |Residual|: 8.686e-04   |deigs|: 2.252e-03  t[s]:     27.63
	FillingsUpdate:  mu: -0.080704607  nElectrons: 9.000000  magneticMoment: [ Abs: 0.48612  Tot: -0.48000 ]
SCF: Cycle: 11   F: -20.186007098342966   dF: -1.637e-05   |Residual|: 7.870e-04   |deigs|: 1.374e-03  t[s]:     29.64
	FillingsUpdate:  mu: -0.079331568  nElectrons: 9.000000  magneticMoment: [ Abs: 0.48673  Tot: -0.48000 ]
SCF: Cycle: 12   F: -20.186034052934751   dF: -2.695e-05   |Residual|: 7.535e-04   |deigs|: 1.346e-03  t[s]:     31.65
	FillingsUpdate:  mu: -0.077279415  nElectrons: 9.000000  magneticMoment: [ Abs: 0.48664  Tot: -0.48000 ]
SCF: Cycle: 13   F: -20.186045677437985   dF: -1.162e-05   |Residual|: 6.914e-04   |deigs|: 2.116e-03  t[s]:     33.67
	FillingsUpdate:  mu: -0.075095639  nElectrons: 9.000000  magneticMoment: [ Abs: 0.48324  Tot: -0.48000 ]
SCF: Cycle: 14   F: -20.186055942079129   dF: -1.026e-05   |Residual|: 5.791e-04   |deigs|: 2.286e-03  t[s]:     35.62
	FillingsUpdate:  mu: -0.074154663  nElectrons: 9.000000  magneticMoment: [ Abs: 0.48117  Tot: -0.48000 ]
SCF: Cycle: 15   F: -20.186063679080114   dF: -7.737e-06   |Residual|: 4.156e-04   |deigs|: 1.018e-03  t[s]:     37.65
	FillingsUpdate:  mu: -0.073227979  nElectrons: 9.000000  magneticMoment: [ Abs: 0.48109  Tot: -0.48000 ]
SCF: Cycle: 16   F: -20.186067902780991   dF: -4.224e-06   |Residual|: 3.031e-04   |deigs|: 1.039e-03  t[s]:     39.59
	FillingsUpdate:  mu: -0.072974355  nElectrons: 9.000000  magneticMoment: [ Abs: 0.48032  Tot: -0.48000 ]
SCF: Cycle: 17   F: -20.186069882735936   dF: -1.980e-06   |Residual|: 1.999e-04   |deigs|: 1.197e-03  t[s]:     41.62
	FillingsUpdate:  mu: -0.073060563  nElectrons: 9.000000  magneticMoment: [ Abs: 0.48073  Tot: -0.48000 ]
SCF: Cycle: 18   F: -20.186071022582482   dF: -1.140e-06   |Residual|: 1.294e-04   |deigs|: 5.592e-04  t[s]:     43.60
	FillingsUpdate:  mu: -0.073270912  nElectrons: 9.000000  magneticMoment: [ Abs: 0.48053  Tot: -0.48000 ]
SCF: Cycle: 19   F: -20.186071479554734   dF: -4.570e-07   |Residual|: 5.896e-05   |deigs|: 3.175e-04  t[s]:     45.61
	FillingsUpdate:  mu: -0.073262805  nElectrons: 9.000000  magneticMoment: [ Abs: 0.48024  Tot: -0.48000 ]
SCF: Cycle: 20   F: -20.186071632245422   dF: -1.527e-07   |Residual|: 3.341e-05   |deigs|: 1.012e-04  t[s]:     47.69
	FillingsUpdate:  mu: -0.073260603  nElectrons: 9.000000  magneticMoment: [ Abs: 0.48022  Tot: -0.48000 ]
SCF: Cycle: 21   F: -20.186071717097107   dF: -8.485e-08   |Residual|: 2.059e-05   |deigs|: 7.194e-05  t[s]:     49.72
	FillingsUpdate:  mu: -0.073271651  nElectrons: 9.000000  magneticMoment: [ Abs: 0.48024  Tot: -0.48000 ]
SCF: Cycle: 22   F: -20.186071754498581   dF: -3.740e-08   |Residual|: 1.575e-05   |deigs|: 7.606e-05  t[s]:     51.72
	FillingsUpdate:  mu: -0.073279176  nElectrons: 9.000000  magneticMoment: [ Abs: 0.48029  Tot: -0.48000 ]
SCF: Cycle: 23   F: -20.186071785109725   dF: -3.061e-08   |Residual|: 9.179e-06   |deigs|: 9.291e-05  t[s]:     53.73
	FillingsUpdate:  mu: -0.073279817  nElectrons: 9.000000  magneticMoment: [ Abs: 0.48030  Tot: -0.48000 ]
SCF: Cycle: 24   F: -20.186071799804491   dF: -1.469e-08   |Residual|: 5.289e-06   |deigs|: 1.148e-04  t[s]:     55.71
	FillingsUpdate:  mu: -0.073275873  nElectrons: 9.000000  magneticMoment: [ Abs: 0.48028  Tot: -0.48000 ]
SCF: Cycle: 25   F: -20.186071808054251   dF: -8.250e-09   |Residual|: 4.023e-06   |deigs|: 1.435e-04  t[s]:     57.76
	FillingsUpdate:  mu: -0.073276467  nElectrons: 9.000000  magneticMoment: [ Abs: 0.48027  Tot: -0.48000 ]
SCF: Cycle: 26   F: -20.186071813127853   dF: -5.074e-09   |Residual|: 3.790e-06   |deigs|: 1.506e-04  t[s]:     59.80
SCF: Converged (|Delta E|<1.000000e-08 for 2 iters).


# Ionic positions in lattice coordinates:
ion Cs   0.000000000000000   0.000000000000000   0.000000000000000 0

# Forces in Lattice coordinates:
force Cs   0.000000000000000   0.000000000000000   0.000000000000000 0

# Energy components:
   Eewald =      -18.0480261003326561
       EH =       -1.7958235581590127
     Eloc =       -5.7854425691205087
      Enl =        3.4399000747992057
   Epulay =        0.0000000264484078
      Exc =       -3.1473864620466889
       KE =        5.1507070416746563
-------------------------------------
     Etot =      -20.1860715467365992
       TS =        0.0000002663912536
-------------------------------------
        F =      -20.1860718131278531

IonicMinimize: Iter:   0  F: -20.186071813127853  |grad|_K:  0.000e+00  t[s]:     59.92
IonicMinimize: Converged (|grad|_K<1.000000e-04).

#--- Lowdin population analysis ---
# oxidation-state Cs +0.082
# magnetic-moments Cs -0.409

End date and time: Sun Feb  6 13:16:50 2022  (Duration: 0-0:00:59.94)
Done!
scale=3
magnetization=-0.48
--------------------------------------------------------------------------
The library attempted to open the following supporting CUDA libraries,
but each of them failed.  CUDA-aware support is disabled.
libcuda.so.1: cannot open shared object file: No such file or directory
libcuda.dylib: cannot open shared object file: No such file or directory
/usr/lib64/libcuda.so.1: cannot open shared object file: No such file or directory
/usr/lib64/libcuda.dylib: cannot open shared object file: No such file or directory
If you are not interested in CUDA-aware support, then run with
--mca opal_warn_on_missing_libcuda 0 to suppress this message.  If you are interested
in CUDA-aware support, then try setting LD_LIBRARY_PATH to the location
of libcuda.so.1 to get passed this issue.
--------------------------------------------------------------------------
--------------------------------------------------------------------------
No OpenFabrics connection schemes reported that they were able to be
used on a specific port.  As such, the openib BTL (OpenFabrics
support) will be disabled for this port.

  Local host:           d-4-9-2
  Local device:         mlx5_1
  Local port:           1
  CPCs attempted:       rdmacm, udcm
--------------------------------------------------------------------------

*************** JDFTx 1.6.0 (git hash 42ebbcc2) ***************

Start date and time: Sun Feb  6 13:16:51 2022
Executable jdftx with command-line: -i Alkali.in
Running on hosts (process indices):  d-4-9-2 (0-18)
Divided in process groups (process indices):  0 (0)  1 (1)  2 (2)  3 (3)  4 (4)  5 (5)  6 (6)  7 (7)  8 (8)  9 (9)  10 (10)  11 (11)  12 (12)  13 (13)  14 (14)  15 (15)  16 (16)  17 (17)  18 (18)
Resource initialization completed at t[s]:      0.00
Run totals: 19 processes, 48 threads, 0 GPUs


Input parsed successfully to the following command list (including defaults):

basis kpoint-dependent
coords-type Lattice
core-overlap-check vector
coulomb-interaction Slab 001
davidson-band-ratio 1.1
dump End None
dump-name $INPUT.$VAR
elec-cutoff 20
elec-eigen-algo Davidson
elec-ex-corr gga-PBE
elec-initial-magnetization -0.480000 yes
elec-smearing Fermi 1e-05
electronic-minimize  \
	dirUpdateScheme      FletcherReeves \
	linminMethod         DirUpdateRecommended \
	nIterations          100 \
	history              15 \
	knormThreshold       0 \
	energyDiffThreshold  1e-08 \
	nEnergyDiff          2 \
	alphaTstart          1 \
	alphaTmin            1e-10 \
	updateTestStepSize   yes \
	alphaTreduceFactor   0.1 \
	alphaTincreaseFactor 3 \
	nAlphaAdjustMax      3 \
	wolfeEnergy          0.0001 \
	wolfeGradient        0.9 \
	fdTest               no
electronic-scf  \
	nIterations	10000 \
	energyDiffThreshold	1e-08 \
	residualThreshold	1e-07 \
	mixFraction	0.5 \
	qMetric	0.8 \
	history	10 \
	nEigSteps	2 \
	eigDiffThreshold	1e-08 \
	mixedVariable	Density \
	qKerker	0.8 \
	qKappa	-1 \
	verbose	no \
	mixFractionMag	1.5
exchange-regularization WignerSeitzTruncated
fluid None
fluid-ex-corr (null) lda-PZ
fluid-gummel-loop 10 1.000000e-05
fluid-minimize  \
	dirUpdateScheme      PolakRibiere \
	linminMethod         DirUpdateRecommended \
	nIterations          100 \
	history              15 \
	knormThreshold       0 \
	energyDiffThreshold  0 \
	nEnergyDiff          2 \
	alphaTstart          1 \
	alphaTmin            1e-10 \
	updateTestStepSize   yes \
	alphaTreduceFactor   0.1 \
	alphaTincreaseFactor 3 \
	nAlphaAdjustMax      3 \
	wolfeEnergy          0.0001 \
	wolfeGradient        0.9 \
	fdTest               no
fluid-solvent H2O 55.338 ScalarEOS \
	epsBulk 78.4 \
	pMol 0.92466 \
	epsInf 1.77 \
	Pvap 1.06736e-10 \
	sigmaBulk 4.62e-05 \
	Rvdw 2.61727 \
	Res 1.42 \
	tauNuc 343133 \
	poleEl 15 7 1
forces-output-coords Positions
ion Cs   0.000000000000000   0.000000000000000   0.000000000000000 0
ion-species SG15/$ID_ONCV_PBE.upf
ion-width 0
ionic-minimize  \
	dirUpdateScheme      L-BFGS \
	linminMethod         DirUpdateRecommended \
	nIterations          0 \
	history              15 \
	knormThreshold       0.0001 \
	energyDiffThreshold  1e-06 \
	nEnergyDiff          2 \
	alphaTstart          1 \
	alphaTmin            1e-10 \
	updateTestStepSize   yes \
	alphaTreduceFactor   0.1 \
	alphaTincreaseFactor 3 \
	nAlphaAdjustMax      3 \
	wolfeEnergy          0.0001 \
	wolfeGradient        0.9 \
	fdTest               no
kpoint   0.000000000000   0.000000000000   0.000000000000  1.00000000000000
kpoint-folding 12 12 1 
latt-move-scale 1 1 1
latt-scale 3 3 1 
lattice  \
	   4.727486978767153   -2.363743489383575    0.000000000000000  \
	  -0.000000000000000    4.094123819672498    0.000000000000000  \
	   0.000000000000000    0.000000000000000   40.000000000000000 
lattice-minimize  \
	dirUpdateScheme      L-BFGS \
	linminMethod         DirUpdateRecommended \
	nIterations          0 \
	history              15 \
	knormThreshold       0 \
	energyDiffThreshold  1e-06 \
	nEnergyDiff          2 \
	alphaTstart          1 \
	alphaTmin            1e-10 \
	updateTestStepSize   yes \
	alphaTreduceFactor   0.1 \
	alphaTincreaseFactor 3 \
	nAlphaAdjustMax      3 \
	wolfeEnergy          0.0001 \
	wolfeGradient        0.9 \
	fdTest               no
lcao-params -1 1e-06 1e-05
pcm-variant GLSSA13
spintype z-spin
subspace-rotation-factor 1 yes
symmetries automatic
symmetry-threshold 0.0001



---------- Setting up symmetries ----------

Found 24 point-group symmetries of the bravais lattice
Found 24 space-group symmetries with basis
Applied RMS atom displacement 0 bohrs to make symmetries exact.

---------- Initializing the Grid ----------
R = 
[      14.1825     -7.09123            0  ]
[            0      12.2824            0  ]
[            0            0           40  ]
unit cell volume = 6967.77
G =
[   0.443025   0.255781         -0  ]
[          0   0.511561         -0  ]
[         -0         -0    0.15708  ]
Minimum fftbox size, Smin = [  60  60  164  ]
Chosen fftbox size, S = [  60  60  168  ]

---------- Exchange Correlation functional ----------
Initalized PBE GGA exchange.
Initalized PBE GGA correlation.

---------- Setting up pseudopotentials ----------
Width of ionic core gaussian charges (only for fluid interactions / plotting) set to 0

Reading pseudopotential file '/home/gridsan/aligho/DFT/build-Nov24/pseudopotentials/SG15/Cs_ONCV_PBE.upf':
  'Cs' pseudopotential, 'PBE' functional
  Generated using ONCVPSP code by D. R. Hamann
  Author: Martin Schlipf and Francois Gygi  Date: 150915.
  9 valence electrons, 3 orbitals, 6 projectors, 2414 radial grid points, with lMax = 2
  Transforming local potential to a uniform radial grid of dG=0.02 with 1489 points.
  Transforming nonlocal projectors to a uniform radial grid of dG=0.02 with 432 points.
    5S    l: 0   occupation:  2.0   eigenvalue: -0.982388
    5P    l: 1   occupation:  6.0   eigenvalue: -0.496786
    6S    l: 0   occupation:  1.0   eigenvalue: -0.076670
  Transforming atomic orbitals to a uniform radial grid of dG=0.02 with 432 points.
  Core radius for overlap checks: 2.06 bohrs.
  Reading pulay file /home/gridsan/aligho/DFT/build-Nov24/pseudopotentials/SG15/Cs_ONCV_PBE.pulay ... using dE_dnG = -1.008762e-04 computed for Ecut = 20.

Initialized 1 species with 1 total atoms.

Folded 1 k-points by 12x12x1 to 144 k-points.

---------- Setting up k-points, bands, fillings ----------
Reduced to 19 k-points under symmetry. 
Computing the number of bands and number of electrons
Calculating initial fillings.
nElectrons:   9.000000   nBands: 6   nStates: 38

----- Setting up reduced wavefunction bases (one per k-point) -----
average nbasis = 29766.104 , ideal nbasis = 29766.845

---------- Setting up coulomb interaction ----------
Initialized slab truncation along lattice direction 001

---------- Setting up 2D ewald sum ----------
Optimum gaussian width for ewald sums = 7.873530 bohr.
Real space sums over 289 unit cells with max indices [  8  8  0  ]
Reciprocal space sums over 81 terms with max indices [  4  4  0  ]

---------- Allocating electronic variables ----------
Initializing wave functions:  linear combination of atomic orbitals
Note: number of bands (6) exceeds available atomic orbitals (5)
Cs pseudo-atom occupations:   s ( 2 1 )  p ( 6 )
[d-4-9-2:45618] 18 more processes have sent help message help-mpi-common-cuda.txt / dlopen failed
[d-4-9-2:45618] Set MCA parameter "orte_base_help_aggregate" to 0 to see all help / error messages
[d-4-9-2:45618] 18 more processes have sent help message help-mpi-btl-openib-cpc-base.txt / no cpcs for port
	FillingsUpdate:  mu: -0.079201719  nElectrons: 9.000000  magneticMoment: [ Abs: 0.48000  Tot: -0.48000 ]
LCAOMinimize: Iter:   0  F: -20.1739508513113819  |grad|_K:  1.960e-05  alpha:  1.000e+00
	FillingsUpdate:  mu: -0.079197610  nElectrons: 9.000000  magneticMoment: [ Abs: 0.48000  Tot: -0.48000 ]
LCAOMinimize: Iter:   1  F: -20.1739511110509078  |grad|_K:  1.314e-07  alpha:  9.883e-01  linmin: -2.503e-02  cgtest:  4.579e-01  t[s]:      8.70
LCAOMinimize: Encountered beta<0, resetting CG.
	FillingsUpdate:  mu: -0.079197613  nElectrons: 9.000000  magneticMoment: [ Abs: 0.48000  Tot: -0.48000 ]
LCAOMinimize: Iter:   2  F: -20.1739511110626530  |grad|_K:  9.080e-10  alpha:  9.940e-01  linmin: -8.472e-02  cgtest:  9.813e-01  t[s]:     11.04
LCAOMinimize: Encountered beta<0, resetting CG.
LCAOMinimize: Converged (|Delta F|<1.000000e-06 for 2 iters).


---- Citations for features of the code used in this run ----

   Software package:
      R. Sundararaman, K. Letchworth-Weaver, K.A. Schwarz, D. Gunceler, Y. Ozhabes and T.A. Arias, 'JDFTx: software for joint density-functional theory', SoftwareX 6, 278 (2017)

   gga-PBE exchange-correlation functional:
      J.P. Perdew, K. Burke and M. Ernzerhof, Phys. Rev. Lett. 77, 3865 (1996)

   Pseudopotentials:
      M Schlipf and F Gygi, Comput. Phys. Commun. 196, 36 (2015)

   Truncated Coulomb potentials:
      R. Sundararaman and T.A. Arias, Phys. Rev. B 87, 165122 (2013)

This list may not be complete. Please suggest additional citations or
report any other bugs at https://github.com/shankar1729/jdftx/issues

Initialization completed successfully at t[s]:     11.20


-------- Electronic minimization -----------
Will mix electronic density at each iteration.
	FillingsUpdate:  mu: -0.079197613  nElectrons: 9.000000  magneticMoment: [ Abs: 0.48000  Tot: -0.48000 ]
	FillingsUpdate:  mu: -0.082155217  nElectrons: 9.000000  magneticMoment: [ Abs: 0.48000  Tot: -0.48000 ]
SCF: Cycle:  0   F: -20.176433402170595   dF: -2.482e-03   |Residual|: 5.120e-03   |deigs|: 1.732e-01  t[s]:     15.96
	FillingsUpdate:  mu: -0.082424787  nElectrons: 9.000000  magneticMoment: [ Abs: 0.48001  Tot: -0.48000 ]
SCF: Cycle:  1   F: -20.176581580348564   dF: -1.482e-04   |Residual|: 4.429e-03   |deigs|: 4.863e-03  t[s]:     19.68
	FillingsUpdate:  mu: -0.082589114  nElectrons: 9.000000  magneticMoment: [ Abs: 0.48181  Tot: -0.48000 ]
SCF: Cycle:  2   F: -20.176665305168513   dF: -8.372e-05   |Residual|: 3.014e-03   |deigs|: 2.483e-03  t[s]:     23.39
	FillingsUpdate:  mu: -0.082685567  nElectrons: 9.000000  magneticMoment: [ Abs: 0.48233  Tot: -0.48000 ]
SCF: Cycle:  3   F: -20.176703739871069   dF: -3.843e-05   |Residual|: 2.118e-03   |deigs|: 1.468e-03  t[s]:     27.37
	FillingsUpdate:  mu: -0.082515808  nElectrons: 9.000000  magneticMoment: [ Abs: 0.48025  Tot: -0.48000 ]
SCF: Cycle:  4   F: -20.176721837330586   dF: -1.810e-05   |Residual|: 1.068e-03   |deigs|: 1.192e-03  t[s]:     31.29
	FillingsUpdate:  mu: -0.082436931  nElectrons: 9.000000  magneticMoment: [ Abs: 0.48045  Tot: -0.48000 ]
SCF: Cycle:  5   F: -20.176734202211495   dF: -1.236e-05   |Residual|: 7.657e-04   |deigs|: 1.002e-03  t[s]:     35.28
	FillingsUpdate:  mu: -0.082215973  nElectrons: 9.000000  magneticMoment: [ Abs: 0.48064  Tot: -0.48000 ]
SCF: Cycle:  6   F: -20.176740685476890   dF: -6.483e-06   |Residual|: 5.916e-04   |deigs|: 8.745e-04  t[s]:     39.27
	FillingsUpdate:  mu: -0.081840183  nElectrons: 9.000000  magneticMoment: [ Abs: 0.48133  Tot: -0.48000 ]
SCF: Cycle:  7   F: -20.176741826212517   dF: -1.141e-06   |Residual|: 5.088e-04   |deigs|: 5.079e-04  t[s]:     43.35
	FillingsUpdate:  mu: -0.081173078  nElectrons: 9.000000  magneticMoment: [ Abs: 0.48327  Tot: -0.48000 ]
SCF: Cycle:  8   F: -20.176738958679746   dF: +2.868e-06   |Residual|: 3.868e-04   |deigs|: 8.185e-04  t[s]:     47.45
	FillingsUpdate:  mu: -0.080479009  nElectrons: 9.000000  magneticMoment: [ Abs: 0.48289  Tot: -0.48000 ]
SCF: Cycle:  9   F: -20.176739072043254   dF: -1.134e-07   |Residual|: 3.611e-04   |deigs|: 8.698e-04  t[s]:     51.72
	FillingsUpdate:  mu: -0.080393785  nElectrons: 9.000000  magneticMoment: [ Abs: 0.48205  Tot: -0.48000 ]
SCF: Cycle: 10   F: -20.176743334231666   dF: -4.262e-06   |Residual|: 2.792e-04   |deigs|: 9.227e-04  t[s]:     55.99
	FillingsUpdate:  mu: -0.080071799  nElectrons: 9.000000  magneticMoment: [ Abs: 0.48354  Tot: -0.48000 ]
SCF: Cycle: 11   F: -20.176744874770527   dF: -1.541e-06   |Residual|: 2.516e-04   |deigs|: 6.204e-04  t[s]:     60.20
	FillingsUpdate:  mu: -0.079488808  nElectrons: 9.000000  magneticMoment: [ Abs: 0.48325  Tot: -0.48000 ]
SCF: Cycle: 12   F: -20.176743876834212   dF: +9.979e-07   |Residual|: 2.434e-04   |deigs|: 6.383e-04  t[s]:     64.47
	FillingsUpdate:  mu: -0.079000110  nElectrons: 9.000000  magneticMoment: [ Abs: 0.48161  Tot: -0.48000 ]
SCF: Cycle: 13   F: -20.176743220253925   dF: +6.566e-07   |Residual|: 2.334e-04   |deigs|: 5.811e-04  t[s]:     68.77
	FillingsUpdate:  mu: -0.078807308  nElectrons: 9.000000  magneticMoment: [ Abs: 0.48223  Tot: -0.48000 ]
SCF: Cycle: 14   F: -20.176745186938280   dF: -1.967e-06   |Residual|: 2.095e-04   |deigs|: 3.290e-04  t[s]:     72.99
	FillingsUpdate:  mu: -0.078482150  nElectrons: 9.000000  magneticMoment: [ Abs: 0.48201  Tot: -0.48000 ]
SCF: Cycle: 15   F: -20.176747814707205   dF: -2.628e-06   |Residual|: 1.544e-04   |deigs|: 3.771e-04  t[s]:     77.24
	FillingsUpdate:  mu: -0.078145858  nElectrons: 9.000000  magneticMoment: [ Abs: 0.48100  Tot: -0.48000 ]
SCF: Cycle: 16   F: -20.176749167039201   dF: -1.352e-06   |Residual|: 1.035e-04   |deigs|: 3.708e-04  t[s]:     81.44
	FillingsUpdate:  mu: -0.078111657  nElectrons: 9.000000  magneticMoment: [ Abs: 0.48068  Tot: -0.48000 ]
SCF: Cycle: 17   F: -20.176749519493178   dF: -3.525e-07   |Residual|: 7.462e-05   |deigs|: 7.497e-05  t[s]:     85.71
	FillingsUpdate:  mu: -0.078144061  nElectrons: 9.000000  magneticMoment: [ Abs: 0.48064  Tot: -0.48000 ]
SCF: Cycle: 18   F: -20.176749748286237   dF: -2.288e-07   |Residual|: 5.096e-05   |deigs|: 7.542e-05  t[s]:     89.97
	FillingsUpdate:  mu: -0.078152883  nElectrons: 9.000000  magneticMoment: [ Abs: 0.48069  Tot: -0.48000 ]
SCF: Cycle: 19   F: -20.176749873526330   dF: -1.252e-07   |Residual|: 3.232e-05   |deigs|: 6.588e-05  t[s]:     94.16
	FillingsUpdate:  mu: -0.078157914  nElectrons: 9.000000  magneticMoment: [ Abs: 0.48067  Tot: -0.48000 ]
SCF: Cycle: 20   F: -20.176749939278157   dF: -6.575e-08   |Residual|: 1.835e-05   |deigs|: 4.844e-05  t[s]:     98.41
	FillingsUpdate:  mu: -0.078156325  nElectrons: 9.000000  magneticMoment: [ Abs: 0.48069  Tot: -0.48000 ]
SCF: Cycle: 21   F: -20.176749955823734   dF: -1.655e-08   |Residual|: 1.446e-05   |deigs|: 9.428e-05  t[s]:    102.78
	FillingsUpdate:  mu: -0.078153148  nElectrons: 9.000000  magneticMoment: [ Abs: 0.48073  Tot: -0.48000 ]
SCF: Cycle: 22   F: -20.176749968040980   dF: -1.222e-08   |Residual|: 1.053e-05   |deigs|: 8.105e-05  t[s]:    106.96
	FillingsUpdate:  mu: -0.078154554  nElectrons: 9.000000  magneticMoment: [ Abs: 0.48072  Tot: -0.48000 ]
SCF: Cycle: 23   F: -20.176749972207936   dF: -4.167e-09   |Residual|: 6.495e-06   |deigs|: 5.405e-05  t[s]:    111.23
	FillingsUpdate:  mu: -0.078155986  nElectrons: 9.000000  magneticMoment: [ Abs: 0.48073  Tot: -0.48000 ]
SCF: Cycle: 24   F: -20.176749974711555   dF: -2.504e-09   |Residual|: 5.019e-06   |deigs|: 4.198e-05  t[s]:    115.55
SCF: Converged (|Delta E|<1.000000e-08 for 2 iters).


# Ionic positions in lattice coordinates:
ion Cs   0.000000000000000   0.000000000000000   0.000000000000000 0

# Forces in Lattice coordinates:
force Cs  -0.000000000000000   0.000000000000000   0.000000000000000 0

# Energy components:
   Eewald =      -12.0320174002217755
       EH =        4.0160168596938339
     Eloc =      -17.5856068256351215
      Enl =        3.4318263496829178
   Epulay =       -0.0000000107257212
      Exc =       -3.1093594889089293
       KE =        5.1023910714677321
-------------------------------------
     Etot =      -20.1767494446470614
       TS =        0.0000005300644922
-------------------------------------
        F =      -20.1767499747115551

IonicMinimize: Iter:   0  F: -20.176749974711555  |grad|_K:  0.000e+00  t[s]:    115.80
IonicMinimize: Converged (|grad|_K<1.000000e-04).

#--- Lowdin population analysis ---
# oxidation-state Cs +0.058
# magnetic-moments Cs -0.431

End date and time: Sun Feb  6 13:18:47 2022  (Duration: 0-0:01:55.85)
Done!
scale=4
magnetization=-0.48
--------------------------------------------------------------------------
The library attempted to open the following supporting CUDA libraries,
but each of them failed.  CUDA-aware support is disabled.
libcuda.so.1: cannot open shared object file: No such file or directory
libcuda.dylib: cannot open shared object file: No such file or directory
/usr/lib64/libcuda.so.1: cannot open shared object file: No such file or directory
/usr/lib64/libcuda.dylib: cannot open shared object file: No such file or directory
If you are not interested in CUDA-aware support, then run with
--mca opal_warn_on_missing_libcuda 0 to suppress this message.  If you are interested
in CUDA-aware support, then try setting LD_LIBRARY_PATH to the location
of libcuda.so.1 to get passed this issue.
--------------------------------------------------------------------------
--------------------------------------------------------------------------
No OpenFabrics connection schemes reported that they were able to be
used on a specific port.  As such, the openib BTL (OpenFabrics
support) will be disabled for this port.

  Local host:           d-4-9-2
  Local device:         mlx5_1
  Local port:           1
  CPCs attempted:       rdmacm, udcm
--------------------------------------------------------------------------

*************** JDFTx 1.6.0 (git hash 42ebbcc2) ***************

Start date and time: Sun Feb  6 13:18:48 2022
Executable jdftx with command-line: -i Alkali.in
Running on hosts (process indices):  d-4-9-2 (0-18)
Divided in process groups (process indices):  0 (0)  1 (1)  2 (2)  3 (3)  4 (4)  5 (5)  6 (6)  7 (7)  8 (8)  9 (9)  10 (10)  11 (11)  12 (12)  13 (13)  14 (14)  15 (15)  16 (16)  17 (17)  18 (18)
Resource initialization completed at t[s]:      0.00
Run totals: 19 processes, 48 threads, 0 GPUs


Input parsed successfully to the following command list (including defaults):

basis kpoint-dependent
coords-type Lattice
core-overlap-check vector
coulomb-interaction Slab 001
davidson-band-ratio 1.1
dump End None
dump-name $INPUT.$VAR
elec-cutoff 20
elec-eigen-algo Davidson
elec-ex-corr gga-PBE
elec-initial-magnetization -0.480000 yes
elec-smearing Fermi 1e-05
electronic-minimize  \
	dirUpdateScheme      FletcherReeves \
	linminMethod         DirUpdateRecommended \
	nIterations          100 \
	history              15 \
	knormThreshold       0 \
	energyDiffThreshold  1e-08 \
	nEnergyDiff          2 \
	alphaTstart          1 \
	alphaTmin            1e-10 \
	updateTestStepSize   yes \
	alphaTreduceFactor   0.1 \
	alphaTincreaseFactor 3 \
	nAlphaAdjustMax      3 \
	wolfeEnergy          0.0001 \
	wolfeGradient        0.9 \
	fdTest               no
electronic-scf  \
	nIterations	10000 \
	energyDiffThreshold	1e-08 \
	residualThreshold	1e-07 \
	mixFraction	0.5 \
	qMetric	0.8 \
	history	10 \
	nEigSteps	2 \
	eigDiffThreshold	1e-08 \
	mixedVariable	Density \
	qKerker	0.8 \
	qKappa	-1 \
	verbose	no \
	mixFractionMag	1.5
exchange-regularization WignerSeitzTruncated
fluid None
fluid-ex-corr (null) lda-PZ
fluid-gummel-loop 10 1.000000e-05
fluid-minimize  \
	dirUpdateScheme      PolakRibiere \
	linminMethod         DirUpdateRecommended \
	nIterations          100 \
	history              15 \
	knormThreshold       0 \
	energyDiffThreshold  0 \
	nEnergyDiff          2 \
	alphaTstart          1 \
	alphaTmin            1e-10 \
	updateTestStepSize   yes \
	alphaTreduceFactor   0.1 \
	alphaTincreaseFactor 3 \
	nAlphaAdjustMax      3 \
	wolfeEnergy          0.0001 \
	wolfeGradient        0.9 \
	fdTest               no
fluid-solvent H2O 55.338 ScalarEOS \
	epsBulk 78.4 \
	pMol 0.92466 \
	epsInf 1.77 \
	Pvap 1.06736e-10 \
	sigmaBulk 4.62e-05 \
	Rvdw 2.61727 \
	Res 1.42 \
	tauNuc 343133 \
	poleEl 15 7 1
forces-output-coords Positions
ion Cs   0.000000000000000   0.000000000000000   0.000000000000000 0
ion-species SG15/$ID_ONCV_PBE.upf
ion-width 0
ionic-minimize  \
	dirUpdateScheme      L-BFGS \
	linminMethod         DirUpdateRecommended \
	nIterations          0 \
	history              15 \
	knormThreshold       0.0001 \
	energyDiffThreshold  1e-06 \
	nEnergyDiff          2 \
	alphaTstart          1 \
	alphaTmin            1e-10 \
	updateTestStepSize   yes \
	alphaTreduceFactor   0.1 \
	alphaTincreaseFactor 3 \
	nAlphaAdjustMax      3 \
	wolfeEnergy          0.0001 \
	wolfeGradient        0.9 \
	fdTest               no
kpoint   0.000000000000   0.000000000000   0.000000000000  1.00000000000000
kpoint-folding 12 12 1 
latt-move-scale 1 1 1
latt-scale 4 4 1 
lattice  \
	   4.727486978767153   -2.363743489383575    0.000000000000000  \
	  -0.000000000000000    4.094123819672498    0.000000000000000  \
	   0.000000000000000    0.000000000000000   40.000000000000000 
lattice-minimize  \
	dirUpdateScheme      L-BFGS \
	linminMethod         DirUpdateRecommended \
	nIterations          0 \
	history              15 \
	knormThreshold       0 \
	energyDiffThreshold  1e-06 \
	nEnergyDiff          2 \
	alphaTstart          1 \
	alphaTmin            1e-10 \
	updateTestStepSize   yes \
	alphaTreduceFactor   0.1 \
	alphaTincreaseFactor 3 \
	nAlphaAdjustMax      3 \
	wolfeEnergy          0.0001 \
	wolfeGradient        0.9 \
	fdTest               no
lcao-params -1 1e-06 1e-05
pcm-variant GLSSA13
spintype z-spin
subspace-rotation-factor 1 yes
symmetries automatic
symmetry-threshold 0.0001



---------- Setting up symmetries ----------

Found 24 point-group symmetries of the bravais lattice
Found 24 space-group symmetries with basis
Applied RMS atom displacement 0 bohrs to make symmetries exact.

---------- Initializing the Grid ----------
R = 
[      18.9099     -9.45497            0  ]
[            0      16.3765            0  ]
[            0            0           40  ]
unit cell volume = 12387.1
G =
[   0.332269   0.191835         -0  ]
[          0   0.383671         -0  ]
[         -0         -0    0.15708  ]
Minimum fftbox size, Smin = [  80  80  164  ]
Chosen fftbox size, S = [  80  80  168  ]

---------- Exchange Correlation functional ----------
Initalized PBE GGA exchange.
Initalized PBE GGA correlation.

---------- Setting up pseudopotentials ----------
Width of ionic core gaussian charges (only for fluid interactions / plotting) set to 0

Reading pseudopotential file '/home/gridsan/aligho/DFT/build-Nov24/pseudopotentials/SG15/Cs_ONCV_PBE.upf':
  'Cs' pseudopotential, 'PBE' functional
  Generated using ONCVPSP code by D. R. Hamann
  Author: Martin Schlipf and Francois Gygi  Date: 150915.
  9 valence electrons, 3 orbitals, 6 projectors, 2414 radial grid points, with lMax = 2
  Transforming local potential to a uniform radial grid of dG=0.02 with 1489 points.
  Transforming nonlocal projectors to a uniform radial grid of dG=0.02 with 432 points.
    5S    l: 0   occupation:  2.0   eigenvalue: -0.982388
    5P    l: 1   occupation:  6.0   eigenvalue: -0.496786
    6S    l: 0   occupation:  1.0   eigenvalue: -0.076670
  Transforming atomic orbitals to a uniform radial grid of dG=0.02 with 432 points.
  Core radius for overlap checks: 2.06 bohrs.
  Reading pulay file /home/gridsan/aligho/DFT/build-Nov24/pseudopotentials/SG15/Cs_ONCV_PBE.pulay ... using dE_dnG = -1.008762e-04 computed for Ecut = 20.

Initialized 1 species with 1 total atoms.

Folded 1 k-points by 12x12x1 to 144 k-points.

---------- Setting up k-points, bands, fillings ----------
Reduced to 19 k-points under symmetry. 
Computing the number of bands and number of electrons
Calculating initial fillings.
nElectrons:   9.000000   nBands: 6   nStates: 38

----- Setting up reduced wavefunction bases (one per k-point) -----
average nbasis = 52924.021 , ideal nbasis = 52918.836

---------- Setting up coulomb interaction ----------
Initialized slab truncation along lattice direction 001

---------- Setting up 2D ewald sum ----------
Optimum gaussian width for ewald sums = 10.498040 bohr.
Real space sums over 289 unit cells with max indices [  8  8  0  ]
Reciprocal space sums over 81 terms with max indices [  4  4  0  ]

---------- Allocating electronic variables ----------
Initializing wave functions:  linear combination of atomic orbitals
Note: number of bands (6) exceeds available atomic orbitals (5)
Cs pseudo-atom occupations:   s ( 2 1 )  p ( 6 )
[d-4-9-2:14946] 18 more processes have sent help message help-mpi-common-cuda.txt / dlopen failed
[d-4-9-2:14946] Set MCA parameter "orte_base_help_aggregate" to 0 to see all help / error messages
[d-4-9-2:14946] 18 more processes have sent help message help-mpi-btl-openib-cpc-base.txt / no cpcs for port
	FillingsUpdate:  mu: -0.077370764  nElectrons: 9.000000  magneticMoment: [ Abs: 0.48000  Tot: -0.48000 ]
LCAOMinimize: Iter:   0  F: -20.1682767622163475  |grad|_K:  6.036e-06  alpha:  1.000e+00
	FillingsUpdate:  mu: -0.077369521  nElectrons: 9.000000  magneticMoment: [ Abs: 0.48000  Tot: -0.48000 ]
LCAOMinimize: Iter:   1  F: -20.1682767868885442  |grad|_K:  2.959e-08  alpha:  9.902e-01  linmin: -7.301e-04  cgtest:  3.023e-01  t[s]:     14.90
LCAOMinimize: Encountered beta<0, resetting CG.
	FillingsUpdate:  mu: -0.077369521  nElectrons: 9.000000  magneticMoment: [ Abs: 0.48000  Tot: -0.48000 ]
LCAOMinimize: Iter:   2  F: -20.1682767868891020  |grad|_K:  1.185e-08  alpha:  1.401e+00  linmin:  2.638e-03  cgtest: -1.000e+00  t[s]:     18.88
LCAOMinimize: Converged (|Delta F|<1.000000e-06 for 2 iters).


---- Citations for features of the code used in this run ----

   Software package:
      R. Sundararaman, K. Letchworth-Weaver, K.A. Schwarz, D. Gunceler, Y. Ozhabes and T.A. Arias, 'JDFTx: software for joint density-functional theory', SoftwareX 6, 278 (2017)

   gga-PBE exchange-correlation functional:
      J.P. Perdew, K. Burke and M. Ernzerhof, Phys. Rev. Lett. 77, 3865 (1996)

   Pseudopotentials:
      M Schlipf and F Gygi, Comput. Phys. Commun. 196, 36 (2015)

   Truncated Coulomb potentials:
      R. Sundararaman and T.A. Arias, Phys. Rev. B 87, 165122 (2013)

This list may not be complete. Please suggest additional citations or
report any other bugs at https://github.com/shankar1729/jdftx/issues

Initialization completed successfully at t[s]:     19.14


-------- Electronic minimization -----------
Will mix electronic density at each iteration.
	FillingsUpdate:  mu: -0.077369521  nElectrons: 9.000000  magneticMoment: [ Abs: 0.48000  Tot: -0.48000 ]
	FillingsUpdate:  mu: -0.077559338  nElectrons: 9.000000  magneticMoment: [ Abs: 0.48000  Tot: -0.48000 ]
SCF: Cycle:  0   F: -20.168477347335322   dF: -2.006e-04   |Residual|: 1.191e-03   |deigs|: 1.747e-01  t[s]:     27.20
	FillingsUpdate:  mu: -0.077595207  nElectrons: 9.000000  magneticMoment: [ Abs: 0.48241  Tot: -0.48000 ]
SCF: Cycle:  1   F: -20.168484671728223   dF: -7.324e-06   |Residual|: 6.772e-04   |deigs|: 4.565e-03  t[s]:     33.60
	FillingsUpdate:  mu: -0.077634626  nElectrons: 9.000000  magneticMoment: [ Abs: 0.48256  Tot: -0.48000 ]
SCF: Cycle:  2   F: -20.168487132988783   dF: -2.461e-06   |Residual|: 5.443e-04   |deigs|: 1.141e-03  t[s]:     40.09
	FillingsUpdate:  mu: -0.077704640  nElectrons: 9.000000  magneticMoment: [ Abs: 0.48357  Tot: -0.48000 ]
SCF: Cycle:  3   F: -20.168489076639773   dF: -1.944e-06   |Residual|: 4.142e-04   |deigs|: 7.043e-04  t[s]:     46.66
	FillingsUpdate:  mu: -0.077780153  nElectrons: 9.000000  magneticMoment: [ Abs: 0.48344  Tot: -0.48000 ]
SCF: Cycle:  4   F: -20.168491418841640   dF: -2.342e-06   |Residual|: 2.885e-04   |deigs|: 5.253e-04  t[s]:     53.37
	FillingsUpdate:  mu: -0.077849695  nElectrons: 9.000000  magneticMoment: [ Abs: 0.48344  Tot: -0.48000 ]
SCF: Cycle:  5   F: -20.168492956730336   dF: -1.538e-06   |Residual|: 1.870e-04   |deigs|: 3.874e-04  t[s]:     60.15
	FillingsUpdate:  mu: -0.077858105  nElectrons: 9.000000  magneticMoment: [ Abs: 0.48354  Tot: -0.48000 ]
SCF: Cycle:  6   F: -20.168493850337526   dF: -8.936e-07   |Residual|: 1.282e-04   |deigs|: 2.688e-04  t[s]:     67.03
	FillingsUpdate:  mu: -0.077850568  nElectrons: 9.000000  magneticMoment: [ Abs: 0.48334  Tot: -0.48000 ]
SCF: Cycle:  7   F: -20.168494358457426   dF: -5.081e-07   |Residual|: 9.786e-05   |deigs|: 2.785e-04  t[s]:     74.03
	FillingsUpdate:  mu: -0.077819803  nElectrons: 9.000000  magneticMoment: [ Abs: 0.48329  Tot: -0.48000 ]
SCF: Cycle:  8   F: -20.168494704217554   dF: -3.458e-07   |Residual|: 7.551e-05   |deigs|: 3.586e-04  t[s]:     81.21
	FillingsUpdate:  mu: -0.077770824  nElectrons: 9.000000  magneticMoment: [ Abs: 0.48322  Tot: -0.48000 ]
SCF: Cycle:  9   F: -20.168494801491690   dF: -9.727e-08   |Residual|: 6.374e-05   |deigs|: 4.237e-04  t[s]:     88.53
	FillingsUpdate:  mu: -0.077726015  nElectrons: 9.000000  magneticMoment: [ Abs: 0.48330  Tot: -0.48000 ]
SCF: Cycle: 10   F: -20.168494798153965   dF: +3.338e-09   |Residual|: 5.493e-05   |deigs|: 4.582e-04  t[s]:     95.92
	FillingsUpdate:  mu: -0.077670156  nElectrons: 9.000000  magneticMoment: [ Abs: 0.48356  Tot: -0.48000 ]
SCF: Cycle: 11   F: -20.168494766219791   dF: +3.193e-08   |Residual|: 5.400e-05   |deigs|: 1.991e-04  t[s]:    103.23
	FillingsUpdate:  mu: -0.077610047  nElectrons: 9.000000  magneticMoment: [ Abs: 0.48354  Tot: -0.48000 ]
SCF: Cycle: 12   F: -20.168494465471593   dF: +3.007e-07   |Residual|: 5.046e-05   |deigs|: 3.127e-04  t[s]:    110.60
	FillingsUpdate:  mu: -0.077544331  nElectrons: 9.000000  magneticMoment: [ Abs: 0.48367  Tot: -0.48000 ]
SCF: Cycle: 13   F: -20.168494638575975   dF: -1.731e-07   |Residual|: 4.380e-05   |deigs|: 1.451e-04  t[s]:    117.93
	FillingsUpdate:  mu: -0.077507313  nElectrons: 9.000000  magneticMoment: [ Abs: 0.48375  Tot: -0.48000 ]
SCF: Cycle: 14   F: -20.168494860837107   dF: -2.223e-07   |Residual|: 3.748e-05   |deigs|: 1.037e-04  t[s]:    125.32
	FillingsUpdate:  mu: -0.077457652  nElectrons: 9.000000  magneticMoment: [ Abs: 0.48360  Tot: -0.48000 ]
SCF: Cycle: 15   F: -20.168494803376198   dF: +5.746e-08   |Residual|: 3.561e-05   |deigs|: 8.996e-05  t[s]:    132.69
	FillingsUpdate:  mu: -0.077394447  nElectrons: 9.000000  magneticMoment: [ Abs: 0.48340  Tot: -0.48000 ]
SCF: Cycle: 16   F: -20.168494761995476   dF: +4.138e-08   |Residual|: 3.285e-05   |deigs|: 8.767e-05  t[s]:    140.01
	FillingsUpdate:  mu: -0.077382512  nElectrons: 9.000000  magneticMoment: [ Abs: 0.48335  Tot: -0.48000 ]
SCF: Cycle: 17   F: -20.168494970355276   dF: -2.084e-07   |Residual|: 2.421e-05   |deigs|: 4.147e-05  t[s]:    147.39
	FillingsUpdate:  mu: -0.077378460  nElectrons: 9.000000  magneticMoment: [ Abs: 0.48321  Tot: -0.48000 ]
SCF: Cycle: 18   F: -20.168494954405961   dF: +1.595e-08   |Residual|: 2.019e-05   |deigs|: 2.635e-05  t[s]:    154.68
	FillingsUpdate:  mu: -0.077366002  nElectrons: 9.000000  magneticMoment: [ Abs: 0.48320  Tot: -0.48000 ]
SCF: Cycle: 19   F: -20.168495002504574   dF: -4.810e-08   |Residual|: 1.687e-05   |deigs|: 2.034e-05  t[s]:    162.15
	FillingsUpdate:  mu: -0.077361630  nElectrons: 9.000000  magneticMoment: [ Abs: 0.48320  Tot: -0.48000 ]
SCF: Cycle: 20   F: -20.168495046290726   dF: -4.379e-08   |Residual|: 1.162e-05   |deigs|: 1.802e-05  t[s]:    169.52
	FillingsUpdate:  mu: -0.077366862  nElectrons: 9.000000  magneticMoment: [ Abs: 0.48320  Tot: -0.48000 ]
SCF: Cycle: 21   F: -20.168495072438358   dF: -2.615e-08   |Residual|: 8.172e-06   |deigs|: 2.384e-05  t[s]:    176.94
	FillingsUpdate:  mu: -0.077368706  nElectrons: 9.000000  magneticMoment: [ Abs: 0.48321  Tot: -0.48000 ]
SCF: Cycle: 22   F: -20.168495080041797   dF: -7.603e-09   |Residual|: 5.681e-06   |deigs|: 2.557e-05  t[s]:    184.28
	FillingsUpdate:  mu: -0.077369985  nElectrons: 9.000000  magneticMoment: [ Abs: 0.48322  Tot: -0.48000 ]
SCF: Cycle: 23   F: -20.168495084897859   dF: -4.856e-09   |Residual|: 4.278e-06   |deigs|: 3.074e-05  t[s]:    191.71
SCF: Converged (|Delta E|<1.000000e-08 for 2 iters).


# Ionic positions in lattice coordinates:
ion Cs   0.000000000000000   0.000000000000000   0.000000000000000 0

# Forces in Lattice coordinates:
force Cs  -0.000000000000000  -0.000000000000000   0.000000000000000 0

# Energy components:
   Eewald =       -9.0240130501663280
       EH =        7.0125002356533601
     Eloc =      -23.5975632676012879
      Enl =        3.4369924428054763
   Epulay =        0.0000000422266766
      Exc =       -3.1068653455155362
       KE =        5.1104547154993361
-------------------------------------
     Etot =      -20.1684942270983036
       TS =        0.0000008577995545
-------------------------------------
        F =      -20.1684950848978595

IonicMinimize: Iter:   0  F: -20.168495084897859  |grad|_K:  0.000e+00  t[s]:    192.12
IonicMinimize: Converged (|grad|_K<1.000000e-04).

#--- Lowdin population analysis ---
# oxidation-state Cs +0.004
# magnetic-moments Cs -0.478

End date and time: Sun Feb  6 13:22:00 2022  (Duration: 0-0:03:12.18)
Done!
