The alkali metal is Cs
scale=2
magnetization=-0.4
--------------------------------------------------------------------------
The library attempted to open the following supporting CUDA libraries,
but each of them failed.  CUDA-aware support is disabled.
libcuda.so.1: cannot open shared object file: No such file or directory
libcuda.dylib: cannot open shared object file: No such file or directory
/usr/lib64/libcuda.so.1: cannot open shared object file: No such file or directory
/usr/lib64/libcuda.dylib: cannot open shared object file: No such file or directory
If you are not interested in CUDA-aware support, then run with
--mca opal_warn_on_missing_libcuda 0 to suppress this message.  If you are interested
in CUDA-aware support, then try setting LD_LIBRARY_PATH to the location
of libcuda.so.1 to get passed this issue.
--------------------------------------------------------------------------
--------------------------------------------------------------------------
No OpenFabrics connection schemes reported that they were able to be
used on a specific port.  As such, the openib BTL (OpenFabrics
support) will be disabled for this port.

  Local host:           d-16-13-1
  Local device:         mlx5_1
  Local port:           1
  CPCs attempted:       rdmacm, udcm
--------------------------------------------------------------------------

*************** JDFTx 1.6.0 (git hash 42ebbcc2) ***************

Start date and time: Sun Feb  6 13:15:48 2022
Executable jdftx with command-line: -i Alkali.in
Running on hosts (process indices):  d-16-13-1 (0-18)
Divided in process groups (process indices):  0 (0)  1 (1)  2 (2)  3 (3)  4 (4)  5 (5)  6 (6)  7 (7)  8 (8)  9 (9)  10 (10)  11 (11)  12 (12)  13 (13)  14 (14)  15 (15)  16 (16)  17 (17)  18 (18)
Resource initialization completed at t[s]:      0.00
Run totals: 19 processes, 48 threads, 0 GPUs


Input parsed successfully to the following command list (including defaults):

basis kpoint-dependent
coords-type Lattice
core-overlap-check vector
coulomb-interaction Slab 001
davidson-band-ratio 1.1
dump End None
dump-name $INPUT.$VAR
elec-cutoff 20
elec-eigen-algo Davidson
elec-ex-corr gga-PBE
elec-initial-magnetization -0.400000 yes
elec-smearing Fermi 1e-05
electronic-minimize  \
	dirUpdateScheme      FletcherReeves \
	linminMethod         DirUpdateRecommended \
	nIterations          100 \
	history              15 \
	knormThreshold       0 \
	energyDiffThreshold  1e-08 \
	nEnergyDiff          2 \
	alphaTstart          1 \
	alphaTmin            1e-10 \
	updateTestStepSize   yes \
	alphaTreduceFactor   0.1 \
	alphaTincreaseFactor 3 \
	nAlphaAdjustMax      3 \
	wolfeEnergy          0.0001 \
	wolfeGradient        0.9 \
	fdTest               no
electronic-scf  \
	nIterations	10000 \
	energyDiffThreshold	1e-08 \
	residualThreshold	1e-07 \
	mixFraction	0.5 \
	qMetric	0.8 \
	history	10 \
	nEigSteps	2 \
	eigDiffThreshold	1e-08 \
	mixedVariable	Density \
	qKerker	0.8 \
	qKappa	-1 \
	verbose	no \
	mixFractionMag	1.5
exchange-regularization WignerSeitzTruncated
fluid None
fluid-ex-corr (null) lda-PZ
fluid-gummel-loop 10 1.000000e-05
fluid-minimize  \
	dirUpdateScheme      PolakRibiere \
	linminMethod         DirUpdateRecommended \
	nIterations          100 \
	history              15 \
	knormThreshold       0 \
	energyDiffThreshold  0 \
	nEnergyDiff          2 \
	alphaTstart          1 \
	alphaTmin            1e-10 \
	updateTestStepSize   yes \
	alphaTreduceFactor   0.1 \
	alphaTincreaseFactor 3 \
	nAlphaAdjustMax      3 \
	wolfeEnergy          0.0001 \
	wolfeGradient        0.9 \
	fdTest               no
fluid-solvent H2O 55.338 ScalarEOS \
	epsBulk 78.4 \
	pMol 0.92466 \
	epsInf 1.77 \
	Pvap 1.06736e-10 \
	sigmaBulk 4.62e-05 \
	Rvdw 2.61727 \
	Res 1.42 \
	tauNuc 343133 \
	poleEl 15 7 1
forces-output-coords Positions
ion Cs   0.000000000000000   0.000000000000000   0.000000000000000 0
ion-species SG15/$ID_ONCV_PBE.upf
ion-width 0
ionic-minimize  \
	dirUpdateScheme      L-BFGS \
	linminMethod         DirUpdateRecommended \
	nIterations          0 \
	history              15 \
	knormThreshold       0.0001 \
	energyDiffThreshold  1e-06 \
	nEnergyDiff          2 \
	alphaTstart          1 \
	alphaTmin            1e-10 \
	updateTestStepSize   yes \
	alphaTreduceFactor   0.1 \
	alphaTincreaseFactor 3 \
	nAlphaAdjustMax      3 \
	wolfeEnergy          0.0001 \
	wolfeGradient        0.9 \
	fdTest               no
kpoint   0.000000000000   0.000000000000   0.000000000000  1.00000000000000
kpoint-folding 12 12 1 
latt-move-scale 1 1 1
latt-scale 2 2 1 
lattice  \
	   4.727486978767153   -2.363743489383575    0.000000000000000  \
	  -0.000000000000000    4.094123819672498    0.000000000000000  \
	   0.000000000000000    0.000000000000000   40.000000000000000 
lattice-minimize  \
	dirUpdateScheme      L-BFGS \
	linminMethod         DirUpdateRecommended \
	nIterations          0 \
	history              15 \
	knormThreshold       0 \
	energyDiffThreshold  1e-06 \
	nEnergyDiff          2 \
	alphaTstart          1 \
	alphaTmin            1e-10 \
	updateTestStepSize   yes \
	alphaTreduceFactor   0.1 \
	alphaTincreaseFactor 3 \
	nAlphaAdjustMax      3 \
	wolfeEnergy          0.0001 \
	wolfeGradient        0.9 \
	fdTest               no
lcao-params -1 1e-06 1e-05
pcm-variant GLSSA13
spintype z-spin
subspace-rotation-factor 1 yes
symmetries automatic
symmetry-threshold 0.0001



---------- Setting up symmetries ----------

Found 24 point-group symmetries of the bravais lattice
Found 24 space-group symmetries with basis
Applied RMS atom displacement 0 bohrs to make symmetries exact.

---------- Initializing the Grid ----------
R = 
[      9.45497     -4.72749            0  ]
[            0      8.18825            0  ]
[            0            0           40  ]
unit cell volume = 3096.79
G =
[   0.664538   0.383671         -0  ]
[          0   0.767342         -0  ]
[         -0         -0    0.15708  ]
Minimum fftbox size, Smin = [  40  40  164  ]
Chosen fftbox size, S = [  40  40  168  ]

---------- Exchange Correlation functional ----------
Initalized PBE GGA exchange.
Initalized PBE GGA correlation.

---------- Setting up pseudopotentials ----------
Width of ionic core gaussian charges (only for fluid interactions / plotting) set to 0

Reading pseudopotential file '/home/gridsan/aligho/DFT/build-Nov24/pseudopotentials/SG15/Cs_ONCV_PBE.upf':
  'Cs' pseudopotential, 'PBE' functional
  Generated using ONCVPSP code by D. R. Hamann
  Author: Martin Schlipf and Francois Gygi  Date: 150915.
  9 valence electrons, 3 orbitals, 6 projectors, 2414 radial grid points, with lMax = 2
  Transforming local potential to a uniform radial grid of dG=0.02 with 1489 points.
  Transforming nonlocal projectors to a uniform radial grid of dG=0.02 with 432 points.
    5S    l: 0   occupation:  2.0   eigenvalue: -0.982388
    5P    l: 1   occupation:  6.0   eigenvalue: -0.496786
    6S    l: 0   occupation:  1.0   eigenvalue: -0.076670
  Transforming atomic orbitals to a uniform radial grid of dG=0.02 with 432 points.
  Core radius for overlap checks: 2.06 bohrs.
  Reading pulay file /home/gridsan/aligho/DFT/build-Nov24/pseudopotentials/SG15/Cs_ONCV_PBE.pulay ... using dE_dnG = -1.008762e-04 computed for Ecut = 20.

Initialized 1 species with 1 total atoms.

Folded 1 k-points by 12x12x1 to 144 k-points.

---------- Setting up k-points, bands, fillings ----------
Reduced to 19 k-points under symmetry. 
Computing the number of bands and number of electrons
Calculating initial fillings.
nElectrons:   9.000000   nBands: 6   nStates: 38

----- Setting up reduced wavefunction bases (one per k-point) -----
average nbasis = 13230.521 , ideal nbasis = 13229.709

---------- Setting up coulomb interaction ----------
Initialized slab truncation along lattice direction 001

---------- Setting up 2D ewald sum ----------
Optimum gaussian width for ewald sums = 5.249020 bohr.
Real space sums over 289 unit cells with max indices [  8  8  0  ]
Reciprocal space sums over 81 terms with max indices [  4  4  0  ]

---------- Allocating electronic variables ----------
Initializing wave functions:  linear combination of atomic orbitals
Note: number of bands (6) exceeds available atomic orbitals (5)
Cs pseudo-atom occupations:   s ( 2 1 )  p ( 6 )
	FillingsUpdate:  mu: -0.088002114  nElectrons: 9.000000  magneticMoment: [ Abs: 0.40000  Tot: -0.40000 ]
LCAOMinimize: Iter:   0  F: -20.1786172877882457  |grad|_K:  3.479e-05  alpha:  1.000e+00
	FillingsUpdate:  mu: -0.087986771  nElectrons: 9.000000  magneticMoment: [ Abs: 0.40000  Tot: -0.40000 ]
LCAOMinimize: Iter:   1  F: -20.1786180972272611  |grad|_K:  3.408e-07  alpha:  9.778e-01  linmin: -4.243e-02  cgtest:  3.258e-01  t[s]:      4.58
LCAOMinimize: Encountered beta<0, resetting CG.
[d-16-13-1:51014] 18 more processes have sent help message help-mpi-common-cuda.txt / dlopen failed
[d-16-13-1:51014] Set MCA parameter "orte_base_help_aggregate" to 0 to see all help / error messages
[d-16-13-1:51014] 18 more processes have sent help message help-mpi-btl-openib-cpc-base.txt / no cpcs for port
	FillingsUpdate:  mu: -0.087986885  nElectrons: 9.000000  magneticMoment: [ Abs: 0.40000  Tot: -0.40000 ]
LCAOMinimize: Iter:   2  F: -20.1786180973069129  |grad|_K:  9.550e-10  alpha:  1.002e+00  linmin:  4.294e-02  cgtest: -3.063e-01  t[s]:      5.80
LCAOMinimize: Converged (|Delta F|<1.000000e-06 for 2 iters).


---- Citations for features of the code used in this run ----

   Software package:
      R. Sundararaman, K. Letchworth-Weaver, K.A. Schwarz, D. Gunceler, Y. Ozhabes and T.A. Arias, 'JDFTx: software for joint density-functional theory', SoftwareX 6, 278 (2017)

   gga-PBE exchange-correlation functional:
      J.P. Perdew, K. Burke and M. Ernzerhof, Phys. Rev. Lett. 77, 3865 (1996)

   Pseudopotentials:
      M Schlipf and F Gygi, Comput. Phys. Commun. 196, 36 (2015)

   Truncated Coulomb potentials:
      R. Sundararaman and T.A. Arias, Phys. Rev. B 87, 165122 (2013)

This list may not be complete. Please suggest additional citations or
report any other bugs at https://github.com/shankar1729/jdftx/issues

Initialization completed successfully at t[s]:      5.90


-------- Electronic minimization -----------
Will mix electronic density at each iteration.
	FillingsUpdate:  mu: -0.087986885  nElectrons: 9.000000  magneticMoment: [ Abs: 0.40000  Tot: -0.40000 ]
	FillingsUpdate:  mu: -0.102305061  nElectrons: 9.000000  magneticMoment: [ Abs: 0.40000  Tot: -0.40000 ]
SCF: Cycle:  0   F: -20.185264233063904   dF: -6.646e-03   |Residual|: 1.384e-02   |deigs|: 1.880e-01  t[s]:      8.49
	FillingsUpdate:  mu: -0.102731940  nElectrons: 9.000000  magneticMoment: [ Abs: 0.40000  Tot: -0.40000 ]
SCF: Cycle:  1   F: -20.185905536004004   dF: -6.413e-04   |Residual|: 1.097e-02   |deigs|: 5.258e-03  t[s]:     10.38
	FillingsUpdate:  mu: -0.099904605  nElectrons: 9.000000  magneticMoment: [ Abs: 0.40889  Tot: -0.40000 ]
SCF: Cycle:  2   F: -20.186251218135030   dF: -3.457e-04   |Residual|: 5.409e-03   |deigs|: 2.590e-03  t[s]:     12.37
	FillingsUpdate:  mu: -0.098301666  nElectrons: 9.000000  magneticMoment: [ Abs: 0.40000  Tot: -0.40000 ]
SCF: Cycle:  3   F: -20.186406518492010   dF: -1.553e-04   |Residual|: 3.714e-03   |deigs|: 2.605e-03  t[s]:     14.32
	FillingsUpdate:  mu: -0.095862553  nElectrons: 9.000000  magneticMoment: [ Abs: 0.40073  Tot: -0.40000 ]
SCF: Cycle:  4   F: -20.186481816310913   dF: -7.530e-05   |Residual|: 2.766e-03   |deigs|: 3.142e-03  t[s]:     16.23
	FillingsUpdate:  mu: -0.093370000  nElectrons: 9.000000  magneticMoment: [ Abs: 0.40531  Tot: -0.40000 ]
SCF: Cycle:  5   F: -20.186523290705356   dF: -4.147e-05   |Residual|: 2.424e-03   |deigs|: 3.081e-03  t[s]:     18.15
	FillingsUpdate:  mu: -0.090712498  nElectrons: 9.000000  magneticMoment: [ Abs: 0.41255  Tot: -0.40000 ]
SCF: Cycle:  6   F: -20.186526899251213   dF: -3.609e-06   |Residual|: 1.676e-03   |deigs|: 3.258e-03  t[s]:     20.24
	FillingsUpdate:  mu: -0.088353930  nElectrons: 9.000000  magneticMoment: [ Abs: 0.41071  Tot: -0.40000 ]
SCF: Cycle:  7   F: -20.186553089215746   dF: -2.619e-05   |Residual|: 1.361e-03   |deigs|: 2.479e-03  t[s]:     22.28
	FillingsUpdate:  mu: -0.087293266  nElectrons: 9.000000  magneticMoment: [ Abs: 0.40338  Tot: -0.40000 ]
SCF: Cycle:  8   F: -20.186585465014961   dF: -3.238e-05   |Residual|: 1.128e-03   |deigs|: 1.526e-03  t[s]:     24.34
	FillingsUpdate:  mu: -0.085710861  nElectrons: 9.000000  magneticMoment: [ Abs: 0.40413  Tot: -0.40000 ]
SCF: Cycle:  9   F: -20.186576081705461   dF: +9.383e-06   |Residual|: 9.395e-04   |deigs|: 1.678e-03  t[s]:     26.35
	FillingsUpdate:  mu: -0.083695880  nElectrons: 9.000000  magneticMoment: [ Abs: 0.40661  Tot: -0.40000 ]
SCF: Cycle: 10   F: -20.186570762673941   dF: +5.319e-06   |Residual|: 8.323e-04   |deigs|: 2.128e-03  t[s]:     28.46
	FillingsUpdate:  mu: -0.082101441  nElectrons: 9.000000  magneticMoment: [ Abs: 0.40571  Tot: -0.40000 ]
SCF: Cycle: 11   F: -20.186585817980959   dF: -1.506e-05   |Residual|: 7.617e-04   |deigs|: 1.668e-03  t[s]:     30.55
	FillingsUpdate:  mu: -0.080731947  nElectrons: 9.000000  magneticMoment: [ Abs: 0.40558  Tot: -0.40000 ]
SCF: Cycle: 12   F: -20.186612758026637   dF: -2.694e-05   |Residual|: 6.990e-04   |deigs|: 1.338e-03  t[s]:     32.59
	FillingsUpdate:  mu: -0.078847123  nElectrons: 9.000000  magneticMoment: [ Abs: 0.40555  Tot: -0.40000 ]
SCF: Cycle: 13   F: -20.186625566992088   dF: -1.281e-05   |Residual|: 6.477e-04   |deigs|: 1.896e-03  t[s]:     34.69
	FillingsUpdate:  mu: -0.076662141  nElectrons: 9.000000  magneticMoment: [ Abs: 0.40224  Tot: -0.40000 ]
SCF: Cycle: 14   F: -20.186635583172247   dF: -1.002e-05   |Residual|: 5.314e-04   |deigs|: 2.273e-03  t[s]:     36.74
	FillingsUpdate:  mu: -0.076269867  nElectrons: 9.000000  magneticMoment: [ Abs: 0.40105  Tot: -0.40000 ]
SCF: Cycle: 15   F: -20.186641137517586   dF: -5.554e-06   |Residual|: 3.918e-04   |deigs|: 4.844e-04  t[s]:     38.81
	FillingsUpdate:  mu: -0.075467494  nElectrons: 9.000000  magneticMoment: [ Abs: 0.40053  Tot: -0.40000 ]
SCF: Cycle: 16   F: -20.186645435637519   dF: -4.298e-06   |Residual|: 2.652e-04   |deigs|: 1.243e-03  t[s]:     40.85
	FillingsUpdate:  mu: -0.075142008  nElectrons: 9.000000  magneticMoment: [ Abs: 0.40021  Tot: -0.40000 ]
SCF: Cycle: 17   F: -20.186646768969805   dF: -1.333e-06   |Residual|: 1.721e-04   |deigs|: 5.566e-04  t[s]:     42.89
	FillingsUpdate:  mu: -0.075177100  nElectrons: 9.000000  magneticMoment: [ Abs: 0.40049  Tot: -0.40000 ]
SCF: Cycle: 18   F: -20.186647844680952   dF: -1.076e-06   |Residual|: 1.207e-04   |deigs|: 3.164e-04  t[s]:     44.99
	FillingsUpdate:  mu: -0.075357011  nElectrons: 9.000000  magneticMoment: [ Abs: 0.40048  Tot: -0.40000 ]
SCF: Cycle: 19   F: -20.186648263365310   dF: -4.187e-07   |Residual|: 6.936e-05   |deigs|: 3.173e-04  t[s]:     47.08
	FillingsUpdate:  mu: -0.075393886  nElectrons: 9.000000  magneticMoment: [ Abs: 0.40025  Tot: -0.40000 ]
SCF: Cycle: 20   F: -20.186648358598113   dF: -9.523e-08   |Residual|: 4.292e-05   |deigs|: 1.759e-04  t[s]:     49.20
	FillingsUpdate:  mu: -0.075377557  nElectrons: 9.000000  magneticMoment: [ Abs: 0.40019  Tot: -0.40000 ]
SCF: Cycle: 21   F: -20.186648460660070   dF: -1.021e-07   |Residual|: 2.620e-05   |deigs|: 4.576e-04  t[s]:     51.27
	FillingsUpdate:  mu: -0.075394024  nElectrons: 9.000000  magneticMoment: [ Abs: 0.40017  Tot: -0.40000 ]
SCF: Cycle: 22   F: -20.186648500028575   dF: -3.937e-08   |Residual|: 1.587e-05   |deigs|: 4.669e-04  t[s]:     53.39
	FillingsUpdate:  mu: -0.075389235  nElectrons: 9.000000  magneticMoment: [ Abs: 0.40020  Tot: -0.40000 ]
SCF: Cycle: 23   F: -20.186648528237335   dF: -2.821e-08   |Residual|: 1.200e-05   |deigs|: 1.080e-04  t[s]:     55.55
	FillingsUpdate:  mu: -0.075392309  nElectrons: 9.000000  magneticMoment: [ Abs: 0.40021  Tot: -0.40000 ]
SCF: Cycle: 24   F: -20.186648540737036   dF: -1.250e-08   |Residual|: 8.813e-06   |deigs|: 1.204e-04  t[s]:     57.62
	FillingsUpdate:  mu: -0.075401859  nElectrons: 9.000000  magneticMoment: [ Abs: 0.40022  Tot: -0.40000 ]
SCF: Cycle: 25   F: -20.186648547759741   dF: -7.023e-09   |Residual|: 5.402e-06   |deigs|: 1.586e-04  t[s]:     59.78
	FillingsUpdate:  mu: -0.075406112  nElectrons: 9.000000  magneticMoment: [ Abs: 0.40022  Tot: -0.40000 ]
SCF: Cycle: 26   F: -20.186648551860138   dF: -4.100e-09   |Residual|: 3.635e-06   |deigs|: 4.810e-04  t[s]:     61.85
SCF: Converged (|Delta E|<1.000000e-08 for 2 iters).


# Ionic positions in lattice coordinates:
ion Cs   0.000000000000000   0.000000000000000   0.000000000000000 0

# Forces in Lattice coordinates:
force Cs   0.000000000000000  -0.000000000000000   0.000000000000000 0

# Energy components:
   Eewald =      -18.0480261003326561
       EH =       -1.8090299334950326
     Eloc =       -5.7732159021353695
      Enl =        3.4408223934398299
   Epulay =        0.0000000264484078
      Exc =       -3.1461841467680989
       KE =        5.1489857518143154
-------------------------------------
     Etot =      -20.1866479110286043
       TS =        0.0000006408315341
-------------------------------------
        F =      -20.1866485518601380

IonicMinimize: Iter:   0  F: -20.186648551860138  |grad|_K:  0.000e+00  t[s]:     61.98
IonicMinimize: Converged (|grad|_K<1.000000e-04).

#--- Lowdin population analysis ---
# oxidation-state Cs +0.071
# magnetic-moments Cs -0.342

End date and time: Sun Feb  6 13:16:50 2022  (Duration: 0-0:01:01.99)
Done!
scale=3
magnetization=-0.4
--------------------------------------------------------------------------
The library attempted to open the following supporting CUDA libraries,
but each of them failed.  CUDA-aware support is disabled.
libcuda.so.1: cannot open shared object file: No such file or directory
libcuda.dylib: cannot open shared object file: No such file or directory
/usr/lib64/libcuda.so.1: cannot open shared object file: No such file or directory
/usr/lib64/libcuda.dylib: cannot open shared object file: No such file or directory
If you are not interested in CUDA-aware support, then run with
--mca opal_warn_on_missing_libcuda 0 to suppress this message.  If you are interested
in CUDA-aware support, then try setting LD_LIBRARY_PATH to the location
of libcuda.so.1 to get passed this issue.
--------------------------------------------------------------------------
--------------------------------------------------------------------------
No OpenFabrics connection schemes reported that they were able to be
used on a specific port.  As such, the openib BTL (OpenFabrics
support) will be disabled for this port.

  Local host:           d-16-13-1
  Local device:         mlx5_1
  Local port:           1
  CPCs attempted:       rdmacm, udcm
--------------------------------------------------------------------------

*************** JDFTx 1.6.0 (git hash 42ebbcc2) ***************

Start date and time: Sun Feb  6 13:16:51 2022
Executable jdftx with command-line: -i Alkali.in
Running on hosts (process indices):  d-16-13-1 (0-18)
Divided in process groups (process indices):  0 (0)  1 (1)  2 (2)  3 (3)  4 (4)  5 (5)  6 (6)  7 (7)  8 (8)  9 (9)  10 (10)  11 (11)  12 (12)  13 (13)  14 (14)  15 (15)  16 (16)  17 (17)  18 (18)
Resource initialization completed at t[s]:      0.00
Run totals: 19 processes, 48 threads, 0 GPUs


Input parsed successfully to the following command list (including defaults):

basis kpoint-dependent
coords-type Lattice
core-overlap-check vector
coulomb-interaction Slab 001
davidson-band-ratio 1.1
dump End None
dump-name $INPUT.$VAR
elec-cutoff 20
elec-eigen-algo Davidson
elec-ex-corr gga-PBE
elec-initial-magnetization -0.400000 yes
elec-smearing Fermi 1e-05
electronic-minimize  \
	dirUpdateScheme      FletcherReeves \
	linminMethod         DirUpdateRecommended \
	nIterations          100 \
	history              15 \
	knormThreshold       0 \
	energyDiffThreshold  1e-08 \
	nEnergyDiff          2 \
	alphaTstart          1 \
	alphaTmin            1e-10 \
	updateTestStepSize   yes \
	alphaTreduceFactor   0.1 \
	alphaTincreaseFactor 3 \
	nAlphaAdjustMax      3 \
	wolfeEnergy          0.0001 \
	wolfeGradient        0.9 \
	fdTest               no
electronic-scf  \
	nIterations	10000 \
	energyDiffThreshold	1e-08 \
	residualThreshold	1e-07 \
	mixFraction	0.5 \
	qMetric	0.8 \
	history	10 \
	nEigSteps	2 \
	eigDiffThreshold	1e-08 \
	mixedVariable	Density \
	qKerker	0.8 \
	qKappa	-1 \
	verbose	no \
	mixFractionMag	1.5
exchange-regularization WignerSeitzTruncated
fluid None
fluid-ex-corr (null) lda-PZ
fluid-gummel-loop 10 1.000000e-05
fluid-minimize  \
	dirUpdateScheme      PolakRibiere \
	linminMethod         DirUpdateRecommended \
	nIterations          100 \
	history              15 \
	knormThreshold       0 \
	energyDiffThreshold  0 \
	nEnergyDiff          2 \
	alphaTstart          1 \
	alphaTmin            1e-10 \
	updateTestStepSize   yes \
	alphaTreduceFactor   0.1 \
	alphaTincreaseFactor 3 \
	nAlphaAdjustMax      3 \
	wolfeEnergy          0.0001 \
	wolfeGradient        0.9 \
	fdTest               no
fluid-solvent H2O 55.338 ScalarEOS \
	epsBulk 78.4 \
	pMol 0.92466 \
	epsInf 1.77 \
	Pvap 1.06736e-10 \
	sigmaBulk 4.62e-05 \
	Rvdw 2.61727 \
	Res 1.42 \
	tauNuc 343133 \
	poleEl 15 7 1
forces-output-coords Positions
ion Cs   0.000000000000000   0.000000000000000   0.000000000000000 0
ion-species SG15/$ID_ONCV_PBE.upf
ion-width 0
ionic-minimize  \
	dirUpdateScheme      L-BFGS \
	linminMethod         DirUpdateRecommended \
	nIterations          0 \
	history              15 \
	knormThreshold       0.0001 \
	energyDiffThreshold  1e-06 \
	nEnergyDiff          2 \
	alphaTstart          1 \
	alphaTmin            1e-10 \
	updateTestStepSize   yes \
	alphaTreduceFactor   0.1 \
	alphaTincreaseFactor 3 \
	nAlphaAdjustMax      3 \
	wolfeEnergy          0.0001 \
	wolfeGradient        0.9 \
	fdTest               no
kpoint   0.000000000000   0.000000000000   0.000000000000  1.00000000000000
kpoint-folding 12 12 1 
latt-move-scale 1 1 1
latt-scale 3 3 1 
lattice  \
	   4.727486978767153   -2.363743489383575    0.000000000000000  \
	  -0.000000000000000    4.094123819672498    0.000000000000000  \
	   0.000000000000000    0.000000000000000   40.000000000000000 
lattice-minimize  \
	dirUpdateScheme      L-BFGS \
	linminMethod         DirUpdateRecommended \
	nIterations          0 \
	history              15 \
	knormThreshold       0 \
	energyDiffThreshold  1e-06 \
	nEnergyDiff          2 \
	alphaTstart          1 \
	alphaTmin            1e-10 \
	updateTestStepSize   yes \
	alphaTreduceFactor   0.1 \
	alphaTincreaseFactor 3 \
	nAlphaAdjustMax      3 \
	wolfeEnergy          0.0001 \
	wolfeGradient        0.9 \
	fdTest               no
lcao-params -1 1e-06 1e-05
pcm-variant GLSSA13
spintype z-spin
subspace-rotation-factor 1 yes
symmetries automatic
symmetry-threshold 0.0001



---------- Setting up symmetries ----------

Found 24 point-group symmetries of the bravais lattice
Found 24 space-group symmetries with basis
Applied RMS atom displacement 0 bohrs to make symmetries exact.

---------- Initializing the Grid ----------
R = 
[      14.1825     -7.09123            0  ]
[            0      12.2824            0  ]
[            0            0           40  ]
unit cell volume = 6967.77
G =
[   0.443025   0.255781         -0  ]
[          0   0.511561         -0  ]
[         -0         -0    0.15708  ]
Minimum fftbox size, Smin = [  60  60  164  ]
Chosen fftbox size, S = [  60  60  168  ]

---------- Exchange Correlation functional ----------
Initalized PBE GGA exchange.
Initalized PBE GGA correlation.

---------- Setting up pseudopotentials ----------
Width of ionic core gaussian charges (only for fluid interactions / plotting) set to 0

Reading pseudopotential file '/home/gridsan/aligho/DFT/build-Nov24/pseudopotentials/SG15/Cs_ONCV_PBE.upf':
  'Cs' pseudopotential, 'PBE' functional
  Generated using ONCVPSP code by D. R. Hamann
  Author: Martin Schlipf and Francois Gygi  Date: 150915.
  9 valence electrons, 3 orbitals, 6 projectors, 2414 radial grid points, with lMax = 2
  Transforming local potential to a uniform radial grid of dG=0.02 with 1489 points.
  Transforming nonlocal projectors to a uniform radial grid of dG=0.02 with 432 points.
    5S    l: 0   occupation:  2.0   eigenvalue: -0.982388
    5P    l: 1   occupation:  6.0   eigenvalue: -0.496786
    6S    l: 0   occupation:  1.0   eigenvalue: -0.076670
  Transforming atomic orbitals to a uniform radial grid of dG=0.02 with 432 points.
  Core radius for overlap checks: 2.06 bohrs.
  Reading pulay file /home/gridsan/aligho/DFT/build-Nov24/pseudopotentials/SG15/Cs_ONCV_PBE.pulay ... using dE_dnG = -1.008762e-04 computed for Ecut = 20.

Initialized 1 species with 1 total atoms.

Folded 1 k-points by 12x12x1 to 144 k-points.

---------- Setting up k-points, bands, fillings ----------
Reduced to 19 k-points under symmetry. 
Computing the number of bands and number of electrons
Calculating initial fillings.
nElectrons:   9.000000   nBands: 6   nStates: 38

----- Setting up reduced wavefunction bases (one per k-point) -----
average nbasis = 29766.104 , ideal nbasis = 29766.845

---------- Setting up coulomb interaction ----------
Initialized slab truncation along lattice direction 001

---------- Setting up 2D ewald sum ----------
Optimum gaussian width for ewald sums = 7.873530 bohr.
Real space sums over 289 unit cells with max indices [  8  8  0  ]
Reciprocal space sums over 81 terms with max indices [  4  4  0  ]

---------- Allocating electronic variables ----------
Initializing wave functions:  linear combination of atomic orbitals
Note: number of bands (6) exceeds available atomic orbitals (5)
Cs pseudo-atom occupations:   s ( 2 1 )  p ( 6 )
[d-16-13-1:15779] 18 more processes have sent help message help-mpi-common-cuda.txt / dlopen failed
[d-16-13-1:15779] Set MCA parameter "orte_base_help_aggregate" to 0 to see all help / error messages
[d-16-13-1:15779] 18 more processes have sent help message help-mpi-btl-openib-cpc-base.txt / no cpcs for port
	FillingsUpdate:  mu: -0.078722508  nElectrons: 9.000000  magneticMoment: [ Abs: 0.40000  Tot: -0.40000 ]
LCAOMinimize: Iter:   0  F: -20.1743438805708344  |grad|_K:  2.155e-05  alpha:  1.000e+00
	FillingsUpdate:  mu: -0.078717832  nElectrons: 9.000000  magneticMoment: [ Abs: 0.40000  Tot: -0.40000 ]
LCAOMinimize: Iter:   1  F: -20.1743441943492172  |grad|_K:  1.476e-07  alpha:  9.875e-01  linmin: -2.767e-02  cgtest:  5.062e-01  t[s]:      8.80
LCAOMinimize: Encountered beta<0, resetting CG.
	FillingsUpdate:  mu: -0.078717831  nElectrons: 9.000000  magneticMoment: [ Abs: 0.40000  Tot: -0.40000 ]
LCAOMinimize: Iter:   2  F: -20.1743441943642772  |grad|_K:  3.138e-09  alpha:  1.022e+00  linmin:  7.875e-02  cgtest: -9.994e-01  t[s]:     11.18
LCAOMinimize: Converged (|Delta F|<1.000000e-06 for 2 iters).


---- Citations for features of the code used in this run ----

   Software package:
      R. Sundararaman, K. Letchworth-Weaver, K.A. Schwarz, D. Gunceler, Y. Ozhabes and T.A. Arias, 'JDFTx: software for joint density-functional theory', SoftwareX 6, 278 (2017)

   gga-PBE exchange-correlation functional:
      J.P. Perdew, K. Burke and M. Ernzerhof, Phys. Rev. Lett. 77, 3865 (1996)

   Pseudopotentials:
      M Schlipf and F Gygi, Comput. Phys. Commun. 196, 36 (2015)

   Truncated Coulomb potentials:
      R. Sundararaman and T.A. Arias, Phys. Rev. B 87, 165122 (2013)

This list may not be complete. Please suggest additional citations or
report any other bugs at https://github.com/shankar1729/jdftx/issues

Initialization completed successfully at t[s]:     11.35


-------- Electronic minimization -----------
Will mix electronic density at each iteration.
	FillingsUpdate:  mu: -0.078717831  nElectrons: 9.000000  magneticMoment: [ Abs: 0.40000  Tot: -0.40000 ]
	FillingsUpdate:  mu: -0.081802017  nElectrons: 9.000000  magneticMoment: [ Abs: 0.40000  Tot: -0.40000 ]
SCF: Cycle:  0   F: -20.176789270687546   dF: -2.445e-03   |Residual|: 4.914e-03   |deigs|: 1.731e-01  t[s]:     16.23
	FillingsUpdate:  mu: -0.082067295  nElectrons: 9.000000  magneticMoment: [ Abs: 0.40000  Tot: -0.40000 ]
SCF: Cycle:  1   F: -20.176925048150938   dF: -1.358e-04   |Residual|: 4.290e-03   |deigs|: 4.912e-03  t[s]:     20.02
	FillingsUpdate:  mu: -0.082246834  nElectrons: 9.000000  magneticMoment: [ Abs: 0.40221  Tot: -0.40000 ]
SCF: Cycle:  2   F: -20.177004329183102   dF: -7.928e-05   |Residual|: 2.722e-03   |deigs|: 2.218e-03  t[s]:     23.88
	FillingsUpdate:  mu: -0.082315389  nElectrons: 9.000000  magneticMoment: [ Abs: 0.40214  Tot: -0.40000 ]
SCF: Cycle:  3   F: -20.177034048826481   dF: -2.972e-05   |Residual|: 1.864e-03   |deigs|: 1.470e-03  t[s]:     27.73
	FillingsUpdate:  mu: -0.082157773  nElectrons: 9.000000  magneticMoment: [ Abs: 0.40019  Tot: -0.40000 ]
SCF: Cycle:  4   F: -20.177051828896651   dF: -1.778e-05   |Residual|: 1.001e-03   |deigs|: 1.137e-03  t[s]:     31.67
	FillingsUpdate:  mu: -0.082040124  nElectrons: 9.000000  magneticMoment: [ Abs: 0.40033  Tot: -0.40000 ]
SCF: Cycle:  5   F: -20.177061167139033   dF: -9.338e-06   |Residual|: 7.233e-04   |deigs|: 7.041e-04  t[s]:     35.65
	FillingsUpdate:  mu: -0.081766750  nElectrons: 9.000000  magneticMoment: [ Abs: 0.40060  Tot: -0.40000 ]
SCF: Cycle:  6   F: -20.177066134890850   dF: -4.968e-06   |Residual|: 5.664e-04   |deigs|: 1.182e-03  t[s]:     39.72
	FillingsUpdate:  mu: -0.081378804  nElectrons: 9.000000  magneticMoment: [ Abs: 0.40166  Tot: -0.40000 ]
SCF: Cycle:  7   F: -20.177066802234926   dF: -6.673e-07   |Residual|: 4.847e-04   |deigs|: 8.075e-04  t[s]:     43.87
	FillingsUpdate:  mu: -0.080716305  nElectrons: 9.000000  magneticMoment: [ Abs: 0.40301  Tot: -0.40000 ]
SCF: Cycle:  8   F: -20.177063584612281   dF: +3.218e-06   |Residual|: 3.838e-04   |deigs|: 7.836e-04  t[s]:     48.08
	FillingsUpdate:  mu: -0.080074503  nElectrons: 9.000000  magneticMoment: [ Abs: 0.40247  Tot: -0.40000 ]
SCF: Cycle:  9   F: -20.177065112349748   dF: -1.528e-06   |Residual|: 3.544e-04   |deigs|: 9.975e-04  t[s]:     52.40
	FillingsUpdate:  mu: -0.080016621  nElectrons: 9.000000  magneticMoment: [ Abs: 0.40192  Tot: -0.40000 ]
SCF: Cycle: 10   F: -20.177068296746263   dF: -3.184e-06   |Residual|: 2.762e-04   |deigs|: 5.755e-04  t[s]:     56.70
	FillingsUpdate:  mu: -0.079717279  nElectrons: 9.000000  magneticMoment: [ Abs: 0.40283  Tot: -0.40000 ]
SCF: Cycle: 11   F: -20.177069816389807   dF: -1.520e-06   |Residual|: 2.463e-04   |deigs|: 8.057e-04  t[s]:     61.02
	FillingsUpdate:  mu: -0.079218234  nElectrons: 9.000000  magneticMoment: [ Abs: 0.40258  Tot: -0.40000 ]
SCF: Cycle: 12   F: -20.177069083172018   dF: +7.332e-07   |Residual|: 2.406e-04   |deigs|: 6.844e-04  t[s]:     65.35
	FillingsUpdate:  mu: -0.078639336  nElectrons: 9.000000  magneticMoment: [ Abs: 0.40119  Tot: -0.40000 ]
SCF: Cycle: 13   F: -20.177068170503357   dF: +9.127e-07   |Residual|: 2.300e-04   |deigs|: 6.871e-04  t[s]:     69.68
	FillingsUpdate:  mu: -0.078353651  nElectrons: 9.000000  magneticMoment: [ Abs: 0.40152  Tot: -0.40000 ]
SCF: Cycle: 14   F: -20.177069590052430   dF: -1.420e-06   |Residual|: 2.091e-04   |deigs|: 3.343e-04  t[s]:     74.04
	FillingsUpdate:  mu: -0.078113275  nElectrons: 9.000000  magneticMoment: [ Abs: 0.40155  Tot: -0.40000 ]
SCF: Cycle: 15   F: -20.177072116285423   dF: -2.526e-06   |Residual|: 1.674e-04   |deigs|: 2.640e-04  t[s]:     78.29
	FillingsUpdate:  mu: -0.077923897  nElectrons: 9.000000  magneticMoment: [ Abs: 0.40106  Tot: -0.40000 ]
SCF: Cycle: 16   F: -20.177073729528502   dF: -1.613e-06   |Residual|: 1.166e-04   |deigs|: 2.025e-04  t[s]:     82.52
	FillingsUpdate:  mu: -0.077816067  nElectrons: 9.000000  magneticMoment: [ Abs: 0.40056  Tot: -0.40000 ]
SCF: Cycle: 17   F: -20.177074044306210   dF: -3.148e-07   |Residual|: 9.095e-05   |deigs|: 1.281e-04  t[s]:     86.83
	FillingsUpdate:  mu: -0.077760003  nElectrons: 9.000000  magneticMoment: [ Abs: 0.40053  Tot: -0.40000 ]
SCF: Cycle: 18   F: -20.177074497323165   dF: -4.530e-07   |Residual|: 5.754e-05   |deigs|: 8.806e-05  t[s]:     91.13
	FillingsUpdate:  mu: -0.077791849  nElectrons: 9.000000  magneticMoment: [ Abs: 0.40060  Tot: -0.40000 ]
SCF: Cycle: 19   F: -20.177074585929567   dF: -8.861e-08   |Residual|: 3.748e-05   |deigs|: 6.030e-05  t[s]:     95.36
	FillingsUpdate:  mu: -0.077801082  nElectrons: 9.000000  magneticMoment: [ Abs: 0.40062  Tot: -0.40000 ]
SCF: Cycle: 20   F: -20.177074602053661   dF: -1.612e-08   |Residual|: 2.937e-05   |deigs|: 8.249e-05  t[s]:     99.72
	FillingsUpdate:  mu: -0.077825209  nElectrons: 9.000000  magneticMoment: [ Abs: 0.40068  Tot: -0.40000 ]
SCF: Cycle: 21   F: -20.177074635640537   dF: -3.359e-08   |Residual|: 1.585e-05   |deigs|: 7.547e-05  t[s]:    104.09
	FillingsUpdate:  mu: -0.077826570  nElectrons: 9.000000  magneticMoment: [ Abs: 0.40062  Tot: -0.40000 ]
SCF: Cycle: 22   F: -20.177074642035297   dF: -6.395e-09   |Residual|: 1.138e-05   |deigs|: 3.879e-05  t[s]:    108.41
	FillingsUpdate:  mu: -0.077831582  nElectrons: 9.000000  magneticMoment: [ Abs: 0.40059  Tot: -0.40000 ]
SCF: Cycle: 23   F: -20.177074645057285   dF: -3.022e-09   |Residual|: 7.510e-06   |deigs|: 3.038e-05  t[s]:    112.77
SCF: Converged (|Delta E|<1.000000e-08 for 2 iters).


# Ionic positions in lattice coordinates:
ion Cs   0.000000000000000   0.000000000000000   0.000000000000000 0

# Forces in Lattice coordinates:
force Cs   0.000000000000000  -0.000000000000000   0.000000000000000 0

# Energy components:
   Eewald =      -12.0320174002217755
       EH =        4.0142603507945847
     Eloc =      -17.5836695152503388
      Enl =        3.4317707164964215
   Epulay =       -0.0000000107257212
      Exc =       -3.1089560324944667
       KE =        5.1015378372584985
-------------------------------------
     Etot =      -20.1770740541427998
       TS =        0.0000005909144852
-------------------------------------
        F =      -20.1770746450572851

IonicMinimize: Iter:   0  F: -20.177074645057285  |grad|_K:  0.000e+00  t[s]:    113.03
IonicMinimize: Converged (|grad|_K<1.000000e-04).

#--- Lowdin population analysis ---
# oxidation-state Cs +0.053
# magnetic-moments Cs -0.359

End date and time: Sun Feb  6 13:18:44 2022  (Duration: 0-0:01:53.08)
Done!
scale=4
magnetization=-0.4
--------------------------------------------------------------------------
The library attempted to open the following supporting CUDA libraries,
but each of them failed.  CUDA-aware support is disabled.
libcuda.so.1: cannot open shared object file: No such file or directory
libcuda.dylib: cannot open shared object file: No such file or directory
/usr/lib64/libcuda.so.1: cannot open shared object file: No such file or directory
/usr/lib64/libcuda.dylib: cannot open shared object file: No such file or directory
If you are not interested in CUDA-aware support, then run with
--mca opal_warn_on_missing_libcuda 0 to suppress this message.  If you are interested
in CUDA-aware support, then try setting LD_LIBRARY_PATH to the location
of libcuda.so.1 to get passed this issue.
--------------------------------------------------------------------------
--------------------------------------------------------------------------
No OpenFabrics connection schemes reported that they were able to be
used on a specific port.  As such, the openib BTL (OpenFabrics
support) will be disabled for this port.

  Local host:           d-16-13-1
  Local device:         mlx5_1
  Local port:           1
  CPCs attempted:       rdmacm, udcm
--------------------------------------------------------------------------

*************** JDFTx 1.6.0 (git hash 42ebbcc2) ***************

Start date and time: Sun Feb  6 13:18:45 2022
Executable jdftx with command-line: -i Alkali.in
Running on hosts (process indices):  d-16-13-1 (0-18)
Divided in process groups (process indices):  0 (0)  1 (1)  2 (2)  3 (3)  4 (4)  5 (5)  6 (6)  7 (7)  8 (8)  9 (9)  10 (10)  11 (11)  12 (12)  13 (13)  14 (14)  15 (15)  16 (16)  17 (17)  18 (18)
Resource initialization completed at t[s]:      0.00
Run totals: 19 processes, 48 threads, 0 GPUs


Input parsed successfully to the following command list (including defaults):

basis kpoint-dependent
coords-type Lattice
core-overlap-check vector
coulomb-interaction Slab 001
davidson-band-ratio 1.1
dump End None
dump-name $INPUT.$VAR
elec-cutoff 20
elec-eigen-algo Davidson
elec-ex-corr gga-PBE
elec-initial-magnetization -0.400000 yes
elec-smearing Fermi 1e-05
electronic-minimize  \
	dirUpdateScheme      FletcherReeves \
	linminMethod         DirUpdateRecommended \
	nIterations          100 \
	history              15 \
	knormThreshold       0 \
	energyDiffThreshold  1e-08 \
	nEnergyDiff          2 \
	alphaTstart          1 \
	alphaTmin            1e-10 \
	updateTestStepSize   yes \
	alphaTreduceFactor   0.1 \
	alphaTincreaseFactor 3 \
	nAlphaAdjustMax      3 \
	wolfeEnergy          0.0001 \
	wolfeGradient        0.9 \
	fdTest               no
electronic-scf  \
	nIterations	10000 \
	energyDiffThreshold	1e-08 \
	residualThreshold	1e-07 \
	mixFraction	0.5 \
	qMetric	0.8 \
	history	10 \
	nEigSteps	2 \
	eigDiffThreshold	1e-08 \
	mixedVariable	Density \
	qKerker	0.8 \
	qKappa	-1 \
	verbose	no \
	mixFractionMag	1.5
exchange-regularization WignerSeitzTruncated
fluid None
fluid-ex-corr (null) lda-PZ
fluid-gummel-loop 10 1.000000e-05
fluid-minimize  \
	dirUpdateScheme      PolakRibiere \
	linminMethod         DirUpdateRecommended \
	nIterations          100 \
	history              15 \
	knormThreshold       0 \
	energyDiffThreshold  0 \
	nEnergyDiff          2 \
	alphaTstart          1 \
	alphaTmin            1e-10 \
	updateTestStepSize   yes \
	alphaTreduceFactor   0.1 \
	alphaTincreaseFactor 3 \
	nAlphaAdjustMax      3 \
	wolfeEnergy          0.0001 \
	wolfeGradient        0.9 \
	fdTest               no
fluid-solvent H2O 55.338 ScalarEOS \
	epsBulk 78.4 \
	pMol 0.92466 \
	epsInf 1.77 \
	Pvap 1.06736e-10 \
	sigmaBulk 4.62e-05 \
	Rvdw 2.61727 \
	Res 1.42 \
	tauNuc 343133 \
	poleEl 15 7 1
forces-output-coords Positions
ion Cs   0.000000000000000   0.000000000000000   0.000000000000000 0
ion-species SG15/$ID_ONCV_PBE.upf
ion-width 0
ionic-minimize  \
	dirUpdateScheme      L-BFGS \
	linminMethod         DirUpdateRecommended \
	nIterations          0 \
	history              15 \
	knormThreshold       0.0001 \
	energyDiffThreshold  1e-06 \
	nEnergyDiff          2 \
	alphaTstart          1 \
	alphaTmin            1e-10 \
	updateTestStepSize   yes \
	alphaTreduceFactor   0.1 \
	alphaTincreaseFactor 3 \
	nAlphaAdjustMax      3 \
	wolfeEnergy          0.0001 \
	wolfeGradient        0.9 \
	fdTest               no
kpoint   0.000000000000   0.000000000000   0.000000000000  1.00000000000000
kpoint-folding 12 12 1 
latt-move-scale 1 1 1
latt-scale 4 4 1 
lattice  \
	   4.727486978767153   -2.363743489383575    0.000000000000000  \
	  -0.000000000000000    4.094123819672498    0.000000000000000  \
	   0.000000000000000    0.000000000000000   40.000000000000000 
lattice-minimize  \
	dirUpdateScheme      L-BFGS \
	linminMethod         DirUpdateRecommended \
	nIterations          0 \
	history              15 \
	knormThreshold       0 \
	energyDiffThreshold  1e-06 \
	nEnergyDiff          2 \
	alphaTstart          1 \
	alphaTmin            1e-10 \
	updateTestStepSize   yes \
	alphaTreduceFactor   0.1 \
	alphaTincreaseFactor 3 \
	nAlphaAdjustMax      3 \
	wolfeEnergy          0.0001 \
	wolfeGradient        0.9 \
	fdTest               no
lcao-params -1 1e-06 1e-05
pcm-variant GLSSA13
spintype z-spin
subspace-rotation-factor 1 yes
symmetries automatic
symmetry-threshold 0.0001



---------- Setting up symmetries ----------

Found 24 point-group symmetries of the bravais lattice
Found 24 space-group symmetries with basis
Applied RMS atom displacement 0 bohrs to make symmetries exact.

---------- Initializing the Grid ----------
R = 
[      18.9099     -9.45497            0  ]
[            0      16.3765            0  ]
[            0            0           40  ]
unit cell volume = 12387.1
G =
[   0.332269   0.191835         -0  ]
[          0   0.383671         -0  ]
[         -0         -0    0.15708  ]
Minimum fftbox size, Smin = [  80  80  164  ]
Chosen fftbox size, S = [  80  80  168  ]

---------- Exchange Correlation functional ----------
Initalized PBE GGA exchange.
Initalized PBE GGA correlation.

---------- Setting up pseudopotentials ----------
Width of ionic core gaussian charges (only for fluid interactions / plotting) set to 0

Reading pseudopotential file '/home/gridsan/aligho/DFT/build-Nov24/pseudopotentials/SG15/Cs_ONCV_PBE.upf':
  'Cs' pseudopotential, 'PBE' functional
  Generated using ONCVPSP code by D. R. Hamann
  Author: Martin Schlipf and Francois Gygi  Date: 150915.
  9 valence electrons, 3 orbitals, 6 projectors, 2414 radial grid points, with lMax = 2
  Transforming local potential to a uniform radial grid of dG=0.02 with 1489 points.
  Transforming nonlocal projectors to a uniform radial grid of dG=0.02 with 432 points.
    5S    l: 0   occupation:  2.0   eigenvalue: -0.982388
    5P    l: 1   occupation:  6.0   eigenvalue: -0.496786
    6S    l: 0   occupation:  1.0   eigenvalue: -0.076670
  Transforming atomic orbitals to a uniform radial grid of dG=0.02 with 432 points.
  Core radius for overlap checks: 2.06 bohrs.
  Reading pulay file /home/gridsan/aligho/DFT/build-Nov24/pseudopotentials/SG15/Cs_ONCV_PBE.pulay ... using dE_dnG = -1.008762e-04 computed for Ecut = 20.

Initialized 1 species with 1 total atoms.

Folded 1 k-points by 12x12x1 to 144 k-points.

---------- Setting up k-points, bands, fillings ----------
Reduced to 19 k-points under symmetry. 
Computing the number of bands and number of electrons
Calculating initial fillings.
nElectrons:   9.000000   nBands: 6   nStates: 38

----- Setting up reduced wavefunction bases (one per k-point) -----
average nbasis = 52924.021 , ideal nbasis = 52918.836

---------- Setting up coulomb interaction ----------
Initialized slab truncation along lattice direction 001

---------- Setting up 2D ewald sum ----------
Optimum gaussian width for ewald sums = 10.498040 bohr.
Real space sums over 289 unit cells with max indices [  8  8  0  ]
Reciprocal space sums over 81 terms with max indices [  4  4  0  ]

---------- Allocating electronic variables ----------
Initializing wave functions:  linear combination of atomic orbitals
Note: number of bands (6) exceeds available atomic orbitals (5)
Cs pseudo-atom occupations:   s ( 2 1 )  p ( 6 )
[d-16-13-1:67587] 18 more processes have sent help message help-mpi-common-cuda.txt / dlopen failed
[d-16-13-1:67587] Set MCA parameter "orte_base_help_aggregate" to 0 to see all help / error messages
[d-16-13-1:67587] 18 more processes have sent help message help-mpi-btl-openib-cpc-base.txt / no cpcs for port
	FillingsUpdate:  mu: -0.077314629  nElectrons: 9.000000  magneticMoment: [ Abs: 0.40000  Tot: -0.40000 ]
LCAOMinimize: Iter:   0  F: -20.1681287761506880  |grad|_K:  6.525e-06  alpha:  1.000e+00
	FillingsUpdate:  mu: -0.077313289  nElectrons: 9.000000  magneticMoment: [ Abs: 0.40000  Tot: -0.40000 ]
LCAOMinimize: Iter:   1  F: -20.1681288049694345  |grad|_K:  3.192e-08  alpha:  9.897e-01  linmin: -1.069e-03  cgtest:  3.354e-01  t[s]:     15.16
LCAOMinimize: Encountered beta<0, resetting CG.
	FillingsUpdate:  mu: -0.077313289  nElectrons: 9.000000  magneticMoment: [ Abs: 0.40000  Tot: -0.40000 ]
LCAOMinimize: Iter:   2  F: -20.1681288049697152  |grad|_K:  4.788e-09  alpha:  8.503e-01  linmin: -3.142e-03  cgtest:  1.000e+00  t[s]:     19.24
LCAOMinimize: Encountered beta<0, resetting CG.
LCAOMinimize: Converged (|Delta F|<1.000000e-06 for 2 iters).


---- Citations for features of the code used in this run ----

   Software package:
      R. Sundararaman, K. Letchworth-Weaver, K.A. Schwarz, D. Gunceler, Y. Ozhabes and T.A. Arias, 'JDFTx: software for joint density-functional theory', SoftwareX 6, 278 (2017)

   gga-PBE exchange-correlation functional:
      J.P. Perdew, K. Burke and M. Ernzerhof, Phys. Rev. Lett. 77, 3865 (1996)

   Pseudopotentials:
      M Schlipf and F Gygi, Comput. Phys. Commun. 196, 36 (2015)

   Truncated Coulomb potentials:
      R. Sundararaman and T.A. Arias, Phys. Rev. B 87, 165122 (2013)

This list may not be complete. Please suggest additional citations or
report any other bugs at https://github.com/shankar1729/jdftx/issues

Initialization completed successfully at t[s]:     19.51


-------- Electronic minimization -----------
Will mix electronic density at each iteration.
	FillingsUpdate:  mu: -0.077313289  nElectrons: 9.000000  magneticMoment: [ Abs: 0.40000  Tot: -0.40000 ]
	FillingsUpdate:  mu: -0.077510323  nElectrons: 9.000000  magneticMoment: [ Abs: 0.40000  Tot: -0.40000 ]
SCF: Cycle:  0   F: -20.168343465510844   dF: -2.147e-04   |Residual|: 1.122e-03   |deigs|: 1.749e-01  t[s]:     27.62
	FillingsUpdate:  mu: -0.077554525  nElectrons: 9.000000  magneticMoment: [ Abs: 0.40197  Tot: -0.40000 ]
SCF: Cycle:  1   F: -20.168351268772067   dF: -7.803e-06   |Residual|: 7.377e-04   |deigs|: 4.448e-03  t[s]:     34.06
	FillingsUpdate:  mu: -0.077603859  nElectrons: 9.000000  magneticMoment: [ Abs: 0.40207  Tot: -0.40000 ]
SCF: Cycle:  2   F: -20.168353908749911   dF: -2.640e-06   |Residual|: 6.082e-04   |deigs|: 9.522e-04  t[s]:     40.60
	FillingsUpdate:  mu: -0.077701549  nElectrons: 9.000000  magneticMoment: [ Abs: 0.40319  Tot: -0.40000 ]
SCF: Cycle:  3   F: -20.168356409802346   dF: -2.501e-06   |Residual|: 4.474e-04   |deigs|: 9.133e-04  t[s]:     47.24
	FillingsUpdate:  mu: -0.077804080  nElectrons: 9.000000  magneticMoment: [ Abs: 0.40299  Tot: -0.40000 ]
SCF: Cycle:  4   F: -20.168359253316137   dF: -2.844e-06   |Residual|: 3.033e-04   |deigs|: 5.855e-04  t[s]:     54.04
	FillingsUpdate:  mu: -0.077889395  nElectrons: 9.000000  magneticMoment: [ Abs: 0.40301  Tot: -0.40000 ]
SCF: Cycle:  5   F: -20.168361130116885   dF: -1.877e-06   |Residual|: 1.934e-04   |deigs|: 3.885e-04  t[s]:     60.91
	FillingsUpdate:  mu: -0.077891788  nElectrons: 9.000000  magneticMoment: [ Abs: 0.40307  Tot: -0.40000 ]
SCF: Cycle:  6   F: -20.168362072253679   dF: -9.421e-07   |Residual|: 1.356e-04   |deigs|: 3.945e-04  t[s]:     67.92
	FillingsUpdate:  mu: -0.077880403  nElectrons: 9.000000  magneticMoment: [ Abs: 0.40285  Tot: -0.40000 ]
SCF: Cycle:  7   F: -20.168362594556505   dF: -5.223e-07   |Residual|: 1.019e-04   |deigs|: 2.935e-04  t[s]:     75.06
	FillingsUpdate:  mu: -0.077846046  nElectrons: 9.000000  magneticMoment: [ Abs: 0.40275  Tot: -0.40000 ]
SCF: Cycle:  8   F: -20.168362951794652   dF: -3.572e-07   |Residual|: 7.919e-05   |deigs|: 2.955e-04  t[s]:     82.28
	FillingsUpdate:  mu: -0.077793304  nElectrons: 9.000000  magneticMoment: [ Abs: 0.40266  Tot: -0.40000 ]
SCF: Cycle:  9   F: -20.168363036100409   dF: -8.431e-08   |Residual|: 6.653e-05   |deigs|: 3.459e-04  t[s]:     89.58
	FillingsUpdate:  mu: -0.077747110  nElectrons: 9.000000  magneticMoment: [ Abs: 0.40282  Tot: -0.40000 ]
SCF: Cycle: 10   F: -20.168363041886852   dF: -5.786e-09   |Residual|: 5.777e-05   |deigs|: 3.787e-04  t[s]:     97.01
	FillingsUpdate:  mu: -0.077697643  nElectrons: 9.000000  magneticMoment: [ Abs: 0.40300  Tot: -0.40000 ]
SCF: Cycle: 11   F: -20.168363036559750   dF: +5.327e-09   |Residual|: 5.594e-05   |deigs|: 1.852e-04  t[s]:    104.51
	FillingsUpdate:  mu: -0.077632361  nElectrons: 9.000000  magneticMoment: [ Abs: 0.40297  Tot: -0.40000 ]
SCF: Cycle: 12   F: -20.168362683547286   dF: +3.530e-07   |Residual|: 5.132e-05   |deigs|: 1.994e-04  t[s]:    111.99
	FillingsUpdate:  mu: -0.077563537  nElectrons: 9.000000  magneticMoment: [ Abs: 0.40311  Tot: -0.40000 ]
SCF: Cycle: 13   F: -20.168362885370374   dF: -2.018e-07   |Residual|: 4.457e-05   |deigs|: 3.187e-04  t[s]:    119.36
	FillingsUpdate:  mu: -0.077522975  nElectrons: 9.000000  magneticMoment: [ Abs: 0.40315  Tot: -0.40000 ]
SCF: Cycle: 14   F: -20.168363058660095   dF: -1.733e-07   |Residual|: 3.951e-05   |deigs|: 1.692e-04  t[s]:    126.87
	FillingsUpdate:  mu: -0.077476529  nElectrons: 9.000000  magneticMoment: [ Abs: 0.40296  Tot: -0.40000 ]
SCF: Cycle: 15   F: -20.168363055731660   dF: +2.928e-09   |Residual|: 3.670e-05   |deigs|: 1.299e-04  t[s]:    134.36
	FillingsUpdate:  mu: -0.077416988  nElectrons: 9.000000  magneticMoment: [ Abs: 0.40281  Tot: -0.40000 ]
SCF: Cycle: 16   F: -20.168362965441194   dF: +9.029e-08   |Residual|: 3.410e-05   |deigs|: 1.031e-04  t[s]:    141.80
	FillingsUpdate:  mu: -0.077399272  nElectrons: 9.000000  magneticMoment: [ Abs: 0.40276  Tot: -0.40000 ]
SCF: Cycle: 17   F: -20.168363191892727   dF: -2.265e-07   |Residual|: 2.518e-05   |deigs|: 5.343e-05  t[s]:    149.27
	FillingsUpdate:  mu: -0.077394583  nElectrons: 9.000000  magneticMoment: [ Abs: 0.40264  Tot: -0.40000 ]
SCF: Cycle: 18   F: -20.168363175501266   dF: +1.639e-08   |Residual|: 2.037e-05   |deigs|: 3.417e-05  t[s]:    156.64
	FillingsUpdate:  mu: -0.077384397  nElectrons: 9.000000  magneticMoment: [ Abs: 0.40264  Tot: -0.40000 ]
SCF: Cycle: 19   F: -20.168363258463263   dF: -8.296e-08   |Residual|: 1.655e-05   |deigs|: 2.228e-05  t[s]:    164.08
	FillingsUpdate:  mu: -0.077377694  nElectrons: 9.000000  magneticMoment: [ Abs: 0.40265  Tot: -0.40000 ]
SCF: Cycle: 20   F: -20.168363277886058   dF: -1.942e-08   |Residual|: 1.220e-05   |deigs|: 1.665e-05  t[s]:    171.51
	FillingsUpdate:  mu: -0.077379179  nElectrons: 9.000000  magneticMoment: [ Abs: 0.40266  Tot: -0.40000 ]
SCF: Cycle: 21   F: -20.168363308252001   dF: -3.037e-08   |Residual|: 8.561e-06   |deigs|: 1.571e-05  t[s]:    178.92
	FillingsUpdate:  mu: -0.077379276  nElectrons: 9.000000  magneticMoment: [ Abs: 0.40267  Tot: -0.40000 ]
SCF: Cycle: 22   F: -20.168363310671868   dF: -2.420e-09   |Residual|: 5.653e-06   |deigs|: 1.496e-05  t[s]:    186.39
	FillingsUpdate:  mu: -0.077379917  nElectrons: 9.000000  magneticMoment: [ Abs: 0.40268  Tot: -0.40000 ]
SCF: Cycle: 23   F: -20.168363317397400   dF: -6.726e-09   |Residual|: 3.730e-06   |deigs|: 1.808e-05  t[s]:    193.86
SCF: Converged (|Delta E|<1.000000e-08 for 2 iters).


# Ionic positions in lattice coordinates:
ion Cs   0.000000000000000   0.000000000000000   0.000000000000000 0

# Forces in Lattice coordinates:
force Cs  -0.000000000000000  -0.000000000000000   0.000000000000000 0

# Energy components:
   Eewald =       -9.0240130501663280
       EH =        7.0089508901514179
     Eloc =      -23.5935565651599362
      Enl =        3.4367738801365002
   Epulay =        0.0000000422266766
      Exc =       -3.1062166343264672
       KE =        5.1096989941062390
-------------------------------------
     Etot =      -20.1683624430318993
       TS =        0.0000008743655005
-------------------------------------
        F =      -20.1683633173974002

IonicMinimize: Iter:   0  F: -20.168363317397400  |grad|_K:  0.000e+00  t[s]:    194.29
IonicMinimize: Converged (|grad|_K<1.000000e-04).

#--- Lowdin population analysis ---
# oxidation-state Cs +0.005
# magnetic-moments Cs -0.398

End date and time: Sun Feb  6 13:22:00 2022  (Duration: 0-0:03:14.35)
Done!
