The alkali metal is Cs
scale=2
magnetization=0.48
--------------------------------------------------------------------------
The library attempted to open the following supporting CUDA libraries,
but each of them failed.  CUDA-aware support is disabled.
libcuda.so.1: cannot open shared object file: No such file or directory
libcuda.dylib: cannot open shared object file: No such file or directory
/usr/lib64/libcuda.so.1: cannot open shared object file: No such file or directory
/usr/lib64/libcuda.dylib: cannot open shared object file: No such file or directory
If you are not interested in CUDA-aware support, then run with
--mca opal_warn_on_missing_libcuda 0 to suppress this message.  If you are interested
in CUDA-aware support, then try setting LD_LIBRARY_PATH to the location
of libcuda.so.1 to get passed this issue.
--------------------------------------------------------------------------
--------------------------------------------------------------------------
No OpenFabrics connection schemes reported that they were able to be
used on a specific port.  As such, the openib BTL (OpenFabrics
support) will be disabled for this port.

  Local host:           d-3-4-3
  Local device:         mlx5_1
  Local port:           1
  CPCs attempted:       rdmacm, udcm
--------------------------------------------------------------------------

*************** JDFTx 1.6.0 (git hash 42ebbcc2) ***************

Start date and time: Sun Feb  6 13:29:07 2022
Executable jdftx with command-line: -i Alkali.in
Running on hosts (process indices):  d-3-4-3 (0-18)
Divided in process groups (process indices):  0 (0)  1 (1)  2 (2)  3 (3)  4 (4)  5 (5)  6 (6)  7 (7)  8 (8)  9 (9)  10 (10)  11 (11)  12 (12)  13 (13)  14 (14)  15 (15)  16 (16)  17 (17)  18 (18)
Resource initialization completed at t[s]:      0.00
Run totals: 19 processes, 48 threads, 0 GPUs


Input parsed successfully to the following command list (including defaults):

basis kpoint-dependent
coords-type Lattice
core-overlap-check vector
coulomb-interaction Slab 001
davidson-band-ratio 1.1
dump End None
dump-name $INPUT.$VAR
elec-cutoff 20
elec-eigen-algo Davidson
elec-ex-corr gga-PBE
elec-initial-magnetization 0.480000 yes
elec-smearing Fermi 1e-05
electronic-minimize  \
	dirUpdateScheme      FletcherReeves \
	linminMethod         DirUpdateRecommended \
	nIterations          100 \
	history              15 \
	knormThreshold       0 \
	energyDiffThreshold  1e-08 \
	nEnergyDiff          2 \
	alphaTstart          1 \
	alphaTmin            1e-10 \
	updateTestStepSize   yes \
	alphaTreduceFactor   0.1 \
	alphaTincreaseFactor 3 \
	nAlphaAdjustMax      3 \
	wolfeEnergy          0.0001 \
	wolfeGradient        0.9 \
	fdTest               no
electronic-scf  \
	nIterations	10000 \
	energyDiffThreshold	1e-08 \
	residualThreshold	1e-07 \
	mixFraction	0.5 \
	qMetric	0.8 \
	history	10 \
	nEigSteps	2 \
	eigDiffThreshold	1e-08 \
	mixedVariable	Density \
	qKerker	0.8 \
	qKappa	-1 \
	verbose	no \
	mixFractionMag	1.5
exchange-regularization WignerSeitzTruncated
fluid None
fluid-ex-corr (null) lda-PZ
fluid-gummel-loop 10 1.000000e-05
fluid-minimize  \
	dirUpdateScheme      PolakRibiere \
	linminMethod         DirUpdateRecommended \
	nIterations          100 \
	history              15 \
	knormThreshold       0 \
	energyDiffThreshold  0 \
	nEnergyDiff          2 \
	alphaTstart          1 \
	alphaTmin            1e-10 \
	updateTestStepSize   yes \
	alphaTreduceFactor   0.1 \
	alphaTincreaseFactor 3 \
	nAlphaAdjustMax      3 \
	wolfeEnergy          0.0001 \
	wolfeGradient        0.9 \
	fdTest               no
fluid-solvent H2O 55.338 ScalarEOS \
	epsBulk 78.4 \
	pMol 0.92466 \
	epsInf 1.77 \
	Pvap 1.06736e-10 \
	sigmaBulk 4.62e-05 \
	Rvdw 2.61727 \
	Res 1.42 \
	tauNuc 343133 \
	poleEl 15 7 1
forces-output-coords Positions
ion Cs   0.000000000000000   0.000000000000000   0.000000000000000 0
ion-species SG15/$ID_ONCV_PBE.upf
ion-width 0
ionic-minimize  \
	dirUpdateScheme      L-BFGS \
	linminMethod         DirUpdateRecommended \
	nIterations          0 \
	history              15 \
	knormThreshold       0.0001 \
	energyDiffThreshold  1e-06 \
	nEnergyDiff          2 \
	alphaTstart          1 \
	alphaTmin            1e-10 \
	updateTestStepSize   yes \
	alphaTreduceFactor   0.1 \
	alphaTincreaseFactor 3 \
	nAlphaAdjustMax      3 \
	wolfeEnergy          0.0001 \
	wolfeGradient        0.9 \
	fdTest               no
kpoint   0.000000000000   0.000000000000   0.000000000000  1.00000000000000
kpoint-folding 12 12 1 
latt-move-scale 1 1 1
latt-scale 2 2 1 
lattice  \
	   4.727486978767153   -2.363743489383575    0.000000000000000  \
	  -0.000000000000000    4.094123819672498    0.000000000000000  \
	   0.000000000000000    0.000000000000000   40.000000000000000 
lattice-minimize  \
	dirUpdateScheme      L-BFGS \
	linminMethod         DirUpdateRecommended \
	nIterations          0 \
	history              15 \
	knormThreshold       0 \
	energyDiffThreshold  1e-06 \
	nEnergyDiff          2 \
	alphaTstart          1 \
	alphaTmin            1e-10 \
	updateTestStepSize   yes \
	alphaTreduceFactor   0.1 \
	alphaTincreaseFactor 3 \
	nAlphaAdjustMax      3 \
	wolfeEnergy          0.0001 \
	wolfeGradient        0.9 \
	fdTest               no
lcao-params -1 1e-06 1e-05
pcm-variant GLSSA13
spintype z-spin
subspace-rotation-factor 1 yes
symmetries automatic
symmetry-threshold 0.0001



---------- Setting up symmetries ----------

Found 24 point-group symmetries of the bravais lattice
Found 24 space-group symmetries with basis
Applied RMS atom displacement 0 bohrs to make symmetries exact.

---------- Initializing the Grid ----------
R = 
[      9.45497     -4.72749            0  ]
[            0      8.18825            0  ]
[            0            0           40  ]
unit cell volume = 3096.79
G =
[   0.664538   0.383671         -0  ]
[          0   0.767342         -0  ]
[         -0         -0    0.15708  ]
Minimum fftbox size, Smin = [  40  40  164  ]
Chosen fftbox size, S = [  40  40  168  ]

---------- Exchange Correlation functional ----------
Initalized PBE GGA exchange.
Initalized PBE GGA correlation.

---------- Setting up pseudopotentials ----------
Width of ionic core gaussian charges (only for fluid interactions / plotting) set to 0

Reading pseudopotential file '/home/gridsan/aligho/DFT/build-Nov24/pseudopotentials/SG15/Cs_ONCV_PBE.upf':
  'Cs' pseudopotential, 'PBE' functional
  Generated using ONCVPSP code by D. R. Hamann
  Author: Martin Schlipf and Francois Gygi  Date: 150915.
  9 valence electrons, 3 orbitals, 6 projectors, 2414 radial grid points, with lMax = 2
  Transforming local potential to a uniform radial grid of dG=0.02 with 1489 points.
  Transforming nonlocal projectors to a uniform radial grid of dG=0.02 with 432 points.
    5S    l: 0   occupation:  2.0   eigenvalue: -0.982388
    5P    l: 1   occupation:  6.0   eigenvalue: -0.496786
    6S    l: 0   occupation:  1.0   eigenvalue: -0.076670
  Transforming atomic orbitals to a uniform radial grid of dG=0.02 with 432 points.
  Core radius for overlap checks: 2.06 bohrs.
  Reading pulay file /home/gridsan/aligho/DFT/build-Nov24/pseudopotentials/SG15/Cs_ONCV_PBE.pulay ... using dE_dnG = -1.008762e-04 computed for Ecut = 20.

Initialized 1 species with 1 total atoms.

Folded 1 k-points by 12x12x1 to 144 k-points.

---------- Setting up k-points, bands, fillings ----------
Reduced to 19 k-points under symmetry. 
Computing the number of bands and number of electrons
Calculating initial fillings.
nElectrons:   9.000000   nBands: 6   nStates: 38

----- Setting up reduced wavefunction bases (one per k-point) -----
average nbasis = 13230.521 , ideal nbasis = 13229.709

---------- Setting up coulomb interaction ----------
Initialized slab truncation along lattice direction 001

---------- Setting up 2D ewald sum ----------
Optimum gaussian width for ewald sums = 5.249020 bohr.
Real space sums over 289 unit cells with max indices [  8  8  0  ]
Reciprocal space sums over 81 terms with max indices [  4  4  0  ]

---------- Allocating electronic variables ----------
Initializing wave functions:  linear combination of atomic orbitals
Note: number of bands (6) exceeds available atomic orbitals (5)
Cs pseudo-atom occupations:   s ( 2 1 )  p ( 6 )
	FillingsUpdate:  mu: -0.089177106  nElectrons: 9.000000  magneticMoment: [ Abs: 0.48000  Tot: +0.48000 ]
LCAOMinimize: Iter:   0  F: -20.1770212653440595  |grad|_K:  3.215e-05  alpha:  1.000e+00
	FillingsUpdate:  mu: -0.089161707  nElectrons: 9.000000  magneticMoment: [ Abs: 0.48000  Tot: +0.48000 ]
LCAOMinimize: Iter:   1  F: -20.1770219575190346  |grad|_K:  3.291e-07  alpha:  9.789e-01  linmin: -3.278e-02  cgtest:  2.768e-01  t[s]:      4.49
LCAOMinimize: Encountered beta<0, resetting CG.
[d-3-4-3:88610] 18 more processes have sent help message help-mpi-common-cuda.txt / dlopen failed
[d-3-4-3:88610] Set MCA parameter "orte_base_help_aggregate" to 0 to see all help / error messages
[d-3-4-3:88610] 18 more processes have sent help message help-mpi-btl-openib-cpc-base.txt / no cpcs for port
	FillingsUpdate:  mu: -0.089161806  nElectrons: 9.000000  magneticMoment: [ Abs: 0.48000  Tot: +0.48000 ]
LCAOMinimize: Iter:   2  F: -20.1770219575927818  |grad|_K:  1.864e-09  alpha:  1.004e+00  linmin:  7.958e-02  cgtest: -5.916e-01  t[s]:      5.74
LCAOMinimize: Converged (|Delta F|<1.000000e-06 for 2 iters).


---- Citations for features of the code used in this run ----

   Software package:
      R. Sundararaman, K. Letchworth-Weaver, K.A. Schwarz, D. Gunceler, Y. Ozhabes and T.A. Arias, 'JDFTx: software for joint density-functional theory', SoftwareX 6, 278 (2017)

   gga-PBE exchange-correlation functional:
      J.P. Perdew, K. Burke and M. Ernzerhof, Phys. Rev. Lett. 77, 3865 (1996)

   Pseudopotentials:
      M Schlipf and F Gygi, Comput. Phys. Commun. 196, 36 (2015)

   Truncated Coulomb potentials:
      R. Sundararaman and T.A. Arias, Phys. Rev. B 87, 165122 (2013)

This list may not be complete. Please suggest additional citations or
report any other bugs at https://github.com/shankar1729/jdftx/issues

Initialization completed successfully at t[s]:      5.83


-------- Electronic minimization -----------
Will mix electronic density at each iteration.
	FillingsUpdate:  mu: -0.089161806  nElectrons: 9.000000  magneticMoment: [ Abs: 0.48000  Tot: +0.48000 ]
	FillingsUpdate:  mu: -0.101425168  nElectrons: 9.000000  magneticMoment: [ Abs: 0.48000  Tot: +0.48000 ]
SCF: Cycle:  0   F: -20.184543426130816   dF: -7.521e-03   |Residual|: 1.491e-02   |deigs|: 1.880e-01  t[s]:      8.16
	FillingsUpdate:  mu: -0.101452032  nElectrons: 9.000000  magneticMoment: [ Abs: 0.48000  Tot: +0.48000 ]
SCF: Cycle:  1   F: -20.185262665936783   dF: -7.192e-04   |Residual|: 1.156e-02   |deigs|: 5.333e-03  t[s]:      9.98
	FillingsUpdate:  mu: -0.098659498  nElectrons: 9.000000  magneticMoment: [ Abs: 0.48823  Tot: +0.48000 ]
SCF: Cycle:  2   F: -20.185627102421265   dF: -3.644e-04   |Residual|: 5.937e-03   |deigs|: 2.382e-03  t[s]:     11.83
	FillingsUpdate:  mu: -0.096781962  nElectrons: 9.000000  magneticMoment: [ Abs: 0.48000  Tot: +0.48000 ]
SCF: Cycle:  3   F: -20.185800283026438   dF: -1.732e-04   |Residual|: 3.927e-03   |deigs|: 2.872e-03  t[s]:     13.65
	FillingsUpdate:  mu: -0.094315601  nElectrons: 9.000000  magneticMoment: [ Abs: 0.48015  Tot: +0.48000 ]
SCF: Cycle:  4   F: -20.185882636364827   dF: -8.235e-05   |Residual|: 2.941e-03   |deigs|: 3.113e-03  t[s]:     15.62
	FillingsUpdate:  mu: -0.091624641  nElectrons: 9.000000  magneticMoment: [ Abs: 0.48554  Tot: +0.48000 ]
SCF: Cycle:  5   F: -20.185929643529018   dF: -4.701e-05   |Residual|: 2.555e-03   |deigs|: 3.375e-03  t[s]:     17.57
	FillingsUpdate:  mu: -0.088868451  nElectrons: 9.000000  magneticMoment: [ Abs: 0.49388  Tot: +0.48000 ]
SCF: Cycle:  6   F: -20.185932576408312   dF: -2.933e-06   |Residual|: 1.771e-03   |deigs|: 3.366e-03  t[s]:     19.51
	FillingsUpdate:  mu: -0.086305386  nElectrons: 9.000000  magneticMoment: [ Abs: 0.49195  Tot: +0.48000 ]
SCF: Cycle:  7   F: -20.185974262379993   dF: -4.169e-05   |Residual|: 1.465e-03   |deigs|: 2.799e-03  t[s]:     21.46
	FillingsUpdate:  mu: -0.085873447  nElectrons: 9.000000  magneticMoment: [ Abs: 0.48300  Tot: +0.48000 ]
SCF: Cycle:  8   F: -20.186006828140084   dF: -3.257e-05   |Residual|: 1.261e-03   |deigs|: 8.095e-04  t[s]:     23.44
	FillingsUpdate:  mu: -0.084074679  nElectrons: 9.000000  magneticMoment: [ Abs: 0.48456  Tot: +0.48000 ]
SCF: Cycle:  9   F: -20.185995426161846   dF: +1.140e-05   |Residual|: 1.044e-03   |deigs|: 1.915e-03  t[s]:     25.47
	FillingsUpdate:  mu: -0.081963109  nElectrons: 9.000000  magneticMoment: [ Abs: 0.48691  Tot: +0.48000 ]
SCF: Cycle: 10   F: -20.185990801349853   dF: +4.625e-06   |Residual|: 8.633e-04   |deigs|: 2.262e-03  t[s]:     27.47
	FillingsUpdate:  mu: -0.080613107  nElectrons: 9.000000  magneticMoment: [ Abs: 0.48604  Tot: +0.48000 ]
SCF: Cycle: 11   F: -20.186008215712949   dF: -1.741e-05   |Residual|: 7.861e-04   |deigs|: 1.441e-03  t[s]:     29.49
	FillingsUpdate:  mu: -0.079235625  nElectrons: 9.000000  magneticMoment: [ Abs: 0.48675  Tot: +0.48000 ]
SCF: Cycle: 12   F: -20.186034659465371   dF: -2.644e-05   |Residual|: 7.505e-04   |deigs|: 1.350e-03  t[s]:     31.50
	FillingsUpdate:  mu: -0.077228525  nElectrons: 9.000000  magneticMoment: [ Abs: 0.48664  Tot: +0.48000 ]
SCF: Cycle: 13   F: -20.186046715257948   dF: -1.206e-05   |Residual|: 6.849e-04   |deigs|: 2.062e-03  t[s]:     33.48
	FillingsUpdate:  mu: -0.075091109  nElectrons: 9.000000  magneticMoment: [ Abs: 0.48325  Tot: +0.48000 ]
SCF: Cycle: 14   F: -20.186056118980954   dF: -9.404e-06   |Residual|: 5.770e-04   |deigs|: 2.250e-03  t[s]:     35.47
	FillingsUpdate:  mu: -0.074016876  nElectrons: 9.000000  magneticMoment: [ Abs: 0.48124  Tot: +0.48000 ]
SCF: Cycle: 15   F: -20.186064093492583   dF: -7.975e-06   |Residual|: 4.092e-04   |deigs|: 1.231e-03  t[s]:     37.49
	FillingsUpdate:  mu: -0.073221428  nElectrons: 9.000000  magneticMoment: [ Abs: 0.48098  Tot: +0.48000 ]
SCF: Cycle: 16   F: -20.186068034950715   dF: -3.941e-06   |Residual|: 2.995e-04   |deigs|: 1.238e-03  t[s]:     39.46
	FillingsUpdate:  mu: -0.073005824  nElectrons: 9.000000  magneticMoment: [ Abs: 0.48025  Tot: +0.48000 ]
SCF: Cycle: 17   F: -20.186070266164634   dF: -2.231e-06   |Residual|: 1.997e-04   |deigs|: 1.057e-03  t[s]:     41.50
	FillingsUpdate:  mu: -0.073189167  nElectrons: 9.000000  magneticMoment: [ Abs: 0.48080  Tot: +0.48000 ]
SCF: Cycle: 18   F: -20.186071063932250   dF: -7.978e-07   |Residual|: 1.208e-04   |deigs|: 5.463e-04  t[s]:     43.51
	FillingsUpdate:  mu: -0.073228705  nElectrons: 9.000000  magneticMoment: [ Abs: 0.48044  Tot: +0.48000 ]
SCF: Cycle: 19   F: -20.186071508174102   dF: -4.442e-07   |Residual|: 5.716e-05   |deigs|: 2.904e-04  t[s]:     45.55
	FillingsUpdate:  mu: -0.073275336  nElectrons: 9.000000  magneticMoment: [ Abs: 0.48030  Tot: +0.48000 ]
SCF: Cycle: 20   F: -20.186071667244597   dF: -1.591e-07   |Residual|: 3.279e-05   |deigs|: 2.230e-04  t[s]:     47.55
	FillingsUpdate:  mu: -0.073256796  nElectrons: 9.000000  magneticMoment: [ Abs: 0.48024  Tot: +0.48000 ]
SCF: Cycle: 21   F: -20.186071735923477   dF: -6.868e-08   |Residual|: 1.974e-05   |deigs|: 3.507e-04  t[s]:     49.54
	FillingsUpdate:  mu: -0.073276586  nElectrons: 9.000000  magneticMoment: [ Abs: 0.48027  Tot: +0.48000 ]
SCF: Cycle: 22   F: -20.186071773059375   dF: -3.714e-08   |Residual|: 1.300e-05   |deigs|: 1.219e-04  t[s]:     51.53
	FillingsUpdate:  mu: -0.073288093  nElectrons: 9.000000  magneticMoment: [ Abs: 0.48029  Tot: +0.48000 ]
SCF: Cycle: 23   F: -20.186071790366590   dF: -1.731e-08   |Residual|: 8.891e-06   |deigs|: 1.590e-04  t[s]:     53.56
	FillingsUpdate:  mu: -0.073289070  nElectrons: 9.000000  magneticMoment: [ Abs: 0.48030  Tot: +0.48000 ]
SCF: Cycle: 24   F: -20.186071803004584   dF: -1.264e-08   |Residual|: 6.020e-06   |deigs|: 1.589e-04  t[s]:     55.55
	FillingsUpdate:  mu: -0.073282211  nElectrons: 9.000000  magneticMoment: [ Abs: 0.48029  Tot: +0.48000 ]
SCF: Cycle: 25   F: -20.186071810192420   dF: -7.188e-09   |Residual|: 5.020e-06   |deigs|: 2.010e-04  t[s]:     57.56
	FillingsUpdate:  mu: -0.073276040  nElectrons: 9.000000  magneticMoment: [ Abs: 0.48029  Tot: +0.48000 ]
SCF: Cycle: 26   F: -20.186071814546878   dF: -4.354e-09   |Residual|: 4.188e-06   |deigs|: 2.639e-04  t[s]:     59.56
SCF: Converged (|Delta E|<1.000000e-08 for 2 iters).


# Ionic positions in lattice coordinates:
ion Cs   0.000000000000000   0.000000000000000   0.000000000000000 0

# Forces in Lattice coordinates:
force Cs  -0.000000000000000  -0.000000000000000   0.000000000000000 0

# Energy components:
   Eewald =      -18.0480261003326561
       EH =       -1.7958466918061988
     Eloc =       -5.7854160460621049
      Enl =        3.4398975277354675
   Epulay =        0.0000000264484078
      Exc =       -3.1473848873498844
       KE =        5.1507046232113378
-------------------------------------
     Etot =      -20.1860715481556241
       TS =        0.0000002663912536
-------------------------------------
        F =      -20.1860718145468780

IonicMinimize: Iter:   0  F: -20.186071814546878  |grad|_K:  0.000e+00  t[s]:     59.70
IonicMinimize: Converged (|grad|_K<1.000000e-04).

#--- Lowdin population analysis ---
# oxidation-state Cs +0.082
# magnetic-moments Cs +0.409

End date and time: Sun Feb  6 13:30:07 2022  (Duration: 0-0:00:59.73)
Done!
scale=3
magnetization=0.48
--------------------------------------------------------------------------
The library attempted to open the following supporting CUDA libraries,
but each of them failed.  CUDA-aware support is disabled.
libcuda.so.1: cannot open shared object file: No such file or directory
libcuda.dylib: cannot open shared object file: No such file or directory
/usr/lib64/libcuda.so.1: cannot open shared object file: No such file or directory
/usr/lib64/libcuda.dylib: cannot open shared object file: No such file or directory
If you are not interested in CUDA-aware support, then run with
--mca opal_warn_on_missing_libcuda 0 to suppress this message.  If you are interested
in CUDA-aware support, then try setting LD_LIBRARY_PATH to the location
of libcuda.so.1 to get passed this issue.
--------------------------------------------------------------------------
--------------------------------------------------------------------------
No OpenFabrics connection schemes reported that they were able to be
used on a specific port.  As such, the openib BTL (OpenFabrics
support) will be disabled for this port.

  Local host:           d-3-4-3
  Local device:         mlx5_1
  Local port:           1
  CPCs attempted:       rdmacm, udcm
--------------------------------------------------------------------------

*************** JDFTx 1.6.0 (git hash 42ebbcc2) ***************

Start date and time: Sun Feb  6 13:30:08 2022
Executable jdftx with command-line: -i Alkali.in
Running on hosts (process indices):  d-3-4-3 (0-18)
Divided in process groups (process indices):  0 (0)  1 (1)  2 (2)  3 (3)  4 (4)  5 (5)  6 (6)  7 (7)  8 (8)  9 (9)  10 (10)  11 (11)  12 (12)  13 (13)  14 (14)  15 (15)  16 (16)  17 (17)  18 (18)
Resource initialization completed at t[s]:      0.00
Run totals: 19 processes, 48 threads, 0 GPUs


Input parsed successfully to the following command list (including defaults):

basis kpoint-dependent
coords-type Lattice
core-overlap-check vector
coulomb-interaction Slab 001
davidson-band-ratio 1.1
dump End None
dump-name $INPUT.$VAR
elec-cutoff 20
elec-eigen-algo Davidson
elec-ex-corr gga-PBE
elec-initial-magnetization 0.480000 yes
elec-smearing Fermi 1e-05
electronic-minimize  \
	dirUpdateScheme      FletcherReeves \
	linminMethod         DirUpdateRecommended \
	nIterations          100 \
	history              15 \
	knormThreshold       0 \
	energyDiffThreshold  1e-08 \
	nEnergyDiff          2 \
	alphaTstart          1 \
	alphaTmin            1e-10 \
	updateTestStepSize   yes \
	alphaTreduceFactor   0.1 \
	alphaTincreaseFactor 3 \
	nAlphaAdjustMax      3 \
	wolfeEnergy          0.0001 \
	wolfeGradient        0.9 \
	fdTest               no
electronic-scf  \
	nIterations	10000 \
	energyDiffThreshold	1e-08 \
	residualThreshold	1e-07 \
	mixFraction	0.5 \
	qMetric	0.8 \
	history	10 \
	nEigSteps	2 \
	eigDiffThreshold	1e-08 \
	mixedVariable	Density \
	qKerker	0.8 \
	qKappa	-1 \
	verbose	no \
	mixFractionMag	1.5
exchange-regularization WignerSeitzTruncated
fluid None
fluid-ex-corr (null) lda-PZ
fluid-gummel-loop 10 1.000000e-05
fluid-minimize  \
	dirUpdateScheme      PolakRibiere \
	linminMethod         DirUpdateRecommended \
	nIterations          100 \
	history              15 \
	knormThreshold       0 \
	energyDiffThreshold  0 \
	nEnergyDiff          2 \
	alphaTstart          1 \
	alphaTmin            1e-10 \
	updateTestStepSize   yes \
	alphaTreduceFactor   0.1 \
	alphaTincreaseFactor 3 \
	nAlphaAdjustMax      3 \
	wolfeEnergy          0.0001 \
	wolfeGradient        0.9 \
	fdTest               no
fluid-solvent H2O 55.338 ScalarEOS \
	epsBulk 78.4 \
	pMol 0.92466 \
	epsInf 1.77 \
	Pvap 1.06736e-10 \
	sigmaBulk 4.62e-05 \
	Rvdw 2.61727 \
	Res 1.42 \
	tauNuc 343133 \
	poleEl 15 7 1
forces-output-coords Positions
ion Cs   0.000000000000000   0.000000000000000   0.000000000000000 0
ion-species SG15/$ID_ONCV_PBE.upf
ion-width 0
ionic-minimize  \
	dirUpdateScheme      L-BFGS \
	linminMethod         DirUpdateRecommended \
	nIterations          0 \
	history              15 \
	knormThreshold       0.0001 \
	energyDiffThreshold  1e-06 \
	nEnergyDiff          2 \
	alphaTstart          1 \
	alphaTmin            1e-10 \
	updateTestStepSize   yes \
	alphaTreduceFactor   0.1 \
	alphaTincreaseFactor 3 \
	nAlphaAdjustMax      3 \
	wolfeEnergy          0.0001 \
	wolfeGradient        0.9 \
	fdTest               no
kpoint   0.000000000000   0.000000000000   0.000000000000  1.00000000000000
kpoint-folding 12 12 1 
latt-move-scale 1 1 1
latt-scale 3 3 1 
lattice  \
	   4.727486978767153   -2.363743489383575    0.000000000000000  \
	  -0.000000000000000    4.094123819672498    0.000000000000000  \
	   0.000000000000000    0.000000000000000   40.000000000000000 
lattice-minimize  \
	dirUpdateScheme      L-BFGS \
	linminMethod         DirUpdateRecommended \
	nIterations          0 \
	history              15 \
	knormThreshold       0 \
	energyDiffThreshold  1e-06 \
	nEnergyDiff          2 \
	alphaTstart          1 \
	alphaTmin            1e-10 \
	updateTestStepSize   yes \
	alphaTreduceFactor   0.1 \
	alphaTincreaseFactor 3 \
	nAlphaAdjustMax      3 \
	wolfeEnergy          0.0001 \
	wolfeGradient        0.9 \
	fdTest               no
lcao-params -1 1e-06 1e-05
pcm-variant GLSSA13
spintype z-spin
subspace-rotation-factor 1 yes
symmetries automatic
symmetry-threshold 0.0001



---------- Setting up symmetries ----------

Found 24 point-group symmetries of the bravais lattice
Found 24 space-group symmetries with basis
Applied RMS atom displacement 0 bohrs to make symmetries exact.

---------- Initializing the Grid ----------
R = 
[      14.1825     -7.09123            0  ]
[            0      12.2824            0  ]
[            0            0           40  ]
unit cell volume = 6967.77
G =
[   0.443025   0.255781         -0  ]
[          0   0.511561         -0  ]
[         -0         -0    0.15708  ]
Minimum fftbox size, Smin = [  60  60  164  ]
Chosen fftbox size, S = [  60  60  168  ]

---------- Exchange Correlation functional ----------
Initalized PBE GGA exchange.
Initalized PBE GGA correlation.

---------- Setting up pseudopotentials ----------
Width of ionic core gaussian charges (only for fluid interactions / plotting) set to 0

Reading pseudopotential file '/home/gridsan/aligho/DFT/build-Nov24/pseudopotentials/SG15/Cs_ONCV_PBE.upf':
  'Cs' pseudopotential, 'PBE' functional
  Generated using ONCVPSP code by D. R. Hamann
  Author: Martin Schlipf and Francois Gygi  Date: 150915.
  9 valence electrons, 3 orbitals, 6 projectors, 2414 radial grid points, with lMax = 2
  Transforming local potential to a uniform radial grid of dG=0.02 with 1489 points.
  Transforming nonlocal projectors to a uniform radial grid of dG=0.02 with 432 points.
    5S    l: 0   occupation:  2.0   eigenvalue: -0.982388
    5P    l: 1   occupation:  6.0   eigenvalue: -0.496786
    6S    l: 0   occupation:  1.0   eigenvalue: -0.076670
  Transforming atomic orbitals to a uniform radial grid of dG=0.02 with 432 points.
  Core radius for overlap checks: 2.06 bohrs.
  Reading pulay file /home/gridsan/aligho/DFT/build-Nov24/pseudopotentials/SG15/Cs_ONCV_PBE.pulay ... using dE_dnG = -1.008762e-04 computed for Ecut = 20.

Initialized 1 species with 1 total atoms.

Folded 1 k-points by 12x12x1 to 144 k-points.

---------- Setting up k-points, bands, fillings ----------
Reduced to 19 k-points under symmetry. 
Computing the number of bands and number of electrons
Calculating initial fillings.
nElectrons:   9.000000   nBands: 6   nStates: 38

----- Setting up reduced wavefunction bases (one per k-point) -----
average nbasis = 29766.104 , ideal nbasis = 29766.845

---------- Setting up coulomb interaction ----------
Initialized slab truncation along lattice direction 001

---------- Setting up 2D ewald sum ----------
Optimum gaussian width for ewald sums = 7.873530 bohr.
Real space sums over 289 unit cells with max indices [  8  8  0  ]
Reciprocal space sums over 81 terms with max indices [  4  4  0  ]

---------- Allocating electronic variables ----------
Initializing wave functions:  linear combination of atomic orbitals
Note: number of bands (6) exceeds available atomic orbitals (5)
Cs pseudo-atom occupations:   s ( 2 1 )  p ( 6 )
[d-3-4-3:54961] 18 more processes have sent help message help-mpi-common-cuda.txt / dlopen failed
[d-3-4-3:54961] Set MCA parameter "orte_base_help_aggregate" to 0 to see all help / error messages
[d-3-4-3:54961] 18 more processes have sent help message help-mpi-btl-openib-cpc-base.txt / no cpcs for port
	FillingsUpdate:  mu: -0.079195538  nElectrons: 9.000000  magneticMoment: [ Abs: 0.48000  Tot: +0.48000 ]
LCAOMinimize: Iter:   0  F: -20.1739507814851891  |grad|_K:  1.908e-05  alpha:  1.000e+00
	FillingsUpdate:  mu: -0.079191614  nElectrons: 9.000000  magneticMoment: [ Abs: 0.48000  Tot: +0.48000 ]
LCAOMinimize: Iter:   1  F: -20.1739510272860834  |grad|_K:  1.214e-07  alpha:  9.874e-01  linmin: -2.724e-02  cgtest:  5.071e-01  t[s]:      8.73
LCAOMinimize: Encountered beta<0, resetting CG.
	FillingsUpdate:  mu: -0.079191616  nElectrons: 9.000000  magneticMoment: [ Abs: 0.48000  Tot: +0.48000 ]
LCAOMinimize: Iter:   2  F: -20.1739510272962974  |grad|_K:  3.230e-09  alpha:  1.027e+00  linmin:  6.889e-02  cgtest: -9.997e-01  t[s]:     11.07
LCAOMinimize: Converged (|Delta F|<1.000000e-06 for 2 iters).


---- Citations for features of the code used in this run ----

   Software package:
      R. Sundararaman, K. Letchworth-Weaver, K.A. Schwarz, D. Gunceler, Y. Ozhabes and T.A. Arias, 'JDFTx: software for joint density-functional theory', SoftwareX 6, 278 (2017)

   gga-PBE exchange-correlation functional:
      J.P. Perdew, K. Burke and M. Ernzerhof, Phys. Rev. Lett. 77, 3865 (1996)

   Pseudopotentials:
      M Schlipf and F Gygi, Comput. Phys. Commun. 196, 36 (2015)

   Truncated Coulomb potentials:
      R. Sundararaman and T.A. Arias, Phys. Rev. B 87, 165122 (2013)

This list may not be complete. Please suggest additional citations or
report any other bugs at https://github.com/shankar1729/jdftx/issues

Initialization completed successfully at t[s]:     11.23


-------- Electronic minimization -----------
Will mix electronic density at each iteration.
	FillingsUpdate:  mu: -0.079191616  nElectrons: 9.000000  magneticMoment: [ Abs: 0.48000  Tot: +0.48000 ]
	FillingsUpdate:  mu: -0.082160084  nElectrons: 9.000000  magneticMoment: [ Abs: 0.48000  Tot: +0.48000 ]
SCF: Cycle:  0   F: -20.176435098773865   dF: -2.484e-03   |Residual|: 5.126e-03   |deigs|: 1.732e-01  t[s]:     15.96
	FillingsUpdate:  mu: -0.082429550  nElectrons: 9.000000  magneticMoment: [ Abs: 0.48001  Tot: +0.48000 ]
SCF: Cycle:  1   F: -20.176582194213477   dF: -1.471e-04   |Residual|: 4.428e-03   |deigs|: 5.102e-03  t[s]:     19.70
	FillingsUpdate:  mu: -0.082590466  nElectrons: 9.000000  magneticMoment: [ Abs: 0.48184  Tot: +0.48000 ]
SCF: Cycle:  2   F: -20.176666033777327   dF: -8.384e-05   |Residual|: 3.017e-03   |deigs|: 2.168e-03  t[s]:     23.45
	FillingsUpdate:  mu: -0.082687471  nElectrons: 9.000000  magneticMoment: [ Abs: 0.48232  Tot: +0.48000 ]
SCF: Cycle:  3   F: -20.176703271674331   dF: -3.724e-05   |Residual|: 2.101e-03   |deigs|: 1.580e-03  t[s]:     27.25
	FillingsUpdate:  mu: -0.082517549  nElectrons: 9.000000  magneticMoment: [ Abs: 0.48025  Tot: +0.48000 ]
SCF: Cycle:  4   F: -20.176721563424653   dF: -1.829e-05   |Residual|: 1.069e-03   |deigs|: 9.977e-04  t[s]:     31.16
	FillingsUpdate:  mu: -0.082439440  nElectrons: 9.000000  magneticMoment: [ Abs: 0.48044  Tot: +0.48000 ]
SCF: Cycle:  5   F: -20.176734224299409   dF: -1.266e-05   |Residual|: 7.645e-04   |deigs|: 7.807e-04  t[s]:     35.17
	FillingsUpdate:  mu: -0.082218495  nElectrons: 9.000000  magneticMoment: [ Abs: 0.48066  Tot: +0.48000 ]
SCF: Cycle:  6   F: -20.176740764588171   dF: -6.540e-06   |Residual|: 5.901e-04   |deigs|: 5.971e-04  t[s]:     39.15
	FillingsUpdate:  mu: -0.081837207  nElectrons: 9.000000  magneticMoment: [ Abs: 0.48138  Tot: +0.48000 ]
SCF: Cycle:  7   F: -20.176741694461164   dF: -9.299e-07   |Residual|: 5.073e-04   |deigs|: 7.109e-04  t[s]:     43.21
	FillingsUpdate:  mu: -0.081184712  nElectrons: 9.000000  magneticMoment: [ Abs: 0.48322  Tot: +0.48000 ]
SCF: Cycle:  8   F: -20.176738651659868   dF: +3.043e-06   |Residual|: 3.892e-04   |deigs|: 9.737e-04  t[s]:     47.36
	FillingsUpdate:  mu: -0.080466061  nElectrons: 9.000000  magneticMoment: [ Abs: 0.48293  Tot: +0.48000 ]
SCF: Cycle:  9   F: -20.176739003551532   dF: -3.519e-07   |Residual|: 3.667e-04   |deigs|: 9.130e-04  t[s]:     51.50
	FillingsUpdate:  mu: -0.080390607  nElectrons: 9.000000  magneticMoment: [ Abs: 0.48199  Tot: +0.48000 ]
SCF: Cycle: 10   F: -20.176743209962428   dF: -4.206e-06   |Residual|: 2.816e-04   |deigs|: 7.896e-04  t[s]:     55.76
	FillingsUpdate:  mu: -0.080089310  nElectrons: 9.000000  magneticMoment: [ Abs: 0.48351  Tot: +0.48000 ]
SCF: Cycle: 11   F: -20.176744858817219   dF: -1.649e-06   |Residual|: 2.512e-04   |deigs|: 9.619e-04  t[s]:     60.06
	FillingsUpdate:  mu: -0.079519349  nElectrons: 9.000000  magneticMoment: [ Abs: 0.48326  Tot: +0.48000 ]
SCF: Cycle: 12   F: -20.176743906482006   dF: +9.523e-07   |Residual|: 2.425e-04   |deigs|: 8.002e-04  t[s]:     64.37
	FillingsUpdate:  mu: -0.078993502  nElectrons: 9.000000  magneticMoment: [ Abs: 0.48166  Tot: +0.48000 ]
SCF: Cycle: 13   F: -20.176743121442684   dF: +7.850e-07   |Residual|: 2.335e-04   |deigs|: 5.676e-04  t[s]:     68.61
	FillingsUpdate:  mu: -0.078814494  nElectrons: 9.000000  magneticMoment: [ Abs: 0.48213  Tot: +0.48000 ]
SCF: Cycle: 14   F: -20.176745076790123   dF: -1.955e-06   |Residual|: 2.104e-04   |deigs|: 2.308e-04  t[s]:     72.88
	FillingsUpdate:  mu: -0.078503505  nElectrons: 9.000000  magneticMoment: [ Abs: 0.48197  Tot: +0.48000 ]
SCF: Cycle: 15   F: -20.176747782100477   dF: -2.705e-06   |Residual|: 1.570e-04   |deigs|: 3.519e-04  t[s]:     77.08
	FillingsUpdate:  mu: -0.078162374  nElectrons: 9.000000  magneticMoment: [ Abs: 0.48106  Tot: +0.48000 ]
SCF: Cycle: 16   F: -20.176749165107204   dF: -1.383e-06   |Residual|: 1.039e-04   |deigs|: 3.841e-04  t[s]:     81.32
	FillingsUpdate:  mu: -0.078111219  nElectrons: 9.000000  magneticMoment: [ Abs: 0.48069  Tot: +0.48000 ]
SCF: Cycle: 17   F: -20.176749504725851   dF: -3.396e-07   |Residual|: 7.486e-05   |deigs|: 1.669e-04  t[s]:     85.58
	FillingsUpdate:  mu: -0.078137808  nElectrons: 9.000000  magneticMoment: [ Abs: 0.48064  Tot: +0.48000 ]
SCF: Cycle: 18   F: -20.176749741684464   dF: -2.370e-07   |Residual|: 4.916e-05   |deigs|: 1.465e-04  t[s]:     89.81
	FillingsUpdate:  mu: -0.078150283  nElectrons: 9.000000  magneticMoment: [ Abs: 0.48070  Tot: +0.48000 ]
SCF: Cycle: 19   F: -20.176749872590801   dF: -1.309e-07   |Residual|: 3.194e-05   |deigs|: 1.407e-04  t[s]:     94.00
	FillingsUpdate:  mu: -0.078157058  nElectrons: 9.000000  magneticMoment: [ Abs: 0.48067  Tot: +0.48000 ]
SCF: Cycle: 20   F: -20.176749937635300   dF: -6.504e-08   |Residual|: 1.822e-05   |deigs|: 1.003e-04  t[s]:     98.34
	FillingsUpdate:  mu: -0.078155139  nElectrons: 9.000000  magneticMoment: [ Abs: 0.48071  Tot: +0.48000 ]
SCF: Cycle: 21   F: -20.176749958596513   dF: -2.096e-08   |Residual|: 1.347e-05   |deigs|: 1.332e-04  t[s]:    102.60
	FillingsUpdate:  mu: -0.078154387  nElectrons: 9.000000  magneticMoment: [ Abs: 0.48074  Tot: +0.48000 ]
SCF: Cycle: 22   F: -20.176749967834649   dF: -9.238e-09   |Residual|: 1.146e-05   |deigs|: 5.786e-05  t[s]:    106.90
	FillingsUpdate:  mu: -0.078155471  nElectrons: 9.000000  magneticMoment: [ Abs: 0.48072  Tot: +0.48000 ]
SCF: Cycle: 23   F: -20.176749972056612   dF: -4.222e-09   |Residual|: 6.477e-06   |deigs|: 2.788e-05  t[s]:    111.18
SCF: Converged (|Delta E|<1.000000e-08 for 2 iters).


# Ionic positions in lattice coordinates:
ion Cs   0.000000000000000   0.000000000000000   0.000000000000000 0

# Forces in Lattice coordinates:
force Cs   0.000000000000000  -0.000000000000000   0.000000000000000 0

# Energy components:
   Eewald =      -12.0320174002217755
       EH =        4.0160245641080881
     Eloc =      -17.5856062873886465
      Enl =        3.4318210008148027
   Epulay =       -0.0000000107257212
      Exc =       -3.1093584445467108
       KE =        5.1023871359678425
-------------------------------------
     Etot =      -20.1767494419921185
       TS =        0.0000005300644922
-------------------------------------
        F =      -20.1767499720566121

IonicMinimize: Iter:   0  F: -20.176749972056612  |grad|_K:  0.000e+00  t[s]:    111.43
IonicMinimize: Converged (|grad|_K<1.000000e-04).

#--- Lowdin population analysis ---
# oxidation-state Cs +0.058
# magnetic-moments Cs +0.431

End date and time: Sun Feb  6 13:31:59 2022  (Duration: 0-0:01:51.48)
Done!
scale=4
magnetization=0.48
--------------------------------------------------------------------------
The library attempted to open the following supporting CUDA libraries,
but each of them failed.  CUDA-aware support is disabled.
libcuda.so.1: cannot open shared object file: No such file or directory
libcuda.dylib: cannot open shared object file: No such file or directory
/usr/lib64/libcuda.so.1: cannot open shared object file: No such file or directory
/usr/lib64/libcuda.dylib: cannot open shared object file: No such file or directory
If you are not interested in CUDA-aware support, then run with
--mca opal_warn_on_missing_libcuda 0 to suppress this message.  If you are interested
in CUDA-aware support, then try setting LD_LIBRARY_PATH to the location
of libcuda.so.1 to get passed this issue.
--------------------------------------------------------------------------
--------------------------------------------------------------------------
No OpenFabrics connection schemes reported that they were able to be
used on a specific port.  As such, the openib BTL (OpenFabrics
support) will be disabled for this port.

  Local host:           d-3-4-3
  Local device:         mlx5_1
  Local port:           1
  CPCs attempted:       rdmacm, udcm
--------------------------------------------------------------------------

*************** JDFTx 1.6.0 (git hash 42ebbcc2) ***************

Start date and time: Sun Feb  6 13:32:00 2022
Executable jdftx with command-line: -i Alkali.in
Running on hosts (process indices):  d-3-4-3 (0-18)
Divided in process groups (process indices):  0 (0)  1 (1)  2 (2)  3 (3)  4 (4)  5 (5)  6 (6)  7 (7)  8 (8)  9 (9)  10 (10)  11 (11)  12 (12)  13 (13)  14 (14)  15 (15)  16 (16)  17 (17)  18 (18)
Resource initialization completed at t[s]:      0.00
Run totals: 19 processes, 48 threads, 0 GPUs


Input parsed successfully to the following command list (including defaults):

basis kpoint-dependent
coords-type Lattice
core-overlap-check vector
coulomb-interaction Slab 001
davidson-band-ratio 1.1
dump End None
dump-name $INPUT.$VAR
elec-cutoff 20
elec-eigen-algo Davidson
elec-ex-corr gga-PBE
elec-initial-magnetization 0.480000 yes
elec-smearing Fermi 1e-05
electronic-minimize  \
	dirUpdateScheme      FletcherReeves \
	linminMethod         DirUpdateRecommended \
	nIterations          100 \
	history              15 \
	knormThreshold       0 \
	energyDiffThreshold  1e-08 \
	nEnergyDiff          2 \
	alphaTstart          1 \
	alphaTmin            1e-10 \
	updateTestStepSize   yes \
	alphaTreduceFactor   0.1 \
	alphaTincreaseFactor 3 \
	nAlphaAdjustMax      3 \
	wolfeEnergy          0.0001 \
	wolfeGradient        0.9 \
	fdTest               no
electronic-scf  \
	nIterations	10000 \
	energyDiffThreshold	1e-08 \
	residualThreshold	1e-07 \
	mixFraction	0.5 \
	qMetric	0.8 \
	history	10 \
	nEigSteps	2 \
	eigDiffThreshold	1e-08 \
	mixedVariable	Density \
	qKerker	0.8 \
	qKappa	-1 \
	verbose	no \
	mixFractionMag	1.5
exchange-regularization WignerSeitzTruncated
fluid None
fluid-ex-corr (null) lda-PZ
fluid-gummel-loop 10 1.000000e-05
fluid-minimize  \
	dirUpdateScheme      PolakRibiere \
	linminMethod         DirUpdateRecommended \
	nIterations          100 \
	history              15 \
	knormThreshold       0 \
	energyDiffThreshold  0 \
	nEnergyDiff          2 \
	alphaTstart          1 \
	alphaTmin            1e-10 \
	updateTestStepSize   yes \
	alphaTreduceFactor   0.1 \
	alphaTincreaseFactor 3 \
	nAlphaAdjustMax      3 \
	wolfeEnergy          0.0001 \
	wolfeGradient        0.9 \
	fdTest               no
fluid-solvent H2O 55.338 ScalarEOS \
	epsBulk 78.4 \
	pMol 0.92466 \
	epsInf 1.77 \
	Pvap 1.06736e-10 \
	sigmaBulk 4.62e-05 \
	Rvdw 2.61727 \
	Res 1.42 \
	tauNuc 343133 \
	poleEl 15 7 1
forces-output-coords Positions
ion Cs   0.000000000000000   0.000000000000000   0.000000000000000 0
ion-species SG15/$ID_ONCV_PBE.upf
ion-width 0
ionic-minimize  \
	dirUpdateScheme      L-BFGS \
	linminMethod         DirUpdateRecommended \
	nIterations          0 \
	history              15 \
	knormThreshold       0.0001 \
	energyDiffThreshold  1e-06 \
	nEnergyDiff          2 \
	alphaTstart          1 \
	alphaTmin            1e-10 \
	updateTestStepSize   yes \
	alphaTreduceFactor   0.1 \
	alphaTincreaseFactor 3 \
	nAlphaAdjustMax      3 \
	wolfeEnergy          0.0001 \
	wolfeGradient        0.9 \
	fdTest               no
kpoint   0.000000000000   0.000000000000   0.000000000000  1.00000000000000
kpoint-folding 12 12 1 
latt-move-scale 1 1 1
latt-scale 4 4 1 
lattice  \
	   4.727486978767153   -2.363743489383575    0.000000000000000  \
	  -0.000000000000000    4.094123819672498    0.000000000000000  \
	   0.000000000000000    0.000000000000000   40.000000000000000 
lattice-minimize  \
	dirUpdateScheme      L-BFGS \
	linminMethod         DirUpdateRecommended \
	nIterations          0 \
	history              15 \
	knormThreshold       0 \
	energyDiffThreshold  1e-06 \
	nEnergyDiff          2 \
	alphaTstart          1 \
	alphaTmin            1e-10 \
	updateTestStepSize   yes \
	alphaTreduceFactor   0.1 \
	alphaTincreaseFactor 3 \
	nAlphaAdjustMax      3 \
	wolfeEnergy          0.0001 \
	wolfeGradient        0.9 \
	fdTest               no
lcao-params -1 1e-06 1e-05
pcm-variant GLSSA13
spintype z-spin
subspace-rotation-factor 1 yes
symmetries automatic
symmetry-threshold 0.0001



---------- Setting up symmetries ----------

Found 24 point-group symmetries of the bravais lattice
Found 24 space-group symmetries with basis
Applied RMS atom displacement 0 bohrs to make symmetries exact.

---------- Initializing the Grid ----------
R = 
[      18.9099     -9.45497            0  ]
[            0      16.3765            0  ]
[            0            0           40  ]
unit cell volume = 12387.1
G =
[   0.332269   0.191835         -0  ]
[          0   0.383671         -0  ]
[         -0         -0    0.15708  ]
Minimum fftbox size, Smin = [  80  80  164  ]
Chosen fftbox size, S = [  80  80  168  ]

---------- Exchange Correlation functional ----------
Initalized PBE GGA exchange.
Initalized PBE GGA correlation.

---------- Setting up pseudopotentials ----------
Width of ionic core gaussian charges (only for fluid interactions / plotting) set to 0

Reading pseudopotential file '/home/gridsan/aligho/DFT/build-Nov24/pseudopotentials/SG15/Cs_ONCV_PBE.upf':
  'Cs' pseudopotential, 'PBE' functional
  Generated using ONCVPSP code by D. R. Hamann
  Author: Martin Schlipf and Francois Gygi  Date: 150915.
  9 valence electrons, 3 orbitals, 6 projectors, 2414 radial grid points, with lMax = 2
  Transforming local potential to a uniform radial grid of dG=0.02 with 1489 points.
  Transforming nonlocal projectors to a uniform radial grid of dG=0.02 with 432 points.
    5S    l: 0   occupation:  2.0   eigenvalue: -0.982388
    5P    l: 1   occupation:  6.0   eigenvalue: -0.496786
    6S    l: 0   occupation:  1.0   eigenvalue: -0.076670
  Transforming atomic orbitals to a uniform radial grid of dG=0.02 with 432 points.
  Core radius for overlap checks: 2.06 bohrs.
  Reading pulay file /home/gridsan/aligho/DFT/build-Nov24/pseudopotentials/SG15/Cs_ONCV_PBE.pulay ... using dE_dnG = -1.008762e-04 computed for Ecut = 20.

Initialized 1 species with 1 total atoms.

Folded 1 k-points by 12x12x1 to 144 k-points.

---------- Setting up k-points, bands, fillings ----------
Reduced to 19 k-points under symmetry. 
Computing the number of bands and number of electrons
Calculating initial fillings.
nElectrons:   9.000000   nBands: 6   nStates: 38

----- Setting up reduced wavefunction bases (one per k-point) -----
average nbasis = 52924.021 , ideal nbasis = 52918.836

---------- Setting up coulomb interaction ----------
Initialized slab truncation along lattice direction 001

---------- Setting up 2D ewald sum ----------
Optimum gaussian width for ewald sums = 10.498040 bohr.
Real space sums over 289 unit cells with max indices [  8  8  0  ]
Reciprocal space sums over 81 terms with max indices [  4  4  0  ]

---------- Allocating electronic variables ----------
Initializing wave functions:  linear combination of atomic orbitals
Note: number of bands (6) exceeds available atomic orbitals (5)
Cs pseudo-atom occupations:   s ( 2 1 )  p ( 6 )
[d-3-4-3:10467] 18 more processes have sent help message help-mpi-common-cuda.txt / dlopen failed
[d-3-4-3:10467] Set MCA parameter "orte_base_help_aggregate" to 0 to see all help / error messages
[d-3-4-3:10467] 18 more processes have sent help message help-mpi-btl-openib-cpc-base.txt / no cpcs for port
	FillingsUpdate:  mu: -0.077370601  nElectrons: 9.000000  magneticMoment: [ Abs: 0.48000  Tot: +0.48000 ]
LCAOMinimize: Iter:   0  F: -20.1682767620760686  |grad|_K:  6.091e-06  alpha:  1.000e+00
	FillingsUpdate:  mu: -0.077369341  nElectrons: 9.000000  magneticMoment: [ Abs: 0.48000  Tot: +0.48000 ]
LCAOMinimize: Iter:   1  F: -20.1682767872122923  |grad|_K:  2.982e-08  alpha:  9.905e-01  linmin: -6.674e-04  cgtest:  2.719e-01  t[s]:     14.93
LCAOMinimize: Encountered beta<0, resetting CG.
	FillingsUpdate:  mu: -0.077369341  nElectrons: 9.000000  magneticMoment: [ Abs: 0.48000  Tot: +0.48000 ]
LCAOMinimize: Iter:   2  F: -20.1682767872128075  |grad|_K:  1.158e-08  alpha:  1.388e+00  linmin:  2.862e-03  cgtest: -1.000e+00  t[s]:     18.94
LCAOMinimize: Converged (|Delta F|<1.000000e-06 for 2 iters).


---- Citations for features of the code used in this run ----

   Software package:
      R. Sundararaman, K. Letchworth-Weaver, K.A. Schwarz, D. Gunceler, Y. Ozhabes and T.A. Arias, 'JDFTx: software for joint density-functional theory', SoftwareX 6, 278 (2017)

   gga-PBE exchange-correlation functional:
      J.P. Perdew, K. Burke and M. Ernzerhof, Phys. Rev. Lett. 77, 3865 (1996)

   Pseudopotentials:
      M Schlipf and F Gygi, Comput. Phys. Commun. 196, 36 (2015)

   Truncated Coulomb potentials:
      R. Sundararaman and T.A. Arias, Phys. Rev. B 87, 165122 (2013)

This list may not be complete. Please suggest additional citations or
report any other bugs at https://github.com/shankar1729/jdftx/issues

Initialization completed successfully at t[s]:     19.19


-------- Electronic minimization -----------
Will mix electronic density at each iteration.
	FillingsUpdate:  mu: -0.077369341  nElectrons: 9.000000  magneticMoment: [ Abs: 0.48000  Tot: +0.48000 ]
	FillingsUpdate:  mu: -0.077559274  nElectrons: 9.000000  magneticMoment: [ Abs: 0.48000  Tot: +0.48000 ]
SCF: Cycle:  0   F: -20.168477311918618   dF: -2.005e-04   |Residual|: 1.191e-03   |deigs|: 1.747e-01  t[s]:     27.36
	FillingsUpdate:  mu: -0.077594997  nElectrons: 9.000000  magneticMoment: [ Abs: 0.48241  Tot: +0.48000 ]
SCF: Cycle:  1   F: -20.168484692119417   dF: -7.380e-06   |Residual|: 6.774e-04   |deigs|: 4.573e-03  t[s]:     33.78
	FillingsUpdate:  mu: -0.077634319  nElectrons: 9.000000  magneticMoment: [ Abs: 0.48256  Tot: +0.48000 ]
SCF: Cycle:  2   F: -20.168487164521469   dF: -2.472e-06   |Residual|: 5.449e-04   |deigs|: 1.229e-03  t[s]:     40.31
	FillingsUpdate:  mu: -0.077704303  nElectrons: 9.000000  magneticMoment: [ Abs: 0.48357  Tot: +0.48000 ]
SCF: Cycle:  3   F: -20.168489097313035   dF: -1.933e-06   |Residual|: 4.147e-04   |deigs|: 3.891e-04  t[s]:     46.88
	FillingsUpdate:  mu: -0.077779789  nElectrons: 9.000000  magneticMoment: [ Abs: 0.48344  Tot: +0.48000 ]
SCF: Cycle:  4   F: -20.168491429725858   dF: -2.332e-06   |Residual|: 2.889e-04   |deigs|: 7.228e-04  t[s]:     53.65
	FillingsUpdate:  mu: -0.077848555  nElectrons: 9.000000  magneticMoment: [ Abs: 0.48343  Tot: +0.48000 ]
SCF: Cycle:  5   F: -20.168492954491889   dF: -1.525e-06   |Residual|: 1.875e-04   |deigs|: 3.820e-04  t[s]:     60.47
	FillingsUpdate:  mu: -0.077858096  nElectrons: 9.000000  magneticMoment: [ Abs: 0.48353  Tot: +0.48000 ]
SCF: Cycle:  6   F: -20.168493849363660   dF: -8.949e-07   |Residual|: 1.282e-04   |deigs|: 4.128e-04  t[s]:     67.35
	FillingsUpdate:  mu: -0.077850786  nElectrons: 9.000000  magneticMoment: [ Abs: 0.48334  Tot: +0.48000 ]
SCF: Cycle:  7   F: -20.168494360865537   dF: -5.115e-07   |Residual|: 9.826e-05   |deigs|: 3.714e-04  t[s]:     74.38
	FillingsUpdate:  mu: -0.077819298  nElectrons: 9.000000  magneticMoment: [ Abs: 0.48329  Tot: +0.48000 ]
SCF: Cycle:  8   F: -20.168494706258979   dF: -3.454e-07   |Residual|: 7.551e-05   |deigs|: 3.028e-04  t[s]:     81.57
	FillingsUpdate:  mu: -0.077771046  nElectrons: 9.000000  magneticMoment: [ Abs: 0.48322  Tot: +0.48000 ]
SCF: Cycle:  9   F: -20.168494805837071   dF: -9.958e-08   |Residual|: 6.364e-05   |deigs|: 1.404e-04  t[s]:     88.83
	FillingsUpdate:  mu: -0.077726524  nElectrons: 9.000000  magneticMoment: [ Abs: 0.48331  Tot: +0.48000 ]
SCF: Cycle: 10   F: -20.168494794320786   dF: +1.152e-08   |Residual|: 5.497e-05   |deigs|: 2.711e-04  t[s]:     96.20
	FillingsUpdate:  mu: -0.077670403  nElectrons: 9.000000  magneticMoment: [ Abs: 0.48356  Tot: +0.48000 ]
SCF: Cycle: 11   F: -20.168494764229585   dF: +3.009e-08   |Residual|: 5.409e-05   |deigs|: 2.648e-04  t[s]:    103.64
	FillingsUpdate:  mu: -0.077610727  nElectrons: 9.000000  magneticMoment: [ Abs: 0.48353  Tot: +0.48000 ]
SCF: Cycle: 12   F: -20.168494462308733   dF: +3.019e-07   |Residual|: 5.043e-05   |deigs|: 2.073e-04  t[s]:    111.02
	FillingsUpdate:  mu: -0.077542741  nElectrons: 9.000000  magneticMoment: [ Abs: 0.48367  Tot: +0.48000 ]
SCF: Cycle: 13   F: -20.168494635703414   dF: -1.734e-07   |Residual|: 4.379e-05   |deigs|: 1.537e-04  t[s]:    118.41
	FillingsUpdate:  mu: -0.077506960  nElectrons: 9.000000  magneticMoment: [ Abs: 0.48374  Tot: +0.48000 ]
SCF: Cycle: 14   F: -20.168494859892789   dF: -2.242e-07   |Residual|: 3.751e-05   |deigs|: 1.018e-04  t[s]:    125.78
	FillingsUpdate:  mu: -0.077457322  nElectrons: 9.000000  magneticMoment: [ Abs: 0.48359  Tot: +0.48000 ]
SCF: Cycle: 15   F: -20.168494796297640   dF: +6.360e-08   |Residual|: 3.575e-05   |deigs|: 1.026e-04  t[s]:    133.17
	FillingsUpdate:  mu: -0.077395257  nElectrons: 9.000000  magneticMoment: [ Abs: 0.48339  Tot: +0.48000 ]
SCF: Cycle: 16   F: -20.168494751901473   dF: +4.440e-08   |Residual|: 3.297e-05   |deigs|: 1.660e-04  t[s]:    140.60
	FillingsUpdate:  mu: -0.077383265  nElectrons: 9.000000  magneticMoment: [ Abs: 0.48335  Tot: +0.48000 ]
SCF: Cycle: 17   F: -20.168494957909491   dF: -2.060e-07   |Residual|: 2.418e-05   |deigs|: 2.399e-04  t[s]:    148.02
	FillingsUpdate:  mu: -0.077379678  nElectrons: 9.000000  magneticMoment: [ Abs: 0.48321  Tot: +0.48000 ]
SCF: Cycle: 18   F: -20.168494961269349   dF: -3.360e-09   |Residual|: 1.986e-05   |deigs|: 1.522e-04  t[s]:    155.27
	FillingsUpdate:  mu: -0.077367131  nElectrons: 9.000000  magneticMoment: [ Abs: 0.48320  Tot: +0.48000 ]
SCF: Cycle: 19   F: -20.168495005569198   dF: -4.430e-08   |Residual|: 1.678e-05   |deigs|: 8.564e-05  t[s]:    162.63
	FillingsUpdate:  mu: -0.077361390  nElectrons: 9.000000  magneticMoment: [ Abs: 0.48320  Tot: +0.48000 ]
SCF: Cycle: 20   F: -20.168495048870607   dF: -4.330e-08   |Residual|: 1.163e-05   |deigs|: 5.156e-05  t[s]:    169.96
	FillingsUpdate:  mu: -0.077366601  nElectrons: 9.000000  magneticMoment: [ Abs: 0.48320  Tot: +0.48000 ]
SCF: Cycle: 21   F: -20.168495072811460   dF: -2.394e-08   |Residual|: 8.119e-06   |deigs|: 4.205e-05  t[s]:    177.36
	FillingsUpdate:  mu: -0.077368752  nElectrons: 9.000000  magneticMoment: [ Abs: 0.48321  Tot: +0.48000 ]
SCF: Cycle: 22   F: -20.168495080125329   dF: -7.314e-09   |Residual|: 5.412e-06   |deigs|: 3.333e-05  t[s]:    184.75
	FillingsUpdate:  mu: -0.077369857  nElectrons: 9.000000  magneticMoment: [ Abs: 0.48322  Tot: +0.48000 ]
SCF: Cycle: 23   F: -20.168495084809084   dF: -4.684e-09   |Residual|: 3.996e-06   |deigs|: 3.373e-05  t[s]:    192.13
SCF: Converged (|Delta E|<1.000000e-08 for 2 iters).


# Ionic positions in lattice coordinates:
ion Cs   0.000000000000000   0.000000000000000   0.000000000000000 0

# Forces in Lattice coordinates:
force Cs   0.000000000000000   0.000000000000000   0.000000000000000 0

# Energy components:
   Eewald =       -9.0240130501663280
       EH =        7.0124985467470955
     Eloc =      -23.5975613415717440
      Enl =        3.4369922892270921
   Epulay =        0.0000000422266766
      Exc =       -3.1068653867815694
       KE =        5.1104546733891834
-------------------------------------
     Etot =      -20.1684942269295888
       TS =        0.0000008578794967
-------------------------------------
        F =      -20.1684950848090843

IonicMinimize: Iter:   0  F: -20.168495084809084  |grad|_K:  0.000e+00  t[s]:    192.54
IonicMinimize: Converged (|grad|_K<1.000000e-04).

#--- Lowdin population analysis ---
# oxidation-state Cs +0.004
# magnetic-moments Cs +0.478

End date and time: Sun Feb  6 13:35:13 2022  (Duration: 0-0:03:12.60)
Done!
