The alkali metal is Cs
scale=2
magnetization=-0.74
--------------------------------------------------------------------------
The library attempted to open the following supporting CUDA libraries,
but each of them failed.  CUDA-aware support is disabled.
libcuda.so.1: cannot open shared object file: No such file or directory
libcuda.dylib: cannot open shared object file: No such file or directory
/usr/lib64/libcuda.so.1: cannot open shared object file: No such file or directory
/usr/lib64/libcuda.dylib: cannot open shared object file: No such file or directory
If you are not interested in CUDA-aware support, then run with
--mca opal_warn_on_missing_libcuda 0 to suppress this message.  If you are interested
in CUDA-aware support, then try setting LD_LIBRARY_PATH to the location
of libcuda.so.1 to get passed this issue.
--------------------------------------------------------------------------
--------------------------------------------------------------------------
No OpenFabrics connection schemes reported that they were able to be
used on a specific port.  As such, the openib BTL (OpenFabrics
support) will be disabled for this port.

  Local host:           d-6-8-2
  Local device:         mlx5_1
  Local port:           1
  CPCs attempted:       rdmacm, udcm
--------------------------------------------------------------------------

*************** JDFTx 1.6.0 (git hash 42ebbcc2) ***************

Start date and time: Sun Feb  6 13:09:09 2022
Executable jdftx with command-line: -i Alkali.in
Running on hosts (process indices):  d-6-8-2 (0-18)
Divided in process groups (process indices):  0 (0)  1 (1)  2 (2)  3 (3)  4 (4)  5 (5)  6 (6)  7 (7)  8 (8)  9 (9)  10 (10)  11 (11)  12 (12)  13 (13)  14 (14)  15 (15)  16 (16)  17 (17)  18 (18)
Resource initialization completed at t[s]:      0.00
Run totals: 19 processes, 48 threads, 0 GPUs


Input parsed successfully to the following command list (including defaults):

basis kpoint-dependent
coords-type Lattice
core-overlap-check vector
coulomb-interaction Slab 001
davidson-band-ratio 1.1
dump End None
dump-name $INPUT.$VAR
elec-cutoff 20
elec-eigen-algo Davidson
elec-ex-corr gga-PBE
elec-initial-magnetization -0.740000 yes
elec-smearing Fermi 1e-05
electronic-minimize  \
	dirUpdateScheme      FletcherReeves \
	linminMethod         DirUpdateRecommended \
	nIterations          100 \
	history              15 \
	knormThreshold       0 \
	energyDiffThreshold  1e-08 \
	nEnergyDiff          2 \
	alphaTstart          1 \
	alphaTmin            1e-10 \
	updateTestStepSize   yes \
	alphaTreduceFactor   0.1 \
	alphaTincreaseFactor 3 \
	nAlphaAdjustMax      3 \
	wolfeEnergy          0.0001 \
	wolfeGradient        0.9 \
	fdTest               no
electronic-scf  \
	nIterations	10000 \
	energyDiffThreshold	1e-08 \
	residualThreshold	1e-07 \
	mixFraction	0.5 \
	qMetric	0.8 \
	history	10 \
	nEigSteps	2 \
	eigDiffThreshold	1e-08 \
	mixedVariable	Density \
	qKerker	0.8 \
	qKappa	-1 \
	verbose	no \
	mixFractionMag	1.5
exchange-regularization WignerSeitzTruncated
fluid None
fluid-ex-corr (null) lda-PZ
fluid-gummel-loop 10 1.000000e-05
fluid-minimize  \
	dirUpdateScheme      PolakRibiere \
	linminMethod         DirUpdateRecommended \
	nIterations          100 \
	history              15 \
	knormThreshold       0 \
	energyDiffThreshold  0 \
	nEnergyDiff          2 \
	alphaTstart          1 \
	alphaTmin            1e-10 \
	updateTestStepSize   yes \
	alphaTreduceFactor   0.1 \
	alphaTincreaseFactor 3 \
	nAlphaAdjustMax      3 \
	wolfeEnergy          0.0001 \
	wolfeGradient        0.9 \
	fdTest               no
fluid-solvent H2O 55.338 ScalarEOS \
	epsBulk 78.4 \
	pMol 0.92466 \
	epsInf 1.77 \
	Pvap 1.06736e-10 \
	sigmaBulk 4.62e-05 \
	Rvdw 2.61727 \
	Res 1.42 \
	tauNuc 343133 \
	poleEl 15 7 1
forces-output-coords Positions
ion Cs   0.000000000000000   0.000000000000000   0.000000000000000 0
ion-species SG15/$ID_ONCV_PBE.upf
ion-width 0
ionic-minimize  \
	dirUpdateScheme      L-BFGS \
	linminMethod         DirUpdateRecommended \
	nIterations          0 \
	history              15 \
	knormThreshold       0.0001 \
	energyDiffThreshold  1e-06 \
	nEnergyDiff          2 \
	alphaTstart          1 \
	alphaTmin            1e-10 \
	updateTestStepSize   yes \
	alphaTreduceFactor   0.1 \
	alphaTincreaseFactor 3 \
	nAlphaAdjustMax      3 \
	wolfeEnergy          0.0001 \
	wolfeGradient        0.9 \
	fdTest               no
kpoint   0.000000000000   0.000000000000   0.000000000000  1.00000000000000
kpoint-folding 12 12 1 
latt-move-scale 1 1 1
latt-scale 2 2 1 
lattice  \
	   4.727486978767153   -2.363743489383575    0.000000000000000  \
	  -0.000000000000000    4.094123819672498    0.000000000000000  \
	   0.000000000000000    0.000000000000000   40.000000000000000 
lattice-minimize  \
	dirUpdateScheme      L-BFGS \
	linminMethod         DirUpdateRecommended \
	nIterations          0 \
	history              15 \
	knormThreshold       0 \
	energyDiffThreshold  1e-06 \
	nEnergyDiff          2 \
	alphaTstart          1 \
	alphaTmin            1e-10 \
	updateTestStepSize   yes \
	alphaTreduceFactor   0.1 \
	alphaTincreaseFactor 3 \
	nAlphaAdjustMax      3 \
	wolfeEnergy          0.0001 \
	wolfeGradient        0.9 \
	fdTest               no
lcao-params -1 1e-06 1e-05
pcm-variant GLSSA13
spintype z-spin
subspace-rotation-factor 1 yes
symmetries automatic
symmetry-threshold 0.0001



---------- Setting up symmetries ----------

Found 24 point-group symmetries of the bravais lattice
Found 24 space-group symmetries with basis
Applied RMS atom displacement 0 bohrs to make symmetries exact.

---------- Initializing the Grid ----------
R = 
[      9.45497     -4.72749            0  ]
[            0      8.18825            0  ]
[            0            0           40  ]
unit cell volume = 3096.79
G =
[   0.664538   0.383671         -0  ]
[          0   0.767342         -0  ]
[         -0         -0    0.15708  ]
Minimum fftbox size, Smin = [  40  40  164  ]
Chosen fftbox size, S = [  40  40  168  ]

---------- Exchange Correlation functional ----------
Initalized PBE GGA exchange.
Initalized PBE GGA correlation.

---------- Setting up pseudopotentials ----------
Width of ionic core gaussian charges (only for fluid interactions / plotting) set to 0

Reading pseudopotential file '/home/gridsan/aligho/DFT/build-Nov24/pseudopotentials/SG15/Cs_ONCV_PBE.upf':
  'Cs' pseudopotential, 'PBE' functional
  Generated using ONCVPSP code by D. R. Hamann
  Author: Martin Schlipf and Francois Gygi  Date: 150915.
  9 valence electrons, 3 orbitals, 6 projectors, 2414 radial grid points, with lMax = 2
  Transforming local potential to a uniform radial grid of dG=0.02 with 1489 points.
  Transforming nonlocal projectors to a uniform radial grid of dG=0.02 with 432 points.
    5S    l: 0   occupation:  2.0   eigenvalue: -0.982388
    5P    l: 1   occupation:  6.0   eigenvalue: -0.496786
    6S    l: 0   occupation:  1.0   eigenvalue: -0.076670
  Transforming atomic orbitals to a uniform radial grid of dG=0.02 with 432 points.
  Core radius for overlap checks: 2.06 bohrs.
  Reading pulay file /home/gridsan/aligho/DFT/build-Nov24/pseudopotentials/SG15/Cs_ONCV_PBE.pulay ... using dE_dnG = -1.008762e-04 computed for Ecut = 20.

Initialized 1 species with 1 total atoms.

Folded 1 k-points by 12x12x1 to 144 k-points.

---------- Setting up k-points, bands, fillings ----------
Reduced to 19 k-points under symmetry. 
Computing the number of bands and number of electrons
Calculating initial fillings.
nElectrons:   9.000000   nBands: 6   nStates: 38

----- Setting up reduced wavefunction bases (one per k-point) -----
average nbasis = 13230.521 , ideal nbasis = 13229.709

---------- Setting up coulomb interaction ----------
Initialized slab truncation along lattice direction 001

---------- Setting up 2D ewald sum ----------
Optimum gaussian width for ewald sums = 5.249020 bohr.
Real space sums over 289 unit cells with max indices [  8  8  0  ]
Reciprocal space sums over 81 terms with max indices [  4  4  0  ]

---------- Allocating electronic variables ----------
Initializing wave functions:  linear combination of atomic orbitals
Note: number of bands (6) exceeds available atomic orbitals (5)
Cs pseudo-atom occupations:   s ( 2 1 )  p ( 6 )
	FillingsUpdate:  mu: -0.089258967  nElectrons: 9.000000  magneticMoment: [ Abs: 0.74000  Tot: -0.74000 ]
LCAOMinimize: Iter:   0  F: -20.1701344135996656  |grad|_K:  2.111e-05  alpha:  1.000e+00
	FillingsUpdate:  mu: -0.089250304  nElectrons: 9.000000  magneticMoment: [ Abs: 0.74000  Tot: -0.74000 ]
LCAOMinimize: Iter:   1  F: -20.1701347120332137  |grad|_K:  1.978e-07  alpha:  9.789e-01  linmin: -2.467e-02  cgtest:  2.277e-01  t[s]:      4.63
LCAOMinimize: Encountered beta<0, resetting CG.
[d-6-8-2:08016] 18 more processes have sent help message help-mpi-common-cuda.txt / dlopen failed
[d-6-8-2:08016] Set MCA parameter "orte_base_help_aggregate" to 0 to see all help / error messages
[d-6-8-2:08016] 18 more processes have sent help message help-mpi-btl-openib-cpc-base.txt / no cpcs for port
	FillingsUpdate:  mu: -0.089250380  nElectrons: 9.000000  magneticMoment: [ Abs: 0.74000  Tot: -0.74000 ]
LCAOMinimize: Iter:   2  F: -20.1701347120591699  |grad|_K:  3.831e-09  alpha:  9.816e-01  linmin: -1.425e-01  cgtest:  9.707e-01  t[s]:      5.79
LCAOMinimize: Encountered beta<0, resetting CG.
LCAOMinimize: Converged (|Delta F|<1.000000e-06 for 2 iters).


---- Citations for features of the code used in this run ----

   Software package:
      R. Sundararaman, K. Letchworth-Weaver, K.A. Schwarz, D. Gunceler, Y. Ozhabes and T.A. Arias, 'JDFTx: software for joint density-functional theory', SoftwareX 6, 278 (2017)

   gga-PBE exchange-correlation functional:
      J.P. Perdew, K. Burke and M. Ernzerhof, Phys. Rev. Lett. 77, 3865 (1996)

   Pseudopotentials:
      M Schlipf and F Gygi, Comput. Phys. Commun. 196, 36 (2015)

   Truncated Coulomb potentials:
      R. Sundararaman and T.A. Arias, Phys. Rev. B 87, 165122 (2013)

This list may not be complete. Please suggest additional citations or
report any other bugs at https://github.com/shankar1729/jdftx/issues

Initialization completed successfully at t[s]:      5.88


-------- Electronic minimization -----------
Will mix electronic density at each iteration.
	FillingsUpdate:  mu: -0.089250380  nElectrons: 9.000000  magneticMoment: [ Abs: 0.74000  Tot: -0.74000 ]
	FillingsUpdate:  mu: -0.108451936  nElectrons: 9.000000  magneticMoment: [ Abs: 0.74000  Tot: -0.74000 ]
SCF: Cycle:  0   F: -20.180907291521923   dF: -1.077e-02   |Residual|: 1.783e-02   |deigs|: 1.881e-01  t[s]:      8.24
	FillingsUpdate:  mu: -0.111644171  nElectrons: 9.000000  magneticMoment: [ Abs: 0.74000  Tot: -0.74000 ]
SCF: Cycle:  1   F: -20.181752954149179   dF: -8.457e-04   |Residual|: 1.340e-02   |deigs|: 6.672e-03  t[s]:     10.02
	FillingsUpdate:  mu: -0.108842903  nElectrons: 9.000000  magneticMoment: [ Abs: 0.74637  Tot: -0.74000 ]
SCF: Cycle:  2   F: -20.182198879854589   dF: -4.459e-04   |Residual|: 7.692e-03   |deigs|: 2.172e-03  t[s]:     11.80
	FillingsUpdate:  mu: -0.105254675  nElectrons: 9.000000  magneticMoment: [ Abs: 0.74001  Tot: -0.74000 ]
SCF: Cycle:  3   F: -20.182399121986982   dF: -2.002e-04   |Residual|: 4.608e-03   |deigs|: 3.507e-03  t[s]:     13.63
	FillingsUpdate:  mu: -0.101979858  nElectrons: 9.000000  magneticMoment: [ Abs: 0.74016  Tot: -0.74000 ]
SCF: Cycle:  4   F: -20.182489229098501   dF: -9.011e-05   |Residual|: 3.429e-03   |deigs|: 3.470e-03  t[s]:     15.50
	FillingsUpdate:  mu: -0.098822567  nElectrons: 9.000000  magneticMoment: [ Abs: 0.74295  Tot: -0.74000 ]
SCF: Cycle:  5   F: -20.182525948604376   dF: -3.672e-05   |Residual|: 2.865e-03   |deigs|: 3.893e-03  t[s]:     17.41
	FillingsUpdate:  mu: -0.095371748  nElectrons: 9.000000  magneticMoment: [ Abs: 0.75351  Tot: -0.74000 ]
SCF: Cycle:  6   F: -20.182532521697418   dF: -6.573e-06   |Residual|: 2.090e-03   |deigs|: 4.084e-03  t[s]:     19.27
	FillingsUpdate:  mu: -0.092461946  nElectrons: 9.000000  magneticMoment: [ Abs: 0.75265  Tot: -0.74000 ]
SCF: Cycle:  7   F: -20.182599554983913   dF: -6.703e-05   |Residual|: 1.754e-03   |deigs|: 3.190e-03  t[s]:     21.18
	FillingsUpdate:  mu: -0.092812109  nElectrons: 9.000000  magneticMoment: [ Abs: 0.74153  Tot: -0.74000 ]
SCF: Cycle:  8   F: -20.182625856285505   dF: -2.630e-05   |Residual|: 1.454e-03   |deigs|: 5.802e-04  t[s]:     23.14
	FillingsUpdate:  mu: -0.090196706  nElectrons: 9.000000  magneticMoment: [ Abs: 0.74347  Tot: -0.74000 ]
SCF: Cycle:  9   F: -20.182626673750246   dF: -8.175e-07   |Residual|: 1.136e-03   |deigs|: 2.677e-03  t[s]:     25.07
	FillingsUpdate:  mu: -0.088014851  nElectrons: 9.000000  magneticMoment: [ Abs: 0.74696  Tot: -0.74000 ]
SCF: Cycle: 10   F: -20.182629084831554   dF: -2.411e-06   |Residual|: 9.413e-04   |deigs|: 2.292e-03  t[s]:     27.10
	FillingsUpdate:  mu: -0.087584093  nElectrons: 9.000000  magneticMoment: [ Abs: 0.74662  Tot: -0.74000 ]
SCF: Cycle: 11   F: -20.182650436771251   dF: -2.135e-05   |Residual|: 8.562e-04   |deigs|: 8.724e-04  t[s]:     29.10
	FillingsUpdate:  mu: -0.085710549  nElectrons: 9.000000  magneticMoment: [ Abs: 0.74911  Tot: -0.74000 ]
SCF: Cycle: 12   F: -20.182671107558861   dF: -2.067e-05   |Residual|: 8.332e-04   |deigs|: 2.023e-03  t[s]:     31.13
	FillingsUpdate:  mu: -0.083488189  nElectrons: 9.000000  magneticMoment: [ Abs: 0.74823  Tot: -0.74000 ]
SCF: Cycle: 13   F: -20.182681191334819   dF: -1.008e-05   |Residual|: 7.306e-04   |deigs|: 2.306e-03  t[s]:     33.16
	FillingsUpdate:  mu: -0.081560555  nElectrons: 9.000000  magneticMoment: [ Abs: 0.74460  Tot: -0.74000 ]
SCF: Cycle: 14   F: -20.182688568287649   dF: -7.377e-06   |Residual|: 6.733e-04   |deigs|: 2.014e-03  t[s]:     35.20
	FillingsUpdate:  mu: -0.079864709  nElectrons: 9.000000  magneticMoment: [ Abs: 0.74192  Tot: -0.74000 ]
SCF: Cycle: 15   F: -20.182698687806798   dF: -1.012e-05   |Residual|: 4.985e-04   |deigs|: 1.852e-03  t[s]:     37.20
	FillingsUpdate:  mu: -0.078784432  nElectrons: 9.000000  magneticMoment: [ Abs: 0.74196  Tot: -0.74000 ]
SCF: Cycle: 16   F: -20.182703561906571   dF: -4.874e-06   |Residual|: 3.740e-04   |deigs|: 1.300e-03  t[s]:     39.16
	FillingsUpdate:  mu: -0.078361769  nElectrons: 9.000000  magneticMoment: [ Abs: 0.74139  Tot: -0.74000 ]
SCF: Cycle: 17   F: -20.182706542978273   dF: -2.981e-06   |Residual|: 2.702e-04   |deigs|: 4.745e-04  t[s]:     41.26
	FillingsUpdate:  mu: -0.078480645  nElectrons: 9.000000  magneticMoment: [ Abs: 0.74160  Tot: -0.74000 ]
SCF: Cycle: 18   F: -20.182708140756464   dF: -1.598e-06   |Residual|: 1.734e-04   |deigs|: 2.885e-04  t[s]:     43.24
	FillingsUpdate:  mu: -0.078497772  nElectrons: 9.000000  magneticMoment: [ Abs: 0.74099  Tot: -0.74000 ]
SCF: Cycle: 19   F: -20.182709702464052   dF: -1.562e-06   |Residual|: 8.642e-05   |deigs|: 1.839e-04  t[s]:     45.20
	FillingsUpdate:  mu: -0.078652804  nElectrons: 9.000000  magneticMoment: [ Abs: 0.74086  Tot: -0.74000 ]
SCF: Cycle: 20   F: -20.182710133776897   dF: -4.313e-07   |Residual|: 5.656e-05   |deigs|: 2.257e-04  t[s]:     47.24
	FillingsUpdate:  mu: -0.078604396  nElectrons: 9.000000  magneticMoment: [ Abs: 0.74085  Tot: -0.74000 ]
SCF: Cycle: 21   F: -20.182710238455694   dF: -1.047e-07   |Residual|: 4.265e-05   |deigs|: 1.500e-04  t[s]:     49.22
	FillingsUpdate:  mu: -0.078611180  nElectrons: 9.000000  magneticMoment: [ Abs: 0.74081  Tot: -0.74000 ]
SCF: Cycle: 22   F: -20.182710383784730   dF: -1.453e-07   |Residual|: 3.085e-05   |deigs|: 2.140e-04  t[s]:     51.24
	FillingsUpdate:  mu: -0.078630874  nElectrons: 9.000000  magneticMoment: [ Abs: 0.74073  Tot: -0.74000 ]
SCF: Cycle: 23   F: -20.182710421024748   dF: -3.724e-08   |Residual|: 3.013e-05   |deigs|: 3.133e-04  t[s]:     53.25
	FillingsUpdate:  mu: -0.078598551  nElectrons: 9.000000  magneticMoment: [ Abs: 0.74066  Tot: -0.74000 ]
SCF: Cycle: 24   F: -20.182710476361702   dF: -5.534e-08   |Residual|: 2.337e-05   |deigs|: 3.647e-04  t[s]:     55.31
	FillingsUpdate:  mu: -0.078580266  nElectrons: 9.000000  magneticMoment: [ Abs: 0.74054  Tot: -0.74000 ]
SCF: Cycle: 25   F: -20.182710503087311   dF: -2.673e-08   |Residual|: 1.877e-05   |deigs|: 3.667e-04  t[s]:     57.35
	FillingsUpdate:  mu: -0.078582336  nElectrons: 9.000000  magneticMoment: [ Abs: 0.74044  Tot: -0.74000 ]
SCF: Cycle: 26   F: -20.182710515335703   dF: -1.225e-08   |Residual|: 1.340e-05   |deigs|: 3.310e-04  t[s]:     59.40
	FillingsUpdate:  mu: -0.078605225  nElectrons: 9.000000  magneticMoment: [ Abs: 0.74036  Tot: -0.74000 ]
SCF: Cycle: 27   F: -20.182710530614198   dF: -1.528e-08   |Residual|: 6.651e-06   |deigs|: 2.632e-04  t[s]:     61.42
	FillingsUpdate:  mu: -0.078613699  nElectrons: 9.000000  magneticMoment: [ Abs: 0.74033  Tot: -0.74000 ]
SCF: Cycle: 28   F: -20.182710533239135   dF: -2.625e-09   |Residual|: 4.604e-06   |deigs|: 9.216e-04  t[s]:     63.41
	FillingsUpdate:  mu: -0.078617385  nElectrons: 9.000000  magneticMoment: [ Abs: 0.74030  Tot: -0.74000 ]
SCF: Cycle: 29   F: -20.182710535382750   dF: -2.144e-09   |Residual|: 2.354e-06   |deigs|: 6.807e-04  t[s]:     65.37
SCF: Converged (|Delta E|<1.000000e-08 for 2 iters).


# Ionic positions in lattice coordinates:
ion Cs   0.000000000000000   0.000000000000000   0.000000000000000 0

# Forces in Lattice coordinates:
force Cs  -0.000000000000000   0.000000000000000   0.000000000000000 0

# Energy components:
   Eewald =      -18.0480261003326561
       EH =       -1.7670718007106325
     Eloc =       -5.8134141187384234
      Enl =        3.4380298248570189
   Epulay =        0.0000000264484078
      Exc =       -3.1514648571936852
       KE =        5.1592367848374963
-------------------------------------
     Etot =      -20.1827102408324706
       TS =        0.0000002945502791
-------------------------------------
        F =      -20.1827105353827498

IonicMinimize: Iter:   0  F: -20.182710535382750  |grad|_K:  0.000e+00  t[s]:     65.49
IonicMinimize: Converged (|grad|_K<1.000000e-04).

#--- Lowdin population analysis ---
# oxidation-state Cs +0.114
# magnetic-moments Cs -0.632

End date and time: Sun Feb  6 13:10:14 2022  (Duration: 0-0:01:05.51)
Done!
scale=3
magnetization=-0.74
--------------------------------------------------------------------------
The library attempted to open the following supporting CUDA libraries,
but each of them failed.  CUDA-aware support is disabled.
libcuda.so.1: cannot open shared object file: No such file or directory
libcuda.dylib: cannot open shared object file: No such file or directory
/usr/lib64/libcuda.so.1: cannot open shared object file: No such file or directory
/usr/lib64/libcuda.dylib: cannot open shared object file: No such file or directory
If you are not interested in CUDA-aware support, then run with
--mca opal_warn_on_missing_libcuda 0 to suppress this message.  If you are interested
in CUDA-aware support, then try setting LD_LIBRARY_PATH to the location
of libcuda.so.1 to get passed this issue.
--------------------------------------------------------------------------
--------------------------------------------------------------------------
No OpenFabrics connection schemes reported that they were able to be
used on a specific port.  As such, the openib BTL (OpenFabrics
support) will be disabled for this port.

  Local host:           d-6-8-2
  Local device:         mlx5_1
  Local port:           1
  CPCs attempted:       rdmacm, udcm
--------------------------------------------------------------------------

*************** JDFTx 1.6.0 (git hash 42ebbcc2) ***************

Start date and time: Sun Feb  6 13:10:15 2022
Executable jdftx with command-line: -i Alkali.in
Running on hosts (process indices):  d-6-8-2 (0-18)
Divided in process groups (process indices):  0 (0)  1 (1)  2 (2)  3 (3)  4 (4)  5 (5)  6 (6)  7 (7)  8 (8)  9 (9)  10 (10)  11 (11)  12 (12)  13 (13)  14 (14)  15 (15)  16 (16)  17 (17)  18 (18)
Resource initialization completed at t[s]:      0.00
Run totals: 19 processes, 48 threads, 0 GPUs


Input parsed successfully to the following command list (including defaults):

basis kpoint-dependent
coords-type Lattice
core-overlap-check vector
coulomb-interaction Slab 001
davidson-band-ratio 1.1
dump End None
dump-name $INPUT.$VAR
elec-cutoff 20
elec-eigen-algo Davidson
elec-ex-corr gga-PBE
elec-initial-magnetization -0.740000 yes
elec-smearing Fermi 1e-05
electronic-minimize  \
	dirUpdateScheme      FletcherReeves \
	linminMethod         DirUpdateRecommended \
	nIterations          100 \
	history              15 \
	knormThreshold       0 \
	energyDiffThreshold  1e-08 \
	nEnergyDiff          2 \
	alphaTstart          1 \
	alphaTmin            1e-10 \
	updateTestStepSize   yes \
	alphaTreduceFactor   0.1 \
	alphaTincreaseFactor 3 \
	nAlphaAdjustMax      3 \
	wolfeEnergy          0.0001 \
	wolfeGradient        0.9 \
	fdTest               no
electronic-scf  \
	nIterations	10000 \
	energyDiffThreshold	1e-08 \
	residualThreshold	1e-07 \
	mixFraction	0.5 \
	qMetric	0.8 \
	history	10 \
	nEigSteps	2 \
	eigDiffThreshold	1e-08 \
	mixedVariable	Density \
	qKerker	0.8 \
	qKappa	-1 \
	verbose	no \
	mixFractionMag	1.5
exchange-regularization WignerSeitzTruncated
fluid None
fluid-ex-corr (null) lda-PZ
fluid-gummel-loop 10 1.000000e-05
fluid-minimize  \
	dirUpdateScheme      PolakRibiere \
	linminMethod         DirUpdateRecommended \
	nIterations          100 \
	history              15 \
	knormThreshold       0 \
	energyDiffThreshold  0 \
	nEnergyDiff          2 \
	alphaTstart          1 \
	alphaTmin            1e-10 \
	updateTestStepSize   yes \
	alphaTreduceFactor   0.1 \
	alphaTincreaseFactor 3 \
	nAlphaAdjustMax      3 \
	wolfeEnergy          0.0001 \
	wolfeGradient        0.9 \
	fdTest               no
fluid-solvent H2O 55.338 ScalarEOS \
	epsBulk 78.4 \
	pMol 0.92466 \
	epsInf 1.77 \
	Pvap 1.06736e-10 \
	sigmaBulk 4.62e-05 \
	Rvdw 2.61727 \
	Res 1.42 \
	tauNuc 343133 \
	poleEl 15 7 1
forces-output-coords Positions
ion Cs   0.000000000000000   0.000000000000000   0.000000000000000 0
ion-species SG15/$ID_ONCV_PBE.upf
ion-width 0
ionic-minimize  \
	dirUpdateScheme      L-BFGS \
	linminMethod         DirUpdateRecommended \
	nIterations          0 \
	history              15 \
	knormThreshold       0.0001 \
	energyDiffThreshold  1e-06 \
	nEnergyDiff          2 \
	alphaTstart          1 \
	alphaTmin            1e-10 \
	updateTestStepSize   yes \
	alphaTreduceFactor   0.1 \
	alphaTincreaseFactor 3 \
	nAlphaAdjustMax      3 \
	wolfeEnergy          0.0001 \
	wolfeGradient        0.9 \
	fdTest               no
kpoint   0.000000000000   0.000000000000   0.000000000000  1.00000000000000
kpoint-folding 12 12 1 
latt-move-scale 1 1 1
latt-scale 3 3 1 
lattice  \
	   4.727486978767153   -2.363743489383575    0.000000000000000  \
	  -0.000000000000000    4.094123819672498    0.000000000000000  \
	   0.000000000000000    0.000000000000000   40.000000000000000 
lattice-minimize  \
	dirUpdateScheme      L-BFGS \
	linminMethod         DirUpdateRecommended \
	nIterations          0 \
	history              15 \
	knormThreshold       0 \
	energyDiffThreshold  1e-06 \
	nEnergyDiff          2 \
	alphaTstart          1 \
	alphaTmin            1e-10 \
	updateTestStepSize   yes \
	alphaTreduceFactor   0.1 \
	alphaTincreaseFactor 3 \
	nAlphaAdjustMax      3 \
	wolfeEnergy          0.0001 \
	wolfeGradient        0.9 \
	fdTest               no
lcao-params -1 1e-06 1e-05
pcm-variant GLSSA13
spintype z-spin
subspace-rotation-factor 1 yes
symmetries automatic
symmetry-threshold 0.0001



---------- Setting up symmetries ----------

Found 24 point-group symmetries of the bravais lattice
Found 24 space-group symmetries with basis
Applied RMS atom displacement 0 bohrs to make symmetries exact.

---------- Initializing the Grid ----------
R = 
[      14.1825     -7.09123            0  ]
[            0      12.2824            0  ]
[            0            0           40  ]
unit cell volume = 6967.77
G =
[   0.443025   0.255781         -0  ]
[          0   0.511561         -0  ]
[         -0         -0    0.15708  ]
Minimum fftbox size, Smin = [  60  60  164  ]
Chosen fftbox size, S = [  60  60  168  ]

---------- Exchange Correlation functional ----------
Initalized PBE GGA exchange.
Initalized PBE GGA correlation.

---------- Setting up pseudopotentials ----------
Width of ionic core gaussian charges (only for fluid interactions / plotting) set to 0

Reading pseudopotential file '/home/gridsan/aligho/DFT/build-Nov24/pseudopotentials/SG15/Cs_ONCV_PBE.upf':
  'Cs' pseudopotential, 'PBE' functional
  Generated using ONCVPSP code by D. R. Hamann
  Author: Martin Schlipf and Francois Gygi  Date: 150915.
  9 valence electrons, 3 orbitals, 6 projectors, 2414 radial grid points, with lMax = 2
  Transforming local potential to a uniform radial grid of dG=0.02 with 1489 points.
  Transforming nonlocal projectors to a uniform radial grid of dG=0.02 with 432 points.
    5S    l: 0   occupation:  2.0   eigenvalue: -0.982388
    5P    l: 1   occupation:  6.0   eigenvalue: -0.496786
    6S    l: 0   occupation:  1.0   eigenvalue: -0.076670
  Transforming atomic orbitals to a uniform radial grid of dG=0.02 with 432 points.
  Core radius for overlap checks: 2.06 bohrs.
  Reading pulay file /home/gridsan/aligho/DFT/build-Nov24/pseudopotentials/SG15/Cs_ONCV_PBE.pulay ... using dE_dnG = -1.008762e-04 computed for Ecut = 20.

Initialized 1 species with 1 total atoms.

Folded 1 k-points by 12x12x1 to 144 k-points.

---------- Setting up k-points, bands, fillings ----------
Reduced to 19 k-points under symmetry. 
Computing the number of bands and number of electrons
Calculating initial fillings.
nElectrons:   9.000000   nBands: 6   nStates: 38

----- Setting up reduced wavefunction bases (one per k-point) -----
average nbasis = 29766.104 , ideal nbasis = 29766.845

---------- Setting up coulomb interaction ----------
Initialized slab truncation along lattice direction 001

---------- Setting up 2D ewald sum ----------
Optimum gaussian width for ewald sums = 7.873530 bohr.
Real space sums over 289 unit cells with max indices [  8  8  0  ]
Reciprocal space sums over 81 terms with max indices [  4  4  0  ]

---------- Allocating electronic variables ----------
Initializing wave functions:  linear combination of atomic orbitals
Note: number of bands (6) exceeds available atomic orbitals (5)
Cs pseudo-atom occupations:   s ( 2 1 )  p ( 6 )
[d-6-8-2:14400] 18 more processes have sent help message help-mpi-common-cuda.txt / dlopen failed
[d-6-8-2:14400] Set MCA parameter "orte_base_help_aggregate" to 0 to see all help / error messages
[d-6-8-2:14400] 18 more processes have sent help message help-mpi-btl-openib-cpc-base.txt / no cpcs for port
	FillingsUpdate:  mu: -0.081648862  nElectrons: 9.000000  magneticMoment: [ Abs: 0.74000  Tot: -0.74000 ]
LCAOMinimize: Iter:   0  F: -20.1722641778620861  |grad|_K:  1.196e-05  alpha:  1.000e+00
	FillingsUpdate:  mu: -0.081647196  nElectrons: 9.000000  magneticMoment: [ Abs: 0.74000  Tot: -0.74000 ]
LCAOMinimize: Iter:   1  F: -20.1722642750659418  |grad|_K:  7.612e-08  alpha:  9.930e-01  linmin: -1.206e-02  cgtest:  2.171e-01  t[s]:      8.71
LCAOMinimize: Encountered beta<0, resetting CG.
	FillingsUpdate:  mu: -0.081647208  nElectrons: 9.000000  magneticMoment: [ Abs: 0.74000  Tot: -0.74000 ]
LCAOMinimize: Iter:   2  F: -20.1722642750691854  |grad|_K:  1.115e-08  alpha:  8.520e-01  linmin: -1.401e-01  cgtest:  9.995e-01  t[s]:     11.06
LCAOMinimize: Encountered beta<0, resetting CG.
LCAOMinimize: Converged (|Delta F|<1.000000e-06 for 2 iters).


---- Citations for features of the code used in this run ----

   Software package:
      R. Sundararaman, K. Letchworth-Weaver, K.A. Schwarz, D. Gunceler, Y. Ozhabes and T.A. Arias, 'JDFTx: software for joint density-functional theory', SoftwareX 6, 278 (2017)

   gga-PBE exchange-correlation functional:
      J.P. Perdew, K. Burke and M. Ernzerhof, Phys. Rev. Lett. 77, 3865 (1996)

   Pseudopotentials:
      M Schlipf and F Gygi, Comput. Phys. Commun. 196, 36 (2015)

   Truncated Coulomb potentials:
      R. Sundararaman and T.A. Arias, Phys. Rev. B 87, 165122 (2013)

This list may not be complete. Please suggest additional citations or
report any other bugs at https://github.com/shankar1729/jdftx/issues

Initialization completed successfully at t[s]:     11.22


-------- Electronic minimization -----------
Will mix electronic density at each iteration.
	FillingsUpdate:  mu: -0.081647208  nElectrons: 9.000000  magneticMoment: [ Abs: 0.74000  Tot: -0.74000 ]
	FillingsUpdate:  mu: -0.083223123  nElectrons: 9.000000  magneticMoment: [ Abs: 0.74000  Tot: -0.74000 ]
SCF: Cycle:  0   F: -20.174757937872158   dF: -2.494e-03   |Residual|: 5.297e-03   |deigs|: 1.735e-01  t[s]:     15.91
	FillingsUpdate:  mu: -0.083649159  nElectrons: 9.000000  magneticMoment: [ Abs: 0.74017  Tot: -0.74000 ]
SCF: Cycle:  1   F: -20.174960503178443   dF: -2.026e-04   |Residual|: 4.590e-03   |deigs|: 4.860e-03  t[s]:     19.57
	FillingsUpdate:  mu: -0.084265896  nElectrons: 9.000000  magneticMoment: [ Abs: 0.74198  Tot: -0.74000 ]
SCF: Cycle:  2   F: -20.175062796575400   dF: -1.023e-04   |Residual|: 3.547e-03   |deigs|: 2.869e-03  t[s]:     23.36
	FillingsUpdate:  mu: -0.084233916  nElectrons: 9.000000  magneticMoment: [ Abs: 0.74349  Tot: -0.74000 ]
SCF: Cycle:  3   F: -20.175141006557677   dF: -7.821e-05   |Residual|: 2.751e-03   |deigs|: 1.524e-03  t[s]:     27.19
	FillingsUpdate:  mu: -0.083610094  nElectrons: 9.000000  magneticMoment: [ Abs: 0.74081  Tot: -0.74000 ]
SCF: Cycle:  4   F: -20.175178732564557   dF: -3.773e-05   |Residual|: 1.300e-03   |deigs|: 1.404e-03  t[s]:     31.03
	FillingsUpdate:  mu: -0.083372037  nElectrons: 9.000000  magneticMoment: [ Abs: 0.74131  Tot: -0.74000 ]
SCF: Cycle:  5   F: -20.175197140640389   dF: -1.841e-05   |Residual|: 8.630e-04   |deigs|: 7.000e-04  t[s]:     34.92
	FillingsUpdate:  mu: -0.083248373  nElectrons: 9.000000  magneticMoment: [ Abs: 0.74141  Tot: -0.74000 ]
SCF: Cycle:  6   F: -20.175206587964635   dF: -9.447e-06   |Residual|: 6.711e-04   |deigs|: 4.505e-04  t[s]:     38.95
	FillingsUpdate:  mu: -0.082834533  nElectrons: 9.000000  magneticMoment: [ Abs: 0.74176  Tot: -0.74000 ]
SCF: Cycle:  7   F: -20.175208558012759   dF: -1.970e-06   |Residual|: 5.661e-04   |deigs|: 3.982e-04  t[s]:     42.99
	FillingsUpdate:  mu: -0.081913061  nElectrons: 9.000000  magneticMoment: [ Abs: 0.74410  Tot: -0.74000 ]
SCF: Cycle:  8   F: -20.175203794167036   dF: +4.764e-06   |Residual|: 4.383e-04   |deigs|: 9.369e-04  t[s]:     47.10
	FillingsUpdate:  mu: -0.081235980  nElectrons: 9.000000  magneticMoment: [ Abs: 0.74345  Tot: -0.74000 ]
SCF: Cycle:  9   F: -20.175203479601734   dF: +3.146e-07   |Residual|: 4.219e-04   |deigs|: 8.631e-04  t[s]:     51.22
	FillingsUpdate:  mu: -0.081265638  nElectrons: 9.000000  magneticMoment: [ Abs: 0.74177  Tot: -0.74000 ]
SCF: Cycle: 10   F: -20.175211701181937   dF: -8.222e-06   |Residual|: 2.927e-04   |deigs|: 3.966e-04  t[s]:     55.43
	FillingsUpdate:  mu: -0.080807000  nElectrons: 9.000000  magneticMoment: [ Abs: 0.74499  Tot: -0.74000 ]
SCF: Cycle: 11   F: -20.175213495881199   dF: -1.795e-06   |Residual|: 2.664e-04   |deigs|: 7.013e-04  t[s]:     59.67
	FillingsUpdate:  mu: -0.080335054  nElectrons: 9.000000  magneticMoment: [ Abs: 0.74486  Tot: -0.74000 ]
SCF: Cycle: 12   F: -20.175213626301375   dF: -1.304e-07   |Residual|: 2.619e-04   |deigs|: 5.039e-04  t[s]:     63.88
	FillingsUpdate:  mu: -0.079940052  nElectrons: 9.000000  magneticMoment: [ Abs: 0.74360  Tot: -0.74000 ]
SCF: Cycle: 13   F: -20.175213359301509   dF: +2.670e-07   |Residual|: 2.399e-04   |deigs|: 4.517e-04  t[s]:     68.09
	FillingsUpdate:  mu: -0.079731697  nElectrons: 9.000000  magneticMoment: [ Abs: 0.74356  Tot: -0.74000 ]
SCF: Cycle: 14   F: -20.175215602016014   dF: -2.243e-06   |Residual|: 2.211e-04   |deigs|: 3.546e-04  t[s]:     72.30
	FillingsUpdate:  mu: -0.079227733  nElectrons: 9.000000  magneticMoment: [ Abs: 0.74240  Tot: -0.74000 ]
SCF: Cycle: 15   F: -20.175218257731327   dF: -2.656e-06   |Residual|: 1.696e-04   |deigs|: 5.825e-04  t[s]:     76.49
	FillingsUpdate:  mu: -0.078894955  nElectrons: 9.000000  magneticMoment: [ Abs: 0.74176  Tot: -0.74000 ]
SCF: Cycle: 16   F: -20.175219334229290   dF: -1.076e-06   |Residual|: 1.240e-04   |deigs|: 4.157e-04  t[s]:     80.65
	FillingsUpdate:  mu: -0.078841958  nElectrons: 9.000000  magneticMoment: [ Abs: 0.74144  Tot: -0.74000 ]
SCF: Cycle: 17   F: -20.175219723436250   dF: -3.892e-07   |Residual|: 9.002e-05   |deigs|: 1.171e-04  t[s]:     84.84
	FillingsUpdate:  mu: -0.078841665  nElectrons: 9.000000  magneticMoment: [ Abs: 0.74146  Tot: -0.74000 ]
SCF: Cycle: 18   F: -20.175220118267365   dF: -3.948e-07   |Residual|: 6.413e-05   |deigs|: 5.748e-05  t[s]:     89.08
	FillingsUpdate:  mu: -0.078874115  nElectrons: 9.000000  magneticMoment: [ Abs: 0.74142  Tot: -0.74000 ]
SCF: Cycle: 19   F: -20.175220233676885   dF: -1.154e-07   |Residual|: 4.163e-05   |deigs|: 8.415e-05  t[s]:     93.26
	FillingsUpdate:  mu: -0.078871921  nElectrons: 9.000000  magneticMoment: [ Abs: 0.74154  Tot: -0.74000 ]
SCF: Cycle: 20   F: -20.175220291192279   dF: -5.752e-08   |Residual|: 2.246e-05   |deigs|: 1.638e-04  t[s]:     97.48
	FillingsUpdate:  mu: -0.078865629  nElectrons: 9.000000  magneticMoment: [ Abs: 0.74148  Tot: -0.74000 ]
SCF: Cycle: 21   F: -20.175220336574650   dF: -4.538e-08   |Residual|: 2.054e-05   |deigs|: 4.453e-04  t[s]:    101.76
	FillingsUpdate:  mu: -0.078865076  nElectrons: 9.000000  magneticMoment: [ Abs: 0.74156  Tot: -0.74000 ]
SCF: Cycle: 22   F: -20.175220383260392   dF: -4.669e-08   |Residual|: 1.192e-05   |deigs|: 3.192e-04  t[s]:    106.04
	FillingsUpdate:  mu: -0.078865114  nElectrons: 9.000000  magneticMoment: [ Abs: 0.74159  Tot: -0.74000 ]
SCF: Cycle: 23   F: -20.175220388653088   dF: -5.393e-09   |Residual|: 7.944e-06   |deigs|: 6.552e-05  t[s]:    110.21
	FillingsUpdate:  mu: -0.078866380  nElectrons: 9.000000  magneticMoment: [ Abs: 0.74156  Tot: -0.74000 ]
SCF: Cycle: 24   F: -20.175220388575863   dF: +7.723e-11   |Residual|: 7.497e-06   |deigs|: 7.486e-05  t[s]:    114.43
	FillingsUpdate:  mu: -0.078872310  nElectrons: 9.000000  magneticMoment: [ Abs: 0.74151  Tot: -0.74000 ]
SCF: Cycle: 25   F: -20.175220393661014   dF: -5.085e-09   |Residual|: 5.317e-06   |deigs|: 4.300e-05  t[s]:    118.67
	FillingsUpdate:  mu: -0.078876319  nElectrons: 9.000000  magneticMoment: [ Abs: 0.74145  Tot: -0.74000 ]
SCF: Cycle: 26   F: -20.175220398909882   dF: -5.249e-09   |Residual|: 5.777e-06   |deigs|: 2.309e-05  t[s]:    122.85
SCF: Converged (|Delta E|<1.000000e-08 for 2 iters).


# Ionic positions in lattice coordinates:
ion Cs   0.000000000000000   0.000000000000000   0.000000000000000 0

# Forces in Lattice coordinates:
force Cs  -0.000000000000000  -0.000000000000000   0.000000000000000 0

# Energy components:
   Eewald =      -12.0320174002217755
       EH =        4.0267926155652880
     Eloc =      -17.5976720732621850
      Enl =        3.4323299363103530
   Epulay =       -0.0000000107257212
      Exc =       -3.1113299044032305
       KE =        5.1066767323776681
-------------------------------------
     Etot =      -20.1752201043596031
       TS =        0.0000002945502791
-------------------------------------
        F =      -20.1752203989098824

IonicMinimize: Iter:   0  F: -20.175220398909882  |grad|_K:  0.000e+00  t[s]:    123.10
IonicMinimize: Converged (|grad|_K<1.000000e-04).

#--- Lowdin population analysis ---
# oxidation-state Cs +0.070
# magnetic-moments Cs -0.674

End date and time: Sun Feb  6 13:12:18 2022  (Duration: 0-0:02:03.16)
Done!
scale=4
magnetization=-0.74
--------------------------------------------------------------------------
The library attempted to open the following supporting CUDA libraries,
but each of them failed.  CUDA-aware support is disabled.
libcuda.so.1: cannot open shared object file: No such file or directory
libcuda.dylib: cannot open shared object file: No such file or directory
/usr/lib64/libcuda.so.1: cannot open shared object file: No such file or directory
/usr/lib64/libcuda.dylib: cannot open shared object file: No such file or directory
If you are not interested in CUDA-aware support, then run with
--mca opal_warn_on_missing_libcuda 0 to suppress this message.  If you are interested
in CUDA-aware support, then try setting LD_LIBRARY_PATH to the location
of libcuda.so.1 to get passed this issue.
--------------------------------------------------------------------------
--------------------------------------------------------------------------
No OpenFabrics connection schemes reported that they were able to be
used on a specific port.  As such, the openib BTL (OpenFabrics
support) will be disabled for this port.

  Local host:           d-6-8-2
  Local device:         mlx5_1
  Local port:           1
  CPCs attempted:       rdmacm, udcm
--------------------------------------------------------------------------

*************** JDFTx 1.6.0 (git hash 42ebbcc2) ***************

Start date and time: Sun Feb  6 13:12:19 2022
Executable jdftx with command-line: -i Alkali.in
Running on hosts (process indices):  d-6-8-2 (0-18)
Divided in process groups (process indices):  0 (0)  1 (1)  2 (2)  3 (3)  4 (4)  5 (5)  6 (6)  7 (7)  8 (8)  9 (9)  10 (10)  11 (11)  12 (12)  13 (13)  14 (14)  15 (15)  16 (16)  17 (17)  18 (18)
Resource initialization completed at t[s]:      0.00
Run totals: 19 processes, 48 threads, 0 GPUs


Input parsed successfully to the following command list (including defaults):

basis kpoint-dependent
coords-type Lattice
core-overlap-check vector
coulomb-interaction Slab 001
davidson-band-ratio 1.1
dump End None
dump-name $INPUT.$VAR
elec-cutoff 20
elec-eigen-algo Davidson
elec-ex-corr gga-PBE
elec-initial-magnetization -0.740000 yes
elec-smearing Fermi 1e-05
electronic-minimize  \
	dirUpdateScheme      FletcherReeves \
	linminMethod         DirUpdateRecommended \
	nIterations          100 \
	history              15 \
	knormThreshold       0 \
	energyDiffThreshold  1e-08 \
	nEnergyDiff          2 \
	alphaTstart          1 \
	alphaTmin            1e-10 \
	updateTestStepSize   yes \
	alphaTreduceFactor   0.1 \
	alphaTincreaseFactor 3 \
	nAlphaAdjustMax      3 \
	wolfeEnergy          0.0001 \
	wolfeGradient        0.9 \
	fdTest               no
electronic-scf  \
	nIterations	10000 \
	energyDiffThreshold	1e-08 \
	residualThreshold	1e-07 \
	mixFraction	0.5 \
	qMetric	0.8 \
	history	10 \
	nEigSteps	2 \
	eigDiffThreshold	1e-08 \
	mixedVariable	Density \
	qKerker	0.8 \
	qKappa	-1 \
	verbose	no \
	mixFractionMag	1.5
exchange-regularization WignerSeitzTruncated
fluid None
fluid-ex-corr (null) lda-PZ
fluid-gummel-loop 10 1.000000e-05
fluid-minimize  \
	dirUpdateScheme      PolakRibiere \
	linminMethod         DirUpdateRecommended \
	nIterations          100 \
	history              15 \
	knormThreshold       0 \
	energyDiffThreshold  0 \
	nEnergyDiff          2 \
	alphaTstart          1 \
	alphaTmin            1e-10 \
	updateTestStepSize   yes \
	alphaTreduceFactor   0.1 \
	alphaTincreaseFactor 3 \
	nAlphaAdjustMax      3 \
	wolfeEnergy          0.0001 \
	wolfeGradient        0.9 \
	fdTest               no
fluid-solvent H2O 55.338 ScalarEOS \
	epsBulk 78.4 \
	pMol 0.92466 \
	epsInf 1.77 \
	Pvap 1.06736e-10 \
	sigmaBulk 4.62e-05 \
	Rvdw 2.61727 \
	Res 1.42 \
	tauNuc 343133 \
	poleEl 15 7 1
forces-output-coords Positions
ion Cs   0.000000000000000   0.000000000000000   0.000000000000000 0
ion-species SG15/$ID_ONCV_PBE.upf
ion-width 0
ionic-minimize  \
	dirUpdateScheme      L-BFGS \
	linminMethod         DirUpdateRecommended \
	nIterations          0 \
	history              15 \
	knormThreshold       0.0001 \
	energyDiffThreshold  1e-06 \
	nEnergyDiff          2 \
	alphaTstart          1 \
	alphaTmin            1e-10 \
	updateTestStepSize   yes \
	alphaTreduceFactor   0.1 \
	alphaTincreaseFactor 3 \
	nAlphaAdjustMax      3 \
	wolfeEnergy          0.0001 \
	wolfeGradient        0.9 \
	fdTest               no
kpoint   0.000000000000   0.000000000000   0.000000000000  1.00000000000000
kpoint-folding 12 12 1 
latt-move-scale 1 1 1
latt-scale 4 4 1 
lattice  \
	   4.727486978767153   -2.363743489383575    0.000000000000000  \
	  -0.000000000000000    4.094123819672498    0.000000000000000  \
	   0.000000000000000    0.000000000000000   40.000000000000000 
lattice-minimize  \
	dirUpdateScheme      L-BFGS \
	linminMethod         DirUpdateRecommended \
	nIterations          0 \
	history              15 \
	knormThreshold       0 \
	energyDiffThreshold  1e-06 \
	nEnergyDiff          2 \
	alphaTstart          1 \
	alphaTmin            1e-10 \
	updateTestStepSize   yes \
	alphaTreduceFactor   0.1 \
	alphaTincreaseFactor 3 \
	nAlphaAdjustMax      3 \
	wolfeEnergy          0.0001 \
	wolfeGradient        0.9 \
	fdTest               no
lcao-params -1 1e-06 1e-05
pcm-variant GLSSA13
spintype z-spin
subspace-rotation-factor 1 yes
symmetries automatic
symmetry-threshold 0.0001



---------- Setting up symmetries ----------

Found 24 point-group symmetries of the bravais lattice
Found 24 space-group symmetries with basis
Applied RMS atom displacement 0 bohrs to make symmetries exact.

---------- Initializing the Grid ----------
R = 
[      18.9099     -9.45497            0  ]
[            0      16.3765            0  ]
[            0            0           40  ]
unit cell volume = 12387.1
G =
[   0.332269   0.191835         -0  ]
[          0   0.383671         -0  ]
[         -0         -0    0.15708  ]
Minimum fftbox size, Smin = [  80  80  164  ]
Chosen fftbox size, S = [  80  80  168  ]

---------- Exchange Correlation functional ----------
Initalized PBE GGA exchange.
Initalized PBE GGA correlation.

---------- Setting up pseudopotentials ----------
Width of ionic core gaussian charges (only for fluid interactions / plotting) set to 0

Reading pseudopotential file '/home/gridsan/aligho/DFT/build-Nov24/pseudopotentials/SG15/Cs_ONCV_PBE.upf':
  'Cs' pseudopotential, 'PBE' functional
  Generated using ONCVPSP code by D. R. Hamann
  Author: Martin Schlipf and Francois Gygi  Date: 150915.
  9 valence electrons, 3 orbitals, 6 projectors, 2414 radial grid points, with lMax = 2
  Transforming local potential to a uniform radial grid of dG=0.02 with 1489 points.
  Transforming nonlocal projectors to a uniform radial grid of dG=0.02 with 432 points.
    5S    l: 0   occupation:  2.0   eigenvalue: -0.982388
    5P    l: 1   occupation:  6.0   eigenvalue: -0.496786
    6S    l: 0   occupation:  1.0   eigenvalue: -0.076670
  Transforming atomic orbitals to a uniform radial grid of dG=0.02 with 432 points.
  Core radius for overlap checks: 2.06 bohrs.
  Reading pulay file /home/gridsan/aligho/DFT/build-Nov24/pseudopotentials/SG15/Cs_ONCV_PBE.pulay ... using dE_dnG = -1.008762e-04 computed for Ecut = 20.

Initialized 1 species with 1 total atoms.

Folded 1 k-points by 12x12x1 to 144 k-points.

---------- Setting up k-points, bands, fillings ----------
Reduced to 19 k-points under symmetry. 
Computing the number of bands and number of electrons
Calculating initial fillings.
nElectrons:   9.000000   nBands: 6   nStates: 38

----- Setting up reduced wavefunction bases (one per k-point) -----
average nbasis = 52924.021 , ideal nbasis = 52918.836

---------- Setting up coulomb interaction ----------
Initialized slab truncation along lattice direction 001

---------- Setting up 2D ewald sum ----------
Optimum gaussian width for ewald sums = 10.498040 bohr.
Real space sums over 289 unit cells with max indices [  8  8  0  ]
Reciprocal space sums over 81 terms with max indices [  4  4  0  ]

---------- Allocating electronic variables ----------
Initializing wave functions:  linear combination of atomic orbitals
Note: number of bands (6) exceeds available atomic orbitals (5)
Cs pseudo-atom occupations:   s ( 2 1 )  p ( 6 )
[d-6-8-2:10272] 18 more processes have sent help message help-mpi-common-cuda.txt / dlopen failed
[d-6-8-2:10272] Set MCA parameter "orte_base_help_aggregate" to 0 to see all help / error messages
[d-6-8-2:10272] 18 more processes have sent help message help-mpi-btl-openib-cpc-base.txt / no cpcs for port
	FillingsUpdate:  mu: -0.077853003  nElectrons: 9.000000  magneticMoment: [ Abs: 0.74000  Tot: -0.74000 ]
LCAOMinimize: Iter:   0  F: -20.1689264909672765  |grad|_K:  3.654e-06  alpha:  1.000e+00
	FillingsUpdate:  mu: -0.077852285  nElectrons: 9.000000  magneticMoment: [ Abs: 0.74000  Tot: -0.74000 ]
LCAOMinimize: Iter:   1  F: -20.1689265000294959  |grad|_K:  1.699e-08  alpha:  9.924e-01  linmin: -5.271e-03  cgtest:  1.265e-01  t[s]:     14.92
LCAOMinimize: Encountered beta<0, resetting CG.
LCAOMinimize: 	Step increased F by 1.953993e-13, reducing alpha to 2.644879e-02.
LCAOMinimize: 	Step increased F by 2.629008e-13, reducing alpha to 2.644879e-03.
LCAOMinimize: 	Step increased F by 4.973799e-14, reducing alpha to 2.644879e-04.
LCAOMinimize: 	Step failed to reduce F after 3 attempts. Quitting step.
LCAOMinimize: 	Undoing step.
LCAOMinimize: 	Step failed along negative gradient direction.
LCAOMinimize: Probably at roundoff error limit. (Stopping)


---- Citations for features of the code used in this run ----

   Software package:
      R. Sundararaman, K. Letchworth-Weaver, K.A. Schwarz, D. Gunceler, Y. Ozhabes and T.A. Arias, 'JDFTx: software for joint density-functional theory', SoftwareX 6, 278 (2017)

   gga-PBE exchange-correlation functional:
      J.P. Perdew, K. Burke and M. Ernzerhof, Phys. Rev. Lett. 77, 3865 (1996)

   Pseudopotentials:
      M Schlipf and F Gygi, Comput. Phys. Commun. 196, 36 (2015)

   Truncated Coulomb potentials:
      R. Sundararaman and T.A. Arias, Phys. Rev. B 87, 165122 (2013)

This list may not be complete. Please suggest additional citations or
report any other bugs at https://github.com/shankar1729/jdftx/issues

Initialization completed successfully at t[s]:     25.99


-------- Electronic minimization -----------
Will mix electronic density at each iteration.
	FillingsUpdate:  mu: -0.077852285  nElectrons: 9.000000  magneticMoment: [ Abs: 0.74000  Tot: -0.74000 ]
	FillingsUpdate:  mu: -0.077982355  nElectrons: 9.000000  magneticMoment: [ Abs: 0.74000  Tot: -0.74000 ]
SCF: Cycle:  0   F: -20.169099416486770   dF: -1.729e-04   |Residual|: 1.528e-03   |deigs|: 1.725e-01  t[s]:     34.05
	FillingsUpdate:  mu: -0.077987562  nElectrons: 9.000000  magneticMoment: [ Abs: 0.74419  Tot: -0.74000 ]
SCF: Cycle:  1   F: -20.169106164519352   dF: -6.748e-06   |Residual|: 5.103e-04   |deigs|: 6.450e-03  t[s]:     40.37
	FillingsUpdate:  mu: -0.077987901  nElectrons: 9.000000  magneticMoment: [ Abs: 0.74431  Tot: -0.74000 ]
SCF: Cycle:  2   F: -20.169108316891982   dF: -2.152e-06   |Residual|: 3.346e-04   |deigs|: 1.222e-03  t[s]:     46.78
	FillingsUpdate:  mu: -0.077994247  nElectrons: 9.000000  magneticMoment: [ Abs: 0.74518  Tot: -0.74000 ]
SCF: Cycle:  3   F: -20.169109493978617   dF: -1.177e-06   |Residual|: 2.620e-04   |deigs|: 6.176e-04  t[s]:     53.31
	FillingsUpdate:  mu: -0.077983349  nElectrons: 9.000000  magneticMoment: [ Abs: 0.74520  Tot: -0.74000 ]
SCF: Cycle:  4   F: -20.169110503148769   dF: -1.009e-06   |Residual|: 2.032e-04   |deigs|: 5.697e-04  t[s]:     59.95
	FillingsUpdate:  mu: -0.077970644  nElectrons: 9.000000  magneticMoment: [ Abs: 0.74518  Tot: -0.74000 ]
SCF: Cycle:  5   F: -20.169111146290792   dF: -6.431e-07   |Residual|: 1.596e-04   |deigs|: 3.912e-04  t[s]:     66.72
	FillingsUpdate:  mu: -0.077939112  nElectrons: 9.000000  magneticMoment: [ Abs: 0.74519  Tot: -0.74000 ]
SCF: Cycle:  6   F: -20.169111596047546   dF: -4.498e-07   |Residual|: 1.070e-04   |deigs|: 3.638e-04  t[s]:     73.61
	FillingsUpdate:  mu: -0.077911084  nElectrons: 9.000000  magneticMoment: [ Abs: 0.74510  Tot: -0.74000 ]
SCF: Cycle:  7   F: -20.169111889122984   dF: -2.931e-07   |Residual|: 8.609e-05   |deigs|: 4.442e-04  t[s]:     80.60
	FillingsUpdate:  mu: -0.077888075  nElectrons: 9.000000  magneticMoment: [ Abs: 0.74516  Tot: -0.74000 ]
SCF: Cycle:  8   F: -20.169112074384305   dF: -1.853e-07   |Residual|: 6.948e-05   |deigs|: 2.427e-04  t[s]:     87.64
	FillingsUpdate:  mu: -0.077845485  nElectrons: 9.000000  magneticMoment: [ Abs: 0.74514  Tot: -0.74000 ]
SCF: Cycle:  9   F: -20.169112216728710   dF: -1.423e-07   |Residual|: 5.755e-05   |deigs|: 2.531e-04  t[s]:     94.78
	FillingsUpdate:  mu: -0.077809337  nElectrons: 9.000000  magneticMoment: [ Abs: 0.74513  Tot: -0.74000 ]
SCF: Cycle: 10   F: -20.169112220460459   dF: -3.732e-09   |Residual|: 4.898e-05   |deigs|: 3.332e-04  t[s]:    102.06
	FillingsUpdate:  mu: -0.077755783  nElectrons: 9.000000  magneticMoment: [ Abs: 0.74532  Tot: -0.74000 ]
SCF: Cycle: 11   F: -20.169112023496826   dF: +1.970e-07   |Residual|: 4.732e-05   |deigs|: 1.388e-04  t[s]:    109.37
	FillingsUpdate:  mu: -0.077728657  nElectrons: 9.000000  magneticMoment: [ Abs: 0.74540  Tot: -0.74000 ]
SCF: Cycle: 12   F: -20.169111988425062   dF: +3.507e-08   |Residual|: 4.492e-05   |deigs|: 1.042e-04  t[s]:    116.61
	FillingsUpdate:  mu: -0.077706399  nElectrons: 9.000000  magneticMoment: [ Abs: 0.74551  Tot: -0.74000 ]
SCF: Cycle: 13   F: -20.169112032732667   dF: -4.431e-08   |Residual|: 3.670e-05   |deigs|: 1.315e-04  t[s]:    123.96
	FillingsUpdate:  mu: -0.077654077  nElectrons: 9.000000  magneticMoment: [ Abs: 0.74568  Tot: -0.74000 ]
SCF: Cycle: 14   F: -20.169112283142873   dF: -2.504e-07   |Residual|: 3.045e-05   |deigs|: 1.121e-04  t[s]:    131.29
	FillingsUpdate:  mu: -0.077554130  nElectrons: 9.000000  magneticMoment: [ Abs: 0.74574  Tot: -0.74000 ]
SCF: Cycle: 15   F: -20.169112110540642   dF: +1.726e-07   |Residual|: 3.173e-05   |deigs|: 1.303e-04  t[s]:    138.60
	FillingsUpdate:  mu: -0.077496511  nElectrons: 9.000000  magneticMoment: [ Abs: 0.74548  Tot: -0.74000 ]
SCF: Cycle: 16   F: -20.169112283453668   dF: -1.729e-07   |Residual|: 2.699e-05   |deigs|: 9.265e-05  t[s]:    145.95
	FillingsUpdate:  mu: -0.077490065  nElectrons: 9.000000  magneticMoment: [ Abs: 0.74533  Tot: -0.74000 ]
SCF: Cycle: 17   F: -20.169112315242494   dF: -3.179e-08   |Residual|: 2.221e-05   |deigs|: 8.025e-05  t[s]:    153.24
	FillingsUpdate:  mu: -0.077486894  nElectrons: 9.000000  magneticMoment: [ Abs: 0.74519  Tot: -0.74000 ]
SCF: Cycle: 18   F: -20.169112404416953   dF: -8.917e-08   |Residual|: 1.414e-05   |deigs|: 5.818e-05  t[s]:    160.57
	FillingsUpdate:  mu: -0.077486761  nElectrons: 9.000000  magneticMoment: [ Abs: 0.74516  Tot: -0.74000 ]
SCF: Cycle: 19   F: -20.169112480982648   dF: -7.657e-08   |Residual|: 1.021e-05   |deigs|: 4.137e-05  t[s]:    167.77
	FillingsUpdate:  mu: -0.077481783  nElectrons: 9.000000  magneticMoment: [ Abs: 0.74513  Tot: -0.74000 ]
SCF: Cycle: 20   F: -20.169112438458232   dF: +4.252e-08   |Residual|: 8.953e-06   |deigs|: 3.058e-05  t[s]:    175.06
	FillingsUpdate:  mu: -0.077487035  nElectrons: 9.000000  magneticMoment: [ Abs: 0.74513  Tot: -0.74000 ]
SCF: Cycle: 21   F: -20.169112499950348   dF: -6.149e-08   |Residual|: 6.255e-06   |deigs|: 2.337e-05  t[s]:    182.33
	FillingsUpdate:  mu: -0.077497038  nElectrons: 9.000000  magneticMoment: [ Abs: 0.74512  Tot: -0.74000 ]
SCF: Cycle: 22   F: -20.169112490615493   dF: +9.335e-09   |Residual|: 5.046e-06   |deigs|: 2.016e-05  t[s]:    189.23
	FillingsUpdate:  mu: -0.077497385  nElectrons: 9.000000  magneticMoment: [ Abs: 0.74513  Tot: -0.74000 ]
SCF: Cycle: 23   F: -20.169112501837706   dF: -1.122e-08   |Residual|: 3.797e-06   |deigs|: 1.234e-05  t[s]:    196.41
	FillingsUpdate:  mu: -0.077498173  nElectrons: 9.000000  magneticMoment: [ Abs: 0.74513  Tot: -0.74000 ]
SCF: Cycle: 24   F: -20.169112507007885   dF: -5.170e-09   |Residual|: 2.757e-06   |deigs|: 1.126e-05  t[s]:    203.60
	FillingsUpdate:  mu: -0.077496724  nElectrons: 9.000000  magneticMoment: [ Abs: 0.74513  Tot: -0.74000 ]
SCF: Cycle: 25   F: -20.169112508516019   dF: -1.508e-09   |Residual|: 2.233e-06   |deigs|: 1.223e-05  t[s]:    210.86
SCF: Converged (|Delta E|<1.000000e-08 for 2 iters).


# Ionic positions in lattice coordinates:
ion Cs   0.000000000000000   0.000000000000000   0.000000000000000 0

# Forces in Lattice coordinates:
force Cs   0.000000000000000   0.000000000000000   0.000000000000000 0

# Energy components:
   Eewald =       -9.0240130501663280
       EH =        7.0273321833510547
     Eloc =      -23.6142812955578805
      Enl =        3.4379109508490178
   Epulay =        0.0000000422266766
      Exc =       -3.1097321694504716
       KE =        5.1136711247821953
-------------------------------------
     Etot =      -20.1691122139657395
       TS =        0.0000002945502791
-------------------------------------
        F =      -20.1691125085160188

IonicMinimize: Iter:   0  F: -20.169112508516019  |grad|_K:  0.000e+00  t[s]:    211.26
IonicMinimize: Converged (|grad|_K<1.000000e-04).

#--- Lowdin population analysis ---
# oxidation-state Cs +0.003
# magnetic-moments Cs -0.738

End date and time: Sun Feb  6 13:15:51 2022  (Duration: 0-0:03:31.31)
Done!
