The alkali metal is Cs
scale=2
magnetization=-0.14
--------------------------------------------------------------------------
The library attempted to open the following supporting CUDA libraries,
but each of them failed.  CUDA-aware support is disabled.
libcuda.so.1: cannot open shared object file: No such file or directory
libcuda.dylib: cannot open shared object file: No such file or directory
/usr/lib64/libcuda.so.1: cannot open shared object file: No such file or directory
/usr/lib64/libcuda.dylib: cannot open shared object file: No such file or directory
If you are not interested in CUDA-aware support, then run with
--mca opal_warn_on_missing_libcuda 0 to suppress this message.  If you are interested
in CUDA-aware support, then try setting LD_LIBRARY_PATH to the location
of libcuda.so.1 to get passed this issue.
--------------------------------------------------------------------------
--------------------------------------------------------------------------
No OpenFabrics connection schemes reported that they were able to be
used on a specific port.  As such, the openib BTL (OpenFabrics
support) will be disabled for this port.

  Local host:           d-16-5-2
  Local device:         mlx5_1
  Local port:           1
  CPCs attempted:       rdmacm, udcm
--------------------------------------------------------------------------

*************** JDFTx 1.6.0 (git hash 42ebbcc2) ***************

Start date and time: Sun Feb  6 13:16:19 2022
Executable jdftx with command-line: -i Alkali.in
Running on hosts (process indices):  d-16-5-2 (0-18)
Divided in process groups (process indices):  0 (0)  1 (1)  2 (2)  3 (3)  4 (4)  5 (5)  6 (6)  7 (7)  8 (8)  9 (9)  10 (10)  11 (11)  12 (12)  13 (13)  14 (14)  15 (15)  16 (16)  17 (17)  18 (18)
Resource initialization completed at t[s]:      0.00
Run totals: 19 processes, 48 threads, 0 GPUs


Input parsed successfully to the following command list (including defaults):

basis kpoint-dependent
coords-type Lattice
core-overlap-check vector
coulomb-interaction Slab 001
davidson-band-ratio 1.1
dump End None
dump-name $INPUT.$VAR
elec-cutoff 20
elec-eigen-algo Davidson
elec-ex-corr gga-PBE
elec-initial-magnetization -0.140000 yes
elec-smearing Fermi 1e-05
electronic-minimize  \
	dirUpdateScheme      FletcherReeves \
	linminMethod         DirUpdateRecommended \
	nIterations          100 \
	history              15 \
	knormThreshold       0 \
	energyDiffThreshold  1e-08 \
	nEnergyDiff          2 \
	alphaTstart          1 \
	alphaTmin            1e-10 \
	updateTestStepSize   yes \
	alphaTreduceFactor   0.1 \
	alphaTincreaseFactor 3 \
	nAlphaAdjustMax      3 \
	wolfeEnergy          0.0001 \
	wolfeGradient        0.9 \
	fdTest               no
electronic-scf  \
	nIterations	10000 \
	energyDiffThreshold	1e-08 \
	residualThreshold	1e-07 \
	mixFraction	0.5 \
	qMetric	0.8 \
	history	10 \
	nEigSteps	2 \
	eigDiffThreshold	1e-08 \
	mixedVariable	Density \
	qKerker	0.8 \
	qKappa	-1 \
	verbose	no \
	mixFractionMag	1.5
exchange-regularization WignerSeitzTruncated
fluid None
fluid-ex-corr (null) lda-PZ
fluid-gummel-loop 10 1.000000e-05
fluid-minimize  \
	dirUpdateScheme      PolakRibiere \
	linminMethod         DirUpdateRecommended \
	nIterations          100 \
	history              15 \
	knormThreshold       0 \
	energyDiffThreshold  0 \
	nEnergyDiff          2 \
	alphaTstart          1 \
	alphaTmin            1e-10 \
	updateTestStepSize   yes \
	alphaTreduceFactor   0.1 \
	alphaTincreaseFactor 3 \
	nAlphaAdjustMax      3 \
	wolfeEnergy          0.0001 \
	wolfeGradient        0.9 \
	fdTest               no
fluid-solvent H2O 55.338 ScalarEOS \
	epsBulk 78.4 \
	pMol 0.92466 \
	epsInf 1.77 \
	Pvap 1.06736e-10 \
	sigmaBulk 4.62e-05 \
	Rvdw 2.61727 \
	Res 1.42 \
	tauNuc 343133 \
	poleEl 15 7 1
forces-output-coords Positions
ion Cs   0.000000000000000   0.000000000000000   0.000000000000000 0
ion-species SG15/$ID_ONCV_PBE.upf
ion-width 0
ionic-minimize  \
	dirUpdateScheme      L-BFGS \
	linminMethod         DirUpdateRecommended \
	nIterations          0 \
	history              15 \
	knormThreshold       0.0001 \
	energyDiffThreshold  1e-06 \
	nEnergyDiff          2 \
	alphaTstart          1 \
	alphaTmin            1e-10 \
	updateTestStepSize   yes \
	alphaTreduceFactor   0.1 \
	alphaTincreaseFactor 3 \
	nAlphaAdjustMax      3 \
	wolfeEnergy          0.0001 \
	wolfeGradient        0.9 \
	fdTest               no
kpoint   0.000000000000   0.000000000000   0.000000000000  1.00000000000000
kpoint-folding 12 12 1 
latt-move-scale 1 1 1
latt-scale 2 2 1 
lattice  \
	   4.727486978767153   -2.363743489383575    0.000000000000000  \
	  -0.000000000000000    4.094123819672498    0.000000000000000  \
	   0.000000000000000    0.000000000000000   40.000000000000000 
lattice-minimize  \
	dirUpdateScheme      L-BFGS \
	linminMethod         DirUpdateRecommended \
	nIterations          0 \
	history              15 \
	knormThreshold       0 \
	energyDiffThreshold  1e-06 \
	nEnergyDiff          2 \
	alphaTstart          1 \
	alphaTmin            1e-10 \
	updateTestStepSize   yes \
	alphaTreduceFactor   0.1 \
	alphaTincreaseFactor 3 \
	nAlphaAdjustMax      3 \
	wolfeEnergy          0.0001 \
	wolfeGradient        0.9 \
	fdTest               no
lcao-params -1 1e-06 1e-05
pcm-variant GLSSA13
spintype z-spin
subspace-rotation-factor 1 yes
symmetries automatic
symmetry-threshold 0.0001



---------- Setting up symmetries ----------

Found 24 point-group symmetries of the bravais lattice
Found 24 space-group symmetries with basis
Applied RMS atom displacement 0 bohrs to make symmetries exact.

---------- Initializing the Grid ----------
R = 
[      9.45497     -4.72749            0  ]
[            0      8.18825            0  ]
[            0            0           40  ]
unit cell volume = 3096.79
G =
[   0.664538   0.383671         -0  ]
[          0   0.767342         -0  ]
[         -0         -0    0.15708  ]
Minimum fftbox size, Smin = [  40  40  164  ]
Chosen fftbox size, S = [  40  40  168  ]

---------- Exchange Correlation functional ----------
Initalized PBE GGA exchange.
Initalized PBE GGA correlation.

---------- Setting up pseudopotentials ----------
Width of ionic core gaussian charges (only for fluid interactions / plotting) set to 0

Reading pseudopotential file '/home/gridsan/aligho/DFT/build-Nov24/pseudopotentials/SG15/Cs_ONCV_PBE.upf':
  'Cs' pseudopotential, 'PBE' functional
  Generated using ONCVPSP code by D. R. Hamann
  Author: Martin Schlipf and Francois Gygi  Date: 150915.
  9 valence electrons, 3 orbitals, 6 projectors, 2414 radial grid points, with lMax = 2
  Transforming local potential to a uniform radial grid of dG=0.02 with 1489 points.
  Transforming nonlocal projectors to a uniform radial grid of dG=0.02 with 432 points.
    5S    l: 0   occupation:  2.0   eigenvalue: -0.982388
    5P    l: 1   occupation:  6.0   eigenvalue: -0.496786
    6S    l: 0   occupation:  1.0   eigenvalue: -0.076670
  Transforming atomic orbitals to a uniform radial grid of dG=0.02 with 432 points.
  Core radius for overlap checks: 2.06 bohrs.
  Reading pulay file /home/gridsan/aligho/DFT/build-Nov24/pseudopotentials/SG15/Cs_ONCV_PBE.pulay ... using dE_dnG = -1.008762e-04 computed for Ecut = 20.

Initialized 1 species with 1 total atoms.

Folded 1 k-points by 12x12x1 to 144 k-points.

---------- Setting up k-points, bands, fillings ----------
Reduced to 19 k-points under symmetry. 
Computing the number of bands and number of electrons
Calculating initial fillings.
nElectrons:   9.000000   nBands: 6   nStates: 38

----- Setting up reduced wavefunction bases (one per k-point) -----
average nbasis = 13230.521 , ideal nbasis = 13229.709

---------- Setting up coulomb interaction ----------
Initialized slab truncation along lattice direction 001

---------- Setting up 2D ewald sum ----------
Optimum gaussian width for ewald sums = 5.249020 bohr.
Real space sums over 289 unit cells with max indices [  8  8  0  ]
Reciprocal space sums over 81 terms with max indices [  4  4  0  ]

---------- Allocating electronic variables ----------
Initializing wave functions:  linear combination of atomic orbitals
Note: number of bands (6) exceeds available atomic orbitals (5)
Cs pseudo-atom occupations:   s ( 2 1 )  p ( 6 )
	FillingsUpdate:  mu: -0.091485498  nElectrons: 9.000000  magneticMoment: [ Abs: 0.14000  Tot: -0.14000 ]
LCAOMinimize: Iter:   0  F: -20.1824260454960758  |grad|_K:  4.194e-05  alpha:  1.000e+00
	FillingsUpdate:  mu: -0.091466569  nElectrons: 9.000000  magneticMoment: [ Abs: 0.14000  Tot: -0.14000 ]
LCAOMinimize: Iter:   1  F: -20.1824272203878152  |grad|_K:  4.186e-07  alpha:  9.768e-01  linmin: -5.194e-02  cgtest:  3.905e-01  t[s]:      4.61
LCAOMinimize: Encountered beta<0, resetting CG.
[d-16-5-2:09842] 18 more processes have sent help message help-mpi-common-cuda.txt / dlopen failed
[d-16-5-2:09842] Set MCA parameter "orte_base_help_aggregate" to 0 to see all help / error messages
[d-16-5-2:09842] 18 more processes have sent help message help-mpi-btl-openib-cpc-base.txt / no cpcs for port
	FillingsUpdate:  mu: -0.091466673  nElectrons: 9.000000  magneticMoment: [ Abs: 0.14000  Tot: -0.14000 ]
LCAOMinimize: Iter:   2  F: -20.1824272205080995  |grad|_K:  7.481e-10  alpha:  1.002e+00  linmin:  1.409e-01  cgtest: -8.491e-01  t[s]:      5.81
LCAOMinimize: 	Wrong curvature in test step, increasing alphaT to 3.007445e+00.
	FillingsUpdate:  mu: -0.091466673  nElectrons: 9.000000  magneticMoment: [ Abs: 0.14000  Tot: -0.14000 ]
LCAOMinimize: Iter:   3  F: -20.1824272205081350  |grad|_K:  6.363e-10  alpha: -3.006e-03  linmin:  2.673e-04  cgtest:  8.441e-01  t[s]:      7.07
LCAOMinimize: Converged (|Delta F|<1.000000e-06 for 2 iters).


---- Citations for features of the code used in this run ----

   Software package:
      R. Sundararaman, K. Letchworth-Weaver, K.A. Schwarz, D. Gunceler, Y. Ozhabes and T.A. Arias, 'JDFTx: software for joint density-functional theory', SoftwareX 6, 278 (2017)

   gga-PBE exchange-correlation functional:
      J.P. Perdew, K. Burke and M. Ernzerhof, Phys. Rev. Lett. 77, 3865 (1996)

   Pseudopotentials:
      M Schlipf and F Gygi, Comput. Phys. Commun. 196, 36 (2015)

   Truncated Coulomb potentials:
      R. Sundararaman and T.A. Arias, Phys. Rev. B 87, 165122 (2013)

This list may not be complete. Please suggest additional citations or
report any other bugs at https://github.com/shankar1729/jdftx/issues

Initialization completed successfully at t[s]:      7.17


-------- Electronic minimization -----------
Will mix electronic density at each iteration.
	FillingsUpdate:  mu: -0.091466673  nElectrons: 9.000000  magneticMoment: [ Abs: 0.14000  Tot: -0.14000 ]
	FillingsUpdate:  mu: -0.100708411  nElectrons: 9.000000  magneticMoment: [ Abs: 0.14000  Tot: -0.14000 ]
SCF: Cycle:  0   F: -20.187024624181337   dF: -4.597e-03   |Residual|: 1.150e-02   |deigs|: 1.882e-01  t[s]:      9.60
	FillingsUpdate:  mu: -0.100841152  nElectrons: 9.000000  magneticMoment: [ Abs: 0.14000  Tot: -0.14000 ]
SCF: Cycle:  1   F: -20.187392430948869   dF: -3.678e-04   |Residual|: 9.646e-03   |deigs|: 4.484e-03  t[s]:     11.47
	FillingsUpdate:  mu: -0.096769812  nElectrons: 9.000000  magneticMoment: [ Abs: 0.14864  Tot: -0.14000 ]
SCF: Cycle:  2   F: -20.187707500161469   dF: -3.151e-04   |Residual|: 4.339e-03   |deigs|: 3.719e-03  t[s]:     13.34
	FillingsUpdate:  mu: -0.096848629  nElectrons: 9.000000  magneticMoment: [ Abs: 0.14000  Tot: -0.14000 ]
SCF: Cycle:  3   F: -20.187810836687547   dF: -1.033e-04   |Residual|: 3.468e-03   |deigs|: 1.602e-03  t[s]:     15.23
	FillingsUpdate:  mu: -0.094019762  nElectrons: 9.000000  magneticMoment: [ Abs: 0.14147  Tot: -0.14000 ]
SCF: Cycle:  4   F: -20.187886342687673   dF: -7.551e-05   |Residual|: 2.383e-03   |deigs|: 3.596e-03  t[s]:     17.14
	FillingsUpdate:  mu: -0.091740571  nElectrons: 9.000000  magneticMoment: [ Abs: 0.14226  Tot: -0.14000 ]
SCF: Cycle:  5   F: -20.187926771659097   dF: -4.043e-05   |Residual|: 1.963e-03   |deigs|: 2.739e-03  t[s]:     19.07
	FillingsUpdate:  mu: -0.089420129  nElectrons: 9.000000  magneticMoment: [ Abs: 0.14470  Tot: -0.14000 ]
SCF: Cycle:  6   F: -20.187939784237255   dF: -1.301e-05   |Residual|: 1.487e-03   |deigs|: 2.938e-03  t[s]:     21.05
	FillingsUpdate:  mu: -0.088230577  nElectrons: 9.000000  magneticMoment: [ Abs: 0.14304  Tot: -0.14000 ]
SCF: Cycle:  7   F: -20.187962713969679   dF: -2.293e-05   |Residual|: 1.234e-03   |deigs|: 1.371e-03  t[s]:     23.13
	FillingsUpdate:  mu: -0.086530012  nElectrons: 9.000000  magneticMoment: [ Abs: 0.14114  Tot: -0.14000 ]
SCF: Cycle:  8   F: -20.187978549817736   dF: -1.584e-05   |Residual|: 9.640e-04   |deigs|: 1.579e-03  t[s]:     25.19
	FillingsUpdate:  mu: -0.084984751  nElectrons: 9.000000  magneticMoment: [ Abs: 0.14218  Tot: -0.14000 ]
SCF: Cycle:  9   F: -20.187961785913654   dF: +1.676e-05   |Residual|: 9.705e-04   |deigs|: 1.594e-03  t[s]:     27.26
	FillingsUpdate:  mu: -0.082939409  nElectrons: 9.000000  magneticMoment: [ Abs: 0.14267  Tot: -0.14000 ]
SCF: Cycle: 10   F: -20.187970512105025   dF: -8.726e-06   |Residual|: 8.739e-04   |deigs|: 2.302e-03  t[s]:     29.34
	FillingsUpdate:  mu: -0.081462283  nElectrons: 9.000000  magneticMoment: [ Abs: 0.14169  Tot: -0.14000 ]
SCF: Cycle: 11   F: -20.187998109080478   dF: -2.760e-05   |Residual|: 6.949e-04   |deigs|: 1.522e-03  t[s]:     31.46
	FillingsUpdate:  mu: -0.080228333  nElectrons: 9.000000  magneticMoment: [ Abs: 0.14189  Tot: -0.14000 ]
SCF: Cycle: 12   F: -20.188015521818631   dF: -1.741e-05   |Residual|: 6.486e-04   |deigs|: 1.177e-03  t[s]:     33.56
	FillingsUpdate:  mu: -0.078258464  nElectrons: 9.000000  magneticMoment: [ Abs: 0.14105  Tot: -0.14000 ]
SCF: Cycle: 13   F: -20.188025806253108   dF: -1.028e-05   |Residual|: 5.718e-04   |deigs|: 2.034e-03  t[s]:     35.60
	FillingsUpdate:  mu: -0.076843909  nElectrons: 9.000000  magneticMoment: [ Abs: 0.14094  Tot: -0.14000 ]
SCF: Cycle: 14   F: -20.188033323938281   dF: -7.518e-06   |Residual|: 4.379e-04   |deigs|: 1.498e-03  t[s]:     37.66
	FillingsUpdate:  mu: -0.076514008  nElectrons: 9.000000  magneticMoment: [ Abs: 0.14098  Tot: -0.14000 ]
SCF: Cycle: 15   F: -20.188036661585215   dF: -3.338e-06   |Residual|: 3.416e-04   |deigs|: 1.347e-03  t[s]:     39.70
	FillingsUpdate:  mu: -0.076251528  nElectrons: 9.000000  magneticMoment: [ Abs: 0.14036  Tot: -0.14000 ]
SCF: Cycle: 16   F: -20.188039563274454   dF: -2.902e-06   |Residual|: 2.405e-04   |deigs|: 4.848e-04  t[s]:     41.73
	FillingsUpdate:  mu: -0.076302560  nElectrons: 9.000000  magneticMoment: [ Abs: 0.14012  Tot: -0.14000 ]
SCF: Cycle: 17   F: -20.188040369048483   dF: -8.058e-07   |Residual|: 1.178e-04   |deigs|: 1.620e-04  t[s]:     43.84
	FillingsUpdate:  mu: -0.076377857  nElectrons: 9.000000  magneticMoment: [ Abs: 0.14017  Tot: -0.14000 ]
SCF: Cycle: 18   F: -20.188040573270293   dF: -2.042e-07   |Residual|: 5.987e-05   |deigs|: 1.555e-04  t[s]:     45.96
	FillingsUpdate:  mu: -0.076314915  nElectrons: 9.000000  magneticMoment: [ Abs: 0.14010  Tot: -0.14000 ]
SCF: Cycle: 19   F: -20.188040671416637   dF: -9.815e-08   |Residual|: 3.679e-05   |deigs|: 3.394e-04  t[s]:     48.05
	FillingsUpdate:  mu: -0.076320801  nElectrons: 9.000000  magneticMoment: [ Abs: 0.14007  Tot: -0.14000 ]
SCF: Cycle: 20   F: -20.188040726284004   dF: -5.487e-08   |Residual|: 2.028e-05   |deigs|: 1.334e-04  t[s]:     50.17
	FillingsUpdate:  mu: -0.076343007  nElectrons: 9.000000  magneticMoment: [ Abs: 0.14009  Tot: -0.14000 ]
SCF: Cycle: 21   F: -20.188040738023982   dF: -1.174e-08   |Residual|: 1.178e-05   |deigs|: 1.120e-04  t[s]:     52.23
	FillingsUpdate:  mu: -0.076360986  nElectrons: 9.000000  magneticMoment: [ Abs: 0.14009  Tot: -0.14000 ]
SCF: Cycle: 22   F: -20.188040742728788   dF: -4.705e-09   |Residual|: 7.087e-06   |deigs|: 7.192e-04  t[s]:     54.34
	FillingsUpdate:  mu: -0.076373233  nElectrons: 9.000000  magneticMoment: [ Abs: 0.14008  Tot: -0.14000 ]
SCF: Cycle: 23   F: -20.188040745114002   dF: -2.385e-09   |Residual|: 4.482e-06   |deigs|: 2.402e-04  t[s]:     56.43
SCF: Converged (|Delta E|<1.000000e-08 for 2 iters).


# Ionic positions in lattice coordinates:
ion Cs   0.000000000000000   0.000000000000000   0.000000000000000 0

# Forces in Lattice coordinates:
force Cs   0.000000000000000   0.000000000000000   0.000000000000000 0

# Energy components:
   Eewald =      -18.0480261003326561
       EH =       -1.8391961619491668
     Eloc =       -5.7455780933582039
      Enl =        3.4431320155767144
   Epulay =        0.0000000264484078
      Exc =       -3.1435508893563684
       KE =        5.1451791457269280
-------------------------------------
     Etot =      -20.1880400572443470
       TS =        0.0000006878696540
-------------------------------------
        F =      -20.1880407451140016

IonicMinimize: Iter:   0  F: -20.188040745114002  |grad|_K:  0.000e+00  t[s]:     56.55
IonicMinimize: Converged (|grad|_K<1.000000e-04).

#--- Lowdin population analysis ---
# oxidation-state Cs +0.045
# magnetic-moments Cs -0.125

End date and time: Sun Feb  6 13:17:15 2022  (Duration: 0-0:00:56.57)
Done!
scale=3
magnetization=-0.14
--------------------------------------------------------------------------
The library attempted to open the following supporting CUDA libraries,
but each of them failed.  CUDA-aware support is disabled.
libcuda.so.1: cannot open shared object file: No such file or directory
libcuda.dylib: cannot open shared object file: No such file or directory
/usr/lib64/libcuda.so.1: cannot open shared object file: No such file or directory
/usr/lib64/libcuda.dylib: cannot open shared object file: No such file or directory
If you are not interested in CUDA-aware support, then run with
--mca opal_warn_on_missing_libcuda 0 to suppress this message.  If you are interested
in CUDA-aware support, then try setting LD_LIBRARY_PATH to the location
of libcuda.so.1 to get passed this issue.
--------------------------------------------------------------------------
--------------------------------------------------------------------------
No OpenFabrics connection schemes reported that they were able to be
used on a specific port.  As such, the openib BTL (OpenFabrics
support) will be disabled for this port.

  Local host:           d-16-5-2
  Local device:         mlx5_1
  Local port:           1
  CPCs attempted:       rdmacm, udcm
--------------------------------------------------------------------------

*************** JDFTx 1.6.0 (git hash 42ebbcc2) ***************

Start date and time: Sun Feb  6 13:17:16 2022
Executable jdftx with command-line: -i Alkali.in
Running on hosts (process indices):  d-16-5-2 (0-18)
Divided in process groups (process indices):  0 (0)  1 (1)  2 (2)  3 (3)  4 (4)  5 (5)  6 (6)  7 (7)  8 (8)  9 (9)  10 (10)  11 (11)  12 (12)  13 (13)  14 (14)  15 (15)  16 (16)  17 (17)  18 (18)
Resource initialization completed at t[s]:      0.00
Run totals: 19 processes, 48 threads, 0 GPUs


Input parsed successfully to the following command list (including defaults):

basis kpoint-dependent
coords-type Lattice
core-overlap-check vector
coulomb-interaction Slab 001
davidson-band-ratio 1.1
dump End None
dump-name $INPUT.$VAR
elec-cutoff 20
elec-eigen-algo Davidson
elec-ex-corr gga-PBE
elec-initial-magnetization -0.140000 yes
elec-smearing Fermi 1e-05
electronic-minimize  \
	dirUpdateScheme      FletcherReeves \
	linminMethod         DirUpdateRecommended \
	nIterations          100 \
	history              15 \
	knormThreshold       0 \
	energyDiffThreshold  1e-08 \
	nEnergyDiff          2 \
	alphaTstart          1 \
	alphaTmin            1e-10 \
	updateTestStepSize   yes \
	alphaTreduceFactor   0.1 \
	alphaTincreaseFactor 3 \
	nAlphaAdjustMax      3 \
	wolfeEnergy          0.0001 \
	wolfeGradient        0.9 \
	fdTest               no
electronic-scf  \
	nIterations	10000 \
	energyDiffThreshold	1e-08 \
	residualThreshold	1e-07 \
	mixFraction	0.5 \
	qMetric	0.8 \
	history	10 \
	nEigSteps	2 \
	eigDiffThreshold	1e-08 \
	mixedVariable	Density \
	qKerker	0.8 \
	qKappa	-1 \
	verbose	no \
	mixFractionMag	1.5
exchange-regularization WignerSeitzTruncated
fluid None
fluid-ex-corr (null) lda-PZ
fluid-gummel-loop 10 1.000000e-05
fluid-minimize  \
	dirUpdateScheme      PolakRibiere \
	linminMethod         DirUpdateRecommended \
	nIterations          100 \
	history              15 \
	knormThreshold       0 \
	energyDiffThreshold  0 \
	nEnergyDiff          2 \
	alphaTstart          1 \
	alphaTmin            1e-10 \
	updateTestStepSize   yes \
	alphaTreduceFactor   0.1 \
	alphaTincreaseFactor 3 \
	nAlphaAdjustMax      3 \
	wolfeEnergy          0.0001 \
	wolfeGradient        0.9 \
	fdTest               no
fluid-solvent H2O 55.338 ScalarEOS \
	epsBulk 78.4 \
	pMol 0.92466 \
	epsInf 1.77 \
	Pvap 1.06736e-10 \
	sigmaBulk 4.62e-05 \
	Rvdw 2.61727 \
	Res 1.42 \
	tauNuc 343133 \
	poleEl 15 7 1
forces-output-coords Positions
ion Cs   0.000000000000000   0.000000000000000   0.000000000000000 0
ion-species SG15/$ID_ONCV_PBE.upf
ion-width 0
ionic-minimize  \
	dirUpdateScheme      L-BFGS \
	linminMethod         DirUpdateRecommended \
	nIterations          0 \
	history              15 \
	knormThreshold       0.0001 \
	energyDiffThreshold  1e-06 \
	nEnergyDiff          2 \
	alphaTstart          1 \
	alphaTmin            1e-10 \
	updateTestStepSize   yes \
	alphaTreduceFactor   0.1 \
	alphaTincreaseFactor 3 \
	nAlphaAdjustMax      3 \
	wolfeEnergy          0.0001 \
	wolfeGradient        0.9 \
	fdTest               no
kpoint   0.000000000000   0.000000000000   0.000000000000  1.00000000000000
kpoint-folding 12 12 1 
latt-move-scale 1 1 1
latt-scale 3 3 1 
lattice  \
	   4.727486978767153   -2.363743489383575    0.000000000000000  \
	  -0.000000000000000    4.094123819672498    0.000000000000000  \
	   0.000000000000000    0.000000000000000   40.000000000000000 
lattice-minimize  \
	dirUpdateScheme      L-BFGS \
	linminMethod         DirUpdateRecommended \
	nIterations          0 \
	history              15 \
	knormThreshold       0 \
	energyDiffThreshold  1e-06 \
	nEnergyDiff          2 \
	alphaTstart          1 \
	alphaTmin            1e-10 \
	updateTestStepSize   yes \
	alphaTreduceFactor   0.1 \
	alphaTincreaseFactor 3 \
	nAlphaAdjustMax      3 \
	wolfeEnergy          0.0001 \
	wolfeGradient        0.9 \
	fdTest               no
lcao-params -1 1e-06 1e-05
pcm-variant GLSSA13
spintype z-spin
subspace-rotation-factor 1 yes
symmetries automatic
symmetry-threshold 0.0001



---------- Setting up symmetries ----------

Found 24 point-group symmetries of the bravais lattice
Found 24 space-group symmetries with basis
Applied RMS atom displacement 0 bohrs to make symmetries exact.

---------- Initializing the Grid ----------
R = 
[      14.1825     -7.09123            0  ]
[            0      12.2824            0  ]
[            0            0           40  ]
unit cell volume = 6967.77
G =
[   0.443025   0.255781         -0  ]
[          0   0.511561         -0  ]
[         -0         -0    0.15708  ]
Minimum fftbox size, Smin = [  60  60  164  ]
Chosen fftbox size, S = [  60  60  168  ]

---------- Exchange Correlation functional ----------
Initalized PBE GGA exchange.
Initalized PBE GGA correlation.

---------- Setting up pseudopotentials ----------
Width of ionic core gaussian charges (only for fluid interactions / plotting) set to 0

Reading pseudopotential file '/home/gridsan/aligho/DFT/build-Nov24/pseudopotentials/SG15/Cs_ONCV_PBE.upf':
  'Cs' pseudopotential, 'PBE' functional
  Generated using ONCVPSP code by D. R. Hamann
  Author: Martin Schlipf and Francois Gygi  Date: 150915.
  9 valence electrons, 3 orbitals, 6 projectors, 2414 radial grid points, with lMax = 2
  Transforming local potential to a uniform radial grid of dG=0.02 with 1489 points.
  Transforming nonlocal projectors to a uniform radial grid of dG=0.02 with 432 points.
    5S    l: 0   occupation:  2.0   eigenvalue: -0.982388
    5P    l: 1   occupation:  6.0   eigenvalue: -0.496786
    6S    l: 0   occupation:  1.0   eigenvalue: -0.076670
  Transforming atomic orbitals to a uniform radial grid of dG=0.02 with 432 points.
  Core radius for overlap checks: 2.06 bohrs.
  Reading pulay file /home/gridsan/aligho/DFT/build-Nov24/pseudopotentials/SG15/Cs_ONCV_PBE.pulay ... using dE_dnG = -1.008762e-04 computed for Ecut = 20.

Initialized 1 species with 1 total atoms.

Folded 1 k-points by 12x12x1 to 144 k-points.

---------- Setting up k-points, bands, fillings ----------
Reduced to 19 k-points under symmetry. 
Computing the number of bands and number of electrons
Calculating initial fillings.
nElectrons:   9.000000   nBands: 6   nStates: 38

----- Setting up reduced wavefunction bases (one per k-point) -----
average nbasis = 29766.104 , ideal nbasis = 29766.845

---------- Setting up coulomb interaction ----------
Initialized slab truncation along lattice direction 001

---------- Setting up 2D ewald sum ----------
Optimum gaussian width for ewald sums = 7.873530 bohr.
Real space sums over 289 unit cells with max indices [  8  8  0  ]
Reciprocal space sums over 81 terms with max indices [  4  4  0  ]

---------- Allocating electronic variables ----------
Initializing wave functions:  linear combination of atomic orbitals
Note: number of bands (6) exceeds available atomic orbitals (5)
Cs pseudo-atom occupations:   s ( 2 1 )  p ( 6 )
[d-16-5-2:37373] 18 more processes have sent help message help-mpi-common-cuda.txt / dlopen failed
[d-16-5-2:37373] Set MCA parameter "orte_base_help_aggregate" to 0 to see all help / error messages
[d-16-5-2:37373] 18 more processes have sent help message help-mpi-btl-openib-cpc-base.txt / no cpcs for port
	FillingsUpdate:  mu: -0.078533918  nElectrons: 9.000000  magneticMoment: [ Abs: 0.14000  Tot: -0.14000 ]
LCAOMinimize: Iter:   0  F: -20.1753385491566242  |grad|_K:  2.580e-05  alpha:  1.000e+00
	FillingsUpdate:  mu: -0.078527923  nElectrons: 9.000000  magneticMoment: [ Abs: 0.14000  Tot: -0.14000 ]
LCAOMinimize: Iter:   1  F: -20.1753389976422710  |grad|_K:  1.879e-07  alpha:  9.855e-01  linmin: -3.236e-02  cgtest:  6.154e-01  t[s]:      8.92
LCAOMinimize: Encountered beta<0, resetting CG.
	FillingsUpdate:  mu: -0.078527911  nElectrons: 9.000000  magneticMoment: [ Abs: 0.14000  Tot: -0.14000 ]
LCAOMinimize: Iter:   2  F: -20.1753389976663691  |grad|_K:  5.806e-10  alpha:  9.987e-01  linmin: -3.995e-02  cgtest:  5.982e-01  t[s]:     11.33
LCAOMinimize: Encountered beta<0, resetting CG.
LCAOMinimize: Converged (|Delta F|<1.000000e-06 for 2 iters).


---- Citations for features of the code used in this run ----

   Software package:
      R. Sundararaman, K. Letchworth-Weaver, K.A. Schwarz, D. Gunceler, Y. Ozhabes and T.A. Arias, 'JDFTx: software for joint density-functional theory', SoftwareX 6, 278 (2017)

   gga-PBE exchange-correlation functional:
      J.P. Perdew, K. Burke and M. Ernzerhof, Phys. Rev. Lett. 77, 3865 (1996)

   Pseudopotentials:
      M Schlipf and F Gygi, Comput. Phys. Commun. 196, 36 (2015)

   Truncated Coulomb potentials:
      R. Sundararaman and T.A. Arias, Phys. Rev. B 87, 165122 (2013)

This list may not be complete. Please suggest additional citations or
report any other bugs at https://github.com/shankar1729/jdftx/issues

Initialization completed successfully at t[s]:     11.49


-------- Electronic minimization -----------
Will mix electronic density at each iteration.
	FillingsUpdate:  mu: -0.078527911  nElectrons: 9.000000  magneticMoment: [ Abs: 0.14000  Tot: -0.14000 ]
	FillingsUpdate:  mu: -0.082247391  nElectrons: 9.000000  magneticMoment: [ Abs: 0.14000  Tot: -0.14000 ]
SCF: Cycle:  0   F: -20.177708741645159   dF: -2.370e-03   |Residual|: 4.380e-03   |deigs|: 1.730e-01  t[s]:     16.30
	FillingsUpdate:  mu: -0.082525840  nElectrons: 9.000000  magneticMoment: [ Abs: 0.14000  Tot: -0.14000 ]
SCF: Cycle:  1   F: -20.177790689123682   dF: -8.195e-05   |Residual|: 3.916e-03   |deigs|: 4.939e-03  t[s]:     20.05
	FillingsUpdate:  mu: -0.082989089  nElectrons: 9.000000  magneticMoment: [ Abs: 0.14360  Tot: -0.14000 ]
SCF: Cycle:  2   F: -20.177855288819011   dF: -6.460e-05   |Residual|: 1.656e-03   |deigs|: 2.847e-03  t[s]:     23.89
	FillingsUpdate:  mu: -0.082889264  nElectrons: 9.000000  magneticMoment: [ Abs: 0.14101  Tot: -0.14000 ]
SCF: Cycle:  3   F: -20.177879524066370   dF: -2.424e-05   |Residual|: 1.211e-03   |deigs|: 1.261e-03  t[s]:     27.74
	FillingsUpdate:  mu: -0.082660999  nElectrons: 9.000000  magneticMoment: [ Abs: 0.14015  Tot: -0.14000 ]
SCF: Cycle:  4   F: -20.177888716020849   dF: -9.192e-06   |Residual|: 7.702e-04   |deigs|: 9.309e-04  t[s]:     31.83
	FillingsUpdate:  mu: -0.082432468  nElectrons: 9.000000  magneticMoment: [ Abs: 0.14015  Tot: -0.14000 ]
SCF: Cycle:  5   F: -20.177893662044088   dF: -4.946e-06   |Residual|: 6.330e-04   |deigs|: 1.255e-03  t[s]:     35.80
	FillingsUpdate:  mu: -0.081825008  nElectrons: 9.000000  magneticMoment: [ Abs: 0.14176  Tot: -0.14000 ]
SCF: Cycle:  6   F: -20.177894525522767   dF: -8.635e-07   |Residual|: 5.051e-04   |deigs|: 1.142e-03  t[s]:     39.94
	FillingsUpdate:  mu: -0.081427653  nElectrons: 9.000000  magneticMoment: [ Abs: 0.14168  Tot: -0.14000 ]
SCF: Cycle:  7   F: -20.177894318622343   dF: +2.069e-07   |Residual|: 4.211e-04   |deigs|: 8.878e-04  t[s]:     44.03
	FillingsUpdate:  mu: -0.080902525  nElectrons: 9.000000  magneticMoment: [ Abs: 0.14132  Tot: -0.14000 ]
SCF: Cycle:  8   F: -20.177894967550451   dF: -6.489e-07   |Residual|: 3.487e-04   |deigs|: 6.923e-04  t[s]:     48.19
	FillingsUpdate:  mu: -0.080615150  nElectrons: 9.000000  magneticMoment: [ Abs: 0.14072  Tot: -0.14000 ]
SCF: Cycle:  9   F: -20.177896649763415   dF: -1.682e-06   |Residual|: 2.987e-04   |deigs|: 9.522e-04  t[s]:     52.46
	FillingsUpdate:  mu: -0.080200168  nElectrons: 9.000000  magneticMoment: [ Abs: 0.14139  Tot: -0.14000 ]
SCF: Cycle: 10   F: -20.177897453891536   dF: -8.041e-07   |Residual|: 2.694e-04   |deigs|: 5.585e-04  t[s]:     56.75
	FillingsUpdate:  mu: -0.079720301  nElectrons: 9.000000  magneticMoment: [ Abs: 0.14142  Tot: -0.14000 ]
SCF: Cycle: 11   F: -20.177896361666257   dF: +1.092e-06   |Residual|: 2.371e-04   |deigs|: 4.924e-04  t[s]:     61.07
	FillingsUpdate:  mu: -0.079304241  nElectrons: 9.000000  magneticMoment: [ Abs: 0.14084  Tot: -0.14000 ]
SCF: Cycle: 12   F: -20.177895715674779   dF: +6.460e-07   |Residual|: 2.357e-04   |deigs|: 6.185e-04  t[s]:     65.41
	FillingsUpdate:  mu: -0.078947919  nElectrons: 9.000000  magneticMoment: [ Abs: 0.14041  Tot: -0.14000 ]
SCF: Cycle: 13   F: -20.177897079545435   dF: -1.364e-06   |Residual|: 2.176e-04   |deigs|: 6.177e-04  t[s]:     69.73
	FillingsUpdate:  mu: -0.078714140  nElectrons: 9.000000  magneticMoment: [ Abs: 0.14117  Tot: -0.14000 ]
SCF: Cycle: 14   F: -20.177900036378841   dF: -2.957e-06   |Residual|: 1.669e-04   |deigs|: 3.445e-04  t[s]:     74.06
	FillingsUpdate:  mu: -0.078502191  nElectrons: 9.000000  magneticMoment: [ Abs: 0.14081  Tot: -0.14000 ]
SCF: Cycle: 15   F: -20.177901499233219   dF: -1.463e-06   |Residual|: 1.336e-04   |deigs|: 2.180e-04  t[s]:     78.34
	FillingsUpdate:  mu: -0.078320090  nElectrons: 9.000000  magneticMoment: [ Abs: 0.14025  Tot: -0.14000 ]
SCF: Cycle: 16   F: -20.177902197875039   dF: -6.986e-07   |Residual|: 7.476e-05   |deigs|: 2.184e-04  t[s]:     82.57
	FillingsUpdate:  mu: -0.078312630  nElectrons: 9.000000  magneticMoment: [ Abs: 0.14021  Tot: -0.14000 ]
SCF: Cycle: 17   F: -20.177902442834633   dF: -2.450e-07   |Residual|: 4.529e-05   |deigs|: 7.455e-05  t[s]:     86.96
	FillingsUpdate:  mu: -0.078323016  nElectrons: 9.000000  magneticMoment: [ Abs: 0.14016  Tot: -0.14000 ]
SCF: Cycle: 18   F: -20.177902528757901   dF: -8.592e-08   |Residual|: 3.373e-05   |deigs|: 8.384e-05  t[s]:     91.23
	FillingsUpdate:  mu: -0.078346357  nElectrons: 9.000000  magneticMoment: [ Abs: 0.14016  Tot: -0.14000 ]
SCF: Cycle: 19   F: -20.177902582284229   dF: -5.353e-08   |Residual|: 1.944e-05   |deigs|: 6.270e-05  t[s]:     95.51
	FillingsUpdate:  mu: -0.078359090  nElectrons: 9.000000  magneticMoment: [ Abs: 0.14016  Tot: -0.14000 ]
SCF: Cycle: 20   F: -20.177902607902862   dF: -2.562e-08   |Residual|: 9.752e-06   |deigs|: 3.659e-05  t[s]:     99.87
	FillingsUpdate:  mu: -0.078360924  nElectrons: 9.000000  magneticMoment: [ Abs: 0.14017  Tot: -0.14000 ]
SCF: Cycle: 21   F: -20.177902613281613   dF: -5.379e-09   |Residual|: 7.661e-06   |deigs|: 2.942e-05  t[s]:    104.19
	FillingsUpdate:  mu: -0.078362969  nElectrons: 9.000000  magneticMoment: [ Abs: 0.14018  Tot: -0.14000 ]
SCF: Cycle: 22   F: -20.177902615544301   dF: -2.263e-09   |Residual|: 7.820e-06   |deigs|: 3.926e-05  t[s]:    108.41
SCF: Converged (|Delta E|<1.000000e-08 for 2 iters).


# Ionic positions in lattice coordinates:
ion Cs   0.000000000000000   0.000000000000000   0.000000000000000 0

# Forces in Lattice coordinates:
force Cs  -0.000000000000000  -0.000000000000000   0.000000000000000 0

# Energy components:
   Eewald =      -12.0320174002217755
       EH =        4.0106373562143034
     Eloc =      -17.5796707224906790
      Enl =        3.4316667349287258
   Epulay =       -0.0000000107257212
      Exc =       -3.1081270816872340
       KE =        5.0996091963077301
-------------------------------------
     Etot =      -20.1779019276746467
       TS =        0.0000006878696540
-------------------------------------
        F =      -20.1779026155443013

IonicMinimize: Iter:   0  F: -20.177902615544301  |grad|_K:  0.000e+00  t[s]:    108.68
IonicMinimize: Converged (|grad|_K<1.000000e-04).

#--- Lowdin population analysis ---
# oxidation-state Cs +0.042
# magnetic-moments Cs -0.125

End date and time: Sun Feb  6 13:19:05 2022  (Duration: 0-0:01:48.72)
Done!
scale=4
magnetization=-0.14
--------------------------------------------------------------------------
The library attempted to open the following supporting CUDA libraries,
but each of them failed.  CUDA-aware support is disabled.
libcuda.so.1: cannot open shared object file: No such file or directory
libcuda.dylib: cannot open shared object file: No such file or directory
/usr/lib64/libcuda.so.1: cannot open shared object file: No such file or directory
/usr/lib64/libcuda.dylib: cannot open shared object file: No such file or directory
If you are not interested in CUDA-aware support, then run with
--mca opal_warn_on_missing_libcuda 0 to suppress this message.  If you are interested
in CUDA-aware support, then try setting LD_LIBRARY_PATH to the location
of libcuda.so.1 to get passed this issue.
--------------------------------------------------------------------------
--------------------------------------------------------------------------
No OpenFabrics connection schemes reported that they were able to be
used on a specific port.  As such, the openib BTL (OpenFabrics
support) will be disabled for this port.

  Local host:           d-16-5-2
  Local device:         mlx5_1
  Local port:           1
  CPCs attempted:       rdmacm, udcm
--------------------------------------------------------------------------

*************** JDFTx 1.6.0 (git hash 42ebbcc2) ***************

Start date and time: Sun Feb  6 13:19:06 2022
Executable jdftx with command-line: -i Alkali.in
Running on hosts (process indices):  d-16-5-2 (0-18)
Divided in process groups (process indices):  0 (0)  1 (1)  2 (2)  3 (3)  4 (4)  5 (5)  6 (6)  7 (7)  8 (8)  9 (9)  10 (10)  11 (11)  12 (12)  13 (13)  14 (14)  15 (15)  16 (16)  17 (17)  18 (18)
Resource initialization completed at t[s]:      0.00
Run totals: 19 processes, 48 threads, 0 GPUs


Input parsed successfully to the following command list (including defaults):

basis kpoint-dependent
coords-type Lattice
core-overlap-check vector
coulomb-interaction Slab 001
davidson-band-ratio 1.1
dump End None
dump-name $INPUT.$VAR
elec-cutoff 20
elec-eigen-algo Davidson
elec-ex-corr gga-PBE
elec-initial-magnetization -0.140000 yes
elec-smearing Fermi 1e-05
electronic-minimize  \
	dirUpdateScheme      FletcherReeves \
	linminMethod         DirUpdateRecommended \
	nIterations          100 \
	history              15 \
	knormThreshold       0 \
	energyDiffThreshold  1e-08 \
	nEnergyDiff          2 \
	alphaTstart          1 \
	alphaTmin            1e-10 \
	updateTestStepSize   yes \
	alphaTreduceFactor   0.1 \
	alphaTincreaseFactor 3 \
	nAlphaAdjustMax      3 \
	wolfeEnergy          0.0001 \
	wolfeGradient        0.9 \
	fdTest               no
electronic-scf  \
	nIterations	10000 \
	energyDiffThreshold	1e-08 \
	residualThreshold	1e-07 \
	mixFraction	0.5 \
	qMetric	0.8 \
	history	10 \
	nEigSteps	2 \
	eigDiffThreshold	1e-08 \
	mixedVariable	Density \
	qKerker	0.8 \
	qKappa	-1 \
	verbose	no \
	mixFractionMag	1.5
exchange-regularization WignerSeitzTruncated
fluid None
fluid-ex-corr (null) lda-PZ
fluid-gummel-loop 10 1.000000e-05
fluid-minimize  \
	dirUpdateScheme      PolakRibiere \
	linminMethod         DirUpdateRecommended \
	nIterations          100 \
	history              15 \
	knormThreshold       0 \
	energyDiffThreshold  0 \
	nEnergyDiff          2 \
	alphaTstart          1 \
	alphaTmin            1e-10 \
	updateTestStepSize   yes \
	alphaTreduceFactor   0.1 \
	alphaTincreaseFactor 3 \
	nAlphaAdjustMax      3 \
	wolfeEnergy          0.0001 \
	wolfeGradient        0.9 \
	fdTest               no
fluid-solvent H2O 55.338 ScalarEOS \
	epsBulk 78.4 \
	pMol 0.92466 \
	epsInf 1.77 \
	Pvap 1.06736e-10 \
	sigmaBulk 4.62e-05 \
	Rvdw 2.61727 \
	Res 1.42 \
	tauNuc 343133 \
	poleEl 15 7 1
forces-output-coords Positions
ion Cs   0.000000000000000   0.000000000000000   0.000000000000000 0
ion-species SG15/$ID_ONCV_PBE.upf
ion-width 0
ionic-minimize  \
	dirUpdateScheme      L-BFGS \
	linminMethod         DirUpdateRecommended \
	nIterations          0 \
	history              15 \
	knormThreshold       0.0001 \
	energyDiffThreshold  1e-06 \
	nEnergyDiff          2 \
	alphaTstart          1 \
	alphaTmin            1e-10 \
	updateTestStepSize   yes \
	alphaTreduceFactor   0.1 \
	alphaTincreaseFactor 3 \
	nAlphaAdjustMax      3 \
	wolfeEnergy          0.0001 \
	wolfeGradient        0.9 \
	fdTest               no
kpoint   0.000000000000   0.000000000000   0.000000000000  1.00000000000000
kpoint-folding 12 12 1 
latt-move-scale 1 1 1
latt-scale 4 4 1 
lattice  \
	   4.727486978767153   -2.363743489383575    0.000000000000000  \
	  -0.000000000000000    4.094123819672498    0.000000000000000  \
	   0.000000000000000    0.000000000000000   40.000000000000000 
lattice-minimize  \
	dirUpdateScheme      L-BFGS \
	linminMethod         DirUpdateRecommended \
	nIterations          0 \
	history              15 \
	knormThreshold       0 \
	energyDiffThreshold  1e-06 \
	nEnergyDiff          2 \
	alphaTstart          1 \
	alphaTmin            1e-10 \
	updateTestStepSize   yes \
	alphaTreduceFactor   0.1 \
	alphaTincreaseFactor 3 \
	nAlphaAdjustMax      3 \
	wolfeEnergy          0.0001 \
	wolfeGradient        0.9 \
	fdTest               no
lcao-params -1 1e-06 1e-05
pcm-variant GLSSA13
spintype z-spin
subspace-rotation-factor 1 yes
symmetries automatic
symmetry-threshold 0.0001



---------- Setting up symmetries ----------

Found 24 point-group symmetries of the bravais lattice
Found 24 space-group symmetries with basis
Applied RMS atom displacement 0 bohrs to make symmetries exact.

---------- Initializing the Grid ----------
R = 
[      18.9099     -9.45497            0  ]
[            0      16.3765            0  ]
[            0            0           40  ]
unit cell volume = 12387.1
G =
[   0.332269   0.191835         -0  ]
[          0   0.383671         -0  ]
[         -0         -0    0.15708  ]
Minimum fftbox size, Smin = [  80  80  164  ]
Chosen fftbox size, S = [  80  80  168  ]

---------- Exchange Correlation functional ----------
Initalized PBE GGA exchange.
Initalized PBE GGA correlation.

---------- Setting up pseudopotentials ----------
Width of ionic core gaussian charges (only for fluid interactions / plotting) set to 0

Reading pseudopotential file '/home/gridsan/aligho/DFT/build-Nov24/pseudopotentials/SG15/Cs_ONCV_PBE.upf':
  'Cs' pseudopotential, 'PBE' functional
  Generated using ONCVPSP code by D. R. Hamann
  Author: Martin Schlipf and Francois Gygi  Date: 150915.
  9 valence electrons, 3 orbitals, 6 projectors, 2414 radial grid points, with lMax = 2
  Transforming local potential to a uniform radial grid of dG=0.02 with 1489 points.
  Transforming nonlocal projectors to a uniform radial grid of dG=0.02 with 432 points.
    5S    l: 0   occupation:  2.0   eigenvalue: -0.982388
    5P    l: 1   occupation:  6.0   eigenvalue: -0.496786
    6S    l: 0   occupation:  1.0   eigenvalue: -0.076670
  Transforming atomic orbitals to a uniform radial grid of dG=0.02 with 432 points.
  Core radius for overlap checks: 2.06 bohrs.
  Reading pulay file /home/gridsan/aligho/DFT/build-Nov24/pseudopotentials/SG15/Cs_ONCV_PBE.pulay ... using dE_dnG = -1.008762e-04 computed for Ecut = 20.

Initialized 1 species with 1 total atoms.

Folded 1 k-points by 12x12x1 to 144 k-points.

---------- Setting up k-points, bands, fillings ----------
Reduced to 19 k-points under symmetry. 
Computing the number of bands and number of electrons
Calculating initial fillings.
nElectrons:   9.000000   nBands: 6   nStates: 38

----- Setting up reduced wavefunction bases (one per k-point) -----
average nbasis = 52924.021 , ideal nbasis = 52918.836

---------- Setting up coulomb interaction ----------
Initialized slab truncation along lattice direction 001

---------- Setting up 2D ewald sum ----------
Optimum gaussian width for ewald sums = 10.498040 bohr.
Real space sums over 289 unit cells with max indices [  8  8  0  ]
Reciprocal space sums over 81 terms with max indices [  4  4  0  ]

---------- Allocating electronic variables ----------
Initializing wave functions:  linear combination of atomic orbitals
Note: number of bands (6) exceeds available atomic orbitals (5)
Cs pseudo-atom occupations:   s ( 2 1 )  p ( 6 )
[d-16-5-2:75248] 18 more processes have sent help message help-mpi-common-cuda.txt / dlopen failed
[d-16-5-2:75248] Set MCA parameter "orte_base_help_aggregate" to 0 to see all help / error messages
[d-16-5-2:75248] 18 more processes have sent help message help-mpi-btl-openib-cpc-base.txt / no cpcs for port
	FillingsUpdate:  mu: -0.077220478  nElectrons: 9.000000  magneticMoment: [ Abs: 0.14000  Tot: -0.14000 ]
LCAOMinimize: Iter:   0  F: -20.1678689484467490  |grad|_K:  7.707e-06  alpha:  1.000e+00
	FillingsUpdate:  mu: -0.077218882  nElectrons: 9.000000  magneticMoment: [ Abs: 0.14000  Tot: -0.14000 ]
LCAOMinimize: Iter:   1  F: -20.1678689886244271  |grad|_K:  3.801e-08  alpha:  9.889e-01  linmin: -1.392e-02  cgtest:  3.865e-01  t[s]:     15.28
LCAOMinimize: Encountered beta<0, resetting CG.
	FillingsUpdate:  mu: -0.077218881  nElectrons: 9.000000  magneticMoment: [ Abs: 0.14000  Tot: -0.14000 ]
LCAOMinimize: Iter:   2  F: -20.1678689886253046  |grad|_K:  7.511e-09  alpha:  1.198e+00  linmin:  3.096e-02  cgtest: -1.000e+00  t[s]:     19.36
LCAOMinimize: Converged (|Delta F|<1.000000e-06 for 2 iters).


---- Citations for features of the code used in this run ----

   Software package:
      R. Sundararaman, K. Letchworth-Weaver, K.A. Schwarz, D. Gunceler, Y. Ozhabes and T.A. Arias, 'JDFTx: software for joint density-functional theory', SoftwareX 6, 278 (2017)

   gga-PBE exchange-correlation functional:
      J.P. Perdew, K. Burke and M. Ernzerhof, Phys. Rev. Lett. 77, 3865 (1996)

   Pseudopotentials:
      M Schlipf and F Gygi, Comput. Phys. Commun. 196, 36 (2015)

   Truncated Coulomb potentials:
      R. Sundararaman and T.A. Arias, Phys. Rev. B 87, 165122 (2013)

This list may not be complete. Please suggest additional citations or
report any other bugs at https://github.com/shankar1729/jdftx/issues

Initialization completed successfully at t[s]:     19.62


-------- Electronic minimization -----------
Will mix electronic density at each iteration.
	FillingsUpdate:  mu: -0.077218881  nElectrons: 9.000000  magneticMoment: [ Abs: 0.14000  Tot: -0.14000 ]
	FillingsUpdate:  mu: -0.077452393  nElectrons: 9.000000  magneticMoment: [ Abs: 0.14000  Tot: -0.14000 ]
SCF: Cycle:  0   F: -20.168125801915590   dF: -2.568e-04   |Residual|: 1.003e-03   |deigs|: 1.753e-01  t[s]:     27.90
	FillingsUpdate:  mu: -0.077513000  nElectrons: 9.000000  magneticMoment: [ Abs: 0.14074  Tot: -0.14000 ]
SCF: Cycle:  1   F: -20.168133877900534   dF: -8.076e-06   |Residual|: 8.843e-04   |deigs|: 3.936e-03  t[s]:     34.42
	FillingsUpdate:  mu: -0.077605695  nElectrons: 9.000000  magneticMoment: [ Abs: 0.14059  Tot: -0.14000 ]
SCF: Cycle:  2   F: -20.168137298867162   dF: -3.421e-06   |Residual|: 7.246e-04   |deigs|: 8.278e-04  t[s]:     41.04
	FillingsUpdate:  mu: -0.077829889  nElectrons: 9.000000  magneticMoment: [ Abs: 0.14202  Tot: -0.14000 ]
SCF: Cycle:  3   F: -20.168142947764174   dF: -5.649e-06   |Residual|: 4.652e-04   |deigs|: 9.312e-04  t[s]:     47.75
	FillingsUpdate:  mu: -0.077932395  nElectrons: 9.000000  magneticMoment: [ Abs: 0.14115  Tot: -0.14000 ]
SCF: Cycle:  4   F: -20.168146025839018   dF: -3.078e-06   |Residual|: 3.042e-04   |deigs|: 4.876e-04  t[s]:     54.64
	FillingsUpdate:  mu: -0.078027158  nElectrons: 9.000000  magneticMoment: [ Abs: 0.14123  Tot: -0.14000 ]
SCF: Cycle:  5   F: -20.168148488981483   dF: -2.463e-06   |Residual|: 2.139e-04   |deigs|: 5.143e-04  t[s]:     61.64
	FillingsUpdate:  mu: -0.078001836  nElectrons: 9.000000  magneticMoment: [ Abs: 0.14125  Tot: -0.14000 ]
SCF: Cycle:  6   F: -20.168149433043631   dF: -9.441e-07   |Residual|: 1.433e-04   |deigs|: 6.562e-04  t[s]:     68.65
	FillingsUpdate:  mu: -0.077966854  nElectrons: 9.000000  magneticMoment: [ Abs: 0.14104  Tot: -0.14000 ]
SCF: Cycle:  7   F: -20.168149904929720   dF: -4.719e-07   |Residual|: 1.078e-04   |deigs|: 6.448e-04  t[s]:     75.86
	FillingsUpdate:  mu: -0.077923970  nElectrons: 9.000000  magneticMoment: [ Abs: 0.14091  Tot: -0.14000 ]
SCF: Cycle:  8   F: -20.168150155689485   dF: -2.508e-07   |Residual|: 8.310e-05   |deigs|: 4.243e-04  t[s]:     83.17
	FillingsUpdate:  mu: -0.077863865  nElectrons: 9.000000  magneticMoment: [ Abs: 0.14098  Tot: -0.14000 ]
SCF: Cycle:  9   F: -20.168150203859586   dF: -4.817e-08   |Residual|: 6.824e-05   |deigs|: 1.371e-04  t[s]:     90.60
	FillingsUpdate:  mu: -0.077817987  nElectrons: 9.000000  magneticMoment: [ Abs: 0.14108  Tot: -0.14000 ]
SCF: Cycle: 10   F: -20.168150224517543   dF: -2.066e-08   |Residual|: 6.606e-05   |deigs|: 2.351e-04  t[s]:     98.10
	FillingsUpdate:  mu: -0.077755155  nElectrons: 9.000000  magneticMoment: [ Abs: 0.14110  Tot: -0.14000 ]
SCF: Cycle: 11   F: -20.168150163331841   dF: +6.119e-08   |Residual|: 5.709e-05   |deigs|: 2.511e-04  t[s]:    105.57
	FillingsUpdate:  mu: -0.077684401  nElectrons: 9.000000  magneticMoment: [ Abs: 0.14119  Tot: -0.14000 ]
SCF: Cycle: 12   F: -20.168150127955631   dF: +3.538e-08   |Residual|: 5.130e-05   |deigs|: 2.311e-04  t[s]:    113.08
	FillingsUpdate:  mu: -0.077627386  nElectrons: 9.000000  magneticMoment: [ Abs: 0.14113  Tot: -0.14000 ]
SCF: Cycle: 13   F: -20.168150030080739   dF: +9.787e-08   |Residual|: 4.999e-05   |deigs|: 2.507e-04  t[s]:    120.56
	FillingsUpdate:  mu: -0.077576117  nElectrons: 9.000000  magneticMoment: [ Abs: 0.14108  Tot: -0.14000 ]
SCF: Cycle: 14   F: -20.168150155620864   dF: -1.255e-07   |Residual|: 4.234e-05   |deigs|: 7.586e-05  t[s]:    128.01
	FillingsUpdate:  mu: -0.077516052  nElectrons: 9.000000  magneticMoment: [ Abs: 0.14102  Tot: -0.14000 ]
SCF: Cycle: 15   F: -20.168150160050413   dF: -4.430e-09   |Residual|: 3.982e-05   |deigs|: 7.157e-05  t[s]:    135.58
	FillingsUpdate:  mu: -0.077473639  nElectrons: 9.000000  magneticMoment: [ Abs: 0.14096  Tot: -0.14000 ]
SCF: Cycle: 16   F: -20.168150150033981   dF: +1.002e-08   |Residual|: 3.561e-05   |deigs|: 4.503e-05  t[s]:    143.11
	FillingsUpdate:  mu: -0.077458947  nElectrons: 9.000000  magneticMoment: [ Abs: 0.14093  Tot: -0.14000 ]
SCF: Cycle: 17   F: -20.168150238652643   dF: -8.862e-08   |Residual|: 2.651e-05   |deigs|: 2.503e-05  t[s]:    150.57
	FillingsUpdate:  mu: -0.077445574  nElectrons: 9.000000  magneticMoment: [ Abs: 0.14091  Tot: -0.14000 ]
SCF: Cycle: 18   F: -20.168150280678894   dF: -4.203e-08   |Residual|: 2.177e-05   |deigs|: 1.873e-05  t[s]:    158.10
	FillingsUpdate:  mu: -0.077433838  nElectrons: 9.000000  magneticMoment: [ Abs: 0.14091  Tot: -0.14000 ]
SCF: Cycle: 19   F: -20.168150338800732   dF: -5.812e-08   |Residual|: 1.629e-05   |deigs|: 1.677e-05  t[s]:    165.60
	FillingsUpdate:  mu: -0.077434299  nElectrons: 9.000000  magneticMoment: [ Abs: 0.14092  Tot: -0.14000 ]
SCF: Cycle: 20   F: -20.168150411777937   dF: -7.298e-08   |Residual|: 1.201e-05   |deigs|: 8.991e-06  t[s]:    173.20
	FillingsUpdate:  mu: -0.077433236  nElectrons: 9.000000  magneticMoment: [ Abs: 0.14093  Tot: -0.14000 ]
SCF: Cycle: 21   F: -20.168150412128288   dF: -3.504e-10   |Residual|: 9.367e-06   |deigs|: 5.804e-06  t[s]:    180.42
	FillingsUpdate:  mu: -0.077431599  nElectrons: 9.000000  magneticMoment: [ Abs: 0.14095  Tot: -0.14000 ]
SCF: Cycle: 22   F: -20.168150436308107   dF: -2.418e-08   |Residual|: 5.528e-06   |deigs|: 5.834e-06  t[s]:    187.95
	FillingsUpdate:  mu: -0.077430285  nElectrons: 9.000000  magneticMoment: [ Abs: 0.14095  Tot: -0.14000 ]
SCF: Cycle: 23   F: -20.168150437457964   dF: -1.150e-09   |Residual|: 4.172e-06   |deigs|: 6.467e-06  t[s]:    194.92
	FillingsUpdate:  mu: -0.077429440  nElectrons: 9.000000  magneticMoment: [ Abs: 0.14094  Tot: -0.14000 ]
SCF: Cycle: 24   F: -20.168150438132912   dF: -6.749e-10   |Residual|: 3.278e-06   |deigs|: 8.277e-06  t[s]:    202.38
SCF: Converged (|Delta E|<1.000000e-08 for 2 iters).


# Ionic positions in lattice coordinates:
ion Cs   0.000000000000000   0.000000000000000   0.000000000000000 0

# Forces in Lattice coordinates:
force Cs  -0.000000000000000  -0.000000000000000   0.000000000000000 0

# Energy components:
   Eewald =       -9.0240130501663280
       EH =        7.0009776767320275
     Eloc =      -23.5845452791445283
      Enl =        3.4362832733093605
   Epulay =        0.0000000422266766
      Exc =       -3.1048457013193689
       KE =        5.1079932880989034
-------------------------------------
     Etot =      -20.1681497502632574
       TS =        0.0000006878696540
-------------------------------------
        F =      -20.1681504381329120

IonicMinimize: Iter:   0  F: -20.168150438132912  |grad|_K:  0.000e+00  t[s]:    202.80
IonicMinimize: Converged (|grad|_K<1.000000e-04).

#--- Lowdin population analysis ---
# oxidation-state Cs +0.006
# magnetic-moments Cs -0.139

End date and time: Sun Feb  6 13:22:29 2022  (Duration: 0-0:03:22.85)
Done!
