The alkali metal is Cs
scale=2
magnetization=-0.34
--------------------------------------------------------------------------
The library attempted to open the following supporting CUDA libraries,
but each of them failed.  CUDA-aware support is disabled.
libcuda.so.1: cannot open shared object file: No such file or directory
libcuda.dylib: cannot open shared object file: No such file or directory
/usr/lib64/libcuda.so.1: cannot open shared object file: No such file or directory
/usr/lib64/libcuda.dylib: cannot open shared object file: No such file or directory
If you are not interested in CUDA-aware support, then run with
--mca opal_warn_on_missing_libcuda 0 to suppress this message.  If you are interested
in CUDA-aware support, then try setting LD_LIBRARY_PATH to the location
of libcuda.so.1 to get passed this issue.
--------------------------------------------------------------------------
--------------------------------------------------------------------------
No OpenFabrics connection schemes reported that they were able to be
used on a specific port.  As such, the openib BTL (OpenFabrics
support) will be disabled for this port.

  Local host:           d-3-15-1
  Local device:         mlx5_1
  Local port:           1
  CPCs attempted:       rdmacm, udcm
--------------------------------------------------------------------------

*************** JDFTx 1.6.0 (git hash 42ebbcc2) ***************

Start date and time: Sun Feb  6 13:16:19 2022
Executable jdftx with command-line: -i Alkali.in
Running on hosts (process indices):  d-3-15-1 (0-18)
Divided in process groups (process indices):  0 (0)  1 (1)  2 (2)  3 (3)  4 (4)  5 (5)  6 (6)  7 (7)  8 (8)  9 (9)  10 (10)  11 (11)  12 (12)  13 (13)  14 (14)  15 (15)  16 (16)  17 (17)  18 (18)
Resource initialization completed at t[s]:      0.00
Run totals: 19 processes, 48 threads, 0 GPUs


Input parsed successfully to the following command list (including defaults):

basis kpoint-dependent
coords-type Lattice
core-overlap-check vector
coulomb-interaction Slab 001
davidson-band-ratio 1.1
dump End None
dump-name $INPUT.$VAR
elec-cutoff 20
elec-eigen-algo Davidson
elec-ex-corr gga-PBE
elec-initial-magnetization -0.340000 yes
elec-smearing Fermi 1e-05
electronic-minimize  \
	dirUpdateScheme      FletcherReeves \
	linminMethod         DirUpdateRecommended \
	nIterations          100 \
	history              15 \
	knormThreshold       0 \
	energyDiffThreshold  1e-08 \
	nEnergyDiff          2 \
	alphaTstart          1 \
	alphaTmin            1e-10 \
	updateTestStepSize   yes \
	alphaTreduceFactor   0.1 \
	alphaTincreaseFactor 3 \
	nAlphaAdjustMax      3 \
	wolfeEnergy          0.0001 \
	wolfeGradient        0.9 \
	fdTest               no
electronic-scf  \
	nIterations	10000 \
	energyDiffThreshold	1e-08 \
	residualThreshold	1e-07 \
	mixFraction	0.5 \
	qMetric	0.8 \
	history	10 \
	nEigSteps	2 \
	eigDiffThreshold	1e-08 \
	mixedVariable	Density \
	qKerker	0.8 \
	qKappa	-1 \
	verbose	no \
	mixFractionMag	1.5
exchange-regularization WignerSeitzTruncated
fluid None
fluid-ex-corr (null) lda-PZ
fluid-gummel-loop 10 1.000000e-05
fluid-minimize  \
	dirUpdateScheme      PolakRibiere \
	linminMethod         DirUpdateRecommended \
	nIterations          100 \
	history              15 \
	knormThreshold       0 \
	energyDiffThreshold  0 \
	nEnergyDiff          2 \
	alphaTstart          1 \
	alphaTmin            1e-10 \
	updateTestStepSize   yes \
	alphaTreduceFactor   0.1 \
	alphaTincreaseFactor 3 \
	nAlphaAdjustMax      3 \
	wolfeEnergy          0.0001 \
	wolfeGradient        0.9 \
	fdTest               no
fluid-solvent H2O 55.338 ScalarEOS \
	epsBulk 78.4 \
	pMol 0.92466 \
	epsInf 1.77 \
	Pvap 1.06736e-10 \
	sigmaBulk 4.62e-05 \
	Rvdw 2.61727 \
	Res 1.42 \
	tauNuc 343133 \
	poleEl 15 7 1
forces-output-coords Positions
ion Cs   0.000000000000000   0.000000000000000   0.000000000000000 0
ion-species SG15/$ID_ONCV_PBE.upf
ion-width 0
ionic-minimize  \
	dirUpdateScheme      L-BFGS \
	linminMethod         DirUpdateRecommended \
	nIterations          0 \
	history              15 \
	knormThreshold       0.0001 \
	energyDiffThreshold  1e-06 \
	nEnergyDiff          2 \
	alphaTstart          1 \
	alphaTmin            1e-10 \
	updateTestStepSize   yes \
	alphaTreduceFactor   0.1 \
	alphaTincreaseFactor 3 \
	nAlphaAdjustMax      3 \
	wolfeEnergy          0.0001 \
	wolfeGradient        0.9 \
	fdTest               no
kpoint   0.000000000000   0.000000000000   0.000000000000  1.00000000000000
kpoint-folding 12 12 1 
latt-move-scale 1 1 1
latt-scale 2 2 1 
lattice  \
	   4.727486978767153   -2.363743489383575    0.000000000000000  \
	  -0.000000000000000    4.094123819672498    0.000000000000000  \
	   0.000000000000000    0.000000000000000   40.000000000000000 
lattice-minimize  \
	dirUpdateScheme      L-BFGS \
	linminMethod         DirUpdateRecommended \
	nIterations          0 \
	history              15 \
	knormThreshold       0 \
	energyDiffThreshold  1e-06 \
	nEnergyDiff          2 \
	alphaTstart          1 \
	alphaTmin            1e-10 \
	updateTestStepSize   yes \
	alphaTreduceFactor   0.1 \
	alphaTincreaseFactor 3 \
	nAlphaAdjustMax      3 \
	wolfeEnergy          0.0001 \
	wolfeGradient        0.9 \
	fdTest               no
lcao-params -1 1e-06 1e-05
pcm-variant GLSSA13
spintype z-spin
subspace-rotation-factor 1 yes
symmetries automatic
symmetry-threshold 0.0001



---------- Setting up symmetries ----------

Found 24 point-group symmetries of the bravais lattice
Found 24 space-group symmetries with basis
Applied RMS atom displacement 0 bohrs to make symmetries exact.

---------- Initializing the Grid ----------
R = 
[      9.45497     -4.72749            0  ]
[            0      8.18825            0  ]
[            0            0           40  ]
unit cell volume = 3096.79
G =
[   0.664538   0.383671         -0  ]
[          0   0.767342         -0  ]
[         -0         -0    0.15708  ]
Minimum fftbox size, Smin = [  40  40  164  ]
Chosen fftbox size, S = [  40  40  168  ]

---------- Exchange Correlation functional ----------
Initalized PBE GGA exchange.
Initalized PBE GGA correlation.

---------- Setting up pseudopotentials ----------
Width of ionic core gaussian charges (only for fluid interactions / plotting) set to 0

Reading pseudopotential file '/home/gridsan/aligho/DFT/build-Nov24/pseudopotentials/SG15/Cs_ONCV_PBE.upf':
  'Cs' pseudopotential, 'PBE' functional
  Generated using ONCVPSP code by D. R. Hamann
  Author: Martin Schlipf and Francois Gygi  Date: 150915.
  9 valence electrons, 3 orbitals, 6 projectors, 2414 radial grid points, with lMax = 2
  Transforming local potential to a uniform radial grid of dG=0.02 with 1489 points.
  Transforming nonlocal projectors to a uniform radial grid of dG=0.02 with 432 points.
    5S    l: 0   occupation:  2.0   eigenvalue: -0.982388
    5P    l: 1   occupation:  6.0   eigenvalue: -0.496786
    6S    l: 0   occupation:  1.0   eigenvalue: -0.076670
  Transforming atomic orbitals to a uniform radial grid of dG=0.02 with 432 points.
  Core radius for overlap checks: 2.06 bohrs.
  Reading pulay file /home/gridsan/aligho/DFT/build-Nov24/pseudopotentials/SG15/Cs_ONCV_PBE.pulay ... using dE_dnG = -1.008762e-04 computed for Ecut = 20.

Initialized 1 species with 1 total atoms.

Folded 1 k-points by 12x12x1 to 144 k-points.

---------- Setting up k-points, bands, fillings ----------
Reduced to 19 k-points under symmetry. 
Computing the number of bands and number of electrons
Calculating initial fillings.
nElectrons:   9.000000   nBands: 6   nStates: 38

----- Setting up reduced wavefunction bases (one per k-point) -----
average nbasis = 13230.521 , ideal nbasis = 13229.709

---------- Setting up coulomb interaction ----------
Initialized slab truncation along lattice direction 001

---------- Setting up 2D ewald sum ----------
Optimum gaussian width for ewald sums = 5.249020 bohr.
Real space sums over 289 unit cells with max indices [  8  8  0  ]
Reciprocal space sums over 81 terms with max indices [  4  4  0  ]

---------- Allocating electronic variables ----------
Initializing wave functions:  linear combination of atomic orbitals
Note: number of bands (6) exceeds available atomic orbitals (5)
Cs pseudo-atom occupations:   s ( 2 1 )  p ( 6 )
	FillingsUpdate:  mu: -0.088763188  nElectrons: 9.000000  magneticMoment: [ Abs: 0.34000  Tot: -0.34000 ]
LCAOMinimize: Iter:   0  F: -20.1797835715544416  |grad|_K:  3.708e-05  alpha:  1.000e+00
	FillingsUpdate:  mu: -0.088746436  nElectrons: 9.000000  magneticMoment: [ Abs: 0.34000  Tot: -0.34000 ]
LCAOMinimize: Iter:   1  F: -20.1797844905909649  |grad|_K:  3.671e-07  alpha:  9.776e-01  linmin: -4.571e-02  cgtest:  3.425e-01  t[s]:      4.52
LCAOMinimize: Encountered beta<0, resetting CG.
[d-3-15-1:47815] 18 more processes have sent help message help-mpi-common-cuda.txt / dlopen failed
[d-3-15-1:47815] Set MCA parameter "orte_base_help_aggregate" to 0 to see all help / error messages
[d-3-15-1:47815] 18 more processes have sent help message help-mpi-btl-openib-cpc-base.txt / no cpcs for port
	FillingsUpdate:  mu: -0.088746546  nElectrons: 9.000000  magneticMoment: [ Abs: 0.34000  Tot: -0.34000 ]
LCAOMinimize: Iter:   2  F: -20.1797844906834811  |grad|_K:  1.872e-09  alpha:  1.005e+00  linmin:  1.304e-01  cgtest: -8.900e-01  t[s]:      5.71
LCAOMinimize: Converged (|Delta F|<1.000000e-06 for 2 iters).


---- Citations for features of the code used in this run ----

   Software package:
      R. Sundararaman, K. Letchworth-Weaver, K.A. Schwarz, D. Gunceler, Y. Ozhabes and T.A. Arias, 'JDFTx: software for joint density-functional theory', SoftwareX 6, 278 (2017)

   gga-PBE exchange-correlation functional:
      J.P. Perdew, K. Burke and M. Ernzerhof, Phys. Rev. Lett. 77, 3865 (1996)

   Pseudopotentials:
      M Schlipf and F Gygi, Comput. Phys. Commun. 196, 36 (2015)

   Truncated Coulomb potentials:
      R. Sundararaman and T.A. Arias, Phys. Rev. B 87, 165122 (2013)

This list may not be complete. Please suggest additional citations or
report any other bugs at https://github.com/shankar1729/jdftx/issues

Initialization completed successfully at t[s]:      5.80


-------- Electronic minimization -----------
Will mix electronic density at each iteration.
	FillingsUpdate:  mu: -0.088746546  nElectrons: 9.000000  magneticMoment: [ Abs: 0.34000  Tot: -0.34000 ]
	FillingsUpdate:  mu: -0.102361398  nElectrons: 9.000000  magneticMoment: [ Abs: 0.34000  Tot: -0.34000 ]
SCF: Cycle:  0   F: -20.185791012287808   dF: -6.007e-03   |Residual|: 1.309e-02   |deigs|: 1.881e-01  t[s]:      8.19
	FillingsUpdate:  mu: -0.102849432  nElectrons: 9.000000  magneticMoment: [ Abs: 0.34000  Tot: -0.34000 ]
SCF: Cycle:  1   F: -20.186355522840579   dF: -5.645e-04   |Residual|: 1.056e-02   |deigs|: 5.027e-03  t[s]:     10.04
	FillingsUpdate:  mu: -0.099867891  nElectrons: 9.000000  magneticMoment: [ Abs: 0.34921  Tot: -0.34000 ]
SCF: Cycle:  2   F: -20.186692966976118   dF: -3.374e-04   |Residual|: 5.018e-03   |deigs|: 2.748e-03  t[s]:     11.92
	FillingsUpdate:  mu: -0.098543671  nElectrons: 9.000000  magneticMoment: [ Abs: 0.34000  Tot: -0.34000 ]
SCF: Cycle:  3   F: -20.186840868944476   dF: -1.479e-04   |Residual|: 3.549e-03   |deigs|: 2.473e-03  t[s]:     13.79
	FillingsUpdate:  mu: -0.096113434  nElectrons: 9.000000  magneticMoment: [ Abs: 0.34113  Tot: -0.34000 ]
SCF: Cycle:  4   F: -20.186915210562645   dF: -7.434e-05   |Residual|: 2.635e-03   |deigs|: 3.163e-03  t[s]:     15.65
	FillingsUpdate:  mu: -0.093639268  nElectrons: 9.000000  magneticMoment: [ Abs: 0.34511  Tot: -0.34000 ]
SCF: Cycle:  5   F: -20.186955761565834   dF: -4.055e-05   |Residual|: 2.330e-03   |deigs|: 3.004e-03  t[s]:     17.55
	FillingsUpdate:  mu: -0.091117266  nElectrons: 9.000000  magneticMoment: [ Abs: 0.35130  Tot: -0.34000 ]
SCF: Cycle:  6   F: -20.186960728963612   dF: -4.967e-06   |Residual|: 1.605e-03   |deigs|: 3.108e-03  t[s]:     19.52
	FillingsUpdate:  mu: -0.089020256  nElectrons: 9.000000  magneticMoment: [ Abs: 0.34910  Tot: -0.34000 ]
SCF: Cycle:  7   F: -20.186984598982971   dF: -2.387e-05   |Residual|: 1.300e-03   |deigs|: 2.195e-03  t[s]:     21.47
	FillingsUpdate:  mu: -0.087680714  nElectrons: 9.000000  magneticMoment: [ Abs: 0.34297  Tot: -0.34000 ]
SCF: Cycle:  8   F: -20.187016991808385   dF: -3.239e-05   |Residual|: 1.080e-03   |deigs|: 1.630e-03  t[s]:     23.52
	FillingsUpdate:  mu: -0.086231097  nElectrons: 9.000000  magneticMoment: [ Abs: 0.34387  Tot: -0.34000 ]
SCF: Cycle:  9   F: -20.187006133424983   dF: +1.086e-05   |Residual|: 8.984e-04   |deigs|: 1.565e-03  t[s]:     25.59
	FillingsUpdate:  mu: -0.084237659  nElectrons: 9.000000  magneticMoment: [ Abs: 0.34614  Tot: -0.34000 ]
SCF: Cycle: 10   F: -20.186999893445918   dF: +6.240e-06   |Residual|: 8.151e-04   |deigs|: 2.120e-03  t[s]:     27.66
	FillingsUpdate:  mu: -0.082425591  nElectrons: 9.000000  magneticMoment: [ Abs: 0.34496  Tot: -0.34000 ]
SCF: Cycle: 11   F: -20.187017090002961   dF: -1.720e-05   |Residual|: 7.532e-04   |deigs|: 1.883e-03  t[s]:     29.69
	FillingsUpdate:  mu: -0.081151145  nElectrons: 9.000000  magneticMoment: [ Abs: 0.34475  Tot: -0.34000 ]
SCF: Cycle: 12   F: -20.187042585010211   dF: -2.550e-05   |Residual|: 6.862e-04   |deigs|: 1.233e-03  t[s]:     31.75
	FillingsUpdate:  mu: -0.079422630  nElectrons: 9.000000  magneticMoment: [ Abs: 0.34463  Tot: -0.34000 ]
SCF: Cycle: 13   F: -20.187054656868039   dF: -1.207e-05   |Residual|: 6.363e-04   |deigs|: 1.721e-03  t[s]:     33.90
	FillingsUpdate:  mu: -0.077242377  nElectrons: 9.000000  magneticMoment: [ Abs: 0.34168  Tot: -0.34000 ]
SCF: Cycle: 14   F: -20.187064677032254   dF: -1.002e-05   |Residual|: 4.911e-04   |deigs|: 2.283e-03  t[s]:     35.92
	FillingsUpdate:  mu: -0.076858934  nElectrons: 9.000000  magneticMoment: [ Abs: 0.34116  Tot: -0.34000 ]
SCF: Cycle: 15   F: -20.187069359548797   dF: -4.683e-06   |Residual|: 3.900e-04   |deigs|: 1.069e-03  t[s]:     37.94
	FillingsUpdate:  mu: -0.076503209  nElectrons: 9.000000  magneticMoment: [ Abs: 0.34010  Tot: -0.34000 ]
SCF: Cycle: 16   F: -20.187073367840696   dF: -4.008e-06   |Residual|: 2.654e-04   |deigs|: 1.146e-03  t[s]:     40.00
	FillingsUpdate:  mu: -0.076265484  nElectrons: 9.000000  magneticMoment: [ Abs: 0.34022  Tot: -0.34000 ]
SCF: Cycle: 17   F: -20.187074469383965   dF: -1.102e-06   |Residual|: 1.929e-04   |deigs|: 3.419e-04  t[s]:     42.00
	FillingsUpdate:  mu: -0.076241649  nElectrons: 9.000000  magneticMoment: [ Abs: 0.34029  Tot: -0.34000 ]
SCF: Cycle: 18   F: -20.187075165735592   dF: -6.964e-07   |Residual|: 1.028e-04   |deigs|: 1.425e-04  t[s]:     44.03
	FillingsUpdate:  mu: -0.076280223  nElectrons: 9.000000  magneticMoment: [ Abs: 0.34023  Tot: -0.34000 ]
SCF: Cycle: 19   F: -20.187075712120695   dF: -5.464e-07   |Residual|: 5.411e-05   |deigs|: 1.047e-04  t[s]:     46.09
	FillingsUpdate:  mu: -0.076313914  nElectrons: 9.000000  magneticMoment: [ Abs: 0.34019  Tot: -0.34000 ]
SCF: Cycle: 20   F: -20.187075784498379   dF: -7.238e-08   |Residual|: 3.759e-05   |deigs|: 8.246e-05  t[s]:     48.15
	FillingsUpdate:  mu: -0.076317461  nElectrons: 9.000000  magneticMoment: [ Abs: 0.34019  Tot: -0.34000 ]
SCF: Cycle: 21   F: -20.187075852688263   dF: -6.819e-08   |Residual|: 2.672e-05   |deigs|: 2.052e-04  t[s]:     50.21
	FillingsUpdate:  mu: -0.076312158  nElectrons: 9.000000  magneticMoment: [ Abs: 0.34017  Tot: -0.34000 ]
SCF: Cycle: 22   F: -20.187075886720663   dF: -3.403e-08   |Residual|: 1.356e-05   |deigs|: 4.670e-04  t[s]:     52.25
	FillingsUpdate:  mu: -0.076303136  nElectrons: 9.000000  magneticMoment: [ Abs: 0.34015  Tot: -0.34000 ]
SCF: Cycle: 23   F: -20.187075904350028   dF: -1.763e-08   |Residual|: 1.287e-05   |deigs|: 1.813e-04  t[s]:     54.28
	FillingsUpdate:  mu: -0.076308248  nElectrons: 9.000000  magneticMoment: [ Abs: 0.34015  Tot: -0.34000 ]
SCF: Cycle: 24   F: -20.187075912533167   dF: -8.183e-09   |Residual|: 1.291e-05   |deigs|: 6.242e-04  t[s]:     56.31
	FillingsUpdate:  mu: -0.076305777  nElectrons: 9.000000  magneticMoment: [ Abs: 0.34015  Tot: -0.34000 ]
SCF: Cycle: 25   F: -20.187075915646183   dF: -3.113e-09   |Residual|: 1.816e-05   |deigs|: 2.921e-04  t[s]:     58.39
SCF: Converged (|Delta E|<1.000000e-08 for 2 iters).


# Ionic positions in lattice coordinates:
ion Cs   0.000000000000000   0.000000000000000   0.000000000000000 0

# Forces in Lattice coordinates:
force Cs   0.000000000000000  -0.000000000000000   0.000000000000000 0

# Energy components:
   Eewald =      -18.0480261003326561
       EH =       -1.8183610947642288
     Eloc =       -5.7646100120671218
      Enl =        3.4415016413627555
   Epulay =        0.0000000264484078
      Exc =       -3.1453636502385032
       KE =        5.1477842505412710
-------------------------------------
     Etot =      -20.1870749390500777
       TS =        0.0000009765961048
-------------------------------------
        F =      -20.1870759156461830

IonicMinimize: Iter:   0  F: -20.187075915646183  |grad|_K:  0.000e+00  t[s]:     58.55
IonicMinimize: Converged (|grad|_K<1.000000e-04).

#--- Lowdin population analysis ---
# oxidation-state Cs +0.063
# magnetic-moments Cs -0.293

End date and time: Sun Feb  6 13:17:18 2022  (Duration: 0-0:00:58.58)
Done!
scale=3
magnetization=-0.34
--------------------------------------------------------------------------
The library attempted to open the following supporting CUDA libraries,
but each of them failed.  CUDA-aware support is disabled.
libcuda.so.1: cannot open shared object file: No such file or directory
libcuda.dylib: cannot open shared object file: No such file or directory
/usr/lib64/libcuda.so.1: cannot open shared object file: No such file or directory
/usr/lib64/libcuda.dylib: cannot open shared object file: No such file or directory
If you are not interested in CUDA-aware support, then run with
--mca opal_warn_on_missing_libcuda 0 to suppress this message.  If you are interested
in CUDA-aware support, then try setting LD_LIBRARY_PATH to the location
of libcuda.so.1 to get passed this issue.
--------------------------------------------------------------------------
--------------------------------------------------------------------------
No OpenFabrics connection schemes reported that they were able to be
used on a specific port.  As such, the openib BTL (OpenFabrics
support) will be disabled for this port.

  Local host:           d-3-15-1
  Local device:         mlx5_1
  Local port:           1
  CPCs attempted:       rdmacm, udcm
--------------------------------------------------------------------------

*************** JDFTx 1.6.0 (git hash 42ebbcc2) ***************

Start date and time: Sun Feb  6 13:17:19 2022
Executable jdftx with command-line: -i Alkali.in
Running on hosts (process indices):  d-3-15-1 (0-18)
Divided in process groups (process indices):  0 (0)  1 (1)  2 (2)  3 (3)  4 (4)  5 (5)  6 (6)  7 (7)  8 (8)  9 (9)  10 (10)  11 (11)  12 (12)  13 (13)  14 (14)  15 (15)  16 (16)  17 (17)  18 (18)
Resource initialization completed at t[s]:      0.00
Run totals: 19 processes, 48 threads, 0 GPUs


Input parsed successfully to the following command list (including defaults):

basis kpoint-dependent
coords-type Lattice
core-overlap-check vector
coulomb-interaction Slab 001
davidson-band-ratio 1.1
dump End None
dump-name $INPUT.$VAR
elec-cutoff 20
elec-eigen-algo Davidson
elec-ex-corr gga-PBE
elec-initial-magnetization -0.340000 yes
elec-smearing Fermi 1e-05
electronic-minimize  \
	dirUpdateScheme      FletcherReeves \
	linminMethod         DirUpdateRecommended \
	nIterations          100 \
	history              15 \
	knormThreshold       0 \
	energyDiffThreshold  1e-08 \
	nEnergyDiff          2 \
	alphaTstart          1 \
	alphaTmin            1e-10 \
	updateTestStepSize   yes \
	alphaTreduceFactor   0.1 \
	alphaTincreaseFactor 3 \
	nAlphaAdjustMax      3 \
	wolfeEnergy          0.0001 \
	wolfeGradient        0.9 \
	fdTest               no
electronic-scf  \
	nIterations	10000 \
	energyDiffThreshold	1e-08 \
	residualThreshold	1e-07 \
	mixFraction	0.5 \
	qMetric	0.8 \
	history	10 \
	nEigSteps	2 \
	eigDiffThreshold	1e-08 \
	mixedVariable	Density \
	qKerker	0.8 \
	qKappa	-1 \
	verbose	no \
	mixFractionMag	1.5
exchange-regularization WignerSeitzTruncated
fluid None
fluid-ex-corr (null) lda-PZ
fluid-gummel-loop 10 1.000000e-05
fluid-minimize  \
	dirUpdateScheme      PolakRibiere \
	linminMethod         DirUpdateRecommended \
	nIterations          100 \
	history              15 \
	knormThreshold       0 \
	energyDiffThreshold  0 \
	nEnergyDiff          2 \
	alphaTstart          1 \
	alphaTmin            1e-10 \
	updateTestStepSize   yes \
	alphaTreduceFactor   0.1 \
	alphaTincreaseFactor 3 \
	nAlphaAdjustMax      3 \
	wolfeEnergy          0.0001 \
	wolfeGradient        0.9 \
	fdTest               no
fluid-solvent H2O 55.338 ScalarEOS \
	epsBulk 78.4 \
	pMol 0.92466 \
	epsInf 1.77 \
	Pvap 1.06736e-10 \
	sigmaBulk 4.62e-05 \
	Rvdw 2.61727 \
	Res 1.42 \
	tauNuc 343133 \
	poleEl 15 7 1
forces-output-coords Positions
ion Cs   0.000000000000000   0.000000000000000   0.000000000000000 0
ion-species SG15/$ID_ONCV_PBE.upf
ion-width 0
ionic-minimize  \
	dirUpdateScheme      L-BFGS \
	linminMethod         DirUpdateRecommended \
	nIterations          0 \
	history              15 \
	knormThreshold       0.0001 \
	energyDiffThreshold  1e-06 \
	nEnergyDiff          2 \
	alphaTstart          1 \
	alphaTmin            1e-10 \
	updateTestStepSize   yes \
	alphaTreduceFactor   0.1 \
	alphaTincreaseFactor 3 \
	nAlphaAdjustMax      3 \
	wolfeEnergy          0.0001 \
	wolfeGradient        0.9 \
	fdTest               no
kpoint   0.000000000000   0.000000000000   0.000000000000  1.00000000000000
kpoint-folding 12 12 1 
latt-move-scale 1 1 1
latt-scale 3 3 1 
lattice  \
	   4.727486978767153   -2.363743489383575    0.000000000000000  \
	  -0.000000000000000    4.094123819672498    0.000000000000000  \
	   0.000000000000000    0.000000000000000   40.000000000000000 
lattice-minimize  \
	dirUpdateScheme      L-BFGS \
	linminMethod         DirUpdateRecommended \
	nIterations          0 \
	history              15 \
	knormThreshold       0 \
	energyDiffThreshold  1e-06 \
	nEnergyDiff          2 \
	alphaTstart          1 \
	alphaTmin            1e-10 \
	updateTestStepSize   yes \
	alphaTreduceFactor   0.1 \
	alphaTincreaseFactor 3 \
	nAlphaAdjustMax      3 \
	wolfeEnergy          0.0001 \
	wolfeGradient        0.9 \
	fdTest               no
lcao-params -1 1e-06 1e-05
pcm-variant GLSSA13
spintype z-spin
subspace-rotation-factor 1 yes
symmetries automatic
symmetry-threshold 0.0001



---------- Setting up symmetries ----------

Found 24 point-group symmetries of the bravais lattice
Found 24 space-group symmetries with basis
Applied RMS atom displacement 0 bohrs to make symmetries exact.

---------- Initializing the Grid ----------
R = 
[      14.1825     -7.09123            0  ]
[            0      12.2824            0  ]
[            0            0           40  ]
unit cell volume = 6967.77
G =
[   0.443025   0.255781         -0  ]
[          0   0.511561         -0  ]
[         -0         -0    0.15708  ]
Minimum fftbox size, Smin = [  60  60  164  ]
Chosen fftbox size, S = [  60  60  168  ]

---------- Exchange Correlation functional ----------
Initalized PBE GGA exchange.
Initalized PBE GGA correlation.

---------- Setting up pseudopotentials ----------
Width of ionic core gaussian charges (only for fluid interactions / plotting) set to 0

Reading pseudopotential file '/home/gridsan/aligho/DFT/build-Nov24/pseudopotentials/SG15/Cs_ONCV_PBE.upf':
  'Cs' pseudopotential, 'PBE' functional
  Generated using ONCVPSP code by D. R. Hamann
  Author: Martin Schlipf and Francois Gygi  Date: 150915.
  9 valence electrons, 3 orbitals, 6 projectors, 2414 radial grid points, with lMax = 2
  Transforming local potential to a uniform radial grid of dG=0.02 with 1489 points.
  Transforming nonlocal projectors to a uniform radial grid of dG=0.02 with 432 points.
    5S    l: 0   occupation:  2.0   eigenvalue: -0.982388
    5P    l: 1   occupation:  6.0   eigenvalue: -0.496786
    6S    l: 0   occupation:  1.0   eigenvalue: -0.076670
  Transforming atomic orbitals to a uniform radial grid of dG=0.02 with 432 points.
  Core radius for overlap checks: 2.06 bohrs.
  Reading pulay file /home/gridsan/aligho/DFT/build-Nov24/pseudopotentials/SG15/Cs_ONCV_PBE.pulay ... using dE_dnG = -1.008762e-04 computed for Ecut = 20.

Initialized 1 species with 1 total atoms.

Folded 1 k-points by 12x12x1 to 144 k-points.

---------- Setting up k-points, bands, fillings ----------
Reduced to 19 k-points under symmetry. 
Computing the number of bands and number of electrons
Calculating initial fillings.
nElectrons:   9.000000   nBands: 6   nStates: 38

----- Setting up reduced wavefunction bases (one per k-point) -----
average nbasis = 29766.104 , ideal nbasis = 29766.845

---------- Setting up coulomb interaction ----------
Initialized slab truncation along lattice direction 001

---------- Setting up 2D ewald sum ----------
Optimum gaussian width for ewald sums = 7.873530 bohr.
Real space sums over 289 unit cells with max indices [  8  8  0  ]
Reciprocal space sums over 81 terms with max indices [  4  4  0  ]

---------- Allocating electronic variables ----------
Initializing wave functions:  linear combination of atomic orbitals
Note: number of bands (6) exceeds available atomic orbitals (5)
Cs pseudo-atom occupations:   s ( 2 1 )  p ( 6 )
[d-3-15-1:97099] 18 more processes have sent help message help-mpi-common-cuda.txt / dlopen failed
[d-3-15-1:97099] Set MCA parameter "orte_base_help_aggregate" to 0 to see all help / error messages
[d-3-15-1:97099] 18 more processes have sent help message help-mpi-btl-openib-cpc-base.txt / no cpcs for port
	FillingsUpdate:  mu: -0.078819123  nElectrons: 9.000000  magneticMoment: [ Abs: 0.34000  Tot: -0.34000 ]
LCAOMinimize: Iter:   0  F: -20.1746351916230822  |grad|_K:  2.299e-05  alpha:  1.000e+00
	FillingsUpdate:  mu: -0.078814080  nElectrons: 9.000000  magneticMoment: [ Abs: 0.34000  Tot: -0.34000 ]
LCAOMinimize: Iter:   1  F: -20.1746355485519224  |grad|_K:  1.620e-07  alpha:  9.871e-01  linmin: -2.930e-02  cgtest:  5.295e-01  t[s]:      8.68
LCAOMinimize: Encountered beta<0, resetting CG.
	FillingsUpdate:  mu: -0.078814077  nElectrons: 9.000000  magneticMoment: [ Abs: 0.34000  Tot: -0.34000 ]
LCAOMinimize: Iter:   2  F: -20.1746355485695510  |grad|_K:  2.681e-09  alpha:  9.845e-01  linmin: -7.742e-02  cgtest:  9.991e-01  t[s]:     11.04
LCAOMinimize: Encountered beta<0, resetting CG.
LCAOMinimize: Converged (|Delta F|<1.000000e-06 for 2 iters).


---- Citations for features of the code used in this run ----

   Software package:
      R. Sundararaman, K. Letchworth-Weaver, K.A. Schwarz, D. Gunceler, Y. Ozhabes and T.A. Arias, 'JDFTx: software for joint density-functional theory', SoftwareX 6, 278 (2017)

   gga-PBE exchange-correlation functional:
      J.P. Perdew, K. Burke and M. Ernzerhof, Phys. Rev. Lett. 77, 3865 (1996)

   Pseudopotentials:
      M Schlipf and F Gygi, Comput. Phys. Commun. 196, 36 (2015)

   Truncated Coulomb potentials:
      R. Sundararaman and T.A. Arias, Phys. Rev. B 87, 165122 (2013)

This list may not be complete. Please suggest additional citations or
report any other bugs at https://github.com/shankar1729/jdftx/issues

Initialization completed successfully at t[s]:     11.20


-------- Electronic minimization -----------
Will mix electronic density at each iteration.
	FillingsUpdate:  mu: -0.078814077  nElectrons: 9.000000  magneticMoment: [ Abs: 0.34000  Tot: -0.34000 ]
	FillingsUpdate:  mu: -0.082134246  nElectrons: 9.000000  magneticMoment: [ Abs: 0.34000  Tot: -0.34000 ]
SCF: Cycle:  0   F: -20.177057294843951   dF: -2.422e-03   |Residual|: 4.744e-03   |deigs|: 1.731e-01  t[s]:     16.00
	FillingsUpdate:  mu: -0.082360382  nElectrons: 9.000000  magneticMoment: [ Abs: 0.34000  Tot: -0.34000 ]
SCF: Cycle:  1   F: -20.177181882318816   dF: -1.246e-04   |Residual|: 4.184e-03   |deigs|: 4.955e-03  t[s]:     19.74
	FillingsUpdate:  mu: -0.082588577  nElectrons: 9.000000  magneticMoment: [ Abs: 0.34245  Tot: -0.34000 ]
SCF: Cycle:  2   F: -20.177257243207261   dF: -7.536e-05   |Residual|: 2.453e-03   |deigs|: 2.316e-03  t[s]:     23.46
	FillingsUpdate:  mu: -0.082628224  nElectrons: 9.000000  magneticMoment: [ Abs: 0.34210  Tot: -0.34000 ]
SCF: Cycle:  3   F: -20.177283387824367   dF: -2.614e-05   |Residual|: 1.667e-03   |deigs|: 1.422e-03  t[s]:     27.39
	FillingsUpdate:  mu: -0.082467771  nElectrons: 9.000000  magneticMoment: [ Abs: 0.34020  Tot: -0.34000 ]
SCF: Cycle:  4   F: -20.177299975568626   dF: -1.659e-05   |Residual|: 9.669e-04   |deigs|: 9.869e-04  t[s]:     31.29
	FillingsUpdate:  mu: -0.082325236  nElectrons: 9.000000  magneticMoment: [ Abs: 0.34024  Tot: -0.34000 ]
SCF: Cycle:  5   F: -20.177307783078831   dF: -7.808e-06   |Residual|: 6.934e-04   |deigs|: 1.004e-03  t[s]:     35.29
	FillingsUpdate:  mu: -0.081996634  nElectrons: 9.000000  magneticMoment: [ Abs: 0.34068  Tot: -0.34000 ]
SCF: Cycle:  6   F: -20.177311482606950   dF: -3.700e-06   |Residual|: 5.446e-04   |deigs|: 1.277e-03  t[s]:     39.38
	FillingsUpdate:  mu: -0.081618937  nElectrons: 9.000000  magneticMoment: [ Abs: 0.34182  Tot: -0.34000 ]
SCF: Cycle:  7   F: -20.177311899072269   dF: -4.165e-07   |Residual|: 4.642e-04   |deigs|: 6.850e-04  t[s]:     43.48
	FillingsUpdate:  mu: -0.080940959  nElectrons: 9.000000  magneticMoment: [ Abs: 0.34285  Tot: -0.34000 ]
SCF: Cycle:  8   F: -20.177308930315363   dF: +2.969e-06   |Residual|: 3.661e-04   |deigs|: 8.399e-04  t[s]:     47.74
	FillingsUpdate:  mu: -0.080398996  nElectrons: 9.000000  magneticMoment: [ Abs: 0.34224  Tot: -0.34000 ]
SCF: Cycle:  9   F: -20.177310568828108   dF: -1.639e-06   |Residual|: 3.328e-04   |deigs|: 7.399e-04  t[s]:     52.00
	FillingsUpdate:  mu: -0.080416814  nElectrons: 9.000000  magneticMoment: [ Abs: 0.34159  Tot: -0.34000 ]
SCF: Cycle: 10   F: -20.177313697744331   dF: -3.129e-06   |Residual|: 2.905e-04   |deigs|: 5.236e-04  t[s]:     56.35
	FillingsUpdate:  mu: -0.079955874  nElectrons: 9.000000  magneticMoment: [ Abs: 0.34257  Tot: -0.34000 ]
SCF: Cycle: 11   F: -20.177314699653991   dF: -1.002e-06   |Residual|: 2.444e-04   |deigs|: 9.688e-04  t[s]:     60.66
	FillingsUpdate:  mu: -0.079373115  nElectrons: 9.000000  magneticMoment: [ Abs: 0.34231  Tot: -0.34000 ]
SCF: Cycle: 12   F: -20.177313806642889   dF: +8.930e-07   |Residual|: 2.398e-04   |deigs|: 7.225e-04  t[s]:     65.01
	FillingsUpdate:  mu: -0.078965133  nElectrons: 9.000000  magneticMoment: [ Abs: 0.34100  Tot: -0.34000 ]
SCF: Cycle: 13   F: -20.177313568361104   dF: +2.383e-07   |Residual|: 2.287e-04   |deigs|: 5.094e-04  t[s]:     69.28
	FillingsUpdate:  mu: -0.078725802  nElectrons: 9.000000  magneticMoment: [ Abs: 0.34167  Tot: -0.34000 ]
SCF: Cycle: 14   F: -20.177315734544354   dF: -2.166e-06   |Residual|: 1.938e-04   |deigs|: 3.103e-04  t[s]:     73.64
	FillingsUpdate:  mu: -0.078394564  nElectrons: 9.000000  magneticMoment: [ Abs: 0.34128  Tot: -0.34000 ]
SCF: Cycle: 15   F: -20.177317705237073   dF: -1.971e-06   |Residual|: 1.521e-04   |deigs|: 3.746e-04  t[s]:     77.87
	FillingsUpdate:  mu: -0.078142442  nElectrons: 9.000000  magneticMoment: [ Abs: 0.34059  Tot: -0.34000 ]
SCF: Cycle: 16   F: -20.177318949405162   dF: -1.244e-06   |Residual|: 9.760e-05   |deigs|: 2.409e-04  t[s]:     82.11
	FillingsUpdate:  mu: -0.078098777  nElectrons: 9.000000  magneticMoment: [ Abs: 0.34045  Tot: -0.34000 ]
SCF: Cycle: 17   F: -20.177319236537532   dF: -2.871e-07   |Residual|: 6.527e-05   |deigs|: 5.961e-05  t[s]:     86.33
	FillingsUpdate:  mu: -0.078112063  nElectrons: 9.000000  magneticMoment: [ Abs: 0.34041  Tot: -0.34000 ]
SCF: Cycle: 18   F: -20.177319425107914   dF: -1.886e-07   |Residual|: 3.741e-05   |deigs|: 4.037e-05  t[s]:     90.72
	FillingsUpdate:  mu: -0.078135683  nElectrons: 9.000000  magneticMoment: [ Abs: 0.34045  Tot: -0.34000 ]
SCF: Cycle: 19   F: -20.177319493837395   dF: -6.873e-08   |Residual|: 2.345e-05   |deigs|: 4.753e-05  t[s]:     95.08
	FillingsUpdate:  mu: -0.078139353  nElectrons: 9.000000  magneticMoment: [ Abs: 0.34044  Tot: -0.34000 ]
SCF: Cycle: 20   F: -20.177319528437611   dF: -3.460e-08   |Residual|: 1.623e-05   |deigs|: 4.570e-05  t[s]:     99.39
	FillingsUpdate:  mu: -0.078149233  nElectrons: 9.000000  magneticMoment: [ Abs: 0.34044  Tot: -0.34000 ]
SCF: Cycle: 21   F: -20.177319542873501   dF: -1.444e-08   |Residual|: 1.194e-05   |deigs|: 7.080e-05  t[s]:    103.75
	FillingsUpdate:  mu: -0.078148581  nElectrons: 9.000000  magneticMoment: [ Abs: 0.34044  Tot: -0.34000 ]
SCF: Cycle: 22   F: -20.177319549714245   dF: -6.841e-09   |Residual|: 7.592e-06   |deigs|: 7.551e-05  t[s]:    108.01
	FillingsUpdate:  mu: -0.078151388  nElectrons: 9.000000  magneticMoment: [ Abs: 0.34044  Tot: -0.34000 ]
SCF: Cycle: 23   F: -20.177319554811948   dF: -5.098e-09   |Residual|: 5.150e-06   |deigs|: 6.372e-05  t[s]:    112.33
SCF: Converged (|Delta E|<1.000000e-08 for 2 iters).


# Ionic positions in lattice coordinates:
ion Cs   0.000000000000000   0.000000000000000   0.000000000000000 0

# Forces in Lattice coordinates:
force Cs   0.000000000000000   0.000000000000000   0.000000000000000 0

# Energy components:
   Eewald =      -12.0320174002217755
       EH =        4.0131495279432059
     Eloc =      -17.5824397392537897
      Enl =        3.4317366687460211
   Epulay =       -0.0000000107257212
      Exc =       -3.1086981875006234
       KE =        5.1009502610234332
-------------------------------------
     Etot =      -20.1773188799892438
       TS =        0.0000006748227032
-------------------------------------
        F =      -20.1773195548119482

IonicMinimize: Iter:   0  F: -20.177319554811948  |grad|_K:  0.000e+00  t[s]:    112.59
IonicMinimize: Converged (|grad|_K<1.000000e-04).

#--- Lowdin population analysis ---
# oxidation-state Cs +0.050
# magnetic-moments Cs -0.305

End date and time: Sun Feb  6 13:19:11 2022  (Duration: 0-0:01:52.64)
Done!
scale=4
magnetization=-0.34
--------------------------------------------------------------------------
The library attempted to open the following supporting CUDA libraries,
but each of them failed.  CUDA-aware support is disabled.
libcuda.so.1: cannot open shared object file: No such file or directory
libcuda.dylib: cannot open shared object file: No such file or directory
/usr/lib64/libcuda.so.1: cannot open shared object file: No such file or directory
/usr/lib64/libcuda.dylib: cannot open shared object file: No such file or directory
If you are not interested in CUDA-aware support, then run with
--mca opal_warn_on_missing_libcuda 0 to suppress this message.  If you are interested
in CUDA-aware support, then try setting LD_LIBRARY_PATH to the location
of libcuda.so.1 to get passed this issue.
--------------------------------------------------------------------------
--------------------------------------------------------------------------
No OpenFabrics connection schemes reported that they were able to be
used on a specific port.  As such, the openib BTL (OpenFabrics
support) will be disabled for this port.

  Local host:           d-3-15-1
  Local device:         mlx5_1
  Local port:           1
  CPCs attempted:       rdmacm, udcm
--------------------------------------------------------------------------

*************** JDFTx 1.6.0 (git hash 42ebbcc2) ***************

Start date and time: Sun Feb  6 13:19:12 2022
Executable jdftx with command-line: -i Alkali.in
Running on hosts (process indices):  d-3-15-1 (0-18)
Divided in process groups (process indices):  0 (0)  1 (1)  2 (2)  3 (3)  4 (4)  5 (5)  6 (6)  7 (7)  8 (8)  9 (9)  10 (10)  11 (11)  12 (12)  13 (13)  14 (14)  15 (15)  16 (16)  17 (17)  18 (18)
Resource initialization completed at t[s]:      0.00
Run totals: 19 processes, 48 threads, 0 GPUs


Input parsed successfully to the following command list (including defaults):

basis kpoint-dependent
coords-type Lattice
core-overlap-check vector
coulomb-interaction Slab 001
davidson-band-ratio 1.1
dump End None
dump-name $INPUT.$VAR
elec-cutoff 20
elec-eigen-algo Davidson
elec-ex-corr gga-PBE
elec-initial-magnetization -0.340000 yes
elec-smearing Fermi 1e-05
electronic-minimize  \
	dirUpdateScheme      FletcherReeves \
	linminMethod         DirUpdateRecommended \
	nIterations          100 \
	history              15 \
	knormThreshold       0 \
	energyDiffThreshold  1e-08 \
	nEnergyDiff          2 \
	alphaTstart          1 \
	alphaTmin            1e-10 \
	updateTestStepSize   yes \
	alphaTreduceFactor   0.1 \
	alphaTincreaseFactor 3 \
	nAlphaAdjustMax      3 \
	wolfeEnergy          0.0001 \
	wolfeGradient        0.9 \
	fdTest               no
electronic-scf  \
	nIterations	10000 \
	energyDiffThreshold	1e-08 \
	residualThreshold	1e-07 \
	mixFraction	0.5 \
	qMetric	0.8 \
	history	10 \
	nEigSteps	2 \
	eigDiffThreshold	1e-08 \
	mixedVariable	Density \
	qKerker	0.8 \
	qKappa	-1 \
	verbose	no \
	mixFractionMag	1.5
exchange-regularization WignerSeitzTruncated
fluid None
fluid-ex-corr (null) lda-PZ
fluid-gummel-loop 10 1.000000e-05
fluid-minimize  \
	dirUpdateScheme      PolakRibiere \
	linminMethod         DirUpdateRecommended \
	nIterations          100 \
	history              15 \
	knormThreshold       0 \
	energyDiffThreshold  0 \
	nEnergyDiff          2 \
	alphaTstart          1 \
	alphaTmin            1e-10 \
	updateTestStepSize   yes \
	alphaTreduceFactor   0.1 \
	alphaTincreaseFactor 3 \
	nAlphaAdjustMax      3 \
	wolfeEnergy          0.0001 \
	wolfeGradient        0.9 \
	fdTest               no
fluid-solvent H2O 55.338 ScalarEOS \
	epsBulk 78.4 \
	pMol 0.92466 \
	epsInf 1.77 \
	Pvap 1.06736e-10 \
	sigmaBulk 4.62e-05 \
	Rvdw 2.61727 \
	Res 1.42 \
	tauNuc 343133 \
	poleEl 15 7 1
forces-output-coords Positions
ion Cs   0.000000000000000   0.000000000000000   0.000000000000000 0
ion-species SG15/$ID_ONCV_PBE.upf
ion-width 0
ionic-minimize  \
	dirUpdateScheme      L-BFGS \
	linminMethod         DirUpdateRecommended \
	nIterations          0 \
	history              15 \
	knormThreshold       0.0001 \
	energyDiffThreshold  1e-06 \
	nEnergyDiff          2 \
	alphaTstart          1 \
	alphaTmin            1e-10 \
	updateTestStepSize   yes \
	alphaTreduceFactor   0.1 \
	alphaTincreaseFactor 3 \
	nAlphaAdjustMax      3 \
	wolfeEnergy          0.0001 \
	wolfeGradient        0.9 \
	fdTest               no
kpoint   0.000000000000   0.000000000000   0.000000000000  1.00000000000000
kpoint-folding 12 12 1 
latt-move-scale 1 1 1
latt-scale 4 4 1 
lattice  \
	   4.727486978767153   -2.363743489383575    0.000000000000000  \
	  -0.000000000000000    4.094123819672498    0.000000000000000  \
	   0.000000000000000    0.000000000000000   40.000000000000000 
lattice-minimize  \
	dirUpdateScheme      L-BFGS \
	linminMethod         DirUpdateRecommended \
	nIterations          0 \
	history              15 \
	knormThreshold       0 \
	energyDiffThreshold  1e-06 \
	nEnergyDiff          2 \
	alphaTstart          1 \
	alphaTmin            1e-10 \
	updateTestStepSize   yes \
	alphaTreduceFactor   0.1 \
	alphaTincreaseFactor 3 \
	nAlphaAdjustMax      3 \
	wolfeEnergy          0.0001 \
	wolfeGradient        0.9 \
	fdTest               no
lcao-params -1 1e-06 1e-05
pcm-variant GLSSA13
spintype z-spin
subspace-rotation-factor 1 yes
symmetries automatic
symmetry-threshold 0.0001



---------- Setting up symmetries ----------

Found 24 point-group symmetries of the bravais lattice
Found 24 space-group symmetries with basis
Applied RMS atom displacement 0 bohrs to make symmetries exact.

---------- Initializing the Grid ----------
R = 
[      18.9099     -9.45497            0  ]
[            0      16.3765            0  ]
[            0            0           40  ]
unit cell volume = 12387.1
G =
[   0.332269   0.191835         -0  ]
[          0   0.383671         -0  ]
[         -0         -0    0.15708  ]
Minimum fftbox size, Smin = [  80  80  164  ]
Chosen fftbox size, S = [  80  80  168  ]

---------- Exchange Correlation functional ----------
Initalized PBE GGA exchange.
Initalized PBE GGA correlation.

---------- Setting up pseudopotentials ----------
Width of ionic core gaussian charges (only for fluid interactions / plotting) set to 0

Reading pseudopotential file '/home/gridsan/aligho/DFT/build-Nov24/pseudopotentials/SG15/Cs_ONCV_PBE.upf':
  'Cs' pseudopotential, 'PBE' functional
  Generated using ONCVPSP code by D. R. Hamann
  Author: Martin Schlipf and Francois Gygi  Date: 150915.
  9 valence electrons, 3 orbitals, 6 projectors, 2414 radial grid points, with lMax = 2
  Transforming local potential to a uniform radial grid of dG=0.02 with 1489 points.
  Transforming nonlocal projectors to a uniform radial grid of dG=0.02 with 432 points.
    5S    l: 0   occupation:  2.0   eigenvalue: -0.982388
    5P    l: 1   occupation:  6.0   eigenvalue: -0.496786
    6S    l: 0   occupation:  1.0   eigenvalue: -0.076670
  Transforming atomic orbitals to a uniform radial grid of dG=0.02 with 432 points.
  Core radius for overlap checks: 2.06 bohrs.
  Reading pulay file /home/gridsan/aligho/DFT/build-Nov24/pseudopotentials/SG15/Cs_ONCV_PBE.pulay ... using dE_dnG = -1.008762e-04 computed for Ecut = 20.

Initialized 1 species with 1 total atoms.

Folded 1 k-points by 12x12x1 to 144 k-points.

---------- Setting up k-points, bands, fillings ----------
Reduced to 19 k-points under symmetry. 
Computing the number of bands and number of electrons
Calculating initial fillings.
nElectrons:   9.000000   nBands: 6   nStates: 38

----- Setting up reduced wavefunction bases (one per k-point) -----
average nbasis = 52924.021 , ideal nbasis = 52918.836

---------- Setting up coulomb interaction ----------
Initialized slab truncation along lattice direction 001

---------- Setting up 2D ewald sum ----------
Optimum gaussian width for ewald sums = 10.498040 bohr.
Real space sums over 289 unit cells with max indices [  8  8  0  ]
Reciprocal space sums over 81 terms with max indices [  4  4  0  ]

---------- Allocating electronic variables ----------
Initializing wave functions:  linear combination of atomic orbitals
Note: number of bands (6) exceeds available atomic orbitals (5)
Cs pseudo-atom occupations:   s ( 2 1 )  p ( 6 )
[d-3-15-1:51484] 18 more processes have sent help message help-mpi-common-cuda.txt / dlopen failed
[d-3-15-1:51484] Set MCA parameter "orte_base_help_aggregate" to 0 to see all help / error messages
[d-3-15-1:51484] 18 more processes have sent help message help-mpi-btl-openib-cpc-base.txt / no cpcs for port
	FillingsUpdate:  mu: -0.077336683  nElectrons: 9.000000  magneticMoment: [ Abs: 0.34000  Tot: -0.34000 ]
LCAOMinimize: Iter:   0  F: -20.1680425363638456  |grad|_K:  6.873e-06  alpha:  1.000e+00
	FillingsUpdate:  mu: -0.077335272  nElectrons: 9.000000  magneticMoment: [ Abs: 0.34000  Tot: -0.34000 ]
LCAOMinimize: Iter:   1  F: -20.1680425683361193  |grad|_K:  3.357e-08  alpha:  9.895e-01  linmin: -1.740e-03  cgtest:  3.458e-01  t[s]:     15.02
LCAOMinimize: Encountered beta<0, resetting CG.
	FillingsUpdate:  mu: -0.077335272  nElectrons: 9.000000  magneticMoment: [ Abs: 0.34000  Tot: -0.34000 ]
LCAOMinimize: Iter:   2  F: -20.1680425683368334  |grad|_K:  4.352e-09  alpha:  8.707e-01  linmin: -4.735e-03  cgtest:  1.000e+00  t[s]:     19.06
LCAOMinimize: Encountered beta<0, resetting CG.
LCAOMinimize: Converged (|Delta F|<1.000000e-06 for 2 iters).


---- Citations for features of the code used in this run ----

   Software package:
      R. Sundararaman, K. Letchworth-Weaver, K.A. Schwarz, D. Gunceler, Y. Ozhabes and T.A. Arias, 'JDFTx: software for joint density-functional theory', SoftwareX 6, 278 (2017)

   gga-PBE exchange-correlation functional:
      J.P. Perdew, K. Burke and M. Ernzerhof, Phys. Rev. Lett. 77, 3865 (1996)

   Pseudopotentials:
      M Schlipf and F Gygi, Comput. Phys. Commun. 196, 36 (2015)

   Truncated Coulomb potentials:
      R. Sundararaman and T.A. Arias, Phys. Rev. B 87, 165122 (2013)

This list may not be complete. Please suggest additional citations or
report any other bugs at https://github.com/shankar1729/jdftx/issues

Initialization completed successfully at t[s]:     19.32


-------- Electronic minimization -----------
Will mix electronic density at each iteration.
	FillingsUpdate:  mu: -0.077335272  nElectrons: 9.000000  magneticMoment: [ Abs: 0.34000  Tot: -0.34000 ]
	FillingsUpdate:  mu: -0.077537969  nElectrons: 9.000000  magneticMoment: [ Abs: 0.34000  Tot: -0.34000 ]
SCF: Cycle:  0   F: -20.168268222419393   dF: -2.257e-04   |Residual|: 1.081e-03   |deigs|: 1.749e-01  t[s]:     27.40
	FillingsUpdate:  mu: -0.077587487  nElectrons: 9.000000  magneticMoment: [ Abs: 0.34167  Tot: -0.34000 ]
SCF: Cycle:  1   F: -20.168276450439592   dF: -8.228e-06   |Residual|: 7.824e-04   |deigs|: 4.416e-03  t[s]:     33.79
	FillingsUpdate:  mu: -0.077644377  nElectrons: 9.000000  magneticMoment: [ Abs: 0.34172  Tot: -0.34000 ]
SCF: Cycle:  2   F: -20.168279210703876   dF: -2.760e-06   |Residual|: 6.517e-04   |deigs|: 8.467e-04  t[s]:     40.33
	FillingsUpdate:  mu: -0.077767973  nElectrons: 9.000000  magneticMoment: [ Abs: 0.34293  Tot: -0.34000 ]
SCF: Cycle:  3   F: -20.168282297011238   dF: -3.086e-06   |Residual|: 4.640e-04   |deigs|: 7.690e-04  t[s]:     46.94
	FillingsUpdate:  mu: -0.077884701  nElectrons: 9.000000  magneticMoment: [ Abs: 0.34262  Tot: -0.34000 ]
SCF: Cycle:  4   F: -20.168285476336475   dF: -3.179e-06   |Residual|: 3.110e-04   |deigs|: 7.269e-04  t[s]:     53.67
	FillingsUpdate:  mu: -0.077979349  nElectrons: 9.000000  magneticMoment: [ Abs: 0.34263  Tot: -0.34000 ]
SCF: Cycle:  5   F: -20.168287585846048   dF: -2.110e-06   |Residual|: 1.985e-04   |deigs|: 5.540e-04  t[s]:     60.49
	FillingsUpdate:  mu: -0.077972598  nElectrons: 9.000000  magneticMoment: [ Abs: 0.34268  Tot: -0.34000 ]
SCF: Cycle:  6   F: -20.168288518895157   dF: -9.330e-07   |Residual|: 1.396e-04   |deigs|: 3.984e-04  t[s]:     67.44
	FillingsUpdate:  mu: -0.077957211  nElectrons: 9.000000  magneticMoment: [ Abs: 0.34245  Tot: -0.34000 ]
SCF: Cycle:  7   F: -20.168289046159824   dF: -5.273e-07   |Residual|: 1.037e-04   |deigs|: 2.737e-04  t[s]:     74.48
	FillingsUpdate:  mu: -0.077923086  nElectrons: 9.000000  magneticMoment: [ Abs: 0.34234  Tot: -0.34000 ]
SCF: Cycle:  8   F: -20.168289391950765   dF: -3.458e-07   |Residual|: 8.225e-05   |deigs|: 2.943e-04  t[s]:     81.65
	FillingsUpdate:  mu: -0.077864631  nElectrons: 9.000000  magneticMoment: [ Abs: 0.34226  Tot: -0.34000 ]
SCF: Cycle:  9   F: -20.168289474274594   dF: -8.232e-08   |Residual|: 6.853e-05   |deigs|: 5.235e-04  t[s]:     88.94
	FillingsUpdate:  mu: -0.077818659  nElectrons: 9.000000  magneticMoment: [ Abs: 0.34246  Tot: -0.34000 ]
SCF: Cycle: 10   F: -20.168289498411401   dF: -2.414e-08   |Residual|: 6.020e-05   |deigs|: 2.880e-04  t[s]:     96.32
	FillingsUpdate:  mu: -0.077773224  nElectrons: 9.000000  magneticMoment: [ Abs: 0.34256  Tot: -0.34000 ]
SCF: Cycle: 11   F: -20.168289483506204   dF: +1.491e-08   |Residual|: 5.749e-05   |deigs|: 2.025e-04  t[s]:    103.79
	FillingsUpdate:  mu: -0.077703631  nElectrons: 9.000000  magneticMoment: [ Abs: 0.34257  Tot: -0.34000 ]
SCF: Cycle: 12   F: -20.168289149971066   dF: +3.335e-07   |Residual|: 5.131e-05   |deigs|: 2.115e-04  t[s]:    111.17
	FillingsUpdate:  mu: -0.077636548  nElectrons: 9.000000  magneticMoment: [ Abs: 0.34267  Tot: -0.34000 ]
SCF: Cycle: 13   F: -20.168289334111265   dF: -1.841e-07   |Residual|: 4.581e-05   |deigs|: 3.093e-04  t[s]:    118.55
	FillingsUpdate:  mu: -0.077592176  nElectrons: 9.000000  magneticMoment: [ Abs: 0.34267  Tot: -0.34000 ]
SCF: Cycle: 14   F: -20.168289481596798   dF: -1.475e-07   |Residual|: 4.071e-05   |deigs|: 2.198e-04  t[s]:    125.91
	FillingsUpdate:  mu: -0.077541708  nElectrons: 9.000000  magneticMoment: [ Abs: 0.34248  Tot: -0.34000 ]
SCF: Cycle: 15   F: -20.168289494445979   dF: -1.285e-08   |Residual|: 3.743e-05   |deigs|: 1.210e-04  t[s]:    133.31
	FillingsUpdate:  mu: -0.077486855  nElectrons: 9.000000  magneticMoment: [ Abs: 0.34239  Tot: -0.34000 ]
SCF: Cycle: 16   F: -20.168289432793507   dF: +6.165e-08   |Residual|: 3.413e-05   |deigs|: 8.907e-05  t[s]:    140.64
	FillingsUpdate:  mu: -0.077471334  nElectrons: 9.000000  magneticMoment: [ Abs: 0.34231  Tot: -0.34000 ]
SCF: Cycle: 17   F: -20.168289614638624   dF: -1.818e-07   |Residual|: 2.585e-05   |deigs|: 4.372e-05  t[s]:    148.04
	FillingsUpdate:  mu: -0.077462352  nElectrons: 9.000000  magneticMoment: [ Abs: 0.34223  Tot: -0.34000 ]
SCF: Cycle: 18   F: -20.168289599019687   dF: +1.562e-08   |Residual|: 2.062e-05   |deigs|: 2.830e-05  t[s]:    155.36
	FillingsUpdate:  mu: -0.077450336  nElectrons: 9.000000  magneticMoment: [ Abs: 0.34223  Tot: -0.34000 ]
SCF: Cycle: 19   F: -20.168289679787982   dF: -8.077e-08   |Residual|: 1.645e-05   |deigs|: 1.888e-05  t[s]:    162.76
	FillingsUpdate:  mu: -0.077442961  nElectrons: 9.000000  magneticMoment: [ Abs: 0.34224  Tot: -0.34000 ]
SCF: Cycle: 20   F: -20.168289709335173   dF: -2.955e-08   |Residual|: 1.202e-05   |deigs|: 1.336e-05  t[s]:    170.16
	FillingsUpdate:  mu: -0.077444795  nElectrons: 9.000000  magneticMoment: [ Abs: 0.34225  Tot: -0.34000 ]
SCF: Cycle: 21   F: -20.168289744513547   dF: -3.518e-08   |Residual|: 8.485e-06   |deigs|: 1.268e-05  t[s]:    177.52
	FillingsUpdate:  mu: -0.077444521  nElectrons: 9.000000  magneticMoment: [ Abs: 0.34226  Tot: -0.34000 ]
SCF: Cycle: 22   F: -20.168289741230492   dF: +3.283e-09   |Residual|: 5.935e-06   |deigs|: 1.099e-05  t[s]:    184.87
	FillingsUpdate:  mu: -0.077444949  nElectrons: 9.000000  magneticMoment: [ Abs: 0.34227  Tot: -0.34000 ]
SCF: Cycle: 23   F: -20.168289750825565   dF: -9.595e-09   |Residual|: 4.096e-06   |deigs|: 1.288e-05  t[s]:    192.30
	FillingsUpdate:  mu: -0.077445545  nElectrons: 9.000000  magneticMoment: [ Abs: 0.34227  Tot: -0.34000 ]
SCF: Cycle: 24   F: -20.168289750653972   dF: +1.716e-10   |Residual|: 3.217e-06   |deigs|: 1.645e-05  t[s]:    199.29
	FillingsUpdate:  mu: -0.077445948  nElectrons: 9.000000  magneticMoment: [ Abs: 0.34226  Tot: -0.34000 ]
SCF: Cycle: 25   F: -20.168289750029373   dF: +6.246e-10   |Residual|: 2.158e-06   |deigs|: 2.024e-05  t[s]:    206.62
	FillingsUpdate:  mu: -0.077447013  nElectrons: 9.000000  magneticMoment: [ Abs: 0.34225  Tot: -0.34000 ]
SCF: Cycle: 26   F: -20.168289753496580   dF: -3.467e-09   |Residual|: 1.063e-06   |deigs|: 2.388e-05  t[s]:    213.97
	FillingsUpdate:  mu: -0.077447311  nElectrons: 9.000000  magneticMoment: [ Abs: 0.34225  Tot: -0.34000 ]
SCF: Cycle: 27   F: -20.168289753764025   dF: -2.674e-10   |Residual|: 7.677e-07   |deigs|: 2.532e-05  t[s]:    220.49
SCF: Converged (|Delta E|<1.000000e-08 for 2 iters).


# Ionic positions in lattice coordinates:
ion Cs   0.000000000000000   0.000000000000000   0.000000000000000 0

# Forces in Lattice coordinates:
force Cs  -0.000000000000000   0.000000000000000   0.000000000000000 0

# Energy components:
   Eewald =       -9.0240130501663280
       EH =        7.0065558011623716
     Eloc =      -23.5908509220656057
      Enl =        3.4366263150745668
   Epulay =        0.0000000422266766
      Exc =       -3.1057931550004279
       KE =        5.1091864258924033
-------------------------------------
     Etot =      -20.1682885428763434
       TS =        0.0000012108876821
-------------------------------------
        F =      -20.1682897537640251

IonicMinimize: Iter:   0  F: -20.168289753764025  |grad|_K:  0.000e+00  t[s]:    220.91
IonicMinimize: Converged (|grad|_K<1.000000e-04).

#--- Lowdin population analysis ---
# oxidation-state Cs +0.005
# magnetic-moments Cs -0.338

End date and time: Sun Feb  6 13:22:53 2022  (Duration: 0-0:03:40.98)
Done!
