The alkali metal is Cs
scale=2
magnetization=0.12
--------------------------------------------------------------------------
The library attempted to open the following supporting CUDA libraries,
but each of them failed.  CUDA-aware support is disabled.
libcuda.so.1: cannot open shared object file: No such file or directory
libcuda.dylib: cannot open shared object file: No such file or directory
/usr/lib64/libcuda.so.1: cannot open shared object file: No such file or directory
/usr/lib64/libcuda.dylib: cannot open shared object file: No such file or directory
If you are not interested in CUDA-aware support, then run with
--mca opal_warn_on_missing_libcuda 0 to suppress this message.  If you are interested
in CUDA-aware support, then try setting LD_LIBRARY_PATH to the location
of libcuda.so.1 to get passed this issue.
--------------------------------------------------------------------------
--------------------------------------------------------------------------
No OpenFabrics connection schemes reported that they were able to be
used on a specific port.  As such, the openib BTL (OpenFabrics
support) will be disabled for this port.

  Local host:           d-3-4-3
  Local device:         mlx5_1
  Local port:           1
  CPCs attempted:       rdmacm, udcm
--------------------------------------------------------------------------

*************** JDFTx 1.6.0 (git hash 42ebbcc2) ***************

Start date and time: Sun Feb  6 13:22:59 2022
Executable jdftx with command-line: -i Alkali.in
Running on hosts (process indices):  d-3-4-3 (0-18)
Divided in process groups (process indices):  0 (0)  1 (1)  2 (2)  3 (3)  4 (4)  5 (5)  6 (6)  7 (7)  8 (8)  9 (9)  10 (10)  11 (11)  12 (12)  13 (13)  14 (14)  15 (15)  16 (16)  17 (17)  18 (18)
Resource initialization completed at t[s]:      0.00
Run totals: 19 processes, 48 threads, 0 GPUs


Input parsed successfully to the following command list (including defaults):

basis kpoint-dependent
coords-type Lattice
core-overlap-check vector
coulomb-interaction Slab 001
davidson-band-ratio 1.1
dump End None
dump-name $INPUT.$VAR
elec-cutoff 20
elec-eigen-algo Davidson
elec-ex-corr gga-PBE
elec-initial-magnetization 0.120000 yes
elec-smearing Fermi 1e-05
electronic-minimize  \
	dirUpdateScheme      FletcherReeves \
	linminMethod         DirUpdateRecommended \
	nIterations          100 \
	history              15 \
	knormThreshold       0 \
	energyDiffThreshold  1e-08 \
	nEnergyDiff          2 \
	alphaTstart          1 \
	alphaTmin            1e-10 \
	updateTestStepSize   yes \
	alphaTreduceFactor   0.1 \
	alphaTincreaseFactor 3 \
	nAlphaAdjustMax      3 \
	wolfeEnergy          0.0001 \
	wolfeGradient        0.9 \
	fdTest               no
electronic-scf  \
	nIterations	10000 \
	energyDiffThreshold	1e-08 \
	residualThreshold	1e-07 \
	mixFraction	0.5 \
	qMetric	0.8 \
	history	10 \
	nEigSteps	2 \
	eigDiffThreshold	1e-08 \
	mixedVariable	Density \
	qKerker	0.8 \
	qKappa	-1 \
	verbose	no \
	mixFractionMag	1.5
exchange-regularization WignerSeitzTruncated
fluid None
fluid-ex-corr (null) lda-PZ
fluid-gummel-loop 10 1.000000e-05
fluid-minimize  \
	dirUpdateScheme      PolakRibiere \
	linminMethod         DirUpdateRecommended \
	nIterations          100 \
	history              15 \
	knormThreshold       0 \
	energyDiffThreshold  0 \
	nEnergyDiff          2 \
	alphaTstart          1 \
	alphaTmin            1e-10 \
	updateTestStepSize   yes \
	alphaTreduceFactor   0.1 \
	alphaTincreaseFactor 3 \
	nAlphaAdjustMax      3 \
	wolfeEnergy          0.0001 \
	wolfeGradient        0.9 \
	fdTest               no
fluid-solvent H2O 55.338 ScalarEOS \
	epsBulk 78.4 \
	pMol 0.92466 \
	epsInf 1.77 \
	Pvap 1.06736e-10 \
	sigmaBulk 4.62e-05 \
	Rvdw 2.61727 \
	Res 1.42 \
	tauNuc 343133 \
	poleEl 15 7 1
forces-output-coords Positions
ion Cs   0.000000000000000   0.000000000000000   0.000000000000000 0
ion-species SG15/$ID_ONCV_PBE.upf
ion-width 0
ionic-minimize  \
	dirUpdateScheme      L-BFGS \
	linminMethod         DirUpdateRecommended \
	nIterations          0 \
	history              15 \
	knormThreshold       0.0001 \
	energyDiffThreshold  1e-06 \
	nEnergyDiff          2 \
	alphaTstart          1 \
	alphaTmin            1e-10 \
	updateTestStepSize   yes \
	alphaTreduceFactor   0.1 \
	alphaTincreaseFactor 3 \
	nAlphaAdjustMax      3 \
	wolfeEnergy          0.0001 \
	wolfeGradient        0.9 \
	fdTest               no
kpoint   0.000000000000   0.000000000000   0.000000000000  1.00000000000000
kpoint-folding 12 12 1 
latt-move-scale 1 1 1
latt-scale 2 2 1 
lattice  \
	   4.727486978767153   -2.363743489383575    0.000000000000000  \
	  -0.000000000000000    4.094123819672498    0.000000000000000  \
	   0.000000000000000    0.000000000000000   40.000000000000000 
lattice-minimize  \
	dirUpdateScheme      L-BFGS \
	linminMethod         DirUpdateRecommended \
	nIterations          0 \
	history              15 \
	knormThreshold       0 \
	energyDiffThreshold  1e-06 \
	nEnergyDiff          2 \
	alphaTstart          1 \
	alphaTmin            1e-10 \
	updateTestStepSize   yes \
	alphaTreduceFactor   0.1 \
	alphaTincreaseFactor 3 \
	nAlphaAdjustMax      3 \
	wolfeEnergy          0.0001 \
	wolfeGradient        0.9 \
	fdTest               no
lcao-params -1 1e-06 1e-05
pcm-variant GLSSA13
spintype z-spin
subspace-rotation-factor 1 yes
symmetries automatic
symmetry-threshold 0.0001



---------- Setting up symmetries ----------

Found 24 point-group symmetries of the bravais lattice
Found 24 space-group symmetries with basis
Applied RMS atom displacement 0 bohrs to make symmetries exact.

---------- Initializing the Grid ----------
R = 
[      9.45497     -4.72749            0  ]
[            0      8.18825            0  ]
[            0            0           40  ]
unit cell volume = 3096.79
G =
[   0.664538   0.383671         -0  ]
[          0   0.767342         -0  ]
[         -0         -0    0.15708  ]
Minimum fftbox size, Smin = [  40  40  164  ]
Chosen fftbox size, S = [  40  40  168  ]

---------- Exchange Correlation functional ----------
Initalized PBE GGA exchange.
Initalized PBE GGA correlation.

---------- Setting up pseudopotentials ----------
Width of ionic core gaussian charges (only for fluid interactions / plotting) set to 0

Reading pseudopotential file '/home/gridsan/aligho/DFT/build-Nov24/pseudopotentials/SG15/Cs_ONCV_PBE.upf':
  'Cs' pseudopotential, 'PBE' functional
  Generated using ONCVPSP code by D. R. Hamann
  Author: Martin Schlipf and Francois Gygi  Date: 150915.
  9 valence electrons, 3 orbitals, 6 projectors, 2414 radial grid points, with lMax = 2
  Transforming local potential to a uniform radial grid of dG=0.02 with 1489 points.
  Transforming nonlocal projectors to a uniform radial grid of dG=0.02 with 432 points.
    5S    l: 0   occupation:  2.0   eigenvalue: -0.982388
    5P    l: 1   occupation:  6.0   eigenvalue: -0.496786
    6S    l: 0   occupation:  1.0   eigenvalue: -0.076670
  Transforming atomic orbitals to a uniform radial grid of dG=0.02 with 432 points.
  Core radius for overlap checks: 2.06 bohrs.
  Reading pulay file /home/gridsan/aligho/DFT/build-Nov24/pseudopotentials/SG15/Cs_ONCV_PBE.pulay ... using dE_dnG = -1.008762e-04 computed for Ecut = 20.

Initialized 1 species with 1 total atoms.

Folded 1 k-points by 12x12x1 to 144 k-points.

---------- Setting up k-points, bands, fillings ----------
Reduced to 19 k-points under symmetry. 
Computing the number of bands and number of electrons
Calculating initial fillings.
nElectrons:   9.000000   nBands: 6   nStates: 38

----- Setting up reduced wavefunction bases (one per k-point) -----
average nbasis = 13230.521 , ideal nbasis = 13229.709

---------- Setting up coulomb interaction ----------
Initialized slab truncation along lattice direction 001

---------- Setting up 2D ewald sum ----------
Optimum gaussian width for ewald sums = 5.249020 bohr.
Real space sums over 289 unit cells with max indices [  8  8  0  ]
Reciprocal space sums over 81 terms with max indices [  4  4  0  ]

---------- Allocating electronic variables ----------
Initializing wave functions:  linear combination of atomic orbitals
Note: number of bands (6) exceeds available atomic orbitals (5)
Cs pseudo-atom occupations:   s ( 2 1 )  p ( 6 )
	FillingsUpdate:  mu: -0.091493737  nElectrons: 9.000000  magneticMoment: [ Abs: 0.12000  Tot: +0.12000 ]
LCAOMinimize: Iter:   0  F: -20.1824529056924398  |grad|_K:  4.257e-05  alpha:  1.000e+00
	FillingsUpdate:  mu: -0.091475630  nElectrons: 9.000000  magneticMoment: [ Abs: 0.12000  Tot: +0.12000 ]
LCAOMinimize: Iter:   1  F: -20.1824541175729237  |grad|_K:  4.557e-07  alpha:  9.777e-01  linmin: -4.621e-02  cgtest:  3.614e-01  t[s]:      4.56
LCAOMinimize: Encountered beta<0, resetting CG.
[d-3-4-3:45039] 18 more processes have sent help message help-mpi-common-cuda.txt / dlopen failed
[d-3-4-3:45039] Set MCA parameter "orte_base_help_aggregate" to 0 to see all help / error messages
[d-3-4-3:45039] 18 more processes have sent help message help-mpi-btl-openib-cpc-base.txt / no cpcs for port
	FillingsUpdate:  mu: -0.091475782  nElectrons: 9.000000  magneticMoment: [ Abs: 0.12000  Tot: +0.12000 ]
LCAOMinimize: Iter:   2  F: -20.1824541177156220  |grad|_K:  1.524e-09  alpha:  1.003e+00  linmin:  1.065e-01  cgtest: -6.344e-01  t[s]:      5.74
LCAOMinimize: 	Step increased F by 1.101341e-13, reducing alpha to 2.975951e-03.
LCAOMinimize: 	Step increased F by 2.486900e-14, reducing alpha to 2.975951e-04.
	FillingsUpdate:  mu: -0.091475782  nElectrons: 9.000000  magneticMoment: [ Abs: 0.12000  Tot: +0.12000 ]
LCAOMinimize: Iter:   3  F: -20.1824541177157357  |grad|_K:  1.523e-09  alpha:  2.976e-04  linmin: -2.936e-02  cgtest:  1.000e+00  t[s]:      8.37
LCAOMinimize: Encountered beta<0, resetting CG.
LCAOMinimize: Converged (|Delta F|<1.000000e-06 for 2 iters).


---- Citations for features of the code used in this run ----

   Software package:
      R. Sundararaman, K. Letchworth-Weaver, K.A. Schwarz, D. Gunceler, Y. Ozhabes and T.A. Arias, 'JDFTx: software for joint density-functional theory', SoftwareX 6, 278 (2017)

   gga-PBE exchange-correlation functional:
      J.P. Perdew, K. Burke and M. Ernzerhof, Phys. Rev. Lett. 77, 3865 (1996)

   Pseudopotentials:
      M Schlipf and F Gygi, Comput. Phys. Commun. 196, 36 (2015)

   Truncated Coulomb potentials:
      R. Sundararaman and T.A. Arias, Phys. Rev. B 87, 165122 (2013)

This list may not be complete. Please suggest additional citations or
report any other bugs at https://github.com/shankar1729/jdftx/issues

Initialization completed successfully at t[s]:      8.46


-------- Electronic minimization -----------
Will mix electronic density at each iteration.
	FillingsUpdate:  mu: -0.091475782  nElectrons: 9.000000  magneticMoment: [ Abs: 0.12000  Tot: +0.12000 ]
	FillingsUpdate:  mu: -0.100669421  nElectrons: 9.000000  magneticMoment: [ Abs: 0.12000  Tot: +0.12000 ]
SCF: Cycle:  0   F: -20.186992642213511   dF: -4.539e-03   |Residual|: 1.142e-02   |deigs|: 1.882e-01  t[s]:     10.87
	FillingsUpdate:  mu: -0.100794046  nElectrons: 9.000000  magneticMoment: [ Abs: 0.12000  Tot: +0.12000 ]
SCF: Cycle:  1   F: -20.187353773377680   dF: -3.611e-04   |Residual|: 9.612e-03   |deigs|: 4.523e-03  t[s]:     12.67
	FillingsUpdate:  mu: -0.096599444  nElectrons: 9.000000  magneticMoment: [ Abs: 0.12809  Tot: +0.12000 ]
SCF: Cycle:  2   F: -20.187673870022639   dF: -3.201e-04   |Residual|: 4.391e-03   |deigs|: 3.837e-03  t[s]:     14.50
	FillingsUpdate:  mu: -0.096893122  nElectrons: 9.000000  magneticMoment: [ Abs: 0.12000  Tot: +0.12000 ]
SCF: Cycle:  3   F: -20.187778861371161   dF: -1.050e-04   |Residual|: 3.502e-03   |deigs|: 1.566e-03  t[s]:     16.38
	FillingsUpdate:  mu: -0.093962824  nElectrons: 9.000000  magneticMoment: [ Abs: 0.12117  Tot: +0.12000 ]
SCF: Cycle:  4   F: -20.187856244453062   dF: -7.738e-05   |Residual|: 2.368e-03   |deigs|: 3.762e-03  t[s]:     18.26
	FillingsUpdate:  mu: -0.091676282  nElectrons: 9.000000  magneticMoment: [ Abs: 0.12192  Tot: +0.12000 ]
SCF: Cycle:  5   F: -20.187897861005183   dF: -4.162e-05   |Residual|: 1.924e-03   |deigs|: 2.752e-03  t[s]:     20.16
	FillingsUpdate:  mu: -0.089283123  nElectrons: 9.000000  magneticMoment: [ Abs: 0.12403  Tot: +0.12000 ]
SCF: Cycle:  6   F: -20.187913760270003   dF: -1.590e-05   |Residual|: 1.469e-03   |deigs|: 2.830e-03  t[s]:     22.13
	FillingsUpdate:  mu: -0.088255340  nElectrons: 9.000000  magneticMoment: [ Abs: 0.12250  Tot: +0.12000 ]
SCF: Cycle:  7   F: -20.187935933502668   dF: -2.217e-05   |Residual|: 1.221e-03   |deigs|: 1.329e-03  t[s]:     24.11
	FillingsUpdate:  mu: -0.086602331  nElectrons: 9.000000  magneticMoment: [ Abs: 0.12101  Tot: +0.12000 ]
SCF: Cycle:  8   F: -20.187949488078882   dF: -1.355e-05   |Residual|: 9.515e-04   |deigs|: 1.558e-03  t[s]:     26.12
	FillingsUpdate:  mu: -0.084992735  nElectrons: 9.000000  magneticMoment: [ Abs: 0.12189  Tot: +0.12000 ]
SCF: Cycle:  9   F: -20.187930995767410   dF: +1.849e-05   |Residual|: 1.004e-03   |deigs|: 1.693e-03  t[s]:     28.08
	FillingsUpdate:  mu: -0.082754268  nElectrons: 9.000000  magneticMoment: [ Abs: 0.12231  Tot: +0.12000 ]
SCF: Cycle: 10   F: -20.187942516895937   dF: -1.152e-05   |Residual|: 8.611e-04   |deigs|: 2.507e-03  t[s]:     30.08
	FillingsUpdate:  mu: -0.081608014  nElectrons: 9.000000  magneticMoment: [ Abs: 0.12139  Tot: +0.12000 ]
SCF: Cycle: 11   F: -20.187971073807702   dF: -2.856e-05   |Residual|: 6.855e-04   |deigs|: 1.537e-03  t[s]:     32.06
	FillingsUpdate:  mu: -0.080362915  nElectrons: 9.000000  magneticMoment: [ Abs: 0.12137  Tot: +0.12000 ]
SCF: Cycle: 12   F: -20.187987095671634   dF: -1.602e-05   |Residual|: 6.424e-04   |deigs|: 1.194e-03  t[s]:     34.07
	FillingsUpdate:  mu: -0.078099450  nElectrons: 9.000000  magneticMoment: [ Abs: 0.12076  Tot: +0.12000 ]
SCF: Cycle: 13   F: -20.187998020968774   dF: -1.093e-05   |Residual|: 5.548e-04   |deigs|: 2.354e-03  t[s]:     36.03
	FillingsUpdate:  mu: -0.076909838  nElectrons: 9.000000  magneticMoment: [ Abs: 0.12081  Tot: +0.12000 ]
SCF: Cycle: 14   F: -20.188004825081887   dF: -6.804e-06   |Residual|: 4.349e-04   |deigs|: 1.446e-03  t[s]:     38.00
	FillingsUpdate:  mu: -0.076681725  nElectrons: 9.000000  magneticMoment: [ Abs: 0.12070  Tot: +0.12000 ]
SCF: Cycle: 15   F: -20.188008093235737   dF: -3.268e-06   |Residual|: 3.251e-04   |deigs|: 1.036e-03  t[s]:     39.99
	FillingsUpdate:  mu: -0.076399743  nElectrons: 9.000000  magneticMoment: [ Abs: 0.12026  Tot: +0.12000 ]
SCF: Cycle: 16   F: -20.188010768756982   dF: -2.676e-06   |Residual|: 2.161e-04   |deigs|: 4.887e-04  t[s]:     41.99
	FillingsUpdate:  mu: -0.076360943  nElectrons: 9.000000  magneticMoment: [ Abs: 0.12013  Tot: +0.12000 ]
SCF: Cycle: 17   F: -20.188011551580733   dF: -7.828e-07   |Residual|: 9.875e-05   |deigs|: 1.604e-04  t[s]:     44.03
	FillingsUpdate:  mu: -0.076412602  nElectrons: 9.000000  magneticMoment: [ Abs: 0.12010  Tot: +0.12000 ]
SCF: Cycle: 18   F: -20.188011735905921   dF: -1.843e-07   |Residual|: 5.842e-05   |deigs|: 1.166e-04  t[s]:     46.12
	FillingsUpdate:  mu: -0.076406822  nElectrons: 9.000000  magneticMoment: [ Abs: 0.12008  Tot: +0.12000 ]
SCF: Cycle: 19   F: -20.188011835468945   dF: -9.956e-08   |Residual|: 3.677e-05   |deigs|: 8.131e-05  t[s]:     48.19
	FillingsUpdate:  mu: -0.076443337  nElectrons: 9.000000  magneticMoment: [ Abs: 0.12006  Tot: +0.12000 ]
SCF: Cycle: 20   F: -20.188011870850442   dF: -3.538e-08   |Residual|: 2.444e-05   |deigs|: 9.801e-05  t[s]:     50.23
	FillingsUpdate:  mu: -0.076466351  nElectrons: 9.000000  magneticMoment: [ Abs: 0.12007  Tot: +0.12000 ]
SCF: Cycle: 21   F: -20.188011888283167   dF: -1.743e-08   |Residual|: 9.599e-06   |deigs|: 1.267e-04  t[s]:     52.23
	FillingsUpdate:  mu: -0.076462455  nElectrons: 9.000000  magneticMoment: [ Abs: 0.12008  Tot: +0.12000 ]
SCF: Cycle: 22   F: -20.188011896320450   dF: -8.037e-09   |Residual|: 5.301e-06   |deigs|: 6.444e-04  t[s]:     54.25
	FillingsUpdate:  mu: -0.076464509  nElectrons: 9.000000  magneticMoment: [ Abs: 0.12009  Tot: +0.12000 ]
SCF: Cycle: 23   F: -20.188011900834159   dF: -4.514e-09   |Residual|: 4.279e-06   |deigs|: 4.312e-04  t[s]:     56.25
SCF: Converged (|Delta E|<1.000000e-08 for 2 iters).


# Ionic positions in lattice coordinates:
ion Cs   0.000000000000000   0.000000000000000   0.000000000000000 0

# Forces in Lattice coordinates:
force Cs  -0.000000000000000  -0.000000000000000   0.000000000000000 0

# Energy components:
   Eewald =      -18.0480261003326561
       EH =       -1.8401929180501437
     Eloc =       -5.7446692594449029
      Enl =        3.4431965825301498
   Epulay =        0.0000000264484078
      Exc =       -3.1434696723927402
       KE =        5.1451503996232004
-------------------------------------
     Etot =      -20.1880109416186855
       TS =        0.0000009592154742
-------------------------------------
        F =      -20.1880119008341588

IonicMinimize: Iter:   0  F: -20.188011900834159  |grad|_K:  0.000e+00  t[s]:     56.37
IonicMinimize: Converged (|grad|_K<1.000000e-04).

#--- Lowdin population analysis ---
# oxidation-state Cs +0.044
# magnetic-moments Cs +0.107

End date and time: Sun Feb  6 13:23:55 2022  (Duration: 0-0:00:56.39)
Done!
scale=3
magnetization=0.12
--------------------------------------------------------------------------
The library attempted to open the following supporting CUDA libraries,
but each of them failed.  CUDA-aware support is disabled.
libcuda.so.1: cannot open shared object file: No such file or directory
libcuda.dylib: cannot open shared object file: No such file or directory
/usr/lib64/libcuda.so.1: cannot open shared object file: No such file or directory
/usr/lib64/libcuda.dylib: cannot open shared object file: No such file or directory
If you are not interested in CUDA-aware support, then run with
--mca opal_warn_on_missing_libcuda 0 to suppress this message.  If you are interested
in CUDA-aware support, then try setting LD_LIBRARY_PATH to the location
of libcuda.so.1 to get passed this issue.
--------------------------------------------------------------------------
--------------------------------------------------------------------------
No OpenFabrics connection schemes reported that they were able to be
used on a specific port.  As such, the openib BTL (OpenFabrics
support) will be disabled for this port.

  Local host:           d-3-4-3
  Local device:         mlx5_1
  Local port:           1
  CPCs attempted:       rdmacm, udcm
--------------------------------------------------------------------------

*************** JDFTx 1.6.0 (git hash 42ebbcc2) ***************

Start date and time: Sun Feb  6 13:23:56 2022
Executable jdftx with command-line: -i Alkali.in
Running on hosts (process indices):  d-3-4-3 (0-18)
Divided in process groups (process indices):  0 (0)  1 (1)  2 (2)  3 (3)  4 (4)  5 (5)  6 (6)  7 (7)  8 (8)  9 (9)  10 (10)  11 (11)  12 (12)  13 (13)  14 (14)  15 (15)  16 (16)  17 (17)  18 (18)
Resource initialization completed at t[s]:      0.00
Run totals: 19 processes, 48 threads, 0 GPUs


Input parsed successfully to the following command list (including defaults):

basis kpoint-dependent
coords-type Lattice
core-overlap-check vector
coulomb-interaction Slab 001
davidson-band-ratio 1.1
dump End None
dump-name $INPUT.$VAR
elec-cutoff 20
elec-eigen-algo Davidson
elec-ex-corr gga-PBE
elec-initial-magnetization 0.120000 yes
elec-smearing Fermi 1e-05
electronic-minimize  \
	dirUpdateScheme      FletcherReeves \
	linminMethod         DirUpdateRecommended \
	nIterations          100 \
	history              15 \
	knormThreshold       0 \
	energyDiffThreshold  1e-08 \
	nEnergyDiff          2 \
	alphaTstart          1 \
	alphaTmin            1e-10 \
	updateTestStepSize   yes \
	alphaTreduceFactor   0.1 \
	alphaTincreaseFactor 3 \
	nAlphaAdjustMax      3 \
	wolfeEnergy          0.0001 \
	wolfeGradient        0.9 \
	fdTest               no
electronic-scf  \
	nIterations	10000 \
	energyDiffThreshold	1e-08 \
	residualThreshold	1e-07 \
	mixFraction	0.5 \
	qMetric	0.8 \
	history	10 \
	nEigSteps	2 \
	eigDiffThreshold	1e-08 \
	mixedVariable	Density \
	qKerker	0.8 \
	qKappa	-1 \
	verbose	no \
	mixFractionMag	1.5
exchange-regularization WignerSeitzTruncated
fluid None
fluid-ex-corr (null) lda-PZ
fluid-gummel-loop 10 1.000000e-05
fluid-minimize  \
	dirUpdateScheme      PolakRibiere \
	linminMethod         DirUpdateRecommended \
	nIterations          100 \
	history              15 \
	knormThreshold       0 \
	energyDiffThreshold  0 \
	nEnergyDiff          2 \
	alphaTstart          1 \
	alphaTmin            1e-10 \
	updateTestStepSize   yes \
	alphaTreduceFactor   0.1 \
	alphaTincreaseFactor 3 \
	nAlphaAdjustMax      3 \
	wolfeEnergy          0.0001 \
	wolfeGradient        0.9 \
	fdTest               no
fluid-solvent H2O 55.338 ScalarEOS \
	epsBulk 78.4 \
	pMol 0.92466 \
	epsInf 1.77 \
	Pvap 1.06736e-10 \
	sigmaBulk 4.62e-05 \
	Rvdw 2.61727 \
	Res 1.42 \
	tauNuc 343133 \
	poleEl 15 7 1
forces-output-coords Positions
ion Cs   0.000000000000000   0.000000000000000   0.000000000000000 0
ion-species SG15/$ID_ONCV_PBE.upf
ion-width 0
ionic-minimize  \
	dirUpdateScheme      L-BFGS \
	linminMethod         DirUpdateRecommended \
	nIterations          0 \
	history              15 \
	knormThreshold       0.0001 \
	energyDiffThreshold  1e-06 \
	nEnergyDiff          2 \
	alphaTstart          1 \
	alphaTmin            1e-10 \
	updateTestStepSize   yes \
	alphaTreduceFactor   0.1 \
	alphaTincreaseFactor 3 \
	nAlphaAdjustMax      3 \
	wolfeEnergy          0.0001 \
	wolfeGradient        0.9 \
	fdTest               no
kpoint   0.000000000000   0.000000000000   0.000000000000  1.00000000000000
kpoint-folding 12 12 1 
latt-move-scale 1 1 1
latt-scale 3 3 1 
lattice  \
	   4.727486978767153   -2.363743489383575    0.000000000000000  \
	  -0.000000000000000    4.094123819672498    0.000000000000000  \
	   0.000000000000000    0.000000000000000   40.000000000000000 
lattice-minimize  \
	dirUpdateScheme      L-BFGS \
	linminMethod         DirUpdateRecommended \
	nIterations          0 \
	history              15 \
	knormThreshold       0 \
	energyDiffThreshold  1e-06 \
	nEnergyDiff          2 \
	alphaTstart          1 \
	alphaTmin            1e-10 \
	updateTestStepSize   yes \
	alphaTreduceFactor   0.1 \
	alphaTincreaseFactor 3 \
	nAlphaAdjustMax      3 \
	wolfeEnergy          0.0001 \
	wolfeGradient        0.9 \
	fdTest               no
lcao-params -1 1e-06 1e-05
pcm-variant GLSSA13
spintype z-spin
subspace-rotation-factor 1 yes
symmetries automatic
symmetry-threshold 0.0001



---------- Setting up symmetries ----------

Found 24 point-group symmetries of the bravais lattice
Found 24 space-group symmetries with basis
Applied RMS atom displacement 0 bohrs to make symmetries exact.

---------- Initializing the Grid ----------
R = 
[      14.1825     -7.09123            0  ]
[            0      12.2824            0  ]
[            0            0           40  ]
unit cell volume = 6967.77
G =
[   0.443025   0.255781         -0  ]
[          0   0.511561         -0  ]
[         -0         -0    0.15708  ]
Minimum fftbox size, Smin = [  60  60  164  ]
Chosen fftbox size, S = [  60  60  168  ]

---------- Exchange Correlation functional ----------
Initalized PBE GGA exchange.
Initalized PBE GGA correlation.

---------- Setting up pseudopotentials ----------
Width of ionic core gaussian charges (only for fluid interactions / plotting) set to 0

Reading pseudopotential file '/home/gridsan/aligho/DFT/build-Nov24/pseudopotentials/SG15/Cs_ONCV_PBE.upf':
  'Cs' pseudopotential, 'PBE' functional
  Generated using ONCVPSP code by D. R. Hamann
  Author: Martin Schlipf and Francois Gygi  Date: 150915.
  9 valence electrons, 3 orbitals, 6 projectors, 2414 radial grid points, with lMax = 2
  Transforming local potential to a uniform radial grid of dG=0.02 with 1489 points.
  Transforming nonlocal projectors to a uniform radial grid of dG=0.02 with 432 points.
    5S    l: 0   occupation:  2.0   eigenvalue: -0.982388
    5P    l: 1   occupation:  6.0   eigenvalue: -0.496786
    6S    l: 0   occupation:  1.0   eigenvalue: -0.076670
  Transforming atomic orbitals to a uniform radial grid of dG=0.02 with 432 points.
  Core radius for overlap checks: 2.06 bohrs.
  Reading pulay file /home/gridsan/aligho/DFT/build-Nov24/pseudopotentials/SG15/Cs_ONCV_PBE.pulay ... using dE_dnG = -1.008762e-04 computed for Ecut = 20.

Initialized 1 species with 1 total atoms.

Folded 1 k-points by 12x12x1 to 144 k-points.

---------- Setting up k-points, bands, fillings ----------
Reduced to 19 k-points under symmetry. 
Computing the number of bands and number of electrons
Calculating initial fillings.
nElectrons:   9.000000   nBands: 6   nStates: 38

----- Setting up reduced wavefunction bases (one per k-point) -----
average nbasis = 29766.104 , ideal nbasis = 29766.845

---------- Setting up coulomb interaction ----------
Initialized slab truncation along lattice direction 001

---------- Setting up 2D ewald sum ----------
Optimum gaussian width for ewald sums = 7.873530 bohr.
Real space sums over 289 unit cells with max indices [  8  8  0  ]
Reciprocal space sums over 81 terms with max indices [  4  4  0  ]

---------- Allocating electronic variables ----------
Initializing wave functions:  linear combination of atomic orbitals
Note: number of bands (6) exceeds available atomic orbitals (5)
Cs pseudo-atom occupations:   s ( 2 1 )  p ( 6 )
[d-3-4-3:76599] 18 more processes have sent help message help-mpi-common-cuda.txt / dlopen failed
[d-3-4-3:76599] Set MCA parameter "orte_base_help_aggregate" to 0 to see all help / error messages
[d-3-4-3:76599] 18 more processes have sent help message help-mpi-btl-openib-cpc-base.txt / no cpcs for port
	FillingsUpdate:  mu: -0.078529625  nElectrons: 9.000000  magneticMoment: [ Abs: 0.12000  Tot: +0.12000 ]
LCAOMinimize: Iter:   0  F: -20.1753372035112690  |grad|_K:  2.548e-05  alpha:  1.000e+00
	FillingsUpdate:  mu: -0.078523680  nElectrons: 9.000000  magneticMoment: [ Abs: 0.12000  Tot: +0.12000 ]
LCAOMinimize: Iter:   1  F: -20.1753376406862550  |grad|_K:  1.798e-07  alpha:  9.849e-01  linmin: -3.458e-02  cgtest:  6.541e-01  t[s]:      8.74
LCAOMinimize: Encountered beta<0, resetting CG.
	FillingsUpdate:  mu: -0.078523665  nElectrons: 9.000000  magneticMoment: [ Abs: 0.12000  Tot: +0.12000 ]
LCAOMinimize: Iter:   2  F: -20.1753376407080580  |grad|_K:  7.853e-10  alpha:  9.971e-01  linmin: -3.706e-02  cgtest:  6.259e-01  t[s]:     11.13
LCAOMinimize: Encountered beta<0, resetting CG.
LCAOMinimize: Converged (|Delta F|<1.000000e-06 for 2 iters).


---- Citations for features of the code used in this run ----

   Software package:
      R. Sundararaman, K. Letchworth-Weaver, K.A. Schwarz, D. Gunceler, Y. Ozhabes and T.A. Arias, 'JDFTx: software for joint density-functional theory', SoftwareX 6, 278 (2017)

   gga-PBE exchange-correlation functional:
      J.P. Perdew, K. Burke and M. Ernzerhof, Phys. Rev. Lett. 77, 3865 (1996)

   Pseudopotentials:
      M Schlipf and F Gygi, Comput. Phys. Commun. 196, 36 (2015)

   Truncated Coulomb potentials:
      R. Sundararaman and T.A. Arias, Phys. Rev. B 87, 165122 (2013)

This list may not be complete. Please suggest additional citations or
report any other bugs at https://github.com/shankar1729/jdftx/issues

Initialization completed successfully at t[s]:     11.29


-------- Electronic minimization -----------
Will mix electronic density at each iteration.
	FillingsUpdate:  mu: -0.078523665  nElectrons: 9.000000  magneticMoment: [ Abs: 0.12000  Tot: +0.12000 ]
	FillingsUpdate:  mu: -0.082237453  nElectrons: 9.000000  magneticMoment: [ Abs: 0.12000  Tot: +0.12000 ]
SCF: Cycle:  0   F: -20.177709283847015   dF: -2.372e-03   |Residual|: 4.361e-03   |deigs|: 1.730e-01  t[s]:     16.03
	FillingsUpdate:  mu: -0.082524865  nElectrons: 9.000000  magneticMoment: [ Abs: 0.12000  Tot: +0.12000 ]
SCF: Cycle:  1   F: -20.177788607221970   dF: -7.932e-05   |Residual|: 3.900e-03   |deigs|: 4.796e-03  t[s]:     19.76
	FillingsUpdate:  mu: -0.083012356  nElectrons: 9.000000  magneticMoment: [ Abs: 0.12361  Tot: +0.12000 ]
SCF: Cycle:  2   F: -20.177853659791911   dF: -6.505e-05   |Residual|: 1.623e-03   |deigs|: 3.266e-03  t[s]:     23.52
	FillingsUpdate:  mu: -0.082896349  nElectrons: 9.000000  magneticMoment: [ Abs: 0.12089  Tot: +0.12000 ]
SCF: Cycle:  3   F: -20.177877263040500   dF: -2.360e-05   |Residual|: 1.178e-03   |deigs|: 1.586e-03  t[s]:     27.32
	FillingsUpdate:  mu: -0.082665567  nElectrons: 9.000000  magneticMoment: [ Abs: 0.12013  Tot: +0.12000 ]
SCF: Cycle:  4   F: -20.177886042894240   dF: -8.780e-06   |Residual|: 7.536e-04   |deigs|: 5.939e-04  t[s]:     31.23
	FillingsUpdate:  mu: -0.082419529  nElectrons: 9.000000  magneticMoment: [ Abs: 0.12017  Tot: +0.12000 ]
SCF: Cycle:  5   F: -20.177890641781254   dF: -4.599e-06   |Residual|: 6.315e-04   |deigs|: 5.694e-04  t[s]:     35.28
	FillingsUpdate:  mu: -0.081784133  nElectrons: 9.000000  magneticMoment: [ Abs: 0.12186  Tot: +0.12000 ]
SCF: Cycle:  6   F: -20.177891327252347   dF: -6.855e-07   |Residual|: 5.022e-04   |deigs|: 9.473e-04  t[s]:     39.25
	FillingsUpdate:  mu: -0.081407133  nElectrons: 9.000000  magneticMoment: [ Abs: 0.12164  Tot: +0.12000 ]
SCF: Cycle:  7   F: -20.177891085484870   dF: +2.418e-07   |Residual|: 4.227e-04   |deigs|: 6.512e-04  t[s]:     43.33
	FillingsUpdate:  mu: -0.080904398  nElectrons: 9.000000  magneticMoment: [ Abs: 0.12117  Tot: +0.12000 ]
SCF: Cycle:  8   F: -20.177892121838436   dF: -1.036e-06   |Residual|: 3.468e-04   |deigs|: 1.108e-03  t[s]:     47.43
	FillingsUpdate:  mu: -0.080618171  nElectrons: 9.000000  magneticMoment: [ Abs: 0.12066  Tot: +0.12000 ]
SCF: Cycle:  9   F: -20.177893657601725   dF: -1.536e-06   |Residual|: 3.048e-04   |deigs|: 9.998e-04  t[s]:     51.79
	FillingsUpdate:  mu: -0.080194238  nElectrons: 9.000000  magneticMoment: [ Abs: 0.12128  Tot: +0.12000 ]
SCF: Cycle: 10   F: -20.177894388557601   dF: -7.310e-07   |Residual|: 2.678e-04   |deigs|: 7.367e-04  t[s]:     56.09
	FillingsUpdate:  mu: -0.079726134  nElectrons: 9.000000  magneticMoment: [ Abs: 0.12132  Tot: +0.12000 ]
SCF: Cycle: 11   F: -20.177893275177961   dF: +1.113e-06   |Residual|: 2.363e-04   |deigs|: 5.039e-04  t[s]:     60.33
	FillingsUpdate:  mu: -0.079324898  nElectrons: 9.000000  magneticMoment: [ Abs: 0.12080  Tot: +0.12000 ]
SCF: Cycle: 12   F: -20.177892650901160   dF: +6.243e-07   |Residual|: 2.355e-04   |deigs|: 5.450e-04  t[s]:     64.58
	FillingsUpdate:  mu: -0.078973752  nElectrons: 9.000000  magneticMoment: [ Abs: 0.12035  Tot: +0.12000 ]
SCF: Cycle: 13   F: -20.177893908817001   dF: -1.258e-06   |Residual|: 2.198e-04   |deigs|: 7.577e-04  t[s]:     68.79
	FillingsUpdate:  mu: -0.078728735  nElectrons: 9.000000  magneticMoment: [ Abs: 0.12099  Tot: +0.12000 ]
SCF: Cycle: 14   F: -20.177896937207702   dF: -3.028e-06   |Residual|: 1.661e-04   |deigs|: 3.600e-04  t[s]:     73.08
	FillingsUpdate:  mu: -0.078512983  nElectrons: 9.000000  magneticMoment: [ Abs: 0.12071  Tot: +0.12000 ]
SCF: Cycle: 15   F: -20.177898401551257   dF: -1.464e-06   |Residual|: 1.323e-04   |deigs|: 2.257e-04  t[s]:     77.47
	FillingsUpdate:  mu: -0.078368315  nElectrons: 9.000000  magneticMoment: [ Abs: 0.12027  Tot: +0.12000 ]
SCF: Cycle: 16   F: -20.177899085469985   dF: -6.839e-07   |Residual|: 7.789e-05   |deigs|: 1.837e-04  t[s]:     81.62
	FillingsUpdate:  mu: -0.078348618  nElectrons: 9.000000  magneticMoment: [ Abs: 0.12018  Tot: +0.12000 ]
SCF: Cycle: 17   F: -20.177899359158019   dF: -2.737e-07   |Residual|: 4.574e-05   |deigs|: 5.483e-05  t[s]:     85.82
	FillingsUpdate:  mu: -0.078345693  nElectrons: 9.000000  magneticMoment: [ Abs: 0.12013  Tot: +0.12000 ]
SCF: Cycle: 18   F: -20.177899453203441   dF: -9.405e-08   |Residual|: 3.141e-05   |deigs|: 3.049e-05  t[s]:     90.02
	FillingsUpdate:  mu: -0.078358600  nElectrons: 9.000000  magneticMoment: [ Abs: 0.12014  Tot: +0.12000 ]
SCF: Cycle: 19   F: -20.177899508991377   dF: -5.579e-08   |Residual|: 1.846e-05   |deigs|: 2.859e-05  t[s]:     94.26
	FillingsUpdate:  mu: -0.078364606  nElectrons: 9.000000  magneticMoment: [ Abs: 0.12014  Tot: +0.12000 ]
SCF: Cycle: 20   F: -20.177899530383609   dF: -2.139e-08   |Residual|: 1.148e-05   |deigs|: 1.774e-05  t[s]:     98.51
	FillingsUpdate:  mu: -0.078367701  nElectrons: 9.000000  magneticMoment: [ Abs: 0.12015  Tot: +0.12000 ]
SCF: Cycle: 21   F: -20.177899538419894   dF: -8.036e-09   |Residual|: 9.057e-06   |deigs|: 1.689e-05  t[s]:    102.78
	FillingsUpdate:  mu: -0.078369200  nElectrons: 9.000000  magneticMoment: [ Abs: 0.12015  Tot: +0.12000 ]
SCF: Cycle: 22   F: -20.177899541055254   dF: -2.635e-09   |Residual|: 9.476e-06   |deigs|: 1.507e-05  t[s]:    106.94
SCF: Converged (|Delta E|<1.000000e-08 for 2 iters).


# Ionic positions in lattice coordinates:
ion Cs   0.000000000000000   0.000000000000000   0.000000000000000 0

# Forces in Lattice coordinates:
force Cs   0.000000000000000   0.000000000000000   0.000000000000000 0

# Energy components:
   Eewald =      -12.0320174002217755
       EH =        4.0105180156848572
     Eloc =      -17.5795502286066245
      Enl =        3.4316670909450973
   Epulay =       -0.0000000107257212
      Exc =       -3.1080998087255205
       KE =        5.0995837598099065
-------------------------------------
     Etot =      -20.1778985818397807
       TS =        0.0000009592154742
-------------------------------------
        F =      -20.1778995410552540

IonicMinimize: Iter:   0  F: -20.177899541055254  |grad|_K:  0.000e+00  t[s]:    107.19
IonicMinimize: Converged (|grad|_K<1.000000e-04).

#--- Lowdin population analysis ---
# oxidation-state Cs +0.041
# magnetic-moments Cs +0.107

End date and time: Sun Feb  6 13:25:44 2022  (Duration: 0-0:01:47.24)
Done!
scale=4
magnetization=0.12
--------------------------------------------------------------------------
The library attempted to open the following supporting CUDA libraries,
but each of them failed.  CUDA-aware support is disabled.
libcuda.so.1: cannot open shared object file: No such file or directory
libcuda.dylib: cannot open shared object file: No such file or directory
/usr/lib64/libcuda.so.1: cannot open shared object file: No such file or directory
/usr/lib64/libcuda.dylib: cannot open shared object file: No such file or directory
If you are not interested in CUDA-aware support, then run with
--mca opal_warn_on_missing_libcuda 0 to suppress this message.  If you are interested
in CUDA-aware support, then try setting LD_LIBRARY_PATH to the location
of libcuda.so.1 to get passed this issue.
--------------------------------------------------------------------------
--------------------------------------------------------------------------
No OpenFabrics connection schemes reported that they were able to be
used on a specific port.  As such, the openib BTL (OpenFabrics
support) will be disabled for this port.

  Local host:           d-3-4-3
  Local device:         mlx5_1
  Local port:           1
  CPCs attempted:       rdmacm, udcm
--------------------------------------------------------------------------

*************** JDFTx 1.6.0 (git hash 42ebbcc2) ***************

Start date and time: Sun Feb  6 13:25:45 2022
Executable jdftx with command-line: -i Alkali.in
Running on hosts (process indices):  d-3-4-3 (0-18)
Divided in process groups (process indices):  0 (0)  1 (1)  2 (2)  3 (3)  4 (4)  5 (5)  6 (6)  7 (7)  8 (8)  9 (9)  10 (10)  11 (11)  12 (12)  13 (13)  14 (14)  15 (15)  16 (16)  17 (17)  18 (18)
Resource initialization completed at t[s]:      0.00
Run totals: 19 processes, 48 threads, 0 GPUs


Input parsed successfully to the following command list (including defaults):

basis kpoint-dependent
coords-type Lattice
core-overlap-check vector
coulomb-interaction Slab 001
davidson-band-ratio 1.1
dump End None
dump-name $INPUT.$VAR
elec-cutoff 20
elec-eigen-algo Davidson
elec-ex-corr gga-PBE
elec-initial-magnetization 0.120000 yes
elec-smearing Fermi 1e-05
electronic-minimize  \
	dirUpdateScheme      FletcherReeves \
	linminMethod         DirUpdateRecommended \
	nIterations          100 \
	history              15 \
	knormThreshold       0 \
	energyDiffThreshold  1e-08 \
	nEnergyDiff          2 \
	alphaTstart          1 \
	alphaTmin            1e-10 \
	updateTestStepSize   yes \
	alphaTreduceFactor   0.1 \
	alphaTincreaseFactor 3 \
	nAlphaAdjustMax      3 \
	wolfeEnergy          0.0001 \
	wolfeGradient        0.9 \
	fdTest               no
electronic-scf  \
	nIterations	10000 \
	energyDiffThreshold	1e-08 \
	residualThreshold	1e-07 \
	mixFraction	0.5 \
	qMetric	0.8 \
	history	10 \
	nEigSteps	2 \
	eigDiffThreshold	1e-08 \
	mixedVariable	Density \
	qKerker	0.8 \
	qKappa	-1 \
	verbose	no \
	mixFractionMag	1.5
exchange-regularization WignerSeitzTruncated
fluid None
fluid-ex-corr (null) lda-PZ
fluid-gummel-loop 10 1.000000e-05
fluid-minimize  \
	dirUpdateScheme      PolakRibiere \
	linminMethod         DirUpdateRecommended \
	nIterations          100 \
	history              15 \
	knormThreshold       0 \
	energyDiffThreshold  0 \
	nEnergyDiff          2 \
	alphaTstart          1 \
	alphaTmin            1e-10 \
	updateTestStepSize   yes \
	alphaTreduceFactor   0.1 \
	alphaTincreaseFactor 3 \
	nAlphaAdjustMax      3 \
	wolfeEnergy          0.0001 \
	wolfeGradient        0.9 \
	fdTest               no
fluid-solvent H2O 55.338 ScalarEOS \
	epsBulk 78.4 \
	pMol 0.92466 \
	epsInf 1.77 \
	Pvap 1.06736e-10 \
	sigmaBulk 4.62e-05 \
	Rvdw 2.61727 \
	Res 1.42 \
	tauNuc 343133 \
	poleEl 15 7 1
forces-output-coords Positions
ion Cs   0.000000000000000   0.000000000000000   0.000000000000000 0
ion-species SG15/$ID_ONCV_PBE.upf
ion-width 0
ionic-minimize  \
	dirUpdateScheme      L-BFGS \
	linminMethod         DirUpdateRecommended \
	nIterations          0 \
	history              15 \
	knormThreshold       0.0001 \
	energyDiffThreshold  1e-06 \
	nEnergyDiff          2 \
	alphaTstart          1 \
	alphaTmin            1e-10 \
	updateTestStepSize   yes \
	alphaTreduceFactor   0.1 \
	alphaTincreaseFactor 3 \
	nAlphaAdjustMax      3 \
	wolfeEnergy          0.0001 \
	wolfeGradient        0.9 \
	fdTest               no
kpoint   0.000000000000   0.000000000000   0.000000000000  1.00000000000000
kpoint-folding 12 12 1 
latt-move-scale 1 1 1
latt-scale 4 4 1 
lattice  \
	   4.727486978767153   -2.363743489383575    0.000000000000000  \
	  -0.000000000000000    4.094123819672498    0.000000000000000  \
	   0.000000000000000    0.000000000000000   40.000000000000000 
lattice-minimize  \
	dirUpdateScheme      L-BFGS \
	linminMethod         DirUpdateRecommended \
	nIterations          0 \
	history              15 \
	knormThreshold       0 \
	energyDiffThreshold  1e-06 \
	nEnergyDiff          2 \
	alphaTstart          1 \
	alphaTmin            1e-10 \
	updateTestStepSize   yes \
	alphaTreduceFactor   0.1 \
	alphaTincreaseFactor 3 \
	nAlphaAdjustMax      3 \
	wolfeEnergy          0.0001 \
	wolfeGradient        0.9 \
	fdTest               no
lcao-params -1 1e-06 1e-05
pcm-variant GLSSA13
spintype z-spin
subspace-rotation-factor 1 yes
symmetries automatic
symmetry-threshold 0.0001



---------- Setting up symmetries ----------

Found 24 point-group symmetries of the bravais lattice
Found 24 space-group symmetries with basis
Applied RMS atom displacement 0 bohrs to make symmetries exact.

---------- Initializing the Grid ----------
R = 
[      18.9099     -9.45497            0  ]
[            0      16.3765            0  ]
[            0            0           40  ]
unit cell volume = 12387.1
G =
[   0.332269   0.191835         -0  ]
[          0   0.383671         -0  ]
[         -0         -0    0.15708  ]
Minimum fftbox size, Smin = [  80  80  164  ]
Chosen fftbox size, S = [  80  80  168  ]

---------- Exchange Correlation functional ----------
Initalized PBE GGA exchange.
Initalized PBE GGA correlation.

---------- Setting up pseudopotentials ----------
Width of ionic core gaussian charges (only for fluid interactions / plotting) set to 0

Reading pseudopotential file '/home/gridsan/aligho/DFT/build-Nov24/pseudopotentials/SG15/Cs_ONCV_PBE.upf':
  'Cs' pseudopotential, 'PBE' functional
  Generated using ONCVPSP code by D. R. Hamann
  Author: Martin Schlipf and Francois Gygi  Date: 150915.
  9 valence electrons, 3 orbitals, 6 projectors, 2414 radial grid points, with lMax = 2
  Transforming local potential to a uniform radial grid of dG=0.02 with 1489 points.
  Transforming nonlocal projectors to a uniform radial grid of dG=0.02 with 432 points.
    5S    l: 0   occupation:  2.0   eigenvalue: -0.982388
    5P    l: 1   occupation:  6.0   eigenvalue: -0.496786
    6S    l: 0   occupation:  1.0   eigenvalue: -0.076670
  Transforming atomic orbitals to a uniform radial grid of dG=0.02 with 432 points.
  Core radius for overlap checks: 2.06 bohrs.
  Reading pulay file /home/gridsan/aligho/DFT/build-Nov24/pseudopotentials/SG15/Cs_ONCV_PBE.pulay ... using dE_dnG = -1.008762e-04 computed for Ecut = 20.

Initialized 1 species with 1 total atoms.

Folded 1 k-points by 12x12x1 to 144 k-points.

---------- Setting up k-points, bands, fillings ----------
Reduced to 19 k-points under symmetry. 
Computing the number of bands and number of electrons
Calculating initial fillings.
nElectrons:   9.000000   nBands: 6   nStates: 38

----- Setting up reduced wavefunction bases (one per k-point) -----
average nbasis = 52924.021 , ideal nbasis = 52918.836

---------- Setting up coulomb interaction ----------
Initialized slab truncation along lattice direction 001

---------- Setting up 2D ewald sum ----------
Optimum gaussian width for ewald sums = 10.498040 bohr.
Real space sums over 289 unit cells with max indices [  8  8  0  ]
Reciprocal space sums over 81 terms with max indices [  4  4  0  ]

---------- Allocating electronic variables ----------
Initializing wave functions:  linear combination of atomic orbitals
Note: number of bands (6) exceeds available atomic orbitals (5)
Cs pseudo-atom occupations:   s ( 2 1 )  p ( 6 )
[d-3-4-3:16229] 18 more processes have sent help message help-mpi-common-cuda.txt / dlopen failed
[d-3-4-3:16229] Set MCA parameter "orte_base_help_aggregate" to 0 to see all help / error messages
[d-3-4-3:16229] 18 more processes have sent help message help-mpi-btl-openib-cpc-base.txt / no cpcs for port
	FillingsUpdate:  mu: -0.077217698  nElectrons: 9.000000  magneticMoment: [ Abs: 0.12000  Tot: +0.12000 ]
LCAOMinimize: Iter:   0  F: -20.1678522739920574  |grad|_K:  7.740e-06  alpha:  1.000e+00
	FillingsUpdate:  mu: -0.077216093  nElectrons: 9.000000  magneticMoment: [ Abs: 0.12000  Tot: +0.12000 ]
LCAOMinimize: Iter:   1  F: -20.1678523145165229  |grad|_K:  3.834e-08  alpha:  9.889e-01  linmin: -1.416e-02  cgtest:  3.850e-01  t[s]:     15.10
LCAOMinimize: Encountered beta<0, resetting CG.
	FillingsUpdate:  mu: -0.077216092  nElectrons: 9.000000  magneticMoment: [ Abs: 0.12000  Tot: +0.12000 ]
LCAOMinimize: Iter:   2  F: -20.1678523145178232  |grad|_K:  5.305e-09  alpha:  1.139e+00  linmin:  3.200e-02  cgtest: -1.000e+00  t[s]:     19.09
LCAOMinimize: Converged (|Delta F|<1.000000e-06 for 2 iters).


---- Citations for features of the code used in this run ----

   Software package:
      R. Sundararaman, K. Letchworth-Weaver, K.A. Schwarz, D. Gunceler, Y. Ozhabes and T.A. Arias, 'JDFTx: software for joint density-functional theory', SoftwareX 6, 278 (2017)

   gga-PBE exchange-correlation functional:
      J.P. Perdew, K. Burke and M. Ernzerhof, Phys. Rev. Lett. 77, 3865 (1996)

   Pseudopotentials:
      M Schlipf and F Gygi, Comput. Phys. Commun. 196, 36 (2015)

   Truncated Coulomb potentials:
      R. Sundararaman and T.A. Arias, Phys. Rev. B 87, 165122 (2013)

This list may not be complete. Please suggest additional citations or
report any other bugs at https://github.com/shankar1729/jdftx/issues

Initialization completed successfully at t[s]:     19.35


-------- Electronic minimization -----------
Will mix electronic density at each iteration.
	FillingsUpdate:  mu: -0.077216092  nElectrons: 9.000000  magneticMoment: [ Abs: 0.12000  Tot: +0.12000 ]
	FillingsUpdate:  mu: -0.077450437  nElectrons: 9.000000  magneticMoment: [ Abs: 0.12000  Tot: +0.12000 ]
SCF: Cycle:  0   F: -20.168110692529400   dF: -2.584e-04   |Residual|: 9.977e-04   |deigs|: 1.753e-01  t[s]:     27.47
	FillingsUpdate:  mu: -0.077512011  nElectrons: 9.000000  magneticMoment: [ Abs: 0.12063  Tot: +0.12000 ]
SCF: Cycle:  1   F: -20.168118428733234   dF: -7.736e-06   |Residual|: 8.862e-04   |deigs|: 4.046e-03  t[s]:     33.88
	FillingsUpdate:  mu: -0.077615550  nElectrons: 9.000000  magneticMoment: [ Abs: 0.12049  Tot: +0.12000 ]
SCF: Cycle:  2   F: -20.168122037581771   dF: -3.609e-06   |Residual|: 7.102e-04   |deigs|: 8.095e-04  t[s]:     40.39
	FillingsUpdate:  mu: -0.077842485  nElectrons: 9.000000  magneticMoment: [ Abs: 0.12185  Tot: +0.12000 ]
SCF: Cycle:  3   F: -20.168127856936543   dF: -5.819e-06   |Residual|: 4.595e-04   |deigs|: 9.652e-04  t[s]:     47.03
	FillingsUpdate:  mu: -0.077942086  nElectrons: 9.000000  magneticMoment: [ Abs: 0.12097  Tot: +0.12000 ]
SCF: Cycle:  4   F: -20.168130878165531   dF: -3.021e-06   |Residual|: 2.958e-04   |deigs|: 8.711e-04  t[s]:     53.74
	FillingsUpdate:  mu: -0.078031376  nElectrons: 9.000000  magneticMoment: [ Abs: 0.12106  Tot: +0.12000 ]
SCF: Cycle:  5   F: -20.168133210883997   dF: -2.333e-06   |Residual|: 2.135e-04   |deigs|: 5.570e-04  t[s]:     60.58
	FillingsUpdate:  mu: -0.078004523  nElectrons: 9.000000  magneticMoment: [ Abs: 0.12109  Tot: +0.12000 ]
SCF: Cycle:  6   F: -20.168134151258062   dF: -9.404e-07   |Residual|: 1.409e-04   |deigs|: 4.178e-04  t[s]:     67.51
	FillingsUpdate:  mu: -0.077968263  nElectrons: 9.000000  magneticMoment: [ Abs: 0.12090  Tot: +0.12000 ]
SCF: Cycle:  7   F: -20.168134602325395   dF: -4.511e-07   |Residual|: 1.081e-04   |deigs|: 5.484e-04  t[s]:     74.61
	FillingsUpdate:  mu: -0.077928058  nElectrons: 9.000000  magneticMoment: [ Abs: 0.12078  Tot: +0.12000 ]
SCF: Cycle:  8   F: -20.168134838496268   dF: -2.362e-07   |Residual|: 8.187e-05   |deigs|: 3.760e-04  t[s]:     81.82
	FillingsUpdate:  mu: -0.077865209  nElectrons: 9.000000  magneticMoment: [ Abs: 0.12087  Tot: +0.12000 ]
SCF: Cycle:  9   F: -20.168134889225037   dF: -5.073e-08   |Residual|: 6.826e-05   |deigs|: 1.444e-04  t[s]:     89.06
	FillingsUpdate:  mu: -0.077820242  nElectrons: 9.000000  magneticMoment: [ Abs: 0.12094  Tot: +0.12000 ]
SCF: Cycle: 10   F: -20.168134912821071   dF: -2.360e-08   |Residual|: 6.575e-05   |deigs|: 9.343e-05  t[s]:     96.43
	FillingsUpdate:  mu: -0.077754915  nElectrons: 9.000000  magneticMoment: [ Abs: 0.12096  Tot: +0.12000 ]
SCF: Cycle: 11   F: -20.168134841716292   dF: +7.110e-08   |Residual|: 5.756e-05   |deigs|: 1.407e-04  t[s]:    103.89
	FillingsUpdate:  mu: -0.077684450  nElectrons: 9.000000  magneticMoment: [ Abs: 0.12104  Tot: +0.12000 ]
SCF: Cycle: 12   F: -20.168134828130430   dF: +1.359e-08   |Residual|: 5.163e-05   |deigs|: 2.164e-04  t[s]:    111.28
	FillingsUpdate:  mu: -0.077627935  nElectrons: 9.000000  magneticMoment: [ Abs: 0.12097  Tot: +0.12000 ]
SCF: Cycle: 13   F: -20.168134739822836   dF: +8.831e-08   |Residual|: 4.999e-05   |deigs|: 2.225e-04  t[s]:    118.70
	FillingsUpdate:  mu: -0.077574846  nElectrons: 9.000000  magneticMoment: [ Abs: 0.12092  Tot: +0.12000 ]
SCF: Cycle: 14   F: -20.168134857926130   dF: -1.181e-07   |Residual|: 4.223e-05   |deigs|: 1.508e-04  t[s]:    126.05
	FillingsUpdate:  mu: -0.077517620  nElectrons: 9.000000  magneticMoment: [ Abs: 0.12089  Tot: +0.12000 ]
SCF: Cycle: 15   F: -20.168134871022378   dF: -1.310e-08   |Residual|: 3.986e-05   |deigs|: 1.140e-04  t[s]:    133.46
	FillingsUpdate:  mu: -0.077479449  nElectrons: 9.000000  magneticMoment: [ Abs: 0.12082  Tot: +0.12000 ]
SCF: Cycle: 16   F: -20.168134850720985   dF: +2.030e-08   |Residual|: 3.543e-05   |deigs|: 6.867e-05  t[s]:    140.87
	FillingsUpdate:  mu: -0.077460481  nElectrons: 9.000000  magneticMoment: [ Abs: 0.12080  Tot: +0.12000 ]
SCF: Cycle: 17   F: -20.168134943628242   dF: -9.291e-08   |Residual|: 2.627e-05   |deigs|: 4.402e-05  t[s]:    148.25
	FillingsUpdate:  mu: -0.077447745  nElectrons: 9.000000  magneticMoment: [ Abs: 0.12078  Tot: +0.12000 ]
SCF: Cycle: 18   F: -20.168134965807855   dF: -2.218e-08   |Residual|: 2.186e-05   |deigs|: 2.773e-05  t[s]:    155.69
	FillingsUpdate:  mu: -0.077436930  nElectrons: 9.000000  magneticMoment: [ Abs: 0.12078  Tot: +0.12000 ]
SCF: Cycle: 19   F: -20.168135013374187   dF: -4.757e-08   |Residual|: 1.601e-05   |deigs|: 2.257e-05  t[s]:    163.06
	FillingsUpdate:  mu: -0.077438050  nElectrons: 9.000000  magneticMoment: [ Abs: 0.12079  Tot: +0.12000 ]
SCF: Cycle: 20   F: -20.168135087857088   dF: -7.448e-08   |Residual|: 1.176e-05   |deigs|: 1.722e-05  t[s]:    170.45
	FillingsUpdate:  mu: -0.077435712  nElectrons: 9.000000  magneticMoment: [ Abs: 0.12080  Tot: +0.12000 ]
SCF: Cycle: 21   F: -20.168135096574961   dF: -8.718e-09   |Residual|: 9.005e-06   |deigs|: 1.453e-05  t[s]:    177.55
	FillingsUpdate:  mu: -0.077433470  nElectrons: 9.000000  magneticMoment: [ Abs: 0.12081  Tot: +0.12000 ]
SCF: Cycle: 22   F: -20.168135118066868   dF: -2.149e-08   |Residual|: 5.300e-06   |deigs|: 1.591e-05  t[s]:    185.01
	FillingsUpdate:  mu: -0.077432028  nElectrons: 9.000000  magneticMoment: [ Abs: 0.12081  Tot: +0.12000 ]
SCF: Cycle: 23   F: -20.168135119119203   dF: -1.052e-09   |Residual|: 4.067e-06   |deigs|: 1.733e-05  t[s]:    191.87
	FillingsUpdate:  mu: -0.077431246  nElectrons: 9.000000  magneticMoment: [ Abs: 0.12080  Tot: +0.12000 ]
SCF: Cycle: 24   F: -20.168135119601498   dF: -4.823e-10   |Residual|: 3.167e-06   |deigs|: 1.890e-05  t[s]:    199.19
SCF: Converged (|Delta E|<1.000000e-08 for 2 iters).


# Ionic positions in lattice coordinates:
ion Cs   0.000000000000000   0.000000000000000   0.000000000000000 0

# Forces in Lattice coordinates:
force Cs   0.000000000000000   0.000000000000000   0.000000000000000 0

# Energy components:
   Eewald =       -9.0240130501663280
       EH =        7.0007854551682147
     Eloc =      -23.5843281600437713
      Enl =        3.4362718211996262
   Epulay =        0.0000000422266766
      Exc =       -3.1048069995639449
       KE =        5.1079567307935019
-------------------------------------
     Etot =      -20.1681341603860247
       TS =        0.0000009592154742
-------------------------------------
        F =      -20.1681351196014980

IonicMinimize: Iter:   0  F: -20.168135119601498  |grad|_K:  0.000e+00  t[s]:    199.59
IonicMinimize: Converged (|grad|_K<1.000000e-04).

#--- Lowdin population analysis ---
# oxidation-state Cs +0.006
# magnetic-moments Cs +0.119

End date and time: Sun Feb  6 13:29:04 2022  (Duration: 0-0:03:19.66)
Done!
