The alkali metal is Cs
scale=2
magnetization=-0.32
--------------------------------------------------------------------------
The library attempted to open the following supporting CUDA libraries,
but each of them failed.  CUDA-aware support is disabled.
libcuda.so.1: cannot open shared object file: No such file or directory
libcuda.dylib: cannot open shared object file: No such file or directory
/usr/lib64/libcuda.so.1: cannot open shared object file: No such file or directory
/usr/lib64/libcuda.dylib: cannot open shared object file: No such file or directory
If you are not interested in CUDA-aware support, then run with
--mca opal_warn_on_missing_libcuda 0 to suppress this message.  If you are interested
in CUDA-aware support, then try setting LD_LIBRARY_PATH to the location
of libcuda.so.1 to get passed this issue.
--------------------------------------------------------------------------
--------------------------------------------------------------------------
No OpenFabrics connection schemes reported that they were able to be
used on a specific port.  As such, the openib BTL (OpenFabrics
support) will be disabled for this port.

  Local host:           d-4-2-2
  Local device:         mlx5_1
  Local port:           1
  CPCs attempted:       rdmacm, udcm
--------------------------------------------------------------------------

*************** JDFTx 1.6.0 (git hash 42ebbcc2) ***************

Start date and time: Sun Feb  6 13:16:19 2022
Executable jdftx with command-line: -i Alkali.in
Running on hosts (process indices):  d-4-2-2 (0-18)
Divided in process groups (process indices):  0 (0)  1 (1)  2 (2)  3 (3)  4 (4)  5 (5)  6 (6)  7 (7)  8 (8)  9 (9)  10 (10)  11 (11)  12 (12)  13 (13)  14 (14)  15 (15)  16 (16)  17 (17)  18 (18)
Resource initialization completed at t[s]:      0.00
Run totals: 19 processes, 48 threads, 0 GPUs


Input parsed successfully to the following command list (including defaults):

basis kpoint-dependent
coords-type Lattice
core-overlap-check vector
coulomb-interaction Slab 001
davidson-band-ratio 1.1
dump End None
dump-name $INPUT.$VAR
elec-cutoff 20
elec-eigen-algo Davidson
elec-ex-corr gga-PBE
elec-initial-magnetization -0.320000 yes
elec-smearing Fermi 1e-05
electronic-minimize  \
	dirUpdateScheme      FletcherReeves \
	linminMethod         DirUpdateRecommended \
	nIterations          100 \
	history              15 \
	knormThreshold       0 \
	energyDiffThreshold  1e-08 \
	nEnergyDiff          2 \
	alphaTstart          1 \
	alphaTmin            1e-10 \
	updateTestStepSize   yes \
	alphaTreduceFactor   0.1 \
	alphaTincreaseFactor 3 \
	nAlphaAdjustMax      3 \
	wolfeEnergy          0.0001 \
	wolfeGradient        0.9 \
	fdTest               no
electronic-scf  \
	nIterations	10000 \
	energyDiffThreshold	1e-08 \
	residualThreshold	1e-07 \
	mixFraction	0.5 \
	qMetric	0.8 \
	history	10 \
	nEigSteps	2 \
	eigDiffThreshold	1e-08 \
	mixedVariable	Density \
	qKerker	0.8 \
	qKappa	-1 \
	verbose	no \
	mixFractionMag	1.5
exchange-regularization WignerSeitzTruncated
fluid None
fluid-ex-corr (null) lda-PZ
fluid-gummel-loop 10 1.000000e-05
fluid-minimize  \
	dirUpdateScheme      PolakRibiere \
	linminMethod         DirUpdateRecommended \
	nIterations          100 \
	history              15 \
	knormThreshold       0 \
	energyDiffThreshold  0 \
	nEnergyDiff          2 \
	alphaTstart          1 \
	alphaTmin            1e-10 \
	updateTestStepSize   yes \
	alphaTreduceFactor   0.1 \
	alphaTincreaseFactor 3 \
	nAlphaAdjustMax      3 \
	wolfeEnergy          0.0001 \
	wolfeGradient        0.9 \
	fdTest               no
fluid-solvent H2O 55.338 ScalarEOS \
	epsBulk 78.4 \
	pMol 0.92466 \
	epsInf 1.77 \
	Pvap 1.06736e-10 \
	sigmaBulk 4.62e-05 \
	Rvdw 2.61727 \
	Res 1.42 \
	tauNuc 343133 \
	poleEl 15 7 1
forces-output-coords Positions
ion Cs   0.000000000000000   0.000000000000000   0.000000000000000 0
ion-species SG15/$ID_ONCV_PBE.upf
ion-width 0
ionic-minimize  \
	dirUpdateScheme      L-BFGS \
	linminMethod         DirUpdateRecommended \
	nIterations          0 \
	history              15 \
	knormThreshold       0.0001 \
	energyDiffThreshold  1e-06 \
	nEnergyDiff          2 \
	alphaTstart          1 \
	alphaTmin            1e-10 \
	updateTestStepSize   yes \
	alphaTreduceFactor   0.1 \
	alphaTincreaseFactor 3 \
	nAlphaAdjustMax      3 \
	wolfeEnergy          0.0001 \
	wolfeGradient        0.9 \
	fdTest               no
kpoint   0.000000000000   0.000000000000   0.000000000000  1.00000000000000
kpoint-folding 12 12 1 
latt-move-scale 1 1 1
latt-scale 2 2 1 
lattice  \
	   4.727486978767153   -2.363743489383575    0.000000000000000  \
	  -0.000000000000000    4.094123819672498    0.000000000000000  \
	   0.000000000000000    0.000000000000000   40.000000000000000 
lattice-minimize  \
	dirUpdateScheme      L-BFGS \
	linminMethod         DirUpdateRecommended \
	nIterations          0 \
	history              15 \
	knormThreshold       0 \
	energyDiffThreshold  1e-06 \
	nEnergyDiff          2 \
	alphaTstart          1 \
	alphaTmin            1e-10 \
	updateTestStepSize   yes \
	alphaTreduceFactor   0.1 \
	alphaTincreaseFactor 3 \
	nAlphaAdjustMax      3 \
	wolfeEnergy          0.0001 \
	wolfeGradient        0.9 \
	fdTest               no
lcao-params -1 1e-06 1e-05
pcm-variant GLSSA13
spintype z-spin
subspace-rotation-factor 1 yes
symmetries automatic
symmetry-threshold 0.0001



---------- Setting up symmetries ----------

Found 24 point-group symmetries of the bravais lattice
Found 24 space-group symmetries with basis
Applied RMS atom displacement 0 bohrs to make symmetries exact.

---------- Initializing the Grid ----------
R = 
[      9.45497     -4.72749            0  ]
[            0      8.18825            0  ]
[            0            0           40  ]
unit cell volume = 3096.79
G =
[   0.664538   0.383671         -0  ]
[          0   0.767342         -0  ]
[         -0         -0    0.15708  ]
Minimum fftbox size, Smin = [  40  40  164  ]
Chosen fftbox size, S = [  40  40  168  ]

---------- Exchange Correlation functional ----------
Initalized PBE GGA exchange.
Initalized PBE GGA correlation.

---------- Setting up pseudopotentials ----------
Width of ionic core gaussian charges (only for fluid interactions / plotting) set to 0

Reading pseudopotential file '/home/gridsan/aligho/DFT/build-Nov24/pseudopotentials/SG15/Cs_ONCV_PBE.upf':
  'Cs' pseudopotential, 'PBE' functional
  Generated using ONCVPSP code by D. R. Hamann
  Author: Martin Schlipf and Francois Gygi  Date: 150915.
  9 valence electrons, 3 orbitals, 6 projectors, 2414 radial grid points, with lMax = 2
  Transforming local potential to a uniform radial grid of dG=0.02 with 1489 points.
  Transforming nonlocal projectors to a uniform radial grid of dG=0.02 with 432 points.
    5S    l: 0   occupation:  2.0   eigenvalue: -0.982388
    5P    l: 1   occupation:  6.0   eigenvalue: -0.496786
    6S    l: 0   occupation:  1.0   eigenvalue: -0.076670
  Transforming atomic orbitals to a uniform radial grid of dG=0.02 with 432 points.
  Core radius for overlap checks: 2.06 bohrs.
  Reading pulay file /home/gridsan/aligho/DFT/build-Nov24/pseudopotentials/SG15/Cs_ONCV_PBE.pulay ... using dE_dnG = -1.008762e-04 computed for Ecut = 20.

Initialized 1 species with 1 total atoms.

Folded 1 k-points by 12x12x1 to 144 k-points.

---------- Setting up k-points, bands, fillings ----------
Reduced to 19 k-points under symmetry. 
Computing the number of bands and number of electrons
Calculating initial fillings.
nElectrons:   9.000000   nBands: 6   nStates: 38

----- Setting up reduced wavefunction bases (one per k-point) -----
average nbasis = 13230.521 , ideal nbasis = 13229.709

---------- Setting up coulomb interaction ----------
Initialized slab truncation along lattice direction 001

---------- Setting up 2D ewald sum ----------
Optimum gaussian width for ewald sums = 5.249020 bohr.
Real space sums over 289 unit cells with max indices [  8  8  0  ]
Reciprocal space sums over 81 terms with max indices [  4  4  0  ]

---------- Allocating electronic variables ----------
Initializing wave functions:  linear combination of atomic orbitals
Note: number of bands (6) exceeds available atomic orbitals (5)
Cs pseudo-atom occupations:   s ( 2 1 )  p ( 6 )
	FillingsUpdate:  mu: -0.088796449  nElectrons: 9.000000  magneticMoment: [ Abs: 0.32000  Tot: -0.32000 ]
LCAOMinimize: Iter:   0  F: -20.1801683423152909  |grad|_K:  3.785e-05  alpha:  1.000e+00
	FillingsUpdate:  mu: -0.088779366  nElectrons: 9.000000  magneticMoment: [ Abs: 0.32000  Tot: -0.32000 ]
LCAOMinimize: Iter:   1  F: -20.1801693002192266  |grad|_K:  3.769e-07  alpha:  9.775e-01  linmin: -4.635e-02  cgtest:  3.476e-01  t[s]:      4.70
LCAOMinimize: Encountered beta<0, resetting CG.
[d-4-2-2:93635] 18 more processes have sent help message help-mpi-common-cuda.txt / dlopen failed
[d-4-2-2:93635] Set MCA parameter "orte_base_help_aggregate" to 0 to see all help / error messages
[d-4-2-2:93635] 18 more processes have sent help message help-mpi-btl-openib-cpc-base.txt / no cpcs for port
	FillingsUpdate:  mu: -0.088779477  nElectrons: 9.000000  magneticMoment: [ Abs: 0.32000  Tot: -0.32000 ]
LCAOMinimize: Iter:   2  F: -20.1801693003164999  |grad|_K:  1.372e-09  alpha:  9.980e-01  linmin: -1.250e-01  cgtest:  7.963e-01  t[s]:      5.98
LCAOMinimize: Encountered beta<0, resetting CG.
LCAOMinimize: Converged (|Delta F|<1.000000e-06 for 2 iters).


---- Citations for features of the code used in this run ----

   Software package:
      R. Sundararaman, K. Letchworth-Weaver, K.A. Schwarz, D. Gunceler, Y. Ozhabes and T.A. Arias, 'JDFTx: software for joint density-functional theory', SoftwareX 6, 278 (2017)

   gga-PBE exchange-correlation functional:
      J.P. Perdew, K. Burke and M. Ernzerhof, Phys. Rev. Lett. 77, 3865 (1996)

   Pseudopotentials:
      M Schlipf and F Gygi, Comput. Phys. Commun. 196, 36 (2015)

   Truncated Coulomb potentials:
      R. Sundararaman and T.A. Arias, Phys. Rev. B 87, 165122 (2013)

This list may not be complete. Please suggest additional citations or
report any other bugs at https://github.com/shankar1729/jdftx/issues

Initialization completed successfully at t[s]:      6.07


-------- Electronic minimization -----------
Will mix electronic density at each iteration.
	FillingsUpdate:  mu: -0.088779477  nElectrons: 9.000000  magneticMoment: [ Abs: 0.32000  Tot: -0.32000 ]
	FillingsUpdate:  mu: -0.102386430  nElectrons: 9.000000  magneticMoment: [ Abs: 0.32000  Tot: -0.32000 ]
SCF: Cycle:  0   F: -20.185978225618889   dF: -5.809e-03   |Residual|: 1.285e-02   |deigs|: 1.881e-01  t[s]:      8.60
	FillingsUpdate:  mu: -0.102897802  nElectrons: 9.000000  magneticMoment: [ Abs: 0.32000  Tot: -0.32000 ]
SCF: Cycle:  1   F: -20.186517134477302   dF: -5.389e-04   |Residual|: 1.042e-02   |deigs|: 5.018e-03  t[s]:     10.53
	FillingsUpdate:  mu: -0.099847689  nElectrons: 9.000000  magneticMoment: [ Abs: 0.32939  Tot: -0.32000 ]
SCF: Cycle:  2   F: -20.186850896121019   dF: -3.338e-04   |Residual|: 4.890e-03   |deigs|: 2.803e-03  t[s]:     12.44
	FillingsUpdate:  mu: -0.098611900  nElectrons: 9.000000  magneticMoment: [ Abs: 0.32000  Tot: -0.32000 ]
SCF: Cycle:  3   F: -20.186996565784693   dF: -1.457e-04   |Residual|: 3.484e-03   |deigs|: 2.443e-03  t[s]:     14.37
	FillingsUpdate:  mu: -0.096179291  nElectrons: 9.000000  magneticMoment: [ Abs: 0.32118  Tot: -0.32000 ]
SCF: Cycle:  4   F: -20.187070240465182   dF: -7.367e-05   |Residual|: 2.594e-03   |deigs|: 3.181e-03  t[s]:     16.33
	FillingsUpdate:  mu: -0.093712199  nElectrons: 9.000000  magneticMoment: [ Abs: 0.32493  Tot: -0.32000 ]
SCF: Cycle:  5   F: -20.187110625828478   dF: -4.039e-05   |Residual|: 2.299e-03   |deigs|: 2.989e-03  t[s]:     18.40
	FillingsUpdate:  mu: -0.091234872  nElectrons: 9.000000  magneticMoment: [ Abs: 0.33071  Tot: -0.32000 ]
SCF: Cycle:  6   F: -20.187116178833310   dF: -5.553e-06   |Residual|: 1.584e-03   |deigs|: 3.056e-03  t[s]:     20.39
	FillingsUpdate:  mu: -0.089231201  nElectrons: 9.000000  magneticMoment: [ Abs: 0.32849  Tot: -0.32000 ]
SCF: Cycle:  7   F: -20.187139489166992   dF: -2.331e-05   |Residual|: 1.284e-03   |deigs|: 2.084e-03  t[s]:     22.46
	FillingsUpdate:  mu: -0.087818171  nElectrons: 9.000000  magneticMoment: [ Abs: 0.32279  Tot: -0.32000 ]
SCF: Cycle:  8   F: -20.187169874229998   dF: -3.039e-05   |Residual|: 1.064e-03   |deigs|: 1.667e-03  t[s]:     24.53
	FillingsUpdate:  mu: -0.086356080  nElectrons: 9.000000  magneticMoment: [ Abs: 0.32377  Tot: -0.32000 ]
SCF: Cycle:  9   F: -20.187159723277109   dF: +1.015e-05   |Residual|: 8.891e-04   |deigs|: 1.577e-03  t[s]:     26.69
	FillingsUpdate:  mu: -0.084414244  nElectrons: 9.000000  magneticMoment: [ Abs: 0.32591  Tot: -0.32000 ]
SCF: Cycle: 10   F: -20.187154879831422   dF: +4.843e-06   |Residual|: 8.138e-04   |deigs|: 2.070e-03  t[s]:     28.83
	FillingsUpdate:  mu: -0.082566351  nElectrons: 9.000000  magneticMoment: [ Abs: 0.32467  Tot: -0.32000 ]
SCF: Cycle: 11   F: -20.187172307076789   dF: -1.743e-05   |Residual|: 7.484e-04   |deigs|: 1.914e-03  t[s]:     30.96
	FillingsUpdate:  mu: -0.081264669  nElectrons: 9.000000  magneticMoment: [ Abs: 0.32442  Tot: -0.32000 ]
SCF: Cycle: 12   F: -20.187197164720200   dF: -2.486e-05   |Residual|: 6.818e-04   |deigs|: 1.260e-03  t[s]:     33.04
	FillingsUpdate:  mu: -0.079596544  nElectrons: 9.000000  magneticMoment: [ Abs: 0.32415  Tot: -0.32000 ]
SCF: Cycle: 13   F: -20.187208879418595   dF: -1.171e-05   |Residual|: 6.326e-04   |deigs|: 1.660e-03  t[s]:     35.10
	FillingsUpdate:  mu: -0.077549538  nElectrons: 9.000000  magneticMoment: [ Abs: 0.32154  Tot: -0.32000 ]
SCF: Cycle: 14   F: -20.187218819721576   dF: -9.940e-06   |Residual|: 4.793e-04   |deigs|: 2.141e-03  t[s]:     37.14
	FillingsUpdate:  mu: -0.077030303  nElectrons: 9.000000  magneticMoment: [ Abs: 0.32132  Tot: -0.32000 ]
SCF: Cycle: 15   F: -20.187223468641665   dF: -4.649e-06   |Residual|: 3.854e-04   |deigs|: 1.550e-03  t[s]:     39.22
	FillingsUpdate:  mu: -0.076712372  nElectrons: 9.000000  magneticMoment: [ Abs: 0.32010  Tot: -0.32000 ]
SCF: Cycle: 16   F: -20.187227150423556   dF: -3.682e-06   |Residual|: 2.807e-04   |deigs|: 6.141e-04  t[s]:     41.33
	FillingsUpdate:  mu: -0.076536064  nElectrons: 9.000000  magneticMoment: [ Abs: 0.32029  Tot: -0.32000 ]
SCF: Cycle: 17   F: -20.187228116468891   dF: -9.660e-07   |Residual|: 2.006e-04   |deigs|: 2.853e-04  t[s]:     43.39
	FillingsUpdate:  mu: -0.076585461  nElectrons: 9.000000  magneticMoment: [ Abs: 0.32025  Tot: -0.32000 ]
SCF: Cycle: 18   F: -20.187228817570652   dF: -7.011e-07   |Residual|: 9.255e-05   |deigs|: 1.493e-04  t[s]:     45.57
	FillingsUpdate:  mu: -0.076566622  nElectrons: 9.000000  magneticMoment: [ Abs: 0.32017  Tot: -0.32000 ]
SCF: Cycle: 19   F: -20.187229398708507   dF: -5.811e-07   |Residual|: 4.520e-05   |deigs|: 7.182e-05  t[s]:     47.64
	FillingsUpdate:  mu: -0.076591256  nElectrons: 9.000000  magneticMoment: [ Abs: 0.32013  Tot: -0.32000 ]
SCF: Cycle: 20   F: -20.187229469571779   dF: -7.086e-08   |Residual|: 2.644e-05   |deigs|: 6.249e-05  t[s]:     49.73
	FillingsUpdate:  mu: -0.076605024  nElectrons: 9.000000  magneticMoment: [ Abs: 0.32016  Tot: -0.32000 ]
SCF: Cycle: 21   F: -20.187229523063223   dF: -5.349e-08   |Residual|: 1.926e-05   |deigs|: 6.142e-05  t[s]:     51.85
	FillingsUpdate:  mu: -0.076609231  nElectrons: 9.000000  magneticMoment: [ Abs: 0.32017  Tot: -0.32000 ]
SCF: Cycle: 22   F: -20.187229549320516   dF: -2.626e-08   |Residual|: 1.110e-05   |deigs|: 8.894e-05  t[s]:     54.08
	FillingsUpdate:  mu: -0.076611773  nElectrons: 9.000000  magneticMoment: [ Abs: 0.32015  Tot: -0.32000 ]
SCF: Cycle: 23   F: -20.187229563420402   dF: -1.410e-08   |Residual|: 7.151e-06   |deigs|: 5.991e-05  t[s]:     56.17
	FillingsUpdate:  mu: -0.076608631  nElectrons: 9.000000  magneticMoment: [ Abs: 0.32015  Tot: -0.32000 ]
SCF: Cycle: 24   F: -20.187229572148151   dF: -8.728e-09   |Residual|: 8.081e-06   |deigs|: 1.771e-04  t[s]:     58.36
	FillingsUpdate:  mu: -0.076609947  nElectrons: 9.000000  magneticMoment: [ Abs: 0.32015  Tot: -0.32000 ]
SCF: Cycle: 25   F: -20.187229575113633   dF: -2.965e-09   |Residual|: 1.015e-05   |deigs|: 7.264e-04  t[s]:     60.35
SCF: Converged (|Delta E|<1.000000e-08 for 2 iters).


# Ionic positions in lattice coordinates:
ion Cs   0.000000000000000   0.000000000000000   0.000000000000000 0

# Forces in Lattice coordinates:
force Cs   0.000000000000000   0.000000000000000   0.000000000000000 0

# Energy components:
   Eewald =      -18.0480261003326561
       EH =       -1.8212811828872353
     Eloc =       -5.7619438469907989
      Enl =        3.4417348812748729
   Epulay =        0.0000000264484078
      Exc =       -3.1451095518008616
       KE =        5.1473970224096917
-------------------------------------
     Etot =      -20.1872287518785818
       TS =        0.0000008232350520
-------------------------------------
        F =      -20.1872295751136335

IonicMinimize: Iter:   0  F: -20.187229575113633  |grad|_K:  0.000e+00  t[s]:     60.47
IonicMinimize: Converged (|grad|_K<1.000000e-04).

#--- Lowdin population analysis ---
# oxidation-state Cs +0.060
# magnetic-moments Cs -0.277

End date and time: Sun Feb  6 13:17:19 2022  (Duration: 0-0:01:00.50)
Done!
scale=3
magnetization=-0.32
--------------------------------------------------------------------------
The library attempted to open the following supporting CUDA libraries,
but each of them failed.  CUDA-aware support is disabled.
libcuda.so.1: cannot open shared object file: No such file or directory
libcuda.dylib: cannot open shared object file: No such file or directory
/usr/lib64/libcuda.so.1: cannot open shared object file: No such file or directory
/usr/lib64/libcuda.dylib: cannot open shared object file: No such file or directory
If you are not interested in CUDA-aware support, then run with
--mca opal_warn_on_missing_libcuda 0 to suppress this message.  If you are interested
in CUDA-aware support, then try setting LD_LIBRARY_PATH to the location
of libcuda.so.1 to get passed this issue.
--------------------------------------------------------------------------
--------------------------------------------------------------------------
No OpenFabrics connection schemes reported that they were able to be
used on a specific port.  As such, the openib BTL (OpenFabrics
support) will be disabled for this port.

  Local host:           d-4-2-2
  Local device:         mlx5_1
  Local port:           1
  CPCs attempted:       rdmacm, udcm
--------------------------------------------------------------------------

*************** JDFTx 1.6.0 (git hash 42ebbcc2) ***************

Start date and time: Sun Feb  6 13:17:20 2022
Executable jdftx with command-line: -i Alkali.in
Running on hosts (process indices):  d-4-2-2 (0-18)
Divided in process groups (process indices):  0 (0)  1 (1)  2 (2)  3 (3)  4 (4)  5 (5)  6 (6)  7 (7)  8 (8)  9 (9)  10 (10)  11 (11)  12 (12)  13 (13)  14 (14)  15 (15)  16 (16)  17 (17)  18 (18)
Resource initialization completed at t[s]:      0.00
Run totals: 19 processes, 48 threads, 0 GPUs


Input parsed successfully to the following command list (including defaults):

basis kpoint-dependent
coords-type Lattice
core-overlap-check vector
coulomb-interaction Slab 001
davidson-band-ratio 1.1
dump End None
dump-name $INPUT.$VAR
elec-cutoff 20
elec-eigen-algo Davidson
elec-ex-corr gga-PBE
elec-initial-magnetization -0.320000 yes
elec-smearing Fermi 1e-05
electronic-minimize  \
	dirUpdateScheme      FletcherReeves \
	linminMethod         DirUpdateRecommended \
	nIterations          100 \
	history              15 \
	knormThreshold       0 \
	energyDiffThreshold  1e-08 \
	nEnergyDiff          2 \
	alphaTstart          1 \
	alphaTmin            1e-10 \
	updateTestStepSize   yes \
	alphaTreduceFactor   0.1 \
	alphaTincreaseFactor 3 \
	nAlphaAdjustMax      3 \
	wolfeEnergy          0.0001 \
	wolfeGradient        0.9 \
	fdTest               no
electronic-scf  \
	nIterations	10000 \
	energyDiffThreshold	1e-08 \
	residualThreshold	1e-07 \
	mixFraction	0.5 \
	qMetric	0.8 \
	history	10 \
	nEigSteps	2 \
	eigDiffThreshold	1e-08 \
	mixedVariable	Density \
	qKerker	0.8 \
	qKappa	-1 \
	verbose	no \
	mixFractionMag	1.5
exchange-regularization WignerSeitzTruncated
fluid None
fluid-ex-corr (null) lda-PZ
fluid-gummel-loop 10 1.000000e-05
fluid-minimize  \
	dirUpdateScheme      PolakRibiere \
	linminMethod         DirUpdateRecommended \
	nIterations          100 \
	history              15 \
	knormThreshold       0 \
	energyDiffThreshold  0 \
	nEnergyDiff          2 \
	alphaTstart          1 \
	alphaTmin            1e-10 \
	updateTestStepSize   yes \
	alphaTreduceFactor   0.1 \
	alphaTincreaseFactor 3 \
	nAlphaAdjustMax      3 \
	wolfeEnergy          0.0001 \
	wolfeGradient        0.9 \
	fdTest               no
fluid-solvent H2O 55.338 ScalarEOS \
	epsBulk 78.4 \
	pMol 0.92466 \
	epsInf 1.77 \
	Pvap 1.06736e-10 \
	sigmaBulk 4.62e-05 \
	Rvdw 2.61727 \
	Res 1.42 \
	tauNuc 343133 \
	poleEl 15 7 1
forces-output-coords Positions
ion Cs   0.000000000000000   0.000000000000000   0.000000000000000 0
ion-species SG15/$ID_ONCV_PBE.upf
ion-width 0
ionic-minimize  \
	dirUpdateScheme      L-BFGS \
	linminMethod         DirUpdateRecommended \
	nIterations          0 \
	history              15 \
	knormThreshold       0.0001 \
	energyDiffThreshold  1e-06 \
	nEnergyDiff          2 \
	alphaTstart          1 \
	alphaTmin            1e-10 \
	updateTestStepSize   yes \
	alphaTreduceFactor   0.1 \
	alphaTincreaseFactor 3 \
	nAlphaAdjustMax      3 \
	wolfeEnergy          0.0001 \
	wolfeGradient        0.9 \
	fdTest               no
kpoint   0.000000000000   0.000000000000   0.000000000000  1.00000000000000
kpoint-folding 12 12 1 
latt-move-scale 1 1 1
latt-scale 3 3 1 
lattice  \
	   4.727486978767153   -2.363743489383575    0.000000000000000  \
	  -0.000000000000000    4.094123819672498    0.000000000000000  \
	   0.000000000000000    0.000000000000000   40.000000000000000 
lattice-minimize  \
	dirUpdateScheme      L-BFGS \
	linminMethod         DirUpdateRecommended \
	nIterations          0 \
	history              15 \
	knormThreshold       0 \
	energyDiffThreshold  1e-06 \
	nEnergyDiff          2 \
	alphaTstart          1 \
	alphaTmin            1e-10 \
	updateTestStepSize   yes \
	alphaTreduceFactor   0.1 \
	alphaTincreaseFactor 3 \
	nAlphaAdjustMax      3 \
	wolfeEnergy          0.0001 \
	wolfeGradient        0.9 \
	fdTest               no
lcao-params -1 1e-06 1e-05
pcm-variant GLSSA13
spintype z-spin
subspace-rotation-factor 1 yes
symmetries automatic
symmetry-threshold 0.0001



---------- Setting up symmetries ----------

Found 24 point-group symmetries of the bravais lattice
Found 24 space-group symmetries with basis
Applied RMS atom displacement 0 bohrs to make symmetries exact.

---------- Initializing the Grid ----------
R = 
[      14.1825     -7.09123            0  ]
[            0      12.2824            0  ]
[            0            0           40  ]
unit cell volume = 6967.77
G =
[   0.443025   0.255781         -0  ]
[          0   0.511561         -0  ]
[         -0         -0    0.15708  ]
Minimum fftbox size, Smin = [  60  60  164  ]
Chosen fftbox size, S = [  60  60  168  ]

---------- Exchange Correlation functional ----------
Initalized PBE GGA exchange.
Initalized PBE GGA correlation.

---------- Setting up pseudopotentials ----------
Width of ionic core gaussian charges (only for fluid interactions / plotting) set to 0

Reading pseudopotential file '/home/gridsan/aligho/DFT/build-Nov24/pseudopotentials/SG15/Cs_ONCV_PBE.upf':
  'Cs' pseudopotential, 'PBE' functional
  Generated using ONCVPSP code by D. R. Hamann
  Author: Martin Schlipf and Francois Gygi  Date: 150915.
  9 valence electrons, 3 orbitals, 6 projectors, 2414 radial grid points, with lMax = 2
  Transforming local potential to a uniform radial grid of dG=0.02 with 1489 points.
  Transforming nonlocal projectors to a uniform radial grid of dG=0.02 with 432 points.
    5S    l: 0   occupation:  2.0   eigenvalue: -0.982388
    5P    l: 1   occupation:  6.0   eigenvalue: -0.496786
    6S    l: 0   occupation:  1.0   eigenvalue: -0.076670
  Transforming atomic orbitals to a uniform radial grid of dG=0.02 with 432 points.
  Core radius for overlap checks: 2.06 bohrs.
  Reading pulay file /home/gridsan/aligho/DFT/build-Nov24/pseudopotentials/SG15/Cs_ONCV_PBE.pulay ... using dE_dnG = -1.008762e-04 computed for Ecut = 20.

Initialized 1 species with 1 total atoms.

Folded 1 k-points by 12x12x1 to 144 k-points.

---------- Setting up k-points, bands, fillings ----------
Reduced to 19 k-points under symmetry. 
Computing the number of bands and number of electrons
Calculating initial fillings.
nElectrons:   9.000000   nBands: 6   nStates: 38

----- Setting up reduced wavefunction bases (one per k-point) -----
average nbasis = 29766.104 , ideal nbasis = 29766.845

---------- Setting up coulomb interaction ----------
Initialized slab truncation along lattice direction 001

---------- Setting up 2D ewald sum ----------
Optimum gaussian width for ewald sums = 7.873530 bohr.
Real space sums over 289 unit cells with max indices [  8  8  0  ]
Reciprocal space sums over 81 terms with max indices [  4  4  0  ]

---------- Allocating electronic variables ----------
Initializing wave functions:  linear combination of atomic orbitals
Note: number of bands (6) exceeds available atomic orbitals (5)
Cs pseudo-atom occupations:   s ( 2 1 )  p ( 6 )
[d-4-2-2:45985] 18 more processes have sent help message help-mpi-common-cuda.txt / dlopen failed
[d-4-2-2:45985] Set MCA parameter "orte_base_help_aggregate" to 0 to see all help / error messages
[d-4-2-2:45985] 18 more processes have sent help message help-mpi-btl-openib-cpc-base.txt / no cpcs for port
	FillingsUpdate:  mu: -0.078839602  nElectrons: 9.000000  magneticMoment: [ Abs: 0.32000  Tot: -0.32000 ]
LCAOMinimize: Iter:   0  F: -20.1747364804095071  |grad|_K:  2.345e-05  alpha:  1.000e+00
	FillingsUpdate:  mu: -0.078834448  nElectrons: 9.000000  magneticMoment: [ Abs: 0.32000  Tot: -0.32000 ]
LCAOMinimize: Iter:   1  F: -20.1747368515711010  |grad|_K:  1.666e-07  alpha:  9.869e-01  linmin: -2.962e-02  cgtest:  5.377e-01  t[s]:      8.99
LCAOMinimize: Encountered beta<0, resetting CG.
	FillingsUpdate:  mu: -0.078834445  nElectrons: 9.000000  magneticMoment: [ Abs: 0.32000  Tot: -0.32000 ]
LCAOMinimize: Iter:   2  F: -20.1747368515902217  |grad|_K:  1.903e-09  alpha:  1.012e+00  linmin:  7.689e-02  cgtest: -9.976e-01  t[s]:     11.39
LCAOMinimize: Converged (|Delta F|<1.000000e-06 for 2 iters).


---- Citations for features of the code used in this run ----

   Software package:
      R. Sundararaman, K. Letchworth-Weaver, K.A. Schwarz, D. Gunceler, Y. Ozhabes and T.A. Arias, 'JDFTx: software for joint density-functional theory', SoftwareX 6, 278 (2017)

   gga-PBE exchange-correlation functional:
      J.P. Perdew, K. Burke and M. Ernzerhof, Phys. Rev. Lett. 77, 3865 (1996)

   Pseudopotentials:
      M Schlipf and F Gygi, Comput. Phys. Commun. 196, 36 (2015)

   Truncated Coulomb potentials:
      R. Sundararaman and T.A. Arias, Phys. Rev. B 87, 165122 (2013)

This list may not be complete. Please suggest additional citations or
report any other bugs at https://github.com/shankar1729/jdftx/issues

Initialization completed successfully at t[s]:     11.56


-------- Electronic minimization -----------
Will mix electronic density at each iteration.
	FillingsUpdate:  mu: -0.078834445  nElectrons: 9.000000  magneticMoment: [ Abs: 0.32000  Tot: -0.32000 ]
	FillingsUpdate:  mu: -0.082166159  nElectrons: 9.000000  magneticMoment: [ Abs: 0.32000  Tot: -0.32000 ]
SCF: Cycle:  0   F: -20.177147262368365   dF: -2.410e-03   |Residual|: 4.685e-03   |deigs|: 1.731e-01  t[s]:     16.45
	FillingsUpdate:  mu: -0.082390494  nElectrons: 9.000000  magneticMoment: [ Abs: 0.32000  Tot: -0.32000 ]
SCF: Cycle:  1   F: -20.177268239066883   dF: -1.210e-04   |Residual|: 4.147e-03   |deigs|: 4.969e-03  t[s]:     20.20
	FillingsUpdate:  mu: -0.082630995  nElectrons: 9.000000  magneticMoment: [ Abs: 0.32249  Tot: -0.32000 ]
SCF: Cycle:  2   F: -20.177342031130721   dF: -7.379e-05   |Residual|: 2.358e-03   |deigs|: 2.351e-03  t[s]:     24.09
	FillingsUpdate:  mu: -0.082656688  nElectrons: 9.000000  magneticMoment: [ Abs: 0.32209  Tot: -0.32000 ]
SCF: Cycle:  3   F: -20.177367608569408   dF: -2.558e-05   |Residual|: 1.605e-03   |deigs|: 1.428e-03  t[s]:     28.06
	FillingsUpdate:  mu: -0.082491840  nElectrons: 9.000000  magneticMoment: [ Abs: 0.32020  Tot: -0.32000 ]
SCF: Cycle:  4   F: -20.177383658064496   dF: -1.605e-05   |Residual|: 9.507e-04   |deigs|: 9.595e-04  t[s]:     32.08
	FillingsUpdate:  mu: -0.082342982  nElectrons: 9.000000  magneticMoment: [ Abs: 0.32022  Tot: -0.32000 ]
SCF: Cycle:  5   F: -20.177390939059226   dF: -7.281e-06   |Residual|: 6.836e-04   |deigs|: 9.880e-04  t[s]:     36.15
	FillingsUpdate:  mu: -0.081996183  nElectrons: 9.000000  magneticMoment: [ Abs: 0.32079  Tot: -0.32000 ]
SCF: Cycle:  6   F: -20.177394345081769   dF: -3.406e-06   |Residual|: 5.384e-04   |deigs|: 1.322e-03  t[s]:     40.28
	FillingsUpdate:  mu: -0.081616746  nElectrons: 9.000000  magneticMoment: [ Abs: 0.32189  Tot: -0.32000 ]
SCF: Cycle:  7   F: -20.177394672511312   dF: -3.274e-07   |Residual|: 4.605e-04   |deigs|: 6.931e-04  t[s]:     44.45
	FillingsUpdate:  mu: -0.080943278  nElectrons: 9.000000  magneticMoment: [ Abs: 0.32271  Tot: -0.32000 ]
SCF: Cycle:  8   F: -20.177391942148653   dF: +2.730e-06   |Residual|: 3.655e-04   |deigs|: 8.509e-04  t[s]:     48.77
	FillingsUpdate:  mu: -0.080428915  nElectrons: 9.000000  magneticMoment: [ Abs: 0.32209  Tot: -0.32000 ]
SCF: Cycle:  9   F: -20.177393831383416   dF: -1.889e-06   |Residual|: 3.286e-04   |deigs|: 7.763e-04  t[s]:     53.10
	FillingsUpdate:  mu: -0.080412058  nElectrons: 9.000000  magneticMoment: [ Abs: 0.32155  Tot: -0.32000 ]
SCF: Cycle: 10   F: -20.177396599406073   dF: -2.768e-06   |Residual|: 2.859e-04   |deigs|: 4.775e-04  t[s]:     57.51
	FillingsUpdate:  mu: -0.079942739  nElectrons: 9.000000  magneticMoment: [ Abs: 0.32245  Tot: -0.32000 ]
SCF: Cycle: 11   F: -20.177397482375032   dF: -8.830e-07   |Residual|: 2.434e-04   |deigs|: 9.583e-04  t[s]:     61.87
	FillingsUpdate:  mu: -0.079343305  nElectrons: 9.000000  magneticMoment: [ Abs: 0.32218  Tot: -0.32000 ]
SCF: Cycle: 12   F: -20.177396439034236   dF: +1.043e-06   |Residual|: 2.415e-04   |deigs|: 7.761e-04  t[s]:     66.30
	FillingsUpdate:  mu: -0.078965257  nElectrons: 9.000000  magneticMoment: [ Abs: 0.32091  Tot: -0.32000 ]
SCF: Cycle: 13   F: -20.177396429434335   dF: +9.600e-09   |Residual|: 2.283e-04   |deigs|: 4.502e-04  t[s]:     70.76
	FillingsUpdate:  mu: -0.078762011  nElectrons: 9.000000  magneticMoment: [ Abs: 0.32156  Tot: -0.32000 ]
SCF: Cycle: 14   F: -20.177398609821203   dF: -2.180e-06   |Residual|: 1.955e-04   |deigs|: 2.670e-04  t[s]:     75.19
	FillingsUpdate:  mu: -0.078418151  nElectrons: 9.000000  magneticMoment: [ Abs: 0.32117  Tot: -0.32000 ]
SCF: Cycle: 15   F: -20.177400574832390   dF: -1.965e-06   |Residual|: 1.510e-04   |deigs|: 3.887e-04  t[s]:     79.53
	FillingsUpdate:  mu: -0.078178260  nElectrons: 9.000000  magneticMoment: [ Abs: 0.32058  Tot: -0.32000 ]
SCF: Cycle: 16   F: -20.177401839077227   dF: -1.264e-06   |Residual|: 9.628e-05   |deigs|: 2.273e-04  t[s]:     83.87
	FillingsUpdate:  mu: -0.078135479  nElectrons: 9.000000  magneticMoment: [ Abs: 0.32043  Tot: -0.32000 ]
SCF: Cycle: 17   F: -20.177402092901314   dF: -2.538e-07   |Residual|: 6.443e-05   |deigs|: 5.807e-05  t[s]:     88.14
	FillingsUpdate:  mu: -0.078144010  nElectrons: 9.000000  magneticMoment: [ Abs: 0.32038  Tot: -0.32000 ]
SCF: Cycle: 18   F: -20.177402280897279   dF: -1.880e-07   |Residual|: 3.511e-05   |deigs|: 3.876e-05  t[s]:     92.52
	FillingsUpdate:  mu: -0.078162232  nElectrons: 9.000000  magneticMoment: [ Abs: 0.32042  Tot: -0.32000 ]
SCF: Cycle: 19   F: -20.177402345523472   dF: -6.463e-08   |Residual|: 2.308e-05   |deigs|: 4.254e-05  t[s]:     96.84
	FillingsUpdate:  mu: -0.078165542  nElectrons: 9.000000  magneticMoment: [ Abs: 0.32041  Tot: -0.32000 ]
SCF: Cycle: 20   F: -20.177402377202363   dF: -3.168e-08   |Residual|: 1.604e-05   |deigs|: 4.873e-05  t[s]:    101.22
	FillingsUpdate:  mu: -0.078175294  nElectrons: 9.000000  magneticMoment: [ Abs: 0.32041  Tot: -0.32000 ]
SCF: Cycle: 21   F: -20.177402392305336   dF: -1.510e-08   |Residual|: 1.143e-05   |deigs|: 6.727e-05  t[s]:    105.68
	FillingsUpdate:  mu: -0.078173536  nElectrons: 9.000000  magneticMoment: [ Abs: 0.32041  Tot: -0.32000 ]
SCF: Cycle: 22   F: -20.177402399118197   dF: -6.813e-09   |Residual|: 7.384e-06   |deigs|: 7.148e-05  t[s]:    110.08
	FillingsUpdate:  mu: -0.078176491  nElectrons: 9.000000  magneticMoment: [ Abs: 0.32041  Tot: -0.32000 ]
SCF: Cycle: 23   F: -20.177402403480208   dF: -4.362e-09   |Residual|: 5.385e-06   |deigs|: 6.502e-05  t[s]:    114.45
SCF: Converged (|Delta E|<1.000000e-08 for 2 iters).


# Ionic positions in lattice coordinates:
ion Cs   0.000000000000000   0.000000000000000   0.000000000000000 0

# Forces in Lattice coordinates:
force Cs  -0.000000000000000  -0.000000000000000   0.000000000000000 0

# Energy components:
   Eewald =      -12.0320174002217755
       EH =        4.0128737447517695
     Eloc =      -17.5821303616920268
      Enl =        3.4317279421822797
   Epulay =       -0.0000000107257212
      Exc =       -3.1086237637346144
       KE =        5.1007682868110269
-------------------------------------
     Etot =      -20.1774015626290577
       TS =        0.0000008408511521
-------------------------------------
        F =      -20.1774024034802082

IonicMinimize: Iter:   0  F: -20.177402403480208  |grad|_K:  0.000e+00  t[s]:    114.72
IonicMinimize: Converged (|grad|_K<1.000000e-04).

#--- Lowdin population analysis ---
# oxidation-state Cs +0.048
# magnetic-moments Cs -0.287

End date and time: Sun Feb  6 13:19:15 2022  (Duration: 0-0:01:54.76)
Done!
scale=4
magnetization=-0.32
--------------------------------------------------------------------------
The library attempted to open the following supporting CUDA libraries,
but each of them failed.  CUDA-aware support is disabled.
libcuda.so.1: cannot open shared object file: No such file or directory
libcuda.dylib: cannot open shared object file: No such file or directory
/usr/lib64/libcuda.so.1: cannot open shared object file: No such file or directory
/usr/lib64/libcuda.dylib: cannot open shared object file: No such file or directory
If you are not interested in CUDA-aware support, then run with
--mca opal_warn_on_missing_libcuda 0 to suppress this message.  If you are interested
in CUDA-aware support, then try setting LD_LIBRARY_PATH to the location
of libcuda.so.1 to get passed this issue.
--------------------------------------------------------------------------
--------------------------------------------------------------------------
No OpenFabrics connection schemes reported that they were able to be
used on a specific port.  As such, the openib BTL (OpenFabrics
support) will be disabled for this port.

  Local host:           d-4-2-2
  Local device:         mlx5_1
  Local port:           1
  CPCs attempted:       rdmacm, udcm
--------------------------------------------------------------------------

*************** JDFTx 1.6.0 (git hash 42ebbcc2) ***************

Start date and time: Sun Feb  6 13:19:16 2022
Executable jdftx with command-line: -i Alkali.in
Running on hosts (process indices):  d-4-2-2 (0-18)
Divided in process groups (process indices):  0 (0)  1 (1)  2 (2)  3 (3)  4 (4)  5 (5)  6 (6)  7 (7)  8 (8)  9 (9)  10 (10)  11 (11)  12 (12)  13 (13)  14 (14)  15 (15)  16 (16)  17 (17)  18 (18)
Resource initialization completed at t[s]:      0.00
Run totals: 19 processes, 48 threads, 0 GPUs


Input parsed successfully to the following command list (including defaults):

basis kpoint-dependent
coords-type Lattice
core-overlap-check vector
coulomb-interaction Slab 001
davidson-band-ratio 1.1
dump End None
dump-name $INPUT.$VAR
elec-cutoff 20
elec-eigen-algo Davidson
elec-ex-corr gga-PBE
elec-initial-magnetization -0.320000 yes
elec-smearing Fermi 1e-05
electronic-minimize  \
	dirUpdateScheme      FletcherReeves \
	linminMethod         DirUpdateRecommended \
	nIterations          100 \
	history              15 \
	knormThreshold       0 \
	energyDiffThreshold  1e-08 \
	nEnergyDiff          2 \
	alphaTstart          1 \
	alphaTmin            1e-10 \
	updateTestStepSize   yes \
	alphaTreduceFactor   0.1 \
	alphaTincreaseFactor 3 \
	nAlphaAdjustMax      3 \
	wolfeEnergy          0.0001 \
	wolfeGradient        0.9 \
	fdTest               no
electronic-scf  \
	nIterations	10000 \
	energyDiffThreshold	1e-08 \
	residualThreshold	1e-07 \
	mixFraction	0.5 \
	qMetric	0.8 \
	history	10 \
	nEigSteps	2 \
	eigDiffThreshold	1e-08 \
	mixedVariable	Density \
	qKerker	0.8 \
	qKappa	-1 \
	verbose	no \
	mixFractionMag	1.5
exchange-regularization WignerSeitzTruncated
fluid None
fluid-ex-corr (null) lda-PZ
fluid-gummel-loop 10 1.000000e-05
fluid-minimize  \
	dirUpdateScheme      PolakRibiere \
	linminMethod         DirUpdateRecommended \
	nIterations          100 \
	history              15 \
	knormThreshold       0 \
	energyDiffThreshold  0 \
	nEnergyDiff          2 \
	alphaTstart          1 \
	alphaTmin            1e-10 \
	updateTestStepSize   yes \
	alphaTreduceFactor   0.1 \
	alphaTincreaseFactor 3 \
	nAlphaAdjustMax      3 \
	wolfeEnergy          0.0001 \
	wolfeGradient        0.9 \
	fdTest               no
fluid-solvent H2O 55.338 ScalarEOS \
	epsBulk 78.4 \
	pMol 0.92466 \
	epsInf 1.77 \
	Pvap 1.06736e-10 \
	sigmaBulk 4.62e-05 \
	Rvdw 2.61727 \
	Res 1.42 \
	tauNuc 343133 \
	poleEl 15 7 1
forces-output-coords Positions
ion Cs   0.000000000000000   0.000000000000000   0.000000000000000 0
ion-species SG15/$ID_ONCV_PBE.upf
ion-width 0
ionic-minimize  \
	dirUpdateScheme      L-BFGS \
	linminMethod         DirUpdateRecommended \
	nIterations          0 \
	history              15 \
	knormThreshold       0.0001 \
	energyDiffThreshold  1e-06 \
	nEnergyDiff          2 \
	alphaTstart          1 \
	alphaTmin            1e-10 \
	updateTestStepSize   yes \
	alphaTreduceFactor   0.1 \
	alphaTincreaseFactor 3 \
	nAlphaAdjustMax      3 \
	wolfeEnergy          0.0001 \
	wolfeGradient        0.9 \
	fdTest               no
kpoint   0.000000000000   0.000000000000   0.000000000000  1.00000000000000
kpoint-folding 12 12 1 
latt-move-scale 1 1 1
latt-scale 4 4 1 
lattice  \
	   4.727486978767153   -2.363743489383575    0.000000000000000  \
	  -0.000000000000000    4.094123819672498    0.000000000000000  \
	   0.000000000000000    0.000000000000000   40.000000000000000 
lattice-minimize  \
	dirUpdateScheme      L-BFGS \
	linminMethod         DirUpdateRecommended \
	nIterations          0 \
	history              15 \
	knormThreshold       0 \
	energyDiffThreshold  1e-06 \
	nEnergyDiff          2 \
	alphaTstart          1 \
	alphaTmin            1e-10 \
	updateTestStepSize   yes \
	alphaTreduceFactor   0.1 \
	alphaTincreaseFactor 3 \
	nAlphaAdjustMax      3 \
	wolfeEnergy          0.0001 \
	wolfeGradient        0.9 \
	fdTest               no
lcao-params -1 1e-06 1e-05
pcm-variant GLSSA13
spintype z-spin
subspace-rotation-factor 1 yes
symmetries automatic
symmetry-threshold 0.0001



---------- Setting up symmetries ----------

Found 24 point-group symmetries of the bravais lattice
Found 24 space-group symmetries with basis
Applied RMS atom displacement 0 bohrs to make symmetries exact.

---------- Initializing the Grid ----------
R = 
[      18.9099     -9.45497            0  ]
[            0      16.3765            0  ]
[            0            0           40  ]
unit cell volume = 12387.1
G =
[   0.332269   0.191835         -0  ]
[          0   0.383671         -0  ]
[         -0         -0    0.15708  ]
Minimum fftbox size, Smin = [  80  80  164  ]
Chosen fftbox size, S = [  80  80  168  ]

---------- Exchange Correlation functional ----------
Initalized PBE GGA exchange.
Initalized PBE GGA correlation.

---------- Setting up pseudopotentials ----------
Width of ionic core gaussian charges (only for fluid interactions / plotting) set to 0

Reading pseudopotential file '/home/gridsan/aligho/DFT/build-Nov24/pseudopotentials/SG15/Cs_ONCV_PBE.upf':
  'Cs' pseudopotential, 'PBE' functional
  Generated using ONCVPSP code by D. R. Hamann
  Author: Martin Schlipf and Francois Gygi  Date: 150915.
  9 valence electrons, 3 orbitals, 6 projectors, 2414 radial grid points, with lMax = 2
  Transforming local potential to a uniform radial grid of dG=0.02 with 1489 points.
  Transforming nonlocal projectors to a uniform radial grid of dG=0.02 with 432 points.
    5S    l: 0   occupation:  2.0   eigenvalue: -0.982388
    5P    l: 1   occupation:  6.0   eigenvalue: -0.496786
    6S    l: 0   occupation:  1.0   eigenvalue: -0.076670
  Transforming atomic orbitals to a uniform radial grid of dG=0.02 with 432 points.
  Core radius for overlap checks: 2.06 bohrs.
  Reading pulay file /home/gridsan/aligho/DFT/build-Nov24/pseudopotentials/SG15/Cs_ONCV_PBE.pulay ... using dE_dnG = -1.008762e-04 computed for Ecut = 20.

Initialized 1 species with 1 total atoms.

Folded 1 k-points by 12x12x1 to 144 k-points.

---------- Setting up k-points, bands, fillings ----------
Reduced to 19 k-points under symmetry. 
Computing the number of bands and number of electrons
Calculating initial fillings.
nElectrons:   9.000000   nBands: 6   nStates: 38

----- Setting up reduced wavefunction bases (one per k-point) -----
average nbasis = 52924.021 , ideal nbasis = 52918.836

---------- Setting up coulomb interaction ----------
Initialized slab truncation along lattice direction 001

---------- Setting up 2D ewald sum ----------
Optimum gaussian width for ewald sums = 10.498040 bohr.
Real space sums over 289 unit cells with max indices [  8  8  0  ]
Reciprocal space sums over 81 terms with max indices [  4  4  0  ]

---------- Allocating electronic variables ----------
Initializing wave functions:  linear combination of atomic orbitals
Note: number of bands (6) exceeds available atomic orbitals (5)
Cs pseudo-atom occupations:   s ( 2 1 )  p ( 6 )
[d-4-2-2:97392] 18 more processes have sent help message help-mpi-common-cuda.txt / dlopen failed
[d-4-2-2:97392] Set MCA parameter "orte_base_help_aggregate" to 0 to see all help / error messages
[d-4-2-2:97392] 18 more processes have sent help message help-mpi-btl-openib-cpc-base.txt / no cpcs for port
	FillingsUpdate:  mu: -0.077348092  nElectrons: 9.000000  magneticMoment: [ Abs: 0.32000  Tot: -0.32000 ]
LCAOMinimize: Iter:   0  F: -20.1680196576750959  |grad|_K:  6.992e-06  alpha:  1.000e+00
	FillingsUpdate:  mu: -0.077346657  nElectrons: 9.000000  magneticMoment: [ Abs: 0.32000  Tot: -0.32000 ]
LCAOMinimize: Iter:   1  F: -20.1680196907579159  |grad|_K:  3.416e-08  alpha:  9.894e-01  linmin: -2.243e-03  cgtest:  3.479e-01  t[s]:     15.30
LCAOMinimize: Encountered beta<0, resetting CG.
	FillingsUpdate:  mu: -0.077346657  nElectrons: 9.000000  magneticMoment: [ Abs: 0.32000  Tot: -0.32000 ]
LCAOMinimize: Iter:   2  F: -20.1680196907586087  |grad|_K:  9.862e-09  alpha:  7.116e-01  linmin: -5.991e-03  cgtest:  1.000e+00  t[s]:     19.40
LCAOMinimize: Encountered beta<0, resetting CG.
LCAOMinimize: Converged (|Delta F|<1.000000e-06 for 2 iters).


---- Citations for features of the code used in this run ----

   Software package:
      R. Sundararaman, K. Letchworth-Weaver, K.A. Schwarz, D. Gunceler, Y. Ozhabes and T.A. Arias, 'JDFTx: software for joint density-functional theory', SoftwareX 6, 278 (2017)

   gga-PBE exchange-correlation functional:
      J.P. Perdew, K. Burke and M. Ernzerhof, Phys. Rev. Lett. 77, 3865 (1996)

   Pseudopotentials:
      M Schlipf and F Gygi, Comput. Phys. Commun. 196, 36 (2015)

   Truncated Coulomb potentials:
      R. Sundararaman and T.A. Arias, Phys. Rev. B 87, 165122 (2013)

This list may not be complete. Please suggest additional citations or
report any other bugs at https://github.com/shankar1729/jdftx/issues

Initialization completed successfully at t[s]:     19.68


-------- Electronic minimization -----------
Will mix electronic density at each iteration.
	FillingsUpdate:  mu: -0.077346657  nElectrons: 9.000000  magneticMoment: [ Abs: 0.32000  Tot: -0.32000 ]
	FillingsUpdate:  mu: -0.077551237  nElectrons: 9.000000  magneticMoment: [ Abs: 0.32000  Tot: -0.32000 ]
SCF: Cycle:  0   F: -20.168249096664063   dF: -2.294e-04   |Residual|: 1.070e-03   |deigs|: 1.750e-01  t[s]:     27.98
	FillingsUpdate:  mu: -0.077602294  nElectrons: 9.000000  magneticMoment: [ Abs: 0.32158  Tot: -0.32000 ]
SCF: Cycle:  1   F: -20.168257456698825   dF: -8.360e-06   |Residual|: 7.972e-04   |deigs|: 4.408e-03  t[s]:     34.55
	FillingsUpdate:  mu: -0.077661710  nElectrons: 9.000000  magneticMoment: [ Abs: 0.32160  Tot: -0.32000 ]
SCF: Cycle:  2   F: -20.168260257512372   dF: -2.801e-06   |Residual|: 6.655e-04   |deigs|: 8.299e-04  t[s]:     41.19
	FillingsUpdate:  mu: -0.077795009  nElectrons: 9.000000  magneticMoment: [ Abs: 0.32285  Tot: -0.32000 ]
SCF: Cycle:  3   F: -20.168263568114078   dF: -3.311e-06   |Residual|: 4.679e-04   |deigs|: 7.859e-04  t[s]:     47.94
	FillingsUpdate:  mu: -0.077914438  nElectrons: 9.000000  magneticMoment: [ Abs: 0.32249  Tot: -0.32000 ]
SCF: Cycle:  4   F: -20.168266839409359   dF: -3.271e-06   |Residual|: 3.132e-04   |deigs|: 5.499e-04  t[s]:     54.79
	FillingsUpdate:  mu: -0.078011875  nElectrons: 9.000000  magneticMoment: [ Abs: 0.32250  Tot: -0.32000 ]
SCF: Cycle:  5   F: -20.168269028440541   dF: -2.189e-06   |Residual|: 2.007e-04   |deigs|: 5.970e-04  t[s]:     61.77
	FillingsUpdate:  mu: -0.078001298  nElectrons: 9.000000  magneticMoment: [ Abs: 0.32255  Tot: -0.32000 ]
SCF: Cycle:  6   F: -20.168269949538406   dF: -9.211e-07   |Residual|: 1.407e-04   |deigs|: 5.281e-04  t[s]:     68.93
	FillingsUpdate:  mu: -0.077984250  nElectrons: 9.000000  magneticMoment: [ Abs: 0.32231  Tot: -0.32000 ]
SCF: Cycle:  7   F: -20.168270493472619   dF: -5.439e-07   |Residual|: 1.043e-04   |deigs|: 2.862e-04  t[s]:     76.15
	FillingsUpdate:  mu: -0.077950674  nElectrons: 9.000000  magneticMoment: [ Abs: 0.32220  Tot: -0.32000 ]
SCF: Cycle:  8   F: -20.168270823882146   dF: -3.304e-07   |Residual|: 8.321e-05   |deigs|: 2.729e-04  t[s]:     83.54
	FillingsUpdate:  mu: -0.077891152  nElectrons: 9.000000  magneticMoment: [ Abs: 0.32213  Tot: -0.32000 ]
SCF: Cycle:  9   F: -20.168270897591253   dF: -7.371e-08   |Residual|: 6.894e-05   |deigs|: 5.232e-04  t[s]:     91.00
	FillingsUpdate:  mu: -0.077844472  nElectrons: 9.000000  magneticMoment: [ Abs: 0.32234  Tot: -0.32000 ]
SCF: Cycle: 10   F: -20.168270929265521   dF: -3.167e-08   |Residual|: 6.116e-05   |deigs|: 2.976e-04  t[s]:     98.53
	FillingsUpdate:  mu: -0.077799490  nElectrons: 9.000000  magneticMoment: [ Abs: 0.32242  Tot: -0.32000 ]
SCF: Cycle: 11   F: -20.168270911315627   dF: +1.795e-08   |Residual|: 5.804e-05   |deigs|: 1.996e-04  t[s]:    106.07
	FillingsUpdate:  mu: -0.077727898  nElectrons: 9.000000  magneticMoment: [ Abs: 0.32244  Tot: -0.32000 ]
SCF: Cycle: 12   F: -20.168270606310269   dF: +3.050e-07   |Residual|: 5.114e-05   |deigs|: 1.999e-04  t[s]:    113.64
	FillingsUpdate:  mu: -0.077663404  nElectrons: 9.000000  magneticMoment: [ Abs: 0.32252  Tot: -0.32000 ]
SCF: Cycle: 13   F: -20.168270757584143   dF: -1.513e-07   |Residual|: 4.628e-05   |deigs|: 2.720e-04  t[s]:    121.24
	FillingsUpdate:  mu: -0.077616089  nElectrons: 9.000000  magneticMoment: [ Abs: 0.32251  Tot: -0.32000 ]
SCF: Cycle: 14   F: -20.168270907151339   dF: -1.496e-07   |Residual|: 4.100e-05   |deigs|: 2.361e-04  t[s]:    128.81
	FillingsUpdate:  mu: -0.077562981  nElectrons: 9.000000  magneticMoment: [ Abs: 0.32232  Tot: -0.32000 ]
SCF: Cycle: 15   F: -20.168270929094970   dF: -2.194e-08   |Residual|: 3.768e-05   |deigs|: 1.353e-04  t[s]:    136.31
	FillingsUpdate:  mu: -0.077511273  nElectrons: 9.000000  magneticMoment: [ Abs: 0.32224  Tot: -0.32000 ]
SCF: Cycle: 16   F: -20.168270855127620   dF: +7.397e-08   |Residual|: 3.438e-05   |deigs|: 9.443e-05  t[s]:    143.91
	FillingsUpdate:  mu: -0.077497653  nElectrons: 9.000000  magneticMoment: [ Abs: 0.32216  Tot: -0.32000 ]
SCF: Cycle: 17   F: -20.168271034363222   dF: -1.792e-07   |Residual|: 2.612e-05   |deigs|: 4.889e-05  t[s]:    151.52
	FillingsUpdate:  mu: -0.077486399  nElectrons: 9.000000  magneticMoment: [ Abs: 0.32210  Tot: -0.32000 ]
SCF: Cycle: 18   F: -20.168271023709625   dF: +1.065e-08   |Residual|: 2.074e-05   |deigs|: 3.224e-05  t[s]:    159.13
	FillingsUpdate:  mu: -0.077473955  nElectrons: 9.000000  magneticMoment: [ Abs: 0.32210  Tot: -0.32000 ]
SCF: Cycle: 19   F: -20.168271101280993   dF: -7.757e-08   |Residual|: 1.661e-05   |deigs|: 2.041e-05  t[s]:    166.69
	FillingsUpdate:  mu: -0.077466196  nElectrons: 9.000000  magneticMoment: [ Abs: 0.32210  Tot: -0.32000 ]
SCF: Cycle: 20   F: -20.168271135882907   dF: -3.460e-08   |Residual|: 1.207e-05   |deigs|: 1.477e-05  t[s]:    174.22
	FillingsUpdate:  mu: -0.077468376  nElectrons: 9.000000  magneticMoment: [ Abs: 0.32211  Tot: -0.32000 ]
SCF: Cycle: 21   F: -20.168271174457132   dF: -3.857e-08   |Residual|: 8.701e-06   |deigs|: 1.369e-05  t[s]:    181.73
	FillingsUpdate:  mu: -0.077468226  nElectrons: 9.000000  magneticMoment: [ Abs: 0.32212  Tot: -0.32000 ]
SCF: Cycle: 22   F: -20.168271169953009   dF: +4.504e-09   |Residual|: 6.222e-06   |deigs|: 1.142e-05  t[s]:    189.29
	FillingsUpdate:  mu: -0.077468756  nElectrons: 9.000000  magneticMoment: [ Abs: 0.32214  Tot: -0.32000 ]
SCF: Cycle: 23   F: -20.168271179287476   dF: -9.334e-09   |Residual|: 4.286e-06   |deigs|: 1.299e-05  t[s]:    196.87
	FillingsUpdate:  mu: -0.077469906  nElectrons: 9.000000  magneticMoment: [ Abs: 0.32214  Tot: -0.32000 ]
SCF: Cycle: 24   F: -20.168271178939097   dF: +3.484e-10   |Residual|: 3.296e-06   |deigs|: 1.707e-05  t[s]:    204.11
	FillingsUpdate:  mu: -0.077470504  nElectrons: 9.000000  magneticMoment: [ Abs: 0.32213  Tot: -0.32000 ]
SCF: Cycle: 25   F: -20.168271178202129   dF: +7.370e-10   |Residual|: 2.113e-06   |deigs|: 2.025e-05  t[s]:    211.70
	FillingsUpdate:  mu: -0.077471693  nElectrons: 9.000000  magneticMoment: [ Abs: 0.32212  Tot: -0.32000 ]
SCF: Cycle: 26   F: -20.168271182132468   dF: -3.930e-09   |Residual|: 1.061e-06   |deigs|: 2.444e-05  t[s]:    219.19
	FillingsUpdate:  mu: -0.077471828  nElectrons: 9.000000  magneticMoment: [ Abs: 0.32211  Tot: -0.32000 ]
SCF: Cycle: 27   F: -20.168271182277543   dF: -1.451e-10   |Residual|: 8.104e-07   |deigs|: 2.609e-05  t[s]:    225.83
SCF: Converged (|Delta E|<1.000000e-08 for 2 iters).


# Ionic positions in lattice coordinates:
ion Cs   0.000000000000000   0.000000000000000   0.000000000000000 0

# Forces in Lattice coordinates:
force Cs   0.000000000000000   0.000000000000000   0.000000000000000 0

# Energy components:
   Eewald =       -9.0240130501663280
       EH =        7.0057893206566302
     Eloc =      -23.5899848410017015
      Enl =        3.4365791085827602
   Epulay =        0.0000000422266766
      Exc =       -3.1056617423496622
       KE =        5.1090211248439026
-------------------------------------
     Etot =      -20.1682700372077228
       TS =        0.0000011450698202
-------------------------------------
        F =      -20.1682711822775431

IonicMinimize: Iter:   0  F: -20.168271182277543  |grad|_K:  0.000e+00  t[s]:    226.25
IonicMinimize: Converged (|grad|_K<1.000000e-04).

#--- Lowdin population analysis ---
# oxidation-state Cs +0.005
# magnetic-moments Cs -0.319

End date and time: Sun Feb  6 13:23:02 2022  (Duration: 0-0:03:46.32)
Done!
