The alkali metal is Cs
scale=2
magnetization=0.62
--------------------------------------------------------------------------
The library attempted to open the following supporting CUDA libraries,
but each of them failed.  CUDA-aware support is disabled.
libcuda.so.1: cannot open shared object file: No such file or directory
libcuda.dylib: cannot open shared object file: No such file or directory
/usr/lib64/libcuda.so.1: cannot open shared object file: No such file or directory
/usr/lib64/libcuda.dylib: cannot open shared object file: No such file or directory
If you are not interested in CUDA-aware support, then run with
--mca opal_warn_on_missing_libcuda 0 to suppress this message.  If you are interested
in CUDA-aware support, then try setting LD_LIBRARY_PATH to the location
of libcuda.so.1 to get passed this issue.
--------------------------------------------------------------------------
--------------------------------------------------------------------------
No OpenFabrics connection schemes reported that they were able to be
used on a specific port.  As such, the openib BTL (OpenFabrics
support) will be disabled for this port.

  Local host:           d-3-15-1
  Local device:         mlx5_1
  Local port:           1
  CPCs attempted:       rdmacm, udcm
--------------------------------------------------------------------------

*************** JDFTx 1.6.0 (git hash 42ebbcc2) ***************

Start date and time: Sun Feb  6 13:29:38 2022
Executable jdftx with command-line: -i Alkali.in
Running on hosts (process indices):  d-3-15-1 (0-18)
Divided in process groups (process indices):  0 (0)  1 (1)  2 (2)  3 (3)  4 (4)  5 (5)  6 (6)  7 (7)  8 (8)  9 (9)  10 (10)  11 (11)  12 (12)  13 (13)  14 (14)  15 (15)  16 (16)  17 (17)  18 (18)
Resource initialization completed at t[s]:      0.00
Run totals: 19 processes, 48 threads, 0 GPUs


Input parsed successfully to the following command list (including defaults):

basis kpoint-dependent
coords-type Lattice
core-overlap-check vector
coulomb-interaction Slab 001
davidson-band-ratio 1.1
dump End None
dump-name $INPUT.$VAR
elec-cutoff 20
elec-eigen-algo Davidson
elec-ex-corr gga-PBE
elec-initial-magnetization 0.620000 yes
elec-smearing Fermi 1e-05
electronic-minimize  \
	dirUpdateScheme      FletcherReeves \
	linminMethod         DirUpdateRecommended \
	nIterations          100 \
	history              15 \
	knormThreshold       0 \
	energyDiffThreshold  1e-08 \
	nEnergyDiff          2 \
	alphaTstart          1 \
	alphaTmin            1e-10 \
	updateTestStepSize   yes \
	alphaTreduceFactor   0.1 \
	alphaTincreaseFactor 3 \
	nAlphaAdjustMax      3 \
	wolfeEnergy          0.0001 \
	wolfeGradient        0.9 \
	fdTest               no
electronic-scf  \
	nIterations	10000 \
	energyDiffThreshold	1e-08 \
	residualThreshold	1e-07 \
	mixFraction	0.5 \
	qMetric	0.8 \
	history	10 \
	nEigSteps	2 \
	eigDiffThreshold	1e-08 \
	mixedVariable	Density \
	qKerker	0.8 \
	qKappa	-1 \
	verbose	no \
	mixFractionMag	1.5
exchange-regularization WignerSeitzTruncated
fluid None
fluid-ex-corr (null) lda-PZ
fluid-gummel-loop 10 1.000000e-05
fluid-minimize  \
	dirUpdateScheme      PolakRibiere \
	linminMethod         DirUpdateRecommended \
	nIterations          100 \
	history              15 \
	knormThreshold       0 \
	energyDiffThreshold  0 \
	nEnergyDiff          2 \
	alphaTstart          1 \
	alphaTmin            1e-10 \
	updateTestStepSize   yes \
	alphaTreduceFactor   0.1 \
	alphaTincreaseFactor 3 \
	nAlphaAdjustMax      3 \
	wolfeEnergy          0.0001 \
	wolfeGradient        0.9 \
	fdTest               no
fluid-solvent H2O 55.338 ScalarEOS \
	epsBulk 78.4 \
	pMol 0.92466 \
	epsInf 1.77 \
	Pvap 1.06736e-10 \
	sigmaBulk 4.62e-05 \
	Rvdw 2.61727 \
	Res 1.42 \
	tauNuc 343133 \
	poleEl 15 7 1
forces-output-coords Positions
ion Cs   0.000000000000000   0.000000000000000   0.000000000000000 0
ion-species SG15/$ID_ONCV_PBE.upf
ion-width 0
ionic-minimize  \
	dirUpdateScheme      L-BFGS \
	linminMethod         DirUpdateRecommended \
	nIterations          0 \
	history              15 \
	knormThreshold       0.0001 \
	energyDiffThreshold  1e-06 \
	nEnergyDiff          2 \
	alphaTstart          1 \
	alphaTmin            1e-10 \
	updateTestStepSize   yes \
	alphaTreduceFactor   0.1 \
	alphaTincreaseFactor 3 \
	nAlphaAdjustMax      3 \
	wolfeEnergy          0.0001 \
	wolfeGradient        0.9 \
	fdTest               no
kpoint   0.000000000000   0.000000000000   0.000000000000  1.00000000000000
kpoint-folding 12 12 1 
latt-move-scale 1 1 1
latt-scale 2 2 1 
lattice  \
	   4.727486978767153   -2.363743489383575    0.000000000000000  \
	  -0.000000000000000    4.094123819672498    0.000000000000000  \
	   0.000000000000000    0.000000000000000   40.000000000000000 
lattice-minimize  \
	dirUpdateScheme      L-BFGS \
	linminMethod         DirUpdateRecommended \
	nIterations          0 \
	history              15 \
	knormThreshold       0 \
	energyDiffThreshold  1e-06 \
	nEnergyDiff          2 \
	alphaTstart          1 \
	alphaTmin            1e-10 \
	updateTestStepSize   yes \
	alphaTreduceFactor   0.1 \
	alphaTincreaseFactor 3 \
	nAlphaAdjustMax      3 \
	wolfeEnergy          0.0001 \
	wolfeGradient        0.9 \
	fdTest               no
lcao-params -1 1e-06 1e-05
pcm-variant GLSSA13
spintype z-spin
subspace-rotation-factor 1 yes
symmetries automatic
symmetry-threshold 0.0001



---------- Setting up symmetries ----------

Found 24 point-group symmetries of the bravais lattice
Found 24 space-group symmetries with basis
Applied RMS atom displacement 0 bohrs to make symmetries exact.

---------- Initializing the Grid ----------
R = 
[      9.45497     -4.72749            0  ]
[            0      8.18825            0  ]
[            0            0           40  ]
unit cell volume = 3096.79
G =
[   0.664538   0.383671         -0  ]
[          0   0.767342         -0  ]
[         -0         -0    0.15708  ]
Minimum fftbox size, Smin = [  40  40  164  ]
Chosen fftbox size, S = [  40  40  168  ]

---------- Exchange Correlation functional ----------
Initalized PBE GGA exchange.
Initalized PBE GGA correlation.

---------- Setting up pseudopotentials ----------
Width of ionic core gaussian charges (only for fluid interactions / plotting) set to 0

Reading pseudopotential file '/home/gridsan/aligho/DFT/build-Nov24/pseudopotentials/SG15/Cs_ONCV_PBE.upf':
  'Cs' pseudopotential, 'PBE' functional
  Generated using ONCVPSP code by D. R. Hamann
  Author: Martin Schlipf and Francois Gygi  Date: 150915.
  9 valence electrons, 3 orbitals, 6 projectors, 2414 radial grid points, with lMax = 2
  Transforming local potential to a uniform radial grid of dG=0.02 with 1489 points.
  Transforming nonlocal projectors to a uniform radial grid of dG=0.02 with 432 points.
    5S    l: 0   occupation:  2.0   eigenvalue: -0.982388
    5P    l: 1   occupation:  6.0   eigenvalue: -0.496786
    6S    l: 0   occupation:  1.0   eigenvalue: -0.076670
  Transforming atomic orbitals to a uniform radial grid of dG=0.02 with 432 points.
  Core radius for overlap checks: 2.06 bohrs.
  Reading pulay file /home/gridsan/aligho/DFT/build-Nov24/pseudopotentials/SG15/Cs_ONCV_PBE.pulay ... using dE_dnG = -1.008762e-04 computed for Ecut = 20.

Initialized 1 species with 1 total atoms.

Folded 1 k-points by 12x12x1 to 144 k-points.

---------- Setting up k-points, bands, fillings ----------
Reduced to 19 k-points under symmetry. 
Computing the number of bands and number of electrons
Calculating initial fillings.
nElectrons:   9.000000   nBands: 6   nStates: 38

----- Setting up reduced wavefunction bases (one per k-point) -----
average nbasis = 13230.521 , ideal nbasis = 13229.709

---------- Setting up coulomb interaction ----------
Initialized slab truncation along lattice direction 001

---------- Setting up 2D ewald sum ----------
Optimum gaussian width for ewald sums = 5.249020 bohr.
Real space sums over 289 unit cells with max indices [  8  8  0  ]
Reciprocal space sums over 81 terms with max indices [  4  4  0  ]

---------- Allocating electronic variables ----------
Initializing wave functions:  linear combination of atomic orbitals
Note: number of bands (6) exceeds available atomic orbitals (5)
Cs pseudo-atom occupations:   s ( 2 1 )  p ( 6 )
	FillingsUpdate:  mu: -0.094079638  nElectrons: 9.000000  magneticMoment: [ Abs: 0.62000  Tot: +0.62000 ]
LCAOMinimize: Iter:   0  F: -20.1735056632934828  |grad|_K:  2.628e-05  alpha:  1.000e+00
	FillingsUpdate:  mu: -0.094067763  nElectrons: 9.000000  magneticMoment: [ Abs: 0.62000  Tot: +0.62000 ]
LCAOMinimize: Iter:   1  F: -20.1735061258788981  |grad|_K:  2.666e-07  alpha:  9.797e-01  linmin: -2.548e-02  cgtest:  2.263e-01  t[s]:      4.55
LCAOMinimize: Encountered beta<0, resetting CG.
[d-3-15-1:11710] 18 more processes have sent help message help-mpi-common-cuda.txt / dlopen failed
[d-3-15-1:11710] Set MCA parameter "orte_base_help_aggregate" to 0 to see all help / error messages
[d-3-15-1:11710] 18 more processes have sent help message help-mpi-btl-openib-cpc-base.txt / no cpcs for port
	FillingsUpdate:  mu: -0.094067852  nElectrons: 9.000000  magneticMoment: [ Abs: 0.62000  Tot: +0.62000 ]
LCAOMinimize: Iter:   2  F: -20.1735061259268313  |grad|_K:  3.727e-09  alpha:  9.872e-01  linmin: -1.222e-01  cgtest:  9.121e-01  t[s]:      5.75
LCAOMinimize: Encountered beta<0, resetting CG.
LCAOMinimize: Converged (|Delta F|<1.000000e-06 for 2 iters).


---- Citations for features of the code used in this run ----

   Software package:
      R. Sundararaman, K. Letchworth-Weaver, K.A. Schwarz, D. Gunceler, Y. Ozhabes and T.A. Arias, 'JDFTx: software for joint density-functional theory', SoftwareX 6, 278 (2017)

   gga-PBE exchange-correlation functional:
      J.P. Perdew, K. Burke and M. Ernzerhof, Phys. Rev. Lett. 77, 3865 (1996)

   Pseudopotentials:
      M Schlipf and F Gygi, Comput. Phys. Commun. 196, 36 (2015)

   Truncated Coulomb potentials:
      R. Sundararaman and T.A. Arias, Phys. Rev. B 87, 165122 (2013)

This list may not be complete. Please suggest additional citations or
report any other bugs at https://github.com/shankar1729/jdftx/issues

Initialization completed successfully at t[s]:      5.84


-------- Electronic minimization -----------
Will mix electronic density at each iteration.
	FillingsUpdate:  mu: -0.094067852  nElectrons: 9.000000  magneticMoment: [ Abs: 0.62000  Tot: +0.62000 ]
	FillingsUpdate:  mu: -0.108054583  nElectrons: 9.000000  magneticMoment: [ Abs: 0.62000  Tot: +0.62000 ]
SCF: Cycle:  0   F: -20.182668482234906   dF: -9.162e-03   |Residual|: 1.642e-02   |deigs|: 1.880e-01  t[s]:      8.25
	FillingsUpdate:  mu: -0.108519969  nElectrons: 9.000000  magneticMoment: [ Abs: 0.62000  Tot: +0.62000 ]
SCF: Cycle:  1   F: -20.183481076270692   dF: -8.126e-04   |Residual|: 1.255e-02   |deigs|: 5.509e-03  t[s]:     10.05
	FillingsUpdate:  mu: -0.105738874  nElectrons: 9.000000  magneticMoment: [ Abs: 0.62719  Tot: +0.62000 ]
SCF: Cycle:  2   F: -20.183878820696673   dF: -3.977e-04   |Residual|: 6.879e-03   |deigs|: 2.183e-03  t[s]:     11.90
	FillingsUpdate:  mu: -0.103360796  nElectrons: 9.000000  magneticMoment: [ Abs: 0.62000  Tot: +0.62000 ]
SCF: Cycle:  3   F: -20.184069988410137   dF: -1.912e-04   |Residual|: 4.349e-03   |deigs|: 3.116e-03  t[s]:     13.81
	FillingsUpdate:  mu: -0.100496892  nElectrons: 9.000000  magneticMoment: [ Abs: 0.62002  Tot: +0.62000 ]
SCF: Cycle:  4   F: -20.184160742660357   dF: -9.075e-05   |Residual|: 3.181e-03   |deigs|: 3.235e-03  t[s]:     15.75
	FillingsUpdate:  mu: -0.097581352  nElectrons: 9.000000  magneticMoment: [ Abs: 0.62442  Tot: +0.62000 ]
SCF: Cycle:  5   F: -20.184205647513895   dF: -4.490e-05   |Residual|: 2.718e-03   |deigs|: 3.635e-03  t[s]:     17.67
	FillingsUpdate:  mu: -0.094487620  nElectrons: 9.000000  magneticMoment: [ Abs: 0.63413  Tot: +0.62000 ]
SCF: Cycle:  6   F: -20.184205513520748   dF: +1.340e-07   |Residual|: 1.933e-03   |deigs|: 3.699e-03  t[s]:     19.60
	FillingsUpdate:  mu: -0.091819631  nElectrons: 9.000000  magneticMoment: [ Abs: 0.63305  Tot: +0.62000 ]
SCF: Cycle:  7   F: -20.184269108482546   dF: -6.359e-05   |Residual|: 1.595e-03   |deigs|: 3.008e-03  t[s]:     21.57
	FillingsUpdate:  mu: -0.091838570  nElectrons: 9.000000  magneticMoment: [ Abs: 0.62219  Tot: +0.62000 ]
SCF: Cycle:  8   F: -20.184299585802425   dF: -3.048e-05   |Residual|: 1.377e-03   |deigs|: 5.045e-04  t[s]:     23.58
	FillingsUpdate:  mu: -0.089580595  nElectrons: 9.000000  magneticMoment: [ Abs: 0.62425  Tot: +0.62000 ]
SCF: Cycle:  9   F: -20.184289519616090   dF: +1.007e-05   |Residual|: 1.081e-03   |deigs|: 2.397e-03  t[s]:     25.59
	FillingsUpdate:  mu: -0.087551203  nElectrons: 9.000000  magneticMoment: [ Abs: 0.62703  Tot: +0.62000 ]
SCF: Cycle: 10   F: -20.184286941560618   dF: +2.578e-06   |Residual|: 9.038e-04   |deigs|: 2.172e-03  t[s]:     27.63
	FillingsUpdate:  mu: -0.086479113  nElectrons: 9.000000  magneticMoment: [ Abs: 0.62619  Tot: +0.62000 ]
SCF: Cycle: 11   F: -20.184308630526591   dF: -2.169e-05   |Residual|: 8.275e-04   |deigs|: 1.240e-03  t[s]:     29.66
	FillingsUpdate:  mu: -0.084817027  nElectrons: 9.000000  magneticMoment: [ Abs: 0.62810  Tot: +0.62000 ]
SCF: Cycle: 12   F: -20.184329797491440   dF: -2.117e-05   |Residual|: 7.523e-04   |deigs|: 1.725e-03  t[s]:     31.67
	FillingsUpdate:  mu: -0.082415738  nElectrons: 9.000000  magneticMoment: [ Abs: 0.62803  Tot: +0.62000 ]
SCF: Cycle: 13   F: -20.184342763568381   dF: -1.297e-05   |Residual|: 7.039e-04   |deigs|: 2.482e-03  t[s]:     33.65
	FillingsUpdate:  mu: -0.080503367  nElectrons: 9.000000  magneticMoment: [ Abs: 0.62405  Tot: +0.62000 ]
SCF: Cycle: 14   F: -20.184351697930058   dF: -8.934e-06   |Residual|: 6.369e-04   |deigs|: 2.007e-03  t[s]:     35.68
	FillingsUpdate:  mu: -0.079130829  nElectrons: 9.000000  magneticMoment: [ Abs: 0.62142  Tot: +0.62000 ]
SCF: Cycle: 15   F: -20.184360356329659   dF: -8.658e-06   |Residual|: 4.523e-04   |deigs|: 1.751e-03  t[s]:     37.74
	FillingsUpdate:  mu: -0.078265483  nElectrons: 9.000000  magneticMoment: [ Abs: 0.62132  Tot: +0.62000 ]
SCF: Cycle: 16   F: -20.184364916859604   dF: -4.561e-06   |Residual|: 3.398e-04   |deigs|: 1.383e-03  t[s]:     39.76
	FillingsUpdate:  mu: -0.077949425  nElectrons: 9.000000  magneticMoment: [ Abs: 0.62081  Tot: +0.62000 ]
SCF: Cycle: 17   F: -20.184368015368072   dF: -3.099e-06   |Residual|: 2.456e-04   |deigs|: 7.183e-04  t[s]:     41.82
	FillingsUpdate:  mu: -0.078246594  nElectrons: 9.000000  magneticMoment: [ Abs: 0.62151  Tot: +0.62000 ]
SCF: Cycle: 18   F: -20.184368806386278   dF: -7.910e-07   |Residual|: 1.671e-04   |deigs|: 7.523e-04  t[s]:     43.89
	FillingsUpdate:  mu: -0.078235702  nElectrons: 9.000000  magneticMoment: [ Abs: 0.62076  Tot: +0.62000 ]
SCF: Cycle: 19   F: -20.184369865779221   dF: -1.059e-06   |Residual|: 7.345e-05   |deigs|: 4.957e-04  t[s]:     45.98
	FillingsUpdate:  mu: -0.078346888  nElectrons: 9.000000  magneticMoment: [ Abs: 0.62047  Tot: +0.62000 ]
SCF: Cycle: 20   F: -20.184370100908001   dF: -2.351e-07   |Residual|: 4.531e-05   |deigs|: 2.162e-04  t[s]:     48.01
	FillingsUpdate:  mu: -0.078302850  nElectrons: 9.000000  magneticMoment: [ Abs: 0.62052  Tot: +0.62000 ]
SCF: Cycle: 21   F: -20.184370241992983   dF: -1.411e-07   |Residual|: 2.901e-05   |deigs|: 1.398e-04  t[s]:     50.04
	FillingsUpdate:  mu: -0.078316492  nElectrons: 9.000000  magneticMoment: [ Abs: 0.62053  Tot: +0.62000 ]
SCF: Cycle: 22   F: -20.184370316898903   dF: -7.491e-08   |Residual|: 2.226e-05   |deigs|: 1.808e-04  t[s]:     52.10
	FillingsUpdate:  mu: -0.078337286  nElectrons: 9.000000  magneticMoment: [ Abs: 0.62051  Tot: +0.62000 ]
SCF: Cycle: 23   F: -20.184370351623784   dF: -3.472e-08   |Residual|: 1.689e-05   |deigs|: 2.245e-04  t[s]:     54.11
	FillingsUpdate:  mu: -0.078346837  nElectrons: 9.000000  magneticMoment: [ Abs: 0.62048  Tot: +0.62000 ]
SCF: Cycle: 24   F: -20.184370381828455   dF: -3.020e-08   |Residual|: 1.397e-05   |deigs|: 1.641e-04  t[s]:     56.24
	FillingsUpdate:  mu: -0.078339796  nElectrons: 9.000000  magneticMoment: [ Abs: 0.62046  Tot: +0.62000 ]
SCF: Cycle: 25   F: -20.184370396894405   dF: -1.507e-08   |Residual|: 1.259e-05   |deigs|: 2.114e-04  t[s]:     58.31
	FillingsUpdate:  mu: -0.078324349  nElectrons: 9.000000  magneticMoment: [ Abs: 0.62044  Tot: +0.62000 ]
SCF: Cycle: 26   F: -20.184370404950389   dF: -8.056e-09   |Residual|: 9.703e-06   |deigs|: 1.724e-04  t[s]:     60.41
	FillingsUpdate:  mu: -0.078320749  nElectrons: 9.000000  magneticMoment: [ Abs: 0.62037  Tot: +0.62000 ]
SCF: Cycle: 27   F: -20.184370411455635   dF: -6.505e-09   |Residual|: 7.542e-06   |deigs|: 1.971e-04  t[s]:     62.45
SCF: Converged (|Delta E|<1.000000e-08 for 2 iters).


# Ionic positions in lattice coordinates:
ion Cs   0.000000000000000   0.000000000000000   0.000000000000000 0

# Forces in Lattice coordinates:
force Cs   0.000000000000000  -0.000000000000000   0.000000000000000 0

# Energy components:
   Eewald =      -18.0480261003326561
       EH =       -1.7798988289933950
     Eloc =       -5.8007686272340351
      Enl =        3.4388201451205456
   Epulay =        0.0000000264484078
      Exc =       -3.1495027908019830
       KE =        5.1550065702461909
-------------------------------------
     Etot =      -20.1843696055469266
       TS =        0.0000008059087085
-------------------------------------
        F =      -20.1843704114556353

IonicMinimize: Iter:   0  F: -20.184370411455635  |grad|_K:  0.000e+00  t[s]:     62.57
IonicMinimize: Converged (|grad|_K<1.000000e-04).

#--- Lowdin population analysis ---
# oxidation-state Cs +0.099
# magnetic-moments Cs +0.529

End date and time: Sun Feb  6 13:30:41 2022  (Duration: 0-0:01:02.60)
Done!
scale=3
magnetization=0.62
--------------------------------------------------------------------------
The library attempted to open the following supporting CUDA libraries,
but each of them failed.  CUDA-aware support is disabled.
libcuda.so.1: cannot open shared object file: No such file or directory
libcuda.dylib: cannot open shared object file: No such file or directory
/usr/lib64/libcuda.so.1: cannot open shared object file: No such file or directory
/usr/lib64/libcuda.dylib: cannot open shared object file: No such file or directory
If you are not interested in CUDA-aware support, then run with
--mca opal_warn_on_missing_libcuda 0 to suppress this message.  If you are interested
in CUDA-aware support, then try setting LD_LIBRARY_PATH to the location
of libcuda.so.1 to get passed this issue.
--------------------------------------------------------------------------
--------------------------------------------------------------------------
No OpenFabrics connection schemes reported that they were able to be
used on a specific port.  As such, the openib BTL (OpenFabrics
support) will be disabled for this port.

  Local host:           d-3-15-1
  Local device:         mlx5_1
  Local port:           1
  CPCs attempted:       rdmacm, udcm
--------------------------------------------------------------------------

*************** JDFTx 1.6.0 (git hash 42ebbcc2) ***************

Start date and time: Sun Feb  6 13:30:42 2022
Executable jdftx with command-line: -i Alkali.in
Running on hosts (process indices):  d-3-15-1 (0-18)
Divided in process groups (process indices):  0 (0)  1 (1)  2 (2)  3 (3)  4 (4)  5 (5)  6 (6)  7 (7)  8 (8)  9 (9)  10 (10)  11 (11)  12 (12)  13 (13)  14 (14)  15 (15)  16 (16)  17 (17)  18 (18)
Resource initialization completed at t[s]:      0.00
Run totals: 19 processes, 48 threads, 0 GPUs


Input parsed successfully to the following command list (including defaults):

basis kpoint-dependent
coords-type Lattice
core-overlap-check vector
coulomb-interaction Slab 001
davidson-band-ratio 1.1
dump End None
dump-name $INPUT.$VAR
elec-cutoff 20
elec-eigen-algo Davidson
elec-ex-corr gga-PBE
elec-initial-magnetization 0.620000 yes
elec-smearing Fermi 1e-05
electronic-minimize  \
	dirUpdateScheme      FletcherReeves \
	linminMethod         DirUpdateRecommended \
	nIterations          100 \
	history              15 \
	knormThreshold       0 \
	energyDiffThreshold  1e-08 \
	nEnergyDiff          2 \
	alphaTstart          1 \
	alphaTmin            1e-10 \
	updateTestStepSize   yes \
	alphaTreduceFactor   0.1 \
	alphaTincreaseFactor 3 \
	nAlphaAdjustMax      3 \
	wolfeEnergy          0.0001 \
	wolfeGradient        0.9 \
	fdTest               no
electronic-scf  \
	nIterations	10000 \
	energyDiffThreshold	1e-08 \
	residualThreshold	1e-07 \
	mixFraction	0.5 \
	qMetric	0.8 \
	history	10 \
	nEigSteps	2 \
	eigDiffThreshold	1e-08 \
	mixedVariable	Density \
	qKerker	0.8 \
	qKappa	-1 \
	verbose	no \
	mixFractionMag	1.5
exchange-regularization WignerSeitzTruncated
fluid None
fluid-ex-corr (null) lda-PZ
fluid-gummel-loop 10 1.000000e-05
fluid-minimize  \
	dirUpdateScheme      PolakRibiere \
	linminMethod         DirUpdateRecommended \
	nIterations          100 \
	history              15 \
	knormThreshold       0 \
	energyDiffThreshold  0 \
	nEnergyDiff          2 \
	alphaTstart          1 \
	alphaTmin            1e-10 \
	updateTestStepSize   yes \
	alphaTreduceFactor   0.1 \
	alphaTincreaseFactor 3 \
	nAlphaAdjustMax      3 \
	wolfeEnergy          0.0001 \
	wolfeGradient        0.9 \
	fdTest               no
fluid-solvent H2O 55.338 ScalarEOS \
	epsBulk 78.4 \
	pMol 0.92466 \
	epsInf 1.77 \
	Pvap 1.06736e-10 \
	sigmaBulk 4.62e-05 \
	Rvdw 2.61727 \
	Res 1.42 \
	tauNuc 343133 \
	poleEl 15 7 1
forces-output-coords Positions
ion Cs   0.000000000000000   0.000000000000000   0.000000000000000 0
ion-species SG15/$ID_ONCV_PBE.upf
ion-width 0
ionic-minimize  \
	dirUpdateScheme      L-BFGS \
	linminMethod         DirUpdateRecommended \
	nIterations          0 \
	history              15 \
	knormThreshold       0.0001 \
	energyDiffThreshold  1e-06 \
	nEnergyDiff          2 \
	alphaTstart          1 \
	alphaTmin            1e-10 \
	updateTestStepSize   yes \
	alphaTreduceFactor   0.1 \
	alphaTincreaseFactor 3 \
	nAlphaAdjustMax      3 \
	wolfeEnergy          0.0001 \
	wolfeGradient        0.9 \
	fdTest               no
kpoint   0.000000000000   0.000000000000   0.000000000000  1.00000000000000
kpoint-folding 12 12 1 
latt-move-scale 1 1 1
latt-scale 3 3 1 
lattice  \
	   4.727486978767153   -2.363743489383575    0.000000000000000  \
	  -0.000000000000000    4.094123819672498    0.000000000000000  \
	   0.000000000000000    0.000000000000000   40.000000000000000 
lattice-minimize  \
	dirUpdateScheme      L-BFGS \
	linminMethod         DirUpdateRecommended \
	nIterations          0 \
	history              15 \
	knormThreshold       0 \
	energyDiffThreshold  1e-06 \
	nEnergyDiff          2 \
	alphaTstart          1 \
	alphaTmin            1e-10 \
	updateTestStepSize   yes \
	alphaTreduceFactor   0.1 \
	alphaTincreaseFactor 3 \
	nAlphaAdjustMax      3 \
	wolfeEnergy          0.0001 \
	wolfeGradient        0.9 \
	fdTest               no
lcao-params -1 1e-06 1e-05
pcm-variant GLSSA13
spintype z-spin
subspace-rotation-factor 1 yes
symmetries automatic
symmetry-threshold 0.0001



---------- Setting up symmetries ----------

Found 24 point-group symmetries of the bravais lattice
Found 24 space-group symmetries with basis
Applied RMS atom displacement 0 bohrs to make symmetries exact.

---------- Initializing the Grid ----------
R = 
[      14.1825     -7.09123            0  ]
[            0      12.2824            0  ]
[            0            0           40  ]
unit cell volume = 6967.77
G =
[   0.443025   0.255781         -0  ]
[          0   0.511561         -0  ]
[         -0         -0    0.15708  ]
Minimum fftbox size, Smin = [  60  60  164  ]
Chosen fftbox size, S = [  60  60  168  ]

---------- Exchange Correlation functional ----------
Initalized PBE GGA exchange.
Initalized PBE GGA correlation.

---------- Setting up pseudopotentials ----------
Width of ionic core gaussian charges (only for fluid interactions / plotting) set to 0

Reading pseudopotential file '/home/gridsan/aligho/DFT/build-Nov24/pseudopotentials/SG15/Cs_ONCV_PBE.upf':
  'Cs' pseudopotential, 'PBE' functional
  Generated using ONCVPSP code by D. R. Hamann
  Author: Martin Schlipf and Francois Gygi  Date: 150915.
  9 valence electrons, 3 orbitals, 6 projectors, 2414 radial grid points, with lMax = 2
  Transforming local potential to a uniform radial grid of dG=0.02 with 1489 points.
  Transforming nonlocal projectors to a uniform radial grid of dG=0.02 with 432 points.
    5S    l: 0   occupation:  2.0   eigenvalue: -0.982388
    5P    l: 1   occupation:  6.0   eigenvalue: -0.496786
    6S    l: 0   occupation:  1.0   eigenvalue: -0.076670
  Transforming atomic orbitals to a uniform radial grid of dG=0.02 with 432 points.
  Core radius for overlap checks: 2.06 bohrs.
  Reading pulay file /home/gridsan/aligho/DFT/build-Nov24/pseudopotentials/SG15/Cs_ONCV_PBE.pulay ... using dE_dnG = -1.008762e-04 computed for Ecut = 20.

Initialized 1 species with 1 total atoms.

Folded 1 k-points by 12x12x1 to 144 k-points.

---------- Setting up k-points, bands, fillings ----------
Reduced to 19 k-points under symmetry. 
Computing the number of bands and number of electrons
Calculating initial fillings.
nElectrons:   9.000000   nBands: 6   nStates: 38

----- Setting up reduced wavefunction bases (one per k-point) -----
average nbasis = 29766.104 , ideal nbasis = 29766.845

---------- Setting up coulomb interaction ----------
Initialized slab truncation along lattice direction 001

---------- Setting up 2D ewald sum ----------
Optimum gaussian width for ewald sums = 7.873530 bohr.
Real space sums over 289 unit cells with max indices [  8  8  0  ]
Reciprocal space sums over 81 terms with max indices [  4  4  0  ]

---------- Allocating electronic variables ----------
Initializing wave functions:  linear combination of atomic orbitals
Note: number of bands (6) exceeds available atomic orbitals (5)
Cs pseudo-atom occupations:   s ( 2 1 )  p ( 6 )
[d-3-15-1:88891] 18 more processes have sent help message help-mpi-common-cuda.txt / dlopen failed
[d-3-15-1:88891] Set MCA parameter "orte_base_help_aggregate" to 0 to see all help / error messages
[d-3-15-1:88891] 18 more processes have sent help message help-mpi-btl-openib-cpc-base.txt / no cpcs for port
	FillingsUpdate:  mu: -0.081739162  nElectrons: 9.000000  magneticMoment: [ Abs: 0.62000  Tot: +0.62000 ]
LCAOMinimize: Iter:   0  F: -20.1730560392540923  |grad|_K:  1.479e-05  alpha:  1.000e+00
	FillingsUpdate:  mu: -0.081736227  nElectrons: 9.000000  magneticMoment: [ Abs: 0.62000  Tot: +0.62000 ]
LCAOMinimize: Iter:   1  F: -20.1730561872712109  |grad|_K:  8.815e-08  alpha:  9.889e-01  linmin: -2.182e-02  cgtest:  4.032e-01  t[s]:      8.76
LCAOMinimize: Encountered beta<0, resetting CG.
	FillingsUpdate:  mu: -0.081736231  nElectrons: 9.000000  magneticMoment: [ Abs: 0.62000  Tot: +0.62000 ]
LCAOMinimize: Iter:   2  F: -20.1730561872767034  |grad|_K:  1.033e-09  alpha:  1.012e+00  linmin:  7.833e-02  cgtest: -9.923e-01  t[s]:     11.10
LCAOMinimize: Converged (|Delta F|<1.000000e-06 for 2 iters).


---- Citations for features of the code used in this run ----

   Software package:
      R. Sundararaman, K. Letchworth-Weaver, K.A. Schwarz, D. Gunceler, Y. Ozhabes and T.A. Arias, 'JDFTx: software for joint density-functional theory', SoftwareX 6, 278 (2017)

   gga-PBE exchange-correlation functional:
      J.P. Perdew, K. Burke and M. Ernzerhof, Phys. Rev. Lett. 77, 3865 (1996)

   Pseudopotentials:
      M Schlipf and F Gygi, Comput. Phys. Commun. 196, 36 (2015)

   Truncated Coulomb potentials:
      R. Sundararaman and T.A. Arias, Phys. Rev. B 87, 165122 (2013)

This list may not be complete. Please suggest additional citations or
report any other bugs at https://github.com/shankar1729/jdftx/issues

Initialization completed successfully at t[s]:     11.26


-------- Electronic minimization -----------
Will mix electronic density at each iteration.
	FillingsUpdate:  mu: -0.081736231  nElectrons: 9.000000  magneticMoment: [ Abs: 0.62000  Tot: +0.62000 ]
	FillingsUpdate:  mu: -0.083816328  nElectrons: 9.000000  magneticMoment: [ Abs: 0.62000  Tot: +0.62000 ]
SCF: Cycle:  0   F: -20.175577610905691   dF: -2.521e-03   |Residual|: 5.289e-03   |deigs|: 1.735e-01  t[s]:     16.06
	FillingsUpdate:  mu: -0.084115683  nElectrons: 9.000000  magneticMoment: [ Abs: 0.62005  Tot: +0.62000 ]
SCF: Cycle:  1   F: -20.175755133466708   dF: -1.775e-04   |Residual|: 4.591e-03   |deigs|: 5.002e-03  t[s]:     19.78
	FillingsUpdate:  mu: -0.084321740  nElectrons: 9.000000  magneticMoment: [ Abs: 0.62161  Tot: +0.62000 ]
SCF: Cycle:  2   F: -20.175849609749619   dF: -9.448e-05   |Residual|: 3.363e-03   |deigs|: 2.220e-03  t[s]:     23.56
	FillingsUpdate:  mu: -0.084433609  nElectrons: 9.000000  magneticMoment: [ Abs: 0.62296  Tot: +0.62000 ]
SCF: Cycle:  3   F: -20.175904941350048   dF: -5.533e-05   |Residual|: 2.480e-03   |deigs|: 1.460e-03  t[s]:     27.37
	FillingsUpdate:  mu: -0.084148647  nElectrons: 9.000000  magneticMoment: [ Abs: 0.62047  Tot: +0.62000 ]
SCF: Cycle:  4   F: -20.175928101988440   dF: -2.316e-05   |Residual|: 1.205e-03   |deigs|: 1.197e-03  t[s]:     31.23
	FillingsUpdate:  mu: -0.084100570  nElectrons: 9.000000  magneticMoment: [ Abs: 0.62077  Tot: +0.62000 ]
SCF: Cycle:  5   F: -20.175943903557940   dF: -1.580e-05   |Residual|: 8.231e-04   |deigs|: 5.384e-04  t[s]:     35.17
	FillingsUpdate:  mu: -0.083957309  nElectrons: 9.000000  magneticMoment: [ Abs: 0.62102  Tot: +0.62000 ]
SCF: Cycle:  6   F: -20.175952783388123   dF: -8.880e-06   |Residual|: 6.301e-04   |deigs|: 6.478e-04  t[s]:     39.23
	FillingsUpdate:  mu: -0.083568833  nElectrons: 9.000000  magneticMoment: [ Abs: 0.62151  Tot: +0.62000 ]
SCF: Cycle:  7   F: -20.175954348587396   dF: -1.565e-06   |Residual|: 5.424e-04   |deigs|: 4.297e-04  t[s]:     43.33
	FillingsUpdate:  mu: -0.082837436  nElectrons: 9.000000  magneticMoment: [ Abs: 0.62355  Tot: +0.62000 ]
SCF: Cycle:  8   F: -20.175950724926885   dF: +3.624e-06   |Residual|: 4.113e-04   |deigs|: 7.962e-04  t[s]:     47.47
	FillingsUpdate:  mu: -0.082056362  nElectrons: 9.000000  magneticMoment: [ Abs: 0.62353  Tot: +0.62000 ]
SCF: Cycle:  9   F: -20.175950109001718   dF: +6.159e-07   |Residual|: 3.945e-04   |deigs|: 1.321e-03  t[s]:     51.70
	FillingsUpdate:  mu: -0.082050095  nElectrons: 9.000000  magneticMoment: [ Abs: 0.62185  Tot: +0.62000 ]
SCF: Cycle: 10   F: -20.175956311704208   dF: -6.203e-06   |Residual|: 2.872e-04   |deigs|: 3.710e-04  t[s]:     55.97
	FillingsUpdate:  mu: -0.081694857  nElectrons: 9.000000  magneticMoment: [ Abs: 0.62435  Tot: +0.62000 ]
SCF: Cycle: 11   F: -20.175958196401542   dF: -1.885e-06   |Residual|: 2.571e-04   |deigs|: 7.272e-04  t[s]:     60.28
	FillingsUpdate:  mu: -0.081142479  nElectrons: 9.000000  magneticMoment: [ Abs: 0.62423  Tot: +0.62000 ]
SCF: Cycle: 12   F: -20.175957556229726   dF: +6.402e-07   |Residual|: 2.522e-04   |deigs|: 6.218e-04  t[s]:     64.63
	FillingsUpdate:  mu: -0.080645822  nElectrons: 9.000000  magneticMoment: [ Abs: 0.62259  Tot: +0.62000 ]
SCF: Cycle: 13   F: -20.175956830477944   dF: +7.258e-07   |Residual|: 2.362e-04   |deigs|: 5.564e-04  t[s]:     68.91
	FillingsUpdate:  mu: -0.080527434  nElectrons: 9.000000  magneticMoment: [ Abs: 0.62295  Tot: +0.62000 ]
SCF: Cycle: 14   F: -20.175959358244324   dF: -2.528e-06   |Residual|: 2.149e-04   |deigs|: 3.866e-04  t[s]:     73.20
	FillingsUpdate:  mu: -0.080100871  nElectrons: 9.000000  magneticMoment: [ Abs: 0.62224  Tot: +0.62000 ]
SCF: Cycle: 15   F: -20.175962030682932   dF: -2.672e-06   |Residual|: 1.574e-04   |deigs|: 5.624e-04  t[s]:     77.46
	FillingsUpdate:  mu: -0.079672492  nElectrons: 9.000000  magneticMoment: [ Abs: 0.62131  Tot: +0.62000 ]
SCF: Cycle: 16   F: -20.175963125584154   dF: -1.095e-06   |Residual|: 1.097e-04   |deigs|: 4.869e-04  t[s]:     81.74
	FillingsUpdate:  mu: -0.079665062  nElectrons: 9.000000  magneticMoment: [ Abs: 0.62099  Tot: +0.62000 ]
SCF: Cycle: 17   F: -20.175963459460771   dF: -3.339e-07   |Residual|: 8.669e-05   |deigs|: 3.056e-04  t[s]:     86.00
	FillingsUpdate:  mu: -0.079718196  nElectrons: 9.000000  magneticMoment: [ Abs: 0.62096  Tot: +0.62000 ]
SCF: Cycle: 18   F: -20.175963739719030   dF: -2.803e-07   |Residual|: 5.809e-05   |deigs|: 3.501e-04  t[s]:     90.26
	FillingsUpdate:  mu: -0.079711881  nElectrons: 9.000000  magneticMoment: [ Abs: 0.62102  Tot: +0.62000 ]
SCF: Cycle: 19   F: -20.175963893754151   dF: -1.540e-07   |Residual|: 3.483e-05   |deigs|: 2.319e-04  t[s]:     94.50
	FillingsUpdate:  mu: -0.079711791  nElectrons: 9.000000  magneticMoment: [ Abs: 0.62105  Tot: +0.62000 ]
SCF: Cycle: 20   F: -20.175963959030007   dF: -6.528e-08   |Residual|: 2.088e-05   |deigs|: 1.738e-04  t[s]:     98.74
	FillingsUpdate:  mu: -0.079705406  nElectrons: 9.000000  magneticMoment: [ Abs: 0.62105  Tot: +0.62000 ]
SCF: Cycle: 21   F: -20.175963973044272   dF: -1.401e-08   |Residual|: 1.701e-05   |deigs|: 1.936e-04  t[s]:    103.00
	FillingsUpdate:  mu: -0.079711774  nElectrons: 9.000000  magneticMoment: [ Abs: 0.62109  Tot: +0.62000 ]
SCF: Cycle: 22   F: -20.175964001560189   dF: -2.852e-08   |Residual|: 1.044e-05   |deigs|: 8.216e-05  t[s]:    107.23
	FillingsUpdate:  mu: -0.079716932  nElectrons: 9.000000  magneticMoment: [ Abs: 0.62107  Tot: +0.62000 ]
SCF: Cycle: 23   F: -20.175964006414215   dF: -4.854e-09   |Residual|: 7.026e-06   |deigs|: 2.617e-05  t[s]:    111.52
	FillingsUpdate:  mu: -0.079716215  nElectrons: 9.000000  magneticMoment: [ Abs: 0.62109  Tot: +0.62000 ]
SCF: Cycle: 24   F: -20.175964013766965   dF: -7.353e-09   |Residual|: 5.928e-06   |deigs|: 2.098e-05  t[s]:    115.77
SCF: Converged (|Delta E|<1.000000e-08 for 2 iters).


# Ionic positions in lattice coordinates:
ion Cs   0.000000000000000   0.000000000000000   0.000000000000000 0

# Forces in Lattice coordinates:
force Cs  -0.000000000000000   0.000000000000000   0.000000000000000 0

# Energy components:
   Eewald =      -12.0320174002217755
       EH =        4.0209296437344815
     Eloc =      -17.5910770302274493
      Enl =        3.4320282271694507
   Epulay =       -0.0000000107257212
      Exc =       -3.1103059087405276
       KE =        5.1044795227231017
-------------------------------------
     Etot =      -20.1759629562884442
       TS =        0.0000010574785198
-------------------------------------
        F =      -20.1759640137669649

IonicMinimize: Iter:   0  F: -20.175964013766965  |grad|_K:  0.000e+00  t[s]:    116.03
IonicMinimize: Converged (|grad|_K<1.000000e-04).

#--- Lowdin population analysis ---
# oxidation-state Cs +0.066
# magnetic-moments Cs +0.560

End date and time: Sun Feb  6 13:32:38 2022  (Duration: 0-0:01:56.08)
Done!
scale=4
magnetization=0.62
--------------------------------------------------------------------------
The library attempted to open the following supporting CUDA libraries,
but each of them failed.  CUDA-aware support is disabled.
libcuda.so.1: cannot open shared object file: No such file or directory
libcuda.dylib: cannot open shared object file: No such file or directory
/usr/lib64/libcuda.so.1: cannot open shared object file: No such file or directory
/usr/lib64/libcuda.dylib: cannot open shared object file: No such file or directory
If you are not interested in CUDA-aware support, then run with
--mca opal_warn_on_missing_libcuda 0 to suppress this message.  If you are interested
in CUDA-aware support, then try setting LD_LIBRARY_PATH to the location
of libcuda.so.1 to get passed this issue.
--------------------------------------------------------------------------
--------------------------------------------------------------------------
No OpenFabrics connection schemes reported that they were able to be
used on a specific port.  As such, the openib BTL (OpenFabrics
support) will be disabled for this port.

  Local host:           d-3-15-1
  Local device:         mlx5_1
  Local port:           1
  CPCs attempted:       rdmacm, udcm
--------------------------------------------------------------------------

*************** JDFTx 1.6.0 (git hash 42ebbcc2) ***************

Start date and time: Sun Feb  6 13:32:39 2022
Executable jdftx with command-line: -i Alkali.in
Running on hosts (process indices):  d-3-15-1 (0-18)
Divided in process groups (process indices):  0 (0)  1 (1)  2 (2)  3 (3)  4 (4)  5 (5)  6 (6)  7 (7)  8 (8)  9 (9)  10 (10)  11 (11)  12 (12)  13 (13)  14 (14)  15 (15)  16 (16)  17 (17)  18 (18)
Resource initialization completed at t[s]:      0.00
Run totals: 19 processes, 48 threads, 0 GPUs


Input parsed successfully to the following command list (including defaults):

basis kpoint-dependent
coords-type Lattice
core-overlap-check vector
coulomb-interaction Slab 001
davidson-band-ratio 1.1
dump End None
dump-name $INPUT.$VAR
elec-cutoff 20
elec-eigen-algo Davidson
elec-ex-corr gga-PBE
elec-initial-magnetization 0.620000 yes
elec-smearing Fermi 1e-05
electronic-minimize  \
	dirUpdateScheme      FletcherReeves \
	linminMethod         DirUpdateRecommended \
	nIterations          100 \
	history              15 \
	knormThreshold       0 \
	energyDiffThreshold  1e-08 \
	nEnergyDiff          2 \
	alphaTstart          1 \
	alphaTmin            1e-10 \
	updateTestStepSize   yes \
	alphaTreduceFactor   0.1 \
	alphaTincreaseFactor 3 \
	nAlphaAdjustMax      3 \
	wolfeEnergy          0.0001 \
	wolfeGradient        0.9 \
	fdTest               no
electronic-scf  \
	nIterations	10000 \
	energyDiffThreshold	1e-08 \
	residualThreshold	1e-07 \
	mixFraction	0.5 \
	qMetric	0.8 \
	history	10 \
	nEigSteps	2 \
	eigDiffThreshold	1e-08 \
	mixedVariable	Density \
	qKerker	0.8 \
	qKappa	-1 \
	verbose	no \
	mixFractionMag	1.5
exchange-regularization WignerSeitzTruncated
fluid None
fluid-ex-corr (null) lda-PZ
fluid-gummel-loop 10 1.000000e-05
fluid-minimize  \
	dirUpdateScheme      PolakRibiere \
	linminMethod         DirUpdateRecommended \
	nIterations          100 \
	history              15 \
	knormThreshold       0 \
	energyDiffThreshold  0 \
	nEnergyDiff          2 \
	alphaTstart          1 \
	alphaTmin            1e-10 \
	updateTestStepSize   yes \
	alphaTreduceFactor   0.1 \
	alphaTincreaseFactor 3 \
	nAlphaAdjustMax      3 \
	wolfeEnergy          0.0001 \
	wolfeGradient        0.9 \
	fdTest               no
fluid-solvent H2O 55.338 ScalarEOS \
	epsBulk 78.4 \
	pMol 0.92466 \
	epsInf 1.77 \
	Pvap 1.06736e-10 \
	sigmaBulk 4.62e-05 \
	Rvdw 2.61727 \
	Res 1.42 \
	tauNuc 343133 \
	poleEl 15 7 1
forces-output-coords Positions
ion Cs   0.000000000000000   0.000000000000000   0.000000000000000 0
ion-species SG15/$ID_ONCV_PBE.upf
ion-width 0
ionic-minimize  \
	dirUpdateScheme      L-BFGS \
	linminMethod         DirUpdateRecommended \
	nIterations          0 \
	history              15 \
	knormThreshold       0.0001 \
	energyDiffThreshold  1e-06 \
	nEnergyDiff          2 \
	alphaTstart          1 \
	alphaTmin            1e-10 \
	updateTestStepSize   yes \
	alphaTreduceFactor   0.1 \
	alphaTincreaseFactor 3 \
	nAlphaAdjustMax      3 \
	wolfeEnergy          0.0001 \
	wolfeGradient        0.9 \
	fdTest               no
kpoint   0.000000000000   0.000000000000   0.000000000000  1.00000000000000
kpoint-folding 12 12 1 
latt-move-scale 1 1 1
latt-scale 4 4 1 
lattice  \
	   4.727486978767153   -2.363743489383575    0.000000000000000  \
	  -0.000000000000000    4.094123819672498    0.000000000000000  \
	   0.000000000000000    0.000000000000000   40.000000000000000 
lattice-minimize  \
	dirUpdateScheme      L-BFGS \
	linminMethod         DirUpdateRecommended \
	nIterations          0 \
	history              15 \
	knormThreshold       0 \
	energyDiffThreshold  1e-06 \
	nEnergyDiff          2 \
	alphaTstart          1 \
	alphaTmin            1e-10 \
	updateTestStepSize   yes \
	alphaTreduceFactor   0.1 \
	alphaTincreaseFactor 3 \
	nAlphaAdjustMax      3 \
	wolfeEnergy          0.0001 \
	wolfeGradient        0.9 \
	fdTest               no
lcao-params -1 1e-06 1e-05
pcm-variant GLSSA13
spintype z-spin
subspace-rotation-factor 1 yes
symmetries automatic
symmetry-threshold 0.0001



---------- Setting up symmetries ----------

Found 24 point-group symmetries of the bravais lattice
Found 24 space-group symmetries with basis
Applied RMS atom displacement 0 bohrs to make symmetries exact.

---------- Initializing the Grid ----------
R = 
[      18.9099     -9.45497            0  ]
[            0      16.3765            0  ]
[            0            0           40  ]
unit cell volume = 12387.1
G =
[   0.332269   0.191835         -0  ]
[          0   0.383671         -0  ]
[         -0         -0    0.15708  ]
Minimum fftbox size, Smin = [  80  80  164  ]
Chosen fftbox size, S = [  80  80  168  ]

---------- Exchange Correlation functional ----------
Initalized PBE GGA exchange.
Initalized PBE GGA correlation.

---------- Setting up pseudopotentials ----------
Width of ionic core gaussian charges (only for fluid interactions / plotting) set to 0

Reading pseudopotential file '/home/gridsan/aligho/DFT/build-Nov24/pseudopotentials/SG15/Cs_ONCV_PBE.upf':
  'Cs' pseudopotential, 'PBE' functional
  Generated using ONCVPSP code by D. R. Hamann
  Author: Martin Schlipf and Francois Gygi  Date: 150915.
  9 valence electrons, 3 orbitals, 6 projectors, 2414 radial grid points, with lMax = 2
  Transforming local potential to a uniform radial grid of dG=0.02 with 1489 points.
  Transforming nonlocal projectors to a uniform radial grid of dG=0.02 with 432 points.
    5S    l: 0   occupation:  2.0   eigenvalue: -0.982388
    5P    l: 1   occupation:  6.0   eigenvalue: -0.496786
    6S    l: 0   occupation:  1.0   eigenvalue: -0.076670
  Transforming atomic orbitals to a uniform radial grid of dG=0.02 with 432 points.
  Core radius for overlap checks: 2.06 bohrs.
  Reading pulay file /home/gridsan/aligho/DFT/build-Nov24/pseudopotentials/SG15/Cs_ONCV_PBE.pulay ... using dE_dnG = -1.008762e-04 computed for Ecut = 20.

Initialized 1 species with 1 total atoms.

Folded 1 k-points by 12x12x1 to 144 k-points.

---------- Setting up k-points, bands, fillings ----------
Reduced to 19 k-points under symmetry. 
Computing the number of bands and number of electrons
Calculating initial fillings.
nElectrons:   9.000000   nBands: 6   nStates: 38

----- Setting up reduced wavefunction bases (one per k-point) -----
average nbasis = 52924.021 , ideal nbasis = 52918.836

---------- Setting up coulomb interaction ----------
Initialized slab truncation along lattice direction 001

---------- Setting up 2D ewald sum ----------
Optimum gaussian width for ewald sums = 10.498040 bohr.
Real space sums over 289 unit cells with max indices [  8  8  0  ]
Reciprocal space sums over 81 terms with max indices [  4  4  0  ]

---------- Allocating electronic variables ----------
Initializing wave functions:  linear combination of atomic orbitals
Note: number of bands (6) exceeds available atomic orbitals (5)
Cs pseudo-atom occupations:   s ( 2 1 )  p ( 6 )
[d-3-15-1:57651] 18 more processes have sent help message help-mpi-common-cuda.txt / dlopen failed
[d-3-15-1:57651] Set MCA parameter "orte_base_help_aggregate" to 0 to see all help / error messages
[d-3-15-1:57651] 18 more processes have sent help message help-mpi-btl-openib-cpc-base.txt / no cpcs for port
	FillingsUpdate:  mu: -0.077899806  nElectrons: 9.000000  magneticMoment: [ Abs: 0.62000  Tot: +0.62000 ]
LCAOMinimize: Iter:   0  F: -20.1685776783132305  |grad|_K:  4.885e-06  alpha:  1.000e+00
	FillingsUpdate:  mu: -0.077898803  nElectrons: 9.000000  magneticMoment: [ Abs: 0.62000  Tot: +0.62000 ]
LCAOMinimize: Iter:   1  F: -20.1685776944972837  |grad|_K:  2.355e-08  alpha:  9.915e-01  linmin: -8.488e-04  cgtest:  2.016e-01  t[s]:     15.01
LCAOMinimize: Encountered beta<0, resetting CG.
LCAOMinimize: 	Step increased F by 8.668621e-13, reducing alpha to 2.916638e-01.
	FillingsUpdate:  mu: -0.077898803  nElectrons: 9.000000  magneticMoment: [ Abs: 0.62000  Tot: +0.62000 ]
LCAOMinimize: Iter:   2  F: -20.1685776944976212  |grad|_K:  1.668e-08  alpha:  2.917e-01  linmin: -6.213e-03  cgtest:  1.000e+00  t[s]:     21.41
LCAOMinimize: Encountered beta<0, resetting CG.
LCAOMinimize: Converged (|Delta F|<1.000000e-06 for 2 iters).


---- Citations for features of the code used in this run ----

   Software package:
      R. Sundararaman, K. Letchworth-Weaver, K.A. Schwarz, D. Gunceler, Y. Ozhabes and T.A. Arias, 'JDFTx: software for joint density-functional theory', SoftwareX 6, 278 (2017)

   gga-PBE exchange-correlation functional:
      J.P. Perdew, K. Burke and M. Ernzerhof, Phys. Rev. Lett. 77, 3865 (1996)

   Pseudopotentials:
      M Schlipf and F Gygi, Comput. Phys. Commun. 196, 36 (2015)

   Truncated Coulomb potentials:
      R. Sundararaman and T.A. Arias, Phys. Rev. B 87, 165122 (2013)

This list may not be complete. Please suggest additional citations or
report any other bugs at https://github.com/shankar1729/jdftx/issues

Initialization completed successfully at t[s]:     21.67


-------- Electronic minimization -----------
Will mix electronic density at each iteration.
	FillingsUpdate:  mu: -0.077898803  nElectrons: 9.000000  magneticMoment: [ Abs: 0.62000  Tot: +0.62000 ]
	FillingsUpdate:  mu: -0.078056038  nElectrons: 9.000000  magneticMoment: [ Abs: 0.62000  Tot: +0.62000 ]
SCF: Cycle:  0   F: -20.168758353380845   dF: -1.807e-04   |Residual|: 1.346e-03   |deigs|: 1.739e-01  t[s]:     29.81
	FillingsUpdate:  mu: -0.078077793  nElectrons: 9.000000  magneticMoment: [ Abs: 0.62329  Tot: +0.62000 ]
SCF: Cycle:  1   F: -20.168765204334463   dF: -6.851e-06   |Residual|: 5.731e-04   |deigs|: 5.318e-03  t[s]:     36.21
	FillingsUpdate:  mu: -0.078098181  nElectrons: 9.000000  magneticMoment: [ Abs: 0.62346  Tot: +0.62000 ]
SCF: Cycle:  2   F: -20.168767454823197   dF: -2.250e-06   |Residual|: 4.251e-04   |deigs|: 1.178e-03  t[s]:     42.73
	FillingsUpdate:  mu: -0.078131748  nElectrons: 9.000000  magneticMoment: [ Abs: 0.62437  Tot: +0.62000 ]
SCF: Cycle:  3   F: -20.168768845374093   dF: -1.391e-06   |Residual|: 3.330e-04   |deigs|: 4.511e-04  t[s]:     49.33
	FillingsUpdate:  mu: -0.078158456  nElectrons: 9.000000  magneticMoment: [ Abs: 0.62432  Tot: +0.62000 ]
SCF: Cycle:  4   F: -20.168770249449416   dF: -1.404e-06   |Residual|: 2.458e-04   |deigs|: 5.109e-04  t[s]:     56.07
	FillingsUpdate:  mu: -0.078187401  nElectrons: 9.000000  magneticMoment: [ Abs: 0.62422  Tot: +0.62000 ]
SCF: Cycle:  5   F: -20.168771216180204   dF: -9.667e-07   |Residual|: 1.740e-04   |deigs|: 2.286e-04  t[s]:     62.86
	FillingsUpdate:  mu: -0.078194187  nElectrons: 9.000000  magneticMoment: [ Abs: 0.62429  Tot: +0.62000 ]
SCF: Cycle:  6   F: -20.168771934469031   dF: -7.183e-07   |Residual|: 1.151e-04   |deigs|: 2.121e-04  t[s]:     69.84
	FillingsUpdate:  mu: -0.078184530  nElectrons: 9.000000  magneticMoment: [ Abs: 0.62418  Tot: +0.62000 ]
SCF: Cycle:  7   F: -20.168772326442475   dF: -3.920e-07   |Residual|: 9.041e-05   |deigs|: 2.522e-04  t[s]:     76.91
	FillingsUpdate:  mu: -0.078159433  nElectrons: 9.000000  magneticMoment: [ Abs: 0.62424  Tot: +0.62000 ]
SCF: Cycle:  8   F: -20.168772577206422   dF: -2.508e-07   |Residual|: 7.042e-05   |deigs|: 3.319e-04  t[s]:     84.07
	FillingsUpdate:  mu: -0.078115548  nElectrons: 9.000000  magneticMoment: [ Abs: 0.62423  Tot: +0.62000 ]
SCF: Cycle:  9   F: -20.168772709031824   dF: -1.318e-07   |Residual|: 5.842e-05   |deigs|: 3.850e-04  t[s]:     91.39
	FillingsUpdate:  mu: -0.078073741  nElectrons: 9.000000  magneticMoment: [ Abs: 0.62423  Tot: +0.62000 ]
SCF: Cycle: 10   F: -20.168772675422399   dF: +3.361e-08   |Residual|: 5.250e-05   |deigs|: 3.126e-04  t[s]:     98.81
	FillingsUpdate:  mu: -0.078014040  nElectrons: 9.000000  magneticMoment: [ Abs: 0.62453  Tot: +0.62000 ]
SCF: Cycle: 11   F: -20.168772606021189   dF: +6.940e-08   |Residual|: 5.055e-05   |deigs|: 2.114e-04  t[s]:    106.19
	FillingsUpdate:  mu: -0.077969374  nElectrons: 9.000000  magneticMoment: [ Abs: 0.62459  Tot: +0.62000 ]
SCF: Cycle: 12   F: -20.168772338866077   dF: +2.672e-07   |Residual|: 4.759e-05   |deigs|: 1.146e-04  t[s]:    113.59
	FillingsUpdate:  mu: -0.077927131  nElectrons: 9.000000  magneticMoment: [ Abs: 0.62466  Tot: +0.62000 ]
SCF: Cycle: 13   F: -20.168772371176292   dF: -3.231e-08   |Residual|: 4.117e-05   |deigs|: 4.492e-04  t[s]:    120.97
	FillingsUpdate:  mu: -0.077894780  nElectrons: 9.000000  magneticMoment: [ Abs: 0.62475  Tot: +0.62000 ]
SCF: Cycle: 14   F: -20.168772771966740   dF: -4.008e-07   |Residual|: 3.232e-05   |deigs|: 2.300e-04  t[s]:    128.33
	FillingsUpdate:  mu: -0.077813100  nElectrons: 9.000000  magneticMoment: [ Abs: 0.62475  Tot: +0.62000 ]
SCF: Cycle: 15   F: -20.168772584180775   dF: +1.878e-07   |Residual|: 3.381e-05   |deigs|: 1.059e-04  t[s]:    135.63
	FillingsUpdate:  mu: -0.077746119  nElectrons: 9.000000  magneticMoment: [ Abs: 0.62454  Tot: +0.62000 ]
SCF: Cycle: 16   F: -20.168772712198827   dF: -1.280e-07   |Residual|: 2.929e-05   |deigs|: 1.081e-04  t[s]:    142.97
	FillingsUpdate:  mu: -0.077747786  nElectrons: 9.000000  magneticMoment: [ Abs: 0.62438  Tot: +0.62000 ]
SCF: Cycle: 17   F: -20.168772871269383   dF: -1.591e-07   |Residual|: 2.196e-05   |deigs|: 1.324e-04  t[s]:    150.34
	FillingsUpdate:  mu: -0.077742579  nElectrons: 9.000000  magneticMoment: [ Abs: 0.62425  Tot: +0.62000 ]
SCF: Cycle: 18   F: -20.168772883057091   dF: -1.179e-08   |Residual|: 1.778e-05   |deigs|: 1.429e-04  t[s]:    157.65
	FillingsUpdate:  mu: -0.077730580  nElectrons: 9.000000  magneticMoment: [ Abs: 0.62421  Tot: +0.62000 ]
SCF: Cycle: 19   F: -20.168772894084299   dF: -1.103e-08   |Residual|: 1.369e-05   |deigs|: 1.203e-04  t[s]:    164.98
	FillingsUpdate:  mu: -0.077728398  nElectrons: 9.000000  magneticMoment: [ Abs: 0.62420  Tot: +0.62000 ]
SCF: Cycle: 20   F: -20.168772951677457   dF: -5.759e-08   |Residual|: 1.078e-05   |deigs|: 7.659e-05  t[s]:    172.38
	FillingsUpdate:  mu: -0.077734673  nElectrons: 9.000000  magneticMoment: [ Abs: 0.62420  Tot: +0.62000 ]
SCF: Cycle: 21   F: -20.168772948749357   dF: +2.928e-09   |Residual|: 8.133e-06   |deigs|: 5.561e-05  t[s]:    179.74
	FillingsUpdate:  mu: -0.077739066  nElectrons: 9.000000  magneticMoment: [ Abs: 0.62422  Tot: +0.62000 ]
SCF: Cycle: 22   F: -20.168772971508130   dF: -2.276e-08   |Residual|: 6.338e-06   |deigs|: 4.513e-05  t[s]:    187.14
	FillingsUpdate:  mu: -0.077741688  nElectrons: 9.000000  magneticMoment: [ Abs: 0.62422  Tot: +0.62000 ]
SCF: Cycle: 23   F: -20.168772972897045   dF: -1.389e-09   |Residual|: 5.133e-06   |deigs|: 4.020e-05  t[s]:    194.52
	FillingsUpdate:  mu: -0.077741188  nElectrons: 9.000000  magneticMoment: [ Abs: 0.62422  Tot: +0.62000 ]
SCF: Cycle: 24   F: -20.168772972092484   dF: +8.046e-10   |Residual|: 3.992e-06   |deigs|: 3.297e-05  t[s]:    201.94
	FillingsUpdate:  mu: -0.077740499  nElectrons: 9.000000  magneticMoment: [ Abs: 0.62423  Tot: +0.62000 ]
SCF: Cycle: 25   F: -20.168772974582716   dF: -2.490e-09   |Residual|: 3.001e-06   |deigs|: 2.660e-05  t[s]:    209.34
	FillingsUpdate:  mu: -0.077739625  nElectrons: 9.000000  magneticMoment: [ Abs: 0.62423  Tot: +0.62000 ]
SCF: Cycle: 26   F: -20.168772977895024   dF: -3.312e-09   |Residual|: 2.164e-06   |deigs|: 2.085e-05  t[s]:    216.75
SCF: Converged (|Delta E|<1.000000e-08 for 2 iters).


# Ionic positions in lattice coordinates:
ion Cs   0.000000000000000   0.000000000000000   0.000000000000000 0

# Forces in Lattice coordinates:
force Cs  -0.000000000000000  -0.000000000000000   0.000000000000000 0

# Energy components:
   Eewald =       -9.0240130501663280
       EH =        7.0201085454785472
     Eloc =      -23.6061438539068611
      Enl =        3.4374619800503643
   Epulay =        0.0000000422266766
      Exc =       -3.1082906859184147
       KE =        5.1121053166104256
-------------------------------------
     Etot =      -20.1687717056255913
       TS =        0.0000012722694332
-------------------------------------
        F =      -20.1687729778950242

IonicMinimize: Iter:   0  F: -20.168772977895024  |grad|_K:  0.000e+00  t[s]:    217.16
IonicMinimize: Converged (|grad|_K<1.000000e-04).

#--- Lowdin population analysis ---
# oxidation-state Cs +0.003
# magnetic-moments Cs +0.618

End date and time: Sun Feb  6 13:36:16 2022  (Duration: 0-0:03:37.23)
Done!
