The alkali metal is Cs
scale=2
magnetization=0.82
--------------------------------------------------------------------------
The library attempted to open the following supporting CUDA libraries,
but each of them failed.  CUDA-aware support is disabled.
libcuda.so.1: cannot open shared object file: No such file or directory
libcuda.dylib: cannot open shared object file: No such file or directory
/usr/lib64/libcuda.so.1: cannot open shared object file: No such file or directory
/usr/lib64/libcuda.dylib: cannot open shared object file: No such file or directory
If you are not interested in CUDA-aware support, then run with
--mca opal_warn_on_missing_libcuda 0 to suppress this message.  If you are interested
in CUDA-aware support, then try setting LD_LIBRARY_PATH to the location
of libcuda.so.1 to get passed this issue.
--------------------------------------------------------------------------
--------------------------------------------------------------------------
No OpenFabrics connection schemes reported that they were able to be
used on a specific port.  As such, the openib BTL (OpenFabrics
support) will be disabled for this port.

  Local host:           d-3-5-3
  Local device:         mlx5_1
  Local port:           1
  CPCs attempted:       rdmacm, udcm
--------------------------------------------------------------------------

*************** JDFTx 1.6.0 (git hash 42ebbcc2) ***************

Start date and time: Sun Feb  6 13:31:10 2022
Executable jdftx with command-line: -i Alkali.in
Running on hosts (process indices):  d-3-5-3 (0-18)
Divided in process groups (process indices):  0 (0)  1 (1)  2 (2)  3 (3)  4 (4)  5 (5)  6 (6)  7 (7)  8 (8)  9 (9)  10 (10)  11 (11)  12 (12)  13 (13)  14 (14)  15 (15)  16 (16)  17 (17)  18 (18)
Resource initialization completed at t[s]:      0.00
Run totals: 19 processes, 48 threads, 0 GPUs


Input parsed successfully to the following command list (including defaults):

basis kpoint-dependent
coords-type Lattice
core-overlap-check vector
coulomb-interaction Slab 001
davidson-band-ratio 1.1
dump End None
dump-name $INPUT.$VAR
elec-cutoff 20
elec-eigen-algo Davidson
elec-ex-corr gga-PBE
elec-initial-magnetization 0.820000 yes
elec-smearing Fermi 1e-05
electronic-minimize  \
	dirUpdateScheme      FletcherReeves \
	linminMethod         DirUpdateRecommended \
	nIterations          100 \
	history              15 \
	knormThreshold       0 \
	energyDiffThreshold  1e-08 \
	nEnergyDiff          2 \
	alphaTstart          1 \
	alphaTmin            1e-10 \
	updateTestStepSize   yes \
	alphaTreduceFactor   0.1 \
	alphaTincreaseFactor 3 \
	nAlphaAdjustMax      3 \
	wolfeEnergy          0.0001 \
	wolfeGradient        0.9 \
	fdTest               no
electronic-scf  \
	nIterations	10000 \
	energyDiffThreshold	1e-08 \
	residualThreshold	1e-07 \
	mixFraction	0.5 \
	qMetric	0.8 \
	history	10 \
	nEigSteps	2 \
	eigDiffThreshold	1e-08 \
	mixedVariable	Density \
	qKerker	0.8 \
	qKappa	-1 \
	verbose	no \
	mixFractionMag	1.5
exchange-regularization WignerSeitzTruncated
fluid None
fluid-ex-corr (null) lda-PZ
fluid-gummel-loop 10 1.000000e-05
fluid-minimize  \
	dirUpdateScheme      PolakRibiere \
	linminMethod         DirUpdateRecommended \
	nIterations          100 \
	history              15 \
	knormThreshold       0 \
	energyDiffThreshold  0 \
	nEnergyDiff          2 \
	alphaTstart          1 \
	alphaTmin            1e-10 \
	updateTestStepSize   yes \
	alphaTreduceFactor   0.1 \
	alphaTincreaseFactor 3 \
	nAlphaAdjustMax      3 \
	wolfeEnergy          0.0001 \
	wolfeGradient        0.9 \
	fdTest               no
fluid-solvent H2O 55.338 ScalarEOS \
	epsBulk 78.4 \
	pMol 0.92466 \
	epsInf 1.77 \
	Pvap 1.06736e-10 \
	sigmaBulk 4.62e-05 \
	Rvdw 2.61727 \
	Res 1.42 \
	tauNuc 343133 \
	poleEl 15 7 1
forces-output-coords Positions
ion Cs   0.000000000000000   0.000000000000000   0.000000000000000 0
ion-species SG15/$ID_ONCV_PBE.upf
ion-width 0
ionic-minimize  \
	dirUpdateScheme      L-BFGS \
	linminMethod         DirUpdateRecommended \
	nIterations          0 \
	history              15 \
	knormThreshold       0.0001 \
	energyDiffThreshold  1e-06 \
	nEnergyDiff          2 \
	alphaTstart          1 \
	alphaTmin            1e-10 \
	updateTestStepSize   yes \
	alphaTreduceFactor   0.1 \
	alphaTincreaseFactor 3 \
	nAlphaAdjustMax      3 \
	wolfeEnergy          0.0001 \
	wolfeGradient        0.9 \
	fdTest               no
kpoint   0.000000000000   0.000000000000   0.000000000000  1.00000000000000
kpoint-folding 12 12 1 
latt-move-scale 1 1 1
latt-scale 2 2 1 
lattice  \
	   4.727486978767153   -2.363743489383575    0.000000000000000  \
	  -0.000000000000000    4.094123819672498    0.000000000000000  \
	   0.000000000000000    0.000000000000000   40.000000000000000 
lattice-minimize  \
	dirUpdateScheme      L-BFGS \
	linminMethod         DirUpdateRecommended \
	nIterations          0 \
	history              15 \
	knormThreshold       0 \
	energyDiffThreshold  1e-06 \
	nEnergyDiff          2 \
	alphaTstart          1 \
	alphaTmin            1e-10 \
	updateTestStepSize   yes \
	alphaTreduceFactor   0.1 \
	alphaTincreaseFactor 3 \
	nAlphaAdjustMax      3 \
	wolfeEnergy          0.0001 \
	wolfeGradient        0.9 \
	fdTest               no
lcao-params -1 1e-06 1e-05
pcm-variant GLSSA13
spintype z-spin
subspace-rotation-factor 1 yes
symmetries automatic
symmetry-threshold 0.0001



---------- Setting up symmetries ----------

Found 24 point-group symmetries of the bravais lattice
Found 24 space-group symmetries with basis
Applied RMS atom displacement 0 bohrs to make symmetries exact.

---------- Initializing the Grid ----------
R = 
[      9.45497     -4.72749            0  ]
[            0      8.18825            0  ]
[            0            0           40  ]
unit cell volume = 3096.79
G =
[   0.664538   0.383671         -0  ]
[          0   0.767342         -0  ]
[         -0         -0    0.15708  ]
Minimum fftbox size, Smin = [  40  40  164  ]
Chosen fftbox size, S = [  40  40  168  ]

---------- Exchange Correlation functional ----------
Initalized PBE GGA exchange.
Initalized PBE GGA correlation.

---------- Setting up pseudopotentials ----------
Width of ionic core gaussian charges (only for fluid interactions / plotting) set to 0

Reading pseudopotential file '/home/gridsan/aligho/DFT/build-Nov24/pseudopotentials/SG15/Cs_ONCV_PBE.upf':
  'Cs' pseudopotential, 'PBE' functional
  Generated using ONCVPSP code by D. R. Hamann
  Author: Martin Schlipf and Francois Gygi  Date: 150915.
  9 valence electrons, 3 orbitals, 6 projectors, 2414 radial grid points, with lMax = 2
  Transforming local potential to a uniform radial grid of dG=0.02 with 1489 points.
  Transforming nonlocal projectors to a uniform radial grid of dG=0.02 with 432 points.
    5S    l: 0   occupation:  2.0   eigenvalue: -0.982388
    5P    l: 1   occupation:  6.0   eigenvalue: -0.496786
    6S    l: 0   occupation:  1.0   eigenvalue: -0.076670
  Transforming atomic orbitals to a uniform radial grid of dG=0.02 with 432 points.
  Core radius for overlap checks: 2.06 bohrs.
  Reading pulay file /home/gridsan/aligho/DFT/build-Nov24/pseudopotentials/SG15/Cs_ONCV_PBE.pulay ... using dE_dnG = -1.008762e-04 computed for Ecut = 20.

Initialized 1 species with 1 total atoms.

Folded 1 k-points by 12x12x1 to 144 k-points.

---------- Setting up k-points, bands, fillings ----------
Reduced to 19 k-points under symmetry. 
Computing the number of bands and number of electrons
Calculating initial fillings.
nElectrons:   9.000000   nBands: 6   nStates: 38

----- Setting up reduced wavefunction bases (one per k-point) -----
average nbasis = 13230.521 , ideal nbasis = 13229.709

---------- Setting up coulomb interaction ----------
Initialized slab truncation along lattice direction 001

---------- Setting up 2D ewald sum ----------
Optimum gaussian width for ewald sums = 5.249020 bohr.
Real space sums over 289 unit cells with max indices [  8  8  0  ]
Reciprocal space sums over 81 terms with max indices [  4  4  0  ]

---------- Allocating electronic variables ----------
Initializing wave functions:  linear combination of atomic orbitals
Note: number of bands (6) exceeds available atomic orbitals (5)
Cs pseudo-atom occupations:   s ( 2 1 )  p ( 6 )
	FillingsUpdate:  mu: -0.085035235  nElectrons: 9.000000  magneticMoment: [ Abs: 0.82000  Tot: +0.82000 ]
LCAOMinimize: Iter:   0  F: -20.1669637190524078  |grad|_K:  1.663e-05  alpha:  1.000e+00
	FillingsUpdate:  mu: -0.085027656  nElectrons: 9.000000  magneticMoment: [ Abs: 0.82000  Tot: +0.82000 ]
LCAOMinimize: Iter:   1  F: -20.1669639042677247  |grad|_K:  1.619e-07  alpha:  9.794e-01  linmin: -1.757e-02  cgtest:  2.008e-01  t[s]:      4.67
LCAOMinimize: Encountered beta<0, resetting CG.
[d-3-5-3:91928] 18 more processes have sent help message help-mpi-common-cuda.txt / dlopen failed
[d-3-5-3:91928] Set MCA parameter "orte_base_help_aggregate" to 0 to see all help / error messages
[d-3-5-3:91928] 18 more processes have sent help message help-mpi-btl-openib-cpc-base.txt / no cpcs for port
	FillingsUpdate:  mu: -0.085027708  nElectrons: 9.000000  magneticMoment: [ Abs: 0.82000  Tot: +0.82000 ]
LCAOMinimize: Iter:   2  F: -20.1669639042867495  |grad|_K:  1.131e-08  alpha:  1.070e+00  linmin:  1.012e-01  cgtest: -9.961e-01  t[s]:      5.98
LCAOMinimize: Converged (|Delta F|<1.000000e-06 for 2 iters).


---- Citations for features of the code used in this run ----

   Software package:
      R. Sundararaman, K. Letchworth-Weaver, K.A. Schwarz, D. Gunceler, Y. Ozhabes and T.A. Arias, 'JDFTx: software for joint density-functional theory', SoftwareX 6, 278 (2017)

   gga-PBE exchange-correlation functional:
      J.P. Perdew, K. Burke and M. Ernzerhof, Phys. Rev. Lett. 77, 3865 (1996)

   Pseudopotentials:
      M Schlipf and F Gygi, Comput. Phys. Commun. 196, 36 (2015)

   Truncated Coulomb potentials:
      R. Sundararaman and T.A. Arias, Phys. Rev. B 87, 165122 (2013)

This list may not be complete. Please suggest additional citations or
report any other bugs at https://github.com/shankar1729/jdftx/issues

Initialization completed successfully at t[s]:      6.08


-------- Electronic minimization -----------
Will mix electronic density at each iteration.
	FillingsUpdate:  mu: -0.085027708  nElectrons: 9.000000  magneticMoment: [ Abs: 0.82000  Tot: +0.82000 ]
	FillingsUpdate:  mu: -0.105290360  nElectrons: 9.000000  magneticMoment: [ Abs: 0.82000  Tot: +0.82000 ]
SCF: Cycle:  0   F: -20.179034678228806   dF: -1.207e-02   |Residual|: 1.915e-02   |deigs|: 1.883e-01  t[s]:      8.57
	FillingsUpdate:  mu: -0.110482523  nElectrons: 9.000000  magneticMoment: [ Abs: 0.82000  Tot: +0.82000 ]
SCF: Cycle:  1   F: -20.180031244218402   dF: -9.966e-04   |Residual|: 1.414e-02   |deigs|: 7.286e-03  t[s]:     10.41
	FillingsUpdate:  mu: -0.107745024  nElectrons: 9.000000  magneticMoment: [ Abs: 0.82613  Tot: +0.82000 ]
SCF: Cycle:  2   F: -20.180548990516886   dF: -5.177e-04   |Residual|: 8.133e-03   |deigs|: 2.258e-03  t[s]:     12.27
	FillingsUpdate:  mu: -0.103445754  nElectrons: 9.000000  magneticMoment: [ Abs: 0.82004  Tot: +0.82000 ]
SCF: Cycle:  3   F: -20.180807036469240   dF: -2.580e-04   |Residual|: 4.778e-03   |deigs|: 3.937e-03  t[s]:     14.19
	FillingsUpdate:  mu: -0.100061466  nElectrons: 9.000000  magneticMoment: [ Abs: 0.82036  Tot: +0.82000 ]
SCF: Cycle:  4   F: -20.180917171251068   dF: -1.101e-04   |Residual|: 3.558e-03   |deigs|: 3.704e-03  t[s]:     16.08
	FillingsUpdate:  mu: -0.096682729  nElectrons: 9.000000  magneticMoment: [ Abs: 0.82154  Tot: +0.82000 ]
SCF: Cycle:  5   F: -20.180955442315252   dF: -3.827e-05   |Residual|: 2.953e-03   |deigs|: 3.943e-03  t[s]:     18.00
	FillingsUpdate:  mu: -0.092824263  nElectrons: 9.000000  magneticMoment: [ Abs: 0.83125  Tot: +0.82000 ]
SCF: Cycle:  6   F: -20.180974688853325   dF: -1.925e-05   |Residual|: 2.195e-03   |deigs|: 4.234e-03  t[s]:     19.92
	FillingsUpdate:  mu: -0.090341246  nElectrons: 9.000000  magneticMoment: [ Abs: 0.83061  Tot: +0.82000 ]
SCF: Cycle:  7   F: -20.181019206766784   dF: -4.452e-05   |Residual|: 1.787e-03   |deigs|: 3.385e-03  t[s]:     21.90
	FillingsUpdate:  mu: -0.090378314  nElectrons: 9.000000  magneticMoment: [ Abs: 0.82160  Tot: +0.82000 ]
SCF: Cycle:  8   F: -20.181052885246331   dF: -3.368e-05   |Residual|: 1.411e-03   |deigs|: 4.327e-04  t[s]:     23.91
	FillingsUpdate:  mu: -0.088066245  nElectrons: 9.000000  magneticMoment: [ Abs: 0.82274  Tot: +0.82000 ]
SCF: Cycle:  9   F: -20.181071972424132   dF: -1.909e-05   |Residual|: 1.122e-03   |deigs|: 2.339e-03  t[s]:     25.95
	FillingsUpdate:  mu: -0.086409761  nElectrons: 9.000000  magneticMoment: [ Abs: 0.82693  Tot: +0.82000 ]
SCF: Cycle: 10   F: -20.181085084767840   dF: -1.311e-05   |Residual|: 9.714e-04   |deigs|: 1.898e-03  t[s]:     27.98
	FillingsUpdate:  mu: -0.086011570  nElectrons: 9.000000  magneticMoment: [ Abs: 0.82664  Tot: +0.82000 ]
SCF: Cycle: 11   F: -20.181102410379481   dF: -1.733e-05   |Residual|: 8.425e-04   |deigs|: 9.022e-04  t[s]:     30.03
	FillingsUpdate:  mu: -0.084461906  nElectrons: 9.000000  magneticMoment: [ Abs: 0.82871  Tot: +0.82000 ]
SCF: Cycle: 12   F: -20.181119154842079   dF: -1.674e-05   |Residual|: 7.884e-04   |deigs|: 2.010e-03  t[s]:     32.14
	FillingsUpdate:  mu: -0.082522478  nElectrons: 9.000000  magneticMoment: [ Abs: 0.82677  Tot: +0.82000 ]
SCF: Cycle: 13   F: -20.181126706806015   dF: -7.552e-06   |Residual|: 7.359e-04   |deigs|: 2.169e-03  t[s]:     34.25
	FillingsUpdate:  mu: -0.081023061  nElectrons: 9.000000  magneticMoment: [ Abs: 0.82343  Tot: +0.82000 ]
SCF: Cycle: 14   F: -20.181134178199351   dF: -7.471e-06   |Residual|: 6.793e-04   |deigs|: 1.874e-03  t[s]:     36.27
	FillingsUpdate:  mu: -0.079915237  nElectrons: 9.000000  magneticMoment: [ Abs: 0.82235  Tot: +0.82000 ]
SCF: Cycle: 15   F: -20.181144101239170   dF: -9.923e-06   |Residual|: 5.032e-04   |deigs|: 2.000e-03  t[s]:     38.28
	FillingsUpdate:  mu: -0.078897724  nElectrons: 9.000000  magneticMoment: [ Abs: 0.82214  Tot: +0.82000 ]
SCF: Cycle: 16   F: -20.181150805813608   dF: -6.705e-06   |Residual|: 3.802e-04   |deigs|: 1.717e-03  t[s]:     40.35
	FillingsUpdate:  mu: -0.078639844  nElectrons: 9.000000  magneticMoment: [ Abs: 0.82200  Tot: +0.82000 ]
SCF: Cycle: 17   F: -20.181154701522168   dF: -3.896e-06   |Residual|: 2.753e-04   |deigs|: 6.528e-04  t[s]:     42.39
	FillingsUpdate:  mu: -0.078678537  nElectrons: 9.000000  magneticMoment: [ Abs: 0.82189  Tot: +0.82000 ]
SCF: Cycle: 18   F: -20.181157741494982   dF: -3.040e-06   |Residual|: 2.119e-04   |deigs|: 3.434e-04  t[s]:     44.44
	FillingsUpdate:  mu: -0.079210200  nElectrons: 9.000000  magneticMoment: [ Abs: 0.82162  Tot: +0.82000 ]
SCF: Cycle: 19   F: -20.181159016702445   dF: -1.275e-06   |Residual|: 1.163e-04   |deigs|: 5.425e-04  t[s]:     46.60
	FillingsUpdate:  mu: -0.079120073  nElectrons: 9.000000  magneticMoment: [ Abs: 0.82141  Tot: +0.82000 ]
SCF: Cycle: 20   F: -20.181159895159883   dF: -8.785e-07   |Residual|: 6.595e-05   |deigs|: 1.048e-03  t[s]:     48.62
	FillingsUpdate:  mu: -0.079303204  nElectrons: 9.000000  magneticMoment: [ Abs: 0.82129  Tot: +0.82000 ]
SCF: Cycle: 21   F: -20.181160178663077   dF: -2.835e-07   |Residual|: 5.437e-05   |deigs|: 8.829e-04  t[s]:     50.64
	FillingsUpdate:  mu: -0.079306995  nElectrons: 9.000000  magneticMoment: [ Abs: 0.82115  Tot: +0.82000 ]
SCF: Cycle: 22   F: -20.181160401157975   dF: -2.225e-07   |Residual|: 4.236e-05   |deigs|: 1.395e-04  t[s]:     52.70
	FillingsUpdate:  mu: -0.079330431  nElectrons: 9.000000  magneticMoment: [ Abs: 0.82085  Tot: +0.82000 ]
SCF: Cycle: 23   F: -20.181160458764989   dF: -5.761e-08   |Residual|: 4.293e-05   |deigs|: 1.135e-04  t[s]:     54.80
	FillingsUpdate:  mu: -0.079239231  nElectrons: 9.000000  magneticMoment: [ Abs: 0.82059  Tot: +0.82000 ]
SCF: Cycle: 24   F: -20.181160569523065   dF: -1.108e-07   |Residual|: 4.090e-05   |deigs|: 9.221e-05  t[s]:     56.85
	FillingsUpdate:  mu: -0.079235400  nElectrons: 9.000000  magneticMoment: [ Abs: 0.82048  Tot: +0.82000 ]
SCF: Cycle: 25   F: -20.181160597780512   dF: -2.826e-08   |Residual|: 3.104e-05   |deigs|: 8.289e-04  t[s]:     58.91
	FillingsUpdate:  mu: -0.079265368  nElectrons: 9.000000  magneticMoment: [ Abs: 0.82041  Tot: +0.82000 ]
SCF: Cycle: 26   F: -20.181160640143130   dF: -4.236e-08   |Residual|: 1.456e-05   |deigs|: 4.090e-04  t[s]:     61.07
	FillingsUpdate:  mu: -0.079282594  nElectrons: 9.000000  magneticMoment: [ Abs: 0.82037  Tot: +0.82000 ]
SCF: Cycle: 27   F: -20.181160671308874   dF: -3.117e-08   |Residual|: 1.704e-05   |deigs|: 9.225e-05  t[s]:     63.10
	FillingsUpdate:  mu: -0.079254406  nElectrons: 9.000000  magneticMoment: [ Abs: 0.82033  Tot: +0.82000 ]
SCF: Cycle: 28   F: -20.181160683119394   dF: -1.181e-08   |Residual|: 7.252e-06   |deigs|: 9.741e-05  t[s]:     65.16
	FillingsUpdate:  mu: -0.079235043  nElectrons: 9.000000  magneticMoment: [ Abs: 0.82031  Tot: +0.82000 ]
SCF: Cycle: 29   F: -20.181160689607665   dF: -6.488e-09   |Residual|: 2.793e-06   |deigs|: 7.840e-05  t[s]:     67.29
	FillingsUpdate:  mu: -0.079229644  nElectrons: 9.000000  magneticMoment: [ Abs: 0.82032  Tot: +0.82000 ]
SCF: Cycle: 30   F: -20.181160691684155   dF: -2.076e-09   |Residual|: 2.265e-06   |deigs|: 1.521e-04  t[s]:     69.34
SCF: Converged (|Delta E|<1.000000e-08 for 2 iters).


# Ionic positions in lattice coordinates:
ion Cs   0.000000000000000   0.000000000000000   0.000000000000000 0

# Forces in Lattice coordinates:
force Cs  -0.000000000000000   0.000000000000000   0.000000000000000 0

# Energy components:
   Eewald =      -18.0480261003326561
       EH =       -1.7625720581866990
     Eloc =       -5.8169498319051716
      Enl =        3.4368987168433005
   Epulay =        0.0000000264484078
      Exc =       -3.1527578021586127
       KE =        5.1622463909811316
-------------------------------------
     Etot =      -20.1811606583102972
       TS =        0.0000000333738585
-------------------------------------
        F =      -20.1811606916841555

IonicMinimize: Iter:   0  F: -20.181160691684155  |grad|_K:  0.000e+00  t[s]:     69.46
IonicMinimize: Converged (|grad|_K<1.000000e-04).

#--- Lowdin population analysis ---
# oxidation-state Cs +0.136
# magnetic-moments Cs +0.689

End date and time: Sun Feb  6 13:32:20 2022  (Duration: 0-0:01:09.48)
Done!
scale=3
magnetization=0.82
--------------------------------------------------------------------------
The library attempted to open the following supporting CUDA libraries,
but each of them failed.  CUDA-aware support is disabled.
libcuda.so.1: cannot open shared object file: No such file or directory
libcuda.dylib: cannot open shared object file: No such file or directory
/usr/lib64/libcuda.so.1: cannot open shared object file: No such file or directory
/usr/lib64/libcuda.dylib: cannot open shared object file: No such file or directory
If you are not interested in CUDA-aware support, then run with
--mca opal_warn_on_missing_libcuda 0 to suppress this message.  If you are interested
in CUDA-aware support, then try setting LD_LIBRARY_PATH to the location
of libcuda.so.1 to get passed this issue.
--------------------------------------------------------------------------
--------------------------------------------------------------------------
No OpenFabrics connection schemes reported that they were able to be
used on a specific port.  As such, the openib BTL (OpenFabrics
support) will be disabled for this port.

  Local host:           d-3-5-3
  Local device:         mlx5_1
  Local port:           1
  CPCs attempted:       rdmacm, udcm
--------------------------------------------------------------------------

*************** JDFTx 1.6.0 (git hash 42ebbcc2) ***************

Start date and time: Sun Feb  6 13:32:21 2022
Executable jdftx with command-line: -i Alkali.in
Running on hosts (process indices):  d-3-5-3 (0-18)
Divided in process groups (process indices):  0 (0)  1 (1)  2 (2)  3 (3)  4 (4)  5 (5)  6 (6)  7 (7)  8 (8)  9 (9)  10 (10)  11 (11)  12 (12)  13 (13)  14 (14)  15 (15)  16 (16)  17 (17)  18 (18)
Resource initialization completed at t[s]:      0.00
Run totals: 19 processes, 48 threads, 0 GPUs


Input parsed successfully to the following command list (including defaults):

basis kpoint-dependent
coords-type Lattice
core-overlap-check vector
coulomb-interaction Slab 001
davidson-band-ratio 1.1
dump End None
dump-name $INPUT.$VAR
elec-cutoff 20
elec-eigen-algo Davidson
elec-ex-corr gga-PBE
elec-initial-magnetization 0.820000 yes
elec-smearing Fermi 1e-05
electronic-minimize  \
	dirUpdateScheme      FletcherReeves \
	linminMethod         DirUpdateRecommended \
	nIterations          100 \
	history              15 \
	knormThreshold       0 \
	energyDiffThreshold  1e-08 \
	nEnergyDiff          2 \
	alphaTstart          1 \
	alphaTmin            1e-10 \
	updateTestStepSize   yes \
	alphaTreduceFactor   0.1 \
	alphaTincreaseFactor 3 \
	nAlphaAdjustMax      3 \
	wolfeEnergy          0.0001 \
	wolfeGradient        0.9 \
	fdTest               no
electronic-scf  \
	nIterations	10000 \
	energyDiffThreshold	1e-08 \
	residualThreshold	1e-07 \
	mixFraction	0.5 \
	qMetric	0.8 \
	history	10 \
	nEigSteps	2 \
	eigDiffThreshold	1e-08 \
	mixedVariable	Density \
	qKerker	0.8 \
	qKappa	-1 \
	verbose	no \
	mixFractionMag	1.5
exchange-regularization WignerSeitzTruncated
fluid None
fluid-ex-corr (null) lda-PZ
fluid-gummel-loop 10 1.000000e-05
fluid-minimize  \
	dirUpdateScheme      PolakRibiere \
	linminMethod         DirUpdateRecommended \
	nIterations          100 \
	history              15 \
	knormThreshold       0 \
	energyDiffThreshold  0 \
	nEnergyDiff          2 \
	alphaTstart          1 \
	alphaTmin            1e-10 \
	updateTestStepSize   yes \
	alphaTreduceFactor   0.1 \
	alphaTincreaseFactor 3 \
	nAlphaAdjustMax      3 \
	wolfeEnergy          0.0001 \
	wolfeGradient        0.9 \
	fdTest               no
fluid-solvent H2O 55.338 ScalarEOS \
	epsBulk 78.4 \
	pMol 0.92466 \
	epsInf 1.77 \
	Pvap 1.06736e-10 \
	sigmaBulk 4.62e-05 \
	Rvdw 2.61727 \
	Res 1.42 \
	tauNuc 343133 \
	poleEl 15 7 1
forces-output-coords Positions
ion Cs   0.000000000000000   0.000000000000000   0.000000000000000 0
ion-species SG15/$ID_ONCV_PBE.upf
ion-width 0
ionic-minimize  \
	dirUpdateScheme      L-BFGS \
	linminMethod         DirUpdateRecommended \
	nIterations          0 \
	history              15 \
	knormThreshold       0.0001 \
	energyDiffThreshold  1e-06 \
	nEnergyDiff          2 \
	alphaTstart          1 \
	alphaTmin            1e-10 \
	updateTestStepSize   yes \
	alphaTreduceFactor   0.1 \
	alphaTincreaseFactor 3 \
	nAlphaAdjustMax      3 \
	wolfeEnergy          0.0001 \
	wolfeGradient        0.9 \
	fdTest               no
kpoint   0.000000000000   0.000000000000   0.000000000000  1.00000000000000
kpoint-folding 12 12 1 
latt-move-scale 1 1 1
latt-scale 3 3 1 
lattice  \
	   4.727486978767153   -2.363743489383575    0.000000000000000  \
	  -0.000000000000000    4.094123819672498    0.000000000000000  \
	   0.000000000000000    0.000000000000000   40.000000000000000 
lattice-minimize  \
	dirUpdateScheme      L-BFGS \
	linminMethod         DirUpdateRecommended \
	nIterations          0 \
	history              15 \
	knormThreshold       0 \
	energyDiffThreshold  1e-06 \
	nEnergyDiff          2 \
	alphaTstart          1 \
	alphaTmin            1e-10 \
	updateTestStepSize   yes \
	alphaTreduceFactor   0.1 \
	alphaTincreaseFactor 3 \
	nAlphaAdjustMax      3 \
	wolfeEnergy          0.0001 \
	wolfeGradient        0.9 \
	fdTest               no
lcao-params -1 1e-06 1e-05
pcm-variant GLSSA13
spintype z-spin
subspace-rotation-factor 1 yes
symmetries automatic
symmetry-threshold 0.0001



---------- Setting up symmetries ----------

Found 24 point-group symmetries of the bravais lattice
Found 24 space-group symmetries with basis
Applied RMS atom displacement 0 bohrs to make symmetries exact.

---------- Initializing the Grid ----------
R = 
[      14.1825     -7.09123            0  ]
[            0      12.2824            0  ]
[            0            0           40  ]
unit cell volume = 6967.77
G =
[   0.443025   0.255781         -0  ]
[          0   0.511561         -0  ]
[         -0         -0    0.15708  ]
Minimum fftbox size, Smin = [  60  60  164  ]
Chosen fftbox size, S = [  60  60  168  ]

---------- Exchange Correlation functional ----------
Initalized PBE GGA exchange.
Initalized PBE GGA correlation.

---------- Setting up pseudopotentials ----------
Width of ionic core gaussian charges (only for fluid interactions / plotting) set to 0

Reading pseudopotential file '/home/gridsan/aligho/DFT/build-Nov24/pseudopotentials/SG15/Cs_ONCV_PBE.upf':
  'Cs' pseudopotential, 'PBE' functional
  Generated using ONCVPSP code by D. R. Hamann
  Author: Martin Schlipf and Francois Gygi  Date: 150915.
  9 valence electrons, 3 orbitals, 6 projectors, 2414 radial grid points, with lMax = 2
  Transforming local potential to a uniform radial grid of dG=0.02 with 1489 points.
  Transforming nonlocal projectors to a uniform radial grid of dG=0.02 with 432 points.
    5S    l: 0   occupation:  2.0   eigenvalue: -0.982388
    5P    l: 1   occupation:  6.0   eigenvalue: -0.496786
    6S    l: 0   occupation:  1.0   eigenvalue: -0.076670
  Transforming atomic orbitals to a uniform radial grid of dG=0.02 with 432 points.
  Core radius for overlap checks: 2.06 bohrs.
  Reading pulay file /home/gridsan/aligho/DFT/build-Nov24/pseudopotentials/SG15/Cs_ONCV_PBE.pulay ... using dE_dnG = -1.008762e-04 computed for Ecut = 20.

Initialized 1 species with 1 total atoms.

Folded 1 k-points by 12x12x1 to 144 k-points.

---------- Setting up k-points, bands, fillings ----------
Reduced to 19 k-points under symmetry. 
Computing the number of bands and number of electrons
Calculating initial fillings.
nElectrons:   9.000000   nBands: 6   nStates: 38

----- Setting up reduced wavefunction bases (one per k-point) -----
average nbasis = 29766.104 , ideal nbasis = 29766.845

---------- Setting up coulomb interaction ----------
Initialized slab truncation along lattice direction 001

---------- Setting up 2D ewald sum ----------
Optimum gaussian width for ewald sums = 7.873530 bohr.
Real space sums over 289 unit cells with max indices [  8  8  0  ]
Reciprocal space sums over 81 terms with max indices [  4  4  0  ]

---------- Allocating electronic variables ----------
Initializing wave functions:  linear combination of atomic orbitals
Note: number of bands (6) exceeds available atomic orbitals (5)
Cs pseudo-atom occupations:   s ( 2 1 )  p ( 6 )
[d-3-5-3:08542] 18 more processes have sent help message help-mpi-common-cuda.txt / dlopen failed
[d-3-5-3:08542] Set MCA parameter "orte_base_help_aggregate" to 0 to see all help / error messages
[d-3-5-3:08542] 18 more processes have sent help message help-mpi-btl-openib-cpc-base.txt / no cpcs for port
	FillingsUpdate:  mu: -0.080992491  nElectrons: 9.000000  magneticMoment: [ Abs: 0.82000  Tot: +0.82000 ]
LCAOMinimize: Iter:   0  F: -20.1715549712724744  |grad|_K:  7.846e-06  alpha:  1.000e+00
	FillingsUpdate:  mu: -0.080990901  nElectrons: 9.000000  magneticMoment: [ Abs: 0.82000  Tot: +0.82000 ]
LCAOMinimize: Iter:   1  F: -20.1715550130476053  |grad|_K:  4.384e-08  alpha:  9.921e-01  linmin: -9.147e-03  cgtest:  1.906e-01  t[s]:      8.82
LCAOMinimize: Encountered beta<0, resetting CG.
	FillingsUpdate:  mu: -0.080990906  nElectrons: 9.000000  magneticMoment: [ Abs: 0.82000  Tot: +0.82000 ]
LCAOMinimize: Iter:   2  F: -20.1715550130492396  |grad|_K:  4.556e-09  alpha:  8.950e-01  linmin: -1.107e-01  cgtest:  9.992e-01  t[s]:     11.17
LCAOMinimize: Encountered beta<0, resetting CG.
LCAOMinimize: Converged (|Delta F|<1.000000e-06 for 2 iters).


---- Citations for features of the code used in this run ----

   Software package:
      R. Sundararaman, K. Letchworth-Weaver, K.A. Schwarz, D. Gunceler, Y. Ozhabes and T.A. Arias, 'JDFTx: software for joint density-functional theory', SoftwareX 6, 278 (2017)

   gga-PBE exchange-correlation functional:
      J.P. Perdew, K. Burke and M. Ernzerhof, Phys. Rev. Lett. 77, 3865 (1996)

   Pseudopotentials:
      M Schlipf and F Gygi, Comput. Phys. Commun. 196, 36 (2015)

   Truncated Coulomb potentials:
      R. Sundararaman and T.A. Arias, Phys. Rev. B 87, 165122 (2013)

This list may not be complete. Please suggest additional citations or
report any other bugs at https://github.com/shankar1729/jdftx/issues

Initialization completed successfully at t[s]:     11.34


-------- Electronic minimization -----------
Will mix electronic density at each iteration.
	FillingsUpdate:  mu: -0.080990906  nElectrons: 9.000000  magneticMoment: [ Abs: 0.82000  Tot: +0.82000 ]
	FillingsUpdate:  mu: -0.082499921  nElectrons: 9.000000  magneticMoment: [ Abs: 0.82000  Tot: +0.82000 ]
SCF: Cycle:  0   F: -20.173997992054570   dF: -2.443e-03   |Residual|: 5.204e-03   |deigs|: 1.736e-01  t[s]:     16.11
	FillingsUpdate:  mu: -0.083302636  nElectrons: 9.000000  magneticMoment: [ Abs: 0.82042  Tot: +0.82000 ]
SCF: Cycle:  1   F: -20.174202481363512   dF: -2.045e-04   |Residual|: 4.454e-03   |deigs|: 5.189e-03  t[s]:     19.92
	FillingsUpdate:  mu: -0.084483681  nElectrons: 9.000000  magneticMoment: [ Abs: 0.82253  Tot: +0.82000 ]
SCF: Cycle:  2   F: -20.174299751081644   dF: -9.727e-05   |Residual|: 3.561e-03   |deigs|: 2.594e-03  t[s]:     23.72
	FillingsUpdate:  mu: -0.084166182  nElectrons: 9.000000  magneticMoment: [ Abs: 0.82390  Tot: +0.82000 ]
SCF: Cycle:  3   F: -20.174388526590310   dF: -8.878e-05   |Residual|: 2.762e-03   |deigs|: 1.502e-03  t[s]:     27.64
	FillingsUpdate:  mu: -0.083468635  nElectrons: 9.000000  magneticMoment: [ Abs: 0.82121  Tot: +0.82000 ]
SCF: Cycle:  4   F: -20.174447399911035   dF: -5.887e-05   |Residual|: 1.377e-03   |deigs|: 1.515e-03  t[s]:     31.56
	FillingsUpdate:  mu: -0.082959686  nElectrons: 9.000000  magneticMoment: [ Abs: 0.82184  Tot: +0.82000 ]
SCF: Cycle:  5   F: -20.174469165807675   dF: -2.177e-05   |Residual|: 8.904e-04   |deigs|: 5.656e-04  t[s]:     35.57
	FillingsUpdate:  mu: -0.082753808  nElectrons: 9.000000  magneticMoment: [ Abs: 0.82179  Tot: +0.82000 ]
SCF: Cycle:  6   F: -20.174481094954828   dF: -1.193e-05   |Residual|: 7.219e-04   |deigs|: 4.982e-04  t[s]:     39.60
	FillingsUpdate:  mu: -0.082344222  nElectrons: 9.000000  magneticMoment: [ Abs: 0.82192  Tot: +0.82000 ]
SCF: Cycle:  7   F: -20.174484886715316   dF: -3.792e-06   |Residual|: 5.818e-04   |deigs|: 4.799e-04  t[s]:     43.73
	FillingsUpdate:  mu: -0.081313024  nElectrons: 9.000000  magneticMoment: [ Abs: 0.82397  Tot: +0.82000 ]
SCF: Cycle:  8   F: -20.174480571670877   dF: +4.315e-06   |Residual|: 4.712e-04   |deigs|: 1.095e-03  t[s]:     47.92
	FillingsUpdate:  mu: -0.080732066  nElectrons: 9.000000  magneticMoment: [ Abs: 0.82308  Tot: +0.82000 ]
SCF: Cycle:  9   F: -20.174482461219167   dF: -1.890e-06   |Residual|: 4.634e-04   |deigs|: 9.464e-04  t[s]:     52.13
	FillingsUpdate:  mu: -0.080635132  nElectrons: 9.000000  magneticMoment: [ Abs: 0.82182  Tot: +0.82000 ]
SCF: Cycle: 10   F: -20.174489886161357   dF: -7.425e-06   |Residual|: 3.282e-04   |deigs|: 3.644e-04  t[s]:     56.42
	FillingsUpdate:  mu: -0.080394856  nElectrons: 9.000000  magneticMoment: [ Abs: 0.82474  Tot: +0.82000 ]
SCF: Cycle: 11   F: -20.174493666488406   dF: -3.780e-06   |Residual|: 2.972e-04   |deigs|: 5.839e-04  t[s]:     60.68
	FillingsUpdate:  mu: -0.079925541  nElectrons: 9.000000  magneticMoment: [ Abs: 0.82507  Tot: +0.82000 ]
SCF: Cycle: 12   F: -20.174493453021501   dF: +2.135e-07   |Residual|: 2.593e-04   |deigs|: 7.769e-04  t[s]:     65.05
	FillingsUpdate:  mu: -0.079486981  nElectrons: 9.000000  magneticMoment: [ Abs: 0.82425  Tot: +0.82000 ]
SCF: Cycle: 13   F: -20.174493788200511   dF: -3.352e-07   |Residual|: 2.468e-04   |deigs|: 6.219e-04  t[s]:     69.33
	FillingsUpdate:  mu: -0.079261406  nElectrons: 9.000000  magneticMoment: [ Abs: 0.82420  Tot: +0.82000 ]
SCF: Cycle: 14   F: -20.174494986338644   dF: -1.198e-06   |Residual|: 2.329e-04   |deigs|: 5.379e-04  t[s]:     73.67
	FillingsUpdate:  mu: -0.078849582  nElectrons: 9.000000  magneticMoment: [ Abs: 0.82286  Tot: +0.82000 ]
SCF: Cycle: 15   F: -20.174497669520637   dF: -2.683e-06   |Residual|: 1.911e-04   |deigs|: 6.180e-04  t[s]:     77.99
	FillingsUpdate:  mu: -0.078429963  nElectrons: 9.000000  magneticMoment: [ Abs: 0.82240  Tot: +0.82000 ]
SCF: Cycle: 16   F: -20.174498867471847   dF: -1.198e-06   |Residual|: 1.438e-04   |deigs|: 5.461e-04  t[s]:     82.21
	FillingsUpdate:  mu: -0.078440048  nElectrons: 9.000000  magneticMoment: [ Abs: 0.82185  Tot: +0.82000 ]
SCF: Cycle: 17   F: -20.174499462292498   dF: -5.948e-07   |Residual|: 1.007e-04   |deigs|: 1.618e-04  t[s]:     86.51
	FillingsUpdate:  mu: -0.078410613  nElectrons: 9.000000  magneticMoment: [ Abs: 0.82185  Tot: +0.82000 ]
SCF: Cycle: 18   F: -20.174499991422561   dF: -5.291e-07   |Residual|: 6.731e-05   |deigs|: 1.078e-04  t[s]:     90.77
	FillingsUpdate:  mu: -0.078391404  nElectrons: 9.000000  magneticMoment: [ Abs: 0.82185  Tot: +0.82000 ]
SCF: Cycle: 19   F: -20.174500032135871   dF: -4.071e-08   |Residual|: 4.801e-05   |deigs|: 9.941e-05  t[s]:     95.06
	FillingsUpdate:  mu: -0.078381261  nElectrons: 9.000000  magneticMoment: [ Abs: 0.82197  Tot: +0.82000 ]
SCF: Cycle: 20   F: -20.174500159050883   dF: -1.269e-07   |Residual|: 2.993e-05   |deigs|: 9.423e-05  t[s]:     99.43
	FillingsUpdate:  mu: -0.078378996  nElectrons: 9.000000  magneticMoment: [ Abs: 0.82195  Tot: +0.82000 ]
SCF: Cycle: 21   F: -20.174500349676013   dF: -1.906e-07   |Residual|: 2.106e-05   |deigs|: 7.876e-05  t[s]:    103.73
	FillingsUpdate:  mu: -0.078385474  nElectrons: 9.000000  magneticMoment: [ Abs: 0.82191  Tot: +0.82000 ]
SCF: Cycle: 22   F: -20.174500408534559   dF: -5.886e-08   |Residual|: 1.361e-05   |deigs|: 6.338e-05  t[s]:    107.97
	FillingsUpdate:  mu: -0.078386697  nElectrons: 9.000000  magneticMoment: [ Abs: 0.82192  Tot: +0.82000 ]
SCF: Cycle: 23   F: -20.174500429371694   dF: -2.084e-08   |Residual|: 1.044e-05   |deigs|: 5.090e-05  t[s]:    112.23
	FillingsUpdate:  mu: -0.078383232  nElectrons: 9.000000  magneticMoment: [ Abs: 0.82193  Tot: +0.82000 ]
SCF: Cycle: 24   F: -20.174500444627252   dF: -1.526e-08   |Residual|: 9.171e-06   |deigs|: 5.500e-05  t[s]:    116.56
	FillingsUpdate:  mu: -0.078381032  nElectrons: 9.000000  magneticMoment: [ Abs: 0.82192  Tot: +0.82000 ]
SCF: Cycle: 25   F: -20.174500448999144   dF: -4.372e-09   |Residual|: 6.555e-06   |deigs|: 4.193e-05  t[s]:    120.86
	FillingsUpdate:  mu: -0.078380982  nElectrons: 9.000000  magneticMoment: [ Abs: 0.82187  Tot: +0.82000 ]
SCF: Cycle: 26   F: -20.174500453951193   dF: -4.952e-09   |Residual|: 6.322e-06   |deigs|: 3.176e-05  t[s]:    125.15
SCF: Converged (|Delta E|<1.000000e-08 for 2 iters).


# Ionic positions in lattice coordinates:
ion Cs   0.000000000000000   0.000000000000000   0.000000000000000 0

# Forces in Lattice coordinates:
force Cs   0.000000000000000   0.000000000000000   0.000000000000000 0

# Energy components:
   Eewald =      -12.0320174002217755
       EH =        4.0312702179035362
     Eloc =      -17.6029178897415299
      Enl =        3.4326714189374643
   Epulay =       -0.0000000107257212
      Exc =       -3.1121281131177341
       KE =        5.1086215853324193
-------------------------------------
     Etot =      -20.1745001916333422
       TS =        0.0000002623178494
-------------------------------------
        F =      -20.1745004539511932

IonicMinimize: Iter:   0  F: -20.174500453951193  |grad|_K:  0.000e+00  t[s]:    125.40
IonicMinimize: Converged (|grad|_K<1.000000e-04).

#--- Lowdin population analysis ---
# oxidation-state Cs +0.072
# magnetic-moments Cs +0.751

End date and time: Sun Feb  6 13:34:26 2022  (Duration: 0-0:02:05.46)
Done!
scale=4
magnetization=0.82
--------------------------------------------------------------------------
The library attempted to open the following supporting CUDA libraries,
but each of them failed.  CUDA-aware support is disabled.
libcuda.so.1: cannot open shared object file: No such file or directory
libcuda.dylib: cannot open shared object file: No such file or directory
/usr/lib64/libcuda.so.1: cannot open shared object file: No such file or directory
/usr/lib64/libcuda.dylib: cannot open shared object file: No such file or directory
If you are not interested in CUDA-aware support, then run with
--mca opal_warn_on_missing_libcuda 0 to suppress this message.  If you are interested
in CUDA-aware support, then try setting LD_LIBRARY_PATH to the location
of libcuda.so.1 to get passed this issue.
--------------------------------------------------------------------------
--------------------------------------------------------------------------
No OpenFabrics connection schemes reported that they were able to be
used on a specific port.  As such, the openib BTL (OpenFabrics
support) will be disabled for this port.

  Local host:           d-3-5-3
  Local device:         mlx5_1
  Local port:           1
  CPCs attempted:       rdmacm, udcm
--------------------------------------------------------------------------

*************** JDFTx 1.6.0 (git hash 42ebbcc2) ***************

Start date and time: Sun Feb  6 13:34:27 2022
Executable jdftx with command-line: -i Alkali.in
Running on hosts (process indices):  d-3-5-3 (0-18)
Divided in process groups (process indices):  0 (0)  1 (1)  2 (2)  3 (3)  4 (4)  5 (5)  6 (6)  7 (7)  8 (8)  9 (9)  10 (10)  11 (11)  12 (12)  13 (13)  14 (14)  15 (15)  16 (16)  17 (17)  18 (18)
Resource initialization completed at t[s]:      0.00
Run totals: 19 processes, 48 threads, 0 GPUs


Input parsed successfully to the following command list (including defaults):

basis kpoint-dependent
coords-type Lattice
core-overlap-check vector
coulomb-interaction Slab 001
davidson-band-ratio 1.1
dump End None
dump-name $INPUT.$VAR
elec-cutoff 20
elec-eigen-algo Davidson
elec-ex-corr gga-PBE
elec-initial-magnetization 0.820000 yes
elec-smearing Fermi 1e-05
electronic-minimize  \
	dirUpdateScheme      FletcherReeves \
	linminMethod         DirUpdateRecommended \
	nIterations          100 \
	history              15 \
	knormThreshold       0 \
	energyDiffThreshold  1e-08 \
	nEnergyDiff          2 \
	alphaTstart          1 \
	alphaTmin            1e-10 \
	updateTestStepSize   yes \
	alphaTreduceFactor   0.1 \
	alphaTincreaseFactor 3 \
	nAlphaAdjustMax      3 \
	wolfeEnergy          0.0001 \
	wolfeGradient        0.9 \
	fdTest               no
electronic-scf  \
	nIterations	10000 \
	energyDiffThreshold	1e-08 \
	residualThreshold	1e-07 \
	mixFraction	0.5 \
	qMetric	0.8 \
	history	10 \
	nEigSteps	2 \
	eigDiffThreshold	1e-08 \
	mixedVariable	Density \
	qKerker	0.8 \
	qKappa	-1 \
	verbose	no \
	mixFractionMag	1.5
exchange-regularization WignerSeitzTruncated
fluid None
fluid-ex-corr (null) lda-PZ
fluid-gummel-loop 10 1.000000e-05
fluid-minimize  \
	dirUpdateScheme      PolakRibiere \
	linminMethod         DirUpdateRecommended \
	nIterations          100 \
	history              15 \
	knormThreshold       0 \
	energyDiffThreshold  0 \
	nEnergyDiff          2 \
	alphaTstart          1 \
	alphaTmin            1e-10 \
	updateTestStepSize   yes \
	alphaTreduceFactor   0.1 \
	alphaTincreaseFactor 3 \
	nAlphaAdjustMax      3 \
	wolfeEnergy          0.0001 \
	wolfeGradient        0.9 \
	fdTest               no
fluid-solvent H2O 55.338 ScalarEOS \
	epsBulk 78.4 \
	pMol 0.92466 \
	epsInf 1.77 \
	Pvap 1.06736e-10 \
	sigmaBulk 4.62e-05 \
	Rvdw 2.61727 \
	Res 1.42 \
	tauNuc 343133 \
	poleEl 15 7 1
forces-output-coords Positions
ion Cs   0.000000000000000   0.000000000000000   0.000000000000000 0
ion-species SG15/$ID_ONCV_PBE.upf
ion-width 0
ionic-minimize  \
	dirUpdateScheme      L-BFGS \
	linminMethod         DirUpdateRecommended \
	nIterations          0 \
	history              15 \
	knormThreshold       0.0001 \
	energyDiffThreshold  1e-06 \
	nEnergyDiff          2 \
	alphaTstart          1 \
	alphaTmin            1e-10 \
	updateTestStepSize   yes \
	alphaTreduceFactor   0.1 \
	alphaTincreaseFactor 3 \
	nAlphaAdjustMax      3 \
	wolfeEnergy          0.0001 \
	wolfeGradient        0.9 \
	fdTest               no
kpoint   0.000000000000   0.000000000000   0.000000000000  1.00000000000000
kpoint-folding 12 12 1 
latt-move-scale 1 1 1
latt-scale 4 4 1 
lattice  \
	   4.727486978767153   -2.363743489383575    0.000000000000000  \
	  -0.000000000000000    4.094123819672498    0.000000000000000  \
	   0.000000000000000    0.000000000000000   40.000000000000000 
lattice-minimize  \
	dirUpdateScheme      L-BFGS \
	linminMethod         DirUpdateRecommended \
	nIterations          0 \
	history              15 \
	knormThreshold       0 \
	energyDiffThreshold  1e-06 \
	nEnergyDiff          2 \
	alphaTstart          1 \
	alphaTmin            1e-10 \
	updateTestStepSize   yes \
	alphaTreduceFactor   0.1 \
	alphaTincreaseFactor 3 \
	nAlphaAdjustMax      3 \
	wolfeEnergy          0.0001 \
	wolfeGradient        0.9 \
	fdTest               no
lcao-params -1 1e-06 1e-05
pcm-variant GLSSA13
spintype z-spin
subspace-rotation-factor 1 yes
symmetries automatic
symmetry-threshold 0.0001



---------- Setting up symmetries ----------

Found 24 point-group symmetries of the bravais lattice
Found 24 space-group symmetries with basis
Applied RMS atom displacement 0 bohrs to make symmetries exact.

---------- Initializing the Grid ----------
R = 
[      18.9099     -9.45497            0  ]
[            0      16.3765            0  ]
[            0            0           40  ]
unit cell volume = 12387.1
G =
[   0.332269   0.191835         -0  ]
[          0   0.383671         -0  ]
[         -0         -0    0.15708  ]
Minimum fftbox size, Smin = [  80  80  164  ]
Chosen fftbox size, S = [  80  80  168  ]

---------- Exchange Correlation functional ----------
Initalized PBE GGA exchange.
Initalized PBE GGA correlation.

---------- Setting up pseudopotentials ----------
Width of ionic core gaussian charges (only for fluid interactions / plotting) set to 0

Reading pseudopotential file '/home/gridsan/aligho/DFT/build-Nov24/pseudopotentials/SG15/Cs_ONCV_PBE.upf':
  'Cs' pseudopotential, 'PBE' functional
  Generated using ONCVPSP code by D. R. Hamann
  Author: Martin Schlipf and Francois Gygi  Date: 150915.
  9 valence electrons, 3 orbitals, 6 projectors, 2414 radial grid points, with lMax = 2
  Transforming local potential to a uniform radial grid of dG=0.02 with 1489 points.
  Transforming nonlocal projectors to a uniform radial grid of dG=0.02 with 432 points.
    5S    l: 0   occupation:  2.0   eigenvalue: -0.982388
    5P    l: 1   occupation:  6.0   eigenvalue: -0.496786
    6S    l: 0   occupation:  1.0   eigenvalue: -0.076670
  Transforming atomic orbitals to a uniform radial grid of dG=0.02 with 432 points.
  Core radius for overlap checks: 2.06 bohrs.
  Reading pulay file /home/gridsan/aligho/DFT/build-Nov24/pseudopotentials/SG15/Cs_ONCV_PBE.pulay ... using dE_dnG = -1.008762e-04 computed for Ecut = 20.

Initialized 1 species with 1 total atoms.

Folded 1 k-points by 12x12x1 to 144 k-points.

---------- Setting up k-points, bands, fillings ----------
Reduced to 19 k-points under symmetry. 
Computing the number of bands and number of electrons
Calculating initial fillings.
nElectrons:   9.000000   nBands: 6   nStates: 38

----- Setting up reduced wavefunction bases (one per k-point) -----
average nbasis = 52924.021 , ideal nbasis = 52918.836

---------- Setting up coulomb interaction ----------
Initialized slab truncation along lattice direction 001

---------- Setting up 2D ewald sum ----------
Optimum gaussian width for ewald sums = 10.498040 bohr.
Real space sums over 289 unit cells with max indices [  8  8  0  ]
Reciprocal space sums over 81 terms with max indices [  4  4  0  ]

---------- Allocating electronic variables ----------
Initializing wave functions:  linear combination of atomic orbitals
Note: number of bands (6) exceeds available atomic orbitals (5)
Cs pseudo-atom occupations:   s ( 2 1 )  p ( 6 )
[d-3-5-3:05186] 18 more processes have sent help message help-mpi-common-cuda.txt / dlopen failed
[d-3-5-3:05186] Set MCA parameter "orte_base_help_aggregate" to 0 to see all help / error messages
[d-3-5-3:05186] 18 more processes have sent help message help-mpi-btl-openib-cpc-base.txt / no cpcs for port
	FillingsUpdate:  mu: -0.077446394  nElectrons: 9.000000  magneticMoment: [ Abs: 0.82000  Tot: +0.82000 ]
LCAOMinimize: Iter:   0  F: -20.1691795571273609  |grad|_K:  2.698e-06  alpha:  1.000e+00
	FillingsUpdate:  mu: -0.077445841  nElectrons: 9.000000  magneticMoment: [ Abs: 0.82000  Tot: +0.82000 ]
LCAOMinimize: Iter:   1  F: -20.1691795620728307  |grad|_K:  1.258e-08  alpha:  9.933e-01  linmin: -4.313e-03  cgtest:  9.708e-02  t[s]:     15.10
LCAOMinimize: Encountered beta<0, resetting CG.
LCAOMinimize: 	Wrong curvature in test step, increasing alphaT to 2.980036e+00.
	FillingsUpdate:  mu: -0.077445842  nElectrons: 9.000000  magneticMoment: [ Abs: 0.82000  Tot: +0.82000 ]
LCAOMinimize: Iter:   2  F: -20.1691795620730510  |grad|_K:  7.963e-11  alpha: -3.008e+01  linmin: -6.986e-02  cgtest:  7.414e-01  t[s]:     19.13
LCAOMinimize: Encountered beta<0, resetting CG.
LCAOMinimize: Converged (|Delta F|<1.000000e-06 for 2 iters).


---- Citations for features of the code used in this run ----

   Software package:
      R. Sundararaman, K. Letchworth-Weaver, K.A. Schwarz, D. Gunceler, Y. Ozhabes and T.A. Arias, 'JDFTx: software for joint density-functional theory', SoftwareX 6, 278 (2017)

   gga-PBE exchange-correlation functional:
      J.P. Perdew, K. Burke and M. Ernzerhof, Phys. Rev. Lett. 77, 3865 (1996)

   Pseudopotentials:
      M Schlipf and F Gygi, Comput. Phys. Commun. 196, 36 (2015)

   Truncated Coulomb potentials:
      R. Sundararaman and T.A. Arias, Phys. Rev. B 87, 165122 (2013)

This list may not be complete. Please suggest additional citations or
report any other bugs at https://github.com/shankar1729/jdftx/issues

Initialization completed successfully at t[s]:     19.39


-------- Electronic minimization -----------
Will mix electronic density at each iteration.
	FillingsUpdate:  mu: -0.077445842  nElectrons: 9.000000  magneticMoment: [ Abs: 0.82000  Tot: +0.82000 ]
	FillingsUpdate:  mu: -0.077578593  nElectrons: 9.000000  magneticMoment: [ Abs: 0.82000  Tot: +0.82000 ]
SCF: Cycle:  0   F: -20.169353587805539   dF: -1.740e-04   |Residual|: 1.678e-03   |deigs|: 1.710e-01  t[s]:     27.60
	FillingsUpdate:  mu: -0.077571938  nElectrons: 9.000000  magneticMoment: [ Abs: 0.82490  Tot: +0.82000 ]
SCF: Cycle:  1   F: -20.169360347888432   dF: -6.760e-06   |Residual|: 4.924e-04   |deigs|: 8.010e-03  t[s]:     34.02
	FillingsUpdate:  mu: -0.077555368  nElectrons: 9.000000  magneticMoment: [ Abs: 0.82494  Tot: +0.82000 ]
SCF: Cycle:  2   F: -20.169362429129212   dF: -2.081e-06   |Residual|: 2.967e-04   |deigs|: 1.250e-03  t[s]:     40.57
	FillingsUpdate:  mu: -0.077541366  nElectrons: 9.000000  magneticMoment: [ Abs: 0.82579  Tot: +0.82000 ]
SCF: Cycle:  3   F: -20.169363492638794   dF: -1.064e-06   |Residual|: 2.297e-04   |deigs|: 6.295e-04  t[s]:     47.19
	FillingsUpdate:  mu: -0.077506631  nElectrons: 9.000000  magneticMoment: [ Abs: 0.82586  Tot: +0.82000 ]
SCF: Cycle:  4   F: -20.169364343509208   dF: -8.509e-07   |Residual|: 1.800e-04   |deigs|: 5.597e-04  t[s]:     53.92
	FillingsUpdate:  mu: -0.077471261  nElectrons: 9.000000  magneticMoment: [ Abs: 0.82585  Tot: +0.82000 ]
SCF: Cycle:  5   F: -20.169364847948966   dF: -5.044e-07   |Residual|: 1.451e-04   |deigs|: 5.176e-04  t[s]:     60.73
	FillingsUpdate:  mu: -0.077402529  nElectrons: 9.000000  magneticMoment: [ Abs: 0.82583  Tot: +0.82000 ]
SCF: Cycle:  6   F: -20.169365092711281   dF: -2.448e-07   |Residual|: 1.024e-04   |deigs|: 2.999e-04  t[s]:     67.69
	FillingsUpdate:  mu: -0.077350201  nElectrons: 9.000000  magneticMoment: [ Abs: 0.82576  Tot: +0.82000 ]
SCF: Cycle:  7   F: -20.169365328122929   dF: -2.354e-07   |Residual|: 8.322e-05   |deigs|: 3.209e-04  t[s]:     74.83
	FillingsUpdate:  mu: -0.077326239  nElectrons: 9.000000  magneticMoment: [ Abs: 0.82579  Tot: +0.82000 ]
SCF: Cycle:  8   F: -20.169365470690146   dF: -1.426e-07   |Residual|: 7.039e-05   |deigs|: 3.362e-04  t[s]:     82.09
	FillingsUpdate:  mu: -0.077283651  nElectrons: 9.000000  magneticMoment: [ Abs: 0.82580  Tot: +0.82000 ]
SCF: Cycle:  9   F: -20.169365596604528   dF: -1.259e-07   |Residual|: 5.743e-05   |deigs|: 2.548e-04  t[s]:     89.35
	FillingsUpdate:  mu: -0.077244300  nElectrons: 9.000000  magneticMoment: [ Abs: 0.82578  Tot: +0.82000 ]
SCF: Cycle: 10   F: -20.169365582519106   dF: +1.409e-08   |Residual|: 4.748e-05   |deigs|: 1.273e-04  t[s]:     96.85
	FillingsUpdate:  mu: -0.077205689  nElectrons: 9.000000  magneticMoment: [ Abs: 0.82592  Tot: +0.82000 ]
SCF: Cycle: 11   F: -20.169365466186452   dF: +1.163e-07   |Residual|: 4.345e-05   |deigs|: 1.075e-04  t[s]:    104.35
	FillingsUpdate:  mu: -0.077183056  nElectrons: 9.000000  magneticMoment: [ Abs: 0.82606  Tot: +0.82000 ]
SCF: Cycle: 12   F: -20.169365164013175   dF: +3.022e-07   |Residual|: 3.980e-05   |deigs|: 9.175e-05  t[s]:    111.80
	FillingsUpdate:  mu: -0.077175667  nElectrons: 9.000000  magneticMoment: [ Abs: 0.82615  Tot: +0.82000 ]
SCF: Cycle: 13   F: -20.169365588892784   dF: -4.249e-07   |Residual|: 3.731e-05   |deigs|: 5.784e-05  t[s]:    119.26
	FillingsUpdate:  mu: -0.077108949  nElectrons: 9.000000  magneticMoment: [ Abs: 0.82635  Tot: +0.82000 ]
SCF: Cycle: 14   F: -20.169365708272409   dF: -1.194e-07   |Residual|: 3.148e-05   |deigs|: 7.735e-05  t[s]:    126.60
	FillingsUpdate:  mu: -0.077004896  nElectrons: 9.000000  magneticMoment: [ Abs: 0.82635  Tot: +0.82000 ]
SCF: Cycle: 15   F: -20.169365416893850   dF: +2.914e-07   |Residual|: 3.248e-05   |deigs|: 1.251e-04  t[s]:    133.99
	FillingsUpdate:  mu: -0.076974863  nElectrons: 9.000000  magneticMoment: [ Abs: 0.82608  Tot: +0.82000 ]
SCF: Cycle: 16   F: -20.169365751310810   dF: -3.344e-07   |Residual|: 2.295e-05   |deigs|: 4.804e-05  t[s]:    141.42
	FillingsUpdate:  mu: -0.076965388  nElectrons: 9.000000  magneticMoment: [ Abs: 0.82589  Tot: +0.82000 ]
SCF: Cycle: 17   F: -20.169365731701138   dF: +1.961e-08   |Residual|: 1.641e-05   |deigs|: 4.608e-05  t[s]:    148.67
	FillingsUpdate:  mu: -0.076955780  nElectrons: 9.000000  magneticMoment: [ Abs: 0.82585  Tot: +0.82000 ]
SCF: Cycle: 18   F: -20.169365824293841   dF: -9.259e-08   |Residual|: 1.185e-05   |deigs|: 4.804e-05  t[s]:    156.08
	FillingsUpdate:  mu: -0.076953990  nElectrons: 9.000000  magneticMoment: [ Abs: 0.82581  Tot: +0.82000 ]
SCF: Cycle: 19   F: -20.169365853797363   dF: -2.950e-08   |Residual|: 7.965e-06   |deigs|: 4.991e-05  t[s]:    163.45
	FillingsUpdate:  mu: -0.076954429  nElectrons: 9.000000  magneticMoment: [ Abs: 0.82583  Tot: +0.82000 ]
SCF: Cycle: 20   F: -20.169365866946336   dF: -1.315e-08   |Residual|: 6.027e-06   |deigs|: 4.352e-05  t[s]:    170.80
	FillingsUpdate:  mu: -0.076962879  nElectrons: 9.000000  magneticMoment: [ Abs: 0.82581  Tot: +0.82000 ]
SCF: Cycle: 21   F: -20.169365884160392   dF: -1.721e-08   |Residual|: 4.692e-06   |deigs|: 3.523e-05  t[s]:    178.24
	FillingsUpdate:  mu: -0.076967805  nElectrons: 9.000000  magneticMoment: [ Abs: 0.82579  Tot: +0.82000 ]
SCF: Cycle: 22   F: -20.169365889682698   dF: -5.522e-09   |Residual|: 4.045e-06   |deigs|: 2.679e-05  t[s]:    185.20
	FillingsUpdate:  mu: -0.076969161  nElectrons: 9.000000  magneticMoment: [ Abs: 0.82578  Tot: +0.82000 ]
SCF: Cycle: 23   F: -20.169365871504208   dF: +1.818e-08   |Residual|: 3.291e-06   |deigs|: 1.983e-05  t[s]:    192.70
	FillingsUpdate:  mu: -0.076968133  nElectrons: 9.000000  magneticMoment: [ Abs: 0.82579  Tot: +0.82000 ]
SCF: Cycle: 24   F: -20.169365889950235   dF: -1.845e-08   |Residual|: 1.993e-06   |deigs|: 1.471e-05  t[s]:    199.95
	FillingsUpdate:  mu: -0.076967751  nElectrons: 9.000000  magneticMoment: [ Abs: 0.82579  Tot: +0.82000 ]
SCF: Cycle: 25   F: -20.169365888038712   dF: +1.912e-09   |Residual|: 1.538e-06   |deigs|: 1.003e-05  t[s]:    206.74
	FillingsUpdate:  mu: -0.076967643  nElectrons: 9.000000  magneticMoment: [ Abs: 0.82579  Tot: +0.82000 ]
SCF: Cycle: 26   F: -20.169365890939496   dF: -2.901e-09   |Residual|: 1.223e-06   |deigs|: 8.502e-06  t[s]:    213.94
	FillingsUpdate:  mu: -0.076968081  nElectrons: 9.000000  magneticMoment: [ Abs: 0.82578  Tot: +0.82000 ]
SCF: Cycle: 27   F: -20.169365891082379   dF: -1.429e-10   |Residual|: 8.679e-07   |deigs|: 8.269e-06  t[s]:    221.33
SCF: Converged (|Delta E|<1.000000e-08 for 2 iters).


# Ionic positions in lattice coordinates:
ion Cs   0.000000000000000   0.000000000000000   0.000000000000000 0

# Forces in Lattice coordinates:
force Cs   0.000000000000000  -0.000000000000000   0.000000000000000 0

# Energy components:
   Eewald =       -9.0240130501663280
       EH =        7.0328850963568179
     Eloc =      -23.6205459982880441
      Enl =        3.4382655946575644
   Epulay =        0.0000000422266766
      Exc =       -3.1108708442575965
       KE =        5.1149135307063816
-------------------------------------
     Etot =      -20.1693656287645275
       TS =        0.0000002623178496
-------------------------------------
        F =      -20.1693658910823785

IonicMinimize: Iter:   0  F: -20.169365891082379  |grad|_K:  0.000e+00  t[s]:    221.74
IonicMinimize: Converged (|grad|_K<1.000000e-04).

#--- Lowdin population analysis ---
# oxidation-state Cs +0.002
# magnetic-moments Cs +0.818

End date and time: Sun Feb  6 13:38:09 2022  (Duration: 0-0:03:41.81)
Done!
