The alkali metal is Cs
scale=2
magnetization=-0.64
--------------------------------------------------------------------------
The library attempted to open the following supporting CUDA libraries,
but each of them failed.  CUDA-aware support is disabled.
libcuda.so.1: cannot open shared object file: No such file or directory
libcuda.dylib: cannot open shared object file: No such file or directory
/usr/lib64/libcuda.so.1: cannot open shared object file: No such file or directory
/usr/lib64/libcuda.dylib: cannot open shared object file: No such file or directory
If you are not interested in CUDA-aware support, then run with
--mca opal_warn_on_missing_libcuda 0 to suppress this message.  If you are interested
in CUDA-aware support, then try setting LD_LIBRARY_PATH to the location
of libcuda.so.1 to get passed this issue.
--------------------------------------------------------------------------
--------------------------------------------------------------------------
No OpenFabrics connection schemes reported that they were able to be
used on a specific port.  As such, the openib BTL (OpenFabrics
support) will be disabled for this port.

  Local host:           d-16-7-4
  Local device:         mlx5_1
  Local port:           1
  CPCs attempted:       rdmacm, udcm
--------------------------------------------------------------------------

*************** JDFTx 1.6.0 (git hash 42ebbcc2) ***************

Start date and time: Sun Feb  6 13:09:10 2022
Executable jdftx with command-line: -i Alkali.in
Running on hosts (process indices):  d-16-7-4 (0-18)
Divided in process groups (process indices):  0 (0)  1 (1)  2 (2)  3 (3)  4 (4)  5 (5)  6 (6)  7 (7)  8 (8)  9 (9)  10 (10)  11 (11)  12 (12)  13 (13)  14 (14)  15 (15)  16 (16)  17 (17)  18 (18)
Resource initialization completed at t[s]:      0.00
Run totals: 19 processes, 48 threads, 0 GPUs


Input parsed successfully to the following command list (including defaults):

basis kpoint-dependent
coords-type Lattice
core-overlap-check vector
coulomb-interaction Slab 001
davidson-band-ratio 1.1
dump End None
dump-name $INPUT.$VAR
elec-cutoff 20
elec-eigen-algo Davidson
elec-ex-corr gga-PBE
elec-initial-magnetization -0.640000 yes
elec-smearing Fermi 1e-05
electronic-minimize  \
	dirUpdateScheme      FletcherReeves \
	linminMethod         DirUpdateRecommended \
	nIterations          100 \
	history              15 \
	knormThreshold       0 \
	energyDiffThreshold  1e-08 \
	nEnergyDiff          2 \
	alphaTstart          1 \
	alphaTmin            1e-10 \
	updateTestStepSize   yes \
	alphaTreduceFactor   0.1 \
	alphaTincreaseFactor 3 \
	nAlphaAdjustMax      3 \
	wolfeEnergy          0.0001 \
	wolfeGradient        0.9 \
	fdTest               no
electronic-scf  \
	nIterations	10000 \
	energyDiffThreshold	1e-08 \
	residualThreshold	1e-07 \
	mixFraction	0.5 \
	qMetric	0.8 \
	history	10 \
	nEigSteps	2 \
	eigDiffThreshold	1e-08 \
	mixedVariable	Density \
	qKerker	0.8 \
	qKappa	-1 \
	verbose	no \
	mixFractionMag	1.5
exchange-regularization WignerSeitzTruncated
fluid None
fluid-ex-corr (null) lda-PZ
fluid-gummel-loop 10 1.000000e-05
fluid-minimize  \
	dirUpdateScheme      PolakRibiere \
	linminMethod         DirUpdateRecommended \
	nIterations          100 \
	history              15 \
	knormThreshold       0 \
	energyDiffThreshold  0 \
	nEnergyDiff          2 \
	alphaTstart          1 \
	alphaTmin            1e-10 \
	updateTestStepSize   yes \
	alphaTreduceFactor   0.1 \
	alphaTincreaseFactor 3 \
	nAlphaAdjustMax      3 \
	wolfeEnergy          0.0001 \
	wolfeGradient        0.9 \
	fdTest               no
fluid-solvent H2O 55.338 ScalarEOS \
	epsBulk 78.4 \
	pMol 0.92466 \
	epsInf 1.77 \
	Pvap 1.06736e-10 \
	sigmaBulk 4.62e-05 \
	Rvdw 2.61727 \
	Res 1.42 \
	tauNuc 343133 \
	poleEl 15 7 1
forces-output-coords Positions
ion Cs   0.000000000000000   0.000000000000000   0.000000000000000 0
ion-species SG15/$ID_ONCV_PBE.upf
ion-width 0
ionic-minimize  \
	dirUpdateScheme      L-BFGS \
	linminMethod         DirUpdateRecommended \
	nIterations          0 \
	history              15 \
	knormThreshold       0.0001 \
	energyDiffThreshold  1e-06 \
	nEnergyDiff          2 \
	alphaTstart          1 \
	alphaTmin            1e-10 \
	updateTestStepSize   yes \
	alphaTreduceFactor   0.1 \
	alphaTincreaseFactor 3 \
	nAlphaAdjustMax      3 \
	wolfeEnergy          0.0001 \
	wolfeGradient        0.9 \
	fdTest               no
kpoint   0.000000000000   0.000000000000   0.000000000000  1.00000000000000
kpoint-folding 12 12 1 
latt-move-scale 1 1 1
latt-scale 2 2 1 
lattice  \
	   4.727486978767153   -2.363743489383575    0.000000000000000  \
	  -0.000000000000000    4.094123819672498    0.000000000000000  \
	   0.000000000000000    0.000000000000000   40.000000000000000 
lattice-minimize  \
	dirUpdateScheme      L-BFGS \
	linminMethod         DirUpdateRecommended \
	nIterations          0 \
	history              15 \
	knormThreshold       0 \
	energyDiffThreshold  1e-06 \
	nEnergyDiff          2 \
	alphaTstart          1 \
	alphaTmin            1e-10 \
	updateTestStepSize   yes \
	alphaTreduceFactor   0.1 \
	alphaTincreaseFactor 3 \
	nAlphaAdjustMax      3 \
	wolfeEnergy          0.0001 \
	wolfeGradient        0.9 \
	fdTest               no
lcao-params -1 1e-06 1e-05
pcm-variant GLSSA13
spintype z-spin
subspace-rotation-factor 1 yes
symmetries automatic
symmetry-threshold 0.0001



---------- Setting up symmetries ----------

Found 24 point-group symmetries of the bravais lattice
Found 24 space-group symmetries with basis
Applied RMS atom displacement 0 bohrs to make symmetries exact.

---------- Initializing the Grid ----------
R = 
[      9.45497     -4.72749            0  ]
[            0      8.18825            0  ]
[            0            0           40  ]
unit cell volume = 3096.79
G =
[   0.664538   0.383671         -0  ]
[          0   0.767342         -0  ]
[         -0         -0    0.15708  ]
Minimum fftbox size, Smin = [  40  40  164  ]
Chosen fftbox size, S = [  40  40  168  ]

---------- Exchange Correlation functional ----------
Initalized PBE GGA exchange.
Initalized PBE GGA correlation.

---------- Setting up pseudopotentials ----------
Width of ionic core gaussian charges (only for fluid interactions / plotting) set to 0

Reading pseudopotential file '/home/gridsan/aligho/DFT/build-Nov24/pseudopotentials/SG15/Cs_ONCV_PBE.upf':
  'Cs' pseudopotential, 'PBE' functional
  Generated using ONCVPSP code by D. R. Hamann
  Author: Martin Schlipf and Francois Gygi  Date: 150915.
  9 valence electrons, 3 orbitals, 6 projectors, 2414 radial grid points, with lMax = 2
  Transforming local potential to a uniform radial grid of dG=0.02 with 1489 points.
  Transforming nonlocal projectors to a uniform radial grid of dG=0.02 with 432 points.
    5S    l: 0   occupation:  2.0   eigenvalue: -0.982388
    5P    l: 1   occupation:  6.0   eigenvalue: -0.496786
    6S    l: 0   occupation:  1.0   eigenvalue: -0.076670
  Transforming atomic orbitals to a uniform radial grid of dG=0.02 with 432 points.
  Core radius for overlap checks: 2.06 bohrs.
  Reading pulay file /home/gridsan/aligho/DFT/build-Nov24/pseudopotentials/SG15/Cs_ONCV_PBE.pulay ... using dE_dnG = -1.008762e-04 computed for Ecut = 20.

Initialized 1 species with 1 total atoms.

Folded 1 k-points by 12x12x1 to 144 k-points.

---------- Setting up k-points, bands, fillings ----------
Reduced to 19 k-points under symmetry. 
Computing the number of bands and number of electrons
Calculating initial fillings.
nElectrons:   9.000000   nBands: 6   nStates: 38

----- Setting up reduced wavefunction bases (one per k-point) -----
average nbasis = 13230.521 , ideal nbasis = 13229.709

---------- Setting up coulomb interaction ----------
Initialized slab truncation along lattice direction 001

---------- Setting up 2D ewald sum ----------
Optimum gaussian width for ewald sums = 5.249020 bohr.
Real space sums over 289 unit cells with max indices [  8  8  0  ]
Reciprocal space sums over 81 terms with max indices [  4  4  0  ]

---------- Allocating electronic variables ----------
Initializing wave functions:  linear combination of atomic orbitals
Note: number of bands (6) exceeds available atomic orbitals (5)
Cs pseudo-atom occupations:   s ( 2 1 )  p ( 6 )
	FillingsUpdate:  mu: -0.094086814  nElectrons: 9.000000  magneticMoment: [ Abs: 0.64000  Tot: -0.64000 ]
LCAOMinimize: Iter:   0  F: -20.1729650110769576  |grad|_K:  2.513e-05  alpha:  1.000e+00
	FillingsUpdate:  mu: -0.094076173  nElectrons: 9.000000  magneticMoment: [ Abs: 0.64000  Tot: -0.64000 ]
LCAOMinimize: Iter:   1  F: -20.1729654339297433  |grad|_K:  2.358e-07  alpha:  9.788e-01  linmin: -2.956e-02  cgtest:  2.502e-01  t[s]:      4.59
LCAOMinimize: Encountered beta<0, resetting CG.
[d-16-7-4:35721] 18 more processes have sent help message help-mpi-common-cuda.txt / dlopen failed
[d-16-7-4:35721] Set MCA parameter "orte_base_help_aggregate" to 0 to see all help / error messages
[d-16-7-4:35721] 18 more processes have sent help message help-mpi-btl-openib-cpc-base.txt / no cpcs for port
	FillingsUpdate:  mu: -0.094076261  nElectrons: 9.000000  magneticMoment: [ Abs: 0.64000  Tot: -0.64000 ]
LCAOMinimize: Iter:   2  F: -20.1729654339675122  |grad|_K:  2.410e-09  alpha:  1.010e+00  linmin:  1.268e-01  cgtest: -9.069e-01  t[s]:      5.79
LCAOMinimize: Converged (|Delta F|<1.000000e-06 for 2 iters).


---- Citations for features of the code used in this run ----

   Software package:
      R. Sundararaman, K. Letchworth-Weaver, K.A. Schwarz, D. Gunceler, Y. Ozhabes and T.A. Arias, 'JDFTx: software for joint density-functional theory', SoftwareX 6, 278 (2017)

   gga-PBE exchange-correlation functional:
      J.P. Perdew, K. Burke and M. Ernzerhof, Phys. Rev. Lett. 77, 3865 (1996)

   Pseudopotentials:
      M Schlipf and F Gygi, Comput. Phys. Commun. 196, 36 (2015)

   Truncated Coulomb potentials:
      R. Sundararaman and T.A. Arias, Phys. Rev. B 87, 165122 (2013)

This list may not be complete. Please suggest additional citations or
report any other bugs at https://github.com/shankar1729/jdftx/issues

Initialization completed successfully at t[s]:      5.88


-------- Electronic minimization -----------
Will mix electronic density at each iteration.
	FillingsUpdate:  mu: -0.094076261  nElectrons: 9.000000  magneticMoment: [ Abs: 0.64000  Tot: -0.64000 ]
	FillingsUpdate:  mu: -0.107598020  nElectrons: 9.000000  magneticMoment: [ Abs: 0.64000  Tot: -0.64000 ]
SCF: Cycle:  0   F: -20.182414656545095   dF: -9.449e-03   |Residual|: 1.670e-02   |deigs|: 1.880e-01  t[s]:      8.27
	FillingsUpdate:  mu: -0.107747533  nElectrons: 9.000000  magneticMoment: [ Abs: 0.64000  Tot: -0.64000 ]
SCF: Cycle:  1   F: -20.183241726201118   dF: -8.271e-04   |Residual|: 1.264e-02   |deigs|: 5.955e-03  t[s]:     10.13
	FillingsUpdate:  mu: -0.104787989  nElectrons: 9.000000  magneticMoment: [ Abs: 0.64728  Tot: -0.64000 ]
SCF: Cycle:  2   F: -20.183637033230017   dF: -3.953e-04   |Residual|: 7.014e-03   |deigs|: 2.100e-03  t[s]:     12.01
	FillingsUpdate:  mu: -0.102233811  nElectrons: 9.000000  magneticMoment: [ Abs: 0.64000  Tot: -0.64000 ]
SCF: Cycle:  3   F: -20.183819708810127   dF: -1.827e-04   |Residual|: 4.383e-03   |deigs|: 3.164e-03  t[s]:     13.93
	FillingsUpdate:  mu: -0.099271605  nElectrons: 9.000000  magneticMoment: [ Abs: 0.64006  Tot: -0.64000 ]
SCF: Cycle:  4   F: -20.183905784600984   dF: -8.608e-05   |Residual|: 3.249e-03   |deigs|: 3.364e-03  t[s]:     15.95
	FillingsUpdate:  mu: -0.096421416  nElectrons: 9.000000  magneticMoment: [ Abs: 0.64404  Tot: -0.64000 ]
SCF: Cycle:  5   F: -20.183946968966698   dF: -4.118e-05   |Residual|: 2.724e-03   |deigs|: 3.638e-03  t[s]:     17.88
	FillingsUpdate:  mu: -0.093223891  nElectrons: 9.000000  magneticMoment: [ Abs: 0.65410  Tot: -0.64000 ]
SCF: Cycle:  6   F: -20.183942851956026   dF: +4.117e-06   |Residual|: 1.962e-03   |deigs|: 3.830e-03  t[s]:     19.82
	FillingsUpdate:  mu: -0.090529080  nElectrons: 9.000000  magneticMoment: [ Abs: 0.65359  Tot: -0.64000 ]
SCF: Cycle:  7   F: -20.184009096552384   dF: -6.624e-05   |Residual|: 1.673e-03   |deigs|: 3.127e-03  t[s]:     21.88
	FillingsUpdate:  mu: -0.091006514  nElectrons: 9.000000  magneticMoment: [ Abs: 0.64192  Tot: -0.64000 ]
SCF: Cycle:  8   F: -20.184036720266668   dF: -2.762e-05   |Residual|: 1.468e-03   |deigs|: 8.055e-04  t[s]:     23.87
	FillingsUpdate:  mu: -0.088640440  nElectrons: 9.000000  magneticMoment: [ Abs: 0.64412  Tot: -0.64000 ]
SCF: Cycle:  9   F: -20.184026906271029   dF: +9.814e-06   |Residual|: 1.132e-03   |deigs|: 2.490e-03  t[s]:     25.95
	FillingsUpdate:  mu: -0.086555086  nElectrons: 9.000000  magneticMoment: [ Abs: 0.64679  Tot: -0.64000 ]
SCF: Cycle: 10   F: -20.184025573655479   dF: +1.333e-06   |Residual|: 9.164e-04   |deigs|: 2.250e-03  t[s]:     28.01
	FillingsUpdate:  mu: -0.085737881  nElectrons: 9.000000  magneticMoment: [ Abs: 0.64613  Tot: -0.64000 ]
SCF: Cycle: 11   F: -20.184046466700984   dF: -2.089e-05   |Residual|: 8.750e-04   |deigs|: 1.046e-03  t[s]:     30.12
	FillingsUpdate:  mu: -0.084052325  nElectrons: 9.000000  magneticMoment: [ Abs: 0.64799  Tot: -0.64000 ]
SCF: Cycle: 12   F: -20.184067093115274   dF: -2.063e-05   |Residual|: 7.979e-04   |deigs|: 1.805e-03  t[s]:     32.20
	FillingsUpdate:  mu: -0.081518308  nElectrons: 9.000000  magneticMoment: [ Abs: 0.64815  Tot: -0.64000 ]
SCF: Cycle: 13   F: -20.184080224394222   dF: -1.313e-05   |Residual|: 7.123e-04   |deigs|: 2.656e-03  t[s]:     34.23
	FillingsUpdate:  mu: -0.079479264  nElectrons: 9.000000  magneticMoment: [ Abs: 0.64441  Tot: -0.64000 ]
SCF: Cycle: 14   F: -20.184089533541368   dF: -9.309e-06   |Residual|: 6.522e-04   |deigs|: 2.158e-03  t[s]:     36.28
	FillingsUpdate:  mu: -0.078120302  nElectrons: 9.000000  magneticMoment: [ Abs: 0.64132  Tot: -0.64000 ]
SCF: Cycle: 15   F: -20.184097998854661   dF: -8.465e-06   |Residual|: 4.658e-04   |deigs|: 1.479e-03  t[s]:     38.39
	FillingsUpdate:  mu: -0.077146324  nElectrons: 9.000000  magneticMoment: [ Abs: 0.64147  Tot: -0.64000 ]
SCF: Cycle: 16   F: -20.184102881185126   dF: -4.882e-06   |Residual|: 3.495e-04   |deigs|: 1.221e-03  t[s]:     40.48
	FillingsUpdate:  mu: -0.076822787  nElectrons: 9.000000  magneticMoment: [ Abs: 0.64090  Tot: -0.64000 ]
SCF: Cycle: 17   F: -20.184105658709171   dF: -2.778e-06   |Residual|: 2.463e-04   |deigs|: 4.986e-04  t[s]:     42.53
	FillingsUpdate:  mu: -0.077002100  nElectrons: 9.000000  magneticMoment: [ Abs: 0.64157  Tot: -0.64000 ]
SCF: Cycle: 18   F: -20.184106863724327   dF: -1.205e-06   |Residual|: 1.729e-04   |deigs|: 4.295e-04  t[s]:     44.63
	FillingsUpdate:  mu: -0.077088780  nElectrons: 9.000000  magneticMoment: [ Abs: 0.64087  Tot: -0.64000 ]
SCF: Cycle: 19   F: -20.184108123763426   dF: -1.260e-06   |Residual|: 8.083e-05   |deigs|: 3.769e-04  t[s]:     46.65
	FillingsUpdate:  mu: -0.077211799  nElectrons: 9.000000  magneticMoment: [ Abs: 0.64060  Tot: -0.64000 ]
SCF: Cycle: 20   F: -20.184108419508242   dF: -2.957e-07   |Residual|: 4.943e-05   |deigs|: 3.610e-04  t[s]:     48.65
	FillingsUpdate:  mu: -0.077159005  nElectrons: 9.000000  magneticMoment: [ Abs: 0.64061  Tot: -0.64000 ]
SCF: Cycle: 21   F: -20.184108540539214   dF: -1.210e-07   |Residual|: 3.145e-05   |deigs|: 2.644e-04  t[s]:     50.66
	FillingsUpdate:  mu: -0.077196090  nElectrons: 9.000000  magneticMoment: [ Abs: 0.64059  Tot: -0.64000 ]
SCF: Cycle: 22   F: -20.184108645651996   dF: -1.051e-07   |Residual|: 2.315e-05   |deigs|: 2.286e-04  t[s]:     52.73
	FillingsUpdate:  mu: -0.077228680  nElectrons: 9.000000  magneticMoment: [ Abs: 0.64054  Tot: -0.64000 ]
SCF: Cycle: 23   F: -20.184108670843493   dF: -2.519e-08   |Residual|: 1.823e-05   |deigs|: 2.044e-04  t[s]:     54.81
	FillingsUpdate:  mu: -0.077247740  nElectrons: 9.000000  magneticMoment: [ Abs: 0.64050  Tot: -0.64000 ]
SCF: Cycle: 24   F: -20.184108707357115   dF: -3.651e-08   |Residual|: 1.573e-05   |deigs|: 2.043e-04  t[s]:     56.94
	FillingsUpdate:  mu: -0.077233489  nElectrons: 9.000000  magneticMoment: [ Abs: 0.64044  Tot: -0.64000 ]
SCF: Cycle: 25   F: -20.184108732055918   dF: -2.470e-08   |Residual|: 1.499e-05   |deigs|: 2.174e-04  t[s]:     58.98
	FillingsUpdate:  mu: -0.077200974  nElectrons: 9.000000  magneticMoment: [ Abs: 0.64041  Tot: -0.64000 ]
SCF: Cycle: 26   F: -20.184108744528857   dF: -1.247e-08   |Residual|: 1.115e-05   |deigs|: 1.530e-04  t[s]:     61.07
	FillingsUpdate:  mu: -0.077183854  nElectrons: 9.000000  magneticMoment: [ Abs: 0.64037  Tot: -0.64000 ]
SCF: Cycle: 27   F: -20.184108751114373   dF: -6.586e-09   |Residual|: 7.090e-06   |deigs|: 1.265e-04  t[s]:     63.17
	FillingsUpdate:  mu: -0.077193658  nElectrons: 9.000000  magneticMoment: [ Abs: 0.64031  Tot: -0.64000 ]
SCF: Cycle: 28   F: -20.184108754698677   dF: -3.584e-09   |Residual|: 4.512e-06   |deigs|: 5.471e-04  t[s]:     65.24
SCF: Converged (|Delta E|<1.000000e-08 for 2 iters).


# Ionic positions in lattice coordinates:
ion Cs   0.000000000000000   0.000000000000000   0.000000000000000 0

# Forces in Lattice coordinates:
force Cs  -0.000000000000000   0.000000000000000   0.000000000000000 0

# Energy components:
   Eewald =      -18.0480261003326561
       EH =       -1.7775628399432961
     Eloc =       -5.8030293818226113
      Enl =        3.4386685957167638
   Epulay =        0.0000000264484078
      Exc =       -3.1498266533546797
       KE =        5.1556681958813977
-------------------------------------
     Etot =      -20.1841081574066763
       TS =        0.0000005972919995
-------------------------------------
        F =      -20.1841087546986770

IonicMinimize: Iter:   0  F: -20.184108754698677  |grad|_K:  0.000e+00  t[s]:     65.36
IonicMinimize: Converged (|grad|_K<1.000000e-04).

#--- Lowdin population analysis ---
# oxidation-state Cs +0.101
# magnetic-moments Cs -0.546

End date and time: Sun Feb  6 13:10:16 2022  (Duration: 0-0:01:05.38)
Done!
scale=3
magnetization=-0.64
--------------------------------------------------------------------------
The library attempted to open the following supporting CUDA libraries,
but each of them failed.  CUDA-aware support is disabled.
libcuda.so.1: cannot open shared object file: No such file or directory
libcuda.dylib: cannot open shared object file: No such file or directory
/usr/lib64/libcuda.so.1: cannot open shared object file: No such file or directory
/usr/lib64/libcuda.dylib: cannot open shared object file: No such file or directory
If you are not interested in CUDA-aware support, then run with
--mca opal_warn_on_missing_libcuda 0 to suppress this message.  If you are interested
in CUDA-aware support, then try setting LD_LIBRARY_PATH to the location
of libcuda.so.1 to get passed this issue.
--------------------------------------------------------------------------
--------------------------------------------------------------------------
No OpenFabrics connection schemes reported that they were able to be
used on a specific port.  As such, the openib BTL (OpenFabrics
support) will be disabled for this port.

  Local host:           d-16-7-4
  Local device:         mlx5_1
  Local port:           1
  CPCs attempted:       rdmacm, udcm
--------------------------------------------------------------------------

*************** JDFTx 1.6.0 (git hash 42ebbcc2) ***************

Start date and time: Sun Feb  6 13:10:17 2022
Executable jdftx with command-line: -i Alkali.in
Running on hosts (process indices):  d-16-7-4 (0-18)
Divided in process groups (process indices):  0 (0)  1 (1)  2 (2)  3 (3)  4 (4)  5 (5)  6 (6)  7 (7)  8 (8)  9 (9)  10 (10)  11 (11)  12 (12)  13 (13)  14 (14)  15 (15)  16 (16)  17 (17)  18 (18)
Resource initialization completed at t[s]:      0.00
Run totals: 19 processes, 48 threads, 0 GPUs


Input parsed successfully to the following command list (including defaults):

basis kpoint-dependent
coords-type Lattice
core-overlap-check vector
coulomb-interaction Slab 001
davidson-band-ratio 1.1
dump End None
dump-name $INPUT.$VAR
elec-cutoff 20
elec-eigen-algo Davidson
elec-ex-corr gga-PBE
elec-initial-magnetization -0.640000 yes
elec-smearing Fermi 1e-05
electronic-minimize  \
	dirUpdateScheme      FletcherReeves \
	linminMethod         DirUpdateRecommended \
	nIterations          100 \
	history              15 \
	knormThreshold       0 \
	energyDiffThreshold  1e-08 \
	nEnergyDiff          2 \
	alphaTstart          1 \
	alphaTmin            1e-10 \
	updateTestStepSize   yes \
	alphaTreduceFactor   0.1 \
	alphaTincreaseFactor 3 \
	nAlphaAdjustMax      3 \
	wolfeEnergy          0.0001 \
	wolfeGradient        0.9 \
	fdTest               no
electronic-scf  \
	nIterations	10000 \
	energyDiffThreshold	1e-08 \
	residualThreshold	1e-07 \
	mixFraction	0.5 \
	qMetric	0.8 \
	history	10 \
	nEigSteps	2 \
	eigDiffThreshold	1e-08 \
	mixedVariable	Density \
	qKerker	0.8 \
	qKappa	-1 \
	verbose	no \
	mixFractionMag	1.5
exchange-regularization WignerSeitzTruncated
fluid None
fluid-ex-corr (null) lda-PZ
fluid-gummel-loop 10 1.000000e-05
fluid-minimize  \
	dirUpdateScheme      PolakRibiere \
	linminMethod         DirUpdateRecommended \
	nIterations          100 \
	history              15 \
	knormThreshold       0 \
	energyDiffThreshold  0 \
	nEnergyDiff          2 \
	alphaTstart          1 \
	alphaTmin            1e-10 \
	updateTestStepSize   yes \
	alphaTreduceFactor   0.1 \
	alphaTincreaseFactor 3 \
	nAlphaAdjustMax      3 \
	wolfeEnergy          0.0001 \
	wolfeGradient        0.9 \
	fdTest               no
fluid-solvent H2O 55.338 ScalarEOS \
	epsBulk 78.4 \
	pMol 0.92466 \
	epsInf 1.77 \
	Pvap 1.06736e-10 \
	sigmaBulk 4.62e-05 \
	Rvdw 2.61727 \
	Res 1.42 \
	tauNuc 343133 \
	poleEl 15 7 1
forces-output-coords Positions
ion Cs   0.000000000000000   0.000000000000000   0.000000000000000 0
ion-species SG15/$ID_ONCV_PBE.upf
ion-width 0
ionic-minimize  \
	dirUpdateScheme      L-BFGS \
	linminMethod         DirUpdateRecommended \
	nIterations          0 \
	history              15 \
	knormThreshold       0.0001 \
	energyDiffThreshold  1e-06 \
	nEnergyDiff          2 \
	alphaTstart          1 \
	alphaTmin            1e-10 \
	updateTestStepSize   yes \
	alphaTreduceFactor   0.1 \
	alphaTincreaseFactor 3 \
	nAlphaAdjustMax      3 \
	wolfeEnergy          0.0001 \
	wolfeGradient        0.9 \
	fdTest               no
kpoint   0.000000000000   0.000000000000   0.000000000000  1.00000000000000
kpoint-folding 12 12 1 
latt-move-scale 1 1 1
latt-scale 3 3 1 
lattice  \
	   4.727486978767153   -2.363743489383575    0.000000000000000  \
	  -0.000000000000000    4.094123819672498    0.000000000000000  \
	   0.000000000000000    0.000000000000000   40.000000000000000 
lattice-minimize  \
	dirUpdateScheme      L-BFGS \
	linminMethod         DirUpdateRecommended \
	nIterations          0 \
	history              15 \
	knormThreshold       0 \
	energyDiffThreshold  1e-06 \
	nEnergyDiff          2 \
	alphaTstart          1 \
	alphaTmin            1e-10 \
	updateTestStepSize   yes \
	alphaTreduceFactor   0.1 \
	alphaTincreaseFactor 3 \
	nAlphaAdjustMax      3 \
	wolfeEnergy          0.0001 \
	wolfeGradient        0.9 \
	fdTest               no
lcao-params -1 1e-06 1e-05
pcm-variant GLSSA13
spintype z-spin
subspace-rotation-factor 1 yes
symmetries automatic
symmetry-threshold 0.0001



---------- Setting up symmetries ----------

Found 24 point-group symmetries of the bravais lattice
Found 24 space-group symmetries with basis
Applied RMS atom displacement 0 bohrs to make symmetries exact.

---------- Initializing the Grid ----------
R = 
[      14.1825     -7.09123            0  ]
[            0      12.2824            0  ]
[            0            0           40  ]
unit cell volume = 6967.77
G =
[   0.443025   0.255781         -0  ]
[          0   0.511561         -0  ]
[         -0         -0    0.15708  ]
Minimum fftbox size, Smin = [  60  60  164  ]
Chosen fftbox size, S = [  60  60  168  ]

---------- Exchange Correlation functional ----------
Initalized PBE GGA exchange.
Initalized PBE GGA correlation.

---------- Setting up pseudopotentials ----------
Width of ionic core gaussian charges (only for fluid interactions / plotting) set to 0

Reading pseudopotential file '/home/gridsan/aligho/DFT/build-Nov24/pseudopotentials/SG15/Cs_ONCV_PBE.upf':
  'Cs' pseudopotential, 'PBE' functional
  Generated using ONCVPSP code by D. R. Hamann
  Author: Martin Schlipf and Francois Gygi  Date: 150915.
  9 valence electrons, 3 orbitals, 6 projectors, 2414 radial grid points, with lMax = 2
  Transforming local potential to a uniform radial grid of dG=0.02 with 1489 points.
  Transforming nonlocal projectors to a uniform radial grid of dG=0.02 with 432 points.
    5S    l: 0   occupation:  2.0   eigenvalue: -0.982388
    5P    l: 1   occupation:  6.0   eigenvalue: -0.496786
    6S    l: 0   occupation:  1.0   eigenvalue: -0.076670
  Transforming atomic orbitals to a uniform radial grid of dG=0.02 with 432 points.
  Core radius for overlap checks: 2.06 bohrs.
  Reading pulay file /home/gridsan/aligho/DFT/build-Nov24/pseudopotentials/SG15/Cs_ONCV_PBE.pulay ... using dE_dnG = -1.008762e-04 computed for Ecut = 20.

Initialized 1 species with 1 total atoms.

Folded 1 k-points by 12x12x1 to 144 k-points.

---------- Setting up k-points, bands, fillings ----------
Reduced to 19 k-points under symmetry. 
Computing the number of bands and number of electrons
Calculating initial fillings.
nElectrons:   9.000000   nBands: 6   nStates: 38

----- Setting up reduced wavefunction bases (one per k-point) -----
average nbasis = 29766.104 , ideal nbasis = 29766.845

---------- Setting up coulomb interaction ----------
Initialized slab truncation along lattice direction 001

---------- Setting up 2D ewald sum ----------
Optimum gaussian width for ewald sums = 7.873530 bohr.
Real space sums over 289 unit cells with max indices [  8  8  0  ]
Reciprocal space sums over 81 terms with max indices [  4  4  0  ]

---------- Allocating electronic variables ----------
Initializing wave functions:  linear combination of atomic orbitals
Note: number of bands (6) exceeds available atomic orbitals (5)
Cs pseudo-atom occupations:   s ( 2 1 )  p ( 6 )
[d-16-7-4:26300] 18 more processes have sent help message help-mpi-common-cuda.txt / dlopen failed
[d-16-7-4:26300] Set MCA parameter "orte_base_help_aggregate" to 0 to see all help / error messages
[d-16-7-4:26300] 18 more processes have sent help message help-mpi-btl-openib-cpc-base.txt / no cpcs for port
	FillingsUpdate:  mu: -0.081711084  nElectrons: 9.000000  magneticMoment: [ Abs: 0.64000  Tot: -0.64000 ]
LCAOMinimize: Iter:   0  F: -20.1729231844966073  |grad|_K:  1.516e-05  alpha:  1.000e+00
	FillingsUpdate:  mu: -0.081708649  nElectrons: 9.000000  magneticMoment: [ Abs: 0.64000  Tot: -0.64000 ]
LCAOMinimize: Iter:   1  F: -20.1729233403787234  |grad|_K:  9.940e-08  alpha:  9.911e-01  linmin: -1.780e-02  cgtest:  3.054e-01  t[s]:      8.75
LCAOMinimize: Encountered beta<0, resetting CG.
	FillingsUpdate:  mu: -0.081708662  nElectrons: 9.000000  magneticMoment: [ Abs: 0.64000  Tot: -0.64000 ]
LCAOMinimize: Iter:   2  F: -20.1729233403853527  |grad|_K:  9.085e-10  alpha:  9.914e-01  linmin: -1.167e-01  cgtest:  8.859e-01  t[s]:     11.15
LCAOMinimize: Encountered beta<0, resetting CG.
LCAOMinimize: Converged (|Delta F|<1.000000e-06 for 2 iters).


---- Citations for features of the code used in this run ----

   Software package:
      R. Sundararaman, K. Letchworth-Weaver, K.A. Schwarz, D. Gunceler, Y. Ozhabes and T.A. Arias, 'JDFTx: software for joint density-functional theory', SoftwareX 6, 278 (2017)

   gga-PBE exchange-correlation functional:
      J.P. Perdew, K. Burke and M. Ernzerhof, Phys. Rev. Lett. 77, 3865 (1996)

   Pseudopotentials:
      M Schlipf and F Gygi, Comput. Phys. Commun. 196, 36 (2015)

   Truncated Coulomb potentials:
      R. Sundararaman and T.A. Arias, Phys. Rev. B 87, 165122 (2013)

This list may not be complete. Please suggest additional citations or
report any other bugs at https://github.com/shankar1729/jdftx/issues

Initialization completed successfully at t[s]:     11.31


-------- Electronic minimization -----------
Will mix electronic density at each iteration.
	FillingsUpdate:  mu: -0.081708662  nElectrons: 9.000000  magneticMoment: [ Abs: 0.64000  Tot: -0.64000 ]
	FillingsUpdate:  mu: -0.083751366  nElectrons: 9.000000  magneticMoment: [ Abs: 0.64000  Tot: -0.64000 ]
SCF: Cycle:  0   F: -20.175441415933072   dF: -2.518e-03   |Residual|: 5.296e-03   |deigs|: 1.734e-01  t[s]:     16.10
	FillingsUpdate:  mu: -0.084081717  nElectrons: 9.000000  magneticMoment: [ Abs: 0.64006  Tot: -0.64000 ]
SCF: Cycle:  1   F: -20.175626264366159   dF: -1.848e-04   |Residual|: 4.611e-03   |deigs|: 4.893e-03  t[s]:     19.84
	FillingsUpdate:  mu: -0.084336144  nElectrons: 9.000000  magneticMoment: [ Abs: 0.64159  Tot: -0.64000 ]
SCF: Cycle:  2   F: -20.175722722212960   dF: -9.646e-05   |Residual|: 3.412e-03   |deigs|: 2.722e-03  t[s]:     23.64
	FillingsUpdate:  mu: -0.084462411  nElectrons: 9.000000  magneticMoment: [ Abs: 0.64306  Tot: -0.64000 ]
SCF: Cycle:  3   F: -20.175784468422108   dF: -6.175e-05   |Residual|: 2.570e-03   |deigs|: 1.516e-03  t[s]:     27.53
	FillingsUpdate:  mu: -0.084143571  nElectrons: 9.000000  magneticMoment: [ Abs: 0.64047  Tot: -0.64000 ]
SCF: Cycle:  4   F: -20.175808336653766   dF: -2.387e-05   |Residual|: 1.218e-03   |deigs|: 1.503e-03  t[s]:     31.47
	FillingsUpdate:  mu: -0.084081637  nElectrons: 9.000000  magneticMoment: [ Abs: 0.64085  Tot: -0.64000 ]
SCF: Cycle:  5   F: -20.175823245565354   dF: -1.491e-05   |Residual|: 8.287e-04   |deigs|: 8.002e-04  t[s]:     35.45
	FillingsUpdate:  mu: -0.083943173  nElectrons: 9.000000  magneticMoment: [ Abs: 0.64112  Tot: -0.64000 ]
SCF: Cycle:  6   F: -20.175832671354314   dF: -9.426e-06   |Residual|: 6.421e-04   |deigs|: 5.022e-04  t[s]:     39.47
	FillingsUpdate:  mu: -0.083572272  nElectrons: 9.000000  magneticMoment: [ Abs: 0.64143  Tot: -0.64000 ]
SCF: Cycle:  7   F: -20.175834494947889   dF: -1.824e-06   |Residual|: 5.509e-04   |deigs|: 4.489e-04  t[s]:     43.64
	FillingsUpdate:  mu: -0.082782796  nElectrons: 9.000000  magneticMoment: [ Abs: 0.64386  Tot: -0.64000 ]
SCF: Cycle:  8   F: -20.175830798972719   dF: +3.696e-06   |Residual|: 4.162e-04   |deigs|: 8.966e-04  t[s]:     47.87
	FillingsUpdate:  mu: -0.082075880  nElectrons: 9.000000  magneticMoment: [ Abs: 0.64359  Tot: -0.64000 ]
SCF: Cycle:  9   F: -20.175830418527177   dF: +3.804e-07   |Residual|: 3.978e-04   |deigs|: 8.913e-04  t[s]:     52.07
	FillingsUpdate:  mu: -0.082013317  nElectrons: 9.000000  magneticMoment: [ Abs: 0.64197  Tot: -0.64000 ]
SCF: Cycle: 10   F: -20.175836762842444   dF: -6.344e-06   |Residual|: 2.932e-04   |deigs|: 3.049e-04  t[s]:     56.34
	FillingsUpdate:  mu: -0.081647883  nElectrons: 9.000000  magneticMoment: [ Abs: 0.64453  Tot: -0.64000 ]
SCF: Cycle: 11   F: -20.175838652101014   dF: -1.889e-06   |Residual|: 2.617e-04   |deigs|: 5.494e-04  t[s]:     60.58
	FillingsUpdate:  mu: -0.081102215  nElectrons: 9.000000  magneticMoment: [ Abs: 0.64439  Tot: -0.64000 ]
SCF: Cycle: 12   F: -20.175838206303062   dF: +4.458e-07   |Residual|: 2.563e-04   |deigs|: 5.710e-04  t[s]:     64.86
	FillingsUpdate:  mu: -0.080636799  nElectrons: 9.000000  magneticMoment: [ Abs: 0.64281  Tot: -0.64000 ]
SCF: Cycle: 13   F: -20.175837527608138   dF: +6.787e-07   |Residual|: 2.395e-04   |deigs|: 5.988e-04  t[s]:     69.21
	FillingsUpdate:  mu: -0.080515880  nElectrons: 9.000000  magneticMoment: [ Abs: 0.64315  Tot: -0.64000 ]
SCF: Cycle: 14   F: -20.175840165205237   dF: -2.638e-06   |Residual|: 2.153e-04   |deigs|: 3.682e-04  t[s]:     73.47
	FillingsUpdate:  mu: -0.080067716  nElectrons: 9.000000  magneticMoment: [ Abs: 0.64209  Tot: -0.64000 ]
SCF: Cycle: 15   F: -20.175842798008468   dF: -2.633e-06   |Residual|: 1.583e-04   |deigs|: 5.268e-04  t[s]:     77.75
	FillingsUpdate:  mu: -0.079655402  nElectrons: 9.000000  magneticMoment: [ Abs: 0.64149  Tot: -0.64000 ]
SCF: Cycle: 16   F: -20.175843869228522   dF: -1.071e-06   |Residual|: 1.110e-04   |deigs|: 4.537e-04  t[s]:     81.99
	FillingsUpdate:  mu: -0.079629800  nElectrons: 9.000000  magneticMoment: [ Abs: 0.64107  Tot: -0.64000 ]
SCF: Cycle: 17   F: -20.175844219102430   dF: -3.499e-07   |Residual|: 8.601e-05   |deigs|: 2.183e-04  t[s]:     86.20
	FillingsUpdate:  mu: -0.079669353  nElectrons: 9.000000  magneticMoment: [ Abs: 0.64103  Tot: -0.64000 ]
SCF: Cycle: 18   F: -20.175844496525009   dF: -2.774e-07   |Residual|: 6.072e-05   |deigs|: 2.450e-04  t[s]:     90.52
	FillingsUpdate:  mu: -0.079675402  nElectrons: 9.000000  magneticMoment: [ Abs: 0.64106  Tot: -0.64000 ]
SCF: Cycle: 19   F: -20.175844628018808   dF: -1.315e-07   |Residual|: 4.015e-05   |deigs|: 2.030e-04  t[s]:     94.80
	FillingsUpdate:  mu: -0.079685110  nElectrons: 9.000000  magneticMoment: [ Abs: 0.64114  Tot: -0.64000 ]
SCF: Cycle: 20   F: -20.175844699505440   dF: -7.149e-08   |Residual|: 2.178e-05   |deigs|: 1.345e-04  t[s]:     99.10
	FillingsUpdate:  mu: -0.079669351  nElectrons: 9.000000  magneticMoment: [ Abs: 0.64112  Tot: -0.64000 ]
SCF: Cycle: 21   F: -20.175844716447450   dF: -1.694e-08   |Residual|: 1.827e-05   |deigs|: 1.660e-04  t[s]:    103.44
	FillingsUpdate:  mu: -0.079674597  nElectrons: 9.000000  magneticMoment: [ Abs: 0.64115  Tot: -0.64000 ]
SCF: Cycle: 22   F: -20.175844742279608   dF: -2.583e-08   |Residual|: 1.299e-05   |deigs|: 7.845e-05  t[s]:    107.78
	FillingsUpdate:  mu: -0.079683940  nElectrons: 9.000000  magneticMoment: [ Abs: 0.64116  Tot: -0.64000 ]
SCF: Cycle: 23   F: -20.175844741772622   dF: +5.070e-10   |Residual|: 8.619e-06   |deigs|: 4.978e-05  t[s]:    112.06
	FillingsUpdate:  mu: -0.079685681  nElectrons: 9.000000  magneticMoment: [ Abs: 0.64116  Tot: -0.64000 ]
SCF: Cycle: 24   F: -20.175844754798764   dF: -1.303e-08   |Residual|: 6.300e-06   |deigs|: 6.643e-05  t[s]:    116.38
	FillingsUpdate:  mu: -0.079687955  nElectrons: 9.000000  magneticMoment: [ Abs: 0.64116  Tot: -0.64000 ]
SCF: Cycle: 25   F: -20.175844759394813   dF: -4.596e-09   |Residual|: 5.029e-06   |deigs|: 4.883e-05  t[s]:    120.75
	FillingsUpdate:  mu: -0.079684273  nElectrons: 9.000000  magneticMoment: [ Abs: 0.64115  Tot: -0.64000 ]
SCF: Cycle: 26   F: -20.175844760501882   dF: -1.107e-09   |Residual|: 4.268e-06   |deigs|: 1.830e-05  t[s]:    125.05
SCF: Converged (|Delta E|<1.000000e-08 for 2 iters).


# Ionic positions in lattice coordinates:
ion Cs   0.000000000000000   0.000000000000000   0.000000000000000 0

# Forces in Lattice coordinates:
force Cs   0.000000000000000   0.000000000000000   0.000000000000000 0

# Energy components:
   Eewald =      -12.0320174002217755
       EH =        4.0217359402933637
     Eloc =      -17.5919792118431282
      Enl =        3.4320647063326271
   Epulay =       -0.0000000107257212
      Exc =       -3.1104590641772156
       KE =        5.1048113100374248
-------------------------------------
     Etot =      -20.1758437303044218
       TS =        0.0000010301974605
-------------------------------------
        F =      -20.1758447605018816

IonicMinimize: Iter:   0  F: -20.175844760501882  |grad|_K:  0.000e+00  t[s]:    125.31
IonicMinimize: Converged (|grad|_K<1.000000e-04).

#--- Lowdin population analysis ---
# oxidation-state Cs +0.066
# magnetic-moments Cs -0.579

End date and time: Sun Feb  6 13:12:22 2022  (Duration: 0-0:02:05.36)
Done!
scale=4
magnetization=-0.64
--------------------------------------------------------------------------
The library attempted to open the following supporting CUDA libraries,
but each of them failed.  CUDA-aware support is disabled.
libcuda.so.1: cannot open shared object file: No such file or directory
libcuda.dylib: cannot open shared object file: No such file or directory
/usr/lib64/libcuda.so.1: cannot open shared object file: No such file or directory
/usr/lib64/libcuda.dylib: cannot open shared object file: No such file or directory
If you are not interested in CUDA-aware support, then run with
--mca opal_warn_on_missing_libcuda 0 to suppress this message.  If you are interested
in CUDA-aware support, then try setting LD_LIBRARY_PATH to the location
of libcuda.so.1 to get passed this issue.
--------------------------------------------------------------------------
--------------------------------------------------------------------------
No OpenFabrics connection schemes reported that they were able to be
used on a specific port.  As such, the openib BTL (OpenFabrics
support) will be disabled for this port.

  Local host:           d-16-7-4
  Local device:         mlx5_1
  Local port:           1
  CPCs attempted:       rdmacm, udcm
--------------------------------------------------------------------------

*************** JDFTx 1.6.0 (git hash 42ebbcc2) ***************

Start date and time: Sun Feb  6 13:12:23 2022
Executable jdftx with command-line: -i Alkali.in
Running on hosts (process indices):  d-16-7-4 (0-18)
Divided in process groups (process indices):  0 (0)  1 (1)  2 (2)  3 (3)  4 (4)  5 (5)  6 (6)  7 (7)  8 (8)  9 (9)  10 (10)  11 (11)  12 (12)  13 (13)  14 (14)  15 (15)  16 (16)  17 (17)  18 (18)
Resource initialization completed at t[s]:      0.00
Run totals: 19 processes, 48 threads, 0 GPUs


Input parsed successfully to the following command list (including defaults):

basis kpoint-dependent
coords-type Lattice
core-overlap-check vector
coulomb-interaction Slab 001
davidson-band-ratio 1.1
dump End None
dump-name $INPUT.$VAR
elec-cutoff 20
elec-eigen-algo Davidson
elec-ex-corr gga-PBE
elec-initial-magnetization -0.640000 yes
elec-smearing Fermi 1e-05
electronic-minimize  \
	dirUpdateScheme      FletcherReeves \
	linminMethod         DirUpdateRecommended \
	nIterations          100 \
	history              15 \
	knormThreshold       0 \
	energyDiffThreshold  1e-08 \
	nEnergyDiff          2 \
	alphaTstart          1 \
	alphaTmin            1e-10 \
	updateTestStepSize   yes \
	alphaTreduceFactor   0.1 \
	alphaTincreaseFactor 3 \
	nAlphaAdjustMax      3 \
	wolfeEnergy          0.0001 \
	wolfeGradient        0.9 \
	fdTest               no
electronic-scf  \
	nIterations	10000 \
	energyDiffThreshold	1e-08 \
	residualThreshold	1e-07 \
	mixFraction	0.5 \
	qMetric	0.8 \
	history	10 \
	nEigSteps	2 \
	eigDiffThreshold	1e-08 \
	mixedVariable	Density \
	qKerker	0.8 \
	qKappa	-1 \
	verbose	no \
	mixFractionMag	1.5
exchange-regularization WignerSeitzTruncated
fluid None
fluid-ex-corr (null) lda-PZ
fluid-gummel-loop 10 1.000000e-05
fluid-minimize  \
	dirUpdateScheme      PolakRibiere \
	linminMethod         DirUpdateRecommended \
	nIterations          100 \
	history              15 \
	knormThreshold       0 \
	energyDiffThreshold  0 \
	nEnergyDiff          2 \
	alphaTstart          1 \
	alphaTmin            1e-10 \
	updateTestStepSize   yes \
	alphaTreduceFactor   0.1 \
	alphaTincreaseFactor 3 \
	nAlphaAdjustMax      3 \
	wolfeEnergy          0.0001 \
	wolfeGradient        0.9 \
	fdTest               no
fluid-solvent H2O 55.338 ScalarEOS \
	epsBulk 78.4 \
	pMol 0.92466 \
	epsInf 1.77 \
	Pvap 1.06736e-10 \
	sigmaBulk 4.62e-05 \
	Rvdw 2.61727 \
	Res 1.42 \
	tauNuc 343133 \
	poleEl 15 7 1
forces-output-coords Positions
ion Cs   0.000000000000000   0.000000000000000   0.000000000000000 0
ion-species SG15/$ID_ONCV_PBE.upf
ion-width 0
ionic-minimize  \
	dirUpdateScheme      L-BFGS \
	linminMethod         DirUpdateRecommended \
	nIterations          0 \
	history              15 \
	knormThreshold       0.0001 \
	energyDiffThreshold  1e-06 \
	nEnergyDiff          2 \
	alphaTstart          1 \
	alphaTmin            1e-10 \
	updateTestStepSize   yes \
	alphaTreduceFactor   0.1 \
	alphaTincreaseFactor 3 \
	nAlphaAdjustMax      3 \
	wolfeEnergy          0.0001 \
	wolfeGradient        0.9 \
	fdTest               no
kpoint   0.000000000000   0.000000000000   0.000000000000  1.00000000000000
kpoint-folding 12 12 1 
latt-move-scale 1 1 1
latt-scale 4 4 1 
lattice  \
	   4.727486978767153   -2.363743489383575    0.000000000000000  \
	  -0.000000000000000    4.094123819672498    0.000000000000000  \
	   0.000000000000000    0.000000000000000   40.000000000000000 
lattice-minimize  \
	dirUpdateScheme      L-BFGS \
	linminMethod         DirUpdateRecommended \
	nIterations          0 \
	history              15 \
	knormThreshold       0 \
	energyDiffThreshold  1e-06 \
	nEnergyDiff          2 \
	alphaTstart          1 \
	alphaTmin            1e-10 \
	updateTestStepSize   yes \
	alphaTreduceFactor   0.1 \
	alphaTincreaseFactor 3 \
	nAlphaAdjustMax      3 \
	wolfeEnergy          0.0001 \
	wolfeGradient        0.9 \
	fdTest               no
lcao-params -1 1e-06 1e-05
pcm-variant GLSSA13
spintype z-spin
subspace-rotation-factor 1 yes
symmetries automatic
symmetry-threshold 0.0001



---------- Setting up symmetries ----------

Found 24 point-group symmetries of the bravais lattice
Found 24 space-group symmetries with basis
Applied RMS atom displacement 0 bohrs to make symmetries exact.

---------- Initializing the Grid ----------
R = 
[      18.9099     -9.45497            0  ]
[            0      16.3765            0  ]
[            0            0           40  ]
unit cell volume = 12387.1
G =
[   0.332269   0.191835         -0  ]
[          0   0.383671         -0  ]
[         -0         -0    0.15708  ]
Minimum fftbox size, Smin = [  80  80  164  ]
Chosen fftbox size, S = [  80  80  168  ]

---------- Exchange Correlation functional ----------
Initalized PBE GGA exchange.
Initalized PBE GGA correlation.

---------- Setting up pseudopotentials ----------
Width of ionic core gaussian charges (only for fluid interactions / plotting) set to 0

Reading pseudopotential file '/home/gridsan/aligho/DFT/build-Nov24/pseudopotentials/SG15/Cs_ONCV_PBE.upf':
  'Cs' pseudopotential, 'PBE' functional
  Generated using ONCVPSP code by D. R. Hamann
  Author: Martin Schlipf and Francois Gygi  Date: 150915.
  9 valence electrons, 3 orbitals, 6 projectors, 2414 radial grid points, with lMax = 2
  Transforming local potential to a uniform radial grid of dG=0.02 with 1489 points.
  Transforming nonlocal projectors to a uniform radial grid of dG=0.02 with 432 points.
    5S    l: 0   occupation:  2.0   eigenvalue: -0.982388
    5P    l: 1   occupation:  6.0   eigenvalue: -0.496786
    6S    l: 0   occupation:  1.0   eigenvalue: -0.076670
  Transforming atomic orbitals to a uniform radial grid of dG=0.02 with 432 points.
  Core radius for overlap checks: 2.06 bohrs.
  Reading pulay file /home/gridsan/aligho/DFT/build-Nov24/pseudopotentials/SG15/Cs_ONCV_PBE.pulay ... using dE_dnG = -1.008762e-04 computed for Ecut = 20.

Initialized 1 species with 1 total atoms.

Folded 1 k-points by 12x12x1 to 144 k-points.

---------- Setting up k-points, bands, fillings ----------
Reduced to 19 k-points under symmetry. 
Computing the number of bands and number of electrons
Calculating initial fillings.
nElectrons:   9.000000   nBands: 6   nStates: 38

----- Setting up reduced wavefunction bases (one per k-point) -----
average nbasis = 52924.021 , ideal nbasis = 52918.836

---------- Setting up coulomb interaction ----------
Initialized slab truncation along lattice direction 001

---------- Setting up 2D ewald sum ----------
Optimum gaussian width for ewald sums = 10.498040 bohr.
Real space sums over 289 unit cells with max indices [  8  8  0  ]
Reciprocal space sums over 81 terms with max indices [  4  4  0  ]

---------- Allocating electronic variables ----------
Initializing wave functions:  linear combination of atomic orbitals
Note: number of bands (6) exceeds available atomic orbitals (5)
Cs pseudo-atom occupations:   s ( 2 1 )  p ( 6 )
[d-16-7-4:21765] 18 more processes have sent help message help-mpi-common-cuda.txt / dlopen failed
[d-16-7-4:21765] Set MCA parameter "orte_base_help_aggregate" to 0 to see all help / error messages
[d-16-7-4:21765] 18 more processes have sent help message help-mpi-btl-openib-cpc-base.txt / no cpcs for port
	FillingsUpdate:  mu: -0.077863184  nElectrons: 9.000000  magneticMoment: [ Abs: 0.64000  Tot: -0.64000 ]
LCAOMinimize: Iter:   0  F: -20.1686287317905659  |grad|_K:  4.641e-06  alpha:  1.000e+00
	FillingsUpdate:  mu: -0.077862248  nElectrons: 9.000000  magneticMoment: [ Abs: 0.64000  Tot: -0.64000 ]
LCAOMinimize: Iter:   1  F: -20.1686287463955694  |grad|_K:  2.218e-08  alpha:  9.915e-01  linmin: -9.854e-04  cgtest:  1.975e-01  t[s]:     15.12
LCAOMinimize: Encountered beta<0, resetting CG.
LCAOMinimize: 	Step increased F by 1.065814e-14, reducing alpha to 7.053515e-02.
LCAOMinimize: 	Step increased F by 1.598721e-13, reducing alpha to 7.053515e-03.
LCAOMinimize: 	Step increased F by 1.065814e-13, reducing alpha to 7.053515e-04.
LCAOMinimize: 	Step failed to reduce F after 3 attempts. Quitting step.
LCAOMinimize: 	Undoing step.
LCAOMinimize: 	Step failed along negative gradient direction.
LCAOMinimize: Probably at roundoff error limit. (Stopping)


---- Citations for features of the code used in this run ----

   Software package:
      R. Sundararaman, K. Letchworth-Weaver, K.A. Schwarz, D. Gunceler, Y. Ozhabes and T.A. Arias, 'JDFTx: software for joint density-functional theory', SoftwareX 6, 278 (2017)

   gga-PBE exchange-correlation functional:
      J.P. Perdew, K. Burke and M. Ernzerhof, Phys. Rev. Lett. 77, 3865 (1996)

   Pseudopotentials:
      M Schlipf and F Gygi, Comput. Phys. Commun. 196, 36 (2015)

   Truncated Coulomb potentials:
      R. Sundararaman and T.A. Arias, Phys. Rev. B 87, 165122 (2013)

This list may not be complete. Please suggest additional citations or
report any other bugs at https://github.com/shankar1729/jdftx/issues

Initialization completed successfully at t[s]:     26.46


-------- Electronic minimization -----------
Will mix electronic density at each iteration.
	FillingsUpdate:  mu: -0.077862248  nElectrons: 9.000000  magneticMoment: [ Abs: 0.64000  Tot: -0.64000 ]
	FillingsUpdate:  mu: -0.078019114  nElectrons: 9.000000  magneticMoment: [ Abs: 0.64000  Tot: -0.64000 ]
SCF: Cycle:  0   F: -20.168807486657698   dF: -1.787e-04   |Residual|: 1.373e-03   |deigs|: 1.737e-01  t[s]:     34.71
	FillingsUpdate:  mu: -0.078038441  nElectrons: 9.000000  magneticMoment: [ Abs: 0.64343  Tot: -0.64000 ]
SCF: Cycle:  1   F: -20.168814271879828   dF: -6.785e-06   |Residual|: 5.603e-04   |deigs|: 5.372e-03  t[s]:     41.22
	FillingsUpdate:  mu: -0.078055657  nElectrons: 9.000000  magneticMoment: [ Abs: 0.64359  Tot: -0.64000 ]
SCF: Cycle:  2   F: -20.168816457979524   dF: -2.186e-06   |Residual|: 4.073e-04   |deigs|: 1.214e-03  t[s]:     47.85
	FillingsUpdate:  mu: -0.078084467  nElectrons: 9.000000  magneticMoment: [ Abs: 0.64450  Tot: -0.64000 ]
SCF: Cycle:  3   F: -20.168817814512760   dF: -1.357e-06   |Residual|: 3.198e-04   |deigs|: 5.580e-04  t[s]:     54.49
	FillingsUpdate:  mu: -0.078104082  nElectrons: 9.000000  magneticMoment: [ Abs: 0.64446  Tot: -0.64000 ]
SCF: Cycle:  4   F: -20.168819136259849   dF: -1.322e-06   |Residual|: 2.388e-04   |deigs|: 3.225e-04  t[s]:     61.21
	FillingsUpdate:  mu: -0.078125590  nElectrons: 9.000000  magneticMoment: [ Abs: 0.64438  Tot: -0.64000 ]
SCF: Cycle:  5   F: -20.168820044278721   dF: -9.080e-07   |Residual|: 1.701e-04   |deigs|: 2.428e-04  t[s]:     68.08
	FillingsUpdate:  mu: -0.078127830  nElectrons: 9.000000  magneticMoment: [ Abs: 0.64444  Tot: -0.64000 ]
SCF: Cycle:  6   F: -20.168820712878247   dF: -6.686e-07   |Residual|: 1.135e-04   |deigs|: 2.936e-04  t[s]:     75.05
	FillingsUpdate:  mu: -0.078117644  nElectrons: 9.000000  magneticMoment: [ Abs: 0.64433  Tot: -0.64000 ]
SCF: Cycle:  7   F: -20.168821087180461   dF: -3.743e-07   |Residual|: 8.886e-05   |deigs|: 3.047e-04  t[s]:     82.14
	FillingsUpdate:  mu: -0.078093514  nElectrons: 9.000000  magneticMoment: [ Abs: 0.64439  Tot: -0.64000 ]
SCF: Cycle:  8   F: -20.168821338767458   dF: -2.516e-07   |Residual|: 7.024e-05   |deigs|: 3.533e-04  t[s]:     89.38
	FillingsUpdate:  mu: -0.078048967  nElectrons: 9.000000  magneticMoment: [ Abs: 0.64438  Tot: -0.64000 ]
SCF: Cycle:  9   F: -20.168821465449330   dF: -1.267e-07   |Residual|: 5.777e-05   |deigs|: 5.459e-04  t[s]:     96.77
	FillingsUpdate:  mu: -0.078008309  nElectrons: 9.000000  magneticMoment: [ Abs: 0.64437  Tot: -0.64000 ]
SCF: Cycle: 10   F: -20.168821459471285   dF: +5.978e-09   |Residual|: 5.086e-05   |deigs|: 4.630e-04  t[s]:    104.31
	FillingsUpdate:  mu: -0.077947818  nElectrons: 9.000000  magneticMoment: [ Abs: 0.64466  Tot: -0.64000 ]
SCF: Cycle: 11   F: -20.168821362867376   dF: +9.660e-08   |Residual|: 4.978e-05   |deigs|: 1.622e-04  t[s]:    111.76
	FillingsUpdate:  mu: -0.077900481  nElectrons: 9.000000  magneticMoment: [ Abs: 0.64473  Tot: -0.64000 ]
SCF: Cycle: 12   F: -20.168821034400803   dF: +3.285e-07   |Residual|: 4.751e-05   |deigs|: 1.101e-04  t[s]:    119.26
	FillingsUpdate:  mu: -0.077873686  nElectrons: 9.000000  magneticMoment: [ Abs: 0.64479  Tot: -0.64000 ]
SCF: Cycle: 13   F: -20.168821065607947   dF: -3.121e-08   |Residual|: 4.076e-05   |deigs|: 1.705e-04  t[s]:    126.72
	FillingsUpdate:  mu: -0.077838468  nElectrons: 9.000000  magneticMoment: [ Abs: 0.64488  Tot: -0.64000 ]
SCF: Cycle: 14   F: -20.168821513491967   dF: -4.479e-07   |Residual|: 3.144e-05   |deigs|: 1.455e-04  t[s]:    134.21
	FillingsUpdate:  mu: -0.077752276  nElectrons: 9.000000  magneticMoment: [ Abs: 0.64493  Tot: -0.64000 ]
SCF: Cycle: 15   F: -20.168821427807529   dF: +8.568e-08   |Residual|: 3.307e-05   |deigs|: 1.219e-04  t[s]:    141.62
	FillingsUpdate:  mu: -0.077688868  nElectrons: 9.000000  magneticMoment: [ Abs: 0.64470  Tot: -0.64000 ]
SCF: Cycle: 16   F: -20.168821484034325   dF: -5.623e-08   |Residual|: 2.869e-05   |deigs|: 9.273e-05  t[s]:    149.05
	FillingsUpdate:  mu: -0.077683306  nElectrons: 9.000000  magneticMoment: [ Abs: 0.64454  Tot: -0.64000 ]
SCF: Cycle: 17   F: -20.168821652682862   dF: -1.686e-07   |Residual|: 2.217e-05   |deigs|: 5.195e-05  t[s]:    156.59
	FillingsUpdate:  mu: -0.077675403  nElectrons: 9.000000  magneticMoment: [ Abs: 0.64443  Tot: -0.64000 ]
SCF: Cycle: 18   F: -20.168821657724461   dF: -5.042e-09   |Residual|: 1.817e-05   |deigs|: 3.129e-05  t[s]:    164.01
	FillingsUpdate:  mu: -0.077662999  nElectrons: 9.000000  magneticMoment: [ Abs: 0.64436  Tot: -0.64000 ]
SCF: Cycle: 19   F: -20.168821690888347   dF: -3.316e-08   |Residual|: 1.382e-05   |deigs|: 2.905e-05  t[s]:    171.48
	FillingsUpdate:  mu: -0.077659862  nElectrons: 9.000000  magneticMoment: [ Abs: 0.64435  Tot: -0.64000 ]
SCF: Cycle: 20   F: -20.168821719206928   dF: -2.832e-08   |Residual|: 1.188e-05   |deigs|: 2.871e-05  t[s]:    178.94
	FillingsUpdate:  mu: -0.077668906  nElectrons: 9.000000  magneticMoment: [ Abs: 0.64436  Tot: -0.64000 ]
SCF: Cycle: 21   F: -20.168821721830181   dF: -2.623e-09   |Residual|: 9.119e-06   |deigs|: 3.742e-05  t[s]:    186.46
	FillingsUpdate:  mu: -0.077677679  nElectrons: 9.000000  magneticMoment: [ Abs: 0.64437  Tot: -0.64000 ]
SCF: Cycle: 22   F: -20.168821741911508   dF: -2.008e-08   |Residual|: 6.827e-06   |deigs|: 4.474e-05  t[s]:    193.89
	FillingsUpdate:  mu: -0.077678174  nElectrons: 9.000000  magneticMoment: [ Abs: 0.64438  Tot: -0.64000 ]
SCF: Cycle: 23   F: -20.168821745871277   dF: -3.960e-09   |Residual|: 4.765e-06   |deigs|: 4.096e-05  t[s]:    201.39
	FillingsUpdate:  mu: -0.077677582  nElectrons: 9.000000  magneticMoment: [ Abs: 0.64438  Tot: -0.64000 ]
SCF: Cycle: 24   F: -20.168821743810426   dF: +2.061e-09   |Residual|: 2.780e-06   |deigs|: 4.008e-05  t[s]:    208.83
	FillingsUpdate:  mu: -0.077676929  nElectrons: 9.000000  magneticMoment: [ Abs: 0.64438  Tot: -0.64000 ]
SCF: Cycle: 25   F: -20.168821753068396   dF: -9.258e-09   |Residual|: 1.909e-06   |deigs|: 2.984e-05  t[s]:    216.15
	FillingsUpdate:  mu: -0.077677290  nElectrons: 9.000000  magneticMoment: [ Abs: 0.64437  Tot: -0.64000 ]
SCF: Cycle: 26   F: -20.168821754031192   dF: -9.628e-10   |Residual|: 1.337e-06   |deigs|: 2.518e-05  t[s]:    222.97
SCF: Converged (|Delta E|<1.000000e-08 for 2 iters).


# Ionic positions in lattice coordinates:
ion Cs   0.000000000000000   0.000000000000000   0.000000000000000 0

# Forces in Lattice coordinates:
force Cs   0.000000000000000   0.000000000000000   0.000000000000000 0

# Energy components:
   Eewald =       -9.0240130501663280
       EH =        7.0212875325565900
     Eloc =      -23.6074731903691095
      Enl =        3.4375352151377569
   Epulay =        0.0000000422266766
      Exc =       -3.1085183289279952
       KE =        5.1123613013169438
-------------------------------------
     Etot =      -20.1688204782254630
       TS =        0.0000012758057278
-------------------------------------
        F =      -20.1688217540311925

IonicMinimize: Iter:   0  F: -20.168821754031192  |grad|_K:  0.000e+00  t[s]:    223.38
IonicMinimize: Converged (|grad|_K<1.000000e-04).

#--- Lowdin population analysis ---
# oxidation-state Cs +0.003
# magnetic-moments Cs -0.638

End date and time: Sun Feb  6 13:16:07 2022  (Duration: 0-0:03:43.44)
Done!
