The alkali metal is Cs
scale=2
magnetization=-0.38
--------------------------------------------------------------------------
The library attempted to open the following supporting CUDA libraries,
but each of them failed.  CUDA-aware support is disabled.
libcuda.so.1: cannot open shared object file: No such file or directory
libcuda.dylib: cannot open shared object file: No such file or directory
/usr/lib64/libcuda.so.1: cannot open shared object file: No such file or directory
/usr/lib64/libcuda.dylib: cannot open shared object file: No such file or directory
If you are not interested in CUDA-aware support, then run with
--mca opal_warn_on_missing_libcuda 0 to suppress this message.  If you are interested
in CUDA-aware support, then try setting LD_LIBRARY_PATH to the location
of libcuda.so.1 to get passed this issue.
--------------------------------------------------------------------------
--------------------------------------------------------------------------
No OpenFabrics connection schemes reported that they were able to be
used on a specific port.  As such, the openib BTL (OpenFabrics
support) will be disabled for this port.

  Local host:           d-17-1-1
  Local device:         mlx5_1
  Local port:           1
  CPCs attempted:       rdmacm, udcm
--------------------------------------------------------------------------

*************** JDFTx 1.6.0 (git hash 42ebbcc2) ***************

Start date and time: Sun Feb  6 13:15:48 2022
Executable jdftx with command-line: -i Alkali.in
Running on hosts (process indices):  d-17-1-1 (0-18)
Divided in process groups (process indices):  0 (0)  1 (1)  2 (2)  3 (3)  4 (4)  5 (5)  6 (6)  7 (7)  8 (8)  9 (9)  10 (10)  11 (11)  12 (12)  13 (13)  14 (14)  15 (15)  16 (16)  17 (17)  18 (18)
Resource initialization completed at t[s]:      0.00
Run totals: 19 processes, 48 threads, 0 GPUs


Input parsed successfully to the following command list (including defaults):

basis kpoint-dependent
coords-type Lattice
core-overlap-check vector
coulomb-interaction Slab 001
davidson-band-ratio 1.1
dump End None
dump-name $INPUT.$VAR
elec-cutoff 20
elec-eigen-algo Davidson
elec-ex-corr gga-PBE
elec-initial-magnetization -0.380000 yes
elec-smearing Fermi 1e-05
electronic-minimize  \
	dirUpdateScheme      FletcherReeves \
	linminMethod         DirUpdateRecommended \
	nIterations          100 \
	history              15 \
	knormThreshold       0 \
	energyDiffThreshold  1e-08 \
	nEnergyDiff          2 \
	alphaTstart          1 \
	alphaTmin            1e-10 \
	updateTestStepSize   yes \
	alphaTreduceFactor   0.1 \
	alphaTincreaseFactor 3 \
	nAlphaAdjustMax      3 \
	wolfeEnergy          0.0001 \
	wolfeGradient        0.9 \
	fdTest               no
electronic-scf  \
	nIterations	10000 \
	energyDiffThreshold	1e-08 \
	residualThreshold	1e-07 \
	mixFraction	0.5 \
	qMetric	0.8 \
	history	10 \
	nEigSteps	2 \
	eigDiffThreshold	1e-08 \
	mixedVariable	Density \
	qKerker	0.8 \
	qKappa	-1 \
	verbose	no \
	mixFractionMag	1.5
exchange-regularization WignerSeitzTruncated
fluid None
fluid-ex-corr (null) lda-PZ
fluid-gummel-loop 10 1.000000e-05
fluid-minimize  \
	dirUpdateScheme      PolakRibiere \
	linminMethod         DirUpdateRecommended \
	nIterations          100 \
	history              15 \
	knormThreshold       0 \
	energyDiffThreshold  0 \
	nEnergyDiff          2 \
	alphaTstart          1 \
	alphaTmin            1e-10 \
	updateTestStepSize   yes \
	alphaTreduceFactor   0.1 \
	alphaTincreaseFactor 3 \
	nAlphaAdjustMax      3 \
	wolfeEnergy          0.0001 \
	wolfeGradient        0.9 \
	fdTest               no
fluid-solvent H2O 55.338 ScalarEOS \
	epsBulk 78.4 \
	pMol 0.92466 \
	epsInf 1.77 \
	Pvap 1.06736e-10 \
	sigmaBulk 4.62e-05 \
	Rvdw 2.61727 \
	Res 1.42 \
	tauNuc 343133 \
	poleEl 15 7 1
forces-output-coords Positions
ion Cs   0.000000000000000   0.000000000000000   0.000000000000000 0
ion-species SG15/$ID_ONCV_PBE.upf
ion-width 0
ionic-minimize  \
	dirUpdateScheme      L-BFGS \
	linminMethod         DirUpdateRecommended \
	nIterations          0 \
	history              15 \
	knormThreshold       0.0001 \
	energyDiffThreshold  1e-06 \
	nEnergyDiff          2 \
	alphaTstart          1 \
	alphaTmin            1e-10 \
	updateTestStepSize   yes \
	alphaTreduceFactor   0.1 \
	alphaTincreaseFactor 3 \
	nAlphaAdjustMax      3 \
	wolfeEnergy          0.0001 \
	wolfeGradient        0.9 \
	fdTest               no
kpoint   0.000000000000   0.000000000000   0.000000000000  1.00000000000000
kpoint-folding 12 12 1 
latt-move-scale 1 1 1
latt-scale 2 2 1 
lattice  \
	   4.727486978767153   -2.363743489383575    0.000000000000000  \
	  -0.000000000000000    4.094123819672498    0.000000000000000  \
	   0.000000000000000    0.000000000000000   40.000000000000000 
lattice-minimize  \
	dirUpdateScheme      L-BFGS \
	linminMethod         DirUpdateRecommended \
	nIterations          0 \
	history              15 \
	knormThreshold       0 \
	energyDiffThreshold  1e-06 \
	nEnergyDiff          2 \
	alphaTstart          1 \
	alphaTmin            1e-10 \
	updateTestStepSize   yes \
	alphaTreduceFactor   0.1 \
	alphaTincreaseFactor 3 \
	nAlphaAdjustMax      3 \
	wolfeEnergy          0.0001 \
	wolfeGradient        0.9 \
	fdTest               no
lcao-params -1 1e-06 1e-05
pcm-variant GLSSA13
spintype z-spin
subspace-rotation-factor 1 yes
symmetries automatic
symmetry-threshold 0.0001



---------- Setting up symmetries ----------

Found 24 point-group symmetries of the bravais lattice
Found 24 space-group symmetries with basis
Applied RMS atom displacement 0 bohrs to make symmetries exact.

---------- Initializing the Grid ----------
R = 
[      9.45497     -4.72749            0  ]
[            0      8.18825            0  ]
[            0            0           40  ]
unit cell volume = 3096.79
G =
[   0.664538   0.383671         -0  ]
[          0   0.767342         -0  ]
[         -0         -0    0.15708  ]
Minimum fftbox size, Smin = [  40  40  164  ]
Chosen fftbox size, S = [  40  40  168  ]

---------- Exchange Correlation functional ----------
Initalized PBE GGA exchange.
Initalized PBE GGA correlation.

---------- Setting up pseudopotentials ----------
Width of ionic core gaussian charges (only for fluid interactions / plotting) set to 0

Reading pseudopotential file '/home/gridsan/aligho/DFT/build-Nov24/pseudopotentials/SG15/Cs_ONCV_PBE.upf':
  'Cs' pseudopotential, 'PBE' functional
  Generated using ONCVPSP code by D. R. Hamann
  Author: Martin Schlipf and Francois Gygi  Date: 150915.
  9 valence electrons, 3 orbitals, 6 projectors, 2414 radial grid points, with lMax = 2
  Transforming local potential to a uniform radial grid of dG=0.02 with 1489 points.
  Transforming nonlocal projectors to a uniform radial grid of dG=0.02 with 432 points.
    5S    l: 0   occupation:  2.0   eigenvalue: -0.982388
    5P    l: 1   occupation:  6.0   eigenvalue: -0.496786
    6S    l: 0   occupation:  1.0   eigenvalue: -0.076670
  Transforming atomic orbitals to a uniform radial grid of dG=0.02 with 432 points.
  Core radius for overlap checks: 2.06 bohrs.
  Reading pulay file /home/gridsan/aligho/DFT/build-Nov24/pseudopotentials/SG15/Cs_ONCV_PBE.pulay ... using dE_dnG = -1.008762e-04 computed for Ecut = 20.

Initialized 1 species with 1 total atoms.

Folded 1 k-points by 12x12x1 to 144 k-points.

---------- Setting up k-points, bands, fillings ----------
Reduced to 19 k-points under symmetry. 
Computing the number of bands and number of electrons
Calculating initial fillings.
nElectrons:   9.000000   nBands: 6   nStates: 38

----- Setting up reduced wavefunction bases (one per k-point) -----
average nbasis = 13230.521 , ideal nbasis = 13229.709

---------- Setting up coulomb interaction ----------
Initialized slab truncation along lattice direction 001

---------- Setting up 2D ewald sum ----------
Optimum gaussian width for ewald sums = 5.249020 bohr.
Real space sums over 289 unit cells with max indices [  8  8  0  ]
Reciprocal space sums over 81 terms with max indices [  4  4  0  ]

---------- Allocating electronic variables ----------
Initializing wave functions:  linear combination of atomic orbitals
Note: number of bands (6) exceeds available atomic orbitals (5)
Cs pseudo-atom occupations:   s ( 2 1 )  p ( 6 )
	FillingsUpdate:  mu: -0.088018380  nElectrons: 9.000000  magneticMoment: [ Abs: 0.38000  Tot: -0.38000 ]
LCAOMinimize: Iter:   0  F: -20.1790036874064178  |grad|_K:  3.555e-05  alpha:  1.000e+00
	FillingsUpdate:  mu: -0.088002549  nElectrons: 9.000000  magneticMoment: [ Abs: 0.38000  Tot: -0.38000 ]
LCAOMinimize: Iter:   1  F: -20.1790045324697900  |grad|_K:  3.494e-07  alpha:  9.778e-01  linmin: -4.361e-02  cgtest:  3.315e-01  t[s]:      4.53
LCAOMinimize: Encountered beta<0, resetting CG.
[d-17-1-1:85947] 18 more processes have sent help message help-mpi-common-cuda.txt / dlopen failed
[d-17-1-1:85947] Set MCA parameter "orte_base_help_aggregate" to 0 to see all help / error messages
[d-17-1-1:85947] 18 more processes have sent help message help-mpi-btl-openib-cpc-base.txt / no cpcs for port
	FillingsUpdate:  mu: -0.088002660  nElectrons: 9.000000  magneticMoment: [ Abs: 0.38000  Tot: -0.38000 ]
LCAOMinimize: Iter:   2  F: -20.1790045325532077  |grad|_K:  1.290e-09  alpha:  9.982e-01  linmin: -1.117e-01  cgtest:  7.241e-01  t[s]:      5.71
LCAOMinimize: Encountered beta<0, resetting CG.
LCAOMinimize: Converged (|Delta F|<1.000000e-06 for 2 iters).


---- Citations for features of the code used in this run ----

   Software package:
      R. Sundararaman, K. Letchworth-Weaver, K.A. Schwarz, D. Gunceler, Y. Ozhabes and T.A. Arias, 'JDFTx: software for joint density-functional theory', SoftwareX 6, 278 (2017)

   gga-PBE exchange-correlation functional:
      J.P. Perdew, K. Burke and M. Ernzerhof, Phys. Rev. Lett. 77, 3865 (1996)

   Pseudopotentials:
      M Schlipf and F Gygi, Comput. Phys. Commun. 196, 36 (2015)

   Truncated Coulomb potentials:
      R. Sundararaman and T.A. Arias, Phys. Rev. B 87, 165122 (2013)

This list may not be complete. Please suggest additional citations or
report any other bugs at https://github.com/shankar1729/jdftx/issues

Initialization completed successfully at t[s]:      5.80


-------- Electronic minimization -----------
Will mix electronic density at each iteration.
	FillingsUpdate:  mu: -0.088002660  nElectrons: 9.000000  magneticMoment: [ Abs: 0.38000  Tot: -0.38000 ]
	FillingsUpdate:  mu: -0.102316942  nElectrons: 9.000000  magneticMoment: [ Abs: 0.38000  Tot: -0.38000 ]
SCF: Cycle:  0   F: -20.185434076204967   dF: -6.430e-03   |Residual|: 1.359e-02   |deigs|: 1.880e-01  t[s]:      8.15
	FillingsUpdate:  mu: -0.102763881  nElectrons: 9.000000  magneticMoment: [ Abs: 0.38000  Tot: -0.38000 ]
SCF: Cycle:  1   F: -20.186049667299628   dF: -6.156e-04   |Residual|: 1.084e-02   |deigs|: 5.161e-03  t[s]:      9.98
	FillingsUpdate:  mu: -0.099893519  nElectrons: 9.000000  magneticMoment: [ Abs: 0.38895  Tot: -0.38000 ]
SCF: Cycle:  2   F: -20.186393364488406   dF: -3.437e-04   |Residual|: 5.277e-03   |deigs|: 2.646e-03  t[s]:     11.79
	FillingsUpdate:  mu: -0.098389587  nElectrons: 9.000000  magneticMoment: [ Abs: 0.38000  Tot: -0.38000 ]
SCF: Cycle:  3   F: -20.186545815378629   dF: -1.525e-04   |Residual|: 3.668e-03   |deigs|: 2.540e-03  t[s]:     13.61
	FillingsUpdate:  mu: -0.095953410  nElectrons: 9.000000  magneticMoment: [ Abs: 0.38089  Tot: -0.38000 ]
SCF: Cycle:  4   F: -20.186621045154087   dF: -7.523e-05   |Residual|: 2.720e-03   |deigs|: 3.143e-03  t[s]:     15.45
	FillingsUpdate:  mu: -0.093475781  nElectrons: 9.000000  magneticMoment: [ Abs: 0.38526  Tot: -0.38000 ]
SCF: Cycle:  5   F: -20.186662187587665   dF: -4.114e-05   |Residual|: 2.393e-03   |deigs|: 3.034e-03  t[s]:     17.37
	FillingsUpdate:  mu: -0.090862227  nElectrons: 9.000000  magneticMoment: [ Abs: 0.39217  Tot: -0.38000 ]
SCF: Cycle:  6   F: -20.186666324395944   dF: -4.137e-06   |Residual|: 1.653e-03   |deigs|: 3.190e-03  t[s]:     19.26
	FillingsUpdate:  mu: -0.088585326  nElectrons: 9.000000  magneticMoment: [ Abs: 0.39017  Tot: -0.38000 ]
SCF: Cycle:  7   F: -20.186691160440365   dF: -2.484e-05   |Residual|: 1.338e-03   |deigs|: 2.404e-03  t[s]:     21.19
	FillingsUpdate:  mu: -0.087407238  nElectrons: 9.000000  magneticMoment: [ Abs: 0.38327  Tot: -0.38000 ]
SCF: Cycle:  8   F: -20.186724032636562   dF: -3.287e-05   |Residual|: 1.112e-03   |deigs|: 1.532e-03  t[s]:     23.14
	FillingsUpdate:  mu: -0.085885720  nElectrons: 9.000000  magneticMoment: [ Abs: 0.38406  Tot: -0.38000 ]
SCF: Cycle:  9   F: -20.186713711868862   dF: +1.032e-05   |Residual|: 9.248e-04   |deigs|: 1.636e-03  t[s]:     25.13
	FillingsUpdate:  mu: -0.083874315  nElectrons: 9.000000  magneticMoment: [ Abs: 0.38649  Tot: -0.38000 ]
SCF: Cycle: 10   F: -20.186708039081267   dF: +5.673e-06   |Residual|: 8.252e-04   |deigs|: 2.130e-03  t[s]:     27.09
	FillingsUpdate:  mu: -0.082199664  nElectrons: 9.000000  magneticMoment: [ Abs: 0.38547  Tot: -0.38000 ]
SCF: Cycle: 11   F: -20.186724038184096   dF: -1.600e-05   |Residual|: 7.587e-04   |deigs|: 1.746e-03  t[s]:     29.06
	FillingsUpdate:  mu: -0.080884704  nElectrons: 9.000000  magneticMoment: [ Abs: 0.38532  Tot: -0.38000 ]
SCF: Cycle: 12   F: -20.186750495782778   dF: -2.646e-05   |Residual|: 6.947e-04   |deigs|: 1.279e-03  t[s]:     31.03
	FillingsUpdate:  mu: -0.079033068  nElectrons: 9.000000  magneticMoment: [ Abs: 0.38526  Tot: -0.38000 ]
SCF: Cycle: 13   F: -20.186763224088825   dF: -1.273e-05   |Residual|: 6.419e-04   |deigs|: 1.856e-03  t[s]:     32.98
	FillingsUpdate:  mu: -0.076808215  nElectrons: 9.000000  magneticMoment: [ Abs: 0.38202  Tot: -0.38000 ]
SCF: Cycle: 14   F: -20.186773140114120   dF: -9.916e-06   |Residual|: 5.189e-04   |deigs|: 2.321e-03  t[s]:     34.92
	FillingsUpdate:  mu: -0.076505675  nElectrons: 9.000000  magneticMoment: [ Abs: 0.38098  Tot: -0.38000 ]
SCF: Cycle: 15   F: -20.186778241089861   dF: -5.101e-06   |Residual|: 3.922e-04   |deigs|: 4.509e-04  t[s]:     36.93
	FillingsUpdate:  mu: -0.075867149  nElectrons: 9.000000  magneticMoment: [ Abs: 0.38027  Tot: -0.38000 ]
SCF: Cycle: 16   F: -20.186782516062614   dF: -4.275e-06   |Residual|: 2.546e-04   |deigs|: 1.171e-03  t[s]:     38.97
	FillingsUpdate:  mu: -0.075512614  nElectrons: 9.000000  magneticMoment: [ Abs: 0.38019  Tot: -0.38000 ]
SCF: Cycle: 17   F: -20.186783759774862   dF: -1.244e-06   |Residual|: 1.668e-04   |deigs|: 5.942e-04  t[s]:     40.94
	FillingsUpdate:  mu: -0.075489361  nElectrons: 9.000000  magneticMoment: [ Abs: 0.38042  Tot: -0.38000 ]
SCF: Cycle: 18   F: -20.186784856508524   dF: -1.097e-06   |Residual|: 1.152e-04   |deigs|: 3.337e-04  t[s]:     42.99
	FillingsUpdate:  mu: -0.075631786  nElectrons: 9.000000  magneticMoment: [ Abs: 0.38043  Tot: -0.38000 ]
SCF: Cycle: 19   F: -20.186785203997459   dF: -3.475e-07   |Residual|: 7.240e-05   |deigs|: 2.656e-04  t[s]:     44.94
	FillingsUpdate:  mu: -0.075694879  nElectrons: 9.000000  magneticMoment: [ Abs: 0.38025  Tot: -0.38000 ]
SCF: Cycle: 20   F: -20.186785304279780   dF: -1.003e-07   |Residual|: 4.307e-05   |deigs|: 1.610e-04  t[s]:     46.98
	FillingsUpdate:  mu: -0.075671135  nElectrons: 9.000000  magneticMoment: [ Abs: 0.38017  Tot: -0.38000 ]
SCF: Cycle: 21   F: -20.186785409144800   dF: -1.049e-07   |Residual|: 2.582e-05   |deigs|: 8.030e-04  t[s]:     49.01
	FillingsUpdate:  mu: -0.075688892  nElectrons: 9.000000  magneticMoment: [ Abs: 0.38016  Tot: -0.38000 ]
SCF: Cycle: 22   F: -20.186785447540878   dF: -3.840e-08   |Residual|: 1.651e-05   |deigs|: 7.904e-04  t[s]:     50.98
	FillingsUpdate:  mu: -0.075694694  nElectrons: 9.000000  magneticMoment: [ Abs: 0.38017  Tot: -0.38000 ]
SCF: Cycle: 23   F: -20.186785471250484   dF: -2.371e-08   |Residual|: 1.369e-05   |deigs|: 1.078e-04  t[s]:     52.99
	FillingsUpdate:  mu: -0.075701549  nElectrons: 9.000000  magneticMoment: [ Abs: 0.38018  Tot: -0.38000 ]
SCF: Cycle: 24   F: -20.186785484826419   dF: -1.358e-08   |Residual|: 9.238e-06   |deigs|: 1.278e-04  t[s]:     54.96
	FillingsUpdate:  mu: -0.075708671  nElectrons: 9.000000  magneticMoment: [ Abs: 0.38020  Tot: -0.38000 ]
SCF: Cycle: 25   F: -20.186785493041612   dF: -8.215e-09   |Residual|: 5.507e-06   |deigs|: 7.767e-04  t[s]:     56.96
	FillingsUpdate:  mu: -0.075713337  nElectrons: 9.000000  magneticMoment: [ Abs: 0.38020  Tot: -0.38000 ]
SCF: Cycle: 26   F: -20.186785496903990   dF: -3.862e-09   |Residual|: 3.485e-06   |deigs|: 3.253e-04  t[s]:     58.94
SCF: Converged (|Delta E|<1.000000e-08 for 2 iters).


# Ionic positions in lattice coordinates:
ion Cs   0.000000000000000   0.000000000000000   0.000000000000000 0

# Forces in Lattice coordinates:
force Cs   0.000000000000000  -0.000000000000000   0.000000000000000 0

# Energy components:
   Eewald =      -18.0480261003326561
       EH =       -1.8121674079079408
     Eloc =       -5.7703277640526709
      Enl =        3.4410533964932295
   Epulay =        0.0000000264484078
      Exc =       -3.1459049556120844
       KE =        5.1485882133209948
-------------------------------------
     Etot =      -20.1867845916427235
       TS =        0.0000009052612667
-------------------------------------
        F =      -20.1867854969039904

IonicMinimize: Iter:   0  F: -20.186785496903990  |grad|_K:  0.000e+00  t[s]:     59.06
IonicMinimize: Converged (|grad|_K<1.000000e-04).

#--- Lowdin population analysis ---
# oxidation-state Cs +0.068
# magnetic-moments Cs -0.326

End date and time: Sun Feb  6 13:16:47 2022  (Duration: 0-0:00:59.08)
Done!
scale=3
magnetization=-0.38
--------------------------------------------------------------------------
The library attempted to open the following supporting CUDA libraries,
but each of them failed.  CUDA-aware support is disabled.
libcuda.so.1: cannot open shared object file: No such file or directory
libcuda.dylib: cannot open shared object file: No such file or directory
/usr/lib64/libcuda.so.1: cannot open shared object file: No such file or directory
/usr/lib64/libcuda.dylib: cannot open shared object file: No such file or directory
If you are not interested in CUDA-aware support, then run with
--mca opal_warn_on_missing_libcuda 0 to suppress this message.  If you are interested
in CUDA-aware support, then try setting LD_LIBRARY_PATH to the location
of libcuda.so.1 to get passed this issue.
--------------------------------------------------------------------------
--------------------------------------------------------------------------
No OpenFabrics connection schemes reported that they were able to be
used on a specific port.  As such, the openib BTL (OpenFabrics
support) will be disabled for this port.

  Local host:           d-17-1-1
  Local device:         mlx5_1
  Local port:           1
  CPCs attempted:       rdmacm, udcm
--------------------------------------------------------------------------

*************** JDFTx 1.6.0 (git hash 42ebbcc2) ***************

Start date and time: Sun Feb  6 13:16:48 2022
Executable jdftx with command-line: -i Alkali.in
Running on hosts (process indices):  d-17-1-1 (0-18)
Divided in process groups (process indices):  0 (0)  1 (1)  2 (2)  3 (3)  4 (4)  5 (5)  6 (6)  7 (7)  8 (8)  9 (9)  10 (10)  11 (11)  12 (12)  13 (13)  14 (14)  15 (15)  16 (16)  17 (17)  18 (18)
Resource initialization completed at t[s]:      0.00
Run totals: 19 processes, 48 threads, 0 GPUs


Input parsed successfully to the following command list (including defaults):

basis kpoint-dependent
coords-type Lattice
core-overlap-check vector
coulomb-interaction Slab 001
davidson-band-ratio 1.1
dump End None
dump-name $INPUT.$VAR
elec-cutoff 20
elec-eigen-algo Davidson
elec-ex-corr gga-PBE
elec-initial-magnetization -0.380000 yes
elec-smearing Fermi 1e-05
electronic-minimize  \
	dirUpdateScheme      FletcherReeves \
	linminMethod         DirUpdateRecommended \
	nIterations          100 \
	history              15 \
	knormThreshold       0 \
	energyDiffThreshold  1e-08 \
	nEnergyDiff          2 \
	alphaTstart          1 \
	alphaTmin            1e-10 \
	updateTestStepSize   yes \
	alphaTreduceFactor   0.1 \
	alphaTincreaseFactor 3 \
	nAlphaAdjustMax      3 \
	wolfeEnergy          0.0001 \
	wolfeGradient        0.9 \
	fdTest               no
electronic-scf  \
	nIterations	10000 \
	energyDiffThreshold	1e-08 \
	residualThreshold	1e-07 \
	mixFraction	0.5 \
	qMetric	0.8 \
	history	10 \
	nEigSteps	2 \
	eigDiffThreshold	1e-08 \
	mixedVariable	Density \
	qKerker	0.8 \
	qKappa	-1 \
	verbose	no \
	mixFractionMag	1.5
exchange-regularization WignerSeitzTruncated
fluid None
fluid-ex-corr (null) lda-PZ
fluid-gummel-loop 10 1.000000e-05
fluid-minimize  \
	dirUpdateScheme      PolakRibiere \
	linminMethod         DirUpdateRecommended \
	nIterations          100 \
	history              15 \
	knormThreshold       0 \
	energyDiffThreshold  0 \
	nEnergyDiff          2 \
	alphaTstart          1 \
	alphaTmin            1e-10 \
	updateTestStepSize   yes \
	alphaTreduceFactor   0.1 \
	alphaTincreaseFactor 3 \
	nAlphaAdjustMax      3 \
	wolfeEnergy          0.0001 \
	wolfeGradient        0.9 \
	fdTest               no
fluid-solvent H2O 55.338 ScalarEOS \
	epsBulk 78.4 \
	pMol 0.92466 \
	epsInf 1.77 \
	Pvap 1.06736e-10 \
	sigmaBulk 4.62e-05 \
	Rvdw 2.61727 \
	Res 1.42 \
	tauNuc 343133 \
	poleEl 15 7 1
forces-output-coords Positions
ion Cs   0.000000000000000   0.000000000000000   0.000000000000000 0
ion-species SG15/$ID_ONCV_PBE.upf
ion-width 0
ionic-minimize  \
	dirUpdateScheme      L-BFGS \
	linminMethod         DirUpdateRecommended \
	nIterations          0 \
	history              15 \
	knormThreshold       0.0001 \
	energyDiffThreshold  1e-06 \
	nEnergyDiff          2 \
	alphaTstart          1 \
	alphaTmin            1e-10 \
	updateTestStepSize   yes \
	alphaTreduceFactor   0.1 \
	alphaTincreaseFactor 3 \
	nAlphaAdjustMax      3 \
	wolfeEnergy          0.0001 \
	wolfeGradient        0.9 \
	fdTest               no
kpoint   0.000000000000   0.000000000000   0.000000000000  1.00000000000000
kpoint-folding 12 12 1 
latt-move-scale 1 1 1
latt-scale 3 3 1 
lattice  \
	   4.727486978767153   -2.363743489383575    0.000000000000000  \
	  -0.000000000000000    4.094123819672498    0.000000000000000  \
	   0.000000000000000    0.000000000000000   40.000000000000000 
lattice-minimize  \
	dirUpdateScheme      L-BFGS \
	linminMethod         DirUpdateRecommended \
	nIterations          0 \
	history              15 \
	knormThreshold       0 \
	energyDiffThreshold  1e-06 \
	nEnergyDiff          2 \
	alphaTstart          1 \
	alphaTmin            1e-10 \
	updateTestStepSize   yes \
	alphaTreduceFactor   0.1 \
	alphaTincreaseFactor 3 \
	nAlphaAdjustMax      3 \
	wolfeEnergy          0.0001 \
	wolfeGradient        0.9 \
	fdTest               no
lcao-params -1 1e-06 1e-05
pcm-variant GLSSA13
spintype z-spin
subspace-rotation-factor 1 yes
symmetries automatic
symmetry-threshold 0.0001



---------- Setting up symmetries ----------

Found 24 point-group symmetries of the bravais lattice
Found 24 space-group symmetries with basis
Applied RMS atom displacement 0 bohrs to make symmetries exact.

---------- Initializing the Grid ----------
R = 
[      14.1825     -7.09123            0  ]
[            0      12.2824            0  ]
[            0            0           40  ]
unit cell volume = 6967.77
G =
[   0.443025   0.255781         -0  ]
[          0   0.511561         -0  ]
[         -0         -0    0.15708  ]
Minimum fftbox size, Smin = [  60  60  164  ]
Chosen fftbox size, S = [  60  60  168  ]

---------- Exchange Correlation functional ----------
Initalized PBE GGA exchange.
Initalized PBE GGA correlation.

---------- Setting up pseudopotentials ----------
Width of ionic core gaussian charges (only for fluid interactions / plotting) set to 0

Reading pseudopotential file '/home/gridsan/aligho/DFT/build-Nov24/pseudopotentials/SG15/Cs_ONCV_PBE.upf':
  'Cs' pseudopotential, 'PBE' functional
  Generated using ONCVPSP code by D. R. Hamann
  Author: Martin Schlipf and Francois Gygi  Date: 150915.
  9 valence electrons, 3 orbitals, 6 projectors, 2414 radial grid points, with lMax = 2
  Transforming local potential to a uniform radial grid of dG=0.02 with 1489 points.
  Transforming nonlocal projectors to a uniform radial grid of dG=0.02 with 432 points.
    5S    l: 0   occupation:  2.0   eigenvalue: -0.982388
    5P    l: 1   occupation:  6.0   eigenvalue: -0.496786
    6S    l: 0   occupation:  1.0   eigenvalue: -0.076670
  Transforming atomic orbitals to a uniform radial grid of dG=0.02 with 432 points.
  Core radius for overlap checks: 2.06 bohrs.
  Reading pulay file /home/gridsan/aligho/DFT/build-Nov24/pseudopotentials/SG15/Cs_ONCV_PBE.pulay ... using dE_dnG = -1.008762e-04 computed for Ecut = 20.

Initialized 1 species with 1 total atoms.

Folded 1 k-points by 12x12x1 to 144 k-points.

---------- Setting up k-points, bands, fillings ----------
Reduced to 19 k-points under symmetry. 
Computing the number of bands and number of electrons
Calculating initial fillings.
nElectrons:   9.000000   nBands: 6   nStates: 38

----- Setting up reduced wavefunction bases (one per k-point) -----
average nbasis = 29766.104 , ideal nbasis = 29766.845

---------- Setting up coulomb interaction ----------
Initialized slab truncation along lattice direction 001

---------- Setting up 2D ewald sum ----------
Optimum gaussian width for ewald sums = 7.873530 bohr.
Real space sums over 289 unit cells with max indices [  8  8  0  ]
Reciprocal space sums over 81 terms with max indices [  4  4  0  ]

---------- Allocating electronic variables ----------
Initializing wave functions:  linear combination of atomic orbitals
Note: number of bands (6) exceeds available atomic orbitals (5)
Cs pseudo-atom occupations:   s ( 2 1 )  p ( 6 )
[d-17-1-1:50635] 18 more processes have sent help message help-mpi-common-cuda.txt / dlopen failed
[d-17-1-1:50635] Set MCA parameter "orte_base_help_aggregate" to 0 to see all help / error messages
[d-17-1-1:50635] 18 more processes have sent help message help-mpi-btl-openib-cpc-base.txt / no cpcs for port
	FillingsUpdate:  mu: -0.078727819  nElectrons: 9.000000  magneticMoment: [ Abs: 0.38000  Tot: -0.38000 ]
LCAOMinimize: Iter:   0  F: -20.1744385255810208  |grad|_K:  2.204e-05  alpha:  1.000e+00
	FillingsUpdate:  mu: -0.078723016  nElectrons: 9.000000  magneticMoment: [ Abs: 0.38000  Tot: -0.38000 ]
LCAOMinimize: Iter:   1  F: -20.1744388536251762  |grad|_K:  1.524e-07  alpha:  9.873e-01  linmin: -2.834e-02  cgtest:  5.141e-01  t[s]:      8.62
LCAOMinimize: Encountered beta<0, resetting CG.
	FillingsUpdate:  mu: -0.078723014  nElectrons: 9.000000  magneticMoment: [ Abs: 0.38000  Tot: -0.38000 ]
LCAOMinimize: Iter:   2  F: -20.1744388536405133  |grad|_K:  5.301e-09  alpha:  9.662e-01  linmin: -7.846e-02  cgtest:  9.998e-01  t[s]:     10.99
LCAOMinimize: Encountered beta<0, resetting CG.
LCAOMinimize: Converged (|Delta F|<1.000000e-06 for 2 iters).


---- Citations for features of the code used in this run ----

   Software package:
      R. Sundararaman, K. Letchworth-Weaver, K.A. Schwarz, D. Gunceler, Y. Ozhabes and T.A. Arias, 'JDFTx: software for joint density-functional theory', SoftwareX 6, 278 (2017)

   gga-PBE exchange-correlation functional:
      J.P. Perdew, K. Burke and M. Ernzerhof, Phys. Rev. Lett. 77, 3865 (1996)

   Pseudopotentials:
      M Schlipf and F Gygi, Comput. Phys. Commun. 196, 36 (2015)

   Truncated Coulomb potentials:
      R. Sundararaman and T.A. Arias, Phys. Rev. B 87, 165122 (2013)

This list may not be complete. Please suggest additional citations or
report any other bugs at https://github.com/shankar1729/jdftx/issues

Initialization completed successfully at t[s]:     11.14


-------- Electronic minimization -----------
Will mix electronic density at each iteration.
	FillingsUpdate:  mu: -0.078723014  nElectrons: 9.000000  magneticMoment: [ Abs: 0.38000  Tot: -0.38000 ]
	FillingsUpdate:  mu: -0.081817809  nElectrons: 9.000000  magneticMoment: [ Abs: 0.38000  Tot: -0.38000 ]
SCF: Cycle:  0   F: -20.176876281506217   dF: -2.437e-03   |Residual|: 4.857e-03   |deigs|: 1.731e-01  t[s]:     15.83
	FillingsUpdate:  mu: -0.082081697  nElectrons: 9.000000  magneticMoment: [ Abs: 0.38000  Tot: -0.38000 ]
SCF: Cycle:  1   F: -20.177008645750515   dF: -1.324e-04   |Residual|: 4.255e-03   |deigs|: 4.924e-03  t[s]:     19.50
	FillingsUpdate:  mu: -0.082269869  nElectrons: 9.000000  magneticMoment: [ Abs: 0.38231  Tot: -0.38000 ]
SCF: Cycle:  2   F: -20.177086894346495   dF: -7.825e-05   |Residual|: 2.638e-03   |deigs|: 2.253e-03  t[s]:     23.21
	FillingsUpdate:  mu: -0.082326817  nElectrons: 9.000000  magneticMoment: [ Abs: 0.38213  Tot: -0.38000 ]
SCF: Cycle:  3   F: -20.177114981522237   dF: -2.809e-05   |Residual|: 1.795e-03   |deigs|: 1.454e-03  t[s]:     26.99
	FillingsUpdate:  mu: -0.082171189  nElectrons: 9.000000  magneticMoment: [ Abs: 0.38019  Tot: -0.38000 ]
SCF: Cycle:  4   F: -20.177132419085780   dF: -1.744e-05   |Residual|: 9.902e-04   |deigs|: 1.089e-03  t[s]:     30.83
	FillingsUpdate:  mu: -0.082044723  nElectrons: 9.000000  magneticMoment: [ Abs: 0.38030  Tot: -0.38000 ]
SCF: Cycle:  5   F: -20.177141217202937   dF: -8.798e-06   |Residual|: 7.122e-04   |deigs|: 8.006e-04  t[s]:     34.80
	FillingsUpdate:  mu: -0.081757883  nElectrons: 9.000000  magneticMoment: [ Abs: 0.38061  Tot: -0.38000 ]
SCF: Cycle:  6   F: -20.177145767842411   dF: -4.551e-06   |Residual|: 5.602e-04   |deigs|: 1.211e-03  t[s]:     38.81
	FillingsUpdate:  mu: -0.081371741  nElectrons: 9.000000  magneticMoment: [ Abs: 0.38170  Tot: -0.38000 ]
SCF: Cycle:  7   F: -20.177146407466157   dF: -6.396e-07   |Residual|: 4.775e-04   |deigs|: 7.824e-04  t[s]:     42.88
	FillingsUpdate:  mu: -0.080702551  nElectrons: 9.000000  magneticMoment: [ Abs: 0.38295  Tot: -0.38000 ]
SCF: Cycle:  8   F: -20.177143183508733   dF: +3.224e-06   |Residual|: 3.762e-04   |deigs|: 8.095e-04  t[s]:     46.98
	FillingsUpdate:  mu: -0.080079523  nElectrons: 9.000000  magneticMoment: [ Abs: 0.38236  Tot: -0.38000 ]
SCF: Cycle:  9   F: -20.177144853748260   dF: -1.670e-06   |Residual|: 3.454e-04   |deigs|: 9.531e-04  t[s]:     51.14
	FillingsUpdate:  mu: -0.080042580  nElectrons: 9.000000  magneticMoment: [ Abs: 0.38184  Tot: -0.38000 ]
SCF: Cycle: 10   F: -20.177148001264367   dF: -3.148e-06   |Residual|: 2.729e-04   |deigs|: 5.937e-04  t[s]:     55.36
	FillingsUpdate:  mu: -0.079717192  nElectrons: 9.000000  magneticMoment: [ Abs: 0.38270  Tot: -0.38000 ]
SCF: Cycle: 11   F: -20.177149345787186   dF: -1.345e-06   |Residual|: 2.440e-04   |deigs|: 8.448e-04  t[s]:     59.56
	FillingsUpdate:  mu: -0.079190313  nElectrons: 9.000000  magneticMoment: [ Abs: 0.38246  Tot: -0.38000 ]
SCF: Cycle: 12   F: -20.177148612332367   dF: +7.335e-07   |Residual|: 2.404e-04   |deigs|: 6.284e-04  t[s]:     63.78
	FillingsUpdate:  mu: -0.078640868  nElectrons: 9.000000  magneticMoment: [ Abs: 0.38108  Tot: -0.38000 ]
SCF: Cycle: 13   F: -20.177147787147618   dF: +8.252e-07   |Residual|: 2.295e-04   |deigs|: 6.728e-04  t[s]:     68.00
	FillingsUpdate:  mu: -0.078352673  nElectrons: 9.000000  magneticMoment: [ Abs: 0.38149  Tot: -0.38000 ]
SCF: Cycle: 14   F: -20.177149262704344   dF: -1.476e-06   |Residual|: 2.058e-04   |deigs|: 4.066e-04  t[s]:     72.20
	FillingsUpdate:  mu: -0.078082114  nElectrons: 9.000000  magneticMoment: [ Abs: 0.38132  Tot: -0.38000 ]
SCF: Cycle: 15   F: -20.177151955928217   dF: -2.693e-06   |Residual|: 1.537e-04   |deigs|: 3.186e-04  t[s]:     76.38
	FillingsUpdate:  mu: -0.077919932  nElectrons: 9.000000  magneticMoment: [ Abs: 0.38091  Tot: -0.38000 ]
SCF: Cycle: 16   F: -20.177153261926662   dF: -1.306e-06   |Residual|: 1.194e-04   |deigs|: 1.691e-04  t[s]:     80.60
	FillingsUpdate:  mu: -0.077852633  nElectrons: 9.000000  magneticMoment: [ Abs: 0.38055  Tot: -0.38000 ]
SCF: Cycle: 17   F: -20.177153619890440   dF: -3.580e-07   |Residual|: 8.428e-05   |deigs|: 9.309e-05  t[s]:     84.80
	FillingsUpdate:  mu: -0.077802487  nElectrons: 9.000000  magneticMoment: [ Abs: 0.38051  Tot: -0.38000 ]
SCF: Cycle: 18   F: -20.177154002797785   dF: -3.829e-07   |Residual|: 3.745e-05   |deigs|: 9.208e-05  t[s]:     88.95
	FillingsUpdate:  mu: -0.077815297  nElectrons: 9.000000  magneticMoment: [ Abs: 0.38053  Tot: -0.38000 ]
SCF: Cycle: 19   F: -20.177154073679311   dF: -7.088e-08   |Residual|: 2.549e-05   |deigs|: 5.329e-05  t[s]:     93.13
	FillingsUpdate:  mu: -0.077826718  nElectrons: 9.000000  magneticMoment: [ Abs: 0.38050  Tot: -0.38000 ]
SCF: Cycle: 20   F: -20.177154098332480   dF: -2.465e-08   |Residual|: 1.935e-05   |deigs|: 1.097e-04  t[s]:     97.33
	FillingsUpdate:  mu: -0.077841547  nElectrons: 9.000000  magneticMoment: [ Abs: 0.38053  Tot: -0.38000 ]
SCF: Cycle: 21   F: -20.177154117675414   dF: -1.934e-08   |Residual|: 1.221e-05   |deigs|: 7.682e-05  t[s]:    101.51
	FillingsUpdate:  mu: -0.077844268  nElectrons: 9.000000  magneticMoment: [ Abs: 0.38052  Tot: -0.38000 ]
SCF: Cycle: 22   F: -20.177154124851867   dF: -7.176e-09   |Residual|: 8.298e-06   |deigs|: 4.541e-05  t[s]:    105.72
	FillingsUpdate:  mu: -0.077844805  nElectrons: 9.000000  magneticMoment: [ Abs: 0.38053  Tot: -0.38000 ]
SCF: Cycle: 23   F: -20.177154128060749   dF: -3.209e-09   |Residual|: 5.172e-06   |deigs|: 3.422e-05  t[s]:    109.91
SCF: Converged (|Delta E|<1.000000e-08 for 2 iters).


# Ionic positions in lattice coordinates:
ion Cs   0.000000000000000   0.000000000000000   0.000000000000000 0

# Forces in Lattice coordinates:
force Cs   0.000000000000000   0.000000000000000   0.000000000000000 0

# Energy components:
   Eewald =      -12.0320174002217755
       EH =        4.0138824135375577
     Eloc =      -17.5832522168708394
      Enl =        3.4317603679082915
   Epulay =       -0.0000000107257212
      Exc =       -3.1088666639703879
       KE =        5.1013401277926551
-------------------------------------
     Etot =      -20.1771533825502161
       TS =        0.0000007455105331
-------------------------------------
        F =      -20.1771541280607494

IonicMinimize: Iter:   0  F: -20.177154128060749  |grad|_K:  0.000e+00  t[s]:    110.16
IonicMinimize: Converged (|grad|_K<1.000000e-04).

#--- Lowdin population analysis ---
# oxidation-state Cs +0.052
# magnetic-moments Cs -0.341

End date and time: Sun Feb  6 13:18:38 2022  (Duration: 0-0:01:50.21)
Done!
scale=4
magnetization=-0.38
--------------------------------------------------------------------------
The library attempted to open the following supporting CUDA libraries,
but each of them failed.  CUDA-aware support is disabled.
libcuda.so.1: cannot open shared object file: No such file or directory
libcuda.dylib: cannot open shared object file: No such file or directory
/usr/lib64/libcuda.so.1: cannot open shared object file: No such file or directory
/usr/lib64/libcuda.dylib: cannot open shared object file: No such file or directory
If you are not interested in CUDA-aware support, then run with
--mca opal_warn_on_missing_libcuda 0 to suppress this message.  If you are interested
in CUDA-aware support, then try setting LD_LIBRARY_PATH to the location
of libcuda.so.1 to get passed this issue.
--------------------------------------------------------------------------
--------------------------------------------------------------------------
No OpenFabrics connection schemes reported that they were able to be
used on a specific port.  As such, the openib BTL (OpenFabrics
support) will be disabled for this port.

  Local host:           d-17-1-1
  Local device:         mlx5_1
  Local port:           1
  CPCs attempted:       rdmacm, udcm
--------------------------------------------------------------------------

*************** JDFTx 1.6.0 (git hash 42ebbcc2) ***************

Start date and time: Sun Feb  6 13:18:40 2022
Executable jdftx with command-line: -i Alkali.in
Running on hosts (process indices):  d-17-1-1 (0-18)
Divided in process groups (process indices):  0 (0)  1 (1)  2 (2)  3 (3)  4 (4)  5 (5)  6 (6)  7 (7)  8 (8)  9 (9)  10 (10)  11 (11)  12 (12)  13 (13)  14 (14)  15 (15)  16 (16)  17 (17)  18 (18)
Resource initialization completed at t[s]:      0.00
Run totals: 19 processes, 48 threads, 0 GPUs


Input parsed successfully to the following command list (including defaults):

basis kpoint-dependent
coords-type Lattice
core-overlap-check vector
coulomb-interaction Slab 001
davidson-band-ratio 1.1
dump End None
dump-name $INPUT.$VAR
elec-cutoff 20
elec-eigen-algo Davidson
elec-ex-corr gga-PBE
elec-initial-magnetization -0.380000 yes
elec-smearing Fermi 1e-05
electronic-minimize  \
	dirUpdateScheme      FletcherReeves \
	linminMethod         DirUpdateRecommended \
	nIterations          100 \
	history              15 \
	knormThreshold       0 \
	energyDiffThreshold  1e-08 \
	nEnergyDiff          2 \
	alphaTstart          1 \
	alphaTmin            1e-10 \
	updateTestStepSize   yes \
	alphaTreduceFactor   0.1 \
	alphaTincreaseFactor 3 \
	nAlphaAdjustMax      3 \
	wolfeEnergy          0.0001 \
	wolfeGradient        0.9 \
	fdTest               no
electronic-scf  \
	nIterations	10000 \
	energyDiffThreshold	1e-08 \
	residualThreshold	1e-07 \
	mixFraction	0.5 \
	qMetric	0.8 \
	history	10 \
	nEigSteps	2 \
	eigDiffThreshold	1e-08 \
	mixedVariable	Density \
	qKerker	0.8 \
	qKappa	-1 \
	verbose	no \
	mixFractionMag	1.5
exchange-regularization WignerSeitzTruncated
fluid None
fluid-ex-corr (null) lda-PZ
fluid-gummel-loop 10 1.000000e-05
fluid-minimize  \
	dirUpdateScheme      PolakRibiere \
	linminMethod         DirUpdateRecommended \
	nIterations          100 \
	history              15 \
	knormThreshold       0 \
	energyDiffThreshold  0 \
	nEnergyDiff          2 \
	alphaTstart          1 \
	alphaTmin            1e-10 \
	updateTestStepSize   yes \
	alphaTreduceFactor   0.1 \
	alphaTincreaseFactor 3 \
	nAlphaAdjustMax      3 \
	wolfeEnergy          0.0001 \
	wolfeGradient        0.9 \
	fdTest               no
fluid-solvent H2O 55.338 ScalarEOS \
	epsBulk 78.4 \
	pMol 0.92466 \
	epsInf 1.77 \
	Pvap 1.06736e-10 \
	sigmaBulk 4.62e-05 \
	Rvdw 2.61727 \
	Res 1.42 \
	tauNuc 343133 \
	poleEl 15 7 1
forces-output-coords Positions
ion Cs   0.000000000000000   0.000000000000000   0.000000000000000 0
ion-species SG15/$ID_ONCV_PBE.upf
ion-width 0
ionic-minimize  \
	dirUpdateScheme      L-BFGS \
	linminMethod         DirUpdateRecommended \
	nIterations          0 \
	history              15 \
	knormThreshold       0.0001 \
	energyDiffThreshold  1e-06 \
	nEnergyDiff          2 \
	alphaTstart          1 \
	alphaTmin            1e-10 \
	updateTestStepSize   yes \
	alphaTreduceFactor   0.1 \
	alphaTincreaseFactor 3 \
	nAlphaAdjustMax      3 \
	wolfeEnergy          0.0001 \
	wolfeGradient        0.9 \
	fdTest               no
kpoint   0.000000000000   0.000000000000   0.000000000000  1.00000000000000
kpoint-folding 12 12 1 
latt-move-scale 1 1 1
latt-scale 4 4 1 
lattice  \
	   4.727486978767153   -2.363743489383575    0.000000000000000  \
	  -0.000000000000000    4.094123819672498    0.000000000000000  \
	   0.000000000000000    0.000000000000000   40.000000000000000 
lattice-minimize  \
	dirUpdateScheme      L-BFGS \
	linminMethod         DirUpdateRecommended \
	nIterations          0 \
	history              15 \
	knormThreshold       0 \
	energyDiffThreshold  1e-06 \
	nEnergyDiff          2 \
	alphaTstart          1 \
	alphaTmin            1e-10 \
	updateTestStepSize   yes \
	alphaTreduceFactor   0.1 \
	alphaTincreaseFactor 3 \
	nAlphaAdjustMax      3 \
	wolfeEnergy          0.0001 \
	wolfeGradient        0.9 \
	fdTest               no
lcao-params -1 1e-06 1e-05
pcm-variant GLSSA13
spintype z-spin
subspace-rotation-factor 1 yes
symmetries automatic
symmetry-threshold 0.0001



---------- Setting up symmetries ----------

Found 24 point-group symmetries of the bravais lattice
Found 24 space-group symmetries with basis
Applied RMS atom displacement 0 bohrs to make symmetries exact.

---------- Initializing the Grid ----------
R = 
[      18.9099     -9.45497            0  ]
[            0      16.3765            0  ]
[            0            0           40  ]
unit cell volume = 12387.1
G =
[   0.332269   0.191835         -0  ]
[          0   0.383671         -0  ]
[         -0         -0    0.15708  ]
Minimum fftbox size, Smin = [  80  80  164  ]
Chosen fftbox size, S = [  80  80  168  ]

---------- Exchange Correlation functional ----------
Initalized PBE GGA exchange.
Initalized PBE GGA correlation.

---------- Setting up pseudopotentials ----------
Width of ionic core gaussian charges (only for fluid interactions / plotting) set to 0

Reading pseudopotential file '/home/gridsan/aligho/DFT/build-Nov24/pseudopotentials/SG15/Cs_ONCV_PBE.upf':
  'Cs' pseudopotential, 'PBE' functional
  Generated using ONCVPSP code by D. R. Hamann
  Author: Martin Schlipf and Francois Gygi  Date: 150915.
  9 valence electrons, 3 orbitals, 6 projectors, 2414 radial grid points, with lMax = 2
  Transforming local potential to a uniform radial grid of dG=0.02 with 1489 points.
  Transforming nonlocal projectors to a uniform radial grid of dG=0.02 with 432 points.
    5S    l: 0   occupation:  2.0   eigenvalue: -0.982388
    5P    l: 1   occupation:  6.0   eigenvalue: -0.496786
    6S    l: 0   occupation:  1.0   eigenvalue: -0.076670
  Transforming atomic orbitals to a uniform radial grid of dG=0.02 with 432 points.
  Core radius for overlap checks: 2.06 bohrs.
  Reading pulay file /home/gridsan/aligho/DFT/build-Nov24/pseudopotentials/SG15/Cs_ONCV_PBE.pulay ... using dE_dnG = -1.008762e-04 computed for Ecut = 20.

Initialized 1 species with 1 total atoms.

Folded 1 k-points by 12x12x1 to 144 k-points.

---------- Setting up k-points, bands, fillings ----------
Reduced to 19 k-points under symmetry. 
Computing the number of bands and number of electrons
Calculating initial fillings.
nElectrons:   9.000000   nBands: 6   nStates: 38

----- Setting up reduced wavefunction bases (one per k-point) -----
average nbasis = 52924.021 , ideal nbasis = 52918.836

---------- Setting up coulomb interaction ----------
Initialized slab truncation along lattice direction 001

---------- Setting up 2D ewald sum ----------
Optimum gaussian width for ewald sums = 10.498040 bohr.
Real space sums over 289 unit cells with max indices [  8  8  0  ]
Reciprocal space sums over 81 terms with max indices [  4  4  0  ]

---------- Allocating electronic variables ----------
Initializing wave functions:  linear combination of atomic orbitals
Note: number of bands (6) exceeds available atomic orbitals (5)
Cs pseudo-atom occupations:   s ( 2 1 )  p ( 6 )
[d-17-1-1:04661] 18 more processes have sent help message help-mpi-common-cuda.txt / dlopen failed
[d-17-1-1:04661] Set MCA parameter "orte_base_help_aggregate" to 0 to see all help / error messages
[d-17-1-1:04661] 18 more processes have sent help message help-mpi-btl-openib-cpc-base.txt / no cpcs for port
	FillingsUpdate:  mu: -0.077316620  nElectrons: 9.000000  magneticMoment: [ Abs: 0.38000  Tot: -0.38000 ]
LCAOMinimize: Iter:   0  F: -20.1680971326456557  |grad|_K:  6.640e-06  alpha:  1.000e+00
	FillingsUpdate:  mu: -0.077315257  nElectrons: 9.000000  magneticMoment: [ Abs: 0.38000  Tot: -0.38000 ]
LCAOMinimize: Iter:   1  F: -20.1680971624848802  |grad|_K:  3.250e-08  alpha:  9.896e-01  linmin: -1.237e-03  cgtest:  3.431e-01  t[s]:     14.91
LCAOMinimize: Encountered beta<0, resetting CG.
	FillingsUpdate:  mu: -0.077315257  nElectrons: 9.000000  magneticMoment: [ Abs: 0.38000  Tot: -0.38000 ]
LCAOMinimize: Iter:   2  F: -20.1680971624852106  |grad|_K:  2.912e-08  alpha:  1.897e+00  linmin:  3.474e-03  cgtest: -1.000e+00  t[s]:     18.83
LCAOMinimize: Converged (|Delta F|<1.000000e-06 for 2 iters).


---- Citations for features of the code used in this run ----

   Software package:
      R. Sundararaman, K. Letchworth-Weaver, K.A. Schwarz, D. Gunceler, Y. Ozhabes and T.A. Arias, 'JDFTx: software for joint density-functional theory', SoftwareX 6, 278 (2017)

   gga-PBE exchange-correlation functional:
      J.P. Perdew, K. Burke and M. Ernzerhof, Phys. Rev. Lett. 77, 3865 (1996)

   Pseudopotentials:
      M Schlipf and F Gygi, Comput. Phys. Commun. 196, 36 (2015)

   Truncated Coulomb potentials:
      R. Sundararaman and T.A. Arias, Phys. Rev. B 87, 165122 (2013)

This list may not be complete. Please suggest additional citations or
report any other bugs at https://github.com/shankar1729/jdftx/issues

Initialization completed successfully at t[s]:     19.08


-------- Electronic minimization -----------
Will mix electronic density at each iteration.
	FillingsUpdate:  mu: -0.077315257  nElectrons: 9.000000  magneticMoment: [ Abs: 0.38000  Tot: -0.38000 ]
	FillingsUpdate:  mu: -0.077514170  nElectrons: 9.000000  magneticMoment: [ Abs: 0.38000  Tot: -0.38000 ]
SCF: Cycle:  0   F: -20.168315432967841   dF: -2.183e-04   |Residual|: 1.107e-03   |deigs|: 1.749e-01  t[s]:     27.09
	FillingsUpdate:  mu: -0.077560248  nElectrons: 9.000000  magneticMoment: [ Abs: 0.38187  Tot: -0.38000 ]
SCF: Cycle:  1   F: -20.168323379517126   dF: -7.947e-06   |Residual|: 7.526e-04   |deigs|: 4.435e-03  t[s]:     33.37
	FillingsUpdate:  mu: -0.077612115  nElectrons: 9.000000  magneticMoment: [ Abs: 0.38195  Tot: -0.38000 ]
SCF: Cycle:  2   F: -20.168326057909109   dF: -2.678e-06   |Residual|: 6.230e-04   |deigs|: 9.062e-04  t[s]:     39.79
	FillingsUpdate:  mu: -0.077717945  nElectrons: 9.000000  magneticMoment: [ Abs: 0.38310  Tot: -0.38000 ]
SCF: Cycle:  3   F: -20.168328739974275   dF: -2.682e-06   |Residual|: 4.537e-04   |deigs|: 9.010e-04  t[s]:     46.26
	FillingsUpdate:  mu: -0.077826076  nElectrons: 9.000000  magneticMoment: [ Abs: 0.38287  Tot: -0.38000 ]
SCF: Cycle:  4   F: -20.168331702974960   dF: -2.963e-06   |Residual|: 3.061e-04   |deigs|: 6.340e-04  t[s]:     52.92
	FillingsUpdate:  mu: -0.077914709  nElectrons: 9.000000  magneticMoment: [ Abs: 0.38289  Tot: -0.38000 ]
SCF: Cycle:  5   F: -20.168333656619627   dF: -1.954e-06   |Residual|: 1.950e-04   |deigs|: 4.039e-04  t[s]:     59.64
	FillingsUpdate:  mu: -0.077914440  nElectrons: 9.000000  magneticMoment: [ Abs: 0.38295  Tot: -0.38000 ]
SCF: Cycle:  6   F: -20.168334600343261   dF: -9.437e-07   |Residual|: 1.371e-04   |deigs|: 4.514e-04  t[s]:     66.43
	FillingsUpdate:  mu: -0.077901901  nElectrons: 9.000000  magneticMoment: [ Abs: 0.38271  Tot: -0.38000 ]
SCF: Cycle:  7   F: -20.168335123302747   dF: -5.230e-07   |Residual|: 1.026e-04   |deigs|: 2.436e-04  t[s]:     73.40
	FillingsUpdate:  mu: -0.077867212  nElectrons: 9.000000  magneticMoment: [ Abs: 0.38262  Tot: -0.38000 ]
SCF: Cycle:  8   F: -20.168335477951025   dF: -3.546e-07   |Residual|: 8.022e-05   |deigs|: 2.796e-04  t[s]:     80.52
	FillingsUpdate:  mu: -0.077812768  nElectrons: 9.000000  magneticMoment: [ Abs: 0.38253  Tot: -0.38000 ]
SCF: Cycle:  9   F: -20.168335558921171   dF: -8.097e-08   |Residual|: 6.711e-05   |deigs|: 4.241e-04  t[s]:     87.70
	FillingsUpdate:  mu: -0.077766548  nElectrons: 9.000000  magneticMoment: [ Abs: 0.38270  Tot: -0.38000 ]
SCF: Cycle: 10   F: -20.168335570944514   dF: -1.202e-08   |Residual|: 5.857e-05   |deigs|: 3.415e-04  t[s]:     94.95
	FillingsUpdate:  mu: -0.077718804  nElectrons: 9.000000  magneticMoment: [ Abs: 0.38285  Tot: -0.38000 ]
SCF: Cycle: 11   F: -20.168335563191611   dF: +7.753e-09   |Residual|: 5.647e-05   |deigs|: 1.827e-04  t[s]:    102.28
	FillingsUpdate:  mu: -0.077652147  nElectrons: 9.000000  magneticMoment: [ Abs: 0.38283  Tot: -0.38000 ]
SCF: Cycle: 12   F: -20.168335210163235   dF: +3.530e-07   |Residual|: 5.136e-05   |deigs|: 1.605e-04  t[s]:    109.60
	FillingsUpdate:  mu: -0.077583940  nElectrons: 9.000000  magneticMoment: [ Abs: 0.38296  Tot: -0.38000 ]
SCF: Cycle: 13   F: -20.168335409284349   dF: -1.991e-07   |Residual|: 4.484e-05   |deigs|: 2.295e-04  t[s]:    116.93
	FillingsUpdate:  mu: -0.077541593  nElectrons: 9.000000  magneticMoment: [ Abs: 0.38299  Tot: -0.38000 ]
SCF: Cycle: 14   F: -20.168335577491149   dF: -1.682e-07   |Residual|: 3.996e-05   |deigs|: 2.221e-04  t[s]:    124.20
	FillingsUpdate:  mu: -0.077494387  nElectrons: 9.000000  magneticMoment: [ Abs: 0.38280  Tot: -0.38000 ]
SCF: Cycle: 15   F: -20.168335581424362   dF: -3.933e-09   |Residual|: 3.693e-05   |deigs|: 1.679e-04  t[s]:    131.48
	FillingsUpdate:  mu: -0.077436443  nElectrons: 9.000000  magneticMoment: [ Abs: 0.38267  Tot: -0.38000 ]
SCF: Cycle: 16   F: -20.168335495510771   dF: +8.591e-08   |Residual|: 3.417e-05   |deigs|: 1.148e-04  t[s]:    138.75
	FillingsUpdate:  mu: -0.077418801  nElectrons: 9.000000  magneticMoment: [ Abs: 0.38261  Tot: -0.38000 ]
SCF: Cycle: 17   F: -20.168335713819182   dF: -2.183e-07   |Residual|: 2.536e-05   |deigs|: 5.952e-05  t[s]:    146.03
	FillingsUpdate:  mu: -0.077412917  nElectrons: 9.000000  magneticMoment: [ Abs: 0.38250  Tot: -0.38000 ]
SCF: Cycle: 18   F: -20.168335694277616   dF: +1.954e-08   |Residual|: 2.041e-05   |deigs|: 3.750e-05  t[s]:    153.16
	FillingsUpdate:  mu: -0.077402140  nElectrons: 9.000000  magneticMoment: [ Abs: 0.38250  Tot: -0.38000 ]
SCF: Cycle: 19   F: -20.168335782311704   dF: -8.803e-08   |Residual|: 1.639e-05   |deigs|: 2.417e-05  t[s]:    160.50
	FillingsUpdate:  mu: -0.077395338  nElectrons: 9.000000  magneticMoment: [ Abs: 0.38251  Tot: -0.38000 ]
SCF: Cycle: 20   F: -20.168335804979723   dF: -2.267e-08   |Residual|: 1.206e-05   |deigs|: 1.777e-05  t[s]:    167.69
	FillingsUpdate:  mu: -0.077396919  nElectrons: 9.000000  magneticMoment: [ Abs: 0.38252  Tot: -0.38000 ]
SCF: Cycle: 21   F: -20.168335832373909   dF: -2.739e-08   |Residual|: 8.524e-06   |deigs|: 1.536e-05  t[s]:    174.94
	FillingsUpdate:  mu: -0.077396887  nElectrons: 9.000000  magneticMoment: [ Abs: 0.38254  Tot: -0.38000 ]
SCF: Cycle: 22   F: -20.168335834219043   dF: -1.845e-09   |Residual|: 5.636e-06   |deigs|: 1.305e-05  t[s]:    182.13
	FillingsUpdate:  mu: -0.077397256  nElectrons: 9.000000  magneticMoment: [ Abs: 0.38254  Tot: -0.38000 ]
SCF: Cycle: 23   F: -20.168335841076683   dF: -6.858e-09   |Residual|: 3.791e-06   |deigs|: 1.481e-05  t[s]:    189.43
SCF: Converged (|Delta E|<1.000000e-08 for 2 iters).


# Ionic positions in lattice coordinates:
ion Cs   0.000000000000000   0.000000000000000   0.000000000000000 0

# Forces in Lattice coordinates:
force Cs  -0.000000000000000   0.000000000000000   0.000000000000000 0

# Energy components:
   Eewald =       -9.0240130501663280
       EH =        7.0081349944529725
     Eloc =      -23.5926349459915841
      Enl =        3.4367235740119675
   Epulay =        0.0000000422266766
      Exc =       -3.1060702994631315
       KE =        5.1095249514169616
-------------------------------------
     Etot =      -20.1683347335124630
       TS =        0.0000011075642206
-------------------------------------
        F =      -20.1683358410766829

IonicMinimize: Iter:   0  F: -20.168335841076683  |grad|_K:  0.000e+00  t[s]:    189.83
IonicMinimize: Converged (|grad|_K<1.000000e-04).

#--- Lowdin population analysis ---
# oxidation-state Cs +0.005
# magnetic-moments Cs -0.378

End date and time: Sun Feb  6 13:21:49 2022  (Duration: 0-0:03:09.90)
Done!
