The alkali metal is Cs
scale=2
magnetization=-0.06
--------------------------------------------------------------------------
The library attempted to open the following supporting CUDA libraries,
but each of them failed.  CUDA-aware support is disabled.
libcuda.so.1: cannot open shared object file: No such file or directory
libcuda.dylib: cannot open shared object file: No such file or directory
/usr/lib64/libcuda.so.1: cannot open shared object file: No such file or directory
/usr/lib64/libcuda.dylib: cannot open shared object file: No such file or directory
If you are not interested in CUDA-aware support, then run with
--mca opal_warn_on_missing_libcuda 0 to suppress this message.  If you are interested
in CUDA-aware support, then try setting LD_LIBRARY_PATH to the location
of libcuda.so.1 to get passed this issue.
--------------------------------------------------------------------------
--------------------------------------------------------------------------
No OpenFabrics connection schemes reported that they were able to be
used on a specific port.  As such, the openib BTL (OpenFabrics
support) will be disabled for this port.

  Local host:           d-6-7-4
  Local device:         mlx5_1
  Local port:           1
  CPCs attempted:       rdmacm, udcm
--------------------------------------------------------------------------

*************** JDFTx 1.6.0 (git hash 42ebbcc2) ***************

Start date and time: Sun Feb  6 13:21:57 2022
Executable jdftx with command-line: -i Alkali.in
Running on hosts (process indices):  d-6-7-4 (0-18)
Divided in process groups (process indices):  0 (0)  1 (1)  2 (2)  3 (3)  4 (4)  5 (5)  6 (6)  7 (7)  8 (8)  9 (9)  10 (10)  11 (11)  12 (12)  13 (13)  14 (14)  15 (15)  16 (16)  17 (17)  18 (18)
Resource initialization completed at t[s]:      0.00
Run totals: 19 processes, 48 threads, 0 GPUs


Input parsed successfully to the following command list (including defaults):

basis kpoint-dependent
coords-type Lattice
core-overlap-check vector
coulomb-interaction Slab 001
davidson-band-ratio 1.1
dump End None
dump-name $INPUT.$VAR
elec-cutoff 20
elec-eigen-algo Davidson
elec-ex-corr gga-PBE
elec-initial-magnetization -0.060000 yes
elec-smearing Fermi 1e-05
electronic-minimize  \
	dirUpdateScheme      FletcherReeves \
	linminMethod         DirUpdateRecommended \
	nIterations          100 \
	history              15 \
	knormThreshold       0 \
	energyDiffThreshold  1e-08 \
	nEnergyDiff          2 \
	alphaTstart          1 \
	alphaTmin            1e-10 \
	updateTestStepSize   yes \
	alphaTreduceFactor   0.1 \
	alphaTincreaseFactor 3 \
	nAlphaAdjustMax      3 \
	wolfeEnergy          0.0001 \
	wolfeGradient        0.9 \
	fdTest               no
electronic-scf  \
	nIterations	10000 \
	energyDiffThreshold	1e-08 \
	residualThreshold	1e-07 \
	mixFraction	0.5 \
	qMetric	0.8 \
	history	10 \
	nEigSteps	2 \
	eigDiffThreshold	1e-08 \
	mixedVariable	Density \
	qKerker	0.8 \
	qKappa	-1 \
	verbose	no \
	mixFractionMag	1.5
exchange-regularization WignerSeitzTruncated
fluid None
fluid-ex-corr (null) lda-PZ
fluid-gummel-loop 10 1.000000e-05
fluid-minimize  \
	dirUpdateScheme      PolakRibiere \
	linminMethod         DirUpdateRecommended \
	nIterations          100 \
	history              15 \
	knormThreshold       0 \
	energyDiffThreshold  0 \
	nEnergyDiff          2 \
	alphaTstart          1 \
	alphaTmin            1e-10 \
	updateTestStepSize   yes \
	alphaTreduceFactor   0.1 \
	alphaTincreaseFactor 3 \
	nAlphaAdjustMax      3 \
	wolfeEnergy          0.0001 \
	wolfeGradient        0.9 \
	fdTest               no
fluid-solvent H2O 55.338 ScalarEOS \
	epsBulk 78.4 \
	pMol 0.92466 \
	epsInf 1.77 \
	Pvap 1.06736e-10 \
	sigmaBulk 4.62e-05 \
	Rvdw 2.61727 \
	Res 1.42 \
	tauNuc 343133 \
	poleEl 15 7 1
forces-output-coords Positions
ion Cs   0.000000000000000   0.000000000000000   0.000000000000000 0
ion-species SG15/$ID_ONCV_PBE.upf
ion-width 0
ionic-minimize  \
	dirUpdateScheme      L-BFGS \
	linminMethod         DirUpdateRecommended \
	nIterations          0 \
	history              15 \
	knormThreshold       0.0001 \
	energyDiffThreshold  1e-06 \
	nEnergyDiff          2 \
	alphaTstart          1 \
	alphaTmin            1e-10 \
	updateTestStepSize   yes \
	alphaTreduceFactor   0.1 \
	alphaTincreaseFactor 3 \
	nAlphaAdjustMax      3 \
	wolfeEnergy          0.0001 \
	wolfeGradient        0.9 \
	fdTest               no
kpoint   0.000000000000   0.000000000000   0.000000000000  1.00000000000000
kpoint-folding 12 12 1 
latt-move-scale 1 1 1
latt-scale 2 2 1 
lattice  \
	   4.727486978767153   -2.363743489383575    0.000000000000000  \
	  -0.000000000000000    4.094123819672498    0.000000000000000  \
	   0.000000000000000    0.000000000000000   40.000000000000000 
lattice-minimize  \
	dirUpdateScheme      L-BFGS \
	linminMethod         DirUpdateRecommended \
	nIterations          0 \
	history              15 \
	knormThreshold       0 \
	energyDiffThreshold  1e-06 \
	nEnergyDiff          2 \
	alphaTstart          1 \
	alphaTmin            1e-10 \
	updateTestStepSize   yes \
	alphaTreduceFactor   0.1 \
	alphaTincreaseFactor 3 \
	nAlphaAdjustMax      3 \
	wolfeEnergy          0.0001 \
	wolfeGradient        0.9 \
	fdTest               no
lcao-params -1 1e-06 1e-05
pcm-variant GLSSA13
spintype z-spin
subspace-rotation-factor 1 yes
symmetries automatic
symmetry-threshold 0.0001



---------- Setting up symmetries ----------

Found 24 point-group symmetries of the bravais lattice
Found 24 space-group symmetries with basis
Applied RMS atom displacement 0 bohrs to make symmetries exact.

---------- Initializing the Grid ----------
R = 
[      9.45497     -4.72749            0  ]
[            0      8.18825            0  ]
[            0            0           40  ]
unit cell volume = 3096.79
G =
[   0.664538   0.383671         -0  ]
[          0   0.767342         -0  ]
[         -0         -0    0.15708  ]
Minimum fftbox size, Smin = [  40  40  164  ]
Chosen fftbox size, S = [  40  40  168  ]

---------- Exchange Correlation functional ----------
Initalized PBE GGA exchange.
Initalized PBE GGA correlation.

---------- Setting up pseudopotentials ----------
Width of ionic core gaussian charges (only for fluid interactions / plotting) set to 0

Reading pseudopotential file '/home/gridsan/aligho/DFT/build-Nov24/pseudopotentials/SG15/Cs_ONCV_PBE.upf':
  'Cs' pseudopotential, 'PBE' functional
  Generated using ONCVPSP code by D. R. Hamann
  Author: Martin Schlipf and Francois Gygi  Date: 150915.
  9 valence electrons, 3 orbitals, 6 projectors, 2414 radial grid points, with lMax = 2
  Transforming local potential to a uniform radial grid of dG=0.02 with 1489 points.
  Transforming nonlocal projectors to a uniform radial grid of dG=0.02 with 432 points.
    5S    l: 0   occupation:  2.0   eigenvalue: -0.982388
    5P    l: 1   occupation:  6.0   eigenvalue: -0.496786
    6S    l: 0   occupation:  1.0   eigenvalue: -0.076670
  Transforming atomic orbitals to a uniform radial grid of dG=0.02 with 432 points.
  Core radius for overlap checks: 2.06 bohrs.
  Reading pulay file /home/gridsan/aligho/DFT/build-Nov24/pseudopotentials/SG15/Cs_ONCV_PBE.pulay ... using dE_dnG = -1.008762e-04 computed for Ecut = 20.

Initialized 1 species with 1 total atoms.

Folded 1 k-points by 12x12x1 to 144 k-points.

---------- Setting up k-points, bands, fillings ----------
Reduced to 19 k-points under symmetry. 
Computing the number of bands and number of electrons
Calculating initial fillings.
nElectrons:   9.000000   nBands: 6   nStates: 38

----- Setting up reduced wavefunction bases (one per k-point) -----
average nbasis = 13230.521 , ideal nbasis = 13229.709

---------- Setting up coulomb interaction ----------
Initialized slab truncation along lattice direction 001

---------- Setting up 2D ewald sum ----------
Optimum gaussian width for ewald sums = 5.249020 bohr.
Real space sums over 289 unit cells with max indices [  8  8  0  ]
Reciprocal space sums over 81 terms with max indices [  4  4  0  ]

---------- Allocating electronic variables ----------
Initializing wave functions:  linear combination of atomic orbitals
Note: number of bands (6) exceeds available atomic orbitals (5)
Cs pseudo-atom occupations:   s ( 2 1 )  p ( 6 )
	FillingsUpdate:  mu: -0.091510508  nElectrons: 9.000000  magneticMoment: [ Abs: 0.06000  Tot: -0.06000 ]
LCAOMinimize: Iter:   0  F: -20.1825495241690582  |grad|_K:  4.247e-05  alpha:  1.000e+00
	FillingsUpdate:  mu: -0.091491777  nElectrons: 9.000000  magneticMoment: [ Abs: 0.06000  Tot: -0.06000 ]
LCAOMinimize: Iter:   1  F: -20.1825507295483071  |grad|_K:  4.366e-07  alpha:  9.771e-01  linmin: -5.162e-02  cgtest:  3.816e-01  t[s]:      4.54
LCAOMinimize: Encountered beta<0, resetting CG.
[d-6-7-4:59729] 18 more processes have sent help message help-mpi-common-cuda.txt / dlopen failed
[d-6-7-4:59729] Set MCA parameter "orte_base_help_aggregate" to 0 to see all help / error messages
[d-6-7-4:59729] 18 more processes have sent help message help-mpi-btl-openib-cpc-base.txt / no cpcs for port
	FillingsUpdate:  mu: -0.091491896  nElectrons: 9.000000  magneticMoment: [ Abs: 0.06000  Tot: -0.06000 ]
LCAOMinimize: Iter:   2  F: -20.1825507296784181  |grad|_K:  7.046e-10  alpha:  1.000e+00  linmin: -6.664e-02  cgtest:  3.628e-01  t[s]:      5.68
LCAOMinimize: Encountered beta<0, resetting CG.
LCAOMinimize: 	Wrong curvature in test step, increasing alphaT to 3.001166e+00.
	FillingsUpdate:  mu: -0.091491896  nElectrons: 9.000000  magneticMoment: [ Abs: 0.06000  Tot: -0.06000 ]
LCAOMinimize: Iter:   3  F: -20.1825507296786206  |grad|_K:  1.422e-11  alpha: -1.678e-03  linmin:  3.142e-02  cgtest: -8.134e-01  t[s]:      6.83
LCAOMinimize: Converged (|Delta F|<1.000000e-06 for 2 iters).


---- Citations for features of the code used in this run ----

   Software package:
      R. Sundararaman, K. Letchworth-Weaver, K.A. Schwarz, D. Gunceler, Y. Ozhabes and T.A. Arias, 'JDFTx: software for joint density-functional theory', SoftwareX 6, 278 (2017)

   gga-PBE exchange-correlation functional:
      J.P. Perdew, K. Burke and M. Ernzerhof, Phys. Rev. Lett. 77, 3865 (1996)

   Pseudopotentials:
      M Schlipf and F Gygi, Comput. Phys. Commun. 196, 36 (2015)

   Truncated Coulomb potentials:
      R. Sundararaman and T.A. Arias, Phys. Rev. B 87, 165122 (2013)

This list may not be complete. Please suggest additional citations or
report any other bugs at https://github.com/shankar1729/jdftx/issues

Initialization completed successfully at t[s]:      6.91


-------- Electronic minimization -----------
Will mix electronic density at each iteration.
	FillingsUpdate:  mu: -0.091491896  nElectrons: 9.000000  magneticMoment: [ Abs: 0.06000  Tot: -0.06000 ]
	FillingsUpdate:  mu: -0.100741870  nElectrons: 9.000000  magneticMoment: [ Abs: 0.06000  Tot: -0.06000 ]
SCF: Cycle:  0   F: -20.186986362600397   dF: -4.436e-03   |Residual|: 1.128e-02   |deigs|: 1.882e-01  t[s]:      9.26
	FillingsUpdate:  mu: -0.100909582  nElectrons: 9.000000  magneticMoment: [ Abs: 0.06000  Tot: -0.06000 ]
SCF: Cycle:  1   F: -20.187328809865416   dF: -3.424e-04   |Residual|: 9.487e-03   |deigs|: 4.478e-03  t[s]:     11.13
	FillingsUpdate:  mu: -0.096380782  nElectrons: 9.000000  magneticMoment: [ Abs: 0.06518  Tot: -0.06000 ]
SCF: Cycle:  2   F: -20.187637563323211   dF: -3.088e-04   |Residual|: 4.581e-03   |deigs|: 4.086e-03  t[s]:     12.96
	FillingsUpdate:  mu: -0.097137573  nElectrons: 9.000000  magneticMoment: [ Abs: 0.06000  Tot: -0.06000 ]
SCF: Cycle:  3   F: -20.187728300295934   dF: -9.074e-05   |Residual|: 3.865e-03   |deigs|: 1.447e-03  t[s]:     14.80
	FillingsUpdate:  mu: -0.093931639  nElectrons: 9.000000  magneticMoment: [ Abs: 0.06123  Tot: -0.06000 ]
SCF: Cycle:  4   F: -20.187808752995494   dF: -8.045e-05   |Residual|: 2.411e-03   |deigs|: 3.909e-03  t[s]:     16.67
	FillingsUpdate:  mu: -0.091818251  nElectrons: 9.000000  magneticMoment: [ Abs: 0.06111  Tot: -0.06000 ]
SCF: Cycle:  5   F: -20.187850258652286   dF: -4.151e-05   |Residual|: 1.748e-03   |deigs|: 2.617e-03  t[s]:     18.55
	FillingsUpdate:  mu: -0.089290395  nElectrons: 9.000000  magneticMoment: [ Abs: 0.06233  Tot: -0.06000 ]
SCF: Cycle:  6   F: -20.187868759614652   dF: -1.850e-05   |Residual|: 1.494e-03   |deigs|: 3.057e-03  t[s]:     20.46
	FillingsUpdate:  mu: -0.088508516  nElectrons: 9.000000  magneticMoment: [ Abs: 0.06108  Tot: -0.06000 ]
SCF: Cycle:  7   F: -20.187888426314107   dF: -1.967e-05   |Residual|: 1.225e-03   |deigs|: 1.180e-03  t[s]:     22.46
	FillingsUpdate:  mu: -0.086603628  nElectrons: 9.000000  magneticMoment: [ Abs: 0.06100  Tot: -0.06000 ]
SCF: Cycle:  8   F: -20.187889954633899   dF: -1.528e-06   |Residual|: 1.145e-03   |deigs|: 1.789e-03  t[s]:     24.41
	FillingsUpdate:  mu: -0.084912597  nElectrons: 9.000000  magneticMoment: [ Abs: 0.06119  Tot: -0.06000 ]
SCF: Cycle:  9   F: -20.187879379864171   dF: +1.057e-05   |Residual|: 1.133e-03   |deigs|: 1.855e-03  t[s]:     26.38
	FillingsUpdate:  mu: -0.082748771  nElectrons: 9.000000  magneticMoment: [ Abs: 0.06122  Tot: -0.06000 ]
SCF: Cycle: 10   F: -20.187899432143329   dF: -2.005e-05   |Residual|: 8.591e-04   |deigs|: 2.269e-03  t[s]:     28.35
	FillingsUpdate:  mu: -0.081566621  nElectrons: 9.000000  magneticMoment: [ Abs: 0.06082  Tot: -0.06000 ]
SCF: Cycle: 11   F: -20.187926436659989   dF: -2.700e-05   |Residual|: 6.903e-04   |deigs|: 1.113e-03  t[s]:     30.34
	FillingsUpdate:  mu: -0.080055183  nElectrons: 9.000000  magneticMoment: [ Abs: 0.06130  Tot: -0.06000 ]
SCF: Cycle: 12   F: -20.187941696521996   dF: -1.526e-05   |Residual|: 5.951e-04   |deigs|: 1.502e-03  t[s]:     32.33
	FillingsUpdate:  mu: -0.078166962  nElectrons: 9.000000  magneticMoment: [ Abs: 0.06063  Tot: -0.06000 ]
SCF: Cycle: 13   F: -20.187950741116868   dF: -9.045e-06   |Residual|: 5.140e-04   |deigs|: 1.959e-03  t[s]:     34.32
	FillingsUpdate:  mu: -0.077033816  nElectrons: 9.000000  magneticMoment: [ Abs: 0.06035  Tot: -0.06000 ]
SCF: Cycle: 14   F: -20.187955979741851   dF: -5.239e-06   |Residual|: 4.297e-04   |deigs|: 1.358e-03  t[s]:     36.36
	FillingsUpdate:  mu: -0.076826010  nElectrons: 9.000000  magneticMoment: [ Abs: 0.06054  Tot: -0.06000 ]
SCF: Cycle: 15   F: -20.187959477472408   dF: -3.498e-06   |Residual|: 2.966e-04   |deigs|: 1.055e-03  t[s]:     38.35
	FillingsUpdate:  mu: -0.076667366  nElectrons: 9.000000  magneticMoment: [ Abs: 0.06018  Tot: -0.06000 ]
SCF: Cycle: 16   F: -20.187961184263148   dF: -1.707e-06   |Residual|: 1.561e-04   |deigs|: 3.391e-04  t[s]:     40.32
	FillingsUpdate:  mu: -0.076598508  nElectrons: 9.000000  magneticMoment: [ Abs: 0.06007  Tot: -0.06000 ]
SCF: Cycle: 17   F: -20.187961925987576   dF: -7.417e-07   |Residual|: 9.107e-05   |deigs|: 2.173e-04  t[s]:     42.31
	FillingsUpdate:  mu: -0.076694705  nElectrons: 9.000000  magneticMoment: [ Abs: 0.06003  Tot: -0.06000 ]
SCF: Cycle: 18   F: -20.187962098784190   dF: -1.728e-07   |Residual|: 5.232e-05   |deigs|: 1.773e-04  t[s]:     44.32
	FillingsUpdate:  mu: -0.076712160  nElectrons: 9.000000  magneticMoment: [ Abs: 0.06002  Tot: -0.06000 ]
SCF: Cycle: 19   F: -20.187962176665035   dF: -7.788e-08   |Residual|: 3.031e-05   |deigs|: 5.950e-04  t[s]:     46.34
	FillingsUpdate:  mu: -0.076730254  nElectrons: 9.000000  magneticMoment: [ Abs: 0.06002  Tot: -0.06000 ]
SCF: Cycle: 20   F: -20.187962207360346   dF: -3.070e-08   |Residual|: 1.532e-05   |deigs|: 3.573e-04  t[s]:     48.32
	FillingsUpdate:  mu: -0.076744146  nElectrons: 9.000000  magneticMoment: [ Abs: 0.06002  Tot: -0.06000 ]
SCF: Cycle: 21   F: -20.187962217012934   dF: -9.653e-09   |Residual|: 9.623e-06   |deigs|: 3.617e-04  t[s]:     50.30
	FillingsUpdate:  mu: -0.076750344  nElectrons: 9.000000  magneticMoment: [ Abs: 0.06001  Tot: -0.06000 ]
SCF: Cycle: 22   F: -20.187962220969276   dF: -3.956e-09   |Residual|: 5.599e-06   |deigs|: 5.328e-04  t[s]:     52.26
SCF: Converged (|Delta E|<1.000000e-08 for 2 iters).


# Ionic positions in lattice coordinates:
ion Cs   0.000000000000000   0.000000000000000   0.000000000000000 0

# Forces in Lattice coordinates:
force Cs   0.000000000000000  -0.000000000000000   0.000000000000000 0

# Energy components:
   Eewald =      -18.0480261003326561
       EH =       -1.8429273708092224
     Eloc =       -5.7421737470496028
      Enl =        3.4433708779035941
   Epulay =        0.0000000264484078
      Exc =       -3.1432717491723414
       KE =        5.1450669057830671
-------------------------------------
     Etot =      -20.1879611572287523
       TS =        0.0000010637405219
-------------------------------------
        F =      -20.1879622209692755

IonicMinimize: Iter:   0  F: -20.187962220969276  |grad|_K:  0.000e+00  t[s]:     52.38
IonicMinimize: Converged (|grad|_K<1.000000e-04).

#--- Lowdin population analysis ---
# oxidation-state Cs +0.042
# magnetic-moments Cs -0.054

End date and time: Sun Feb  6 13:22:49 2022  (Duration: 0-0:00:52.40)
Done!
scale=3
magnetization=-0.06
--------------------------------------------------------------------------
The library attempted to open the following supporting CUDA libraries,
but each of them failed.  CUDA-aware support is disabled.
libcuda.so.1: cannot open shared object file: No such file or directory
libcuda.dylib: cannot open shared object file: No such file or directory
/usr/lib64/libcuda.so.1: cannot open shared object file: No such file or directory
/usr/lib64/libcuda.dylib: cannot open shared object file: No such file or directory
If you are not interested in CUDA-aware support, then run with
--mca opal_warn_on_missing_libcuda 0 to suppress this message.  If you are interested
in CUDA-aware support, then try setting LD_LIBRARY_PATH to the location
of libcuda.so.1 to get passed this issue.
--------------------------------------------------------------------------
--------------------------------------------------------------------------
No OpenFabrics connection schemes reported that they were able to be
used on a specific port.  As such, the openib BTL (OpenFabrics
support) will be disabled for this port.

  Local host:           d-6-7-4
  Local device:         mlx5_1
  Local port:           1
  CPCs attempted:       rdmacm, udcm
--------------------------------------------------------------------------

*************** JDFTx 1.6.0 (git hash 42ebbcc2) ***************

Start date and time: Sun Feb  6 13:22:50 2022
Executable jdftx with command-line: -i Alkali.in
Running on hosts (process indices):  d-6-7-4 (0-18)
Divided in process groups (process indices):  0 (0)  1 (1)  2 (2)  3 (3)  4 (4)  5 (5)  6 (6)  7 (7)  8 (8)  9 (9)  10 (10)  11 (11)  12 (12)  13 (13)  14 (14)  15 (15)  16 (16)  17 (17)  18 (18)
Resource initialization completed at t[s]:      0.00
Run totals: 19 processes, 48 threads, 0 GPUs


Input parsed successfully to the following command list (including defaults):

basis kpoint-dependent
coords-type Lattice
core-overlap-check vector
coulomb-interaction Slab 001
davidson-band-ratio 1.1
dump End None
dump-name $INPUT.$VAR
elec-cutoff 20
elec-eigen-algo Davidson
elec-ex-corr gga-PBE
elec-initial-magnetization -0.060000 yes
elec-smearing Fermi 1e-05
electronic-minimize  \
	dirUpdateScheme      FletcherReeves \
	linminMethod         DirUpdateRecommended \
	nIterations          100 \
	history              15 \
	knormThreshold       0 \
	energyDiffThreshold  1e-08 \
	nEnergyDiff          2 \
	alphaTstart          1 \
	alphaTmin            1e-10 \
	updateTestStepSize   yes \
	alphaTreduceFactor   0.1 \
	alphaTincreaseFactor 3 \
	nAlphaAdjustMax      3 \
	wolfeEnergy          0.0001 \
	wolfeGradient        0.9 \
	fdTest               no
electronic-scf  \
	nIterations	10000 \
	energyDiffThreshold	1e-08 \
	residualThreshold	1e-07 \
	mixFraction	0.5 \
	qMetric	0.8 \
	history	10 \
	nEigSteps	2 \
	eigDiffThreshold	1e-08 \
	mixedVariable	Density \
	qKerker	0.8 \
	qKappa	-1 \
	verbose	no \
	mixFractionMag	1.5
exchange-regularization WignerSeitzTruncated
fluid None
fluid-ex-corr (null) lda-PZ
fluid-gummel-loop 10 1.000000e-05
fluid-minimize  \
	dirUpdateScheme      PolakRibiere \
	linminMethod         DirUpdateRecommended \
	nIterations          100 \
	history              15 \
	knormThreshold       0 \
	energyDiffThreshold  0 \
	nEnergyDiff          2 \
	alphaTstart          1 \
	alphaTmin            1e-10 \
	updateTestStepSize   yes \
	alphaTreduceFactor   0.1 \
	alphaTincreaseFactor 3 \
	nAlphaAdjustMax      3 \
	wolfeEnergy          0.0001 \
	wolfeGradient        0.9 \
	fdTest               no
fluid-solvent H2O 55.338 ScalarEOS \
	epsBulk 78.4 \
	pMol 0.92466 \
	epsInf 1.77 \
	Pvap 1.06736e-10 \
	sigmaBulk 4.62e-05 \
	Rvdw 2.61727 \
	Res 1.42 \
	tauNuc 343133 \
	poleEl 15 7 1
forces-output-coords Positions
ion Cs   0.000000000000000   0.000000000000000   0.000000000000000 0
ion-species SG15/$ID_ONCV_PBE.upf
ion-width 0
ionic-minimize  \
	dirUpdateScheme      L-BFGS \
	linminMethod         DirUpdateRecommended \
	nIterations          0 \
	history              15 \
	knormThreshold       0.0001 \
	energyDiffThreshold  1e-06 \
	nEnergyDiff          2 \
	alphaTstart          1 \
	alphaTmin            1e-10 \
	updateTestStepSize   yes \
	alphaTreduceFactor   0.1 \
	alphaTincreaseFactor 3 \
	nAlphaAdjustMax      3 \
	wolfeEnergy          0.0001 \
	wolfeGradient        0.9 \
	fdTest               no
kpoint   0.000000000000   0.000000000000   0.000000000000  1.00000000000000
kpoint-folding 12 12 1 
latt-move-scale 1 1 1
latt-scale 3 3 1 
lattice  \
	   4.727486978767153   -2.363743489383575    0.000000000000000  \
	  -0.000000000000000    4.094123819672498    0.000000000000000  \
	   0.000000000000000    0.000000000000000   40.000000000000000 
lattice-minimize  \
	dirUpdateScheme      L-BFGS \
	linminMethod         DirUpdateRecommended \
	nIterations          0 \
	history              15 \
	knormThreshold       0 \
	energyDiffThreshold  1e-06 \
	nEnergyDiff          2 \
	alphaTstart          1 \
	alphaTmin            1e-10 \
	updateTestStepSize   yes \
	alphaTreduceFactor   0.1 \
	alphaTincreaseFactor 3 \
	nAlphaAdjustMax      3 \
	wolfeEnergy          0.0001 \
	wolfeGradient        0.9 \
	fdTest               no
lcao-params -1 1e-06 1e-05
pcm-variant GLSSA13
spintype z-spin
subspace-rotation-factor 1 yes
symmetries automatic
symmetry-threshold 0.0001



---------- Setting up symmetries ----------

Found 24 point-group symmetries of the bravais lattice
Found 24 space-group symmetries with basis
Applied RMS atom displacement 0 bohrs to make symmetries exact.

---------- Initializing the Grid ----------
R = 
[      14.1825     -7.09123            0  ]
[            0      12.2824            0  ]
[            0            0           40  ]
unit cell volume = 6967.77
G =
[   0.443025   0.255781         -0  ]
[          0   0.511561         -0  ]
[         -0         -0    0.15708  ]
Minimum fftbox size, Smin = [  60  60  164  ]
Chosen fftbox size, S = [  60  60  168  ]

---------- Exchange Correlation functional ----------
Initalized PBE GGA exchange.
Initalized PBE GGA correlation.

---------- Setting up pseudopotentials ----------
Width of ionic core gaussian charges (only for fluid interactions / plotting) set to 0

Reading pseudopotential file '/home/gridsan/aligho/DFT/build-Nov24/pseudopotentials/SG15/Cs_ONCV_PBE.upf':
  'Cs' pseudopotential, 'PBE' functional
  Generated using ONCVPSP code by D. R. Hamann
  Author: Martin Schlipf and Francois Gygi  Date: 150915.
  9 valence electrons, 3 orbitals, 6 projectors, 2414 radial grid points, with lMax = 2
  Transforming local potential to a uniform radial grid of dG=0.02 with 1489 points.
  Transforming nonlocal projectors to a uniform radial grid of dG=0.02 with 432 points.
    5S    l: 0   occupation:  2.0   eigenvalue: -0.982388
    5P    l: 1   occupation:  6.0   eigenvalue: -0.496786
    6S    l: 0   occupation:  1.0   eigenvalue: -0.076670
  Transforming atomic orbitals to a uniform radial grid of dG=0.02 with 432 points.
  Core radius for overlap checks: 2.06 bohrs.
  Reading pulay file /home/gridsan/aligho/DFT/build-Nov24/pseudopotentials/SG15/Cs_ONCV_PBE.pulay ... using dE_dnG = -1.008762e-04 computed for Ecut = 20.

Initialized 1 species with 1 total atoms.

Folded 1 k-points by 12x12x1 to 144 k-points.

---------- Setting up k-points, bands, fillings ----------
Reduced to 19 k-points under symmetry. 
Computing the number of bands and number of electrons
Calculating initial fillings.
nElectrons:   9.000000   nBands: 6   nStates: 38

----- Setting up reduced wavefunction bases (one per k-point) -----
average nbasis = 29766.104 , ideal nbasis = 29766.845

---------- Setting up coulomb interaction ----------
Initialized slab truncation along lattice direction 001

---------- Setting up 2D ewald sum ----------
Optimum gaussian width for ewald sums = 7.873530 bohr.
Real space sums over 289 unit cells with max indices [  8  8  0  ]
Reciprocal space sums over 81 terms with max indices [  4  4  0  ]

---------- Allocating electronic variables ----------
Initializing wave functions:  linear combination of atomic orbitals
Note: number of bands (6) exceeds available atomic orbitals (5)
Cs pseudo-atom occupations:   s ( 2 1 )  p ( 6 )
[d-6-7-4:74784] 18 more processes have sent help message help-mpi-common-cuda.txt / dlopen failed
[d-6-7-4:74784] Set MCA parameter "orte_base_help_aggregate" to 0 to see all help / error messages
[d-6-7-4:74784] 18 more processes have sent help message help-mpi-btl-openib-cpc-base.txt / no cpcs for port
	FillingsUpdate:  mu: -0.078527510  nElectrons: 9.000000  magneticMoment: [ Abs: 0.06000  Tot: -0.06000 ]
LCAOMinimize: Iter:   0  F: -20.1753519290726047  |grad|_K:  2.577e-05  alpha:  1.000e+00
	FillingsUpdate:  mu: -0.078521621  nElectrons: 9.000000  magneticMoment: [ Abs: 0.06000  Tot: -0.06000 ]
LCAOMinimize: Iter:   1  F: -20.1753523764484974  |grad|_K:  1.852e-07  alpha:  9.851e-01  linmin: -3.436e-02  cgtest:  6.415e-01  t[s]:      8.70
LCAOMinimize: Encountered beta<0, resetting CG.
	FillingsUpdate:  mu: -0.078521609  nElectrons: 9.000000  magneticMoment: [ Abs: 0.06000  Tot: -0.06000 ]
LCAOMinimize: Iter:   2  F: -20.1753523764714977  |grad|_K:  3.009e-09  alpha:  9.842e-01  linmin: -5.690e-02  cgtest:  9.816e-01  t[s]:     11.02
LCAOMinimize: Encountered beta<0, resetting CG.
LCAOMinimize: Converged (|Delta F|<1.000000e-06 for 2 iters).


---- Citations for features of the code used in this run ----

   Software package:
      R. Sundararaman, K. Letchworth-Weaver, K.A. Schwarz, D. Gunceler, Y. Ozhabes and T.A. Arias, 'JDFTx: software for joint density-functional theory', SoftwareX 6, 278 (2017)

   gga-PBE exchange-correlation functional:
      J.P. Perdew, K. Burke and M. Ernzerhof, Phys. Rev. Lett. 77, 3865 (1996)

   Pseudopotentials:
      M Schlipf and F Gygi, Comput. Phys. Commun. 196, 36 (2015)

   Truncated Coulomb potentials:
      R. Sundararaman and T.A. Arias, Phys. Rev. B 87, 165122 (2013)

This list may not be complete. Please suggest additional citations or
report any other bugs at https://github.com/shankar1729/jdftx/issues

Initialization completed successfully at t[s]:     11.18


-------- Electronic minimization -----------
Will mix electronic density at each iteration.
	FillingsUpdate:  mu: -0.078521609  nElectrons: 9.000000  magneticMoment: [ Abs: 0.06000  Tot: -0.06000 ]
	FillingsUpdate:  mu: -0.082249817  nElectrons: 9.000000  magneticMoment: [ Abs: 0.06000  Tot: -0.06000 ]
SCF: Cycle:  0   F: -20.177725852220295   dF: -2.373e-03   |Residual|: 4.323e-03   |deigs|: 1.729e-01  t[s]:     15.93
	FillingsUpdate:  mu: -0.082537262  nElectrons: 9.000000  magneticMoment: [ Abs: 0.06000  Tot: -0.06000 ]
SCF: Cycle:  1   F: -20.177799589542513   dF: -7.374e-05   |Residual|: 3.871e-03   |deigs|: 4.777e-03  t[s]:     19.57
	FillingsUpdate:  mu: -0.083070678  nElectrons: 9.000000  magneticMoment: [ Abs: 0.06258  Tot: -0.06000 ]
SCF: Cycle:  2   F: -20.177865130734052   dF: -6.554e-05   |Residual|: 1.646e-03   |deigs|: 3.499e-03  t[s]:     23.31
	FillingsUpdate:  mu: -0.082898586  nElectrons: 9.000000  magneticMoment: [ Abs: 0.06039  Tot: -0.06000 ]
SCF: Cycle:  3   F: -20.177887160005888   dF: -2.203e-05   |Residual|: 1.134e-03   |deigs|: 1.127e-03  t[s]:     27.07
	FillingsUpdate:  mu: -0.082656903  nElectrons: 9.000000  magneticMoment: [ Abs: 0.06010  Tot: -0.06000 ]
SCF: Cycle:  4   F: -20.177894644211936   dF: -7.484e-06   |Residual|: 7.076e-04   |deigs|: 8.758e-04  t[s]:     30.89
	FillingsUpdate:  mu: -0.082351543  nElectrons: 9.000000  magneticMoment: [ Abs: 0.06024  Tot: -0.06000 ]
SCF: Cycle:  5   F: -20.177899315904611   dF: -4.672e-06   |Residual|: 6.127e-04   |deigs|: 8.696e-04  t[s]:     34.76
	FillingsUpdate:  mu: -0.081661801  nElectrons: 9.000000  magneticMoment: [ Abs: 0.06131  Tot: -0.06000 ]
SCF: Cycle:  6   F: -20.177900197468350   dF: -8.816e-07   |Residual|: 5.047e-04   |deigs|: 1.318e-03  t[s]:     38.68
	FillingsUpdate:  mu: -0.081340220  nElectrons: 9.000000  magneticMoment: [ Abs: 0.06101  Tot: -0.06000 ]
SCF: Cycle:  7   F: -20.177899451693733   dF: +7.458e-07   |Residual|: 4.323e-04   |deigs|: 8.369e-04  t[s]:     42.75
	FillingsUpdate:  mu: -0.080798230  nElectrons: 9.000000  magneticMoment: [ Abs: 0.06043  Tot: -0.06000 ]
SCF: Cycle:  8   F: -20.177901301457723   dF: -1.850e-06   |Residual|: 3.450e-04   |deigs|: 7.544e-04  t[s]:     46.87
	FillingsUpdate:  mu: -0.080619755  nElectrons: 9.000000  magneticMoment: [ Abs: 0.06035  Tot: -0.06000 ]
SCF: Cycle:  9   F: -20.177902686531819   dF: -1.385e-06   |Residual|: 3.017e-04   |deigs|: 5.376e-04  t[s]:     50.99
	FillingsUpdate:  mu: -0.080141554  nElectrons: 9.000000  magneticMoment: [ Abs: 0.06099  Tot: -0.06000 ]
SCF: Cycle: 10   F: -20.177902968786629   dF: -2.823e-07   |Residual|: 2.403e-04   |deigs|: 7.791e-04  t[s]:     55.13
	FillingsUpdate:  mu: -0.079592040  nElectrons: 9.000000  magneticMoment: [ Abs: 0.06069  Tot: -0.06000 ]
SCF: Cycle: 11   F: -20.177900688984717   dF: +2.280e-06   |Residual|: 2.413e-04   |deigs|: 5.862e-04  t[s]:     59.32
	FillingsUpdate:  mu: -0.079221927  nElectrons: 9.000000  magneticMoment: [ Abs: 0.06033  Tot: -0.06000 ]
SCF: Cycle: 12   F: -20.177900933589534   dF: -2.446e-07   |Residual|: 2.362e-04   |deigs|: 7.775e-04  t[s]:     63.58
	FillingsUpdate:  mu: -0.078917842  nElectrons: 9.000000  magneticMoment: [ Abs: 0.06048  Tot: -0.06000 ]
SCF: Cycle: 13   F: -20.177903285913253   dF: -2.352e-06   |Residual|: 2.133e-04   |deigs|: 5.228e-04  t[s]:     67.82
	FillingsUpdate:  mu: -0.078697949  nElectrons: 9.000000  magneticMoment: [ Abs: 0.06073  Tot: -0.06000 ]
SCF: Cycle: 14   F: -20.177906504722049   dF: -3.219e-06   |Residual|: 1.500e-04   |deigs|: 2.612e-04  t[s]:     72.00
	FillingsUpdate:  mu: -0.078455660  nElectrons: 9.000000  magneticMoment: [ Abs: 0.06034  Tot: -0.06000 ]
SCF: Cycle: 15   F: -20.177907323365790   dF: -8.186e-07   |Residual|: 1.079e-04   |deigs|: 2.650e-04  t[s]:     76.09
	FillingsUpdate:  mu: -0.078360926  nElectrons: 9.000000  magneticMoment: [ Abs: 0.06017  Tot: -0.06000 ]
SCF: Cycle: 16   F: -20.177907733533875   dF: -4.102e-07   |Residual|: 6.644e-05   |deigs|: 1.367e-04  t[s]:     80.27
	FillingsUpdate:  mu: -0.078375345  nElectrons: 9.000000  magneticMoment: [ Abs: 0.06010  Tot: -0.06000 ]
SCF: Cycle: 17   F: -20.177907885385835   dF: -1.519e-07   |Residual|: 4.478e-05   |deigs|: 7.927e-05  t[s]:     84.37
	FillingsUpdate:  mu: -0.078392676  nElectrons: 9.000000  magneticMoment: [ Abs: 0.06008  Tot: -0.06000 ]
SCF: Cycle: 18   F: -20.177907968925094   dF: -8.354e-08   |Residual|: 2.675e-05   |deigs|: 8.208e-05  t[s]:     88.60
	FillingsUpdate:  mu: -0.078407031  nElectrons: 9.000000  magneticMoment: [ Abs: 0.06011  Tot: -0.06000 ]
SCF: Cycle: 19   F: -20.177908008668172   dF: -3.974e-08   |Residual|: 1.402e-05   |deigs|: 6.335e-05  t[s]:     92.75
	FillingsUpdate:  mu: -0.078406381  nElectrons: 9.000000  magneticMoment: [ Abs: 0.06009  Tot: -0.06000 ]
SCF: Cycle: 20   F: -20.177908021279393   dF: -1.261e-08   |Residual|: 1.040e-05   |deigs|: 6.631e-05  t[s]:     96.90
	FillingsUpdate:  mu: -0.078408695  nElectrons: 9.000000  magneticMoment: [ Abs: 0.06008  Tot: -0.06000 ]
SCF: Cycle: 21   F: -20.177908029280534   dF: -8.001e-09   |Residual|: 6.839e-06   |deigs|: 5.218e-05  t[s]:    101.19
	FillingsUpdate:  mu: -0.078410497  nElectrons: 9.000000  magneticMoment: [ Abs: 0.06008  Tot: -0.06000 ]
SCF: Cycle: 22   F: -20.177908033296205   dF: -4.016e-09   |Residual|: 3.319e-06   |deigs|: 3.563e-05  t[s]:    105.38
SCF: Converged (|Delta E|<1.000000e-08 for 2 iters).


# Ionic positions in lattice coordinates:
ion Cs   0.000000000000000   0.000000000000000   0.000000000000000 0

# Forces in Lattice coordinates:
force Cs  -0.000000000000000   0.000000000000000   0.000000000000000 0

# Energy components:
   Eewald =      -12.0320174002217755
       EH =        4.0101893782792377
     Eloc =      -17.5792119337592290
      Enl =        3.4316675757950721
   Epulay =       -0.0000000107257212
      Exc =       -3.1080367543229999
       KE =        5.0995021753997314
-------------------------------------
     Etot =      -20.1779069695556821
       TS =        0.0000010637405219
-------------------------------------
        F =      -20.1779080332962053

IonicMinimize: Iter:   0  F: -20.177908033296205  |grad|_K:  0.000e+00  t[s]:    105.64
IonicMinimize: Converged (|grad|_K<1.000000e-04).

#--- Lowdin population analysis ---
# oxidation-state Cs +0.041
# magnetic-moments Cs -0.054

End date and time: Sun Feb  6 13:24:36 2022  (Duration: 0-0:01:45.69)
Done!
scale=4
magnetization=-0.06
--------------------------------------------------------------------------
The library attempted to open the following supporting CUDA libraries,
but each of them failed.  CUDA-aware support is disabled.
libcuda.so.1: cannot open shared object file: No such file or directory
libcuda.dylib: cannot open shared object file: No such file or directory
/usr/lib64/libcuda.so.1: cannot open shared object file: No such file or directory
/usr/lib64/libcuda.dylib: cannot open shared object file: No such file or directory
If you are not interested in CUDA-aware support, then run with
--mca opal_warn_on_missing_libcuda 0 to suppress this message.  If you are interested
in CUDA-aware support, then try setting LD_LIBRARY_PATH to the location
of libcuda.so.1 to get passed this issue.
--------------------------------------------------------------------------
--------------------------------------------------------------------------
No OpenFabrics connection schemes reported that they were able to be
used on a specific port.  As such, the openib BTL (OpenFabrics
support) will be disabled for this port.

  Local host:           d-6-7-4
  Local device:         mlx5_1
  Local port:           1
  CPCs attempted:       rdmacm, udcm
--------------------------------------------------------------------------

*************** JDFTx 1.6.0 (git hash 42ebbcc2) ***************

Start date and time: Sun Feb  6 13:24:37 2022
Executable jdftx with command-line: -i Alkali.in
Running on hosts (process indices):  d-6-7-4 (0-18)
Divided in process groups (process indices):  0 (0)  1 (1)  2 (2)  3 (3)  4 (4)  5 (5)  6 (6)  7 (7)  8 (8)  9 (9)  10 (10)  11 (11)  12 (12)  13 (13)  14 (14)  15 (15)  16 (16)  17 (17)  18 (18)
Resource initialization completed at t[s]:      0.00
Run totals: 19 processes, 48 threads, 0 GPUs


Input parsed successfully to the following command list (including defaults):

basis kpoint-dependent
coords-type Lattice
core-overlap-check vector
coulomb-interaction Slab 001
davidson-band-ratio 1.1
dump End None
dump-name $INPUT.$VAR
elec-cutoff 20
elec-eigen-algo Davidson
elec-ex-corr gga-PBE
elec-initial-magnetization -0.060000 yes
elec-smearing Fermi 1e-05
electronic-minimize  \
	dirUpdateScheme      FletcherReeves \
	linminMethod         DirUpdateRecommended \
	nIterations          100 \
	history              15 \
	knormThreshold       0 \
	energyDiffThreshold  1e-08 \
	nEnergyDiff          2 \
	alphaTstart          1 \
	alphaTmin            1e-10 \
	updateTestStepSize   yes \
	alphaTreduceFactor   0.1 \
	alphaTincreaseFactor 3 \
	nAlphaAdjustMax      3 \
	wolfeEnergy          0.0001 \
	wolfeGradient        0.9 \
	fdTest               no
electronic-scf  \
	nIterations	10000 \
	energyDiffThreshold	1e-08 \
	residualThreshold	1e-07 \
	mixFraction	0.5 \
	qMetric	0.8 \
	history	10 \
	nEigSteps	2 \
	eigDiffThreshold	1e-08 \
	mixedVariable	Density \
	qKerker	0.8 \
	qKappa	-1 \
	verbose	no \
	mixFractionMag	1.5
exchange-regularization WignerSeitzTruncated
fluid None
fluid-ex-corr (null) lda-PZ
fluid-gummel-loop 10 1.000000e-05
fluid-minimize  \
	dirUpdateScheme      PolakRibiere \
	linminMethod         DirUpdateRecommended \
	nIterations          100 \
	history              15 \
	knormThreshold       0 \
	energyDiffThreshold  0 \
	nEnergyDiff          2 \
	alphaTstart          1 \
	alphaTmin            1e-10 \
	updateTestStepSize   yes \
	alphaTreduceFactor   0.1 \
	alphaTincreaseFactor 3 \
	nAlphaAdjustMax      3 \
	wolfeEnergy          0.0001 \
	wolfeGradient        0.9 \
	fdTest               no
fluid-solvent H2O 55.338 ScalarEOS \
	epsBulk 78.4 \
	pMol 0.92466 \
	epsInf 1.77 \
	Pvap 1.06736e-10 \
	sigmaBulk 4.62e-05 \
	Rvdw 2.61727 \
	Res 1.42 \
	tauNuc 343133 \
	poleEl 15 7 1
forces-output-coords Positions
ion Cs   0.000000000000000   0.000000000000000   0.000000000000000 0
ion-species SG15/$ID_ONCV_PBE.upf
ion-width 0
ionic-minimize  \
	dirUpdateScheme      L-BFGS \
	linminMethod         DirUpdateRecommended \
	nIterations          0 \
	history              15 \
	knormThreshold       0.0001 \
	energyDiffThreshold  1e-06 \
	nEnergyDiff          2 \
	alphaTstart          1 \
	alphaTmin            1e-10 \
	updateTestStepSize   yes \
	alphaTreduceFactor   0.1 \
	alphaTincreaseFactor 3 \
	nAlphaAdjustMax      3 \
	wolfeEnergy          0.0001 \
	wolfeGradient        0.9 \
	fdTest               no
kpoint   0.000000000000   0.000000000000   0.000000000000  1.00000000000000
kpoint-folding 12 12 1 
latt-move-scale 1 1 1
latt-scale 4 4 1 
lattice  \
	   4.727486978767153   -2.363743489383575    0.000000000000000  \
	  -0.000000000000000    4.094123819672498    0.000000000000000  \
	   0.000000000000000    0.000000000000000   40.000000000000000 
lattice-minimize  \
	dirUpdateScheme      L-BFGS \
	linminMethod         DirUpdateRecommended \
	nIterations          0 \
	history              15 \
	knormThreshold       0 \
	energyDiffThreshold  1e-06 \
	nEnergyDiff          2 \
	alphaTstart          1 \
	alphaTmin            1e-10 \
	updateTestStepSize   yes \
	alphaTreduceFactor   0.1 \
	alphaTincreaseFactor 3 \
	nAlphaAdjustMax      3 \
	wolfeEnergy          0.0001 \
	wolfeGradient        0.9 \
	fdTest               no
lcao-params -1 1e-06 1e-05
pcm-variant GLSSA13
spintype z-spin
subspace-rotation-factor 1 yes
symmetries automatic
symmetry-threshold 0.0001



---------- Setting up symmetries ----------

Found 24 point-group symmetries of the bravais lattice
Found 24 space-group symmetries with basis
Applied RMS atom displacement 0 bohrs to make symmetries exact.

---------- Initializing the Grid ----------
R = 
[      18.9099     -9.45497            0  ]
[            0      16.3765            0  ]
[            0            0           40  ]
unit cell volume = 12387.1
G =
[   0.332269   0.191835         -0  ]
[          0   0.383671         -0  ]
[         -0         -0    0.15708  ]
Minimum fftbox size, Smin = [  80  80  164  ]
Chosen fftbox size, S = [  80  80  168  ]

---------- Exchange Correlation functional ----------
Initalized PBE GGA exchange.
Initalized PBE GGA correlation.

---------- Setting up pseudopotentials ----------
Width of ionic core gaussian charges (only for fluid interactions / plotting) set to 0

Reading pseudopotential file '/home/gridsan/aligho/DFT/build-Nov24/pseudopotentials/SG15/Cs_ONCV_PBE.upf':
  'Cs' pseudopotential, 'PBE' functional
  Generated using ONCVPSP code by D. R. Hamann
  Author: Martin Schlipf and Francois Gygi  Date: 150915.
  9 valence electrons, 3 orbitals, 6 projectors, 2414 radial grid points, with lMax = 2
  Transforming local potential to a uniform radial grid of dG=0.02 with 1489 points.
  Transforming nonlocal projectors to a uniform radial grid of dG=0.02 with 432 points.
    5S    l: 0   occupation:  2.0   eigenvalue: -0.982388
    5P    l: 1   occupation:  6.0   eigenvalue: -0.496786
    6S    l: 0   occupation:  1.0   eigenvalue: -0.076670
  Transforming atomic orbitals to a uniform radial grid of dG=0.02 with 432 points.
  Core radius for overlap checks: 2.06 bohrs.
  Reading pulay file /home/gridsan/aligho/DFT/build-Nov24/pseudopotentials/SG15/Cs_ONCV_PBE.pulay ... using dE_dnG = -1.008762e-04 computed for Ecut = 20.

Initialized 1 species with 1 total atoms.

Folded 1 k-points by 12x12x1 to 144 k-points.

---------- Setting up k-points, bands, fillings ----------
Reduced to 19 k-points under symmetry. 
Computing the number of bands and number of electrons
Calculating initial fillings.
nElectrons:   9.000000   nBands: 6   nStates: 38

----- Setting up reduced wavefunction bases (one per k-point) -----
average nbasis = 52924.021 , ideal nbasis = 52918.836

---------- Setting up coulomb interaction ----------
Initialized slab truncation along lattice direction 001

---------- Setting up 2D ewald sum ----------
Optimum gaussian width for ewald sums = 10.498040 bohr.
Real space sums over 289 unit cells with max indices [  8  8  0  ]
Reciprocal space sums over 81 terms with max indices [  4  4  0  ]

---------- Allocating electronic variables ----------
Initializing wave functions:  linear combination of atomic orbitals
Note: number of bands (6) exceeds available atomic orbitals (5)
Cs pseudo-atom occupations:   s ( 2 1 )  p ( 6 )
[d-6-7-4:13726] 18 more processes have sent help message help-mpi-common-cuda.txt / dlopen failed
[d-6-7-4:13726] Set MCA parameter "orte_base_help_aggregate" to 0 to see all help / error messages
[d-6-7-4:13726] 18 more processes have sent help message help-mpi-btl-openib-cpc-base.txt / no cpcs for port
	FillingsUpdate:  mu: -0.077218347  nElectrons: 9.000000  magneticMoment: [ Abs: 0.06000  Tot: -0.06000 ]
LCAOMinimize: Iter:   0  F: -20.1678197906882168  |grad|_K:  7.763e-06  alpha:  1.000e+00
	FillingsUpdate:  mu: -0.077216724  nElectrons: 9.000000  magneticMoment: [ Abs: 0.06000  Tot: -0.06000 ]
LCAOMinimize: Iter:   1  F: -20.1678198314478614  |grad|_K:  3.821e-08  alpha:  9.888e-01  linmin: -1.427e-02  cgtest:  3.940e-01  t[s]:     14.88
LCAOMinimize: Encountered beta<0, resetting CG.
	FillingsUpdate:  mu: -0.077216723  nElectrons: 9.000000  magneticMoment: [ Abs: 0.06000  Tot: -0.06000 ]
LCAOMinimize: Iter:   2  F: -20.1678198314491866  |grad|_K:  1.632e-09  alpha:  9.578e-01  linmin: -3.058e-02  cgtest:  9.999e-01  t[s]:     18.79
LCAOMinimize: Encountered beta<0, resetting CG.
LCAOMinimize: Converged (|Delta F|<1.000000e-06 for 2 iters).


---- Citations for features of the code used in this run ----

   Software package:
      R. Sundararaman, K. Letchworth-Weaver, K.A. Schwarz, D. Gunceler, Y. Ozhabes and T.A. Arias, 'JDFTx: software for joint density-functional theory', SoftwareX 6, 278 (2017)

   gga-PBE exchange-correlation functional:
      J.P. Perdew, K. Burke and M. Ernzerhof, Phys. Rev. Lett. 77, 3865 (1996)

   Pseudopotentials:
      M Schlipf and F Gygi, Comput. Phys. Commun. 196, 36 (2015)

   Truncated Coulomb potentials:
      R. Sundararaman and T.A. Arias, Phys. Rev. B 87, 165122 (2013)

This list may not be complete. Please suggest additional citations or
report any other bugs at https://github.com/shankar1729/jdftx/issues

Initialization completed successfully at t[s]:     19.04


-------- Electronic minimization -----------
Will mix electronic density at each iteration.
	FillingsUpdate:  mu: -0.077216723  nElectrons: 9.000000  magneticMoment: [ Abs: 0.06000  Tot: -0.06000 ]
	FillingsUpdate:  mu: -0.077452697  nElectrons: 9.000000  magneticMoment: [ Abs: 0.06000  Tot: -0.06000 ]
SCF: Cycle:  0   F: -20.168082005374099   dF: -2.622e-04   |Residual|: 9.887e-04   |deigs|: 1.755e-01  t[s]:     27.12
	FillingsUpdate:  mu: -0.077516383  nElectrons: 9.000000  magneticMoment: [ Abs: 0.06032  Tot: -0.06000 ]
SCF: Cycle:  1   F: -20.168088923232681   dF: -6.918e-06   |Residual|: 8.909e-04   |deigs|: 3.604e-03  t[s]:     33.42
	FillingsUpdate:  mu: -0.077661700  nElectrons: 9.000000  magneticMoment: [ Abs: 0.06023  Tot: -0.06000 ]
SCF: Cycle:  2   F: -20.168093400292197   dF: -4.477e-06   |Residual|: 6.561e-04   |deigs|: 8.404e-04  t[s]:     39.87
	FillingsUpdate:  mu: -0.077870941  nElectrons: 9.000000  magneticMoment: [ Abs: 0.06123  Tot: -0.06000 ]
SCF: Cycle:  3   F: -20.168099355296562   dF: -5.955e-06   |Residual|: 4.273e-04   |deigs|: 1.067e-03  t[s]:     46.34
	FillingsUpdate:  mu: -0.077975272  nElectrons: 9.000000  magneticMoment: [ Abs: 0.06039  Tot: -0.06000 ]
SCF: Cycle:  4   F: -20.168102227476556   dF: -2.872e-06   |Residual|: 2.702e-04   |deigs|: 5.545e-04  t[s]:     53.00
	FillingsUpdate:  mu: -0.078051933  nElectrons: 9.000000  magneticMoment: [ Abs: 0.06062  Tot: -0.06000 ]
SCF: Cycle:  5   F: -20.168104271025491   dF: -2.044e-06   |Residual|: 2.108e-04   |deigs|: 4.168e-04  t[s]:     59.70
	FillingsUpdate:  mu: -0.078009026  nElectrons: 9.000000  magneticMoment: [ Abs: 0.06060  Tot: -0.06000 ]
SCF: Cycle:  6   F: -20.168105157822854   dF: -8.868e-07   |Residual|: 1.282e-04   |deigs|: 5.218e-04  t[s]:     66.53
	FillingsUpdate:  mu: -0.077972692  nElectrons: 9.000000  magneticMoment: [ Abs: 0.06046  Tot: -0.06000 ]
SCF: Cycle:  7   F: -20.168105476488858   dF: -3.187e-07   |Residual|: 1.086e-04   |deigs|: 5.917e-04  t[s]:     73.46
	FillingsUpdate:  mu: -0.077926157  nElectrons: 9.000000  magneticMoment: [ Abs: 0.06041  Tot: -0.06000 ]
SCF: Cycle:  8   F: -20.168105667473416   dF: -1.910e-07   |Residual|: 7.597e-05   |deigs|: 3.441e-04  t[s]:     80.52
	FillingsUpdate:  mu: -0.077865611  nElectrons: 9.000000  magneticMoment: [ Abs: 0.06050  Tot: -0.06000 ]
SCF: Cycle:  9   F: -20.168105704212191   dF: -3.674e-08   |Residual|: 6.901e-05   |deigs|: 2.983e-04  t[s]:     87.73
	FillingsUpdate:  mu: -0.077819440  nElectrons: 9.000000  magneticMoment: [ Abs: 0.06051  Tot: -0.06000 ]
SCF: Cycle: 10   F: -20.168105738007370   dF: -3.380e-08   |Residual|: 6.177e-05   |deigs|: 3.265e-04  t[s]:     95.00
	FillingsUpdate:  mu: -0.077740316  nElectrons: 9.000000  magneticMoment: [ Abs: 0.06055  Tot: -0.06000 ]
SCF: Cycle: 11   F: -20.168105650867528   dF: +8.714e-08   |Residual|: 5.796e-05   |deigs|: 1.548e-04  t[s]:    102.29
	FillingsUpdate:  mu: -0.077678570  nElectrons: 9.000000  magneticMoment: [ Abs: 0.06055  Tot: -0.06000 ]
SCF: Cycle: 12   F: -20.168105664217190   dF: -1.335e-08   |Residual|: 5.249e-05   |deigs|: 8.817e-05  t[s]:    109.56
	FillingsUpdate:  mu: -0.077621628  nElectrons: 9.000000  magneticMoment: [ Abs: 0.06047  Tot: -0.06000 ]
SCF: Cycle: 13   F: -20.168105632689745   dF: +3.153e-08   |Residual|: 4.794e-05   |deigs|: 9.847e-05  t[s]:    116.81
	FillingsUpdate:  mu: -0.077563329  nElectrons: 9.000000  magneticMoment: [ Abs: 0.06049  Tot: -0.06000 ]
SCF: Cycle: 14   F: -20.168105704997647   dF: -7.231e-08   |Residual|: 4.399e-05   |deigs|: 1.063e-04  t[s]:    124.08
	FillingsUpdate:  mu: -0.077516726  nElectrons: 9.000000  magneticMoment: [ Abs: 0.06049  Tot: -0.06000 ]
SCF: Cycle: 15   F: -20.168105729018848   dF: -2.402e-08   |Residual|: 3.773e-05   |deigs|: 1.037e-04  t[s]:    131.40
	FillingsUpdate:  mu: -0.077485997  nElectrons: 9.000000  magneticMoment: [ Abs: 0.06041  Tot: -0.06000 ]
SCF: Cycle: 16   F: -20.168105771957936   dF: -4.294e-08   |Residual|: 3.070e-05   |deigs|: 6.061e-05  t[s]:    138.66
	FillingsUpdate:  mu: -0.077466787  nElectrons: 9.000000  magneticMoment: [ Abs: 0.06040  Tot: -0.06000 ]
SCF: Cycle: 17   F: -20.168105817862187   dF: -4.590e-08   |Residual|: 2.564e-05   |deigs|: 4.129e-05  t[s]:    145.93
	FillingsUpdate:  mu: -0.077453941  nElectrons: 9.000000  magneticMoment: [ Abs: 0.06038  Tot: -0.06000 ]
SCF: Cycle: 18   F: -20.168105801551473   dF: +1.631e-08   |Residual|: 2.104e-05   |deigs|: 2.933e-05  t[s]:    153.24
	FillingsUpdate:  mu: -0.077450724  nElectrons: 9.000000  magneticMoment: [ Abs: 0.06039  Tot: -0.06000 ]
SCF: Cycle: 19   F: -20.168105845358138   dF: -4.381e-08   |Residual|: 1.578e-05   |deigs|: 2.275e-05  t[s]:    160.46
	FillingsUpdate:  mu: -0.077450146  nElectrons: 9.000000  magneticMoment: [ Abs: 0.06042  Tot: -0.06000 ]
SCF: Cycle: 20   F: -20.168105895357975   dF: -5.000e-08   |Residual|: 1.135e-05   |deigs|: 1.842e-05  t[s]:    167.72
	FillingsUpdate:  mu: -0.077444988  nElectrons: 9.000000  magneticMoment: [ Abs: 0.06041  Tot: -0.06000 ]
SCF: Cycle: 21   F: -20.168105916121441   dF: -2.076e-08   |Residual|: 8.127e-06   |deigs|: 1.881e-05  t[s]:    175.01
	FillingsUpdate:  mu: -0.077443008  nElectrons: 9.000000  magneticMoment: [ Abs: 0.06041  Tot: -0.06000 ]
SCF: Cycle: 22   F: -20.168105922460530   dF: -6.339e-09   |Residual|: 6.301e-06   |deigs|: 2.048e-05  t[s]:    182.15
	FillingsUpdate:  mu: -0.077441339  nElectrons: 9.000000  magneticMoment: [ Abs: 0.06041  Tot: -0.06000 ]
SCF: Cycle: 23   F: -20.168105919099101   dF: +3.361e-09   |Residual|: 5.079e-06   |deigs|: 2.088e-05  t[s]:    189.42
	FillingsUpdate:  mu: -0.077440700  nElectrons: 9.000000  magneticMoment: [ Abs: 0.06039  Tot: -0.06000 ]
SCF: Cycle: 24   F: -20.168105926692217   dF: -7.593e-09   |Residual|: 2.884e-06   |deigs|: 2.224e-05  t[s]:    196.78
	FillingsUpdate:  mu: -0.077441131  nElectrons: 9.000000  magneticMoment: [ Abs: 0.06039  Tot: -0.06000 ]
SCF: Cycle: 25   F: -20.168105927972103   dF: -1.280e-09   |Residual|: 1.888e-06   |deigs|: 2.211e-05  t[s]:    203.66
SCF: Converged (|Delta E|<1.000000e-08 for 2 iters).


# Ionic positions in lattice coordinates:
ion Cs   0.000000000000000   0.000000000000000   0.000000000000000 0

# Forces in Lattice coordinates:
force Cs  -0.000000000000000   0.000000000000000   0.000000000000000 0

# Energy components:
   Eewald =       -9.0240130501663280
       EH =        7.0003323539728131
     Eloc =      -23.5838176029420623
      Enl =        3.4362444973488673
   Epulay =        0.0000000422266766
      Exc =       -3.1047209406081522
       KE =        5.1078698359366062
-------------------------------------
     Etot =      -20.1681048642315801
       TS =        0.0000010637405220
-------------------------------------
        F =      -20.1681059279721033

IonicMinimize: Iter:   0  F: -20.168105927972103  |grad|_K:  0.000e+00  t[s]:    204.06
IonicMinimize: Converged (|grad|_K<1.000000e-04).

#--- Lowdin population analysis ---
# oxidation-state Cs +0.006
# magnetic-moments Cs -0.060

End date and time: Sun Feb  6 13:28:01 2022  (Duration: 0-0:03:24.12)
Done!
