The alkali metal is Cs
scale=2
magnetization=0.14
--------------------------------------------------------------------------
The library attempted to open the following supporting CUDA libraries,
but each of them failed.  CUDA-aware support is disabled.
libcuda.so.1: cannot open shared object file: No such file or directory
libcuda.dylib: cannot open shared object file: No such file or directory
/usr/lib64/libcuda.so.1: cannot open shared object file: No such file or directory
/usr/lib64/libcuda.dylib: cannot open shared object file: No such file or directory
If you are not interested in CUDA-aware support, then run with
--mca opal_warn_on_missing_libcuda 0 to suppress this message.  If you are interested
in CUDA-aware support, then try setting LD_LIBRARY_PATH to the location
of libcuda.so.1 to get passed this issue.
--------------------------------------------------------------------------
--------------------------------------------------------------------------
No OpenFabrics connection schemes reported that they were able to be
used on a specific port.  As such, the openib BTL (OpenFabrics
support) will be disabled for this port.

  Local host:           d-3-15-1
  Local device:         mlx5_1
  Local port:           1
  CPCs attempted:       rdmacm, udcm
--------------------------------------------------------------------------

*************** JDFTx 1.6.0 (git hash 42ebbcc2) ***************

Start date and time: Sun Feb  6 13:22:59 2022
Executable jdftx with command-line: -i Alkali.in
Running on hosts (process indices):  d-3-15-1 (0-18)
Divided in process groups (process indices):  0 (0)  1 (1)  2 (2)  3 (3)  4 (4)  5 (5)  6 (6)  7 (7)  8 (8)  9 (9)  10 (10)  11 (11)  12 (12)  13 (13)  14 (14)  15 (15)  16 (16)  17 (17)  18 (18)
Resource initialization completed at t[s]:      0.00
Run totals: 19 processes, 48 threads, 0 GPUs


Input parsed successfully to the following command list (including defaults):

basis kpoint-dependent
coords-type Lattice
core-overlap-check vector
coulomb-interaction Slab 001
davidson-band-ratio 1.1
dump End None
dump-name $INPUT.$VAR
elec-cutoff 20
elec-eigen-algo Davidson
elec-ex-corr gga-PBE
elec-initial-magnetization 0.140000 yes
elec-smearing Fermi 1e-05
electronic-minimize  \
	dirUpdateScheme      FletcherReeves \
	linminMethod         DirUpdateRecommended \
	nIterations          100 \
	history              15 \
	knormThreshold       0 \
	energyDiffThreshold  1e-08 \
	nEnergyDiff          2 \
	alphaTstart          1 \
	alphaTmin            1e-10 \
	updateTestStepSize   yes \
	alphaTreduceFactor   0.1 \
	alphaTincreaseFactor 3 \
	nAlphaAdjustMax      3 \
	wolfeEnergy          0.0001 \
	wolfeGradient        0.9 \
	fdTest               no
electronic-scf  \
	nIterations	10000 \
	energyDiffThreshold	1e-08 \
	residualThreshold	1e-07 \
	mixFraction	0.5 \
	qMetric	0.8 \
	history	10 \
	nEigSteps	2 \
	eigDiffThreshold	1e-08 \
	mixedVariable	Density \
	qKerker	0.8 \
	qKappa	-1 \
	verbose	no \
	mixFractionMag	1.5
exchange-regularization WignerSeitzTruncated
fluid None
fluid-ex-corr (null) lda-PZ
fluid-gummel-loop 10 1.000000e-05
fluid-minimize  \
	dirUpdateScheme      PolakRibiere \
	linminMethod         DirUpdateRecommended \
	nIterations          100 \
	history              15 \
	knormThreshold       0 \
	energyDiffThreshold  0 \
	nEnergyDiff          2 \
	alphaTstart          1 \
	alphaTmin            1e-10 \
	updateTestStepSize   yes \
	alphaTreduceFactor   0.1 \
	alphaTincreaseFactor 3 \
	nAlphaAdjustMax      3 \
	wolfeEnergy          0.0001 \
	wolfeGradient        0.9 \
	fdTest               no
fluid-solvent H2O 55.338 ScalarEOS \
	epsBulk 78.4 \
	pMol 0.92466 \
	epsInf 1.77 \
	Pvap 1.06736e-10 \
	sigmaBulk 4.62e-05 \
	Rvdw 2.61727 \
	Res 1.42 \
	tauNuc 343133 \
	poleEl 15 7 1
forces-output-coords Positions
ion Cs   0.000000000000000   0.000000000000000   0.000000000000000 0
ion-species SG15/$ID_ONCV_PBE.upf
ion-width 0
ionic-minimize  \
	dirUpdateScheme      L-BFGS \
	linminMethod         DirUpdateRecommended \
	nIterations          0 \
	history              15 \
	knormThreshold       0.0001 \
	energyDiffThreshold  1e-06 \
	nEnergyDiff          2 \
	alphaTstart          1 \
	alphaTmin            1e-10 \
	updateTestStepSize   yes \
	alphaTreduceFactor   0.1 \
	alphaTincreaseFactor 3 \
	nAlphaAdjustMax      3 \
	wolfeEnergy          0.0001 \
	wolfeGradient        0.9 \
	fdTest               no
kpoint   0.000000000000   0.000000000000   0.000000000000  1.00000000000000
kpoint-folding 12 12 1 
latt-move-scale 1 1 1
latt-scale 2 2 1 
lattice  \
	   4.727486978767153   -2.363743489383575    0.000000000000000  \
	  -0.000000000000000    4.094123819672498    0.000000000000000  \
	   0.000000000000000    0.000000000000000   40.000000000000000 
lattice-minimize  \
	dirUpdateScheme      L-BFGS \
	linminMethod         DirUpdateRecommended \
	nIterations          0 \
	history              15 \
	knormThreshold       0 \
	energyDiffThreshold  1e-06 \
	nEnergyDiff          2 \
	alphaTstart          1 \
	alphaTmin            1e-10 \
	updateTestStepSize   yes \
	alphaTreduceFactor   0.1 \
	alphaTincreaseFactor 3 \
	nAlphaAdjustMax      3 \
	wolfeEnergy          0.0001 \
	wolfeGradient        0.9 \
	fdTest               no
lcao-params -1 1e-06 1e-05
pcm-variant GLSSA13
spintype z-spin
subspace-rotation-factor 1 yes
symmetries automatic
symmetry-threshold 0.0001



---------- Setting up symmetries ----------

Found 24 point-group symmetries of the bravais lattice
Found 24 space-group symmetries with basis
Applied RMS atom displacement 0 bohrs to make symmetries exact.

---------- Initializing the Grid ----------
R = 
[      9.45497     -4.72749            0  ]
[            0      8.18825            0  ]
[            0            0           40  ]
unit cell volume = 3096.79
G =
[   0.664538   0.383671         -0  ]
[          0   0.767342         -0  ]
[         -0         -0    0.15708  ]
Minimum fftbox size, Smin = [  40  40  164  ]
Chosen fftbox size, S = [  40  40  168  ]

---------- Exchange Correlation functional ----------
Initalized PBE GGA exchange.
Initalized PBE GGA correlation.

---------- Setting up pseudopotentials ----------
Width of ionic core gaussian charges (only for fluid interactions / plotting) set to 0

Reading pseudopotential file '/home/gridsan/aligho/DFT/build-Nov24/pseudopotentials/SG15/Cs_ONCV_PBE.upf':
  'Cs' pseudopotential, 'PBE' functional
  Generated using ONCVPSP code by D. R. Hamann
  Author: Martin Schlipf and Francois Gygi  Date: 150915.
  9 valence electrons, 3 orbitals, 6 projectors, 2414 radial grid points, with lMax = 2
  Transforming local potential to a uniform radial grid of dG=0.02 with 1489 points.
  Transforming nonlocal projectors to a uniform radial grid of dG=0.02 with 432 points.
    5S    l: 0   occupation:  2.0   eigenvalue: -0.982388
    5P    l: 1   occupation:  6.0   eigenvalue: -0.496786
    6S    l: 0   occupation:  1.0   eigenvalue: -0.076670
  Transforming atomic orbitals to a uniform radial grid of dG=0.02 with 432 points.
  Core radius for overlap checks: 2.06 bohrs.
  Reading pulay file /home/gridsan/aligho/DFT/build-Nov24/pseudopotentials/SG15/Cs_ONCV_PBE.pulay ... using dE_dnG = -1.008762e-04 computed for Ecut = 20.

Initialized 1 species with 1 total atoms.

Folded 1 k-points by 12x12x1 to 144 k-points.

---------- Setting up k-points, bands, fillings ----------
Reduced to 19 k-points under symmetry. 
Computing the number of bands and number of electrons
Calculating initial fillings.
nElectrons:   9.000000   nBands: 6   nStates: 38

----- Setting up reduced wavefunction bases (one per k-point) -----
average nbasis = 13230.521 , ideal nbasis = 13229.709

---------- Setting up coulomb interaction ----------
Initialized slab truncation along lattice direction 001

---------- Setting up 2D ewald sum ----------
Optimum gaussian width for ewald sums = 5.249020 bohr.
Real space sums over 289 unit cells with max indices [  8  8  0  ]
Reciprocal space sums over 81 terms with max indices [  4  4  0  ]

---------- Allocating electronic variables ----------
Initializing wave functions:  linear combination of atomic orbitals
Note: number of bands (6) exceeds available atomic orbitals (5)
Cs pseudo-atom occupations:   s ( 2 1 )  p ( 6 )
	FillingsUpdate:  mu: -0.091492124  nElectrons: 9.000000  magneticMoment: [ Abs: 0.14000  Tot: +0.14000 ]
LCAOMinimize: Iter:   0  F: -20.1824287683398644  |grad|_K:  4.252e-05  alpha:  1.000e+00
	FillingsUpdate:  mu: -0.091474110  nElectrons: 9.000000  magneticMoment: [ Abs: 0.14000  Tot: +0.14000 ]
LCAOMinimize: Iter:   1  F: -20.1824299770044959  |grad|_K:  4.559e-07  alpha:  9.777e-01  linmin: -4.573e-02  cgtest:  3.595e-01  t[s]:      4.63
LCAOMinimize: Encountered beta<0, resetting CG.
[d-3-15-1:69797] 18 more processes have sent help message help-mpi-common-cuda.txt / dlopen failed
[d-3-15-1:69797] Set MCA parameter "orte_base_help_aggregate" to 0 to see all help / error messages
[d-3-15-1:69797] 18 more processes have sent help message help-mpi-btl-openib-cpc-base.txt / no cpcs for port
	FillingsUpdate:  mu: -0.091474264  nElectrons: 9.000000  magneticMoment: [ Abs: 0.14000  Tot: +0.14000 ]
LCAOMinimize: Iter:   2  F: -20.1824299771472333  |grad|_K:  2.013e-09  alpha:  1.004e+00  linmin:  1.318e-01  cgtest: -7.957e-01  t[s]:      5.79
LCAOMinimize: 	Wrong curvature in test step, increasing alphaT to 3.013420e+00.
	FillingsUpdate:  mu: -0.091474263  nElectrons: 9.000000  magneticMoment: [ Abs: 0.14000  Tot: +0.14000 ]
LCAOMinimize: Iter:   3  F: -20.1824299771474678  |grad|_K:  1.608e-09  alpha: -4.402e-03  linmin:  1.187e-03  cgtest:  7.830e-01  t[s]:      7.01
LCAOMinimize: Converged (|Delta F|<1.000000e-06 for 2 iters).


---- Citations for features of the code used in this run ----

   Software package:
      R. Sundararaman, K. Letchworth-Weaver, K.A. Schwarz, D. Gunceler, Y. Ozhabes and T.A. Arias, 'JDFTx: software for joint density-functional theory', SoftwareX 6, 278 (2017)

   gga-PBE exchange-correlation functional:
      J.P. Perdew, K. Burke and M. Ernzerhof, Phys. Rev. Lett. 77, 3865 (1996)

   Pseudopotentials:
      M Schlipf and F Gygi, Comput. Phys. Commun. 196, 36 (2015)

   Truncated Coulomb potentials:
      R. Sundararaman and T.A. Arias, Phys. Rev. B 87, 165122 (2013)

This list may not be complete. Please suggest additional citations or
report any other bugs at https://github.com/shankar1729/jdftx/issues

Initialization completed successfully at t[s]:      7.10


-------- Electronic minimization -----------
Will mix electronic density at each iteration.
	FillingsUpdate:  mu: -0.091474263  nElectrons: 9.000000  magneticMoment: [ Abs: 0.14000  Tot: +0.14000 ]
	FillingsUpdate:  mu: -0.100665791  nElectrons: 9.000000  magneticMoment: [ Abs: 0.14000  Tot: +0.14000 ]
SCF: Cycle:  0   F: -20.187008114547030   dF: -4.578e-03   |Residual|: 1.148e-02   |deigs|: 1.882e-01  t[s]:      9.54
	FillingsUpdate:  mu: -0.100779872  nElectrons: 9.000000  magneticMoment: [ Abs: 0.14000  Tot: +0.14000 ]
SCF: Cycle:  1   F: -20.187376022809332   dF: -3.679e-04   |Residual|: 9.656e-03   |deigs|: 4.530e-03  t[s]:     11.40
	FillingsUpdate:  mu: -0.096714574  nElectrons: 9.000000  magneticMoment: [ Abs: 0.14857  Tot: +0.14000 ]
SCF: Cycle:  2   F: -20.187698318128721   dF: -3.223e-04   |Residual|: 4.344e-03   |deigs|: 3.731e-03  t[s]:     13.22
	FillingsUpdate:  mu: -0.096835823  nElectrons: 9.000000  magneticMoment: [ Abs: 0.14000  Tot: +0.14000 ]
SCF: Cycle:  3   F: -20.187807506437885   dF: -1.092e-04   |Residual|: 3.440e-03   |deigs|: 1.677e-03  t[s]:     15.09
	FillingsUpdate:  mu: -0.093989836  nElectrons: 9.000000  magneticMoment: [ Abs: 0.14115  Tot: +0.14000 ]
SCF: Cycle:  4   F: -20.187884567180983   dF: -7.706e-05   |Residual|: 2.366e-03   |deigs|: 3.680e-03  t[s]:     17.02
	FillingsUpdate:  mu: -0.091626045  nElectrons: 9.000000  magneticMoment: [ Abs: 0.14224  Tot: +0.14000 ]
SCF: Cycle:  5   F: -20.187926488923850   dF: -4.192e-05   |Residual|: 1.974e-03   |deigs|: 2.849e-03  t[s]:     18.95
	FillingsUpdate:  mu: -0.089301122  nElectrons: 9.000000  magneticMoment: [ Abs: 0.14461  Tot: +0.14000 ]
SCF: Cycle:  6   F: -20.187940913787713   dF: -1.442e-05   |Residual|: 1.464e-03   |deigs|: 2.762e-03  t[s]:     20.89
	FillingsUpdate:  mu: -0.088178094  nElectrons: 9.000000  magneticMoment: [ Abs: 0.14302  Tot: +0.14000 ]
SCF: Cycle:  7   F: -20.187963553271189   dF: -2.264e-05   |Residual|: 1.226e-03   |deigs|: 1.368e-03  t[s]:     22.84
	FillingsUpdate:  mu: -0.086565186  nElectrons: 9.000000  magneticMoment: [ Abs: 0.14107  Tot: +0.14000 ]
SCF: Cycle:  8   F: -20.187978280889514   dF: -1.473e-05   |Residual|: 9.456e-04   |deigs|: 1.533e-03  t[s]:     24.90
	FillingsUpdate:  mu: -0.084932106  nElectrons: 9.000000  magneticMoment: [ Abs: 0.14212  Tot: +0.14000 ]
SCF: Cycle:  9   F: -20.187960522033478   dF: +1.776e-05   |Residual|: 9.699e-04   |deigs|: 1.712e-03  t[s]:     26.94
	FillingsUpdate:  mu: -0.082759136  nElectrons: 9.000000  magneticMoment: [ Abs: 0.14268  Tot: +0.14000 ]
SCF: Cycle: 10   F: -20.187970552750482   dF: -1.003e-05   |Residual|: 8.579e-04   |deigs|: 2.451e-03  t[s]:     28.95
	FillingsUpdate:  mu: -0.081581541  nElectrons: 9.000000  magneticMoment: [ Abs: 0.14161  Tot: +0.14000 ]
SCF: Cycle: 11   F: -20.187999099953100   dF: -2.855e-05   |Residual|: 6.924e-04   |deigs|: 1.718e-03  t[s]:     31.03
	FillingsUpdate:  mu: -0.080295802  nElectrons: 9.000000  magneticMoment: [ Abs: 0.14164  Tot: +0.14000 ]
SCF: Cycle: 12   F: -20.188015331624843   dF: -1.623e-05   |Residual|: 6.505e-04   |deigs|: 1.239e-03  t[s]:     33.05
	FillingsUpdate:  mu: -0.078063414  nElectrons: 9.000000  magneticMoment: [ Abs: 0.14095  Tot: +0.14000 ]
SCF: Cycle: 13   F: -20.188026215967415   dF: -1.088e-05   |Residual|: 5.685e-04   |deigs|: 2.320e-03  t[s]:     35.04
	FillingsUpdate:  mu: -0.076875033  nElectrons: 9.000000  magneticMoment: [ Abs: 0.14081  Tot: +0.14000 ]
SCF: Cycle: 14   F: -20.188033290801702   dF: -7.075e-06   |Residual|: 4.378e-04   |deigs|: 1.261e-03  t[s]:     37.09
	FillingsUpdate:  mu: -0.076601240  nElectrons: 9.000000  magneticMoment: [ Abs: 0.14081  Tot: +0.14000 ]
SCF: Cycle: 15   F: -20.188036755658342   dF: -3.465e-06   |Residual|: 3.251e-04   |deigs|: 8.554e-04  t[s]:     39.14
	FillingsUpdate:  mu: -0.076306131  nElectrons: 9.000000  magneticMoment: [ Abs: 0.14031  Tot: +0.14000 ]
SCF: Cycle: 16   F: -20.188039541748594   dF: -2.786e-06   |Residual|: 2.203e-04   |deigs|: 5.218e-04  t[s]:     41.18
	FillingsUpdate:  mu: -0.076241517  nElectrons: 9.000000  magneticMoment: [ Abs: 0.14015  Tot: +0.14000 ]
SCF: Cycle: 17   F: -20.188040365186762   dF: -8.234e-07   |Residual|: 1.045e-04   |deigs|: 3.219e-04  t[s]:     43.26
	FillingsUpdate:  mu: -0.076303013  nElectrons: 9.000000  magneticMoment: [ Abs: 0.14014  Tot: +0.14000 ]
SCF: Cycle: 18   F: -20.188040551744468   dF: -1.866e-07   |Residual|: 6.061e-05   |deigs|: 2.118e-04  t[s]:     45.34
	FillingsUpdate:  mu: -0.076303107  nElectrons: 9.000000  magneticMoment: [ Abs: 0.14010  Tot: +0.14000 ]
SCF: Cycle: 19   F: -20.188040668964472   dF: -1.172e-07   |Residual|: 3.895e-05   |deigs|: 1.274e-04  t[s]:     47.45
	FillingsUpdate:  mu: -0.076339939  nElectrons: 9.000000  magneticMoment: [ Abs: 0.14008  Tot: +0.14000 ]
SCF: Cycle: 20   F: -20.188040705532874   dF: -3.657e-08   |Residual|: 2.703e-05   |deigs|: 1.051e-04  t[s]:     49.47
	FillingsUpdate:  mu: -0.076365048  nElectrons: 9.000000  magneticMoment: [ Abs: 0.14009  Tot: +0.14000 ]
SCF: Cycle: 21   F: -20.188040728726083   dF: -2.319e-08   |Residual|: 9.527e-06   |deigs|: 1.006e-04  t[s]:     51.58
	FillingsUpdate:  mu: -0.076355159  nElectrons: 9.000000  magneticMoment: [ Abs: 0.14010  Tot: +0.14000 ]
SCF: Cycle: 22   F: -20.188040737842119   dF: -9.116e-09   |Residual|: 6.281e-06   |deigs|: 5.440e-04  t[s]:     53.61
	FillingsUpdate:  mu: -0.076359074  nElectrons: 9.000000  magneticMoment: [ Abs: 0.14011  Tot: +0.14000 ]
SCF: Cycle: 23   F: -20.188040742711355   dF: -4.869e-09   |Residual|: 4.953e-06   |deigs|: 6.340e-04  t[s]:     55.61
SCF: Converged (|Delta E|<1.000000e-08 for 2 iters).


# Ionic positions in lattice coordinates:
ion Cs   0.000000000000000   0.000000000000000   0.000000000000000 0

# Forces in Lattice coordinates:
force Cs   0.000000000000000   0.000000000000000   0.000000000000000 0

# Energy components:
   Eewald =      -18.0480261003326561
       EH =       -1.8391786815192490
     Eloc =       -5.7456046537821130
      Enl =        3.4431375695273303
   Epulay =        0.0000000264484078
      Exc =       -3.1435528033466662
       KE =        5.1451845881632465
-------------------------------------
     Etot =      -20.1880400548417001
       TS =        0.0000006878696540
-------------------------------------
        F =      -20.1880407427113546

IonicMinimize: Iter:   0  F: -20.188040742711355  |grad|_K:  0.000e+00  t[s]:     55.73
IonicMinimize: Converged (|grad|_K<1.000000e-04).

#--- Lowdin population analysis ---
# oxidation-state Cs +0.045
# magnetic-moments Cs +0.125

End date and time: Sun Feb  6 13:23:54 2022  (Duration: 0-0:00:55.76)
Done!
scale=3
magnetization=0.14
--------------------------------------------------------------------------
The library attempted to open the following supporting CUDA libraries,
but each of them failed.  CUDA-aware support is disabled.
libcuda.so.1: cannot open shared object file: No such file or directory
libcuda.dylib: cannot open shared object file: No such file or directory
/usr/lib64/libcuda.so.1: cannot open shared object file: No such file or directory
/usr/lib64/libcuda.dylib: cannot open shared object file: No such file or directory
If you are not interested in CUDA-aware support, then run with
--mca opal_warn_on_missing_libcuda 0 to suppress this message.  If you are interested
in CUDA-aware support, then try setting LD_LIBRARY_PATH to the location
of libcuda.so.1 to get passed this issue.
--------------------------------------------------------------------------
--------------------------------------------------------------------------
No OpenFabrics connection schemes reported that they were able to be
used on a specific port.  As such, the openib BTL (OpenFabrics
support) will be disabled for this port.

  Local host:           d-3-15-1
  Local device:         mlx5_1
  Local port:           1
  CPCs attempted:       rdmacm, udcm
--------------------------------------------------------------------------

*************** JDFTx 1.6.0 (git hash 42ebbcc2) ***************

Start date and time: Sun Feb  6 13:23:56 2022
Executable jdftx with command-line: -i Alkali.in
Running on hosts (process indices):  d-3-15-1 (0-18)
Divided in process groups (process indices):  0 (0)  1 (1)  2 (2)  3 (3)  4 (4)  5 (5)  6 (6)  7 (7)  8 (8)  9 (9)  10 (10)  11 (11)  12 (12)  13 (13)  14 (14)  15 (15)  16 (16)  17 (17)  18 (18)
Resource initialization completed at t[s]:      0.00
Run totals: 19 processes, 48 threads, 0 GPUs


Input parsed successfully to the following command list (including defaults):

basis kpoint-dependent
coords-type Lattice
core-overlap-check vector
coulomb-interaction Slab 001
davidson-band-ratio 1.1
dump End None
dump-name $INPUT.$VAR
elec-cutoff 20
elec-eigen-algo Davidson
elec-ex-corr gga-PBE
elec-initial-magnetization 0.140000 yes
elec-smearing Fermi 1e-05
electronic-minimize  \
	dirUpdateScheme      FletcherReeves \
	linminMethod         DirUpdateRecommended \
	nIterations          100 \
	history              15 \
	knormThreshold       0 \
	energyDiffThreshold  1e-08 \
	nEnergyDiff          2 \
	alphaTstart          1 \
	alphaTmin            1e-10 \
	updateTestStepSize   yes \
	alphaTreduceFactor   0.1 \
	alphaTincreaseFactor 3 \
	nAlphaAdjustMax      3 \
	wolfeEnergy          0.0001 \
	wolfeGradient        0.9 \
	fdTest               no
electronic-scf  \
	nIterations	10000 \
	energyDiffThreshold	1e-08 \
	residualThreshold	1e-07 \
	mixFraction	0.5 \
	qMetric	0.8 \
	history	10 \
	nEigSteps	2 \
	eigDiffThreshold	1e-08 \
	mixedVariable	Density \
	qKerker	0.8 \
	qKappa	-1 \
	verbose	no \
	mixFractionMag	1.5
exchange-regularization WignerSeitzTruncated
fluid None
fluid-ex-corr (null) lda-PZ
fluid-gummel-loop 10 1.000000e-05
fluid-minimize  \
	dirUpdateScheme      PolakRibiere \
	linminMethod         DirUpdateRecommended \
	nIterations          100 \
	history              15 \
	knormThreshold       0 \
	energyDiffThreshold  0 \
	nEnergyDiff          2 \
	alphaTstart          1 \
	alphaTmin            1e-10 \
	updateTestStepSize   yes \
	alphaTreduceFactor   0.1 \
	alphaTincreaseFactor 3 \
	nAlphaAdjustMax      3 \
	wolfeEnergy          0.0001 \
	wolfeGradient        0.9 \
	fdTest               no
fluid-solvent H2O 55.338 ScalarEOS \
	epsBulk 78.4 \
	pMol 0.92466 \
	epsInf 1.77 \
	Pvap 1.06736e-10 \
	sigmaBulk 4.62e-05 \
	Rvdw 2.61727 \
	Res 1.42 \
	tauNuc 343133 \
	poleEl 15 7 1
forces-output-coords Positions
ion Cs   0.000000000000000   0.000000000000000   0.000000000000000 0
ion-species SG15/$ID_ONCV_PBE.upf
ion-width 0
ionic-minimize  \
	dirUpdateScheme      L-BFGS \
	linminMethod         DirUpdateRecommended \
	nIterations          0 \
	history              15 \
	knormThreshold       0.0001 \
	energyDiffThreshold  1e-06 \
	nEnergyDiff          2 \
	alphaTstart          1 \
	alphaTmin            1e-10 \
	updateTestStepSize   yes \
	alphaTreduceFactor   0.1 \
	alphaTincreaseFactor 3 \
	nAlphaAdjustMax      3 \
	wolfeEnergy          0.0001 \
	wolfeGradient        0.9 \
	fdTest               no
kpoint   0.000000000000   0.000000000000   0.000000000000  1.00000000000000
kpoint-folding 12 12 1 
latt-move-scale 1 1 1
latt-scale 3 3 1 
lattice  \
	   4.727486978767153   -2.363743489383575    0.000000000000000  \
	  -0.000000000000000    4.094123819672498    0.000000000000000  \
	   0.000000000000000    0.000000000000000   40.000000000000000 
lattice-minimize  \
	dirUpdateScheme      L-BFGS \
	linminMethod         DirUpdateRecommended \
	nIterations          0 \
	history              15 \
	knormThreshold       0 \
	energyDiffThreshold  1e-06 \
	nEnergyDiff          2 \
	alphaTstart          1 \
	alphaTmin            1e-10 \
	updateTestStepSize   yes \
	alphaTreduceFactor   0.1 \
	alphaTincreaseFactor 3 \
	nAlphaAdjustMax      3 \
	wolfeEnergy          0.0001 \
	wolfeGradient        0.9 \
	fdTest               no
lcao-params -1 1e-06 1e-05
pcm-variant GLSSA13
spintype z-spin
subspace-rotation-factor 1 yes
symmetries automatic
symmetry-threshold 0.0001



---------- Setting up symmetries ----------

Found 24 point-group symmetries of the bravais lattice
Found 24 space-group symmetries with basis
Applied RMS atom displacement 0 bohrs to make symmetries exact.

---------- Initializing the Grid ----------
R = 
[      14.1825     -7.09123            0  ]
[            0      12.2824            0  ]
[            0            0           40  ]
unit cell volume = 6967.77
G =
[   0.443025   0.255781         -0  ]
[          0   0.511561         -0  ]
[         -0         -0    0.15708  ]
Minimum fftbox size, Smin = [  60  60  164  ]
Chosen fftbox size, S = [  60  60  168  ]

---------- Exchange Correlation functional ----------
Initalized PBE GGA exchange.
Initalized PBE GGA correlation.

---------- Setting up pseudopotentials ----------
Width of ionic core gaussian charges (only for fluid interactions / plotting) set to 0

Reading pseudopotential file '/home/gridsan/aligho/DFT/build-Nov24/pseudopotentials/SG15/Cs_ONCV_PBE.upf':
  'Cs' pseudopotential, 'PBE' functional
  Generated using ONCVPSP code by D. R. Hamann
  Author: Martin Schlipf and Francois Gygi  Date: 150915.
  9 valence electrons, 3 orbitals, 6 projectors, 2414 radial grid points, with lMax = 2
  Transforming local potential to a uniform radial grid of dG=0.02 with 1489 points.
  Transforming nonlocal projectors to a uniform radial grid of dG=0.02 with 432 points.
    5S    l: 0   occupation:  2.0   eigenvalue: -0.982388
    5P    l: 1   occupation:  6.0   eigenvalue: -0.496786
    6S    l: 0   occupation:  1.0   eigenvalue: -0.076670
  Transforming atomic orbitals to a uniform radial grid of dG=0.02 with 432 points.
  Core radius for overlap checks: 2.06 bohrs.
  Reading pulay file /home/gridsan/aligho/DFT/build-Nov24/pseudopotentials/SG15/Cs_ONCV_PBE.pulay ... using dE_dnG = -1.008762e-04 computed for Ecut = 20.

Initialized 1 species with 1 total atoms.

Folded 1 k-points by 12x12x1 to 144 k-points.

---------- Setting up k-points, bands, fillings ----------
Reduced to 19 k-points under symmetry. 
Computing the number of bands and number of electrons
Calculating initial fillings.
nElectrons:   9.000000   nBands: 6   nStates: 38

----- Setting up reduced wavefunction bases (one per k-point) -----
average nbasis = 29766.104 , ideal nbasis = 29766.845

---------- Setting up coulomb interaction ----------
Initialized slab truncation along lattice direction 001

---------- Setting up 2D ewald sum ----------
Optimum gaussian width for ewald sums = 7.873530 bohr.
Real space sums over 289 unit cells with max indices [  8  8  0  ]
Reciprocal space sums over 81 terms with max indices [  4  4  0  ]

---------- Allocating electronic variables ----------
Initializing wave functions:  linear combination of atomic orbitals
Note: number of bands (6) exceeds available atomic orbitals (5)
Cs pseudo-atom occupations:   s ( 2 1 )  p ( 6 )
[d-3-15-1:97042] 18 more processes have sent help message help-mpi-common-cuda.txt / dlopen failed
[d-3-15-1:97042] Set MCA parameter "orte_base_help_aggregate" to 0 to see all help / error messages
[d-3-15-1:97042] 18 more processes have sent help message help-mpi-btl-openib-cpc-base.txt / no cpcs for port
	FillingsUpdate:  mu: -0.078533883  nElectrons: 9.000000  magneticMoment: [ Abs: 0.14000  Tot: +0.14000 ]
LCAOMinimize: Iter:   0  F: -20.1753376187030575  |grad|_K:  2.543e-05  alpha:  1.000e+00
	FillingsUpdate:  mu: -0.078527921  nElectrons: 9.000000  magneticMoment: [ Abs: 0.14000  Tot: +0.14000 ]
LCAOMinimize: Iter:   1  F: -20.1753380542680247  |grad|_K:  1.793e-07  alpha:  9.850e-01  linmin: -3.439e-02  cgtest:  6.525e-01  t[s]:      8.77
LCAOMinimize: Encountered beta<0, resetting CG.
	FillingsUpdate:  mu: -0.078527906  nElectrons: 9.000000  magneticMoment: [ Abs: 0.14000  Tot: +0.14000 ]
LCAOMinimize: Iter:   2  F: -20.1753380542899059  |grad|_K:  2.594e-09  alpha:  9.858e-01  linmin: -5.393e-02  cgtest:  9.733e-01  t[s]:     11.14
LCAOMinimize: Encountered beta<0, resetting CG.
LCAOMinimize: Converged (|Delta F|<1.000000e-06 for 2 iters).


---- Citations for features of the code used in this run ----

   Software package:
      R. Sundararaman, K. Letchworth-Weaver, K.A. Schwarz, D. Gunceler, Y. Ozhabes and T.A. Arias, 'JDFTx: software for joint density-functional theory', SoftwareX 6, 278 (2017)

   gga-PBE exchange-correlation functional:
      J.P. Perdew, K. Burke and M. Ernzerhof, Phys. Rev. Lett. 77, 3865 (1996)

   Pseudopotentials:
      M Schlipf and F Gygi, Comput. Phys. Commun. 196, 36 (2015)

   Truncated Coulomb potentials:
      R. Sundararaman and T.A. Arias, Phys. Rev. B 87, 165122 (2013)

This list may not be complete. Please suggest additional citations or
report any other bugs at https://github.com/shankar1729/jdftx/issues

Initialization completed successfully at t[s]:     11.30


-------- Electronic minimization -----------
Will mix electronic density at each iteration.
	FillingsUpdate:  mu: -0.078527906  nElectrons: 9.000000  magneticMoment: [ Abs: 0.14000  Tot: +0.14000 ]
	FillingsUpdate:  mu: -0.082238816  nElectrons: 9.000000  magneticMoment: [ Abs: 0.14000  Tot: +0.14000 ]
SCF: Cycle:  0   F: -20.177708875147903   dF: -2.371e-03   |Residual|: 4.379e-03   |deigs|: 1.730e-01  t[s]:     16.10
	FillingsUpdate:  mu: -0.082523837  nElectrons: 9.000000  magneticMoment: [ Abs: 0.14000  Tot: +0.14000 ]
SCF: Cycle:  1   F: -20.177790610396226   dF: -8.174e-05   |Residual|: 3.914e-03   |deigs|: 4.812e-03  t[s]:     19.79
	FillingsUpdate:  mu: -0.082991142  nElectrons: 9.000000  magneticMoment: [ Abs: 0.14363  Tot: +0.14000 ]
SCF: Cycle:  2   F: -20.177855591708937   dF: -6.498e-05   |Residual|: 1.654e-03   |deigs|: 3.222e-03  t[s]:     23.59
	FillingsUpdate:  mu: -0.082892782  nElectrons: 9.000000  magneticMoment: [ Abs: 0.14105  Tot: +0.14000 ]
SCF: Cycle:  3   F: -20.177879336299021   dF: -2.374e-05   |Residual|: 1.204e-03   |deigs|: 1.540e-03  t[s]:     27.44
	FillingsUpdate:  mu: -0.082665867  nElectrons: 9.000000  magneticMoment: [ Abs: 0.14014  Tot: +0.14000 ]
SCF: Cycle:  4   F: -20.177888926607231   dF: -9.590e-06   |Residual|: 7.747e-04   |deigs|: 6.315e-04  t[s]:     31.34
	FillingsUpdate:  mu: -0.082434268  nElectrons: 9.000000  magneticMoment: [ Abs: 0.14016  Tot: +0.14000 ]
SCF: Cycle:  5   F: -20.177893757520941   dF: -4.831e-06   |Residual|: 6.335e-04   |deigs|: 4.809e-04  t[s]:     35.43
	FillingsUpdate:  mu: -0.081833152  nElectrons: 9.000000  magneticMoment: [ Abs: 0.14179  Tot: +0.14000 ]
SCF: Cycle:  6   F: -20.177894512034680   dF: -7.545e-07   |Residual|: 5.056e-04   |deigs|: 9.010e-04  t[s]:     39.55
	FillingsUpdate:  mu: -0.081442797  nElectrons: 9.000000  magneticMoment: [ Abs: 0.14174  Tot: +0.14000 ]
SCF: Cycle:  7   F: -20.177894402427309   dF: +1.096e-07   |Residual|: 4.219e-04   |deigs|: 6.716e-04  t[s]:     43.66
	FillingsUpdate:  mu: -0.080917726  nElectrons: 9.000000  magneticMoment: [ Abs: 0.14142  Tot: +0.14000 ]
SCF: Cycle:  8   F: -20.177894802342006   dF: -3.999e-07   |Residual|: 3.494e-04   |deigs|: 1.155e-03  t[s]:     47.85
	FillingsUpdate:  mu: -0.080616667  nElectrons: 9.000000  magneticMoment: [ Abs: 0.14076  Tot: +0.14000 ]
SCF: Cycle:  9   F: -20.177896636599119   dF: -1.834e-06   |Residual|: 3.011e-04   |deigs|: 8.620e-04  t[s]:     52.12
	FillingsUpdate:  mu: -0.080214992  nElectrons: 9.000000  magneticMoment: [ Abs: 0.14140  Tot: +0.14000 ]
SCF: Cycle: 10   F: -20.177897480655599   dF: -8.441e-07   |Residual|: 2.702e-04   |deigs|: 1.146e-03  t[s]:     56.51
	FillingsUpdate:  mu: -0.079745738  nElectrons: 9.000000  magneticMoment: [ Abs: 0.14145  Tot: +0.14000 ]
SCF: Cycle: 11   F: -20.177896484413111   dF: +9.962e-07   |Residual|: 2.357e-04   |deigs|: 4.696e-04  t[s]:     60.85
	FillingsUpdate:  mu: -0.079318576  nElectrons: 9.000000  magneticMoment: [ Abs: 0.14090  Tot: +0.14000 ]
SCF: Cycle: 12   F: -20.177895779402053   dF: +7.050e-07   |Residual|: 2.356e-04   |deigs|: 4.848e-04  t[s]:     65.13
	FillingsUpdate:  mu: -0.078957361  nElectrons: 9.000000  magneticMoment: [ Abs: 0.14035  Tot: +0.14000 ]
SCF: Cycle: 13   F: -20.177896917669372   dF: -1.138e-06   |Residual|: 2.199e-04   |deigs|: 6.809e-04  t[s]:     69.37
	FillingsUpdate:  mu: -0.078737749  nElectrons: 9.000000  magneticMoment: [ Abs: 0.14113  Tot: +0.14000 ]
SCF: Cycle: 14   F: -20.177899812532985   dF: -2.895e-06   |Residual|: 1.694e-04   |deigs|: 3.141e-04  t[s]:     73.66
	FillingsUpdate:  mu: -0.078516258  nElectrons: 9.000000  magneticMoment: [ Abs: 0.14087  Tot: +0.14000 ]
SCF: Cycle: 15   F: -20.177901428677874   dF: -1.616e-06   |Residual|: 1.363e-04   |deigs|: 2.260e-04  t[s]:     77.98
	FillingsUpdate:  mu: -0.078331321  nElectrons: 9.000000  magneticMoment: [ Abs: 0.14030  Tot: +0.14000 ]
SCF: Cycle: 16   F: -20.177902173466197   dF: -7.448e-07   |Residual|: 7.670e-05   |deigs|: 2.221e-04  t[s]:     82.30
	FillingsUpdate:  mu: -0.078318440  nElectrons: 9.000000  magneticMoment: [ Abs: 0.14022  Tot: +0.14000 ]
SCF: Cycle: 17   F: -20.177902437958419   dF: -2.645e-07   |Residual|: 4.565e-05   |deigs|: 5.081e-05  t[s]:     86.69
	FillingsUpdate:  mu: -0.078327148  nElectrons: 9.000000  magneticMoment: [ Abs: 0.14016  Tot: +0.14000 ]
SCF: Cycle: 18   F: -20.177902527287277   dF: -8.933e-08   |Residual|: 3.338e-05   |deigs|: 3.675e-05  t[s]:     90.99
	FillingsUpdate:  mu: -0.078350314  nElectrons: 9.000000  magneticMoment: [ Abs: 0.14016  Tot: +0.14000 ]
SCF: Cycle: 19   F: -20.177902583212671   dF: -5.593e-08   |Residual|: 1.866e-05   |deigs|: 3.873e-05  t[s]:     95.27
	FillingsUpdate:  mu: -0.078359027  nElectrons: 9.000000  magneticMoment: [ Abs: 0.14016  Tot: +0.14000 ]
SCF: Cycle: 20   F: -20.177902606615188   dF: -2.340e-08   |Residual|: 1.052e-05   |deigs|: 1.983e-05  t[s]:     99.60
	FillingsUpdate:  mu: -0.078360375  nElectrons: 9.000000  magneticMoment: [ Abs: 0.14017  Tot: +0.14000 ]
SCF: Cycle: 21   F: -20.177902612983875   dF: -6.369e-09   |Residual|: 8.484e-06   |deigs|: 1.474e-05  t[s]:    103.89
	FillingsUpdate:  mu: -0.078362026  nElectrons: 9.000000  magneticMoment: [ Abs: 0.14017  Tot: +0.14000 ]
SCF: Cycle: 22   F: -20.177902615306895   dF: -2.323e-09   |Residual|: 9.086e-06   |deigs|: 1.801e-05  t[s]:    108.04
SCF: Converged (|Delta E|<1.000000e-08 for 2 iters).


# Ionic positions in lattice coordinates:
ion Cs   0.000000000000000   0.000000000000000   0.000000000000000 0

# Forces in Lattice coordinates:
force Cs  -0.000000000000000  -0.000000000000000   0.000000000000000 0

# Energy components:
   Eewald =      -12.0320174002217755
       EH =        4.0106408861278133
     Eloc =      -17.5796739216101798
      Enl =        3.4316659414923132
   Epulay =       -0.0000000107257212
      Exc =       -3.1081273395248692
       KE =        5.0996099170251794
-------------------------------------
     Etot =      -20.1779019274372402
       TS =        0.0000006878696540
-------------------------------------
        F =      -20.1779026153068948

IonicMinimize: Iter:   0  F: -20.177902615306895  |grad|_K:  0.000e+00  t[s]:    108.29
IonicMinimize: Converged (|grad|_K<1.000000e-04).

#--- Lowdin population analysis ---
# oxidation-state Cs +0.042
# magnetic-moments Cs +0.125

End date and time: Sun Feb  6 13:25:44 2022  (Duration: 0-0:01:48.33)
Done!
scale=4
magnetization=0.14
--------------------------------------------------------------------------
The library attempted to open the following supporting CUDA libraries,
but each of them failed.  CUDA-aware support is disabled.
libcuda.so.1: cannot open shared object file: No such file or directory
libcuda.dylib: cannot open shared object file: No such file or directory
/usr/lib64/libcuda.so.1: cannot open shared object file: No such file or directory
/usr/lib64/libcuda.dylib: cannot open shared object file: No such file or directory
If you are not interested in CUDA-aware support, then run with
--mca opal_warn_on_missing_libcuda 0 to suppress this message.  If you are interested
in CUDA-aware support, then try setting LD_LIBRARY_PATH to the location
of libcuda.so.1 to get passed this issue.
--------------------------------------------------------------------------
--------------------------------------------------------------------------
No OpenFabrics connection schemes reported that they were able to be
used on a specific port.  As such, the openib BTL (OpenFabrics
support) will be disabled for this port.

  Local host:           d-3-15-1
  Local device:         mlx5_1
  Local port:           1
  CPCs attempted:       rdmacm, udcm
--------------------------------------------------------------------------

*************** JDFTx 1.6.0 (git hash 42ebbcc2) ***************

Start date and time: Sun Feb  6 13:25:45 2022
Executable jdftx with command-line: -i Alkali.in
Running on hosts (process indices):  d-3-15-1 (0-18)
Divided in process groups (process indices):  0 (0)  1 (1)  2 (2)  3 (3)  4 (4)  5 (5)  6 (6)  7 (7)  8 (8)  9 (9)  10 (10)  11 (11)  12 (12)  13 (13)  14 (14)  15 (15)  16 (16)  17 (17)  18 (18)
Resource initialization completed at t[s]:      0.00
Run totals: 19 processes, 48 threads, 0 GPUs


Input parsed successfully to the following command list (including defaults):

basis kpoint-dependent
coords-type Lattice
core-overlap-check vector
coulomb-interaction Slab 001
davidson-band-ratio 1.1
dump End None
dump-name $INPUT.$VAR
elec-cutoff 20
elec-eigen-algo Davidson
elec-ex-corr gga-PBE
elec-initial-magnetization 0.140000 yes
elec-smearing Fermi 1e-05
electronic-minimize  \
	dirUpdateScheme      FletcherReeves \
	linminMethod         DirUpdateRecommended \
	nIterations          100 \
	history              15 \
	knormThreshold       0 \
	energyDiffThreshold  1e-08 \
	nEnergyDiff          2 \
	alphaTstart          1 \
	alphaTmin            1e-10 \
	updateTestStepSize   yes \
	alphaTreduceFactor   0.1 \
	alphaTincreaseFactor 3 \
	nAlphaAdjustMax      3 \
	wolfeEnergy          0.0001 \
	wolfeGradient        0.9 \
	fdTest               no
electronic-scf  \
	nIterations	10000 \
	energyDiffThreshold	1e-08 \
	residualThreshold	1e-07 \
	mixFraction	0.5 \
	qMetric	0.8 \
	history	10 \
	nEigSteps	2 \
	eigDiffThreshold	1e-08 \
	mixedVariable	Density \
	qKerker	0.8 \
	qKappa	-1 \
	verbose	no \
	mixFractionMag	1.5
exchange-regularization WignerSeitzTruncated
fluid None
fluid-ex-corr (null) lda-PZ
fluid-gummel-loop 10 1.000000e-05
fluid-minimize  \
	dirUpdateScheme      PolakRibiere \
	linminMethod         DirUpdateRecommended \
	nIterations          100 \
	history              15 \
	knormThreshold       0 \
	energyDiffThreshold  0 \
	nEnergyDiff          2 \
	alphaTstart          1 \
	alphaTmin            1e-10 \
	updateTestStepSize   yes \
	alphaTreduceFactor   0.1 \
	alphaTincreaseFactor 3 \
	nAlphaAdjustMax      3 \
	wolfeEnergy          0.0001 \
	wolfeGradient        0.9 \
	fdTest               no
fluid-solvent H2O 55.338 ScalarEOS \
	epsBulk 78.4 \
	pMol 0.92466 \
	epsInf 1.77 \
	Pvap 1.06736e-10 \
	sigmaBulk 4.62e-05 \
	Rvdw 2.61727 \
	Res 1.42 \
	tauNuc 343133 \
	poleEl 15 7 1
forces-output-coords Positions
ion Cs   0.000000000000000   0.000000000000000   0.000000000000000 0
ion-species SG15/$ID_ONCV_PBE.upf
ion-width 0
ionic-minimize  \
	dirUpdateScheme      L-BFGS \
	linminMethod         DirUpdateRecommended \
	nIterations          0 \
	history              15 \
	knormThreshold       0.0001 \
	energyDiffThreshold  1e-06 \
	nEnergyDiff          2 \
	alphaTstart          1 \
	alphaTmin            1e-10 \
	updateTestStepSize   yes \
	alphaTreduceFactor   0.1 \
	alphaTincreaseFactor 3 \
	nAlphaAdjustMax      3 \
	wolfeEnergy          0.0001 \
	wolfeGradient        0.9 \
	fdTest               no
kpoint   0.000000000000   0.000000000000   0.000000000000  1.00000000000000
kpoint-folding 12 12 1 
latt-move-scale 1 1 1
latt-scale 4 4 1 
lattice  \
	   4.727486978767153   -2.363743489383575    0.000000000000000  \
	  -0.000000000000000    4.094123819672498    0.000000000000000  \
	   0.000000000000000    0.000000000000000   40.000000000000000 
lattice-minimize  \
	dirUpdateScheme      L-BFGS \
	linminMethod         DirUpdateRecommended \
	nIterations          0 \
	history              15 \
	knormThreshold       0 \
	energyDiffThreshold  1e-06 \
	nEnergyDiff          2 \
	alphaTstart          1 \
	alphaTmin            1e-10 \
	updateTestStepSize   yes \
	alphaTreduceFactor   0.1 \
	alphaTincreaseFactor 3 \
	nAlphaAdjustMax      3 \
	wolfeEnergy          0.0001 \
	wolfeGradient        0.9 \
	fdTest               no
lcao-params -1 1e-06 1e-05
pcm-variant GLSSA13
spintype z-spin
subspace-rotation-factor 1 yes
symmetries automatic
symmetry-threshold 0.0001



---------- Setting up symmetries ----------

Found 24 point-group symmetries of the bravais lattice
Found 24 space-group symmetries with basis
Applied RMS atom displacement 0 bohrs to make symmetries exact.

---------- Initializing the Grid ----------
R = 
[      18.9099     -9.45497            0  ]
[            0      16.3765            0  ]
[            0            0           40  ]
unit cell volume = 12387.1
G =
[   0.332269   0.191835         -0  ]
[          0   0.383671         -0  ]
[         -0         -0    0.15708  ]
Minimum fftbox size, Smin = [  80  80  164  ]
Chosen fftbox size, S = [  80  80  168  ]

---------- Exchange Correlation functional ----------
Initalized PBE GGA exchange.
Initalized PBE GGA correlation.

---------- Setting up pseudopotentials ----------
Width of ionic core gaussian charges (only for fluid interactions / plotting) set to 0

Reading pseudopotential file '/home/gridsan/aligho/DFT/build-Nov24/pseudopotentials/SG15/Cs_ONCV_PBE.upf':
  'Cs' pseudopotential, 'PBE' functional
  Generated using ONCVPSP code by D. R. Hamann
  Author: Martin Schlipf and Francois Gygi  Date: 150915.
  9 valence electrons, 3 orbitals, 6 projectors, 2414 radial grid points, with lMax = 2
  Transforming local potential to a uniform radial grid of dG=0.02 with 1489 points.
  Transforming nonlocal projectors to a uniform radial grid of dG=0.02 with 432 points.
    5S    l: 0   occupation:  2.0   eigenvalue: -0.982388
    5P    l: 1   occupation:  6.0   eigenvalue: -0.496786
    6S    l: 0   occupation:  1.0   eigenvalue: -0.076670
  Transforming atomic orbitals to a uniform radial grid of dG=0.02 with 432 points.
  Core radius for overlap checks: 2.06 bohrs.
  Reading pulay file /home/gridsan/aligho/DFT/build-Nov24/pseudopotentials/SG15/Cs_ONCV_PBE.pulay ... using dE_dnG = -1.008762e-04 computed for Ecut = 20.

Initialized 1 species with 1 total atoms.

Folded 1 k-points by 12x12x1 to 144 k-points.

---------- Setting up k-points, bands, fillings ----------
Reduced to 19 k-points under symmetry. 
Computing the number of bands and number of electrons
Calculating initial fillings.
nElectrons:   9.000000   nBands: 6   nStates: 38

----- Setting up reduced wavefunction bases (one per k-point) -----
average nbasis = 52924.021 , ideal nbasis = 52918.836

---------- Setting up coulomb interaction ----------
Initialized slab truncation along lattice direction 001

---------- Setting up 2D ewald sum ----------
Optimum gaussian width for ewald sums = 10.498040 bohr.
Real space sums over 289 unit cells with max indices [  8  8  0  ]
Reciprocal space sums over 81 terms with max indices [  4  4  0  ]

---------- Allocating electronic variables ----------
Initializing wave functions:  linear combination of atomic orbitals
Note: number of bands (6) exceeds available atomic orbitals (5)
Cs pseudo-atom occupations:   s ( 2 1 )  p ( 6 )
[d-3-15-1:36899] 18 more processes have sent help message help-mpi-common-cuda.txt / dlopen failed
[d-3-15-1:36899] Set MCA parameter "orte_base_help_aggregate" to 0 to see all help / error messages
[d-3-15-1:36899] 18 more processes have sent help message help-mpi-btl-openib-cpc-base.txt / no cpcs for port
	FillingsUpdate:  mu: -0.077220344  nElectrons: 9.000000  magneticMoment: [ Abs: 0.14000  Tot: +0.14000 ]
LCAOMinimize: Iter:   0  F: -20.1678689427635156  |grad|_K:  7.731e-06  alpha:  1.000e+00
	FillingsUpdate:  mu: -0.077218744  nElectrons: 9.000000  magneticMoment: [ Abs: 0.14000  Tot: +0.14000 ]
LCAOMinimize: Iter:   1  F: -20.1678689831900222  |grad|_K:  3.837e-08  alpha:  9.890e-01  linmin: -1.405e-02  cgtest:  3.827e-01  t[s]:     15.06
LCAOMinimize: Encountered beta<0, resetting CG.
	FillingsUpdate:  mu: -0.077218743  nElectrons: 9.000000  magneticMoment: [ Abs: 0.14000  Tot: +0.14000 ]
LCAOMinimize: Iter:   2  F: -20.1678689831911981  |grad|_K:  3.403e-09  alpha:  9.118e-01  linmin: -3.219e-02  cgtest:  1.000e+00  t[s]:     19.07
LCAOMinimize: Encountered beta<0, resetting CG.
LCAOMinimize: Converged (|Delta F|<1.000000e-06 for 2 iters).


---- Citations for features of the code used in this run ----

   Software package:
      R. Sundararaman, K. Letchworth-Weaver, K.A. Schwarz, D. Gunceler, Y. Ozhabes and T.A. Arias, 'JDFTx: software for joint density-functional theory', SoftwareX 6, 278 (2017)

   gga-PBE exchange-correlation functional:
      J.P. Perdew, K. Burke and M. Ernzerhof, Phys. Rev. Lett. 77, 3865 (1996)

   Pseudopotentials:
      M Schlipf and F Gygi, Comput. Phys. Commun. 196, 36 (2015)

   Truncated Coulomb potentials:
      R. Sundararaman and T.A. Arias, Phys. Rev. B 87, 165122 (2013)

This list may not be complete. Please suggest additional citations or
report any other bugs at https://github.com/shankar1729/jdftx/issues

Initialization completed successfully at t[s]:     19.34


-------- Electronic minimization -----------
Will mix electronic density at each iteration.
	FillingsUpdate:  mu: -0.077218743  nElectrons: 9.000000  magneticMoment: [ Abs: 0.14000  Tot: +0.14000 ]
	FillingsUpdate:  mu: -0.077452347  nElectrons: 9.000000  magneticMoment: [ Abs: 0.14000  Tot: +0.14000 ]
SCF: Cycle:  0   F: -20.168125785777608   dF: -2.568e-04   |Residual|: 1.003e-03   |deigs|: 1.752e-01  t[s]:     27.47
	FillingsUpdate:  mu: -0.077513022  nElectrons: 9.000000  magneticMoment: [ Abs: 0.14074  Tot: +0.14000 ]
SCF: Cycle:  1   F: -20.168133901089583   dF: -8.115e-06   |Residual|: 8.846e-04   |deigs|: 4.094e-03  t[s]:     33.91
	FillingsUpdate:  mu: -0.077605704  nElectrons: 9.000000  magneticMoment: [ Abs: 0.14059  Tot: +0.14000 ]
SCF: Cycle:  2   F: -20.168137248049607   dF: -3.347e-06   |Residual|: 7.228e-04   |deigs|: 8.896e-04  t[s]:     40.44
	FillingsUpdate:  mu: -0.077830948  nElectrons: 9.000000  magneticMoment: [ Abs: 0.14201  Tot: +0.14000 ]
SCF: Cycle:  3   F: -20.168142955344258   dF: -5.707e-06   |Residual|: 4.656e-04   |deigs|: 1.027e-03  t[s]:     47.08
	FillingsUpdate:  mu: -0.077933372  nElectrons: 9.000000  magneticMoment: [ Abs: 0.14115  Tot: +0.14000 ]
SCF: Cycle:  4   F: -20.168146065536863   dF: -3.110e-06   |Residual|: 3.034e-04   |deigs|: 6.937e-04  t[s]:     53.76
	FillingsUpdate:  mu: -0.078026508  nElectrons: 9.000000  magneticMoment: [ Abs: 0.14122  Tot: +0.14000 ]
SCF: Cycle:  5   F: -20.168148470757362   dF: -2.405e-06   |Residual|: 2.139e-04   |deigs|: 7.619e-04  t[s]:     60.58
	FillingsUpdate:  mu: -0.078001031  nElectrons: 9.000000  magneticMoment: [ Abs: 0.14125  Tot: +0.14000 ]
SCF: Cycle:  6   F: -20.168149429802980   dF: -9.590e-07   |Residual|: 1.433e-04   |deigs|: 4.975e-04  t[s]:     67.49
	FillingsUpdate:  mu: -0.077966126  nElectrons: 9.000000  magneticMoment: [ Abs: 0.14104  Tot: +0.14000 ]
SCF: Cycle:  7   F: -20.168149904449240   dF: -4.746e-07   |Residual|: 1.078e-04   |deigs|: 6.404e-04  t[s]:     74.57
	FillingsUpdate:  mu: -0.077926337  nElectrons: 9.000000  magneticMoment: [ Abs: 0.14092  Tot: +0.14000 ]
SCF: Cycle:  8   F: -20.168150151497546   dF: -2.470e-07   |Residual|: 8.364e-05   |deigs|: 3.213e-04  t[s]:     81.72
	FillingsUpdate:  mu: -0.077864532  nElectrons: 9.000000  magneticMoment: [ Abs: 0.14098  Tot: +0.14000 ]
SCF: Cycle:  9   F: -20.168150203983114   dF: -5.249e-08   |Residual|: 6.855e-05   |deigs|: 8.749e-05  t[s]:     88.97
	FillingsUpdate:  mu: -0.077818699  nElectrons: 9.000000  magneticMoment: [ Abs: 0.14108  Tot: +0.14000 ]
SCF: Cycle: 10   F: -20.168150225117227   dF: -2.113e-08   |Residual|: 6.603e-05   |deigs|: 6.907e-05  t[s]:     96.36
	FillingsUpdate:  mu: -0.077757268  nElectrons: 9.000000  magneticMoment: [ Abs: 0.14110  Tot: +0.14000 ]
SCF: Cycle: 11   F: -20.168150171657594   dF: +5.346e-08   |Residual|: 5.749e-05   |deigs|: 1.377e-04  t[s]:    103.74
	FillingsUpdate:  mu: -0.077685711  nElectrons: 9.000000  magneticMoment: [ Abs: 0.14118  Tot: +0.14000 ]
SCF: Cycle: 12   F: -20.168150135780820   dF: +3.588e-08   |Residual|: 5.150e-05   |deigs|: 2.078e-04  t[s]:    111.11
	FillingsUpdate:  mu: -0.077628025  nElectrons: 9.000000  magneticMoment: [ Abs: 0.14113  Tot: +0.14000 ]
SCF: Cycle: 13   F: -20.168150034082771   dF: +1.017e-07   |Residual|: 5.014e-05   |deigs|: 2.078e-04  t[s]:    118.48
	FillingsUpdate:  mu: -0.077576902  nElectrons: 9.000000  magneticMoment: [ Abs: 0.14109  Tot: +0.14000 ]
SCF: Cycle: 14   F: -20.168150158929564   dF: -1.248e-07   |Residual|: 4.253e-05   |deigs|: 1.480e-04  t[s]:    125.89
	FillingsUpdate:  mu: -0.077518428  nElectrons: 9.000000  magneticMoment: [ Abs: 0.14103  Tot: +0.14000 ]
SCF: Cycle: 15   F: -20.168150167489873   dF: -8.560e-09   |Residual|: 3.980e-05   |deigs|: 1.264e-04  t[s]:    133.39
	FillingsUpdate:  mu: -0.077477200  nElectrons: 9.000000  magneticMoment: [ Abs: 0.14096  Tot: +0.14000 ]
SCF: Cycle: 16   F: -20.168150145566187   dF: +2.192e-08   |Residual|: 3.599e-05   |deigs|: 9.175e-05  t[s]:    140.81
	FillingsUpdate:  mu: -0.077459585  nElectrons: 9.000000  magneticMoment: [ Abs: 0.14093  Tot: +0.14000 ]
SCF: Cycle: 17   F: -20.168150244965762   dF: -9.940e-08   |Residual|: 2.659e-05   |deigs|: 6.198e-05  t[s]:    148.22
	FillingsUpdate:  mu: -0.077445104  nElectrons: 9.000000  magneticMoment: [ Abs: 0.14091  Tot: +0.14000 ]
SCF: Cycle: 18   F: -20.168150274463041   dF: -2.950e-08   |Residual|: 2.179e-05   |deigs|: 4.076e-05  t[s]:    155.59
	FillingsUpdate:  mu: -0.077434255  nElectrons: 9.000000  magneticMoment: [ Abs: 0.14091  Tot: +0.14000 ]
SCF: Cycle: 19   F: -20.168150339062187   dF: -6.460e-08   |Residual|: 1.652e-05   |deigs|: 2.989e-05  t[s]:    163.01
	FillingsUpdate:  mu: -0.077435087  nElectrons: 9.000000  magneticMoment: [ Abs: 0.14092  Tot: +0.14000 ]
SCF: Cycle: 20   F: -20.168150409734334   dF: -7.067e-08   |Residual|: 1.227e-05   |deigs|: 2.139e-05  t[s]:    170.39
	FillingsUpdate:  mu: -0.077433807  nElectrons: 9.000000  magneticMoment: [ Abs: 0.14093  Tot: +0.14000 ]
SCF: Cycle: 21   F: -20.168150415637800   dF: -5.903e-09   |Residual|: 9.446e-06   |deigs|: 1.654e-05  t[s]:    177.55
	FillingsUpdate:  mu: -0.077432091  nElectrons: 9.000000  magneticMoment: [ Abs: 0.14095  Tot: +0.14000 ]
SCF: Cycle: 22   F: -20.168150436208268   dF: -2.057e-08   |Residual|: 5.622e-06   |deigs|: 1.688e-05  t[s]:    184.95
	FillingsUpdate:  mu: -0.077430357  nElectrons: 9.000000  magneticMoment: [ Abs: 0.14094  Tot: +0.14000 ]
SCF: Cycle: 23   F: -20.168150437851249   dF: -1.643e-09   |Residual|: 4.226e-06   |deigs|: 1.932e-05  t[s]:    191.94
	FillingsUpdate:  mu: -0.077429116  nElectrons: 9.000000  magneticMoment: [ Abs: 0.14094  Tot: +0.14000 ]
SCF: Cycle: 24   F: -20.168150438016017   dF: -1.648e-10   |Residual|: 3.348e-06   |deigs|: 2.021e-05  t[s]:    199.37
SCF: Converged (|Delta E|<1.000000e-08 for 2 iters).


# Ionic positions in lattice coordinates:
ion Cs   0.000000000000000   0.000000000000000   0.000000000000000 0

# Forces in Lattice coordinates:
force Cs  -0.000000000000000  -0.000000000000000   0.000000000000000 0

# Energy components:
   Eewald =       -9.0240130501663280
       EH =        7.0009785758219838
     Eloc =      -23.5845461871683142
      Enl =        3.4362833344536003
   Epulay =        0.0000000422266766
      Exc =       -3.1048457464953825
       KE =        5.1079932811813986
-------------------------------------
     Etot =      -20.1681497501463625
       TS =        0.0000006878696540
-------------------------------------
        F =      -20.1681504380160170

IonicMinimize: Iter:   0  F: -20.168150438016017  |grad|_K:  0.000e+00  t[s]:    199.77
IonicMinimize: Converged (|grad|_K<1.000000e-04).

#--- Lowdin population analysis ---
# oxidation-state Cs +0.006
# magnetic-moments Cs +0.139

End date and time: Sun Feb  6 13:29:05 2022  (Duration: 0-0:03:19.84)
Done!
