The alkali metal is Cs
scale=2
magnetization=0.32
--------------------------------------------------------------------------
The library attempted to open the following supporting CUDA libraries,
but each of them failed.  CUDA-aware support is disabled.
libcuda.so.1: cannot open shared object file: No such file or directory
libcuda.dylib: cannot open shared object file: No such file or directory
/usr/lib64/libcuda.so.1: cannot open shared object file: No such file or directory
/usr/lib64/libcuda.dylib: cannot open shared object file: No such file or directory
If you are not interested in CUDA-aware support, then run with
--mca opal_warn_on_missing_libcuda 0 to suppress this message.  If you are interested
in CUDA-aware support, then try setting LD_LIBRARY_PATH to the location
of libcuda.so.1 to get passed this issue.
--------------------------------------------------------------------------
--------------------------------------------------------------------------
No OpenFabrics connection schemes reported that they were able to be
used on a specific port.  As such, the openib BTL (OpenFabrics
support) will be disabled for this port.

  Local host:           d-4-2-2
  Local device:         mlx5_1
  Local port:           1
  CPCs attempted:       rdmacm, udcm
--------------------------------------------------------------------------

*************** JDFTx 1.6.0 (git hash 42ebbcc2) ***************

Start date and time: Sun Feb  6 13:23:29 2022
Executable jdftx with command-line: -i Alkali.in
Running on hosts (process indices):  d-4-2-2 (0-18)
Divided in process groups (process indices):  0 (0)  1 (1)  2 (2)  3 (3)  4 (4)  5 (5)  6 (6)  7 (7)  8 (8)  9 (9)  10 (10)  11 (11)  12 (12)  13 (13)  14 (14)  15 (15)  16 (16)  17 (17)  18 (18)
Resource initialization completed at t[s]:      0.00
Run totals: 19 processes, 48 threads, 0 GPUs


Input parsed successfully to the following command list (including defaults):

basis kpoint-dependent
coords-type Lattice
core-overlap-check vector
coulomb-interaction Slab 001
davidson-band-ratio 1.1
dump End None
dump-name $INPUT.$VAR
elec-cutoff 20
elec-eigen-algo Davidson
elec-ex-corr gga-PBE
elec-initial-magnetization 0.320000 yes
elec-smearing Fermi 1e-05
electronic-minimize  \
	dirUpdateScheme      FletcherReeves \
	linminMethod         DirUpdateRecommended \
	nIterations          100 \
	history              15 \
	knormThreshold       0 \
	energyDiffThreshold  1e-08 \
	nEnergyDiff          2 \
	alphaTstart          1 \
	alphaTmin            1e-10 \
	updateTestStepSize   yes \
	alphaTreduceFactor   0.1 \
	alphaTincreaseFactor 3 \
	nAlphaAdjustMax      3 \
	wolfeEnergy          0.0001 \
	wolfeGradient        0.9 \
	fdTest               no
electronic-scf  \
	nIterations	10000 \
	energyDiffThreshold	1e-08 \
	residualThreshold	1e-07 \
	mixFraction	0.5 \
	qMetric	0.8 \
	history	10 \
	nEigSteps	2 \
	eigDiffThreshold	1e-08 \
	mixedVariable	Density \
	qKerker	0.8 \
	qKappa	-1 \
	verbose	no \
	mixFractionMag	1.5
exchange-regularization WignerSeitzTruncated
fluid None
fluid-ex-corr (null) lda-PZ
fluid-gummel-loop 10 1.000000e-05
fluid-minimize  \
	dirUpdateScheme      PolakRibiere \
	linminMethod         DirUpdateRecommended \
	nIterations          100 \
	history              15 \
	knormThreshold       0 \
	energyDiffThreshold  0 \
	nEnergyDiff          2 \
	alphaTstart          1 \
	alphaTmin            1e-10 \
	updateTestStepSize   yes \
	alphaTreduceFactor   0.1 \
	alphaTincreaseFactor 3 \
	nAlphaAdjustMax      3 \
	wolfeEnergy          0.0001 \
	wolfeGradient        0.9 \
	fdTest               no
fluid-solvent H2O 55.338 ScalarEOS \
	epsBulk 78.4 \
	pMol 0.92466 \
	epsInf 1.77 \
	Pvap 1.06736e-10 \
	sigmaBulk 4.62e-05 \
	Rvdw 2.61727 \
	Res 1.42 \
	tauNuc 343133 \
	poleEl 15 7 1
forces-output-coords Positions
ion Cs   0.000000000000000   0.000000000000000   0.000000000000000 0
ion-species SG15/$ID_ONCV_PBE.upf
ion-width 0
ionic-minimize  \
	dirUpdateScheme      L-BFGS \
	linminMethod         DirUpdateRecommended \
	nIterations          0 \
	history              15 \
	knormThreshold       0.0001 \
	energyDiffThreshold  1e-06 \
	nEnergyDiff          2 \
	alphaTstart          1 \
	alphaTmin            1e-10 \
	updateTestStepSize   yes \
	alphaTreduceFactor   0.1 \
	alphaTincreaseFactor 3 \
	nAlphaAdjustMax      3 \
	wolfeEnergy          0.0001 \
	wolfeGradient        0.9 \
	fdTest               no
kpoint   0.000000000000   0.000000000000   0.000000000000  1.00000000000000
kpoint-folding 12 12 1 
latt-move-scale 1 1 1
latt-scale 2 2 1 
lattice  \
	   4.727486978767153   -2.363743489383575    0.000000000000000  \
	  -0.000000000000000    4.094123819672498    0.000000000000000  \
	   0.000000000000000    0.000000000000000   40.000000000000000 
lattice-minimize  \
	dirUpdateScheme      L-BFGS \
	linminMethod         DirUpdateRecommended \
	nIterations          0 \
	history              15 \
	knormThreshold       0 \
	energyDiffThreshold  1e-06 \
	nEnergyDiff          2 \
	alphaTstart          1 \
	alphaTmin            1e-10 \
	updateTestStepSize   yes \
	alphaTreduceFactor   0.1 \
	alphaTincreaseFactor 3 \
	nAlphaAdjustMax      3 \
	wolfeEnergy          0.0001 \
	wolfeGradient        0.9 \
	fdTest               no
lcao-params -1 1e-06 1e-05
pcm-variant GLSSA13
spintype z-spin
subspace-rotation-factor 1 yes
symmetries automatic
symmetry-threshold 0.0001



---------- Setting up symmetries ----------

Found 24 point-group symmetries of the bravais lattice
Found 24 space-group symmetries with basis
Applied RMS atom displacement 0 bohrs to make symmetries exact.

---------- Initializing the Grid ----------
R = 
[      9.45497     -4.72749            0  ]
[            0      8.18825            0  ]
[            0            0           40  ]
unit cell volume = 3096.79
G =
[   0.664538   0.383671         -0  ]
[          0   0.767342         -0  ]
[         -0         -0    0.15708  ]
Minimum fftbox size, Smin = [  40  40  164  ]
Chosen fftbox size, S = [  40  40  168  ]

---------- Exchange Correlation functional ----------
Initalized PBE GGA exchange.
Initalized PBE GGA correlation.

---------- Setting up pseudopotentials ----------
Width of ionic core gaussian charges (only for fluid interactions / plotting) set to 0

Reading pseudopotential file '/home/gridsan/aligho/DFT/build-Nov24/pseudopotentials/SG15/Cs_ONCV_PBE.upf':
  'Cs' pseudopotential, 'PBE' functional
  Generated using ONCVPSP code by D. R. Hamann
  Author: Martin Schlipf and Francois Gygi  Date: 150915.
  9 valence electrons, 3 orbitals, 6 projectors, 2414 radial grid points, with lMax = 2
  Transforming local potential to a uniform radial grid of dG=0.02 with 1489 points.
  Transforming nonlocal projectors to a uniform radial grid of dG=0.02 with 432 points.
    5S    l: 0   occupation:  2.0   eigenvalue: -0.982388
    5P    l: 1   occupation:  6.0   eigenvalue: -0.496786
    6S    l: 0   occupation:  1.0   eigenvalue: -0.076670
  Transforming atomic orbitals to a uniform radial grid of dG=0.02 with 432 points.
  Core radius for overlap checks: 2.06 bohrs.
  Reading pulay file /home/gridsan/aligho/DFT/build-Nov24/pseudopotentials/SG15/Cs_ONCV_PBE.pulay ... using dE_dnG = -1.008762e-04 computed for Ecut = 20.

Initialized 1 species with 1 total atoms.

Folded 1 k-points by 12x12x1 to 144 k-points.

---------- Setting up k-points, bands, fillings ----------
Reduced to 19 k-points under symmetry. 
Computing the number of bands and number of electrons
Calculating initial fillings.
nElectrons:   9.000000   nBands: 6   nStates: 38

----- Setting up reduced wavefunction bases (one per k-point) -----
average nbasis = 13230.521 , ideal nbasis = 13229.709

---------- Setting up coulomb interaction ----------
Initialized slab truncation along lattice direction 001

---------- Setting up 2D ewald sum ----------
Optimum gaussian width for ewald sums = 5.249020 bohr.
Real space sums over 289 unit cells with max indices [  8  8  0  ]
Reciprocal space sums over 81 terms with max indices [  4  4  0  ]

---------- Allocating electronic variables ----------
Initializing wave functions:  linear combination of atomic orbitals
Note: number of bands (6) exceeds available atomic orbitals (5)
Cs pseudo-atom occupations:   s ( 2 1 )  p ( 6 )
	FillingsUpdate:  mu: -0.088812438  nElectrons: 9.000000  magneticMoment: [ Abs: 0.32000  Tot: +0.32000 ]
LCAOMinimize: Iter:   0  F: -20.1801724720927567  |grad|_K:  3.801e-05  alpha:  1.000e+00
	FillingsUpdate:  mu: -0.088795196  nElectrons: 9.000000  magneticMoment: [ Abs: 0.32000  Tot: +0.32000 ]
LCAOMinimize: Iter:   1  F: -20.1801734382760571  |grad|_K:  3.889e-07  alpha:  9.778e-01  linmin: -4.127e-02  cgtest:  3.374e-01  t[s]:      4.66
LCAOMinimize: Encountered beta<0, resetting CG.
[d-4-2-2:17399] 18 more processes have sent help message help-mpi-common-cuda.txt / dlopen failed
[d-4-2-2:17399] Set MCA parameter "orte_base_help_aggregate" to 0 to see all help / error messages
[d-4-2-2:17399] 18 more processes have sent help message help-mpi-btl-openib-cpc-base.txt / no cpcs for port
	FillingsUpdate:  mu: -0.088795318  nElectrons: 9.000000  magneticMoment: [ Abs: 0.32000  Tot: +0.32000 ]
LCAOMinimize: Iter:   2  F: -20.1801734383795264  |grad|_K:  1.481e-09  alpha:  9.982e-01  linmin: -1.062e-01  cgtest:  6.788e-01  t[s]:      5.93
LCAOMinimize: Encountered beta<0, resetting CG.
LCAOMinimize: Converged (|Delta F|<1.000000e-06 for 2 iters).


---- Citations for features of the code used in this run ----

   Software package:
      R. Sundararaman, K. Letchworth-Weaver, K.A. Schwarz, D. Gunceler, Y. Ozhabes and T.A. Arias, 'JDFTx: software for joint density-functional theory', SoftwareX 6, 278 (2017)

   gga-PBE exchange-correlation functional:
      J.P. Perdew, K. Burke and M. Ernzerhof, Phys. Rev. Lett. 77, 3865 (1996)

   Pseudopotentials:
      M Schlipf and F Gygi, Comput. Phys. Commun. 196, 36 (2015)

   Truncated Coulomb potentials:
      R. Sundararaman and T.A. Arias, Phys. Rev. B 87, 165122 (2013)

This list may not be complete. Please suggest additional citations or
report any other bugs at https://github.com/shankar1729/jdftx/issues

Initialization completed successfully at t[s]:      6.02


-------- Electronic minimization -----------
Will mix electronic density at each iteration.
	FillingsUpdate:  mu: -0.088795318  nElectrons: 9.000000  magneticMoment: [ Abs: 0.32000  Tot: +0.32000 ]
	FillingsUpdate:  mu: -0.102269873  nElectrons: 9.000000  magneticMoment: [ Abs: 0.32000  Tot: +0.32000 ]
SCF: Cycle:  0   F: -20.185983860764413   dF: -5.810e-03   |Residual|: 1.291e-02   |deigs|: 1.881e-01  t[s]:      8.49
	FillingsUpdate:  mu: -0.102777847  nElectrons: 9.000000  magneticMoment: [ Abs: 0.32000  Tot: +0.32000 ]
SCF: Cycle:  1   F: -20.186507117339673   dF: -5.233e-04   |Residual|: 1.043e-02   |deigs|: 5.055e-03  t[s]:     10.43
	FillingsUpdate:  mu: -0.099759609  nElectrons: 9.000000  magneticMoment: [ Abs: 0.32920  Tot: +0.32000 ]
SCF: Cycle:  2   F: -20.186845634749890   dF: -3.385e-04   |Residual|: 4.855e-03   |deigs|: 2.896e-03  t[s]:     12.37
	FillingsUpdate:  mu: -0.098529904  nElectrons: 9.000000  magneticMoment: [ Abs: 0.32000  Tot: +0.32000 ]
SCF: Cycle:  3   F: -20.186993631179778   dF: -1.480e-04   |Residual|: 3.432e-03   |deigs|: 2.332e-03  t[s]:     14.35
	FillingsUpdate:  mu: -0.096118255  nElectrons: 9.000000  magneticMoment: [ Abs: 0.32123  Tot: +0.32000 ]
SCF: Cycle:  4   F: -20.187067621291796   dF: -7.399e-05   |Residual|: 2.588e-03   |deigs|: 3.127e-03  t[s]:     16.40
	FillingsUpdate:  mu: -0.093551932  nElectrons: 9.000000  magneticMoment: [ Abs: 0.32554  Tot: +0.32000 ]
SCF: Cycle:  5   F: -20.187108221691876   dF: -4.060e-05   |Residual|: 2.308e-03   |deigs|: 3.128e-03  t[s]:     18.41
	FillingsUpdate:  mu: -0.091103465  nElectrons: 9.000000  magneticMoment: [ Abs: 0.33103  Tot: +0.32000 ]
SCF: Cycle:  6   F: -20.187114180127576   dF: -5.958e-06   |Residual|: 1.569e-03   |deigs|: 3.006e-03  t[s]:     20.46
	FillingsUpdate:  mu: -0.089118534  nElectrons: 9.000000  magneticMoment: [ Abs: 0.32816  Tot: +0.32000 ]
SCF: Cycle:  7   F: -20.187141096013558   dF: -2.692e-05   |Residual|: 1.268e-03   |deigs|: 2.075e-03  t[s]:     22.49
	FillingsUpdate:  mu: -0.087767281  nElectrons: 9.000000  magneticMoment: [ Abs: 0.32248  Tot: +0.32000 ]
SCF: Cycle:  8   F: -20.187169190446816   dF: -2.809e-05   |Residual|: 1.053e-03   |deigs|: 1.490e-03  t[s]:     24.57
	FillingsUpdate:  mu: -0.086220579  nElectrons: 9.000000  magneticMoment: [ Abs: 0.32413  Tot: +0.32000 ]
SCF: Cycle:  9   F: -20.187158996971071   dF: +1.019e-05   |Residual|: 8.942e-04   |deigs|: 1.655e-03  t[s]:     26.66
	FillingsUpdate:  mu: -0.084275845  nElectrons: 9.000000  magneticMoment: [ Abs: 0.32604  Tot: +0.32000 ]
SCF: Cycle: 10   F: -20.187155443718581   dF: +3.553e-06   |Residual|: 8.109e-04   |deigs|: 2.111e-03  t[s]:     28.76
	FillingsUpdate:  mu: -0.082406826  nElectrons: 9.000000  magneticMoment: [ Abs: 0.32425  Tot: +0.32000 ]
SCF: Cycle: 11   F: -20.187175686783895   dF: -2.024e-05   |Residual|: 7.394e-04   |deigs|: 2.156e-03  t[s]:     30.91
	FillingsUpdate:  mu: -0.081121792  nElectrons: 9.000000  magneticMoment: [ Abs: 0.32476  Tot: +0.32000 ]
SCF: Cycle: 12   F: -20.187198346644159   dF: -2.266e-05   |Residual|: 6.851e-04   |deigs|: 1.239e-03  t[s]:     32.99
	FillingsUpdate:  mu: -0.079442495  nElectrons: 9.000000  magneticMoment: [ Abs: 0.32412  Tot: +0.32000 ]
SCF: Cycle: 13   F: -20.187210058201057   dF: -1.171e-05   |Residual|: 6.183e-04   |deigs|: 1.671e-03  t[s]:     35.08
	FillingsUpdate:  mu: -0.077411858  nElectrons: 9.000000  magneticMoment: [ Abs: 0.32165  Tot: +0.32000 ]
SCF: Cycle: 14   F: -20.187219640743795   dF: -9.583e-06   |Residual|: 4.699e-04   |deigs|: 2.199e-03  t[s]:     37.18
	FillingsUpdate:  mu: -0.077023772  nElectrons: 9.000000  magneticMoment: [ Abs: 0.32117  Tot: +0.32000 ]
SCF: Cycle: 15   F: -20.187223782909019   dF: -4.142e-06   |Residual|: 3.716e-04   |deigs|: 1.252e-03  t[s]:     39.34
	FillingsUpdate:  mu: -0.076652069  nElectrons: 9.000000  magneticMoment: [ Abs: 0.32016  Tot: +0.32000 ]
SCF: Cycle: 16   F: -20.187227726920373   dF: -3.944e-06   |Residual|: 2.744e-04   |deigs|: 6.607e-04  t[s]:     41.46
	FillingsUpdate:  mu: -0.076575422  nElectrons: 9.000000  magneticMoment: [ Abs: 0.32034  Tot: +0.32000 ]
SCF: Cycle: 17   F: -20.187228578342381   dF: -8.514e-07   |Residual|: 1.889e-04   |deigs|: 1.863e-04  t[s]:     43.60
	FillingsUpdate:  mu: -0.076675878  nElectrons: 9.000000  magneticMoment: [ Abs: 0.32028  Tot: +0.32000 ]
SCF: Cycle: 18   F: -20.187229056593846   dF: -4.783e-07   |Residual|: 7.490e-05   |deigs|: 1.574e-04  t[s]:     45.74
	FillingsUpdate:  mu: -0.076553933  nElectrons: 9.000000  magneticMoment: [ Abs: 0.32017  Tot: +0.32000 ]
SCF: Cycle: 19   F: -20.187229410462233   dF: -3.539e-07   |Residual|: 4.433e-05   |deigs|: 1.338e-04  t[s]:     47.91
	FillingsUpdate:  mu: -0.076571884  nElectrons: 9.000000  magneticMoment: [ Abs: 0.32013  Tot: +0.32000 ]
SCF: Cycle: 20   F: -20.187229499610226   dF: -8.915e-08   |Residual|: 2.464e-05   |deigs|: 5.473e-05  t[s]:     49.95
	FillingsUpdate:  mu: -0.076590777  nElectrons: 9.000000  magneticMoment: [ Abs: 0.32013  Tot: +0.32000 ]
SCF: Cycle: 21   F: -20.187229533472514   dF: -3.386e-08   |Residual|: 1.830e-05   |deigs|: 6.729e-05  t[s]:     52.12
	FillingsUpdate:  mu: -0.076617409  nElectrons: 9.000000  magneticMoment: [ Abs: 0.32014  Tot: +0.32000 ]
SCF: Cycle: 22   F: -20.187229552282197   dF: -1.881e-08   |Residual|: 1.179e-05   |deigs|: 9.141e-05  t[s]:     54.29
	FillingsUpdate:  mu: -0.076632203  nElectrons: 9.000000  magneticMoment: [ Abs: 0.32013  Tot: +0.32000 ]
SCF: Cycle: 23   F: -20.187229562844315   dF: -1.056e-08   |Residual|: 5.523e-06   |deigs|: 1.154e-04  t[s]:     56.34
	FillingsUpdate:  mu: -0.076628999  nElectrons: 9.000000  magneticMoment: [ Abs: 0.32014  Tot: +0.32000 ]
SCF: Cycle: 24   F: -20.187229569144616   dF: -6.300e-09   |Residual|: 3.744e-06   |deigs|: 1.334e-04  t[s]:     58.50
	FillingsUpdate:  mu: -0.076624503  nElectrons: 9.000000  magneticMoment: [ Abs: 0.32014  Tot: +0.32000 ]
SCF: Cycle: 25   F: -20.187229573946158   dF: -4.802e-09   |Residual|: 3.245e-06   |deigs|: 9.446e-05  t[s]:     60.61
SCF: Converged (|Delta E|<1.000000e-08 for 2 iters).


# Ionic positions in lattice coordinates:
ion Cs   0.000000000000000   0.000000000000000   0.000000000000000 0

# Forces in Lattice coordinates:
force Cs   0.000000000000000   0.000000000000000   0.000000000000000 0

# Energy components:
   Eewald =      -18.0480261003326561
       EH =       -1.8211729028485797
     Eloc =       -5.7620610550711948
      Enl =        3.4417373855413937
   Epulay =        0.0000000264484078
      Exc =       -3.1451153929922251
       KE =        5.1474092885437468
-------------------------------------
     Etot =      -20.1872287507111068
       TS =        0.0000008232350520
-------------------------------------
        F =      -20.1872295739461585

IonicMinimize: Iter:   0  F: -20.187229573946158  |grad|_K:  0.000e+00  t[s]:     60.73
IonicMinimize: Converged (|grad|_K<1.000000e-04).

#--- Lowdin population analysis ---
# oxidation-state Cs +0.060
# magnetic-moments Cs +0.277

End date and time: Sun Feb  6 13:24:30 2022  (Duration: 0-0:01:00.76)
Done!
scale=3
magnetization=0.32
--------------------------------------------------------------------------
The library attempted to open the following supporting CUDA libraries,
but each of them failed.  CUDA-aware support is disabled.
libcuda.so.1: cannot open shared object file: No such file or directory
libcuda.dylib: cannot open shared object file: No such file or directory
/usr/lib64/libcuda.so.1: cannot open shared object file: No such file or directory
/usr/lib64/libcuda.dylib: cannot open shared object file: No such file or directory
If you are not interested in CUDA-aware support, then run with
--mca opal_warn_on_missing_libcuda 0 to suppress this message.  If you are interested
in CUDA-aware support, then try setting LD_LIBRARY_PATH to the location
of libcuda.so.1 to get passed this issue.
--------------------------------------------------------------------------
--------------------------------------------------------------------------
No OpenFabrics connection schemes reported that they were able to be
used on a specific port.  As such, the openib BTL (OpenFabrics
support) will be disabled for this port.

  Local host:           d-4-2-2
  Local device:         mlx5_1
  Local port:           1
  CPCs attempted:       rdmacm, udcm
--------------------------------------------------------------------------

*************** JDFTx 1.6.0 (git hash 42ebbcc2) ***************

Start date and time: Sun Feb  6 13:24:31 2022
Executable jdftx with command-line: -i Alkali.in
Running on hosts (process indices):  d-4-2-2 (0-18)
Divided in process groups (process indices):  0 (0)  1 (1)  2 (2)  3 (3)  4 (4)  5 (5)  6 (6)  7 (7)  8 (8)  9 (9)  10 (10)  11 (11)  12 (12)  13 (13)  14 (14)  15 (15)  16 (16)  17 (17)  18 (18)
Resource initialization completed at t[s]:      0.00
Run totals: 19 processes, 48 threads, 0 GPUs


Input parsed successfully to the following command list (including defaults):

basis kpoint-dependent
coords-type Lattice
core-overlap-check vector
coulomb-interaction Slab 001
davidson-band-ratio 1.1
dump End None
dump-name $INPUT.$VAR
elec-cutoff 20
elec-eigen-algo Davidson
elec-ex-corr gga-PBE
elec-initial-magnetization 0.320000 yes
elec-smearing Fermi 1e-05
electronic-minimize  \
	dirUpdateScheme      FletcherReeves \
	linminMethod         DirUpdateRecommended \
	nIterations          100 \
	history              15 \
	knormThreshold       0 \
	energyDiffThreshold  1e-08 \
	nEnergyDiff          2 \
	alphaTstart          1 \
	alphaTmin            1e-10 \
	updateTestStepSize   yes \
	alphaTreduceFactor   0.1 \
	alphaTincreaseFactor 3 \
	nAlphaAdjustMax      3 \
	wolfeEnergy          0.0001 \
	wolfeGradient        0.9 \
	fdTest               no
electronic-scf  \
	nIterations	10000 \
	energyDiffThreshold	1e-08 \
	residualThreshold	1e-07 \
	mixFraction	0.5 \
	qMetric	0.8 \
	history	10 \
	nEigSteps	2 \
	eigDiffThreshold	1e-08 \
	mixedVariable	Density \
	qKerker	0.8 \
	qKappa	-1 \
	verbose	no \
	mixFractionMag	1.5
exchange-regularization WignerSeitzTruncated
fluid None
fluid-ex-corr (null) lda-PZ
fluid-gummel-loop 10 1.000000e-05
fluid-minimize  \
	dirUpdateScheme      PolakRibiere \
	linminMethod         DirUpdateRecommended \
	nIterations          100 \
	history              15 \
	knormThreshold       0 \
	energyDiffThreshold  0 \
	nEnergyDiff          2 \
	alphaTstart          1 \
	alphaTmin            1e-10 \
	updateTestStepSize   yes \
	alphaTreduceFactor   0.1 \
	alphaTincreaseFactor 3 \
	nAlphaAdjustMax      3 \
	wolfeEnergy          0.0001 \
	wolfeGradient        0.9 \
	fdTest               no
fluid-solvent H2O 55.338 ScalarEOS \
	epsBulk 78.4 \
	pMol 0.92466 \
	epsInf 1.77 \
	Pvap 1.06736e-10 \
	sigmaBulk 4.62e-05 \
	Rvdw 2.61727 \
	Res 1.42 \
	tauNuc 343133 \
	poleEl 15 7 1
forces-output-coords Positions
ion Cs   0.000000000000000   0.000000000000000   0.000000000000000 0
ion-species SG15/$ID_ONCV_PBE.upf
ion-width 0
ionic-minimize  \
	dirUpdateScheme      L-BFGS \
	linminMethod         DirUpdateRecommended \
	nIterations          0 \
	history              15 \
	knormThreshold       0.0001 \
	energyDiffThreshold  1e-06 \
	nEnergyDiff          2 \
	alphaTstart          1 \
	alphaTmin            1e-10 \
	updateTestStepSize   yes \
	alphaTreduceFactor   0.1 \
	alphaTincreaseFactor 3 \
	nAlphaAdjustMax      3 \
	wolfeEnergy          0.0001 \
	wolfeGradient        0.9 \
	fdTest               no
kpoint   0.000000000000   0.000000000000   0.000000000000  1.00000000000000
kpoint-folding 12 12 1 
latt-move-scale 1 1 1
latt-scale 3 3 1 
lattice  \
	   4.727486978767153   -2.363743489383575    0.000000000000000  \
	  -0.000000000000000    4.094123819672498    0.000000000000000  \
	   0.000000000000000    0.000000000000000   40.000000000000000 
lattice-minimize  \
	dirUpdateScheme      L-BFGS \
	linminMethod         DirUpdateRecommended \
	nIterations          0 \
	history              15 \
	knormThreshold       0 \
	energyDiffThreshold  1e-06 \
	nEnergyDiff          2 \
	alphaTstart          1 \
	alphaTmin            1e-10 \
	updateTestStepSize   yes \
	alphaTreduceFactor   0.1 \
	alphaTincreaseFactor 3 \
	nAlphaAdjustMax      3 \
	wolfeEnergy          0.0001 \
	wolfeGradient        0.9 \
	fdTest               no
lcao-params -1 1e-06 1e-05
pcm-variant GLSSA13
spintype z-spin
subspace-rotation-factor 1 yes
symmetries automatic
symmetry-threshold 0.0001



---------- Setting up symmetries ----------

Found 24 point-group symmetries of the bravais lattice
Found 24 space-group symmetries with basis
Applied RMS atom displacement 0 bohrs to make symmetries exact.

---------- Initializing the Grid ----------
R = 
[      14.1825     -7.09123            0  ]
[            0      12.2824            0  ]
[            0            0           40  ]
unit cell volume = 6967.77
G =
[   0.443025   0.255781         -0  ]
[          0   0.511561         -0  ]
[         -0         -0    0.15708  ]
Minimum fftbox size, Smin = [  60  60  164  ]
Chosen fftbox size, S = [  60  60  168  ]

---------- Exchange Correlation functional ----------
Initalized PBE GGA exchange.
Initalized PBE GGA correlation.

---------- Setting up pseudopotentials ----------
Width of ionic core gaussian charges (only for fluid interactions / plotting) set to 0

Reading pseudopotential file '/home/gridsan/aligho/DFT/build-Nov24/pseudopotentials/SG15/Cs_ONCV_PBE.upf':
  'Cs' pseudopotential, 'PBE' functional
  Generated using ONCVPSP code by D. R. Hamann
  Author: Martin Schlipf and Francois Gygi  Date: 150915.
  9 valence electrons, 3 orbitals, 6 projectors, 2414 radial grid points, with lMax = 2
  Transforming local potential to a uniform radial grid of dG=0.02 with 1489 points.
  Transforming nonlocal projectors to a uniform radial grid of dG=0.02 with 432 points.
    5S    l: 0   occupation:  2.0   eigenvalue: -0.982388
    5P    l: 1   occupation:  6.0   eigenvalue: -0.496786
    6S    l: 0   occupation:  1.0   eigenvalue: -0.076670
  Transforming atomic orbitals to a uniform radial grid of dG=0.02 with 432 points.
  Core radius for overlap checks: 2.06 bohrs.
  Reading pulay file /home/gridsan/aligho/DFT/build-Nov24/pseudopotentials/SG15/Cs_ONCV_PBE.pulay ... using dE_dnG = -1.008762e-04 computed for Ecut = 20.

Initialized 1 species with 1 total atoms.

Folded 1 k-points by 12x12x1 to 144 k-points.

---------- Setting up k-points, bands, fillings ----------
Reduced to 19 k-points under symmetry. 
Computing the number of bands and number of electrons
Calculating initial fillings.
nElectrons:   9.000000   nBands: 6   nStates: 38

----- Setting up reduced wavefunction bases (one per k-point) -----
average nbasis = 29766.104 , ideal nbasis = 29766.845

---------- Setting up coulomb interaction ----------
Initialized slab truncation along lattice direction 001

---------- Setting up 2D ewald sum ----------
Optimum gaussian width for ewald sums = 7.873530 bohr.
Real space sums over 289 unit cells with max indices [  8  8  0  ]
Reciprocal space sums over 81 terms with max indices [  4  4  0  ]

---------- Allocating electronic variables ----------
Initializing wave functions:  linear combination of atomic orbitals
Note: number of bands (6) exceeds available atomic orbitals (5)
Cs pseudo-atom occupations:   s ( 2 1 )  p ( 6 )
[d-4-2-2:68676] 18 more processes have sent help message help-mpi-common-cuda.txt / dlopen failed
[d-4-2-2:68676] Set MCA parameter "orte_base_help_aggregate" to 0 to see all help / error messages
[d-4-2-2:68676] 18 more processes have sent help message help-mpi-btl-openib-cpc-base.txt / no cpcs for port
	FillingsUpdate:  mu: -0.078835624  nElectrons: 9.000000  magneticMoment: [ Abs: 0.32000  Tot: +0.32000 ]
LCAOMinimize: Iter:   0  F: -20.1747357778114456  |grad|_K:  2.283e-05  alpha:  1.000e+00
	FillingsUpdate:  mu: -0.078830683  nElectrons: 9.000000  magneticMoment: [ Abs: 0.32000  Tot: +0.32000 ]
LCAOMinimize: Iter:   1  F: -20.1747361291591147  |grad|_K:  1.542e-07  alpha:  9.860e-01  linmin: -3.296e-02  cgtest:  5.927e-01  t[s]:      8.99
LCAOMinimize: Encountered beta<0, resetting CG.
	FillingsUpdate:  mu: -0.078830678  nElectrons: 9.000000  magneticMoment: [ Abs: 0.32000  Tot: +0.32000 ]
LCAOMinimize: Iter:   2  F: -20.1747361291757628  |grad|_K:  6.035e-09  alpha:  1.039e+00  linmin:  6.359e-02  cgtest: -9.984e-01  t[s]:     11.39
LCAOMinimize: Converged (|Delta F|<1.000000e-06 for 2 iters).


---- Citations for features of the code used in this run ----

   Software package:
      R. Sundararaman, K. Letchworth-Weaver, K.A. Schwarz, D. Gunceler, Y. Ozhabes and T.A. Arias, 'JDFTx: software for joint density-functional theory', SoftwareX 6, 278 (2017)

   gga-PBE exchange-correlation functional:
      J.P. Perdew, K. Burke and M. Ernzerhof, Phys. Rev. Lett. 77, 3865 (1996)

   Pseudopotentials:
      M Schlipf and F Gygi, Comput. Phys. Commun. 196, 36 (2015)

   Truncated Coulomb potentials:
      R. Sundararaman and T.A. Arias, Phys. Rev. B 87, 165122 (2013)

This list may not be complete. Please suggest additional citations or
report any other bugs at https://github.com/shankar1729/jdftx/issues

Initialization completed successfully at t[s]:     11.56


-------- Electronic minimization -----------
Will mix electronic density at each iteration.
	FillingsUpdate:  mu: -0.078830678  nElectrons: 9.000000  magneticMoment: [ Abs: 0.32000  Tot: +0.32000 ]
	FillingsUpdate:  mu: -0.082163476  nElectrons: 9.000000  magneticMoment: [ Abs: 0.32000  Tot: +0.32000 ]
SCF: Cycle:  0   F: -20.177147299763160   dF: -2.411e-03   |Residual|: 4.687e-03   |deigs|: 1.731e-01  t[s]:     16.41
	FillingsUpdate:  mu: -0.082385486  nElectrons: 9.000000  magneticMoment: [ Abs: 0.32000  Tot: +0.32000 ]
SCF: Cycle:  1   F: -20.177268112768182   dF: -1.208e-04   |Residual|: 4.147e-03   |deigs|: 5.011e-03  t[s]:     20.25
	FillingsUpdate:  mu: -0.082627467  nElectrons: 9.000000  magneticMoment: [ Abs: 0.32255  Tot: +0.32000 ]
SCF: Cycle:  2   F: -20.177342411158747   dF: -7.430e-05   |Residual|: 2.358e-03   |deigs|: 2.495e-03  t[s]:     24.13
	FillingsUpdate:  mu: -0.082653193  nElectrons: 9.000000  magneticMoment: [ Abs: 0.32209  Tot: +0.32000 ]
SCF: Cycle:  3   F: -20.177367620656405   dF: -2.521e-05   |Residual|: 1.598e-03   |deigs|: 1.495e-03  t[s]:     28.05
	FillingsUpdate:  mu: -0.082492619  nElectrons: 9.000000  magneticMoment: [ Abs: 0.32022  Tot: +0.32000 ]
SCF: Cycle:  4   F: -20.177383119244141   dF: -1.550e-05   |Residual|: 9.477e-04   |deigs|: 1.014e-03  t[s]:     32.07
	FillingsUpdate:  mu: -0.082344762  nElectrons: 9.000000  magneticMoment: [ Abs: 0.32021  Tot: +0.32000 ]
SCF: Cycle:  5   F: -20.177390626165234   dF: -7.507e-06   |Residual|: 6.812e-04   |deigs|: 6.637e-04  t[s]:     36.10
	FillingsUpdate:  mu: -0.082009989  nElectrons: 9.000000  magneticMoment: [ Abs: 0.32070  Tot: +0.32000 ]
SCF: Cycle:  6   F: -20.177394183287625   dF: -3.557e-06   |Residual|: 5.412e-04   |deigs|: 1.111e-03  t[s]:     40.28
	FillingsUpdate:  mu: -0.081607857  nElectrons: 9.000000  magneticMoment: [ Abs: 0.32192  Tot: +0.32000 ]
SCF: Cycle:  7   F: -20.177394517480533   dF: -3.342e-07   |Residual|: 4.627e-04   |deigs|: 7.804e-04  t[s]:     44.51
	FillingsUpdate:  mu: -0.080943177  nElectrons: 9.000000  magneticMoment: [ Abs: 0.32282  Tot: +0.32000 ]
SCF: Cycle:  8   F: -20.177391841937840   dF: +2.676e-06   |Residual|: 3.692e-04   |deigs|: 8.305e-04  t[s]:     48.78
	FillingsUpdate:  mu: -0.080446009  nElectrons: 9.000000  magneticMoment: [ Abs: 0.32213  Tot: +0.32000 ]
SCF: Cycle:  9   F: -20.177393738439079   dF: -1.897e-06   |Residual|: 3.294e-04   |deigs|: 6.891e-04  t[s]:     53.13
	FillingsUpdate:  mu: -0.080438584  nElectrons: 9.000000  magneticMoment: [ Abs: 0.32145  Tot: +0.32000 ]
SCF: Cycle: 10   F: -20.177396419376841   dF: -2.681e-06   |Residual|: 2.901e-04   |deigs|: 3.417e-04  t[s]:     57.49
	FillingsUpdate:  mu: -0.079935663  nElectrons: 9.000000  magneticMoment: [ Abs: 0.32247  Tot: +0.32000 ]
SCF: Cycle: 11   F: -20.177397499582693   dF: -1.080e-06   |Residual|: 2.426e-04   |deigs|: 9.250e-04  t[s]:     62.01
	FillingsUpdate:  mu: -0.079370319  nElectrons: 9.000000  magneticMoment: [ Abs: 0.32223  Tot: +0.32000 ]
SCF: Cycle: 12   F: -20.177396555554779   dF: +9.440e-07   |Residual|: 2.408e-04   |deigs|: 8.920e-04  t[s]:     66.34
	FillingsUpdate:  mu: -0.078994026  nElectrons: 9.000000  magneticMoment: [ Abs: 0.32093  Tot: +0.32000 ]
SCF: Cycle: 13   F: -20.177396448667999   dF: +1.069e-07   |Residual|: 2.285e-04   |deigs|: 4.746e-04  t[s]:     70.69
	FillingsUpdate:  mu: -0.078763857  nElectrons: 9.000000  magneticMoment: [ Abs: 0.32151  Tot: +0.32000 ]
SCF: Cycle: 14   F: -20.177398463238166   dF: -2.015e-06   |Residual|: 1.974e-04   |deigs|: 3.351e-04  t[s]:     75.13
	FillingsUpdate:  mu: -0.078410555  nElectrons: 9.000000  magneticMoment: [ Abs: 0.32117  Tot: +0.32000 ]
SCF: Cycle: 15   F: -20.177400509980203   dF: -2.047e-06   |Residual|: 1.514e-04   |deigs|: 4.002e-04  t[s]:     79.49
	FillingsUpdate:  mu: -0.078181111  nElectrons: 9.000000  magneticMoment: [ Abs: 0.32066  Tot: +0.32000 ]
SCF: Cycle: 16   F: -20.177401801698430   dF: -1.292e-06   |Residual|: 9.939e-05   |deigs|: 2.285e-04  t[s]:     83.83
	FillingsUpdate:  mu: -0.078141027  nElectrons: 9.000000  magneticMoment: [ Abs: 0.32042  Tot: +0.32000 ]
SCF: Cycle: 17   F: -20.177402074049894   dF: -2.724e-07   |Residual|: 6.631e-05   |deigs|: 1.019e-04  t[s]:     88.18
	FillingsUpdate:  mu: -0.078157691  nElectrons: 9.000000  magneticMoment: [ Abs: 0.32038  Tot: +0.32000 ]
SCF: Cycle: 18   F: -20.177402270848702   dF: -1.968e-07   |Residual|: 3.682e-05   |deigs|: 9.402e-05  t[s]:     92.64
	FillingsUpdate:  mu: -0.078166911  nElectrons: 9.000000  magneticMoment: [ Abs: 0.32042  Tot: +0.32000 ]
SCF: Cycle: 19   F: -20.177402348451992   dF: -7.760e-08   |Residual|: 2.395e-05   |deigs|: 9.392e-05  t[s]:     97.07
	FillingsUpdate:  mu: -0.078170654  nElectrons: 9.000000  magneticMoment: [ Abs: 0.32041  Tot: +0.32000 ]
SCF: Cycle: 20   F: -20.177402378381174   dF: -2.993e-08   |Residual|: 1.573e-05   |deigs|: 1.134e-04  t[s]:    101.46
	FillingsUpdate:  mu: -0.078176780  nElectrons: 9.000000  magneticMoment: [ Abs: 0.32041  Tot: +0.32000 ]
SCF: Cycle: 21   F: -20.177402392849782   dF: -1.447e-08   |Residual|: 1.063e-05   |deigs|: 1.303e-04  t[s]:    105.85
	FillingsUpdate:  mu: -0.078174075  nElectrons: 9.000000  magneticMoment: [ Abs: 0.32041  Tot: +0.32000 ]
SCF: Cycle: 22   F: -20.177402400013580   dF: -7.164e-09   |Residual|: 7.397e-06   |deigs|: 9.918e-05  t[s]:    110.24
	FillingsUpdate:  mu: -0.078176355  nElectrons: 9.000000  magneticMoment: [ Abs: 0.32041  Tot: +0.32000 ]
SCF: Cycle: 23   F: -20.177402404030651   dF: -4.017e-09   |Residual|: 5.666e-06   |deigs|: 9.140e-05  t[s]:    114.61
SCF: Converged (|Delta E|<1.000000e-08 for 2 iters).


# Ionic positions in lattice coordinates:
ion Cs   0.000000000000000   0.000000000000000   0.000000000000000 0

# Forces in Lattice coordinates:
force Cs  -0.000000000000000  -0.000000000000000   0.000000000000000 0

# Energy components:
   Eewald =      -12.0320174002217755
       EH =        4.0128791947663087
     Eloc =      -17.5821375535103428
      Enl =        3.4317298307634339
   Epulay =       -0.0000000107257212
      Exc =       -3.1086239902128350
       KE =        5.1007683659614296
-------------------------------------
     Etot =      -20.1774015631795010
       TS =        0.0000008408511521
-------------------------------------
        F =      -20.1774024040306514

IonicMinimize: Iter:   0  F: -20.177402404030651  |grad|_K:  0.000e+00  t[s]:    114.88
IonicMinimize: Converged (|grad|_K<1.000000e-04).

#--- Lowdin population analysis ---
# oxidation-state Cs +0.048
# magnetic-moments Cs +0.287

End date and time: Sun Feb  6 13:26:26 2022  (Duration: 0-0:01:54.93)
Done!
scale=4
magnetization=0.32
--------------------------------------------------------------------------
The library attempted to open the following supporting CUDA libraries,
but each of them failed.  CUDA-aware support is disabled.
libcuda.so.1: cannot open shared object file: No such file or directory
libcuda.dylib: cannot open shared object file: No such file or directory
/usr/lib64/libcuda.so.1: cannot open shared object file: No such file or directory
/usr/lib64/libcuda.dylib: cannot open shared object file: No such file or directory
If you are not interested in CUDA-aware support, then run with
--mca opal_warn_on_missing_libcuda 0 to suppress this message.  If you are interested
in CUDA-aware support, then try setting LD_LIBRARY_PATH to the location
of libcuda.so.1 to get passed this issue.
--------------------------------------------------------------------------
--------------------------------------------------------------------------
No OpenFabrics connection schemes reported that they were able to be
used on a specific port.  As such, the openib BTL (OpenFabrics
support) will be disabled for this port.

  Local host:           d-4-2-2
  Local device:         mlx5_1
  Local port:           1
  CPCs attempted:       rdmacm, udcm
--------------------------------------------------------------------------

*************** JDFTx 1.6.0 (git hash 42ebbcc2) ***************

Start date and time: Sun Feb  6 13:26:27 2022
Executable jdftx with command-line: -i Alkali.in
Running on hosts (process indices):  d-4-2-2 (0-18)
Divided in process groups (process indices):  0 (0)  1 (1)  2 (2)  3 (3)  4 (4)  5 (5)  6 (6)  7 (7)  8 (8)  9 (9)  10 (10)  11 (11)  12 (12)  13 (13)  14 (14)  15 (15)  16 (16)  17 (17)  18 (18)
Resource initialization completed at t[s]:      0.00
Run totals: 19 processes, 48 threads, 0 GPUs


Input parsed successfully to the following command list (including defaults):

basis kpoint-dependent
coords-type Lattice
core-overlap-check vector
coulomb-interaction Slab 001
davidson-band-ratio 1.1
dump End None
dump-name $INPUT.$VAR
elec-cutoff 20
elec-eigen-algo Davidson
elec-ex-corr gga-PBE
elec-initial-magnetization 0.320000 yes
elec-smearing Fermi 1e-05
electronic-minimize  \
	dirUpdateScheme      FletcherReeves \
	linminMethod         DirUpdateRecommended \
	nIterations          100 \
	history              15 \
	knormThreshold       0 \
	energyDiffThreshold  1e-08 \
	nEnergyDiff          2 \
	alphaTstart          1 \
	alphaTmin            1e-10 \
	updateTestStepSize   yes \
	alphaTreduceFactor   0.1 \
	alphaTincreaseFactor 3 \
	nAlphaAdjustMax      3 \
	wolfeEnergy          0.0001 \
	wolfeGradient        0.9 \
	fdTest               no
electronic-scf  \
	nIterations	10000 \
	energyDiffThreshold	1e-08 \
	residualThreshold	1e-07 \
	mixFraction	0.5 \
	qMetric	0.8 \
	history	10 \
	nEigSteps	2 \
	eigDiffThreshold	1e-08 \
	mixedVariable	Density \
	qKerker	0.8 \
	qKappa	-1 \
	verbose	no \
	mixFractionMag	1.5
exchange-regularization WignerSeitzTruncated
fluid None
fluid-ex-corr (null) lda-PZ
fluid-gummel-loop 10 1.000000e-05
fluid-minimize  \
	dirUpdateScheme      PolakRibiere \
	linminMethod         DirUpdateRecommended \
	nIterations          100 \
	history              15 \
	knormThreshold       0 \
	energyDiffThreshold  0 \
	nEnergyDiff          2 \
	alphaTstart          1 \
	alphaTmin            1e-10 \
	updateTestStepSize   yes \
	alphaTreduceFactor   0.1 \
	alphaTincreaseFactor 3 \
	nAlphaAdjustMax      3 \
	wolfeEnergy          0.0001 \
	wolfeGradient        0.9 \
	fdTest               no
fluid-solvent H2O 55.338 ScalarEOS \
	epsBulk 78.4 \
	pMol 0.92466 \
	epsInf 1.77 \
	Pvap 1.06736e-10 \
	sigmaBulk 4.62e-05 \
	Rvdw 2.61727 \
	Res 1.42 \
	tauNuc 343133 \
	poleEl 15 7 1
forces-output-coords Positions
ion Cs   0.000000000000000   0.000000000000000   0.000000000000000 0
ion-species SG15/$ID_ONCV_PBE.upf
ion-width 0
ionic-minimize  \
	dirUpdateScheme      L-BFGS \
	linminMethod         DirUpdateRecommended \
	nIterations          0 \
	history              15 \
	knormThreshold       0.0001 \
	energyDiffThreshold  1e-06 \
	nEnergyDiff          2 \
	alphaTstart          1 \
	alphaTmin            1e-10 \
	updateTestStepSize   yes \
	alphaTreduceFactor   0.1 \
	alphaTincreaseFactor 3 \
	nAlphaAdjustMax      3 \
	wolfeEnergy          0.0001 \
	wolfeGradient        0.9 \
	fdTest               no
kpoint   0.000000000000   0.000000000000   0.000000000000  1.00000000000000
kpoint-folding 12 12 1 
latt-move-scale 1 1 1
latt-scale 4 4 1 
lattice  \
	   4.727486978767153   -2.363743489383575    0.000000000000000  \
	  -0.000000000000000    4.094123819672498    0.000000000000000  \
	   0.000000000000000    0.000000000000000   40.000000000000000 
lattice-minimize  \
	dirUpdateScheme      L-BFGS \
	linminMethod         DirUpdateRecommended \
	nIterations          0 \
	history              15 \
	knormThreshold       0 \
	energyDiffThreshold  1e-06 \
	nEnergyDiff          2 \
	alphaTstart          1 \
	alphaTmin            1e-10 \
	updateTestStepSize   yes \
	alphaTreduceFactor   0.1 \
	alphaTincreaseFactor 3 \
	nAlphaAdjustMax      3 \
	wolfeEnergy          0.0001 \
	wolfeGradient        0.9 \
	fdTest               no
lcao-params -1 1e-06 1e-05
pcm-variant GLSSA13
spintype z-spin
subspace-rotation-factor 1 yes
symmetries automatic
symmetry-threshold 0.0001



---------- Setting up symmetries ----------

Found 24 point-group symmetries of the bravais lattice
Found 24 space-group symmetries with basis
Applied RMS atom displacement 0 bohrs to make symmetries exact.

---------- Initializing the Grid ----------
R = 
[      18.9099     -9.45497            0  ]
[            0      16.3765            0  ]
[            0            0           40  ]
unit cell volume = 12387.1
G =
[   0.332269   0.191835         -0  ]
[          0   0.383671         -0  ]
[         -0         -0    0.15708  ]
Minimum fftbox size, Smin = [  80  80  164  ]
Chosen fftbox size, S = [  80  80  168  ]

---------- Exchange Correlation functional ----------
Initalized PBE GGA exchange.
Initalized PBE GGA correlation.

---------- Setting up pseudopotentials ----------
Width of ionic core gaussian charges (only for fluid interactions / plotting) set to 0

Reading pseudopotential file '/home/gridsan/aligho/DFT/build-Nov24/pseudopotentials/SG15/Cs_ONCV_PBE.upf':
  'Cs' pseudopotential, 'PBE' functional
  Generated using ONCVPSP code by D. R. Hamann
  Author: Martin Schlipf and Francois Gygi  Date: 150915.
  9 valence electrons, 3 orbitals, 6 projectors, 2414 radial grid points, with lMax = 2
  Transforming local potential to a uniform radial grid of dG=0.02 with 1489 points.
  Transforming nonlocal projectors to a uniform radial grid of dG=0.02 with 432 points.
    5S    l: 0   occupation:  2.0   eigenvalue: -0.982388
    5P    l: 1   occupation:  6.0   eigenvalue: -0.496786
    6S    l: 0   occupation:  1.0   eigenvalue: -0.076670
  Transforming atomic orbitals to a uniform radial grid of dG=0.02 with 432 points.
  Core radius for overlap checks: 2.06 bohrs.
  Reading pulay file /home/gridsan/aligho/DFT/build-Nov24/pseudopotentials/SG15/Cs_ONCV_PBE.pulay ... using dE_dnG = -1.008762e-04 computed for Ecut = 20.

Initialized 1 species with 1 total atoms.

Folded 1 k-points by 12x12x1 to 144 k-points.

---------- Setting up k-points, bands, fillings ----------
Reduced to 19 k-points under symmetry. 
Computing the number of bands and number of electrons
Calculating initial fillings.
nElectrons:   9.000000   nBands: 6   nStates: 38

----- Setting up reduced wavefunction bases (one per k-point) -----
average nbasis = 52924.021 , ideal nbasis = 52918.836

---------- Setting up coulomb interaction ----------
Initialized slab truncation along lattice direction 001

---------- Setting up 2D ewald sum ----------
Optimum gaussian width for ewald sums = 10.498040 bohr.
Real space sums over 289 unit cells with max indices [  8  8  0  ]
Reciprocal space sums over 81 terms with max indices [  4  4  0  ]

---------- Allocating electronic variables ----------
Initializing wave functions:  linear combination of atomic orbitals
Note: number of bands (6) exceeds available atomic orbitals (5)
Cs pseudo-atom occupations:   s ( 2 1 )  p ( 6 )
[d-4-2-2:24500] 18 more processes have sent help message help-mpi-common-cuda.txt / dlopen failed
[d-4-2-2:24500] Set MCA parameter "orte_base_help_aggregate" to 0 to see all help / error messages
[d-4-2-2:24500] 18 more processes have sent help message help-mpi-btl-openib-cpc-base.txt / no cpcs for port
	FillingsUpdate:  mu: -0.077347917  nElectrons: 9.000000  magneticMoment: [ Abs: 0.32000  Tot: +0.32000 ]
LCAOMinimize: Iter:   0  F: -20.1680196440038024  |grad|_K:  7.061e-06  alpha:  1.000e+00
	FillingsUpdate:  mu: -0.077346458  nElectrons: 9.000000  magneticMoment: [ Abs: 0.32000  Tot: +0.32000 ]
LCAOMinimize: Iter:   1  F: -20.1680196777500491  |grad|_K:  3.508e-08  alpha:  9.896e-01  linmin: -2.129e-03  cgtest:  3.330e-01  t[s]:     15.44
LCAOMinimize: Encountered beta<0, resetting CG.
	FillingsUpdate:  mu: -0.077346458  nElectrons: 9.000000  magneticMoment: [ Abs: 0.32000  Tot: +0.32000 ]
LCAOMinimize: Iter:   2  F: -20.1680196777508485  |grad|_K:  1.084e-09  alpha:  1.031e+00  linmin:  6.279e-03  cgtest: -9.986e-01  t[s]:     19.55
LCAOMinimize: Converged (|Delta F|<1.000000e-06 for 2 iters).


---- Citations for features of the code used in this run ----

   Software package:
      R. Sundararaman, K. Letchworth-Weaver, K.A. Schwarz, D. Gunceler, Y. Ozhabes and T.A. Arias, 'JDFTx: software for joint density-functional theory', SoftwareX 6, 278 (2017)

   gga-PBE exchange-correlation functional:
      J.P. Perdew, K. Burke and M. Ernzerhof, Phys. Rev. Lett. 77, 3865 (1996)

   Pseudopotentials:
      M Schlipf and F Gygi, Comput. Phys. Commun. 196, 36 (2015)

   Truncated Coulomb potentials:
      R. Sundararaman and T.A. Arias, Phys. Rev. B 87, 165122 (2013)

This list may not be complete. Please suggest additional citations or
report any other bugs at https://github.com/shankar1729/jdftx/issues

Initialization completed successfully at t[s]:     19.82


-------- Electronic minimization -----------
Will mix electronic density at each iteration.
	FillingsUpdate:  mu: -0.077346458  nElectrons: 9.000000  magneticMoment: [ Abs: 0.32000  Tot: +0.32000 ]
	FillingsUpdate:  mu: -0.077551035  nElectrons: 9.000000  magneticMoment: [ Abs: 0.32000  Tot: +0.32000 ]
SCF: Cycle:  0   F: -20.168249056181278   dF: -2.294e-04   |Residual|: 1.070e-03   |deigs|: 1.750e-01  t[s]:     28.26
	FillingsUpdate:  mu: -0.077602009  nElectrons: 9.000000  magneticMoment: [ Abs: 0.32158  Tot: +0.32000 ]
SCF: Cycle:  1   F: -20.168257486832562   dF: -8.431e-06   |Residual|: 7.975e-04   |deigs|: 4.347e-03  t[s]:     34.79
	FillingsUpdate:  mu: -0.077661192  nElectrons: 9.000000  magneticMoment: [ Abs: 0.32160  Tot: +0.32000 ]
SCF: Cycle:  2   F: -20.168260236176756   dF: -2.749e-06   |Residual|: 6.658e-04   |deigs|: 1.231e-03  t[s]:     41.45
	FillingsUpdate:  mu: -0.077795555  nElectrons: 9.000000  magneticMoment: [ Abs: 0.32286  Tot: +0.32000 ]
SCF: Cycle:  3   F: -20.168263579637461   dF: -3.343e-06   |Residual|: 4.678e-04   |deigs|: 6.729e-04  t[s]:     48.26
	FillingsUpdate:  mu: -0.077913943  nElectrons: 9.000000  magneticMoment: [ Abs: 0.32250  Tot: +0.32000 ]
SCF: Cycle:  4   F: -20.168266829759755   dF: -3.250e-06   |Residual|: 3.139e-04   |deigs|: 5.028e-04  t[s]:     55.20
	FillingsUpdate:  mu: -0.078011740  nElectrons: 9.000000  magneticMoment: [ Abs: 0.32249  Tot: +0.32000 ]
SCF: Cycle:  5   F: -20.168269021392785   dF: -2.192e-06   |Residual|: 2.010e-04   |deigs|: 3.958e-04  t[s]:     62.21
	FillingsUpdate:  mu: -0.078001091  nElectrons: 9.000000  magneticMoment: [ Abs: 0.32255  Tot: +0.32000 ]
SCF: Cycle:  6   F: -20.168269949818626   dF: -9.284e-07   |Residual|: 1.408e-04   |deigs|: 2.080e-04  t[s]:     69.35
	FillingsUpdate:  mu: -0.077984157  nElectrons: 9.000000  magneticMoment: [ Abs: 0.32231  Tot: +0.32000 ]
SCF: Cycle:  7   F: -20.168270485368261   dF: -5.355e-07   |Residual|: 1.043e-04   |deigs|: 4.297e-04  t[s]:     76.63
	FillingsUpdate:  mu: -0.077951412  nElectrons: 9.000000  magneticMoment: [ Abs: 0.32221  Tot: +0.32000 ]
SCF: Cycle:  8   F: -20.168270825813917   dF: -3.404e-07   |Residual|: 8.340e-05   |deigs|: 5.145e-04  t[s]:     83.93
	FillingsUpdate:  mu: -0.077890271  nElectrons: 9.000000  magneticMoment: [ Abs: 0.32214  Tot: +0.32000 ]
SCF: Cycle:  9   F: -20.168270906679176   dF: -8.087e-08   |Residual|: 6.952e-05   |deigs|: 4.926e-04  t[s]:     91.45
	FillingsUpdate:  mu: -0.077844802  nElectrons: 9.000000  magneticMoment: [ Abs: 0.32233  Tot: +0.32000 ]
SCF: Cycle: 10   F: -20.168270939114745   dF: -3.244e-08   |Residual|: 6.111e-05   |deigs|: 2.856e-04  t[s]:     99.07
	FillingsUpdate:  mu: -0.077800157  nElectrons: 9.000000  magneticMoment: [ Abs: 0.32242  Tot: +0.32000 ]
SCF: Cycle: 11   F: -20.168270917850879   dF: +2.126e-08   |Residual|: 5.805e-05   |deigs|: 1.719e-04  t[s]:    106.60
	FillingsUpdate:  mu: -0.077729018  nElectrons: 9.000000  magneticMoment: [ Abs: 0.32243  Tot: +0.32000 ]
SCF: Cycle: 12   F: -20.168270608337515   dF: +3.095e-07   |Residual|: 5.128e-05   |deigs|: 2.217e-04  t[s]:    114.29
	FillingsUpdate:  mu: -0.077662562  nElectrons: 9.000000  magneticMoment: [ Abs: 0.32252  Tot: +0.32000 ]
SCF: Cycle: 13   F: -20.168270758680293   dF: -1.503e-07   |Residual|: 4.641e-05   |deigs|: 2.325e-04  t[s]:    121.87
	FillingsUpdate:  mu: -0.077617031  nElectrons: 9.000000  magneticMoment: [ Abs: 0.32251  Tot: +0.32000 ]
SCF: Cycle: 14   F: -20.168270902934065   dF: -1.443e-07   |Residual|: 4.117e-05   |deigs|: 1.638e-04  t[s]:    129.46
	FillingsUpdate:  mu: -0.077563701  nElectrons: 9.000000  magneticMoment: [ Abs: 0.32232  Tot: +0.32000 ]
SCF: Cycle: 15   F: -20.168270920194562   dF: -1.726e-08   |Residual|: 3.772e-05   |deigs|: 9.763e-05  t[s]:    137.08
	FillingsUpdate:  mu: -0.077512787  nElectrons: 9.000000  magneticMoment: [ Abs: 0.32224  Tot: +0.32000 ]
SCF: Cycle: 16   F: -20.168270874532944   dF: +4.566e-08   |Residual|: 3.426e-05   |deigs|: 6.942e-05  t[s]:    144.73
	FillingsUpdate:  mu: -0.077497865  nElectrons: 9.000000  magneticMoment: [ Abs: 0.32216  Tot: +0.32000 ]
SCF: Cycle: 17   F: -20.168271034000995   dF: -1.595e-07   |Residual|: 2.618e-05   |deigs|: 3.280e-05  t[s]:    152.40
	FillingsUpdate:  mu: -0.077486413  nElectrons: 9.000000  magneticMoment: [ Abs: 0.32210  Tot: +0.32000 ]
SCF: Cycle: 18   F: -20.168271024187785   dF: +9.813e-09   |Residual|: 2.080e-05   |deigs|: 2.475e-05  t[s]:    159.94
	FillingsUpdate:  mu: -0.077474652  nElectrons: 9.000000  magneticMoment: [ Abs: 0.32210  Tot: +0.32000 ]
SCF: Cycle: 19   F: -20.168271102189017   dF: -7.800e-08   |Residual|: 1.660e-05   |deigs|: 1.788e-05  t[s]:    167.59
	FillingsUpdate:  mu: -0.077467167  nElectrons: 9.000000  magneticMoment: [ Abs: 0.32210  Tot: +0.32000 ]
SCF: Cycle: 20   F: -20.168271134051828   dF: -3.186e-08   |Residual|: 1.219e-05   |deigs|: 1.574e-05  t[s]:    175.12
	FillingsUpdate:  mu: -0.077468676  nElectrons: 9.000000  magneticMoment: [ Abs: 0.32212  Tot: +0.32000 ]
SCF: Cycle: 21   F: -20.168271173932624   dF: -3.988e-08   |Residual|: 8.659e-06   |deigs|: 1.724e-05  t[s]:    182.78
	FillingsUpdate:  mu: -0.077467950  nElectrons: 9.000000  magneticMoment: [ Abs: 0.32212  Tot: +0.32000 ]
SCF: Cycle: 22   F: -20.168271169409405   dF: +4.523e-09   |Residual|: 6.158e-06   |deigs|: 1.872e-05  t[s]:    190.26
	FillingsUpdate:  mu: -0.077468271  nElectrons: 9.000000  magneticMoment: [ Abs: 0.32214  Tot: +0.32000 ]
SCF: Cycle: 23   F: -20.168271179514040   dF: -1.010e-08   |Residual|: 4.264e-06   |deigs|: 2.173e-05  t[s]:    197.99
	FillingsUpdate:  mu: -0.077469120  nElectrons: 9.000000  magneticMoment: [ Abs: 0.32214  Tot: +0.32000 ]
SCF: Cycle: 24   F: -20.168271178780607   dF: +7.334e-10   |Residual|: 3.344e-06   |deigs|: 2.514e-05  t[s]:    205.20
	FillingsUpdate:  mu: -0.077469888  nElectrons: 9.000000  magneticMoment: [ Abs: 0.32213  Tot: +0.32000 ]
SCF: Cycle: 25   F: -20.168271178222177   dF: +5.584e-10   |Residual|: 2.105e-06   |deigs|: 2.746e-05  t[s]:    212.61
	FillingsUpdate:  mu: -0.077471070  nElectrons: 9.000000  magneticMoment: [ Abs: 0.32212  Tot: +0.32000 ]
SCF: Cycle: 26   F: -20.168271182132425   dF: -3.910e-09   |Residual|: 1.030e-06   |deigs|: 2.811e-05  t[s]:    220.15
	FillingsUpdate:  mu: -0.077471315  nElectrons: 9.000000  magneticMoment: [ Abs: 0.32211  Tot: +0.32000 ]
SCF: Cycle: 27   F: -20.168271182341645   dF: -2.092e-10   |Residual|: 7.713e-07   |deigs|: 2.630e-05  t[s]:    226.71
SCF: Converged (|Delta E|<1.000000e-08 for 2 iters).


# Ionic positions in lattice coordinates:
ion Cs   0.000000000000000   0.000000000000000   0.000000000000000 0

# Forces in Lattice coordinates:
force Cs   0.000000000000000   0.000000000000000   0.000000000000000 0

# Energy components:
   Eewald =       -9.0240130501663280
       EH =        7.0057889168053160
     Eloc =      -23.5899837538957122
      Enl =        3.4365788037699208
   Epulay =        0.0000000422266766
      Exc =       -3.1056615840237285
       KE =        5.1090205880118083
-------------------------------------
     Etot =      -20.1682700372720483
       TS =        0.0000011450695982
-------------------------------------
        F =      -20.1682711823416447

IonicMinimize: Iter:   0  F: -20.168271182341645  |grad|_K:  0.000e+00  t[s]:    227.12
IonicMinimize: Converged (|grad|_K<1.000000e-04).

#--- Lowdin population analysis ---
# oxidation-state Cs +0.005
# magnetic-moments Cs +0.319

End date and time: Sun Feb  6 13:30:14 2022  (Duration: 0-0:03:47.20)
Done!
