The alkali metal is Cs
scale=2
magnetization=0.44
--------------------------------------------------------------------------
The library attempted to open the following supporting CUDA libraries,
but each of them failed.  CUDA-aware support is disabled.
libcuda.so.1: cannot open shared object file: No such file or directory
libcuda.dylib: cannot open shared object file: No such file or directory
/usr/lib64/libcuda.so.1: cannot open shared object file: No such file or directory
/usr/lib64/libcuda.dylib: cannot open shared object file: No such file or directory
If you are not interested in CUDA-aware support, then run with
--mca opal_warn_on_missing_libcuda 0 to suppress this message.  If you are interested
in CUDA-aware support, then try setting LD_LIBRARY_PATH to the location
of libcuda.so.1 to get passed this issue.
--------------------------------------------------------------------------
--------------------------------------------------------------------------
No OpenFabrics connection schemes reported that they were able to be
used on a specific port.  As such, the openib BTL (OpenFabrics
support) will be disabled for this port.

  Local host:           c-16-3-4
  Local device:         mlx5_1
  Local port:           1
  CPCs attempted:       rdmacm, udcm
--------------------------------------------------------------------------

*************** JDFTx 1.6.0 (git hash 42ebbcc2) ***************

Start date and time: Sun Feb  6 13:28:36 2022
Executable jdftx with command-line: -i Alkali.in
Running on hosts (process indices):  c-16-3-4 (0-18)
Divided in process groups (process indices):  0 (0)  1 (1)  2 (2)  3 (3)  4 (4)  5 (5)  6 (6)  7 (7)  8 (8)  9 (9)  10 (10)  11 (11)  12 (12)  13 (13)  14 (14)  15 (15)  16 (16)  17 (17)  18 (18)
Resource initialization completed at t[s]:      0.00
Run totals: 19 processes, 48 threads, 0 GPUs


Input parsed successfully to the following command list (including defaults):

basis kpoint-dependent
coords-type Lattice
core-overlap-check vector
coulomb-interaction Slab 001
davidson-band-ratio 1.1
dump End None
dump-name $INPUT.$VAR
elec-cutoff 20
elec-eigen-algo Davidson
elec-ex-corr gga-PBE
elec-initial-magnetization 0.440000 yes
elec-smearing Fermi 1e-05
electronic-minimize  \
	dirUpdateScheme      FletcherReeves \
	linminMethod         DirUpdateRecommended \
	nIterations          100 \
	history              15 \
	knormThreshold       0 \
	energyDiffThreshold  1e-08 \
	nEnergyDiff          2 \
	alphaTstart          1 \
	alphaTmin            1e-10 \
	updateTestStepSize   yes \
	alphaTreduceFactor   0.1 \
	alphaTincreaseFactor 3 \
	nAlphaAdjustMax      3 \
	wolfeEnergy          0.0001 \
	wolfeGradient        0.9 \
	fdTest               no
electronic-scf  \
	nIterations	10000 \
	energyDiffThreshold	1e-08 \
	residualThreshold	1e-07 \
	mixFraction	0.5 \
	qMetric	0.8 \
	history	10 \
	nEigSteps	2 \
	eigDiffThreshold	1e-08 \
	mixedVariable	Density \
	qKerker	0.8 \
	qKappa	-1 \
	verbose	no \
	mixFractionMag	1.5
exchange-regularization WignerSeitzTruncated
fluid None
fluid-ex-corr (null) lda-PZ
fluid-gummel-loop 10 1.000000e-05
fluid-minimize  \
	dirUpdateScheme      PolakRibiere \
	linminMethod         DirUpdateRecommended \
	nIterations          100 \
	history              15 \
	knormThreshold       0 \
	energyDiffThreshold  0 \
	nEnergyDiff          2 \
	alphaTstart          1 \
	alphaTmin            1e-10 \
	updateTestStepSize   yes \
	alphaTreduceFactor   0.1 \
	alphaTincreaseFactor 3 \
	nAlphaAdjustMax      3 \
	wolfeEnergy          0.0001 \
	wolfeGradient        0.9 \
	fdTest               no
fluid-solvent H2O 55.338 ScalarEOS \
	epsBulk 78.4 \
	pMol 0.92466 \
	epsInf 1.77 \
	Pvap 1.06736e-10 \
	sigmaBulk 4.62e-05 \
	Rvdw 2.61727 \
	Res 1.42 \
	tauNuc 343133 \
	poleEl 15 7 1
forces-output-coords Positions
ion Cs   0.000000000000000   0.000000000000000   0.000000000000000 0
ion-species SG15/$ID_ONCV_PBE.upf
ion-width 0
ionic-minimize  \
	dirUpdateScheme      L-BFGS \
	linminMethod         DirUpdateRecommended \
	nIterations          0 \
	history              15 \
	knormThreshold       0.0001 \
	energyDiffThreshold  1e-06 \
	nEnergyDiff          2 \
	alphaTstart          1 \
	alphaTmin            1e-10 \
	updateTestStepSize   yes \
	alphaTreduceFactor   0.1 \
	alphaTincreaseFactor 3 \
	nAlphaAdjustMax      3 \
	wolfeEnergy          0.0001 \
	wolfeGradient        0.9 \
	fdTest               no
kpoint   0.000000000000   0.000000000000   0.000000000000  1.00000000000000
kpoint-folding 12 12 1 
latt-move-scale 1 1 1
latt-scale 2 2 1 
lattice  \
	   4.727486978767153   -2.363743489383575    0.000000000000000  \
	  -0.000000000000000    4.094123819672498    0.000000000000000  \
	   0.000000000000000    0.000000000000000   40.000000000000000 
lattice-minimize  \
	dirUpdateScheme      L-BFGS \
	linminMethod         DirUpdateRecommended \
	nIterations          0 \
	history              15 \
	knormThreshold       0 \
	energyDiffThreshold  1e-06 \
	nEnergyDiff          2 \
	alphaTstart          1 \
	alphaTmin            1e-10 \
	updateTestStepSize   yes \
	alphaTreduceFactor   0.1 \
	alphaTincreaseFactor 3 \
	nAlphaAdjustMax      3 \
	wolfeEnergy          0.0001 \
	wolfeGradient        0.9 \
	fdTest               no
lcao-params -1 1e-06 1e-05
pcm-variant GLSSA13
spintype z-spin
subspace-rotation-factor 1 yes
symmetries automatic
symmetry-threshold 0.0001



---------- Setting up symmetries ----------

Found 24 point-group symmetries of the bravais lattice
Found 24 space-group symmetries with basis
Applied RMS atom displacement 0 bohrs to make symmetries exact.

---------- Initializing the Grid ----------
R = 
[      9.45497     -4.72749            0  ]
[            0      8.18825            0  ]
[            0            0           40  ]
unit cell volume = 3096.79
G =
[   0.664538   0.383671         -0  ]
[          0   0.767342         -0  ]
[         -0         -0    0.15708  ]
Minimum fftbox size, Smin = [  40  40  164  ]
Chosen fftbox size, S = [  40  40  168  ]

---------- Exchange Correlation functional ----------
Initalized PBE GGA exchange.
Initalized PBE GGA correlation.

---------- Setting up pseudopotentials ----------
Width of ionic core gaussian charges (only for fluid interactions / plotting) set to 0

Reading pseudopotential file '/home/gridsan/aligho/DFT/build-Nov24/pseudopotentials/SG15/Cs_ONCV_PBE.upf':
  'Cs' pseudopotential, 'PBE' functional
  Generated using ONCVPSP code by D. R. Hamann
  Author: Martin Schlipf and Francois Gygi  Date: 150915.
  9 valence electrons, 3 orbitals, 6 projectors, 2414 radial grid points, with lMax = 2
  Transforming local potential to a uniform radial grid of dG=0.02 with 1489 points.
  Transforming nonlocal projectors to a uniform radial grid of dG=0.02 with 432 points.
    5S    l: 0   occupation:  2.0   eigenvalue: -0.982388
    5P    l: 1   occupation:  6.0   eigenvalue: -0.496786
    6S    l: 0   occupation:  1.0   eigenvalue: -0.076670
  Transforming atomic orbitals to a uniform radial grid of dG=0.02 with 432 points.
  Core radius for overlap checks: 2.06 bohrs.
  Reading pulay file /home/gridsan/aligho/DFT/build-Nov24/pseudopotentials/SG15/Cs_ONCV_PBE.pulay ... using dE_dnG = -1.008762e-04 computed for Ecut = 20.

Initialized 1 species with 1 total atoms.

Folded 1 k-points by 12x12x1 to 144 k-points.

---------- Setting up k-points, bands, fillings ----------
Reduced to 19 k-points under symmetry. 
Computing the number of bands and number of electrons
Calculating initial fillings.
nElectrons:   9.000000   nBands: 6   nStates: 38

----- Setting up reduced wavefunction bases (one per k-point) -----
average nbasis = 13230.521 , ideal nbasis = 13229.709

---------- Setting up coulomb interaction ----------
Initialized slab truncation along lattice direction 001

---------- Setting up 2D ewald sum ----------
Optimum gaussian width for ewald sums = 5.249020 bohr.
Real space sums over 289 unit cells with max indices [  8  8  0  ]
Reciprocal space sums over 81 terms with max indices [  4  4  0  ]

---------- Allocating electronic variables ----------
Initializing wave functions:  linear combination of atomic orbitals
Note: number of bands (6) exceeds available atomic orbitals (5)
Cs pseudo-atom occupations:   s ( 2 1 )  p ( 6 )
	FillingsUpdate:  mu: -0.089226563  nElectrons: 9.000000  magneticMoment: [ Abs: 0.44000  Tot: +0.44000 ]
LCAOMinimize: Iter:   0  F: -20.1778159481914763  |grad|_K:  3.360e-05  alpha:  1.000e+00
	FillingsUpdate:  mu: -0.089210669  nElectrons: 9.000000  magneticMoment: [ Abs: 0.44000  Tot: +0.44000 ]
[c-16-3-4:21500] 18 more processes have sent help message help-mpi-common-cuda.txt / dlopen failed
LCAOMinimize: Iter:   1  F: -20.1778167035936065  |grad|_K:  3.422e-07  alpha:  9.785e-01  linmin: -3.525e-02  cgtest:  2.946e-01  t[s]:      4.60
LCAOMinimize: Encountered beta<0, resetting CG.
[c-16-3-4:21500] Set MCA parameter "orte_base_help_aggregate" to 0 to see all help / error messages
[c-16-3-4:21500] 18 more processes have sent help message help-mpi-btl-openib-cpc-base.txt / no cpcs for port
	FillingsUpdate:  mu: -0.089210773  nElectrons: 9.000000  magneticMoment: [ Abs: 0.44000  Tot: +0.44000 ]
LCAOMinimize: Iter:   2  F: -20.1778167036741749  |grad|_K:  3.203e-09  alpha:  1.009e+00  linmin:  1.204e-01  cgtest: -9.014e-01  t[s]:      5.80
LCAOMinimize: Converged (|Delta F|<1.000000e-06 for 2 iters).


---- Citations for features of the code used in this run ----

   Software package:
      R. Sundararaman, K. Letchworth-Weaver, K.A. Schwarz, D. Gunceler, Y. Ozhabes and T.A. Arias, 'JDFTx: software for joint density-functional theory', SoftwareX 6, 278 (2017)

   gga-PBE exchange-correlation functional:
      J.P. Perdew, K. Burke and M. Ernzerhof, Phys. Rev. Lett. 77, 3865 (1996)

   Pseudopotentials:
      M Schlipf and F Gygi, Comput. Phys. Commun. 196, 36 (2015)

   Truncated Coulomb potentials:
      R. Sundararaman and T.A. Arias, Phys. Rev. B 87, 165122 (2013)

This list may not be complete. Please suggest additional citations or
report any other bugs at https://github.com/shankar1729/jdftx/issues

Initialization completed successfully at t[s]:      5.90


-------- Electronic minimization -----------
Will mix electronic density at each iteration.
	FillingsUpdate:  mu: -0.089210773  nElectrons: 9.000000  magneticMoment: [ Abs: 0.44000  Tot: +0.44000 ]
	FillingsUpdate:  mu: -0.103117000  nElectrons: 9.000000  magneticMoment: [ Abs: 0.44000  Tot: +0.44000 ]
SCF: Cycle:  0   F: -20.184896990675206   dF: -7.080e-03   |Residual|: 1.441e-02   |deigs|: 1.880e-01  t[s]:      8.32
	FillingsUpdate:  mu: -0.103465041  nElectrons: 9.000000  magneticMoment: [ Abs: 0.44000  Tot: +0.44000 ]
SCF: Cycle:  1   F: -20.185572257768069   dF: -6.753e-04   |Residual|: 1.125e-02   |deigs|: 5.341e-03  t[s]:     10.23
	FillingsUpdate:  mu: -0.100712773  nElectrons: 9.000000  magneticMoment: [ Abs: 0.44841  Tot: +0.44000 ]
SCF: Cycle:  2   F: -20.185928550051358   dF: -3.563e-04   |Residual|: 5.657e-03   |deigs|: 2.454e-03  t[s]:     12.08
	FillingsUpdate:  mu: -0.098921904  nElectrons: 9.000000  magneticMoment: [ Abs: 0.44000  Tot: +0.44000 ]
SCF: Cycle:  3   F: -20.186096343429252   dF: -1.678e-04   |Residual|: 3.782e-03   |deigs|: 2.767e-03  t[s]:     13.99
	FillingsUpdate:  mu: -0.096500372  nElectrons: 9.000000  magneticMoment: [ Abs: 0.44039  Tot: +0.44000 ]
SCF: Cycle:  4   F: -20.186176190777591   dF: -7.985e-05   |Residual|: 2.856e-03   |deigs|: 3.089e-03  t[s]:     15.91
	FillingsUpdate:  mu: -0.093841045  nElectrons: 9.000000  magneticMoment: [ Abs: 0.44563  Tot: +0.44000 ]
SCF: Cycle:  5   F: -20.186222076374008   dF: -4.589e-05   |Residual|: 2.494e-03   |deigs|: 3.288e-03  t[s]:     17.86
	FillingsUpdate:  mu: -0.091134709  nElectrons: 9.000000  magneticMoment: [ Abs: 0.45339  Tot: +0.44000 ]
SCF: Cycle:  6   F: -20.186225971850025   dF: -3.895e-06   |Residual|: 1.718e-03   |deigs|: 3.271e-03  t[s]:     19.83
	FillingsUpdate:  mu: -0.088613250  nElectrons: 9.000000  magneticMoment: [ Abs: 0.45119  Tot: +0.44000 ]
SCF: Cycle:  7   F: -20.186261694391810   dF: -3.572e-05   |Residual|: 1.409e-03   |deigs|: 2.666e-03  t[s]:     21.87
	FillingsUpdate:  mu: -0.087927488  nElectrons: 9.000000  magneticMoment: [ Abs: 0.44296  Tot: +0.44000 ]
SCF: Cycle:  8   F: -20.186294261506724   dF: -3.257e-05   |Residual|: 1.184e-03   |deigs|: 1.152e-03  t[s]:     23.91
	FillingsUpdate:  mu: -0.086235997  nElectrons: 9.000000  magneticMoment: [ Abs: 0.44446  Tot: +0.44000 ]
SCF: Cycle:  9   F: -20.186283810171300   dF: +1.045e-05   |Residual|: 9.955e-04   |deigs|: 1.778e-03  t[s]:     25.93
	FillingsUpdate:  mu: -0.084091963  nElectrons: 9.000000  magneticMoment: [ Abs: 0.44686  Tot: +0.44000 ]
SCF: Cycle: 10   F: -20.186277810778382   dF: +5.999e-06   |Residual|: 8.445e-04   |deigs|: 2.274e-03  t[s]:     27.98
	FillingsUpdate:  mu: -0.082590457  nElectrons: 9.000000  magneticMoment: [ Abs: 0.44586  Tot: +0.44000 ]
SCF: Cycle: 11   F: -20.186294539191284   dF: -1.673e-05   |Residual|: 7.624e-04   |deigs|: 1.569e-03  t[s]:     30.04
	FillingsUpdate:  mu: -0.081201875  nElectrons: 9.000000  magneticMoment: [ Abs: 0.44630  Tot: +0.44000 ]
SCF: Cycle: 12   F: -20.186321955095440   dF: -2.742e-05   |Residual|: 7.234e-04   |deigs|: 1.346e-03  t[s]:     32.14
	FillingsUpdate:  mu: -0.079359794  nElectrons: 9.000000  magneticMoment: [ Abs: 0.44608  Tot: +0.44000 ]
SCF: Cycle: 13   F: -20.186333959877615   dF: -1.200e-05   |Residual|: 6.627e-04   |deigs|: 1.866e-03  t[s]:     34.22
	FillingsUpdate:  mu: -0.077148237  nElectrons: 9.000000  magneticMoment: [ Abs: 0.44264  Tot: +0.44000 ]
SCF: Cycle: 14   F: -20.186343492007637   dF: -9.532e-06   |Residual|: 5.482e-04   |deigs|: 2.310e-03  t[s]:     36.30
	FillingsUpdate:  mu: -0.076387798  nElectrons: 9.000000  magneticMoment: [ Abs: 0.44127  Tot: +0.44000 ]
SCF: Cycle: 15   F: -20.186350345698763   dF: -6.854e-06   |Residual|: 3.882e-04   |deigs|: 9.463e-04  t[s]:     38.35
	FillingsUpdate:  mu: -0.075546341  nElectrons: 9.000000  magneticMoment: [ Abs: 0.44081  Tot: +0.44000 ]
SCF: Cycle: 16   F: -20.186354348323810   dF: -4.003e-06   |Residual|: 2.823e-04   |deigs|: 1.488e-03  t[s]:     40.47
	FillingsUpdate:  mu: -0.075392552  nElectrons: 9.000000  magneticMoment: [ Abs: 0.44024  Tot: +0.44000 ]
SCF: Cycle: 17   F: -20.186356101086837   dF: -1.753e-06   |Residual|: 1.885e-04   |deigs|: 8.859e-04  t[s]:     42.51
	FillingsUpdate:  mu: -0.075494611  nElectrons: 9.000000  magneticMoment: [ Abs: 0.44068  Tot: +0.44000 ]
SCF: Cycle: 18   F: -20.186357030939654   dF: -9.299e-07   |Residual|: 1.185e-04   |deigs|: 3.663e-04  t[s]:     44.56
	FillingsUpdate:  mu: -0.075644028  nElectrons: 9.000000  magneticMoment: [ Abs: 0.44044  Tot: +0.44000 ]
SCF: Cycle: 19   F: -20.186357479559369   dF: -4.486e-07   |Residual|: 5.513e-05   |deigs|: 3.412e-04  t[s]:     46.61
	FillingsUpdate:  mu: -0.075617862  nElectrons: 9.000000  magneticMoment: [ Abs: 0.44027  Tot: +0.44000 ]
SCF: Cycle: 20   F: -20.186357616741262   dF: -1.372e-07   |Residual|: 3.086e-05   |deigs|: 1.358e-04  t[s]:     48.64
	FillingsUpdate:  mu: -0.075617424  nElectrons: 9.000000  magneticMoment: [ Abs: 0.44022  Tot: +0.44000 ]
SCF: Cycle: 21   F: -20.186357679011628   dF: -6.227e-08   |Residual|: 1.857e-05   |deigs|: 1.365e-04  t[s]:     50.72
	FillingsUpdate:  mu: -0.075630644  nElectrons: 9.000000  magneticMoment: [ Abs: 0.44022  Tot: +0.44000 ]
SCF: Cycle: 22   F: -20.186357709680237   dF: -3.067e-08   |Residual|: 1.195e-05   |deigs|: 1.272e-04  t[s]:     52.81
	FillingsUpdate:  mu: -0.075632215  nElectrons: 9.000000  magneticMoment: [ Abs: 0.44025  Tot: +0.44000 ]
SCF: Cycle: 23   F: -20.186357729670902   dF: -1.999e-08   |Residual|: 8.300e-06   |deigs|: 1.419e-04  t[s]:     54.85
	FillingsUpdate:  mu: -0.075632512  nElectrons: 9.000000  magneticMoment: [ Abs: 0.44027  Tot: +0.44000 ]
SCF: Cycle: 24   F: -20.186357741061553   dF: -1.139e-08   |Residual|: 5.472e-06   |deigs|: 1.323e-04  t[s]:     56.89
	FillingsUpdate:  mu: -0.075630819  nElectrons: 9.000000  magneticMoment: [ Abs: 0.44026  Tot: +0.44000 ]
SCF: Cycle: 25   F: -20.186357748675452   dF: -7.614e-09   |Residual|: 4.299e-06   |deigs|: 1.432e-04  t[s]:     59.05
	FillingsUpdate:  mu: -0.075626734  nElectrons: 9.000000  magneticMoment: [ Abs: 0.44026  Tot: +0.44000 ]
SCF: Cycle: 26   F: -20.186357753043104   dF: -4.368e-09   |Residual|: 3.469e-06   |deigs|: 2.892e-04  t[s]:     61.07
SCF: Converged (|Delta E|<1.000000e-08 for 2 iters).


# Ionic positions in lattice coordinates:
ion Cs   0.000000000000000   0.000000000000000   0.000000000000000 0

# Forces in Lattice coordinates:
force Cs  -0.000000000000000  -0.000000000000000   0.000000000000000 0

# Energy components:
   Eewald =      -18.0480261003326561
       EH =       -1.8023000208803031
     Eloc =       -5.7794257788658117
      Enl =        3.4403428119112340
   Epulay =        0.0000000264484078
      Exc =       -3.1467795954656919
       KE =        5.1498315997618178
-------------------------------------
     Etot =      -20.1863570574230025
       TS =        0.0000006956201006
-------------------------------------
        F =      -20.1863577530431044

IonicMinimize: Iter:   0  F: -20.186357753043104  |grad|_K:  0.000e+00  t[s]:     61.23
IonicMinimize: Converged (|grad|_K<1.000000e-04).

#--- Lowdin population analysis ---
# oxidation-state Cs +0.077
# magnetic-moments Cs +0.375

End date and time: Sun Feb  6 13:29:38 2022  (Duration: 0-0:01:01.25)
Done!
scale=3
magnetization=0.44
--------------------------------------------------------------------------
The library attempted to open the following supporting CUDA libraries,
but each of them failed.  CUDA-aware support is disabled.
libcuda.so.1: cannot open shared object file: No such file or directory
libcuda.dylib: cannot open shared object file: No such file or directory
/usr/lib64/libcuda.so.1: cannot open shared object file: No such file or directory
/usr/lib64/libcuda.dylib: cannot open shared object file: No such file or directory
If you are not interested in CUDA-aware support, then run with
--mca opal_warn_on_missing_libcuda 0 to suppress this message.  If you are interested
in CUDA-aware support, then try setting LD_LIBRARY_PATH to the location
of libcuda.so.1 to get passed this issue.
--------------------------------------------------------------------------
--------------------------------------------------------------------------
No OpenFabrics connection schemes reported that they were able to be
used on a specific port.  As such, the openib BTL (OpenFabrics
support) will be disabled for this port.

  Local host:           c-16-3-4
  Local device:         mlx5_1
  Local port:           1
  CPCs attempted:       rdmacm, udcm
--------------------------------------------------------------------------

*************** JDFTx 1.6.0 (git hash 42ebbcc2) ***************

Start date and time: Sun Feb  6 13:29:41 2022
Executable jdftx with command-line: -i Alkali.in
Running on hosts (process indices):  c-16-3-4 (0-18)
Divided in process groups (process indices):  0 (0)  1 (1)  2 (2)  3 (3)  4 (4)  5 (5)  6 (6)  7 (7)  8 (8)  9 (9)  10 (10)  11 (11)  12 (12)  13 (13)  14 (14)  15 (15)  16 (16)  17 (17)  18 (18)
Resource initialization completed at t[s]:      0.00
Run totals: 19 processes, 48 threads, 0 GPUs


Input parsed successfully to the following command list (including defaults):

basis kpoint-dependent
coords-type Lattice
core-overlap-check vector
coulomb-interaction Slab 001
davidson-band-ratio 1.1
dump End None
dump-name $INPUT.$VAR
elec-cutoff 20
elec-eigen-algo Davidson
elec-ex-corr gga-PBE
elec-initial-magnetization 0.440000 yes
elec-smearing Fermi 1e-05
electronic-minimize  \
	dirUpdateScheme      FletcherReeves \
	linminMethod         DirUpdateRecommended \
	nIterations          100 \
	history              15 \
	knormThreshold       0 \
	energyDiffThreshold  1e-08 \
	nEnergyDiff          2 \
	alphaTstart          1 \
	alphaTmin            1e-10 \
	updateTestStepSize   yes \
	alphaTreduceFactor   0.1 \
	alphaTincreaseFactor 3 \
	nAlphaAdjustMax      3 \
	wolfeEnergy          0.0001 \
	wolfeGradient        0.9 \
	fdTest               no
electronic-scf  \
	nIterations	10000 \
	energyDiffThreshold	1e-08 \
	residualThreshold	1e-07 \
	mixFraction	0.5 \
	qMetric	0.8 \
	history	10 \
	nEigSteps	2 \
	eigDiffThreshold	1e-08 \
	mixedVariable	Density \
	qKerker	0.8 \
	qKappa	-1 \
	verbose	no \
	mixFractionMag	1.5
exchange-regularization WignerSeitzTruncated
fluid None
fluid-ex-corr (null) lda-PZ
fluid-gummel-loop 10 1.000000e-05
fluid-minimize  \
	dirUpdateScheme      PolakRibiere \
	linminMethod         DirUpdateRecommended \
	nIterations          100 \
	history              15 \
	knormThreshold       0 \
	energyDiffThreshold  0 \
	nEnergyDiff          2 \
	alphaTstart          1 \
	alphaTmin            1e-10 \
	updateTestStepSize   yes \
	alphaTreduceFactor   0.1 \
	alphaTincreaseFactor 3 \
	nAlphaAdjustMax      3 \
	wolfeEnergy          0.0001 \
	wolfeGradient        0.9 \
	fdTest               no
fluid-solvent H2O 55.338 ScalarEOS \
	epsBulk 78.4 \
	pMol 0.92466 \
	epsInf 1.77 \
	Pvap 1.06736e-10 \
	sigmaBulk 4.62e-05 \
	Rvdw 2.61727 \
	Res 1.42 \
	tauNuc 343133 \
	poleEl 15 7 1
forces-output-coords Positions
ion Cs   0.000000000000000   0.000000000000000   0.000000000000000 0
ion-species SG15/$ID_ONCV_PBE.upf
ion-width 0
ionic-minimize  \
	dirUpdateScheme      L-BFGS \
	linminMethod         DirUpdateRecommended \
	nIterations          0 \
	history              15 \
	knormThreshold       0.0001 \
	energyDiffThreshold  1e-06 \
	nEnergyDiff          2 \
	alphaTstart          1 \
	alphaTmin            1e-10 \
	updateTestStepSize   yes \
	alphaTreduceFactor   0.1 \
	alphaTincreaseFactor 3 \
	nAlphaAdjustMax      3 \
	wolfeEnergy          0.0001 \
	wolfeGradient        0.9 \
	fdTest               no
kpoint   0.000000000000   0.000000000000   0.000000000000  1.00000000000000
kpoint-folding 12 12 1 
latt-move-scale 1 1 1
latt-scale 3 3 1 
lattice  \
	   4.727486978767153   -2.363743489383575    0.000000000000000  \
	  -0.000000000000000    4.094123819672498    0.000000000000000  \
	   0.000000000000000    0.000000000000000   40.000000000000000 
lattice-minimize  \
	dirUpdateScheme      L-BFGS \
	linminMethod         DirUpdateRecommended \
	nIterations          0 \
	history              15 \
	knormThreshold       0 \
	energyDiffThreshold  1e-06 \
	nEnergyDiff          2 \
	alphaTstart          1 \
	alphaTmin            1e-10 \
	updateTestStepSize   yes \
	alphaTreduceFactor   0.1 \
	alphaTincreaseFactor 3 \
	nAlphaAdjustMax      3 \
	wolfeEnergy          0.0001 \
	wolfeGradient        0.9 \
	fdTest               no
lcao-params -1 1e-06 1e-05
pcm-variant GLSSA13
spintype z-spin
subspace-rotation-factor 1 yes
symmetries automatic
symmetry-threshold 0.0001



---------- Setting up symmetries ----------

Found 24 point-group symmetries of the bravais lattice
Found 24 space-group symmetries with basis
Applied RMS atom displacement 0 bohrs to make symmetries exact.

---------- Initializing the Grid ----------
R = 
[      14.1825     -7.09123            0  ]
[            0      12.2824            0  ]
[            0            0           40  ]
unit cell volume = 6967.77
G =
[   0.443025   0.255781         -0  ]
[          0   0.511561         -0  ]
[         -0         -0    0.15708  ]
Minimum fftbox size, Smin = [  60  60  164  ]
Chosen fftbox size, S = [  60  60  168  ]

---------- Exchange Correlation functional ----------
Initalized PBE GGA exchange.
Initalized PBE GGA correlation.

---------- Setting up pseudopotentials ----------
Width of ionic core gaussian charges (only for fluid interactions / plotting) set to 0

Reading pseudopotential file '/home/gridsan/aligho/DFT/build-Nov24/pseudopotentials/SG15/Cs_ONCV_PBE.upf':
  'Cs' pseudopotential, 'PBE' functional
  Generated using ONCVPSP code by D. R. Hamann
  Author: Martin Schlipf and Francois Gygi  Date: 150915.
  9 valence electrons, 3 orbitals, 6 projectors, 2414 radial grid points, with lMax = 2
  Transforming local potential to a uniform radial grid of dG=0.02 with 1489 points.
  Transforming nonlocal projectors to a uniform radial grid of dG=0.02 with 432 points.
    5S    l: 0   occupation:  2.0   eigenvalue: -0.982388
    5P    l: 1   occupation:  6.0   eigenvalue: -0.496786
    6S    l: 0   occupation:  1.0   eigenvalue: -0.076670
  Transforming atomic orbitals to a uniform radial grid of dG=0.02 with 432 points.
  Core radius for overlap checks: 2.06 bohrs.
  Reading pulay file /home/gridsan/aligho/DFT/build-Nov24/pseudopotentials/SG15/Cs_ONCV_PBE.pulay ... using dE_dnG = -1.008762e-04 computed for Ecut = 20.

Initialized 1 species with 1 total atoms.

Folded 1 k-points by 12x12x1 to 144 k-points.

---------- Setting up k-points, bands, fillings ----------
Reduced to 19 k-points under symmetry. 
Computing the number of bands and number of electrons
Calculating initial fillings.
nElectrons:   9.000000   nBands: 6   nStates: 38

----- Setting up reduced wavefunction bases (one per k-point) -----
average nbasis = 29766.104 , ideal nbasis = 29766.845

---------- Setting up coulomb interaction ----------
Initialized slab truncation along lattice direction 001

---------- Setting up 2D ewald sum ----------
Optimum gaussian width for ewald sums = 7.873530 bohr.
Real space sums over 289 unit cells with max indices [  8  8  0  ]
Reciprocal space sums over 81 terms with max indices [  4  4  0  ]

---------- Allocating electronic variables ----------
Initializing wave functions:  linear combination of atomic orbitals
Note: number of bands (6) exceeds available atomic orbitals (5)
Cs pseudo-atom occupations:   s ( 2 1 )  p ( 6 )
[c-16-3-4:84710] 18 more processes have sent help message help-mpi-common-cuda.txt / dlopen failed
[c-16-3-4:84710] Set MCA parameter "orte_base_help_aggregate" to 0 to see all help / error messages
[c-16-3-4:84710] 18 more processes have sent help message help-mpi-btl-openib-cpc-base.txt / no cpcs for port
	FillingsUpdate:  mu: -0.079217079  nElectrons: 9.000000  magneticMoment: [ Abs: 0.44000  Tot: +0.44000 ]
LCAOMinimize: Iter:   0  F: -20.1741425843568827  |grad|_K:  2.000e-05  alpha:  1.000e+00
	FillingsUpdate:  mu: -0.079212964  nElectrons: 9.000000  magneticMoment: [ Abs: 0.44000  Tot: +0.44000 ]
LCAOMinimize: Iter:   1  F: -20.1741428542548036  |grad|_K:  1.284e-07  alpha:  9.869e-01  linmin: -2.905e-02  cgtest:  5.351e-01  t[s]:      8.83
LCAOMinimize: Encountered beta<0, resetting CG.
	FillingsUpdate:  mu: -0.079212965  nElectrons: 9.000000  magneticMoment: [ Abs: 0.44000  Tot: +0.44000 ]
LCAOMinimize: Iter:   2  F: -20.1741428542660763  |grad|_K:  7.245e-09  alpha:  1.057e+00  linmin:  6.612e-02  cgtest: -9.998e-01  t[s]:     11.17
LCAOMinimize: Converged (|Delta F|<1.000000e-06 for 2 iters).


---- Citations for features of the code used in this run ----

   Software package:
      R. Sundararaman, K. Letchworth-Weaver, K.A. Schwarz, D. Gunceler, Y. Ozhabes and T.A. Arias, 'JDFTx: software for joint density-functional theory', SoftwareX 6, 278 (2017)

   gga-PBE exchange-correlation functional:
      J.P. Perdew, K. Burke and M. Ernzerhof, Phys. Rev. Lett. 77, 3865 (1996)

   Pseudopotentials:
      M Schlipf and F Gygi, Comput. Phys. Commun. 196, 36 (2015)

   Truncated Coulomb potentials:
      R. Sundararaman and T.A. Arias, Phys. Rev. B 87, 165122 (2013)

This list may not be complete. Please suggest additional citations or
report any other bugs at https://github.com/shankar1729/jdftx/issues

Initialization completed successfully at t[s]:     11.34


-------- Electronic minimization -----------
Will mix electronic density at each iteration.
	FillingsUpdate:  mu: -0.079212965  nElectrons: 9.000000  magneticMoment: [ Abs: 0.44000  Tot: +0.44000 ]
	FillingsUpdate:  mu: -0.082203933  nElectrons: 9.000000  magneticMoment: [ Abs: 0.44000  Tot: +0.44000 ]
SCF: Cycle:  0   F: -20.176608376176663   dF: -2.466e-03   |Residual|: 5.030e-03   |deigs|: 1.732e-01  t[s]:     16.17
	FillingsUpdate:  mu: -0.082471439  nElectrons: 9.000000  magneticMoment: [ Abs: 0.44000  Tot: +0.44000 ]
SCF: Cycle:  1   F: -20.176749345421541   dF: -1.410e-04   |Residual|: 4.360e-03   |deigs|: 5.007e-03  t[s]:     19.92
	FillingsUpdate:  mu: -0.082632139  nElectrons: 9.000000  magneticMoment: [ Abs: 0.44202  Tot: +0.44000 ]
SCF: Cycle:  2   F: -20.176830680921185   dF: -8.134e-05   |Residual|: 2.881e-03   |deigs|: 2.342e-03  t[s]:     23.79
	FillingsUpdate:  mu: -0.082714865  nElectrons: 9.000000  magneticMoment: [ Abs: 0.44220  Tot: +0.44000 ]
SCF: Cycle:  3   F: -20.176863764963386   dF: -3.308e-05   |Residual|: 1.982e-03   |deigs|: 1.471e-03  t[s]:     27.70
	FillingsUpdate:  mu: -0.082552883  nElectrons: 9.000000  magneticMoment: [ Abs: 0.44021  Tot: +0.44000 ]
SCF: Cycle:  4   F: -20.176881729950171   dF: -1.796e-05   |Residual|: 1.031e-03   |deigs|: 1.017e-03  t[s]:     31.71
	FillingsUpdate:  mu: -0.082456706  nElectrons: 9.000000  magneticMoment: [ Abs: 0.44039  Tot: +0.44000 ]
SCF: Cycle:  5   F: -20.176893065777332   dF: -1.134e-05   |Residual|: 7.446e-04   |deigs|: 9.447e-04  t[s]:     35.77
	FillingsUpdate:  mu: -0.082215812  nElectrons: 9.000000  magneticMoment: [ Abs: 0.44060  Tot: +0.44000 ]
SCF: Cycle:  6   F: -20.176898802295383   dF: -5.737e-06   |Residual|: 5.774e-04   |deigs|: 5.348e-04  t[s]:     39.85
	FillingsUpdate:  mu: -0.081825162  nElectrons: 9.000000  magneticMoment: [ Abs: 0.44153  Tot: +0.44000 ]
SCF: Cycle:  7   F: -20.176899530674795   dF: -7.284e-07   |Residual|: 4.957e-04   |deigs|: 8.950e-04  t[s]:     43.99
	FillingsUpdate:  mu: -0.081175200  nElectrons: 9.000000  magneticMoment: [ Abs: 0.44316  Tot: +0.44000 ]
SCF: Cycle:  8   F: -20.176896394773387   dF: +3.136e-06   |Residual|: 3.856e-04   |deigs|: 8.752e-04  t[s]:     48.26
	FillingsUpdate:  mu: -0.080497811  nElectrons: 9.000000  magneticMoment: [ Abs: 0.44269  Tot: +0.44000 ]
SCF: Cycle:  9   F: -20.176897249484899   dF: -8.547e-07   |Residual|: 3.566e-04   |deigs|: 8.490e-04  t[s]:     52.60
	FillingsUpdate:  mu: -0.080427198  nElectrons: 9.000000  magneticMoment: [ Abs: 0.44197  Tot: +0.44000 ]
SCF: Cycle: 10   F: -20.176901025856417   dF: -3.776e-06   |Residual|: 2.760e-04   |deigs|: 1.225e-03  t[s]:     56.95
	FillingsUpdate:  mu: -0.080121144  nElectrons: 9.000000  magneticMoment: [ Abs: 0.44315  Tot: +0.44000 ]
SCF: Cycle: 11   F: -20.176902570165840   dF: -1.544e-06   |Residual|: 2.475e-04   |deigs|: 6.018e-04  t[s]:     61.34
	FillingsUpdate:  mu: -0.079564368  nElectrons: 9.000000  magneticMoment: [ Abs: 0.44293  Tot: +0.44000 ]
SCF: Cycle: 12   F: -20.176901637392067   dF: +9.328e-07   |Residual|: 2.400e-04   |deigs|: 8.396e-04  t[s]:     65.64
	FillingsUpdate:  mu: -0.079038182  nElectrons: 9.000000  magneticMoment: [ Abs: 0.44143  Tot: +0.44000 ]
SCF: Cycle: 13   F: -20.176900856349484   dF: +7.810e-07   |Residual|: 2.315e-04   |deigs|: 5.752e-04  t[s]:     69.98
	FillingsUpdate:  mu: -0.078795148  nElectrons: 9.000000  magneticMoment: [ Abs: 0.44184  Tot: +0.44000 ]
SCF: Cycle: 14   F: -20.176902586576226   dF: -1.730e-06   |Residual|: 2.080e-04   |deigs|: 2.908e-04  t[s]:     74.34
	FillingsUpdate:  mu: -0.078513529  nElectrons: 9.000000  magneticMoment: [ Abs: 0.44182  Tot: +0.44000 ]
SCF: Cycle: 15   F: -20.176905155871957   dF: -2.569e-06   |Residual|: 1.606e-04   |deigs|: 3.244e-04  t[s]:     78.67
	FillingsUpdate:  mu: -0.078250351  nElectrons: 9.000000  magneticMoment: [ Abs: 0.44107  Tot: +0.44000 ]
SCF: Cycle: 16   F: -20.176906706795290   dF: -1.551e-06   |Residual|: 1.088e-04   |deigs|: 2.907e-04  t[s]:     82.94
	FillingsUpdate:  mu: -0.078194165  nElectrons: 9.000000  magneticMoment: [ Abs: 0.44062  Tot: +0.44000 ]
SCF: Cycle: 17   F: -20.176906982553128   dF: -2.758e-07   |Residual|: 8.388e-05   |deigs|: 2.226e-04  t[s]:     87.26
	FillingsUpdate:  mu: -0.078184027  nElectrons: 9.000000  magneticMoment: [ Abs: 0.44055  Tot: +0.44000 ]
SCF: Cycle: 18   F: -20.176907326295414   dF: -3.437e-07   |Residual|: 5.196e-05   |deigs|: 1.740e-04  t[s]:     91.64
	FillingsUpdate:  mu: -0.078210895  nElectrons: 9.000000  magneticMoment: [ Abs: 0.44064  Tot: +0.44000 ]
SCF: Cycle: 19   F: -20.176907452993927   dF: -1.267e-07   |Residual|: 2.897e-05   |deigs|: 8.770e-05  t[s]:     95.97
	FillingsUpdate:  mu: -0.078210046  nElectrons: 9.000000  magneticMoment: [ Abs: 0.44061  Tot: +0.44000 ]
SCF: Cycle: 20   F: -20.176907476211451   dF: -2.322e-08   |Residual|: 1.975e-05   |deigs|: 9.268e-05  t[s]:    100.32
	FillingsUpdate:  mu: -0.078214525  nElectrons: 9.000000  magneticMoment: [ Abs: 0.44064  Tot: +0.44000 ]
SCF: Cycle: 21   F: -20.176907494171846   dF: -1.796e-08   |Residual|: 1.167e-05   |deigs|: 7.120e-05  t[s]:    104.65
	FillingsUpdate:  mu: -0.078214968  nElectrons: 9.000000  magneticMoment: [ Abs: 0.44066  Tot: +0.44000 ]
SCF: Cycle: 22   F: -20.176907500312815   dF: -6.141e-09   |Residual|: 8.989e-06   |deigs|: 3.055e-05  t[s]:    108.99
	FillingsUpdate:  mu: -0.078215024  nElectrons: 9.000000  magneticMoment: [ Abs: 0.44065  Tot: +0.44000 ]
SCF: Cycle: 23   F: -20.176907503574000   dF: -3.261e-09   |Residual|: 4.723e-06   |deigs|: 2.946e-05  t[s]:    113.32
SCF: Converged (|Delta E|<1.000000e-08 for 2 iters).


# Ionic positions in lattice coordinates:
ion Cs   0.000000000000000   0.000000000000000   0.000000000000000 0

# Forces in Lattice coordinates:
force Cs   0.000000000000000   0.000000000000000   0.000000000000000 0

# Energy components:
   Eewald =      -12.0320174002217755
       EH =        4.0151216515302401
     Eloc =      -17.5846216007291751
      Enl =        3.4317991744483614
   Epulay =       -0.0000000107257212
      Exc =       -3.1091509275931850
       KE =        5.1019624684129763
-------------------------------------
     Etot =      -20.1769066448782795
       TS =        0.0000008586957218
-------------------------------------
        F =      -20.1769075035740002

IonicMinimize: Iter:   0  F: -20.176907503574000  |grad|_K:  0.000e+00  t[s]:    113.58
IonicMinimize: Converged (|grad|_K<1.000000e-04).

#--- Lowdin population analysis ---
# oxidation-state Cs +0.056
# magnetic-moments Cs +0.395

End date and time: Sun Feb  6 13:31:34 2022  (Duration: 0-0:01:53.63)
Done!
scale=4
magnetization=0.44
--------------------------------------------------------------------------
The library attempted to open the following supporting CUDA libraries,
but each of them failed.  CUDA-aware support is disabled.
libcuda.so.1: cannot open shared object file: No such file or directory
libcuda.dylib: cannot open shared object file: No such file or directory
/usr/lib64/libcuda.so.1: cannot open shared object file: No such file or directory
/usr/lib64/libcuda.dylib: cannot open shared object file: No such file or directory
If you are not interested in CUDA-aware support, then run with
--mca opal_warn_on_missing_libcuda 0 to suppress this message.  If you are interested
in CUDA-aware support, then try setting LD_LIBRARY_PATH to the location
of libcuda.so.1 to get passed this issue.
--------------------------------------------------------------------------
--------------------------------------------------------------------------
No OpenFabrics connection schemes reported that they were able to be
used on a specific port.  As such, the openib BTL (OpenFabrics
support) will be disabled for this port.

  Local host:           c-16-3-4
  Local device:         mlx5_1
  Local port:           1
  CPCs attempted:       rdmacm, udcm
--------------------------------------------------------------------------

*************** JDFTx 1.6.0 (git hash 42ebbcc2) ***************

Start date and time: Sun Feb  6 13:31:35 2022
Executable jdftx with command-line: -i Alkali.in
Running on hosts (process indices):  c-16-3-4 (0-18)
Divided in process groups (process indices):  0 (0)  1 (1)  2 (2)  3 (3)  4 (4)  5 (5)  6 (6)  7 (7)  8 (8)  9 (9)  10 (10)  11 (11)  12 (12)  13 (13)  14 (14)  15 (15)  16 (16)  17 (17)  18 (18)
Resource initialization completed at t[s]:      0.00
Run totals: 19 processes, 48 threads, 0 GPUs


Input parsed successfully to the following command list (including defaults):

basis kpoint-dependent
coords-type Lattice
core-overlap-check vector
coulomb-interaction Slab 001
davidson-band-ratio 1.1
dump End None
dump-name $INPUT.$VAR
elec-cutoff 20
elec-eigen-algo Davidson
elec-ex-corr gga-PBE
elec-initial-magnetization 0.440000 yes
elec-smearing Fermi 1e-05
electronic-minimize  \
	dirUpdateScheme      FletcherReeves \
	linminMethod         DirUpdateRecommended \
	nIterations          100 \
	history              15 \
	knormThreshold       0 \
	energyDiffThreshold  1e-08 \
	nEnergyDiff          2 \
	alphaTstart          1 \
	alphaTmin            1e-10 \
	updateTestStepSize   yes \
	alphaTreduceFactor   0.1 \
	alphaTincreaseFactor 3 \
	nAlphaAdjustMax      3 \
	wolfeEnergy          0.0001 \
	wolfeGradient        0.9 \
	fdTest               no
electronic-scf  \
	nIterations	10000 \
	energyDiffThreshold	1e-08 \
	residualThreshold	1e-07 \
	mixFraction	0.5 \
	qMetric	0.8 \
	history	10 \
	nEigSteps	2 \
	eigDiffThreshold	1e-08 \
	mixedVariable	Density \
	qKerker	0.8 \
	qKappa	-1 \
	verbose	no \
	mixFractionMag	1.5
exchange-regularization WignerSeitzTruncated
fluid None
fluid-ex-corr (null) lda-PZ
fluid-gummel-loop 10 1.000000e-05
fluid-minimize  \
	dirUpdateScheme      PolakRibiere \
	linminMethod         DirUpdateRecommended \
	nIterations          100 \
	history              15 \
	knormThreshold       0 \
	energyDiffThreshold  0 \
	nEnergyDiff          2 \
	alphaTstart          1 \
	alphaTmin            1e-10 \
	updateTestStepSize   yes \
	alphaTreduceFactor   0.1 \
	alphaTincreaseFactor 3 \
	nAlphaAdjustMax      3 \
	wolfeEnergy          0.0001 \
	wolfeGradient        0.9 \
	fdTest               no
fluid-solvent H2O 55.338 ScalarEOS \
	epsBulk 78.4 \
	pMol 0.92466 \
	epsInf 1.77 \
	Pvap 1.06736e-10 \
	sigmaBulk 4.62e-05 \
	Rvdw 2.61727 \
	Res 1.42 \
	tauNuc 343133 \
	poleEl 15 7 1
forces-output-coords Positions
ion Cs   0.000000000000000   0.000000000000000   0.000000000000000 0
ion-species SG15/$ID_ONCV_PBE.upf
ion-width 0
ionic-minimize  \
	dirUpdateScheme      L-BFGS \
	linminMethod         DirUpdateRecommended \
	nIterations          0 \
	history              15 \
	knormThreshold       0.0001 \
	energyDiffThreshold  1e-06 \
	nEnergyDiff          2 \
	alphaTstart          1 \
	alphaTmin            1e-10 \
	updateTestStepSize   yes \
	alphaTreduceFactor   0.1 \
	alphaTincreaseFactor 3 \
	nAlphaAdjustMax      3 \
	wolfeEnergy          0.0001 \
	wolfeGradient        0.9 \
	fdTest               no
kpoint   0.000000000000   0.000000000000   0.000000000000  1.00000000000000
kpoint-folding 12 12 1 
latt-move-scale 1 1 1
latt-scale 4 4 1 
lattice  \
	   4.727486978767153   -2.363743489383575    0.000000000000000  \
	  -0.000000000000000    4.094123819672498    0.000000000000000  \
	   0.000000000000000    0.000000000000000   40.000000000000000 
lattice-minimize  \
	dirUpdateScheme      L-BFGS \
	linminMethod         DirUpdateRecommended \
	nIterations          0 \
	history              15 \
	knormThreshold       0 \
	energyDiffThreshold  1e-06 \
	nEnergyDiff          2 \
	alphaTstart          1 \
	alphaTmin            1e-10 \
	updateTestStepSize   yes \
	alphaTreduceFactor   0.1 \
	alphaTincreaseFactor 3 \
	nAlphaAdjustMax      3 \
	wolfeEnergy          0.0001 \
	wolfeGradient        0.9 \
	fdTest               no
lcao-params -1 1e-06 1e-05
pcm-variant GLSSA13
spintype z-spin
subspace-rotation-factor 1 yes
symmetries automatic
symmetry-threshold 0.0001



---------- Setting up symmetries ----------

Found 24 point-group symmetries of the bravais lattice
Found 24 space-group symmetries with basis
Applied RMS atom displacement 0 bohrs to make symmetries exact.

---------- Initializing the Grid ----------
R = 
[      18.9099     -9.45497            0  ]
[            0      16.3765            0  ]
[            0            0           40  ]
unit cell volume = 12387.1
G =
[   0.332269   0.191835         -0  ]
[          0   0.383671         -0  ]
[         -0         -0    0.15708  ]
Minimum fftbox size, Smin = [  80  80  164  ]
Chosen fftbox size, S = [  80  80  168  ]

---------- Exchange Correlation functional ----------
Initalized PBE GGA exchange.
Initalized PBE GGA correlation.

---------- Setting up pseudopotentials ----------
Width of ionic core gaussian charges (only for fluid interactions / plotting) set to 0

Reading pseudopotential file '/home/gridsan/aligho/DFT/build-Nov24/pseudopotentials/SG15/Cs_ONCV_PBE.upf':
  'Cs' pseudopotential, 'PBE' functional
  Generated using ONCVPSP code by D. R. Hamann
  Author: Martin Schlipf and Francois Gygi  Date: 150915.
  9 valence electrons, 3 orbitals, 6 projectors, 2414 radial grid points, with lMax = 2
  Transforming local potential to a uniform radial grid of dG=0.02 with 1489 points.
  Transforming nonlocal projectors to a uniform radial grid of dG=0.02 with 432 points.
    5S    l: 0   occupation:  2.0   eigenvalue: -0.982388
    5P    l: 1   occupation:  6.0   eigenvalue: -0.496786
    6S    l: 0   occupation:  1.0   eigenvalue: -0.076670
  Transforming atomic orbitals to a uniform radial grid of dG=0.02 with 432 points.
  Core radius for overlap checks: 2.06 bohrs.
  Reading pulay file /home/gridsan/aligho/DFT/build-Nov24/pseudopotentials/SG15/Cs_ONCV_PBE.pulay ... using dE_dnG = -1.008762e-04 computed for Ecut = 20.

Initialized 1 species with 1 total atoms.

Folded 1 k-points by 12x12x1 to 144 k-points.

---------- Setting up k-points, bands, fillings ----------
Reduced to 19 k-points under symmetry. 
Computing the number of bands and number of electrons
Calculating initial fillings.
nElectrons:   9.000000   nBands: 6   nStates: 38

----- Setting up reduced wavefunction bases (one per k-point) -----
average nbasis = 52924.021 , ideal nbasis = 52918.836

---------- Setting up coulomb interaction ----------
Initialized slab truncation along lattice direction 001

---------- Setting up 2D ewald sum ----------
Optimum gaussian width for ewald sums = 10.498040 bohr.
Real space sums over 289 unit cells with max indices [  8  8  0  ]
Reciprocal space sums over 81 terms with max indices [  4  4  0  ]

---------- Allocating electronic variables ----------
Initializing wave functions:  linear combination of atomic orbitals
Note: number of bands (6) exceeds available atomic orbitals (5)
Cs pseudo-atom occupations:   s ( 2 1 )  p ( 6 )
[c-16-3-4:40457] 18 more processes have sent help message help-mpi-common-cuda.txt / dlopen failed
[c-16-3-4:40457] Set MCA parameter "orte_base_help_aggregate" to 0 to see all help / error messages
[c-16-3-4:40457] 18 more processes have sent help message help-mpi-btl-openib-cpc-base.txt / no cpcs for port
	FillingsUpdate:  mu: -0.077387608  nElectrons: 9.000000  magneticMoment: [ Abs: 0.44000  Tot: +0.44000 ]
LCAOMinimize: Iter:   0  F: -20.1681971562348643  |grad|_K:  6.356e-06  alpha:  1.000e+00
	FillingsUpdate:  mu: -0.077386293  nElectrons: 9.000000  magneticMoment: [ Abs: 0.44000  Tot: +0.44000 ]
LCAOMinimize: Iter:   1  F: -20.1681971836003164  |grad|_K:  3.139e-08  alpha:  9.902e-01  linmin: -7.972e-04  cgtest:  2.922e-01  t[s]:     15.22
LCAOMinimize: Encountered beta<0, resetting CG.
	FillingsUpdate:  mu: -0.077386293  nElectrons: 9.000000  magneticMoment: [ Abs: 0.44000  Tot: +0.44000 ]
LCAOMinimize: Iter:   2  F: -20.1681971836010909  |grad|_K:  1.285e-08  alpha:  1.409e+00  linmin:  3.046e-03  cgtest: -1.000e+00  t[s]:     19.21
LCAOMinimize: Converged (|Delta F|<1.000000e-06 for 2 iters).


---- Citations for features of the code used in this run ----

   Software package:
      R. Sundararaman, K. Letchworth-Weaver, K.A. Schwarz, D. Gunceler, Y. Ozhabes and T.A. Arias, 'JDFTx: software for joint density-functional theory', SoftwareX 6, 278 (2017)

   gga-PBE exchange-correlation functional:
      J.P. Perdew, K. Burke and M. Ernzerhof, Phys. Rev. Lett. 77, 3865 (1996)

   Pseudopotentials:
      M Schlipf and F Gygi, Comput. Phys. Commun. 196, 36 (2015)

   Truncated Coulomb potentials:
      R. Sundararaman and T.A. Arias, Phys. Rev. B 87, 165122 (2013)

This list may not be complete. Please suggest additional citations or
report any other bugs at https://github.com/shankar1729/jdftx/issues

Initialization completed successfully at t[s]:     19.48


-------- Electronic minimization -----------
Will mix electronic density at each iteration.
	FillingsUpdate:  mu: -0.077386293  nElectrons: 9.000000  magneticMoment: [ Abs: 0.44000  Tot: +0.44000 ]
	FillingsUpdate:  mu: -0.077580620  nElectrons: 9.000000  magneticMoment: [ Abs: 0.44000  Tot: +0.44000 ]
SCF: Cycle:  0   F: -20.168404582595581   dF: -2.074e-04   |Residual|: 1.154e-03   |deigs|: 1.748e-01  t[s]:     27.68
	FillingsUpdate:  mu: -0.077620530  nElectrons: 9.000000  magneticMoment: [ Abs: 0.44218  Tot: +0.44000 ]
SCF: Cycle:  1   F: -20.168412187177442   dF: -7.605e-06   |Residual|: 7.075e-04   |deigs|: 4.478e-03  t[s]:     34.17
	FillingsUpdate:  mu: -0.077665109  nElectrons: 9.000000  magneticMoment: [ Abs: 0.44231  Tot: +0.44000 ]
SCF: Cycle:  2   F: -20.168414732772344   dF: -2.546e-06   |Residual|: 5.773e-04   |deigs|: 1.231e-03  t[s]:     40.72
	FillingsUpdate:  mu: -0.077748629  nElectrons: 9.000000  magneticMoment: [ Abs: 0.44337  Tot: +0.44000 ]
SCF: Cycle:  3   F: -20.168416937089884   dF: -2.204e-06   |Residual|: 4.329e-04   |deigs|: 3.860e-04  t[s]:     47.47
	FillingsUpdate:  mu: -0.077839216  nElectrons: 9.000000  magneticMoment: [ Abs: 0.44321  Tot: +0.44000 ]
SCF: Cycle:  4   F: -20.168419510032717   dF: -2.573e-06   |Residual|: 2.968e-04   |deigs|: 4.749e-04  t[s]:     54.35
	FillingsUpdate:  mu: -0.077917130  nElectrons: 9.000000  magneticMoment: [ Abs: 0.44322  Tot: +0.44000 ]
SCF: Cycle:  5   F: -20.168421197088669   dF: -1.687e-06   |Residual|: 1.905e-04   |deigs|: 4.849e-04  t[s]:     61.24
	FillingsUpdate:  mu: -0.077924278  nElectrons: 9.000000  magneticMoment: [ Abs: 0.44331  Tot: +0.44000 ]
SCF: Cycle:  6   F: -20.168422131888136   dF: -9.348e-07   |Residual|: 1.320e-04   |deigs|: 5.828e-04  t[s]:     68.28
	FillingsUpdate:  mu: -0.077915710  nElectrons: 9.000000  magneticMoment: [ Abs: 0.44310  Tot: +0.44000 ]
SCF: Cycle:  7   F: -20.168422648534619   dF: -5.166e-07   |Residual|: 1.002e-04   |deigs|: 3.909e-04  t[s]:     75.44
	FillingsUpdate:  mu: -0.077883197  nElectrons: 9.000000  magneticMoment: [ Abs: 0.44302  Tot: +0.44000 ]
SCF: Cycle:  8   F: -20.168423003142539   dF: -3.546e-07   |Residual|: 7.742e-05   |deigs|: 2.919e-04  t[s]:     82.74
	FillingsUpdate:  mu: -0.077833165  nElectrons: 9.000000  magneticMoment: [ Abs: 0.44294  Tot: +0.44000 ]
SCF: Cycle:  9   F: -20.168423091991464   dF: -8.885e-08   |Residual|: 6.519e-05   |deigs|: 4.804e-04  t[s]:     90.12
	FillingsUpdate:  mu: -0.077787913  nElectrons: 9.000000  magneticMoment: [ Abs: 0.44305  Tot: +0.44000 ]
SCF: Cycle: 10   F: -20.168423085829200   dF: +6.162e-09   |Residual|: 5.632e-05   |deigs|: 3.073e-04  t[s]:     97.58
	FillingsUpdate:  mu: -0.077735814  nElectrons: 9.000000  magneticMoment: [ Abs: 0.44327  Tot: +0.44000 ]
SCF: Cycle: 11   F: -20.168423074709921   dF: +1.112e-08   |Residual|: 5.506e-05   |deigs|: 1.743e-04  t[s]:    105.00
	FillingsUpdate:  mu: -0.077673285  nElectrons: 9.000000  magneticMoment: [ Abs: 0.44324  Tot: +0.44000 ]
SCF: Cycle: 12   F: -20.168422748461595   dF: +3.262e-07   |Residual|: 5.096e-05   |deigs|: 1.545e-04  t[s]:    112.43
	FillingsUpdate:  mu: -0.077603316  nElectrons: 9.000000  magneticMoment: [ Abs: 0.44338  Tot: +0.44000 ]
SCF: Cycle: 13   F: -20.168422922691207   dF: -1.742e-07   |Residual|: 4.426e-05   |deigs|: 1.537e-04  t[s]:    119.91
	FillingsUpdate:  mu: -0.077565656  nElectrons: 9.000000  magneticMoment: [ Abs: 0.44344  Tot: +0.44000 ]
SCF: Cycle: 14   F: -20.168423121921954   dF: -1.992e-07   |Residual|: 3.860e-05   |deigs|: 1.127e-04  t[s]:    127.35
	FillingsUpdate:  mu: -0.077519309  nElectrons: 9.000000  magneticMoment: [ Abs: 0.44328  Tot: +0.44000 ]
SCF: Cycle: 15   F: -20.168423101725963   dF: +2.020e-08   |Residual|: 3.624e-05   |deigs|: 8.300e-05  t[s]:    134.85
	FillingsUpdate:  mu: -0.077458752  nElectrons: 9.000000  magneticMoment: [ Abs: 0.44309  Tot: +0.44000 ]
SCF: Cycle: 16   F: -20.168423003853345   dF: +9.787e-08   |Residual|: 3.394e-05   |deigs|: 1.131e-04  t[s]:    142.28
	FillingsUpdate:  mu: -0.077441046  nElectrons: 9.000000  magneticMoment: [ Abs: 0.44305  Tot: +0.44000 ]
SCF: Cycle: 17   F: -20.168423248243350   dF: -2.444e-07   |Residual|: 2.481e-05   |deigs|: 2.391e-04  t[s]:    149.74
	FillingsUpdate:  mu: -0.077438044  nElectrons: 9.000000  magneticMoment: [ Abs: 0.44292  Tot: +0.44000 ]
SCF: Cycle: 18   F: -20.168423234615272   dF: +1.363e-08   |Residual|: 2.019e-05   |deigs|: 2.068e-04  t[s]:    157.13
	FillingsUpdate:  mu: -0.077427819  nElectrons: 9.000000  magneticMoment: [ Abs: 0.44292  Tot: +0.44000 ]
SCF: Cycle: 19   F: -20.168423317376213   dF: -8.276e-08   |Residual|: 1.670e-05   |deigs|: 1.235e-04  t[s]:    164.57
	FillingsUpdate:  mu: -0.077421657  nElectrons: 9.000000  magneticMoment: [ Abs: 0.44292  Tot: +0.44000 ]
SCF: Cycle: 20   F: -20.168423332922661   dF: -1.555e-08   |Residual|: 1.225e-05   |deigs|: 6.194e-05  t[s]:    172.05
	FillingsUpdate:  mu: -0.077424051  nElectrons: 9.000000  magneticMoment: [ Abs: 0.44293  Tot: +0.44000 ]
SCF: Cycle: 21   F: -20.168423363068698   dF: -3.015e-08   |Residual|: 8.584e-06   |deigs|: 4.713e-05  t[s]:    179.52
	FillingsUpdate:  mu: -0.077424820  nElectrons: 9.000000  magneticMoment: [ Abs: 0.44294  Tot: +0.44000 ]
SCF: Cycle: 22   F: -20.168423367449929   dF: -4.381e-09   |Residual|: 5.626e-06   |deigs|: 3.654e-05  t[s]:    186.96
	FillingsUpdate:  mu: -0.077425789  nElectrons: 9.000000  magneticMoment: [ Abs: 0.44295  Tot: +0.44000 ]
SCF: Cycle: 23   F: -20.168423373788013   dF: -6.338e-09   |Residual|: 3.716e-06   |deigs|: 3.648e-05  t[s]:    194.36
SCF: Converged (|Delta E|<1.000000e-08 for 2 iters).


# Ionic positions in lattice coordinates:
ion Cs   0.000000000000000   0.000000000000000   0.000000000000000 0

# Forces in Lattice coordinates:
force Cs   0.000000000000000   0.000000000000000   0.000000000000000 0

# Energy components:
   Eewald =       -9.0240130501663280
       EH =        7.0106930840383912
     Eloc =      -23.5955237944379910
      Enl =        3.4368811356417068
   Epulay =        0.0000000422266766
      Exc =       -3.1065311596658320
       KE =        5.1100714583329765
-------------------------------------
     Etot =      -20.1684222840303988
       TS =        0.0000010897576140
-------------------------------------
        F =      -20.1684233737880128

IonicMinimize: Iter:   0  F: -20.168423373788013  |grad|_K:  0.000e+00  t[s]:    194.77
IonicMinimize: Converged (|grad|_K<1.000000e-04).

#--- Lowdin population analysis ---
# oxidation-state Cs +0.005
# magnetic-moments Cs +0.438

End date and time: Sun Feb  6 13:34:50 2022  (Duration: 0-0:03:14.84)
Done!
