The alkali metal is Cs
scale=2
magnetization=0.1
--------------------------------------------------------------------------
The library attempted to open the following supporting CUDA libraries,
but each of them failed.  CUDA-aware support is disabled.
libcuda.so.1: cannot open shared object file: No such file or directory
libcuda.dylib: cannot open shared object file: No such file or directory
/usr/lib64/libcuda.so.1: cannot open shared object file: No such file or directory
/usr/lib64/libcuda.dylib: cannot open shared object file: No such file or directory
If you are not interested in CUDA-aware support, then run with
--mca opal_warn_on_missing_libcuda 0 to suppress this message.  If you are interested
in CUDA-aware support, then try setting LD_LIBRARY_PATH to the location
of libcuda.so.1 to get passed this issue.
--------------------------------------------------------------------------
--------------------------------------------------------------------------
No OpenFabrics connection schemes reported that they were able to be
used on a specific port.  As such, the openib BTL (OpenFabrics
support) will be disabled for this port.

  Local host:           d-16-13-1
  Local device:         mlx5_1
  Local port:           1
  CPCs attempted:       rdmacm, udcm
--------------------------------------------------------------------------

*************** JDFTx 1.6.0 (git hash 42ebbcc2) ***************

Start date and time: Sun Feb  6 13:22:27 2022
Executable jdftx with command-line: -i Alkali.in
Running on hosts (process indices):  d-16-13-1 (0-18)
Divided in process groups (process indices):  0 (0)  1 (1)  2 (2)  3 (3)  4 (4)  5 (5)  6 (6)  7 (7)  8 (8)  9 (9)  10 (10)  11 (11)  12 (12)  13 (13)  14 (14)  15 (15)  16 (16)  17 (17)  18 (18)
Resource initialization completed at t[s]:      0.00
Run totals: 19 processes, 48 threads, 0 GPUs


Input parsed successfully to the following command list (including defaults):

basis kpoint-dependent
coords-type Lattice
core-overlap-check vector
coulomb-interaction Slab 001
davidson-band-ratio 1.1
dump End None
dump-name $INPUT.$VAR
elec-cutoff 20
elec-eigen-algo Davidson
elec-ex-corr gga-PBE
elec-initial-magnetization 0.100000 yes
elec-smearing Fermi 1e-05
electronic-minimize  \
	dirUpdateScheme      FletcherReeves \
	linminMethod         DirUpdateRecommended \
	nIterations          100 \
	history              15 \
	knormThreshold       0 \
	energyDiffThreshold  1e-08 \
	nEnergyDiff          2 \
	alphaTstart          1 \
	alphaTmin            1e-10 \
	updateTestStepSize   yes \
	alphaTreduceFactor   0.1 \
	alphaTincreaseFactor 3 \
	nAlphaAdjustMax      3 \
	wolfeEnergy          0.0001 \
	wolfeGradient        0.9 \
	fdTest               no
electronic-scf  \
	nIterations	10000 \
	energyDiffThreshold	1e-08 \
	residualThreshold	1e-07 \
	mixFraction	0.5 \
	qMetric	0.8 \
	history	10 \
	nEigSteps	2 \
	eigDiffThreshold	1e-08 \
	mixedVariable	Density \
	qKerker	0.8 \
	qKappa	-1 \
	verbose	no \
	mixFractionMag	1.5
exchange-regularization WignerSeitzTruncated
fluid None
fluid-ex-corr (null) lda-PZ
fluid-gummel-loop 10 1.000000e-05
fluid-minimize  \
	dirUpdateScheme      PolakRibiere \
	linminMethod         DirUpdateRecommended \
	nIterations          100 \
	history              15 \
	knormThreshold       0 \
	energyDiffThreshold  0 \
	nEnergyDiff          2 \
	alphaTstart          1 \
	alphaTmin            1e-10 \
	updateTestStepSize   yes \
	alphaTreduceFactor   0.1 \
	alphaTincreaseFactor 3 \
	nAlphaAdjustMax      3 \
	wolfeEnergy          0.0001 \
	wolfeGradient        0.9 \
	fdTest               no
fluid-solvent H2O 55.338 ScalarEOS \
	epsBulk 78.4 \
	pMol 0.92466 \
	epsInf 1.77 \
	Pvap 1.06736e-10 \
	sigmaBulk 4.62e-05 \
	Rvdw 2.61727 \
	Res 1.42 \
	tauNuc 343133 \
	poleEl 15 7 1
forces-output-coords Positions
ion Cs   0.000000000000000   0.000000000000000   0.000000000000000 0
ion-species SG15/$ID_ONCV_PBE.upf
ion-width 0
ionic-minimize  \
	dirUpdateScheme      L-BFGS \
	linminMethod         DirUpdateRecommended \
	nIterations          0 \
	history              15 \
	knormThreshold       0.0001 \
	energyDiffThreshold  1e-06 \
	nEnergyDiff          2 \
	alphaTstart          1 \
	alphaTmin            1e-10 \
	updateTestStepSize   yes \
	alphaTreduceFactor   0.1 \
	alphaTincreaseFactor 3 \
	nAlphaAdjustMax      3 \
	wolfeEnergy          0.0001 \
	wolfeGradient        0.9 \
	fdTest               no
kpoint   0.000000000000   0.000000000000   0.000000000000  1.00000000000000
kpoint-folding 12 12 1 
latt-move-scale 1 1 1
latt-scale 2 2 1 
lattice  \
	   4.727486978767153   -2.363743489383575    0.000000000000000  \
	  -0.000000000000000    4.094123819672498    0.000000000000000  \
	   0.000000000000000    0.000000000000000   40.000000000000000 
lattice-minimize  \
	dirUpdateScheme      L-BFGS \
	linminMethod         DirUpdateRecommended \
	nIterations          0 \
	history              15 \
	knormThreshold       0 \
	energyDiffThreshold  1e-06 \
	nEnergyDiff          2 \
	alphaTstart          1 \
	alphaTmin            1e-10 \
	updateTestStepSize   yes \
	alphaTreduceFactor   0.1 \
	alphaTincreaseFactor 3 \
	nAlphaAdjustMax      3 \
	wolfeEnergy          0.0001 \
	wolfeGradient        0.9 \
	fdTest               no
lcao-params -1 1e-06 1e-05
pcm-variant GLSSA13
spintype z-spin
subspace-rotation-factor 1 yes
symmetries automatic
symmetry-threshold 0.0001



---------- Setting up symmetries ----------

Found 24 point-group symmetries of the bravais lattice
Found 24 space-group symmetries with basis
Applied RMS atom displacement 0 bohrs to make symmetries exact.

---------- Initializing the Grid ----------
R = 
[      9.45497     -4.72749            0  ]
[            0      8.18825            0  ]
[            0            0           40  ]
unit cell volume = 3096.79
G =
[   0.664538   0.383671         -0  ]
[          0   0.767342         -0  ]
[         -0         -0    0.15708  ]
Minimum fftbox size, Smin = [  40  40  164  ]
Chosen fftbox size, S = [  40  40  168  ]

---------- Exchange Correlation functional ----------
Initalized PBE GGA exchange.
Initalized PBE GGA correlation.

---------- Setting up pseudopotentials ----------
Width of ionic core gaussian charges (only for fluid interactions / plotting) set to 0

Reading pseudopotential file '/home/gridsan/aligho/DFT/build-Nov24/pseudopotentials/SG15/Cs_ONCV_PBE.upf':
  'Cs' pseudopotential, 'PBE' functional
  Generated using ONCVPSP code by D. R. Hamann
  Author: Martin Schlipf and Francois Gygi  Date: 150915.
  9 valence electrons, 3 orbitals, 6 projectors, 2414 radial grid points, with lMax = 2
  Transforming local potential to a uniform radial grid of dG=0.02 with 1489 points.
  Transforming nonlocal projectors to a uniform radial grid of dG=0.02 with 432 points.
    5S    l: 0   occupation:  2.0   eigenvalue: -0.982388
    5P    l: 1   occupation:  6.0   eigenvalue: -0.496786
    6S    l: 0   occupation:  1.0   eigenvalue: -0.076670
  Transforming atomic orbitals to a uniform radial grid of dG=0.02 with 432 points.
  Core radius for overlap checks: 2.06 bohrs.
  Reading pulay file /home/gridsan/aligho/DFT/build-Nov24/pseudopotentials/SG15/Cs_ONCV_PBE.pulay ... using dE_dnG = -1.008762e-04 computed for Ecut = 20.

Initialized 1 species with 1 total atoms.

Folded 1 k-points by 12x12x1 to 144 k-points.

---------- Setting up k-points, bands, fillings ----------
Reduced to 19 k-points under symmetry. 
Computing the number of bands and number of electrons
Calculating initial fillings.
nElectrons:   9.000000   nBands: 6   nStates: 38

----- Setting up reduced wavefunction bases (one per k-point) -----
average nbasis = 13230.521 , ideal nbasis = 13229.709

---------- Setting up coulomb interaction ----------
Initialized slab truncation along lattice direction 001

---------- Setting up 2D ewald sum ----------
Optimum gaussian width for ewald sums = 5.249020 bohr.
Real space sums over 289 unit cells with max indices [  8  8  0  ]
Reciprocal space sums over 81 terms with max indices [  4  4  0  ]

---------- Allocating electronic variables ----------
Initializing wave functions:  linear combination of atomic orbitals
Note: number of bands (6) exceeds available atomic orbitals (5)
Cs pseudo-atom occupations:   s ( 2 1 )  p ( 6 )
	FillingsUpdate:  mu: -0.091497620  nElectrons: 9.000000  magneticMoment: [ Abs: 0.10000  Tot: +0.10000 ]
LCAOMinimize: Iter:   0  F: -20.1824812673686935  |grad|_K:  4.263e-05  alpha:  1.000e+00
	FillingsUpdate:  mu: -0.091479427  nElectrons: 9.000000  magneticMoment: [ Abs: 0.10000  Tot: +0.10000 ]
LCAOMinimize: Iter:   1  F: -20.1824824822859696  |grad|_K:  4.554e-07  alpha:  9.776e-01  linmin: -4.658e-02  cgtest:  3.633e-01  t[s]:      4.60
LCAOMinimize: Encountered beta<0, resetting CG.
[d-16-13-1:29288] 18 more processes have sent help message help-mpi-common-cuda.txt / dlopen failed
[d-16-13-1:29288] Set MCA parameter "orte_base_help_aggregate" to 0 to see all help / error messages
[d-16-13-1:29288] 18 more processes have sent help message help-mpi-btl-openib-cpc-base.txt / no cpcs for port
	FillingsUpdate:  mu: -0.091479575  nElectrons: 9.000000  magneticMoment: [ Abs: 0.10000  Tot: +0.10000 ]
LCAOMinimize: Iter:   2  F: -20.1824824824280178  |grad|_K:  1.821e-09  alpha:  9.979e-01  linmin: -1.342e-01  cgtest:  7.814e-01  t[s]:      5.80
LCAOMinimize: Encountered beta<0, resetting CG.
	FillingsUpdate:  mu: -0.091479575  nElectrons: 9.000000  magneticMoment: [ Abs: 0.10000  Tot: +0.10000 ]
LCAOMinimize: Iter:   3  F: -20.1824824824281031  |grad|_K:  1.748e-09  alpha:  3.973e-02  linmin: -5.217e-02  cgtest:  1.000e+00  t[s]:      6.98
LCAOMinimize: Encountered beta<0, resetting CG.
LCAOMinimize: Converged (|Delta F|<1.000000e-06 for 2 iters).


---- Citations for features of the code used in this run ----

   Software package:
      R. Sundararaman, K. Letchworth-Weaver, K.A. Schwarz, D. Gunceler, Y. Ozhabes and T.A. Arias, 'JDFTx: software for joint density-functional theory', SoftwareX 6, 278 (2017)

   gga-PBE exchange-correlation functional:
      J.P. Perdew, K. Burke and M. Ernzerhof, Phys. Rev. Lett. 77, 3865 (1996)

   Pseudopotentials:
      M Schlipf and F Gygi, Comput. Phys. Commun. 196, 36 (2015)

   Truncated Coulomb potentials:
      R. Sundararaman and T.A. Arias, Phys. Rev. B 87, 165122 (2013)

This list may not be complete. Please suggest additional citations or
report any other bugs at https://github.com/shankar1729/jdftx/issues

Initialization completed successfully at t[s]:      7.08


-------- Electronic minimization -----------
Will mix electronic density at each iteration.
	FillingsUpdate:  mu: -0.091479575  nElectrons: 9.000000  magneticMoment: [ Abs: 0.10000  Tot: +0.10000 ]
	FillingsUpdate:  mu: -0.100675468  nElectrons: 9.000000  magneticMoment: [ Abs: 0.10000  Tot: +0.10000 ]
SCF: Cycle:  0   F: -20.186982628622427   dF: -4.500e-03   |Residual|: 1.137e-02   |deigs|: 1.882e-01  t[s]:      9.47
	FillingsUpdate:  mu: -0.100809575  nElectrons: 9.000000  magneticMoment: [ Abs: 0.10000  Tot: +0.10000 ]
SCF: Cycle:  1   F: -20.187337277932709   dF: -3.546e-04   |Residual|: 9.570e-03   |deigs|: 4.516e-03  t[s]:     11.34
	FillingsUpdate:  mu: -0.096494807  nElectrons: 9.000000  magneticMoment: [ Abs: 0.10730  Tot: +0.10000 ]
SCF: Cycle:  2   F: -20.187655048427882   dF: -3.178e-04   |Residual|: 4.452e-03   |deigs|: 3.936e-03  t[s]:     13.22
	FillingsUpdate:  mu: -0.096959690  nElectrons: 9.000000  magneticMoment: [ Abs: 0.10000  Tot: +0.10000 ]
SCF: Cycle:  3   F: -20.187755887133751   dF: -1.008e-04   |Residual|: 3.587e-03   |deigs|: 1.510e-03  t[s]:     15.12
	FillingsUpdate:  mu: -0.093932799  nElectrons: 9.000000  magneticMoment: [ Abs: 0.10113  Tot: +0.10000 ]
SCF: Cycle:  4   F: -20.187834124409324   dF: -7.824e-05   |Residual|: 2.373e-03   |deigs|: 3.839e-03  t[s]:     17.09
	FillingsUpdate:  mu: -0.091721145  nElectrons: 9.000000  magneticMoment: [ Abs: 0.10160  Tot: +0.10000 ]
SCF: Cycle:  5   F: -20.187875417765490   dF: -4.129e-05   |Residual|: 1.870e-03   |deigs|: 2.653e-03  t[s]:     19.02
	FillingsUpdate:  mu: -0.089247628  nElectrons: 9.000000  magneticMoment: [ Abs: 0.10342  Tot: +0.10000 ]
SCF: Cycle:  6   F: -20.187892966560664   dF: -1.755e-05   |Residual|: 1.471e-03   |deigs|: 2.924e-03  t[s]:     20.99
	FillingsUpdate:  mu: -0.088328034  nElectrons: 9.000000  magneticMoment: [ Abs: 0.10198  Tot: +0.10000 ]
SCF: Cycle:  7   F: -20.187914192372492   dF: -2.123e-05   |Residual|: 1.216e-03   |deigs|: 1.260e-03  t[s]:     22.95
	FillingsUpdate:  mu: -0.086634565  nElectrons: 9.000000  magneticMoment: [ Abs: 0.10097  Tot: +0.10000 ]
SCF: Cycle:  8   F: -20.187928383805918   dF: -1.419e-05   |Residual|: 9.736e-04   |deigs|: 1.600e-03  t[s]:     24.94
	FillingsUpdate:  mu: -0.085106460  nElectrons: 9.000000  magneticMoment: [ Abs: 0.10162  Tot: +0.10000 ]
SCF: Cycle:  9   F: -20.187908489812180   dF: +1.989e-05   |Residual|: 1.044e-03   |deigs|: 1.599e-03  t[s]:     26.98
	FillingsUpdate:  mu: -0.082710698  nElectrons: 9.000000  magneticMoment: [ Abs: 0.10195  Tot: +0.10000 ]
SCF: Cycle: 10   F: -20.187921144590881   dF: -1.265e-05   |Residual|: 8.616e-04   |deigs|: 2.572e-03  t[s]:     29.08
	FillingsUpdate:  mu: -0.081665225  nElectrons: 9.000000  magneticMoment: [ Abs: 0.10116  Tot: +0.10000 ]
SCF: Cycle: 11   F: -20.187949851027234   dF: -2.871e-05   |Residual|: 6.785e-04   |deigs|: 1.046e-03  t[s]:     31.24
	FillingsUpdate:  mu: -0.080480012  nElectrons: 9.000000  magneticMoment: [ Abs: 0.10117  Tot: +0.10000 ]
SCF: Cycle: 12   F: -20.187965430751749   dF: -1.558e-05   |Residual|: 6.340e-04   |deigs|: 1.140e-03  t[s]:     33.26
	FillingsUpdate:  mu: -0.078204559  nElectrons: 9.000000  magneticMoment: [ Abs: 0.10065  Tot: +0.10000 ]
SCF: Cycle: 13   F: -20.187976062467250   dF: -1.063e-05   |Residual|: 5.423e-04   |deigs|: 2.371e-03  t[s]:     35.26
	FillingsUpdate:  mu: -0.076910109  nElectrons: 9.000000  magneticMoment: [ Abs: 0.10078  Tot: +0.10000 ]
SCF: Cycle: 14   F: -20.187982629327333   dF: -6.567e-06   |Residual|: 4.322e-04   |deigs|: 1.453e-03  t[s]:     37.36
	FillingsUpdate:  mu: -0.076806969  nElectrons: 9.000000  magneticMoment: [ Abs: 0.10059  Tot: +0.10000 ]
SCF: Cycle: 15   F: -20.187985454861398   dF: -2.826e-06   |Residual|: 3.170e-04   |deigs|: 1.457e-03  t[s]:     39.38
	FillingsUpdate:  mu: -0.076472710  nElectrons: 9.000000  magneticMoment: [ Abs: 0.10024  Tot: +0.10000 ]
SCF: Cycle: 16   F: -20.187988148534782   dF: -2.694e-06   |Residual|: 2.093e-04   |deigs|: 6.042e-04  t[s]:     41.43
	FillingsUpdate:  mu: -0.076465473  nElectrons: 9.000000  magneticMoment: [ Abs: 0.10010  Tot: +0.10000 ]
SCF: Cycle: 17   F: -20.187988852300258   dF: -7.038e-07   |Residual|: 9.692e-05   |deigs|: 2.702e-04  t[s]:     43.58
	FillingsUpdate:  mu: -0.076514450  nElectrons: 9.000000  magneticMoment: [ Abs: 0.10006  Tot: +0.10000 ]
SCF: Cycle: 18   F: -20.187989012050661   dF: -1.598e-07   |Residual|: 5.617e-05   |deigs|: 1.482e-04  t[s]:     45.70
	FillingsUpdate:  mu: -0.076508901  nElectrons: 9.000000  magneticMoment: [ Abs: 0.10004  Tot: +0.10000 ]
SCF: Cycle: 19   F: -20.187989114811661   dF: -1.028e-07   |Residual|: 3.408e-05   |deigs|: 5.210e-05  t[s]:     47.80
	FillingsUpdate:  mu: -0.076546837  nElectrons: 9.000000  magneticMoment: [ Abs: 0.10005  Tot: +0.10000 ]
SCF: Cycle: 20   F: -20.187989148393651   dF: -3.358e-08   |Residual|: 2.216e-05   |deigs|: 5.662e-05  t[s]:     49.90
	FillingsUpdate:  mu: -0.076565190  nElectrons: 9.000000  magneticMoment: [ Abs: 0.10006  Tot: +0.10000 ]
SCF: Cycle: 21   F: -20.187989163345431   dF: -1.495e-08   |Residual|: 9.354e-06   |deigs|: 1.941e-04  t[s]:     52.04
	FillingsUpdate:  mu: -0.076563204  nElectrons: 9.000000  magneticMoment: [ Abs: 0.10007  Tot: +0.10000 ]
SCF: Cycle: 22   F: -20.187989171484169   dF: -8.139e-09   |Residual|: 4.886e-06   |deigs|: 3.175e-04  t[s]:     54.14
	FillingsUpdate:  mu: -0.076561563  nElectrons: 9.000000  magneticMoment: [ Abs: 0.10007  Tot: +0.10000 ]
SCF: Cycle: 23   F: -20.187989176706719   dF: -5.223e-09   |Residual|: 4.841e-06   |deigs|: 5.639e-05  t[s]:     56.20
SCF: Converged (|Delta E|<1.000000e-08 for 2 iters).


# Ionic positions in lattice coordinates:
ion Cs   0.000000000000000   0.000000000000000   0.000000000000000 0

# Forces in Lattice coordinates:
force Cs   0.000000000000000  -0.000000000000000   0.000000000000000 0

# Energy components:
   Eewald =      -18.0480261003326561
       EH =       -1.8411589038917786
     Eloc =       -5.7437849946312252
      Enl =        3.4432568558842069
   Epulay =        0.0000000264484078
      Exc =       -3.1433952190890455
       KE =        5.1451202563410599
-------------------------------------
     Etot =      -20.1879880792710296
       TS =        0.0000010974356905
-------------------------------------
        F =      -20.1879891767067186

IonicMinimize: Iter:   0  F: -20.187989176706719  |grad|_K:  0.000e+00  t[s]:     56.32
IonicMinimize: Converged (|grad|_K<1.000000e-04).

#--- Lowdin population analysis ---
# oxidation-state Cs +0.044
# magnetic-moments Cs +0.089

End date and time: Sun Feb  6 13:23:24 2022  (Duration: 0-0:00:56.35)
Done!
scale=3
magnetization=0.1
--------------------------------------------------------------------------
The library attempted to open the following supporting CUDA libraries,
but each of them failed.  CUDA-aware support is disabled.
libcuda.so.1: cannot open shared object file: No such file or directory
libcuda.dylib: cannot open shared object file: No such file or directory
/usr/lib64/libcuda.so.1: cannot open shared object file: No such file or directory
/usr/lib64/libcuda.dylib: cannot open shared object file: No such file or directory
If you are not interested in CUDA-aware support, then run with
--mca opal_warn_on_missing_libcuda 0 to suppress this message.  If you are interested
in CUDA-aware support, then try setting LD_LIBRARY_PATH to the location
of libcuda.so.1 to get passed this issue.
--------------------------------------------------------------------------
--------------------------------------------------------------------------
No OpenFabrics connection schemes reported that they were able to be
used on a specific port.  As such, the openib BTL (OpenFabrics
support) will be disabled for this port.

  Local host:           d-16-13-1
  Local device:         mlx5_1
  Local port:           1
  CPCs attempted:       rdmacm, udcm
--------------------------------------------------------------------------

*************** JDFTx 1.6.0 (git hash 42ebbcc2) ***************

Start date and time: Sun Feb  6 13:23:25 2022
Executable jdftx with command-line: -i Alkali.in
Running on hosts (process indices):  d-16-13-1 (0-18)
Divided in process groups (process indices):  0 (0)  1 (1)  2 (2)  3 (3)  4 (4)  5 (5)  6 (6)  7 (7)  8 (8)  9 (9)  10 (10)  11 (11)  12 (12)  13 (13)  14 (14)  15 (15)  16 (16)  17 (17)  18 (18)
Resource initialization completed at t[s]:      0.00
Run totals: 19 processes, 48 threads, 0 GPUs


Input parsed successfully to the following command list (including defaults):

basis kpoint-dependent
coords-type Lattice
core-overlap-check vector
coulomb-interaction Slab 001
davidson-band-ratio 1.1
dump End None
dump-name $INPUT.$VAR
elec-cutoff 20
elec-eigen-algo Davidson
elec-ex-corr gga-PBE
elec-initial-magnetization 0.100000 yes
elec-smearing Fermi 1e-05
electronic-minimize  \
	dirUpdateScheme      FletcherReeves \
	linminMethod         DirUpdateRecommended \
	nIterations          100 \
	history              15 \
	knormThreshold       0 \
	energyDiffThreshold  1e-08 \
	nEnergyDiff          2 \
	alphaTstart          1 \
	alphaTmin            1e-10 \
	updateTestStepSize   yes \
	alphaTreduceFactor   0.1 \
	alphaTincreaseFactor 3 \
	nAlphaAdjustMax      3 \
	wolfeEnergy          0.0001 \
	wolfeGradient        0.9 \
	fdTest               no
electronic-scf  \
	nIterations	10000 \
	energyDiffThreshold	1e-08 \
	residualThreshold	1e-07 \
	mixFraction	0.5 \
	qMetric	0.8 \
	history	10 \
	nEigSteps	2 \
	eigDiffThreshold	1e-08 \
	mixedVariable	Density \
	qKerker	0.8 \
	qKappa	-1 \
	verbose	no \
	mixFractionMag	1.5
exchange-regularization WignerSeitzTruncated
fluid None
fluid-ex-corr (null) lda-PZ
fluid-gummel-loop 10 1.000000e-05
fluid-minimize  \
	dirUpdateScheme      PolakRibiere \
	linminMethod         DirUpdateRecommended \
	nIterations          100 \
	history              15 \
	knormThreshold       0 \
	energyDiffThreshold  0 \
	nEnergyDiff          2 \
	alphaTstart          1 \
	alphaTmin            1e-10 \
	updateTestStepSize   yes \
	alphaTreduceFactor   0.1 \
	alphaTincreaseFactor 3 \
	nAlphaAdjustMax      3 \
	wolfeEnergy          0.0001 \
	wolfeGradient        0.9 \
	fdTest               no
fluid-solvent H2O 55.338 ScalarEOS \
	epsBulk 78.4 \
	pMol 0.92466 \
	epsInf 1.77 \
	Pvap 1.06736e-10 \
	sigmaBulk 4.62e-05 \
	Rvdw 2.61727 \
	Res 1.42 \
	tauNuc 343133 \
	poleEl 15 7 1
forces-output-coords Positions
ion Cs   0.000000000000000   0.000000000000000   0.000000000000000 0
ion-species SG15/$ID_ONCV_PBE.upf
ion-width 0
ionic-minimize  \
	dirUpdateScheme      L-BFGS \
	linminMethod         DirUpdateRecommended \
	nIterations          0 \
	history              15 \
	knormThreshold       0.0001 \
	energyDiffThreshold  1e-06 \
	nEnergyDiff          2 \
	alphaTstart          1 \
	alphaTmin            1e-10 \
	updateTestStepSize   yes \
	alphaTreduceFactor   0.1 \
	alphaTincreaseFactor 3 \
	nAlphaAdjustMax      3 \
	wolfeEnergy          0.0001 \
	wolfeGradient        0.9 \
	fdTest               no
kpoint   0.000000000000   0.000000000000   0.000000000000  1.00000000000000
kpoint-folding 12 12 1 
latt-move-scale 1 1 1
latt-scale 3 3 1 
lattice  \
	   4.727486978767153   -2.363743489383575    0.000000000000000  \
	  -0.000000000000000    4.094123819672498    0.000000000000000  \
	   0.000000000000000    0.000000000000000   40.000000000000000 
lattice-minimize  \
	dirUpdateScheme      L-BFGS \
	linminMethod         DirUpdateRecommended \
	nIterations          0 \
	history              15 \
	knormThreshold       0 \
	energyDiffThreshold  1e-06 \
	nEnergyDiff          2 \
	alphaTstart          1 \
	alphaTmin            1e-10 \
	updateTestStepSize   yes \
	alphaTreduceFactor   0.1 \
	alphaTincreaseFactor 3 \
	nAlphaAdjustMax      3 \
	wolfeEnergy          0.0001 \
	wolfeGradient        0.9 \
	fdTest               no
lcao-params -1 1e-06 1e-05
pcm-variant GLSSA13
spintype z-spin
subspace-rotation-factor 1 yes
symmetries automatic
symmetry-threshold 0.0001



---------- Setting up symmetries ----------

Found 24 point-group symmetries of the bravais lattice
Found 24 space-group symmetries with basis
Applied RMS atom displacement 0 bohrs to make symmetries exact.

---------- Initializing the Grid ----------
R = 
[      14.1825     -7.09123            0  ]
[            0      12.2824            0  ]
[            0            0           40  ]
unit cell volume = 6967.77
G =
[   0.443025   0.255781         -0  ]
[          0   0.511561         -0  ]
[         -0         -0    0.15708  ]
Minimum fftbox size, Smin = [  60  60  164  ]
Chosen fftbox size, S = [  60  60  168  ]

---------- Exchange Correlation functional ----------
Initalized PBE GGA exchange.
Initalized PBE GGA correlation.

---------- Setting up pseudopotentials ----------
Width of ionic core gaussian charges (only for fluid interactions / plotting) set to 0

Reading pseudopotential file '/home/gridsan/aligho/DFT/build-Nov24/pseudopotentials/SG15/Cs_ONCV_PBE.upf':
  'Cs' pseudopotential, 'PBE' functional
  Generated using ONCVPSP code by D. R. Hamann
  Author: Martin Schlipf and Francois Gygi  Date: 150915.
  9 valence electrons, 3 orbitals, 6 projectors, 2414 radial grid points, with lMax = 2
  Transforming local potential to a uniform radial grid of dG=0.02 with 1489 points.
  Transforming nonlocal projectors to a uniform radial grid of dG=0.02 with 432 points.
    5S    l: 0   occupation:  2.0   eigenvalue: -0.982388
    5P    l: 1   occupation:  6.0   eigenvalue: -0.496786
    6S    l: 0   occupation:  1.0   eigenvalue: -0.076670
  Transforming atomic orbitals to a uniform radial grid of dG=0.02 with 432 points.
  Core radius for overlap checks: 2.06 bohrs.
  Reading pulay file /home/gridsan/aligho/DFT/build-Nov24/pseudopotentials/SG15/Cs_ONCV_PBE.pulay ... using dE_dnG = -1.008762e-04 computed for Ecut = 20.

Initialized 1 species with 1 total atoms.

Folded 1 k-points by 12x12x1 to 144 k-points.

---------- Setting up k-points, bands, fillings ----------
Reduced to 19 k-points under symmetry. 
Computing the number of bands and number of electrons
Calculating initial fillings.
nElectrons:   9.000000   nBands: 6   nStates: 38

----- Setting up reduced wavefunction bases (one per k-point) -----
average nbasis = 29766.104 , ideal nbasis = 29766.845

---------- Setting up coulomb interaction ----------
Initialized slab truncation along lattice direction 001

---------- Setting up 2D ewald sum ----------
Optimum gaussian width for ewald sums = 7.873530 bohr.
Real space sums over 289 unit cells with max indices [  8  8  0  ]
Reciprocal space sums over 81 terms with max indices [  4  4  0  ]

---------- Allocating electronic variables ----------
Initializing wave functions:  linear combination of atomic orbitals
Note: number of bands (6) exceeds available atomic orbitals (5)
Cs pseudo-atom occupations:   s ( 2 1 )  p ( 6 )
[d-16-13-1:56999] 18 more processes have sent help message help-mpi-common-cuda.txt / dlopen failed
[d-16-13-1:56999] Set MCA parameter "orte_base_help_aggregate" to 0 to see all help / error messages
[d-16-13-1:56999] 18 more processes have sent help message help-mpi-btl-openib-cpc-base.txt / no cpcs for port
	FillingsUpdate:  mu: -0.078528013  nElectrons: 9.000000  magneticMoment: [ Abs: 0.10000  Tot: +0.10000 ]
LCAOMinimize: Iter:   0  F: -20.1753393605771087  |grad|_K:  2.552e-05  alpha:  1.000e+00
	FillingsUpdate:  mu: -0.078522087  nElectrons: 9.000000  magneticMoment: [ Abs: 0.10000  Tot: +0.10000 ]
LCAOMinimize: Iter:   1  F: -20.1753397994028845  |grad|_K:  1.804e-07  alpha:  9.849e-01  linmin: -3.471e-02  cgtest:  6.553e-01  t[s]:      8.85
LCAOMinimize: Encountered beta<0, resetting CG.
	FillingsUpdate:  mu: -0.078522072  nElectrons: 9.000000  magneticMoment: [ Abs: 0.10000  Tot: +0.10000 ]
LCAOMinimize: Iter:   2  F: -20.1753397994250498  |grad|_K:  1.341e-09  alpha:  1.006e+00  linmin:  5.394e-02  cgtest: -8.838e-01  t[s]:     11.26
LCAOMinimize: Converged (|Delta F|<1.000000e-06 for 2 iters).


---- Citations for features of the code used in this run ----

   Software package:
      R. Sundararaman, K. Letchworth-Weaver, K.A. Schwarz, D. Gunceler, Y. Ozhabes and T.A. Arias, 'JDFTx: software for joint density-functional theory', SoftwareX 6, 278 (2017)

   gga-PBE exchange-correlation functional:
      J.P. Perdew, K. Burke and M. Ernzerhof, Phys. Rev. Lett. 77, 3865 (1996)

   Pseudopotentials:
      M Schlipf and F Gygi, Comput. Phys. Commun. 196, 36 (2015)

   Truncated Coulomb potentials:
      R. Sundararaman and T.A. Arias, Phys. Rev. B 87, 165122 (2013)

This list may not be complete. Please suggest additional citations or
report any other bugs at https://github.com/shankar1729/jdftx/issues

Initialization completed successfully at t[s]:     11.43


-------- Electronic minimization -----------
Will mix electronic density at each iteration.
	FillingsUpdate:  mu: -0.078522072  nElectrons: 9.000000  magneticMoment: [ Abs: 0.10000  Tot: +0.10000 ]
	FillingsUpdate:  mu: -0.082238420  nElectrons: 9.000000  magneticMoment: [ Abs: 0.10000  Tot: +0.10000 ]
SCF: Cycle:  0   F: -20.177712243525360   dF: -2.372e-03   |Residual|: 4.345e-03   |deigs|: 1.730e-01  t[s]:     16.26
	FillingsUpdate:  mu: -0.082527986  nElectrons: 9.000000  magneticMoment: [ Abs: 0.10000  Tot: +0.10000 ]
SCF: Cycle:  1   F: -20.177789399210990   dF: -7.716e-05   |Residual|: 3.888e-03   |deigs|: 4.780e-03  t[s]:     20.06
	FillingsUpdate:  mu: -0.083034123  nElectrons: 9.000000  magneticMoment: [ Abs: 0.10346  Tot: +0.10000 ]
SCF: Cycle:  2   F: -20.177854611498883   dF: -6.521e-05   |Residual|: 1.614e-03   |deigs|: 3.314e-03  t[s]:     23.90
	FillingsUpdate:  mu: -0.082899601  nElectrons: 9.000000  magneticMoment: [ Abs: 0.10072  Tot: +0.10000 ]
SCF: Cycle:  3   F: -20.177877782728135   dF: -2.317e-05   |Residual|: 1.156e-03   |deigs|: 1.596e-03  t[s]:     27.81
	FillingsUpdate:  mu: -0.082665248  nElectrons: 9.000000  magneticMoment: [ Abs: 0.10012  Tot: +0.10000 ]
SCF: Cycle:  4   F: -20.177886087830235   dF: -8.305e-06   |Residual|: 7.365e-04   |deigs|: 5.895e-04  t[s]:     31.75
	FillingsUpdate:  mu: -0.082402095  nElectrons: 9.000000  magneticMoment: [ Abs: 0.10018  Tot: +0.10000 ]
SCF: Cycle:  5   F: -20.177890521402478   dF: -4.434e-06   |Residual|: 6.287e-04   |deigs|: 6.541e-04  t[s]:     35.78
	FillingsUpdate:  mu: -0.081740327  nElectrons: 9.000000  magneticMoment: [ Abs: 0.10181  Tot: +0.10000 ]
SCF: Cycle:  6   F: -20.177891240287668   dF: -7.189e-07   |Residual|: 4.984e-04   |deigs|: 9.805e-04  t[s]:     39.85
	FillingsUpdate:  mu: -0.081372999  nElectrons: 9.000000  magneticMoment: [ Abs: 0.10152  Tot: +0.10000 ]
SCF: Cycle:  7   F: -20.177890768582710   dF: +4.717e-07   |Residual|: 4.239e-04   |deigs|: 7.018e-04  t[s]:     43.98
	FillingsUpdate:  mu: -0.080874477  nElectrons: 9.000000  magneticMoment: [ Abs: 0.10093  Tot: +0.10000 ]
SCF: Cycle:  8   F: -20.177892411832691   dF: -1.643e-06   |Residual|: 3.453e-04   |deigs|: 1.078e-03  t[s]:     48.18
	FillingsUpdate:  mu: -0.080628588  nElectrons: 9.000000  magneticMoment: [ Abs: 0.10057  Tot: +0.10000 ]
SCF: Cycle:  9   F: -20.177893579799882   dF: -1.168e-06   |Residual|: 3.048e-04   |deigs|: 7.229e-04  t[s]:     52.47
	FillingsUpdate:  mu: -0.080171959  nElectrons: 9.000000  magneticMoment: [ Abs: 0.10118  Tot: +0.10000 ]
SCF: Cycle: 10   F: -20.177894174897265   dF: -5.951e-07   |Residual|: 2.614e-04   |deigs|: 7.163e-04  t[s]:     56.83
	FillingsUpdate:  mu: -0.079692372  nElectrons: 9.000000  magneticMoment: [ Abs: 0.10119  Tot: +0.10000 ]
SCF: Cycle: 11   F: -20.177892855067729   dF: +1.320e-06   |Residual|: 2.374e-04   |deigs|: 5.858e-04  t[s]:     61.14
	FillingsUpdate:  mu: -0.079311592  nElectrons: 9.000000  magneticMoment: [ Abs: 0.10066  Tot: +0.10000 ]
SCF: Cycle: 12   F: -20.177892468935536   dF: +3.861e-07   |Residual|: 2.358e-04   |deigs|: 5.034e-04  t[s]:     65.45
	FillingsUpdate:  mu: -0.078973954  nElectrons: 9.000000  magneticMoment: [ Abs: 0.10038  Tot: +0.10000 ]
SCF: Cycle: 13   F: -20.177893969441133   dF: -1.501e-06   |Residual|: 2.169e-04   |deigs|: 6.191e-04  t[s]:     69.71
	FillingsUpdate:  mu: -0.078701651  nElectrons: 9.000000  magneticMoment: [ Abs: 0.10097  Tot: +0.10000 ]
SCF: Cycle: 14   F: -20.177897214628977   dF: -3.245e-06   |Residual|: 1.610e-04   |deigs|: 4.533e-04  t[s]:     74.10
	FillingsUpdate:  mu: -0.078492025  nElectrons: 9.000000  magneticMoment: [ Abs: 0.10060  Tot: +0.10000 ]
SCF: Cycle: 15   F: -20.177898390407865   dF: -1.176e-06   |Residual|: 1.254e-04   |deigs|: 2.362e-04  t[s]:     78.36
	FillingsUpdate:  mu: -0.078370681  nElectrons: 9.000000  magneticMoment: [ Abs: 0.10020  Tot: +0.10000 ]
SCF: Cycle: 16   F: -20.177899016620486   dF: -6.262e-07   |Residual|: 7.183e-05   |deigs|: 1.808e-04  t[s]:     82.64
	FillingsUpdate:  mu: -0.078358551  nElectrons: 9.000000  magneticMoment: [ Abs: 0.10015  Tot: +0.10000 ]
SCF: Cycle: 17   F: -20.177899245910996   dF: -2.293e-07   |Residual|: 4.336e-05   |deigs|: 1.347e-04  t[s]:     87.03
	FillingsUpdate:  mu: -0.078359349  nElectrons: 9.000000  magneticMoment: [ Abs: 0.10011  Tot: +0.10000 ]
SCF: Cycle: 18   F: -20.177899323540412   dF: -7.763e-08   |Residual|: 3.002e-05   |deigs|: 1.037e-04  t[s]:     91.35
	FillingsUpdate:  mu: -0.078368164  nElectrons: 9.000000  magneticMoment: [ Abs: 0.10012  Tot: +0.10000 ]
SCF: Cycle: 19   F: -20.177899376377749   dF: -5.284e-08   |Residual|: 1.578e-05   |deigs|: 5.395e-05  t[s]:     95.66
	FillingsUpdate:  mu: -0.078373112  nElectrons: 9.000000  magneticMoment: [ Abs: 0.10012  Tot: +0.10000 ]
SCF: Cycle: 20   F: -20.177899395347900   dF: -1.897e-08   |Residual|: 8.487e-06   |deigs|: 3.450e-05  t[s]:     99.98
	FillingsUpdate:  mu: -0.078377917  nElectrons: 9.000000  magneticMoment: [ Abs: 0.10013  Tot: +0.10000 ]
SCF: Cycle: 21   F: -20.177899400558548   dF: -5.211e-09   |Residual|: 7.814e-06   |deigs|: 3.318e-05  t[s]:    104.31
	FillingsUpdate:  mu: -0.078379350  nElectrons: 9.000000  magneticMoment: [ Abs: 0.10013  Tot: +0.10000 ]
SCF: Cycle: 22   F: -20.177899403125405   dF: -2.567e-09   |Residual|: 8.694e-06   |deigs|: 3.068e-05  t[s]:    108.49
SCF: Converged (|Delta E|<1.000000e-08 for 2 iters).


# Ionic positions in lattice coordinates:
ion Cs   0.000000000000000   0.000000000000000   0.000000000000000 0

# Forces in Lattice coordinates:
force Cs   0.000000000000000   0.000000000000000   0.000000000000000 0

# Energy components:
   Eewald =      -12.0320174002217755
       EH =        4.0103880492815085
     Eloc =      -17.5794163188995327
      Enl =        3.4316673964832307
   Epulay =       -0.0000000107257212
      Exc =       -3.1080743024573216
       KE =        5.0995542808498939
-------------------------------------
     Etot =      -20.1778983056897161
       TS =        0.0000010974356905
-------------------------------------
        F =      -20.1778994031254051

IonicMinimize: Iter:   0  F: -20.177899403125405  |grad|_K:  0.000e+00  t[s]:    108.75
IonicMinimize: Converged (|grad|_K<1.000000e-04).

#--- Lowdin population analysis ---
# oxidation-state Cs +0.041
# magnetic-moments Cs +0.090

End date and time: Sun Feb  6 13:25:14 2022  (Duration: 0-0:01:48.79)
Done!
scale=4
magnetization=0.1
--------------------------------------------------------------------------
The library attempted to open the following supporting CUDA libraries,
but each of them failed.  CUDA-aware support is disabled.
libcuda.so.1: cannot open shared object file: No such file or directory
libcuda.dylib: cannot open shared object file: No such file or directory
/usr/lib64/libcuda.so.1: cannot open shared object file: No such file or directory
/usr/lib64/libcuda.dylib: cannot open shared object file: No such file or directory
If you are not interested in CUDA-aware support, then run with
--mca opal_warn_on_missing_libcuda 0 to suppress this message.  If you are interested
in CUDA-aware support, then try setting LD_LIBRARY_PATH to the location
of libcuda.so.1 to get passed this issue.
--------------------------------------------------------------------------
--------------------------------------------------------------------------
No OpenFabrics connection schemes reported that they were able to be
used on a specific port.  As such, the openib BTL (OpenFabrics
support) will be disabled for this port.

  Local host:           d-16-13-1
  Local device:         mlx5_1
  Local port:           1
  CPCs attempted:       rdmacm, udcm
--------------------------------------------------------------------------

*************** JDFTx 1.6.0 (git hash 42ebbcc2) ***************

Start date and time: Sun Feb  6 13:25:15 2022
Executable jdftx with command-line: -i Alkali.in
Running on hosts (process indices):  d-16-13-1 (0-18)
Divided in process groups (process indices):  0 (0)  1 (1)  2 (2)  3 (3)  4 (4)  5 (5)  6 (6)  7 (7)  8 (8)  9 (9)  10 (10)  11 (11)  12 (12)  13 (13)  14 (14)  15 (15)  16 (16)  17 (17)  18 (18)
Resource initialization completed at t[s]:      0.00
Run totals: 19 processes, 48 threads, 0 GPUs


Input parsed successfully to the following command list (including defaults):

basis kpoint-dependent
coords-type Lattice
core-overlap-check vector
coulomb-interaction Slab 001
davidson-band-ratio 1.1
dump End None
dump-name $INPUT.$VAR
elec-cutoff 20
elec-eigen-algo Davidson
elec-ex-corr gga-PBE
elec-initial-magnetization 0.100000 yes
elec-smearing Fermi 1e-05
electronic-minimize  \
	dirUpdateScheme      FletcherReeves \
	linminMethod         DirUpdateRecommended \
	nIterations          100 \
	history              15 \
	knormThreshold       0 \
	energyDiffThreshold  1e-08 \
	nEnergyDiff          2 \
	alphaTstart          1 \
	alphaTmin            1e-10 \
	updateTestStepSize   yes \
	alphaTreduceFactor   0.1 \
	alphaTincreaseFactor 3 \
	nAlphaAdjustMax      3 \
	wolfeEnergy          0.0001 \
	wolfeGradient        0.9 \
	fdTest               no
electronic-scf  \
	nIterations	10000 \
	energyDiffThreshold	1e-08 \
	residualThreshold	1e-07 \
	mixFraction	0.5 \
	qMetric	0.8 \
	history	10 \
	nEigSteps	2 \
	eigDiffThreshold	1e-08 \
	mixedVariable	Density \
	qKerker	0.8 \
	qKappa	-1 \
	verbose	no \
	mixFractionMag	1.5
exchange-regularization WignerSeitzTruncated
fluid None
fluid-ex-corr (null) lda-PZ
fluid-gummel-loop 10 1.000000e-05
fluid-minimize  \
	dirUpdateScheme      PolakRibiere \
	linminMethod         DirUpdateRecommended \
	nIterations          100 \
	history              15 \
	knormThreshold       0 \
	energyDiffThreshold  0 \
	nEnergyDiff          2 \
	alphaTstart          1 \
	alphaTmin            1e-10 \
	updateTestStepSize   yes \
	alphaTreduceFactor   0.1 \
	alphaTincreaseFactor 3 \
	nAlphaAdjustMax      3 \
	wolfeEnergy          0.0001 \
	wolfeGradient        0.9 \
	fdTest               no
fluid-solvent H2O 55.338 ScalarEOS \
	epsBulk 78.4 \
	pMol 0.92466 \
	epsInf 1.77 \
	Pvap 1.06736e-10 \
	sigmaBulk 4.62e-05 \
	Rvdw 2.61727 \
	Res 1.42 \
	tauNuc 343133 \
	poleEl 15 7 1
forces-output-coords Positions
ion Cs   0.000000000000000   0.000000000000000   0.000000000000000 0
ion-species SG15/$ID_ONCV_PBE.upf
ion-width 0
ionic-minimize  \
	dirUpdateScheme      L-BFGS \
	linminMethod         DirUpdateRecommended \
	nIterations          0 \
	history              15 \
	knormThreshold       0.0001 \
	energyDiffThreshold  1e-06 \
	nEnergyDiff          2 \
	alphaTstart          1 \
	alphaTmin            1e-10 \
	updateTestStepSize   yes \
	alphaTreduceFactor   0.1 \
	alphaTincreaseFactor 3 \
	nAlphaAdjustMax      3 \
	wolfeEnergy          0.0001 \
	wolfeGradient        0.9 \
	fdTest               no
kpoint   0.000000000000   0.000000000000   0.000000000000  1.00000000000000
kpoint-folding 12 12 1 
latt-move-scale 1 1 1
latt-scale 4 4 1 
lattice  \
	   4.727486978767153   -2.363743489383575    0.000000000000000  \
	  -0.000000000000000    4.094123819672498    0.000000000000000  \
	   0.000000000000000    0.000000000000000   40.000000000000000 
lattice-minimize  \
	dirUpdateScheme      L-BFGS \
	linminMethod         DirUpdateRecommended \
	nIterations          0 \
	history              15 \
	knormThreshold       0 \
	energyDiffThreshold  1e-06 \
	nEnergyDiff          2 \
	alphaTstart          1 \
	alphaTmin            1e-10 \
	updateTestStepSize   yes \
	alphaTreduceFactor   0.1 \
	alphaTincreaseFactor 3 \
	nAlphaAdjustMax      3 \
	wolfeEnergy          0.0001 \
	wolfeGradient        0.9 \
	fdTest               no
lcao-params -1 1e-06 1e-05
pcm-variant GLSSA13
spintype z-spin
subspace-rotation-factor 1 yes
symmetries automatic
symmetry-threshold 0.0001



---------- Setting up symmetries ----------

Found 24 point-group symmetries of the bravais lattice
Found 24 space-group symmetries with basis
Applied RMS atom displacement 0 bohrs to make symmetries exact.

---------- Initializing the Grid ----------
R = 
[      18.9099     -9.45497            0  ]
[            0      16.3765            0  ]
[            0            0           40  ]
unit cell volume = 12387.1
G =
[   0.332269   0.191835         -0  ]
[          0   0.383671         -0  ]
[         -0         -0    0.15708  ]
Minimum fftbox size, Smin = [  80  80  164  ]
Chosen fftbox size, S = [  80  80  168  ]

---------- Exchange Correlation functional ----------
Initalized PBE GGA exchange.
Initalized PBE GGA correlation.

---------- Setting up pseudopotentials ----------
Width of ionic core gaussian charges (only for fluid interactions / plotting) set to 0

Reading pseudopotential file '/home/gridsan/aligho/DFT/build-Nov24/pseudopotentials/SG15/Cs_ONCV_PBE.upf':
  'Cs' pseudopotential, 'PBE' functional
  Generated using ONCVPSP code by D. R. Hamann
  Author: Martin Schlipf and Francois Gygi  Date: 150915.
  9 valence electrons, 3 orbitals, 6 projectors, 2414 radial grid points, with lMax = 2
  Transforming local potential to a uniform radial grid of dG=0.02 with 1489 points.
  Transforming nonlocal projectors to a uniform radial grid of dG=0.02 with 432 points.
    5S    l: 0   occupation:  2.0   eigenvalue: -0.982388
    5P    l: 1   occupation:  6.0   eigenvalue: -0.496786
    6S    l: 0   occupation:  1.0   eigenvalue: -0.076670
  Transforming atomic orbitals to a uniform radial grid of dG=0.02 with 432 points.
  Core radius for overlap checks: 2.06 bohrs.
  Reading pulay file /home/gridsan/aligho/DFT/build-Nov24/pseudopotentials/SG15/Cs_ONCV_PBE.pulay ... using dE_dnG = -1.008762e-04 computed for Ecut = 20.

Initialized 1 species with 1 total atoms.

Folded 1 k-points by 12x12x1 to 144 k-points.

---------- Setting up k-points, bands, fillings ----------
Reduced to 19 k-points under symmetry. 
Computing the number of bands and number of electrons
Calculating initial fillings.
nElectrons:   9.000000   nBands: 6   nStates: 38

----- Setting up reduced wavefunction bases (one per k-point) -----
average nbasis = 52924.021 , ideal nbasis = 52918.836

---------- Setting up coulomb interaction ----------
Initialized slab truncation along lattice direction 001

---------- Setting up 2D ewald sum ----------
Optimum gaussian width for ewald sums = 10.498040 bohr.
Real space sums over 289 unit cells with max indices [  8  8  0  ]
Reciprocal space sums over 81 terms with max indices [  4  4  0  ]

---------- Allocating electronic variables ----------
Initializing wave functions:  linear combination of atomic orbitals
Note: number of bands (6) exceeds available atomic orbitals (5)
Cs pseudo-atom occupations:   s ( 2 1 )  p ( 6 )
[d-16-13-1:94434] 18 more processes have sent help message help-mpi-common-cuda.txt / dlopen failed
[d-16-13-1:94434] Set MCA parameter "orte_base_help_aggregate" to 0 to see all help / error messages
[d-16-13-1:94434] 18 more processes have sent help message help-mpi-btl-openib-cpc-base.txt / no cpcs for port
	FillingsUpdate:  mu: -0.077217117  nElectrons: 9.000000  magneticMoment: [ Abs: 0.10000  Tot: +0.10000 ]
LCAOMinimize: Iter:   0  F: -20.1678385081266534  |grad|_K:  7.750e-06  alpha:  1.000e+00
	FillingsUpdate:  mu: -0.077215507  nElectrons: 9.000000  magneticMoment: [ Abs: 0.10000  Tot: +0.10000 ]
LCAOMinimize: Iter:   1  F: -20.1678385487518277  |grad|_K:  3.834e-08  alpha:  9.889e-01  linmin: -1.428e-02  cgtest:  3.883e-01  t[s]:     15.14
LCAOMinimize: Encountered beta<0, resetting CG.
	FillingsUpdate:  mu: -0.077215505  nElectrons: 9.000000  magneticMoment: [ Abs: 0.10000  Tot: +0.10000 ]
LCAOMinimize: Iter:   2  F: -20.1678385487528189  |grad|_K:  5.484e-09  alpha:  1.144e+00  linmin:  3.173e-02  cgtest: -1.000e+00  t[s]:     19.12
LCAOMinimize: Converged (|Delta F|<1.000000e-06 for 2 iters).


---- Citations for features of the code used in this run ----

   Software package:
      R. Sundararaman, K. Letchworth-Weaver, K.A. Schwarz, D. Gunceler, Y. Ozhabes and T.A. Arias, 'JDFTx: software for joint density-functional theory', SoftwareX 6, 278 (2017)

   gga-PBE exchange-correlation functional:
      J.P. Perdew, K. Burke and M. Ernzerhof, Phys. Rev. Lett. 77, 3865 (1996)

   Pseudopotentials:
      M Schlipf and F Gygi, Comput. Phys. Commun. 196, 36 (2015)

   Truncated Coulomb potentials:
      R. Sundararaman and T.A. Arias, Phys. Rev. B 87, 165122 (2013)

This list may not be complete. Please suggest additional citations or
report any other bugs at https://github.com/shankar1729/jdftx/issues

Initialization completed successfully at t[s]:     19.38


-------- Electronic minimization -----------
Will mix electronic density at each iteration.
	FillingsUpdate:  mu: -0.077215505  nElectrons: 9.000000  magneticMoment: [ Abs: 0.10000  Tot: +0.10000 ]
	FillingsUpdate:  mu: -0.077450529  nElectrons: 9.000000  magneticMoment: [ Abs: 0.10000  Tot: +0.10000 ]
SCF: Cycle:  0   F: -20.168098381141679   dF: -2.598e-04   |Residual|: 9.939e-04   |deigs|: 1.754e-01  t[s]:     27.60
	FillingsUpdate:  mu: -0.077512955  nElectrons: 9.000000  magneticMoment: [ Abs: 0.10053  Tot: +0.10000 ]
SCF: Cycle:  1   F: -20.168105759739426   dF: -7.379e-06   |Residual|: 8.878e-04   |deigs|: 3.953e-03  t[s]:     34.11
	FillingsUpdate:  mu: -0.077629695  nElectrons: 9.000000  magneticMoment: [ Abs: 0.10040  Tot: +0.10000 ]
SCF: Cycle:  2   F: -20.168109670337547   dF: -3.911e-06   |Residual|: 6.938e-04   |deigs|: 7.386e-04  t[s]:     40.73
	FillingsUpdate:  mu: -0.077854773  nElectrons: 9.000000  magneticMoment: [ Abs: 0.10167  Tot: +0.10000 ]
SCF: Cycle:  3   F: -20.168115573907468   dF: -5.904e-06   |Residual|: 4.516e-04   |deigs|: 8.307e-04  t[s]:     47.45
	FillingsUpdate:  mu: -0.077952639  nElectrons: 9.000000  magneticMoment: [ Abs: 0.10078  Tot: +0.10000 ]
SCF: Cycle:  4   F: -20.168118490863478   dF: -2.917e-06   |Residual|: 2.875e-04   |deigs|: 9.798e-04  t[s]:     54.30
	FillingsUpdate:  mu: -0.078038205  nElectrons: 9.000000  magneticMoment: [ Abs: 0.10091  Tot: +0.10000 ]
SCF: Cycle:  5   F: -20.168120751761922   dF: -2.261e-06   |Residual|: 2.131e-04   |deigs|: 6.951e-04  t[s]:     61.22
	FillingsUpdate:  mu: -0.078008101  nElectrons: 9.000000  magneticMoment: [ Abs: 0.10093  Tot: +0.10000 ]
SCF: Cycle:  6   F: -20.168121670407981   dF: -9.186e-07   |Residual|: 1.374e-04   |deigs|: 2.822e-04  t[s]:     68.23
	FillingsUpdate:  mu: -0.077970896  nElectrons: 9.000000  magneticMoment: [ Abs: 0.10075  Tot: +0.10000 ]
SCF: Cycle:  7   F: -20.168122089373757   dF: -4.190e-07   |Residual|: 1.085e-04   |deigs|: 4.088e-04  t[s]:     75.34
	FillingsUpdate:  mu: -0.077930787  nElectrons: 9.000000  magneticMoment: [ Abs: 0.10065  Tot: +0.10000 ]
SCF: Cycle:  8   F: -20.168122308793389   dF: -2.194e-07   |Residual|: 7.970e-05   |deigs|: 3.885e-04  t[s]:     82.57
	FillingsUpdate:  mu: -0.077866661  nElectrons: 9.000000  magneticMoment: [ Abs: 0.10075  Tot: +0.10000 ]
SCF: Cycle:  9   F: -20.168122354682712   dF: -4.589e-08   |Residual|: 6.834e-05   |deigs|: 2.248e-04  t[s]:     90.00
	FillingsUpdate:  mu: -0.077822527  nElectrons: 9.000000  magneticMoment: [ Abs: 0.10080  Tot: +0.10000 ]
SCF: Cycle: 10   F: -20.168122378689876   dF: -2.401e-08   |Residual|: 6.518e-05   |deigs|: 1.397e-04  t[s]:     97.48
	FillingsUpdate:  mu: -0.077753574  nElectrons: 9.000000  magneticMoment: [ Abs: 0.10082  Tot: +0.10000 ]
SCF: Cycle: 11   F: -20.168122295392287   dF: +8.330e-08   |Residual|: 5.719e-05   |deigs|: 1.364e-04  t[s]:    105.00
	FillingsUpdate:  mu: -0.077684186  nElectrons: 9.000000  magneticMoment: [ Abs: 0.10088  Tot: +0.10000 ]
SCF: Cycle: 12   F: -20.168122296140819   dF: -7.485e-10   |Residual|: 5.186e-05   |deigs|: 2.464e-04  t[s]:    112.43
	FillingsUpdate:  mu: -0.077629767  nElectrons: 9.000000  magneticMoment: [ Abs: 0.10080  Tot: +0.10000 ]
SCF: Cycle: 13   F: -20.168122216380421   dF: +7.976e-08   |Residual|: 4.965e-05   |deigs|: 2.917e-04  t[s]:    119.92
	FillingsUpdate:  mu: -0.077572640  nElectrons: 9.000000  magneticMoment: [ Abs: 0.10076  Tot: +0.10000 ]
SCF: Cycle: 14   F: -20.168122324139972   dF: -1.078e-07   |Residual|: 4.205e-05   |deigs|: 1.420e-04  t[s]:    127.45
	FillingsUpdate:  mu: -0.077516160  nElectrons: 9.000000  magneticMoment: [ Abs: 0.10075  Tot: +0.10000 ]
SCF: Cycle: 15   F: -20.168122337886043   dF: -1.375e-08   |Residual|: 4.007e-05   |deigs|: 9.397e-05  t[s]:    134.96
	FillingsUpdate:  mu: -0.077482394  nElectrons: 9.000000  magneticMoment: [ Abs: 0.10067  Tot: +0.10000 ]
SCF: Cycle: 16   F: -20.168122328711870   dF: +9.174e-09   |Residual|: 3.455e-05   |deigs|: 5.191e-05  t[s]:    142.42
	FillingsUpdate:  mu: -0.077463820  nElectrons: 9.000000  magneticMoment: [ Abs: 0.10066  Tot: +0.10000 ]
SCF: Cycle: 17   F: -20.168122414513611   dF: -8.580e-08   |Residual|: 2.591e-05   |deigs|: 3.391e-05  t[s]:    149.80
	FillingsUpdate:  mu: -0.077451785  nElectrons: 9.000000  magneticMoment: [ Abs: 0.10065  Tot: +0.10000 ]
SCF: Cycle: 18   F: -20.168122435940255   dF: -2.143e-08   |Residual|: 2.187e-05   |deigs|: 2.203e-05  t[s]:    157.34
	FillingsUpdate:  mu: -0.077440288  nElectrons: 9.000000  magneticMoment: [ Abs: 0.10065  Tot: +0.10000 ]
SCF: Cycle: 19   F: -20.168122466591836   dF: -3.065e-08   |Residual|: 1.574e-05   |deigs|: 2.004e-05  t[s]:    164.90
	FillingsUpdate:  mu: -0.077440595  nElectrons: 9.000000  magneticMoment: [ Abs: 0.10067  Tot: +0.10000 ]
SCF: Cycle: 20   F: -20.168122555059956   dF: -8.847e-08   |Residual|: 1.162e-05   |deigs|: 1.359e-05  t[s]:    172.36
	FillingsUpdate:  mu: -0.077438129  nElectrons: 9.000000  magneticMoment: [ Abs: 0.10067  Tot: +0.10000 ]
SCF: Cycle: 21   F: -20.168122558003621   dF: -2.944e-09   |Residual|: 8.838e-06   |deigs|: 1.213e-05  t[s]:    179.42
	FillingsUpdate:  mu: -0.077435546  nElectrons: 9.000000  magneticMoment: [ Abs: 0.10068  Tot: +0.10000 ]
SCF: Cycle: 22   F: -20.168122578184875   dF: -2.018e-08   |Residual|: 5.145e-06   |deigs|: 1.377e-05  t[s]:    186.85
	FillingsUpdate:  mu: -0.077434954  nElectrons: 9.000000  magneticMoment: [ Abs: 0.10068  Tot: +0.10000 ]
SCF: Cycle: 23   F: -20.168122579011836   dF: -8.270e-10   |Residual|: 4.014e-06   |deigs|: 1.584e-05  t[s]:    193.93
	FillingsUpdate:  mu: -0.077434953  nElectrons: 9.000000  magneticMoment: [ Abs: 0.10067  Tot: +0.10000 ]
SCF: Cycle: 24   F: -20.168122579840773   dF: -8.289e-10   |Residual|: 2.948e-06   |deigs|: 1.783e-05  t[s]:    201.41
SCF: Converged (|Delta E|<1.000000e-08 for 2 iters).


# Ionic positions in lattice coordinates:
ion Cs   0.000000000000000   0.000000000000000   0.000000000000000 0

# Forces in Lattice coordinates:
force Cs   0.000000000000000  -0.000000000000000   0.000000000000000 0

# Energy components:
   Eewald =       -9.0240130501663280
       EH =        7.0006161725159917
     Eloc =      -23.5841386437275666
      Enl =        3.4362623523213287
   Epulay =        0.0000000422266766
      Exc =       -3.1047736173756073
       KE =        5.1079252618004212
-------------------------------------
     Etot =      -20.1681214824050841
       TS =        0.0000010974356905
-------------------------------------
        F =      -20.1681225798407731

IonicMinimize: Iter:   0  F: -20.168122579840773  |grad|_K:  0.000e+00  t[s]:    201.82
IonicMinimize: Converged (|grad|_K<1.000000e-04).

#--- Lowdin population analysis ---
# oxidation-state Cs +0.006
# magnetic-moments Cs +0.099

End date and time: Sun Feb  6 13:28:37 2022  (Duration: 0-0:03:21.90)
Done!
