
*************** JDFTx 1.6.0 (git hash 42ebbcc2) ***************

Start date and time: Sun Feb  6 13:34:48 2022
Executable jdftx with command-line: -i Alkali.in
Running on hosts (process indices):  d-16-7-4 (0-18)
Divided in process groups (process indices):  0 (0)  1 (1)  2 (2)  3 (3)  4 (4)  5 (5)  6 (6)  7 (7)  8 (8)  9 (9)  10 (10)  11 (11)  12 (12)  13 (13)  14 (14)  15 (15)  16 (16)  17 (17)  18 (18)
Resource initialization completed at t[s]:      0.00
Run totals: 19 processes, 48 threads, 0 GPUs


Input parsed successfully to the following command list (including defaults):

basis kpoint-dependent
coords-type Lattice
core-overlap-check vector
coulomb-interaction Slab 001
davidson-band-ratio 1.1
dump End None
dump-name $INPUT.$VAR
elec-cutoff 20
elec-eigen-algo Davidson
elec-ex-corr gga-PBE
elec-initial-magnetization 0.920000 yes
elec-smearing Fermi 1e-05
electronic-minimize  \
	dirUpdateScheme      FletcherReeves \
	linminMethod         DirUpdateRecommended \
	nIterations          100 \
	history              15 \
	knormThreshold       0 \
	energyDiffThreshold  1e-08 \
	nEnergyDiff          2 \
	alphaTstart          1 \
	alphaTmin            1e-10 \
	updateTestStepSize   yes \
	alphaTreduceFactor   0.1 \
	alphaTincreaseFactor 3 \
	nAlphaAdjustMax      3 \
	wolfeEnergy          0.0001 \
	wolfeGradient        0.9 \
	fdTest               no
electronic-scf  \
	nIterations	10000 \
	energyDiffThreshold	1e-08 \
	residualThreshold	1e-07 \
	mixFraction	0.5 \
	qMetric	0.8 \
	history	10 \
	nEigSteps	2 \
	eigDiffThreshold	1e-08 \
	mixedVariable	Density \
	qKerker	0.8 \
	qKappa	-1 \
	verbose	no \
	mixFractionMag	1.5
exchange-regularization WignerSeitzTruncated
fluid None
fluid-ex-corr (null) lda-PZ
fluid-gummel-loop 10 1.000000e-05
fluid-minimize  \
	dirUpdateScheme      PolakRibiere \
	linminMethod         DirUpdateRecommended \
	nIterations          100 \
	history              15 \
	knormThreshold       0 \
	energyDiffThreshold  0 \
	nEnergyDiff          2 \
	alphaTstart          1 \
	alphaTmin            1e-10 \
	updateTestStepSize   yes \
	alphaTreduceFactor   0.1 \
	alphaTincreaseFactor 3 \
	nAlphaAdjustMax      3 \
	wolfeEnergy          0.0001 \
	wolfeGradient        0.9 \
	fdTest               no
fluid-solvent H2O 55.338 ScalarEOS \
	epsBulk 78.4 \
	pMol 0.92466 \
	epsInf 1.77 \
	Pvap 1.06736e-10 \
	sigmaBulk 4.62e-05 \
	Rvdw 2.61727 \
	Res 1.42 \
	tauNuc 343133 \
	poleEl 15 7 1
forces-output-coords Positions
ion Cs   0.000000000000000   0.000000000000000   0.000000000000000 0
ion-species SG15/$ID_ONCV_PBE.upf
ion-width 0
ionic-minimize  \
	dirUpdateScheme      L-BFGS \
	linminMethod         DirUpdateRecommended \
	nIterations          0 \
	history              15 \
	knormThreshold       0.0001 \
	energyDiffThreshold  1e-06 \
	nEnergyDiff          2 \
	alphaTstart          1 \
	alphaTmin            1e-10 \
	updateTestStepSize   yes \
	alphaTreduceFactor   0.1 \
	alphaTincreaseFactor 3 \
	nAlphaAdjustMax      3 \
	wolfeEnergy          0.0001 \
	wolfeGradient        0.9 \
	fdTest               no
kpoint   0.000000000000   0.000000000000   0.000000000000  1.00000000000000
kpoint-folding 12 12 1 
latt-move-scale 1 1 1
latt-scale 2 2 1 
lattice  \
	   4.727486978767153   -2.363743489383575    0.000000000000000  \
	  -0.000000000000000    4.094123819672498    0.000000000000000  \
	   0.000000000000000    0.000000000000000   40.000000000000000 
lattice-minimize  \
	dirUpdateScheme      L-BFGS \
	linminMethod         DirUpdateRecommended \
	nIterations          0 \
	history              15 \
	knormThreshold       0 \
	energyDiffThreshold  1e-06 \
	nEnergyDiff          2 \
	alphaTstart          1 \
	alphaTmin            1e-10 \
	updateTestStepSize   yes \
	alphaTreduceFactor   0.1 \
	alphaTincreaseFactor 3 \
	nAlphaAdjustMax      3 \
	wolfeEnergy          0.0001 \
	wolfeGradient        0.9 \
	fdTest               no
lcao-params -1 1e-06 1e-05
pcm-variant GLSSA13
spintype z-spin
subspace-rotation-factor 1 yes
symmetries automatic
symmetry-threshold 0.0001



---------- Setting up symmetries ----------

Found 24 point-group symmetries of the bravais lattice
Found 24 space-group symmetries with basis
Applied RMS atom displacement 0 bohrs to make symmetries exact.

---------- Initializing the Grid ----------
R = 
[      9.45497     -4.72749            0  ]
[            0      8.18825            0  ]
[            0            0           40  ]
unit cell volume = 3096.79
G =
[   0.664538   0.383671         -0  ]
[          0   0.767342         -0  ]
[         -0         -0    0.15708  ]
Minimum fftbox size, Smin = [  40  40  164  ]
Chosen fftbox size, S = [  40  40  168  ]

---------- Exchange Correlation functional ----------
Initalized PBE GGA exchange.
Initalized PBE GGA correlation.

---------- Setting up pseudopotentials ----------
Width of ionic core gaussian charges (only for fluid interactions / plotting) set to 0

Reading pseudopotential file '/home/gridsan/aligho/DFT/build-Nov24/pseudopotentials/SG15/Cs_ONCV_PBE.upf':
  'Cs' pseudopotential, 'PBE' functional
  Generated using ONCVPSP code by D. R. Hamann
  Author: Martin Schlipf and Francois Gygi  Date: 150915.
  9 valence electrons, 3 orbitals, 6 projectors, 2414 radial grid points, with lMax = 2
  Transforming local potential to a uniform radial grid of dG=0.02 with 1489 points.
  Transforming nonlocal projectors to a uniform radial grid of dG=0.02 with 432 points.
    5S    l: 0   occupation:  2.0   eigenvalue: -0.982388
    5P    l: 1   occupation:  6.0   eigenvalue: -0.496786
    6S    l: 0   occupation:  1.0   eigenvalue: -0.076670
  Transforming atomic orbitals to a uniform radial grid of dG=0.02 with 432 points.
  Core radius for overlap checks: 2.06 bohrs.
  Reading pulay file /home/gridsan/aligho/DFT/build-Nov24/pseudopotentials/SG15/Cs_ONCV_PBE.pulay ... using dE_dnG = -1.008762e-04 computed for Ecut = 20.

Initialized 1 species with 1 total atoms.

Folded 1 k-points by 12x12x1 to 144 k-points.

---------- Setting up k-points, bands, fillings ----------
Reduced to 19 k-points under symmetry. 
Computing the number of bands and number of electrons
Calculating initial fillings.
nElectrons:   9.000000   nBands: 6   nStates: 38

----- Setting up reduced wavefunction bases (one per k-point) -----
average nbasis = 13230.521 , ideal nbasis = 13229.709

---------- Setting up coulomb interaction ----------
Initialized slab truncation along lattice direction 001

---------- Setting up 2D ewald sum ----------
Optimum gaussian width for ewald sums = 5.249020 bohr.
Real space sums over 289 unit cells with max indices [  8  8  0  ]
Reciprocal space sums over 81 terms with max indices [  4  4  0  ]

---------- Allocating electronic variables ----------
Initializing wave functions:  linear combination of atomic orbitals
Note: number of bands (6) exceeds available atomic orbitals (5)
Cs pseudo-atom occupations:   s ( 2 1 )  p ( 6 )
	FillingsUpdate:  mu: -0.088764557  nElectrons: 9.000000  magneticMoment: [ Abs: 0.92000  Tot: +0.92000 ]
LCAOMinimize: Iter:   0  F: -20.1623387675389729  |grad|_K:  9.563e-06  alpha:  1.000e+00
	FillingsUpdate:  mu: -0.088761252  nElectrons: 9.000000  magneticMoment: [ Abs: 0.92000  Tot: +0.92000 ]
LCAOMinimize: Iter:   1  F: -20.1623388287853764  |grad|_K:  8.690e-08  alpha:  9.791e-01  linmin: -1.303e-02  cgtest:  1.769e-01  t[s]:      4.47
LCAOMinimize: Encountered beta<0, resetting CG.
	FillingsUpdate:  mu: -0.088761284  nElectrons: 9.000000  magneticMoment: [ Abs: 0.92000  Tot: +0.92000 ]
LCAOMinimize: Iter:   2  F: -20.1623388287899310  |grad|_K:  5.182e-10  alpha:  9.984e-01  linmin: -9.306e-03  cgtest:  1.379e-01  t[s]:      5.73
LCAOMinimize: Encountered beta<0, resetting CG.
LCAOMinimize: Converged (|Delta F|<1.000000e-06 for 2 iters).


---- Citations for features of the code used in this run ----

   Software package:
      R. Sundararaman, K. Letchworth-Weaver, K.A. Schwarz, D. Gunceler, Y. Ozhabes and T.A. Arias, 'JDFTx: software for joint density-functional theory', SoftwareX 6, 278 (2017)

   gga-PBE exchange-correlation functional:
      J.P. Perdew, K. Burke and M. Ernzerhof, Phys. Rev. Lett. 77, 3865 (1996)

   Pseudopotentials:
      M Schlipf and F Gygi, Comput. Phys. Commun. 196, 36 (2015)

   Truncated Coulomb potentials:
      R. Sundararaman and T.A. Arias, Phys. Rev. B 87, 165122 (2013)

This list may not be complete. Please suggest additional citations or
report any other bugs at https://github.com/shankar1729/jdftx/issues

Initialization completed successfully at t[s]:      5.83


-------- Electronic minimization -----------
Will mix electronic density at each iteration.
	FillingsUpdate:  mu: -0.088761284  nElectrons: 9.000000  magneticMoment: [ Abs: 0.92000  Tot: +0.92000 ]
	FillingsUpdate:  mu: -0.109645538  nElectrons: 9.000000  magneticMoment: [ Abs: 0.92000  Tot: +0.92000 ]
SCF: Cycle:  0   F: -20.176110109213358   dF: -1.377e-02   |Residual|: 2.076e-02   |deigs|: 1.889e-01  t[s]:      8.29
	FillingsUpdate:  mu: -0.113593527  nElectrons: 9.000000  magneticMoment: [ Abs: 0.92000  Tot: +0.92000 ]
SCF: Cycle:  1   F: -20.177361695137368   dF: -1.252e-03   |Residual|: 1.542e-02   |deigs|: 6.881e-03  t[s]:     10.18
	FillingsUpdate:  mu: -0.110674918  nElectrons: 9.000000  magneticMoment: [ Abs: 0.92687  Tot: +0.92000 ]
SCF: Cycle:  2   F: -20.177931019997015   dF: -5.693e-04   |Residual|: 8.834e-03   |deigs|: 2.259e-03  t[s]:     12.04
	FillingsUpdate:  mu: -0.107602789  nElectrons: 9.000000  magneticMoment: [ Abs: 0.92000  Tot: +0.92000 ]
SCF: Cycle:  3   F: -20.178509186270819   dF: -5.782e-04   |Residual|: 4.120e-03   |deigs|: 3.383e-03  t[s]:     14.09
	FillingsUpdate:  mu: -0.104550550  nElectrons: 9.000000  magneticMoment: [ Abs: 0.92008  Tot: +0.92000 ]
SCF: Cycle:  4   F: -20.178662447412542   dF: -1.533e-04   |Residual|: 2.910e-03   |deigs|: 2.568e-03  t[s]:     16.04
	FillingsUpdate:  mu: -0.102305370  nElectrons: 9.000000  magneticMoment: [ Abs: 0.92018  Tot: +0.92000 ]
SCF: Cycle:  5   F: -20.178717966185204   dF: -5.552e-05   |Residual|: 2.264e-03   |deigs|: 2.393e-03  t[s]:     17.96
	FillingsUpdate:  mu: -0.100711148  nElectrons: 9.000000  magneticMoment: [ Abs: 0.92220  Tot: +0.92000 ]
SCF: Cycle:  6   F: -20.178711299281822   dF: +6.667e-06   |Residual|: 2.206e-03   |deigs|: 1.853e-03  t[s]:     20.05
	FillingsUpdate:  mu: -0.098135468  nElectrons: 9.000000  magneticMoment: [ Abs: 0.92092  Tot: +0.92000 ]
SCF: Cycle:  7   F: -20.178720689027642   dF: -9.390e-06   |Residual|: 1.925e-03   |deigs|: 2.707e-03  t[s]:     22.03
	FillingsUpdate:  mu: -0.095923640  nElectrons: 9.000000  magneticMoment: [ Abs: 0.92016  Tot: +0.92000 ]
SCF: Cycle:  8   F: -20.178730692266829   dF: -1.000e-05   |Residual|: 1.291e-03   |deigs|: 3.021e-03  t[s]:     24.01
	FillingsUpdate:  mu: -0.095656551  nElectrons: 9.000000  magneticMoment: [ Abs: 0.92022  Tot: +0.92000 ]
SCF: Cycle:  9   F: -20.178779278969653   dF: -4.859e-05   |Residual|: 1.050e-03   |deigs|: 5.664e-04  t[s]:     26.06
	FillingsUpdate:  mu: -0.095484107  nElectrons: 9.000000  magneticMoment: [ Abs: 0.92223  Tot: +0.92000 ]
SCF: Cycle: 10   F: -20.178803443630780   dF: -2.416e-05   |Residual|: 1.060e-03   |deigs|: 8.292e-04  t[s]:     28.16
	FillingsUpdate:  mu: -0.094215883  nElectrons: 9.000000  magneticMoment: [ Abs: 0.92325  Tot: +0.92000 ]
SCF: Cycle: 11   F: -20.178817691342715   dF: -1.425e-05   |Residual|: 7.818e-04   |deigs|: 1.526e-03  t[s]:     30.16
	FillingsUpdate:  mu: -0.093444315  nElectrons: 9.000000  magneticMoment: [ Abs: 0.92296  Tot: +0.92000 ]
SCF: Cycle: 12   F: -20.178829447472367   dF: -1.176e-05   |Residual|: 7.407e-04   |deigs|: 1.186e-03  t[s]:     32.23
	FillingsUpdate:  mu: -0.092534970  nElectrons: 9.000000  magneticMoment: [ Abs: 0.92320  Tot: +0.92000 ]
SCF: Cycle: 13   F: -20.178832271549599   dF: -2.824e-06   |Residual|: 6.450e-04   |deigs|: 1.190e-03  t[s]:     34.30
	FillingsUpdate:  mu: -0.091023788  nElectrons: 9.000000  magneticMoment: [ Abs: 0.92291  Tot: +0.92000 ]
SCF: Cycle: 14   F: -20.178840937057629   dF: -8.666e-06   |Residual|: 5.774e-04   |deigs|: 2.010e-03  t[s]:     36.35
	FillingsUpdate:  mu: -0.089668404  nElectrons: 9.000000  magneticMoment: [ Abs: 0.92198  Tot: +0.92000 ]
SCF: Cycle: 15   F: -20.178848223842916   dF: -7.287e-06   |Residual|: 4.747e-04   |deigs|: 1.631e-03  t[s]:     38.41
	FillingsUpdate:  mu: -0.088997667  nElectrons: 9.000000  magneticMoment: [ Abs: 0.92137  Tot: +0.92000 ]
SCF: Cycle: 16   F: -20.178852572886960   dF: -4.349e-06   |Residual|: 4.098e-04   |deigs|: 1.207e-03  t[s]:     40.44
	FillingsUpdate:  mu: -0.088063553  nElectrons: 9.000000  magneticMoment: [ Abs: 0.92176  Tot: +0.92000 ]
SCF: Cycle: 17   F: -20.178858859276595   dF: -6.286e-06   |Residual|: 2.959e-04   |deigs|: 1.283e-03  t[s]:     42.54
	FillingsUpdate:  mu: -0.087814055  nElectrons: 9.000000  magneticMoment: [ Abs: 0.92169  Tot: +0.92000 ]
SCF: Cycle: 18   F: -20.178861946851331   dF: -3.088e-06   |Residual|: 1.796e-04   |deigs|: 4.424e-04  t[s]:     44.65
	FillingsUpdate:  mu: -0.087933849  nElectrons: 9.000000  magneticMoment: [ Abs: 0.92119  Tot: +0.92000 ]
SCF: Cycle: 19   F: -20.178863168428446   dF: -1.222e-06   |Residual|: 1.367e-04   |deigs|: 2.208e-04  t[s]:     46.67
	FillingsUpdate:  mu: -0.088138548  nElectrons: 9.000000  magneticMoment: [ Abs: 0.92076  Tot: +0.92000 ]
SCF: Cycle: 20   F: -20.178864160060009   dF: -9.916e-07   |Residual|: 1.071e-04   |deigs|: 2.466e-04  t[s]:     48.73
	FillingsUpdate:  mu: -0.088365763  nElectrons: 9.000000  magneticMoment: [ Abs: 0.92067  Tot: +0.92000 ]
SCF: Cycle: 21   F: -20.178864550464503   dF: -3.904e-07   |Residual|: 6.928e-05   |deigs|: 2.810e-04  t[s]:     50.76
	FillingsUpdate:  mu: -0.088395430  nElectrons: 9.000000  magneticMoment: [ Abs: 0.92065  Tot: +0.92000 ]
SCF: Cycle: 22   F: -20.178864780398278   dF: -2.299e-07   |Residual|: 4.673e-05   |deigs|: 1.330e-04  t[s]:     52.85
	FillingsUpdate:  mu: -0.088412380  nElectrons: 9.000000  magneticMoment: [ Abs: 0.92064  Tot: +0.92000 ]
SCF: Cycle: 23   F: -20.178864917146807   dF: -1.367e-07   |Residual|: 4.528e-05   |deigs|: 3.370e-04  t[s]:     54.88
	FillingsUpdate:  mu: -0.088368659  nElectrons: 9.000000  magneticMoment: [ Abs: 0.92068  Tot: +0.92000 ]
SCF: Cycle: 24   F: -20.178865016222225   dF: -9.908e-08   |Residual|: 4.048e-05   |deigs|: 5.071e-04  t[s]:     56.92
	FillingsUpdate:  mu: -0.088303022  nElectrons: 9.000000  magneticMoment: [ Abs: 0.92064  Tot: +0.92000 ]
SCF: Cycle: 25   F: -20.178865048280798   dF: -3.206e-08   |Residual|: 2.980e-05   |deigs|: 6.712e-04  t[s]:     58.97
	FillingsUpdate:  mu: -0.088284632  nElectrons: 9.000000  magneticMoment: [ Abs: 0.92051  Tot: +0.92000 ]
SCF: Cycle: 26   F: -20.178865084398335   dF: -3.612e-08   |Residual|: 1.999e-05   |deigs|: 4.488e-04  t[s]:     61.01
	FillingsUpdate:  mu: -0.088302090  nElectrons: 9.000000  magneticMoment: [ Abs: 0.92027  Tot: +0.92000 ]
SCF: Cycle: 27   F: -20.178865104012665   dF: -1.961e-08   |Residual|: 1.609e-05   |deigs|: 9.390e-05  t[s]:     63.10
	FillingsUpdate:  mu: -0.088304038  nElectrons: 9.000000  magneticMoment: [ Abs: 0.92018  Tot: +0.92000 ]
SCF: Cycle: 28   F: -20.178865115893760   dF: -1.188e-08   |Residual|: 9.172e-06   |deigs|: 7.322e-05  t[s]:     65.16
	FillingsUpdate:  mu: -0.088320855  nElectrons: 9.000000  magneticMoment: [ Abs: 0.92017  Tot: +0.92000 ]
SCF: Cycle: 29   F: -20.178865126497758   dF: -1.060e-08   |Residual|: 5.777e-06   |deigs|: 2.231e-04  t[s]:     67.21
	FillingsUpdate:  mu: -0.088328969  nElectrons: 9.000000  magneticMoment: [ Abs: 0.92017  Tot: +0.92000 ]
SCF: Cycle: 30   F: -20.178865130814302   dF: -4.317e-09   |Residual|: 3.651e-06   |deigs|: 2.051e-04  t[s]:     69.25
	FillingsUpdate:  mu: -0.088330347  nElectrons: 9.000000  magneticMoment: [ Abs: 0.92017  Tot: +0.92000 ]
SCF: Cycle: 31   F: -20.178865136124575   dF: -5.310e-09   |Residual|: 3.359e-06   |deigs|: 6.586e-05  t[s]:     71.33
SCF: Converged (|Delta E|<1.000000e-08 for 2 iters).


# Ionic positions in lattice coordinates:
ion Cs   0.000000000000000   0.000000000000000   0.000000000000000 0

# Forces in Lattice coordinates:
force Cs  -0.000000000000000   0.000000000000000   0.000000000000000 0

# Energy components:
   Eewald =      -18.0480261003326561
       EH =       -1.8232784922273402
     Eloc =       -5.7545730654778735
      Enl =        3.4354607200928573
   Epulay =        0.0000000264484078
      Exc =       -3.1518431051698381
       KE =        5.1633953051307353
-------------------------------------
     Etot =      -20.1788647115357129
       TS =        0.0000004245888616
-------------------------------------
        F =      -20.1788651361245748

IonicMinimize: Iter:   0  F: -20.178865136124575  |grad|_K:  0.000e+00  t[s]:     71.45
IonicMinimize: Converged (|grad|_K<1.000000e-04).

#--- Lowdin population analysis ---
# oxidation-state Cs +0.190
# magnetic-moments Cs +0.734

End date and time: Sun Feb  6 13:36:00 2022  (Duration: 0-0:01:11.48)
Done!
