
*************** JDFTx 1.6.0 (git hash 42ebbcc2) ***************

Start date and time: Sun Feb  6 13:28:06 2022
Executable jdftx with command-line: -i Alkali.in
Running on hosts (process indices):  d-6-7-4 (0-18)
Divided in process groups (process indices):  0 (0)  1 (1)  2 (2)  3 (3)  4 (4)  5 (5)  6 (6)  7 (7)  8 (8)  9 (9)  10 (10)  11 (11)  12 (12)  13 (13)  14 (14)  15 (15)  16 (16)  17 (17)  18 (18)
Resource initialization completed at t[s]:      0.00
Run totals: 19 processes, 48 threads, 0 GPUs


Input parsed successfully to the following command list (including defaults):

basis kpoint-dependent
coords-type Lattice
core-overlap-check vector
coulomb-interaction Slab 001
davidson-band-ratio 1.1
dump End None
dump-name $INPUT.$VAR
elec-cutoff 20
elec-eigen-algo Davidson
elec-ex-corr gga-PBE
elec-initial-magnetization 0.380000 yes
elec-smearing Fermi 1e-05
electronic-minimize  \
	dirUpdateScheme      FletcherReeves \
	linminMethod         DirUpdateRecommended \
	nIterations          100 \
	history              15 \
	knormThreshold       0 \
	energyDiffThreshold  1e-08 \
	nEnergyDiff          2 \
	alphaTstart          1 \
	alphaTmin            1e-10 \
	updateTestStepSize   yes \
	alphaTreduceFactor   0.1 \
	alphaTincreaseFactor 3 \
	nAlphaAdjustMax      3 \
	wolfeEnergy          0.0001 \
	wolfeGradient        0.9 \
	fdTest               no
electronic-scf  \
	nIterations	10000 \
	energyDiffThreshold	1e-08 \
	residualThreshold	1e-07 \
	mixFraction	0.5 \
	qMetric	0.8 \
	history	10 \
	nEigSteps	2 \
	eigDiffThreshold	1e-08 \
	mixedVariable	Density \
	qKerker	0.8 \
	qKappa	-1 \
	verbose	no \
	mixFractionMag	1.5
exchange-regularization WignerSeitzTruncated
fluid None
fluid-ex-corr (null) lda-PZ
fluid-gummel-loop 10 1.000000e-05
fluid-minimize  \
	dirUpdateScheme      PolakRibiere \
	linminMethod         DirUpdateRecommended \
	nIterations          100 \
	history              15 \
	knormThreshold       0 \
	energyDiffThreshold  0 \
	nEnergyDiff          2 \
	alphaTstart          1 \
	alphaTmin            1e-10 \
	updateTestStepSize   yes \
	alphaTreduceFactor   0.1 \
	alphaTincreaseFactor 3 \
	nAlphaAdjustMax      3 \
	wolfeEnergy          0.0001 \
	wolfeGradient        0.9 \
	fdTest               no
fluid-solvent H2O 55.338 ScalarEOS \
	epsBulk 78.4 \
	pMol 0.92466 \
	epsInf 1.77 \
	Pvap 1.06736e-10 \
	sigmaBulk 4.62e-05 \
	Rvdw 2.61727 \
	Res 1.42 \
	tauNuc 343133 \
	poleEl 15 7 1
forces-output-coords Positions
ion Cs   0.000000000000000   0.000000000000000   0.000000000000000 0
ion-species SG15/$ID_ONCV_PBE.upf
ion-width 0
ionic-minimize  \
	dirUpdateScheme      L-BFGS \
	linminMethod         DirUpdateRecommended \
	nIterations          0 \
	history              15 \
	knormThreshold       0.0001 \
	energyDiffThreshold  1e-06 \
	nEnergyDiff          2 \
	alphaTstart          1 \
	alphaTmin            1e-10 \
	updateTestStepSize   yes \
	alphaTreduceFactor   0.1 \
	alphaTincreaseFactor 3 \
	nAlphaAdjustMax      3 \
	wolfeEnergy          0.0001 \
	wolfeGradient        0.9 \
	fdTest               no
kpoint   0.000000000000   0.000000000000   0.000000000000  1.00000000000000
kpoint-folding 12 12 1 
latt-move-scale 1 1 1
latt-scale 2 2 1 
lattice  \
	   4.727486978767153   -2.363743489383575    0.000000000000000  \
	  -0.000000000000000    4.094123819672498    0.000000000000000  \
	   0.000000000000000    0.000000000000000   40.000000000000000 
lattice-minimize  \
	dirUpdateScheme      L-BFGS \
	linminMethod         DirUpdateRecommended \
	nIterations          0 \
	history              15 \
	knormThreshold       0 \
	energyDiffThreshold  1e-06 \
	nEnergyDiff          2 \
	alphaTstart          1 \
	alphaTmin            1e-10 \
	updateTestStepSize   yes \
	alphaTreduceFactor   0.1 \
	alphaTincreaseFactor 3 \
	nAlphaAdjustMax      3 \
	wolfeEnergy          0.0001 \
	wolfeGradient        0.9 \
	fdTest               no
lcao-params -1 1e-06 1e-05
pcm-variant GLSSA13
spintype z-spin
subspace-rotation-factor 1 yes
symmetries automatic
symmetry-threshold 0.0001



---------- Setting up symmetries ----------

Found 24 point-group symmetries of the bravais lattice
Found 24 space-group symmetries with basis
Applied RMS atom displacement 0 bohrs to make symmetries exact.

---------- Initializing the Grid ----------
R = 
[      9.45497     -4.72749            0  ]
[            0      8.18825            0  ]
[            0            0           40  ]
unit cell volume = 3096.79
G =
[   0.664538   0.383671         -0  ]
[          0   0.767342         -0  ]
[         -0         -0    0.15708  ]
Minimum fftbox size, Smin = [  40  40  164  ]
Chosen fftbox size, S = [  40  40  168  ]

---------- Exchange Correlation functional ----------
Initalized PBE GGA exchange.
Initalized PBE GGA correlation.

---------- Setting up pseudopotentials ----------
Width of ionic core gaussian charges (only for fluid interactions / plotting) set to 0

Reading pseudopotential file '/home/gridsan/aligho/DFT/build-Nov24/pseudopotentials/SG15/Cs_ONCV_PBE.upf':
  'Cs' pseudopotential, 'PBE' functional
  Generated using ONCVPSP code by D. R. Hamann
  Author: Martin Schlipf and Francois Gygi  Date: 150915.
  9 valence electrons, 3 orbitals, 6 projectors, 2414 radial grid points, with lMax = 2
  Transforming local potential to a uniform radial grid of dG=0.02 with 1489 points.
  Transforming nonlocal projectors to a uniform radial grid of dG=0.02 with 432 points.
    5S    l: 0   occupation:  2.0   eigenvalue: -0.982388
    5P    l: 1   occupation:  6.0   eigenvalue: -0.496786
    6S    l: 0   occupation:  1.0   eigenvalue: -0.076670
  Transforming atomic orbitals to a uniform radial grid of dG=0.02 with 432 points.
  Core radius for overlap checks: 2.06 bohrs.
  Reading pulay file /home/gridsan/aligho/DFT/build-Nov24/pseudopotentials/SG15/Cs_ONCV_PBE.pulay ... using dE_dnG = -1.008762e-04 computed for Ecut = 20.

Initialized 1 species with 1 total atoms.

Folded 1 k-points by 12x12x1 to 144 k-points.

---------- Setting up k-points, bands, fillings ----------
Reduced to 19 k-points under symmetry. 
Computing the number of bands and number of electrons
Calculating initial fillings.
nElectrons:   9.000000   nBands: 6   nStates: 38

----- Setting up reduced wavefunction bases (one per k-point) -----
average nbasis = 13230.521 , ideal nbasis = 13229.709

---------- Setting up coulomb interaction ----------
Initialized slab truncation along lattice direction 001

---------- Setting up 2D ewald sum ----------
Optimum gaussian width for ewald sums = 5.249020 bohr.
Real space sums over 289 unit cells with max indices [  8  8  0  ]
Reciprocal space sums over 81 terms with max indices [  4  4  0  ]

---------- Allocating electronic variables ----------
Initializing wave functions:  linear combination of atomic orbitals
Note: number of bands (6) exceeds available atomic orbitals (5)
Cs pseudo-atom occupations:   s ( 2 1 )  p ( 6 )
	FillingsUpdate:  mu: -0.088047369  nElectrons: 9.000000  magneticMoment: [ Abs: 0.38000  Tot: +0.38000 ]
LCAOMinimize: Iter:   0  F: -20.1790086937387017  |grad|_K:  3.579e-05  alpha:  1.000e+00
	FillingsUpdate:  mu: -0.088030800  nElectrons: 9.000000  magneticMoment: [ Abs: 0.38000  Tot: +0.38000 ]
LCAOMinimize: Iter:   1  F: -20.1790095504429168  |grad|_K:  3.622e-07  alpha:  9.781e-01  linmin: -3.846e-02  cgtest:  3.197e-01  t[s]:      4.45
LCAOMinimize: Encountered beta<0, resetting CG.
	FillingsUpdate:  mu: -0.088030912  nElectrons: 9.000000  magneticMoment: [ Abs: 0.38000  Tot: +0.38000 ]
LCAOMinimize: Iter:   2  F: -20.1790095505327471  |grad|_K:  1.734e-09  alpha:  1.004e+00  linmin:  1.068e-01  cgtest: -7.377e-01  t[s]:      5.62
LCAOMinimize: Converged (|Delta F|<1.000000e-06 for 2 iters).


---- Citations for features of the code used in this run ----

   Software package:
      R. Sundararaman, K. Letchworth-Weaver, K.A. Schwarz, D. Gunceler, Y. Ozhabes and T.A. Arias, 'JDFTx: software for joint density-functional theory', SoftwareX 6, 278 (2017)

   gga-PBE exchange-correlation functional:
      J.P. Perdew, K. Burke and M. Ernzerhof, Phys. Rev. Lett. 77, 3865 (1996)

   Pseudopotentials:
      M Schlipf and F Gygi, Comput. Phys. Commun. 196, 36 (2015)

   Truncated Coulomb potentials:
      R. Sundararaman and T.A. Arias, Phys. Rev. B 87, 165122 (2013)

This list may not be complete. Please suggest additional citations or
report any other bugs at https://github.com/shankar1729/jdftx/issues

Initialization completed successfully at t[s]:      5.71


-------- Electronic minimization -----------
Will mix electronic density at each iteration.
	FillingsUpdate:  mu: -0.088030912  nElectrons: 9.000000  magneticMoment: [ Abs: 0.38000  Tot: +0.38000 ]
	FillingsUpdate:  mu: -0.102180022  nElectrons: 9.000000  magneticMoment: [ Abs: 0.38000  Tot: +0.38000 ]
SCF: Cycle:  0   F: -20.185433322900025   dF: -6.424e-03   |Residual|: 1.364e-02   |deigs|: 1.880e-01  t[s]:      8.07
	FillingsUpdate:  mu: -0.102635012  nElectrons: 9.000000  magneticMoment: [ Abs: 0.38000  Tot: +0.38000 ]
SCF: Cycle:  1   F: -20.186033754466241   dF: -6.004e-04   |Residual|: 1.081e-02   |deigs|: 5.287e-03  t[s]:      9.86
	FillingsUpdate:  mu: -0.099803029  nElectrons: 9.000000  magneticMoment: [ Abs: 0.38870  Tot: +0.38000 ]
SCF: Cycle:  2   F: -20.186379105706418   dF: -3.454e-04   |Residual|: 5.242e-03   |deigs|: 2.621e-03  t[s]:     11.70
	FillingsUpdate:  mu: -0.098245312  nElectrons: 9.000000  magneticMoment: [ Abs: 0.38000  Tot: +0.38000 ]
SCF: Cycle:  3   F: -20.186537860697335   dF: -1.588e-04   |Residual|: 3.582e-03   |deigs|: 2.567e-03  t[s]:     13.52
	FillingsUpdate:  mu: -0.095860482  nElectrons: 9.000000  magneticMoment: [ Abs: 0.38081  Tot: +0.38000 ]
SCF: Cycle:  4   F: -20.186614926418617   dF: -7.707e-05   |Residual|: 2.723e-03   |deigs|: 3.095e-03  t[s]:     15.37
	FillingsUpdate:  mu: -0.093286294  nElectrons: 9.000000  magneticMoment: [ Abs: 0.38569  Tot: +0.38000 ]
SCF: Cycle:  5   F: -20.186657886113501   dF: -4.296e-05   |Residual|: 2.400e-03   |deigs|: 3.174e-03  t[s]:     17.23
	FillingsUpdate:  mu: -0.090719517  nElectrons: 9.000000  magneticMoment: [ Abs: 0.39239  Tot: +0.38000 ]
SCF: Cycle:  6   F: -20.186663086857862   dF: -5.201e-06   |Residual|: 1.640e-03   |deigs|: 3.142e-03  t[s]:     19.15
	FillingsUpdate:  mu: -0.088427275  nElectrons: 9.000000  magneticMoment: [ Abs: 0.38977  Tot: +0.38000 ]
SCF: Cycle:  7   F: -20.186693285109776   dF: -3.020e-05   |Residual|: 1.330e-03   |deigs|: 2.409e-03  t[s]:     21.08
	FillingsUpdate:  mu: -0.087411631  nElectrons: 9.000000  magneticMoment: [ Abs: 0.38281  Tot: +0.38000 ]
SCF: Cycle:  8   F: -20.186724671226187   dF: -3.139e-05   |Residual|: 1.109e-03   |deigs|: 1.355e-03  t[s]:     23.17
	FillingsUpdate:  mu: -0.085816930  nElectrons: 9.000000  magneticMoment: [ Abs: 0.38435  Tot: +0.38000 ]
SCF: Cycle:  9   F: -20.186713817916939   dF: +1.085e-05   |Residual|: 9.356e-04   |deigs|: 1.665e-03  t[s]:     25.15
	FillingsUpdate:  mu: -0.083722870  nElectrons: 9.000000  magneticMoment: [ Abs: 0.38656  Tot: +0.38000 ]
SCF: Cycle: 10   F: -20.186707952868218   dF: +5.865e-06   |Residual|: 8.226e-04   |deigs|: 2.226e-03  t[s]:     27.21
	FillingsUpdate:  mu: -0.082076690  nElectrons: 9.000000  magneticMoment: [ Abs: 0.38522  Tot: +0.38000 ]
SCF: Cycle: 11   F: -20.186726421270144   dF: -1.847e-05   |Residual|: 7.465e-04   |deigs|: 1.716e-03  t[s]:     29.17
	FillingsUpdate:  mu: -0.080778695  nElectrons: 9.000000  magneticMoment: [ Abs: 0.38558  Tot: +0.38000 ]
SCF: Cycle: 12   F: -20.186752019945921   dF: -2.560e-05   |Residual|: 7.024e-04   |deigs|: 1.306e-03  t[s]:     31.18
	FillingsUpdate:  mu: -0.079023616  nElectrons: 9.000000  magneticMoment: [ Abs: 0.38523  Tot: +0.38000 ]
SCF: Cycle: 13   F: -20.186764059230892   dF: -1.204e-05   |Residual|: 6.365e-04   |deigs|: 1.778e-03  t[s]:     33.19
	FillingsUpdate:  mu: -0.076790787  nElectrons: 9.000000  magneticMoment: [ Abs: 0.38200  Tot: +0.38000 ]
SCF: Cycle: 14   F: -20.186773560901770   dF: -9.502e-06   |Residual|: 5.161e-04   |deigs|: 2.341e-03  t[s]:     35.17
	FillingsUpdate:  mu: -0.076513995  nElectrons: 9.000000  magneticMoment: [ Abs: 0.38094  Tot: +0.38000 ]
SCF: Cycle: 15   F: -20.186778825660916   dF: -5.265e-06   |Residual|: 3.705e-04   |deigs|: 5.299e-04  t[s]:     37.19
	FillingsUpdate:  mu: -0.075783693  nElectrons: 9.000000  magneticMoment: [ Abs: 0.38041  Tot: +0.38000 ]
SCF: Cycle: 16   F: -20.186782693591240   dF: -3.868e-06   |Residual|: 2.541e-04   |deigs|: 1.294e-03  t[s]:     39.14
	FillingsUpdate:  mu: -0.075479658  nElectrons: 9.000000  magneticMoment: [ Abs: 0.38018  Tot: +0.38000 ]
SCF: Cycle: 17   F: -20.186784080585340   dF: -1.387e-06   |Residual|: 1.721e-04   |deigs|: 8.401e-04  t[s]:     41.11
	FillingsUpdate:  mu: -0.075596587  nElectrons: 9.000000  magneticMoment: [ Abs: 0.38050  Tot: +0.38000 ]
SCF: Cycle: 18   F: -20.186784934270996   dF: -8.537e-07   |Residual|: 1.053e-04   |deigs|: 3.052e-04  t[s]:     43.11
	FillingsUpdate:  mu: -0.075749845  nElectrons: 9.000000  magneticMoment: [ Abs: 0.38031  Tot: +0.38000 ]
SCF: Cycle: 19   F: -20.186785240378534   dF: -3.061e-07   |Residual|: 4.953e-05   |deigs|: 2.785e-04  t[s]:     45.11
	FillingsUpdate:  mu: -0.075720072  nElectrons: 9.000000  magneticMoment: [ Abs: 0.38020  Tot: +0.38000 ]
SCF: Cycle: 20   F: -20.186785390698983   dF: -1.503e-07   |Residual|: 2.886e-05   |deigs|: 1.254e-04  t[s]:     47.14
	FillingsUpdate:  mu: -0.075708633  nElectrons: 9.000000  magneticMoment: [ Abs: 0.38018  Tot: +0.38000 ]
SCF: Cycle: 21   F: -20.186785434351982   dF: -4.365e-08   |Residual|: 1.906e-05   |deigs|: 2.006e-04  t[s]:     49.10
	FillingsUpdate:  mu: -0.075710876  nElectrons: 9.000000  magneticMoment: [ Abs: 0.38018  Tot: +0.38000 ]
SCF: Cycle: 22   F: -20.186785459267902   dF: -2.492e-08   |Residual|: 1.178e-05   |deigs|: 2.176e-04  t[s]:     51.13
	FillingsUpdate:  mu: -0.075705813  nElectrons: 9.000000  magneticMoment: [ Abs: 0.38022  Tot: +0.38000 ]
SCF: Cycle: 23   F: -20.186785475206051   dF: -1.594e-08   |Residual|: 6.701e-06   |deigs|: 1.790e-04  t[s]:     53.16
	FillingsUpdate:  mu: -0.075701825  nElectrons: 9.000000  magneticMoment: [ Abs: 0.38022  Tot: +0.38000 ]
SCF: Cycle: 24   F: -20.186785484353166   dF: -9.147e-09   |Residual|: 5.717e-06   |deigs|: 1.773e-04  t[s]:     55.15
	FillingsUpdate:  mu: -0.075706473  nElectrons: 9.000000  magneticMoment: [ Abs: 0.38021  Tot: +0.38000 ]
SCF: Cycle: 25   F: -20.186785490972554   dF: -6.619e-09   |Residual|: 4.281e-06   |deigs|: 1.253e-04  t[s]:     57.10
SCF: Converged (|Delta E|<1.000000e-08 for 2 iters).


# Ionic positions in lattice coordinates:
ion Cs   0.000000000000000   0.000000000000000   0.000000000000000 0

# Forces in Lattice coordinates:
force Cs  -0.000000000000000  -0.000000000000000   0.000000000000000 0

# Energy components:
   Eewald =      -18.0480261003326561
       EH =       -1.8121169354441893
     Eloc =       -5.7703804562700576
      Enl =        3.4410529649391401
   Epulay =        0.0000000264484078
      Exc =       -3.1459081049491591
       KE =        5.1485940198972262
-------------------------------------
     Etot =      -20.1867845857112869
       TS =        0.0000009052612667
-------------------------------------
        F =      -20.1867854909725537

IonicMinimize: Iter:   0  F: -20.186785490972554  |grad|_K:  0.000e+00  t[s]:     57.22
IonicMinimize: Converged (|grad|_K<1.000000e-04).

#--- Lowdin population analysis ---
# oxidation-state Cs +0.068
# magnetic-moments Cs +0.326

End date and time: Sun Feb  6 13:29:03 2022  (Duration: 0-0:00:57.24)
Done!
