
*************** JDFTx 1.6.0 (git hash 42ebbcc2) ***************

Start date and time: Sun Feb  6 13:29:38 2022
Executable jdftx with command-line: -i Alkali.in
Running on hosts (process indices):  d-3-15-4 (0-18)
Divided in process groups (process indices):  0 (0)  1 (1)  2 (2)  3 (3)  4 (4)  5 (5)  6 (6)  7 (7)  8 (8)  9 (9)  10 (10)  11 (11)  12 (12)  13 (13)  14 (14)  15 (15)  16 (16)  17 (17)  18 (18)
Resource initialization completed at t[s]:      0.00
Run totals: 19 processes, 48 threads, 0 GPUs


Input parsed successfully to the following command list (including defaults):

basis kpoint-dependent
coords-type Lattice
core-overlap-check vector
coulomb-interaction Slab 001
davidson-band-ratio 1.1
dump End None
dump-name $INPUT.$VAR
elec-cutoff 20
elec-eigen-algo Davidson
elec-ex-corr gga-PBE
elec-initial-magnetization 0.640000 yes
elec-smearing Fermi 1e-05
electronic-minimize  \
	dirUpdateScheme      FletcherReeves \
	linminMethod         DirUpdateRecommended \
	nIterations          100 \
	history              15 \
	knormThreshold       0 \
	energyDiffThreshold  1e-08 \
	nEnergyDiff          2 \
	alphaTstart          1 \
	alphaTmin            1e-10 \
	updateTestStepSize   yes \
	alphaTreduceFactor   0.1 \
	alphaTincreaseFactor 3 \
	nAlphaAdjustMax      3 \
	wolfeEnergy          0.0001 \
	wolfeGradient        0.9 \
	fdTest               no
electronic-scf  \
	nIterations	10000 \
	energyDiffThreshold	1e-08 \
	residualThreshold	1e-07 \
	mixFraction	0.5 \
	qMetric	0.8 \
	history	10 \
	nEigSteps	2 \
	eigDiffThreshold	1e-08 \
	mixedVariable	Density \
	qKerker	0.8 \
	qKappa	-1 \
	verbose	no \
	mixFractionMag	1.5
exchange-regularization WignerSeitzTruncated
fluid None
fluid-ex-corr (null) lda-PZ
fluid-gummel-loop 10 1.000000e-05
fluid-minimize  \
	dirUpdateScheme      PolakRibiere \
	linminMethod         DirUpdateRecommended \
	nIterations          100 \
	history              15 \
	knormThreshold       0 \
	energyDiffThreshold  0 \
	nEnergyDiff          2 \
	alphaTstart          1 \
	alphaTmin            1e-10 \
	updateTestStepSize   yes \
	alphaTreduceFactor   0.1 \
	alphaTincreaseFactor 3 \
	nAlphaAdjustMax      3 \
	wolfeEnergy          0.0001 \
	wolfeGradient        0.9 \
	fdTest               no
fluid-solvent H2O 55.338 ScalarEOS \
	epsBulk 78.4 \
	pMol 0.92466 \
	epsInf 1.77 \
	Pvap 1.06736e-10 \
	sigmaBulk 4.62e-05 \
	Rvdw 2.61727 \
	Res 1.42 \
	tauNuc 343133 \
	poleEl 15 7 1
forces-output-coords Positions
ion Cs   0.000000000000000   0.000000000000000   0.000000000000000 0
ion-species SG15/$ID_ONCV_PBE.upf
ion-width 0
ionic-minimize  \
	dirUpdateScheme      L-BFGS \
	linminMethod         DirUpdateRecommended \
	nIterations          0 \
	history              15 \
	knormThreshold       0.0001 \
	energyDiffThreshold  1e-06 \
	nEnergyDiff          2 \
	alphaTstart          1 \
	alphaTmin            1e-10 \
	updateTestStepSize   yes \
	alphaTreduceFactor   0.1 \
	alphaTincreaseFactor 3 \
	nAlphaAdjustMax      3 \
	wolfeEnergy          0.0001 \
	wolfeGradient        0.9 \
	fdTest               no
kpoint   0.000000000000   0.000000000000   0.000000000000  1.00000000000000
kpoint-folding 12 12 1 
latt-move-scale 1 1 1
latt-scale 2 2 1 
lattice  \
	   4.727486978767153   -2.363743489383575    0.000000000000000  \
	  -0.000000000000000    4.094123819672498    0.000000000000000  \
	   0.000000000000000    0.000000000000000   40.000000000000000 
lattice-minimize  \
	dirUpdateScheme      L-BFGS \
	linminMethod         DirUpdateRecommended \
	nIterations          0 \
	history              15 \
	knormThreshold       0 \
	energyDiffThreshold  1e-06 \
	nEnergyDiff          2 \
	alphaTstart          1 \
	alphaTmin            1e-10 \
	updateTestStepSize   yes \
	alphaTreduceFactor   0.1 \
	alphaTincreaseFactor 3 \
	nAlphaAdjustMax      3 \
	wolfeEnergy          0.0001 \
	wolfeGradient        0.9 \
	fdTest               no
lcao-params -1 1e-06 1e-05
pcm-variant GLSSA13
spintype z-spin
subspace-rotation-factor 1 yes
symmetries automatic
symmetry-threshold 0.0001



---------- Setting up symmetries ----------

Found 24 point-group symmetries of the bravais lattice
Found 24 space-group symmetries with basis
Applied RMS atom displacement 0 bohrs to make symmetries exact.

---------- Initializing the Grid ----------
R = 
[      9.45497     -4.72749            0  ]
[            0      8.18825            0  ]
[            0            0           40  ]
unit cell volume = 3096.79
G =
[   0.664538   0.383671         -0  ]
[          0   0.767342         -0  ]
[         -0         -0    0.15708  ]
Minimum fftbox size, Smin = [  40  40  164  ]
Chosen fftbox size, S = [  40  40  168  ]

---------- Exchange Correlation functional ----------
Initalized PBE GGA exchange.
Initalized PBE GGA correlation.

---------- Setting up pseudopotentials ----------
Width of ionic core gaussian charges (only for fluid interactions / plotting) set to 0

Reading pseudopotential file '/home/gridsan/aligho/DFT/build-Nov24/pseudopotentials/SG15/Cs_ONCV_PBE.upf':
  'Cs' pseudopotential, 'PBE' functional
  Generated using ONCVPSP code by D. R. Hamann
  Author: Martin Schlipf and Francois Gygi  Date: 150915.
  9 valence electrons, 3 orbitals, 6 projectors, 2414 radial grid points, with lMax = 2
  Transforming local potential to a uniform radial grid of dG=0.02 with 1489 points.
  Transforming nonlocal projectors to a uniform radial grid of dG=0.02 with 432 points.
    5S    l: 0   occupation:  2.0   eigenvalue: -0.982388
    5P    l: 1   occupation:  6.0   eigenvalue: -0.496786
    6S    l: 0   occupation:  1.0   eigenvalue: -0.076670
  Transforming atomic orbitals to a uniform radial grid of dG=0.02 with 432 points.
  Core radius for overlap checks: 2.06 bohrs.
  Reading pulay file /home/gridsan/aligho/DFT/build-Nov24/pseudopotentials/SG15/Cs_ONCV_PBE.pulay ... using dE_dnG = -1.008762e-04 computed for Ecut = 20.

Initialized 1 species with 1 total atoms.

Folded 1 k-points by 12x12x1 to 144 k-points.

---------- Setting up k-points, bands, fillings ----------
Reduced to 19 k-points under symmetry. 
Computing the number of bands and number of electrons
Calculating initial fillings.
nElectrons:   9.000000   nBands: 6   nStates: 38

----- Setting up reduced wavefunction bases (one per k-point) -----
average nbasis = 13230.521 , ideal nbasis = 13229.709

---------- Setting up coulomb interaction ----------
Initialized slab truncation along lattice direction 001

---------- Setting up 2D ewald sum ----------
Optimum gaussian width for ewald sums = 5.249020 bohr.
Real space sums over 289 unit cells with max indices [  8  8  0  ]
Reciprocal space sums over 81 terms with max indices [  4  4  0  ]

---------- Allocating electronic variables ----------
Initializing wave functions:  linear combination of atomic orbitals
Note: number of bands (6) exceeds available atomic orbitals (5)
Cs pseudo-atom occupations:   s ( 2 1 )  p ( 6 )
	FillingsUpdate:  mu: -0.094062175  nElectrons: 9.000000  magneticMoment: [ Abs: 0.64000  Tot: +0.64000 ]
LCAOMinimize: Iter:   0  F: -20.1729727019153131  |grad|_K:  2.546e-05  alpha:  1.000e+00
	FillingsUpdate:  mu: -0.094050749  nElectrons: 9.000000  magneticMoment: [ Abs: 0.64000  Tot: +0.64000 ]
LCAOMinimize: Iter:   1  F: -20.1729731362557665  |grad|_K:  2.586e-07  alpha:  9.798e-01  linmin: -2.457e-02  cgtest:  2.194e-01  t[s]:      4.51
LCAOMinimize: Encountered beta<0, resetting CG.
	FillingsUpdate:  mu: -0.094050838  nElectrons: 9.000000  magneticMoment: [ Abs: 0.64000  Tot: +0.64000 ]
LCAOMinimize: Iter:   2  F: -20.1729731363019127  |grad|_K:  1.550e-09  alpha:  9.997e-01  linmin: -4.812e-03  cgtest:  3.208e-02  t[s]:      5.70
LCAOMinimize: Encountered beta<0, resetting CG.
LCAOMinimize: Converged (|Delta F|<1.000000e-06 for 2 iters).


---- Citations for features of the code used in this run ----

   Software package:
      R. Sundararaman, K. Letchworth-Weaver, K.A. Schwarz, D. Gunceler, Y. Ozhabes and T.A. Arias, 'JDFTx: software for joint density-functional theory', SoftwareX 6, 278 (2017)

   gga-PBE exchange-correlation functional:
      J.P. Perdew, K. Burke and M. Ernzerhof, Phys. Rev. Lett. 77, 3865 (1996)

   Pseudopotentials:
      M Schlipf and F Gygi, Comput. Phys. Commun. 196, 36 (2015)

   Truncated Coulomb potentials:
      R. Sundararaman and T.A. Arias, Phys. Rev. B 87, 165122 (2013)

This list may not be complete. Please suggest additional citations or
report any other bugs at https://github.com/shankar1729/jdftx/issues

Initialization completed successfully at t[s]:      5.79


-------- Electronic minimization -----------
Will mix electronic density at each iteration.
	FillingsUpdate:  mu: -0.094050838  nElectrons: 9.000000  magneticMoment: [ Abs: 0.64000  Tot: +0.64000 ]
	FillingsUpdate:  mu: -0.107525223  nElectrons: 9.000000  magneticMoment: [ Abs: 0.64000  Tot: +0.64000 ]
SCF: Cycle:  0   F: -20.182380811708796   dF: -9.408e-03   |Residual|: 1.664e-02   |deigs|: 1.880e-01  t[s]:      8.23
	FillingsUpdate:  mu: -0.107685017  nElectrons: 9.000000  magneticMoment: [ Abs: 0.64000  Tot: +0.64000 ]
SCF: Cycle:  1   F: -20.183203507240052   dF: -8.227e-04   |Residual|: 1.270e-02   |deigs|: 5.580e-03  t[s]:     10.07
	FillingsUpdate:  mu: -0.104760603  nElectrons: 9.000000  magneticMoment: [ Abs: 0.64704  Tot: +0.64000 ]
SCF: Cycle:  2   F: -20.183609039273030   dF: -4.055e-04   |Residual|: 7.033e-03   |deigs|: 2.163e-03  t[s]:     11.93
	FillingsUpdate:  mu: -0.102237197  nElectrons: 9.000000  magneticMoment: [ Abs: 0.64000  Tot: +0.64000 ]
SCF: Cycle:  3   F: -20.183803225727523   dF: -1.942e-04   |Residual|: 4.404e-03   |deigs|: 3.162e-03  t[s]:     13.80
	FillingsUpdate:  mu: -0.099286655  nElectrons: 9.000000  magneticMoment: [ Abs: 0.64002  Tot: +0.64000 ]
SCF: Cycle:  4   F: -20.183895533314026   dF: -9.231e-05   |Residual|: 3.218e-03   |deigs|: 3.252e-03  t[s]:     15.74
	FillingsUpdate:  mu: -0.096357886  nElectrons: 9.000000  magneticMoment: [ Abs: 0.64421  Tot: +0.64000 ]
SCF: Cycle:  5   F: -20.183939759969231   dF: -4.423e-05   |Residual|: 2.744e-03   |deigs|: 3.686e-03  t[s]:     17.74
	FillingsUpdate:  mu: -0.093241997  nElectrons: 9.000000  magneticMoment: [ Abs: 0.65403  Tot: +0.64000 ]
SCF: Cycle:  6   F: -20.183940165927140   dF: -4.060e-07   |Residual|: 1.960e-03   |deigs|: 3.753e-03  t[s]:     19.70
	FillingsUpdate:  mu: -0.090643403  nElectrons: 9.000000  magneticMoment: [ Abs: 0.65303  Tot: +0.64000 ]
SCF: Cycle:  7   F: -20.184006670150822   dF: -6.650e-05   |Residual|: 1.612e-03   |deigs|: 3.017e-03  t[s]:     21.69
	FillingsUpdate:  mu: -0.090680013  nElectrons: 9.000000  magneticMoment: [ Abs: 0.64209  Tot: +0.64000 ]
SCF: Cycle:  8   F: -20.184036623713070   dF: -2.995e-05   |Residual|: 1.384e-03   |deigs|: 4.503e-04  t[s]:     23.67
	FillingsUpdate:  mu: -0.088356776  nElectrons: 9.000000  magneticMoment: [ Abs: 0.64413  Tot: +0.64000 ]
SCF: Cycle:  9   F: -20.184026837039987   dF: +9.787e-06   |Residual|: 1.082e-03   |deigs|: 2.493e-03  t[s]:     25.73
	FillingsUpdate:  mu: -0.086345295  nElectrons: 9.000000  magneticMoment: [ Abs: 0.64703  Tot: +0.64000 ]
SCF: Cycle: 10   F: -20.184024540067870   dF: +2.297e-06   |Residual|: 9.096e-04   |deigs|: 2.168e-03  t[s]:     27.79
	FillingsUpdate:  mu: -0.085342563  nElectrons: 9.000000  magneticMoment: [ Abs: 0.64623  Tot: +0.64000 ]
SCF: Cycle: 11   F: -20.184047516933614   dF: -2.298e-05   |Residual|: 8.295e-04   |deigs|: 1.291e-03  t[s]:     29.86
	FillingsUpdate:  mu: -0.083661456  nElectrons: 9.000000  magneticMoment: [ Abs: 0.64830  Tot: +0.64000 ]
SCF: Cycle: 12   F: -20.184068030508044   dF: -2.051e-05   |Residual|: 7.523e-04   |deigs|: 1.757e-03  t[s]:     31.96
	FillingsUpdate:  mu: -0.081243205  nElectrons: 9.000000  magneticMoment: [ Abs: 0.64822  Tot: +0.64000 ]
SCF: Cycle: 13   F: -20.184080792835044   dF: -1.276e-05   |Residual|: 7.089e-04   |deigs|: 2.514e-03  t[s]:     33.96
	FillingsUpdate:  mu: -0.079391548  nElectrons: 9.000000  magneticMoment: [ Abs: 0.64420  Tot: +0.64000 ]
SCF: Cycle: 14   F: -20.184089516175199   dF: -8.723e-06   |Residual|: 6.467e-04   |deigs|: 1.960e-03  t[s]:     35.99
	FillingsUpdate:  mu: -0.077986688  nElectrons: 9.000000  magneticMoment: [ Abs: 0.64152  Tot: +0.64000 ]
SCF: Cycle: 15   F: -20.184098368726850   dF: -8.853e-06   |Residual|: 4.576e-04   |deigs|: 1.837e-03  t[s]:     38.09
	FillingsUpdate:  mu: -0.077145649  nElectrons: 9.000000  magneticMoment: [ Abs: 0.64137  Tot: +0.64000 ]
SCF: Cycle: 16   F: -20.184102973318154   dF: -4.605e-06   |Residual|: 3.475e-04   |deigs|: 1.430e-03  t[s]:     40.20
	FillingsUpdate:  mu: -0.076825895  nElectrons: 9.000000  magneticMoment: [ Abs: 0.64096  Tot: +0.64000 ]
SCF: Cycle: 17   F: -20.184106129742915   dF: -3.156e-06   |Residual|: 2.546e-04   |deigs|: 7.098e-04  t[s]:     42.23
	FillingsUpdate:  mu: -0.077134244  nElectrons: 9.000000  magneticMoment: [ Abs: 0.64161  Tot: +0.64000 ]
SCF: Cycle: 18   F: -20.184106955569696   dF: -8.258e-07   |Residual|: 1.746e-04   |deigs|: 7.310e-04  t[s]:     44.31
	FillingsUpdate:  mu: -0.077116324  nElectrons: 9.000000  magneticMoment: [ Abs: 0.64080  Tot: +0.64000 ]
SCF: Cycle: 19   F: -20.184108150256701   dF: -1.195e-06   |Residual|: 7.495e-05   |deigs|: 4.736e-04  t[s]:     46.45
	FillingsUpdate:  mu: -0.077236694  nElectrons: 9.000000  magneticMoment: [ Abs: 0.64051  Tot: +0.64000 ]
SCF: Cycle: 20   F: -20.184108418025069   dF: -2.678e-07   |Residual|: 4.684e-05   |deigs|: 2.149e-04  t[s]:     48.50
	FillingsUpdate:  mu: -0.077190913  nElectrons: 9.000000  magneticMoment: [ Abs: 0.64058  Tot: +0.64000 ]
SCF: Cycle: 21   F: -20.184108567017567   dF: -1.490e-07   |Residual|: 3.125e-05   |deigs|: 1.565e-04  t[s]:     50.59
	FillingsUpdate:  mu: -0.077200820  nElectrons: 9.000000  magneticMoment: [ Abs: 0.64059  Tot: +0.64000 ]
SCF: Cycle: 22   F: -20.184108635334127   dF: -6.832e-08   |Residual|: 2.255e-05   |deigs|: 1.887e-04  t[s]:     52.62
	FillingsUpdate:  mu: -0.077218718  nElectrons: 9.000000  magneticMoment: [ Abs: 0.64056  Tot: +0.64000 ]
SCF: Cycle: 23   F: -20.184108680101133   dF: -4.477e-08   |Residual|: 1.815e-05   |deigs|: 2.275e-04  t[s]:     54.70
	FillingsUpdate:  mu: -0.077219630  nElectrons: 9.000000  magneticMoment: [ Abs: 0.64050  Tot: +0.64000 ]
SCF: Cycle: 24   F: -20.184108713832742   dF: -3.373e-08   |Residual|: 1.572e-05   |deigs|: 1.898e-04  t[s]:     56.80
	FillingsUpdate:  mu: -0.077213529  nElectrons: 9.000000  magneticMoment: [ Abs: 0.64045  Tot: +0.64000 ]
SCF: Cycle: 25   F: -20.184108730881050   dF: -1.705e-08   |Residual|: 1.408e-05   |deigs|: 1.911e-04  t[s]:     58.85
	FillingsUpdate:  mu: -0.077199409  nElectrons: 9.000000  magneticMoment: [ Abs: 0.64042  Tot: +0.64000 ]
SCF: Cycle: 26   F: -20.184108743120301   dF: -1.224e-08   |Residual|: 1.029e-05   |deigs|: 1.151e-04  t[s]:     60.91
	FillingsUpdate:  mu: -0.077197004  nElectrons: 9.000000  magneticMoment: [ Abs: 0.64036  Tot: +0.64000 ]
SCF: Cycle: 27   F: -20.184108749597414   dF: -6.477e-09   |Residual|: 6.719e-06   |deigs|: 1.284e-04  t[s]:     62.94
	FillingsUpdate:  mu: -0.077208779  nElectrons: 9.000000  magneticMoment: [ Abs: 0.64031  Tot: +0.64000 ]
SCF: Cycle: 28   F: -20.184108753300276   dF: -3.703e-09   |Residual|: 4.702e-06   |deigs|: 1.544e-04  t[s]:     64.99
SCF: Converged (|Delta E|<1.000000e-08 for 2 iters).


# Ionic positions in lattice coordinates:
ion Cs   0.000000000000000   0.000000000000000   0.000000000000000 0

# Forces in Lattice coordinates:
force Cs  -0.000000000000000  -0.000000000000000   0.000000000000000 0

# Energy components:
   Eewald =      -18.0480261003326561
       EH =       -1.7775211082259694
     Eloc =       -5.8030703875249703
      Enl =        3.4386671412095149
   Epulay =        0.0000000264484078
      Exc =       -3.1498284221440764
       KE =        5.1556706945614721
-------------------------------------
     Etot =      -20.1841081560082749
       TS =        0.0000005972919995
-------------------------------------
        F =      -20.1841087533002757

IonicMinimize: Iter:   0  F: -20.184108753300276  |grad|_K:  0.000e+00  t[s]:     65.10
IonicMinimize: Converged (|grad|_K<1.000000e-04).

#--- Lowdin population analysis ---
# oxidation-state Cs +0.101
# magnetic-moments Cs +0.546

End date and time: Sun Feb  6 13:30:43 2022  (Duration: 0-0:01:05.12)
Done!
