
*************** JDFTx 1.6.0 (git hash 42ebbcc2) ***************

Start date and time: Sun Feb  6 13:34:17 2022
Executable jdftx with command-line: -i Alkali.in
Running on hosts (process indices):  d-16-8-3 (0-18)
Divided in process groups (process indices):  0 (0)  1 (1)  2 (2)  3 (3)  4 (4)  5 (5)  6 (6)  7 (7)  8 (8)  9 (9)  10 (10)  11 (11)  12 (12)  13 (13)  14 (14)  15 (15)  16 (16)  17 (17)  18 (18)
Resource initialization completed at t[s]:      0.00
Run totals: 19 processes, 48 threads, 0 GPUs


Input parsed successfully to the following command list (including defaults):

basis kpoint-dependent
coords-type Lattice
core-overlap-check vector
coulomb-interaction Slab 001
davidson-band-ratio 1.1
dump End None
dump-name $INPUT.$VAR
elec-cutoff 20
elec-eigen-algo Davidson
elec-ex-corr gga-PBE
elec-initial-magnetization 0.860000 yes
elec-smearing Fermi 1e-05
electronic-minimize  \
	dirUpdateScheme      FletcherReeves \
	linminMethod         DirUpdateRecommended \
	nIterations          100 \
	history              15 \
	knormThreshold       0 \
	energyDiffThreshold  1e-08 \
	nEnergyDiff          2 \
	alphaTstart          1 \
	alphaTmin            1e-10 \
	updateTestStepSize   yes \
	alphaTreduceFactor   0.1 \
	alphaTincreaseFactor 3 \
	nAlphaAdjustMax      3 \
	wolfeEnergy          0.0001 \
	wolfeGradient        0.9 \
	fdTest               no
electronic-scf  \
	nIterations	10000 \
	energyDiffThreshold	1e-08 \
	residualThreshold	1e-07 \
	mixFraction	0.5 \
	qMetric	0.8 \
	history	10 \
	nEigSteps	2 \
	eigDiffThreshold	1e-08 \
	mixedVariable	Density \
	qKerker	0.8 \
	qKappa	-1 \
	verbose	no \
	mixFractionMag	1.5
exchange-regularization WignerSeitzTruncated
fluid None
fluid-ex-corr (null) lda-PZ
fluid-gummel-loop 10 1.000000e-05
fluid-minimize  \
	dirUpdateScheme      PolakRibiere \
	linminMethod         DirUpdateRecommended \
	nIterations          100 \
	history              15 \
	knormThreshold       0 \
	energyDiffThreshold  0 \
	nEnergyDiff          2 \
	alphaTstart          1 \
	alphaTmin            1e-10 \
	updateTestStepSize   yes \
	alphaTreduceFactor   0.1 \
	alphaTincreaseFactor 3 \
	nAlphaAdjustMax      3 \
	wolfeEnergy          0.0001 \
	wolfeGradient        0.9 \
	fdTest               no
fluid-solvent H2O 55.338 ScalarEOS \
	epsBulk 78.4 \
	pMol 0.92466 \
	epsInf 1.77 \
	Pvap 1.06736e-10 \
	sigmaBulk 4.62e-05 \
	Rvdw 2.61727 \
	Res 1.42 \
	tauNuc 343133 \
	poleEl 15 7 1
forces-output-coords Positions
ion Cs   0.000000000000000   0.000000000000000   0.000000000000000 0
ion-species SG15/$ID_ONCV_PBE.upf
ion-width 0
ionic-minimize  \
	dirUpdateScheme      L-BFGS \
	linminMethod         DirUpdateRecommended \
	nIterations          0 \
	history              15 \
	knormThreshold       0.0001 \
	energyDiffThreshold  1e-06 \
	nEnergyDiff          2 \
	alphaTstart          1 \
	alphaTmin            1e-10 \
	updateTestStepSize   yes \
	alphaTreduceFactor   0.1 \
	alphaTincreaseFactor 3 \
	nAlphaAdjustMax      3 \
	wolfeEnergy          0.0001 \
	wolfeGradient        0.9 \
	fdTest               no
kpoint   0.000000000000   0.000000000000   0.000000000000  1.00000000000000
kpoint-folding 12 12 1 
latt-move-scale 1 1 1
latt-scale 2 2 1 
lattice  \
	   4.727486978767153   -2.363743489383575    0.000000000000000  \
	  -0.000000000000000    4.094123819672498    0.000000000000000  \
	   0.000000000000000    0.000000000000000   40.000000000000000 
lattice-minimize  \
	dirUpdateScheme      L-BFGS \
	linminMethod         DirUpdateRecommended \
	nIterations          0 \
	history              15 \
	knormThreshold       0 \
	energyDiffThreshold  1e-06 \
	nEnergyDiff          2 \
	alphaTstart          1 \
	alphaTmin            1e-10 \
	updateTestStepSize   yes \
	alphaTreduceFactor   0.1 \
	alphaTincreaseFactor 3 \
	nAlphaAdjustMax      3 \
	wolfeEnergy          0.0001 \
	wolfeGradient        0.9 \
	fdTest               no
lcao-params -1 1e-06 1e-05
pcm-variant GLSSA13
spintype z-spin
subspace-rotation-factor 1 yes
symmetries automatic
symmetry-threshold 0.0001



---------- Setting up symmetries ----------

Found 24 point-group symmetries of the bravais lattice
Found 24 space-group symmetries with basis
Applied RMS atom displacement 0 bohrs to make symmetries exact.

---------- Initializing the Grid ----------
R = 
[      9.45497     -4.72749            0  ]
[            0      8.18825            0  ]
[            0            0           40  ]
unit cell volume = 3096.79
G =
[   0.664538   0.383671         -0  ]
[          0   0.767342         -0  ]
[         -0         -0    0.15708  ]
Minimum fftbox size, Smin = [  40  40  164  ]
Chosen fftbox size, S = [  40  40  168  ]

---------- Exchange Correlation functional ----------
Initalized PBE GGA exchange.
Initalized PBE GGA correlation.

---------- Setting up pseudopotentials ----------
Width of ionic core gaussian charges (only for fluid interactions / plotting) set to 0

Reading pseudopotential file '/home/gridsan/aligho/DFT/build-Nov24/pseudopotentials/SG15/Cs_ONCV_PBE.upf':
  'Cs' pseudopotential, 'PBE' functional
  Generated using ONCVPSP code by D. R. Hamann
  Author: Martin Schlipf and Francois Gygi  Date: 150915.
  9 valence electrons, 3 orbitals, 6 projectors, 2414 radial grid points, with lMax = 2
  Transforming local potential to a uniform radial grid of dG=0.02 with 1489 points.
  Transforming nonlocal projectors to a uniform radial grid of dG=0.02 with 432 points.
    5S    l: 0   occupation:  2.0   eigenvalue: -0.982388
    5P    l: 1   occupation:  6.0   eigenvalue: -0.496786
    6S    l: 0   occupation:  1.0   eigenvalue: -0.076670
  Transforming atomic orbitals to a uniform radial grid of dG=0.02 with 432 points.
  Core radius for overlap checks: 2.06 bohrs.
  Reading pulay file /home/gridsan/aligho/DFT/build-Nov24/pseudopotentials/SG15/Cs_ONCV_PBE.pulay ... using dE_dnG = -1.008762e-04 computed for Ecut = 20.

Initialized 1 species with 1 total atoms.

Folded 1 k-points by 12x12x1 to 144 k-points.

---------- Setting up k-points, bands, fillings ----------
Reduced to 19 k-points under symmetry. 
Computing the number of bands and number of electrons
Calculating initial fillings.
nElectrons:   9.000000   nBands: 6   nStates: 38

----- Setting up reduced wavefunction bases (one per k-point) -----
average nbasis = 13230.521 , ideal nbasis = 13229.709

---------- Setting up coulomb interaction ----------
Initialized slab truncation along lattice direction 001

---------- Setting up 2D ewald sum ----------
Optimum gaussian width for ewald sums = 5.249020 bohr.
Real space sums over 289 unit cells with max indices [  8  8  0  ]
Reciprocal space sums over 81 terms with max indices [  4  4  0  ]

---------- Allocating electronic variables ----------
Initializing wave functions:  linear combination of atomic orbitals
Note: number of bands (6) exceeds available atomic orbitals (5)
Cs pseudo-atom occupations:   s ( 2 1 )  p ( 6 )
	FillingsUpdate:  mu: -0.085368302  nElectrons: 9.000000  magneticMoment: [ Abs: 0.86000  Tot: +0.86000 ]
LCAOMinimize: Iter:   0  F: -20.1651357138306224  |grad|_K:  1.393e-05  alpha:  1.000e+00
	FillingsUpdate:  mu: -0.085362375  nElectrons: 9.000000  magneticMoment: [ Abs: 0.86000  Tot: +0.86000 ]
LCAOMinimize: Iter:   1  F: -20.1651358438502122  |grad|_K:  1.325e-07  alpha:  9.793e-01  linmin: -1.635e-02  cgtest:  1.993e-01  t[s]:      4.47
LCAOMinimize: Encountered beta<0, resetting CG.
	FillingsUpdate:  mu: -0.085362415  nElectrons: 9.000000  magneticMoment: [ Abs: 0.86000  Tot: +0.86000 ]
LCAOMinimize: Iter:   2  F: -20.1651358438619113  |grad|_K:  6.489e-09  alpha:  9.514e-01  linmin: -8.916e-02  cgtest:  9.940e-01  t[s]:      5.68
LCAOMinimize: Encountered beta<0, resetting CG.
LCAOMinimize: Converged (|Delta F|<1.000000e-06 for 2 iters).


---- Citations for features of the code used in this run ----

   Software package:
      R. Sundararaman, K. Letchworth-Weaver, K.A. Schwarz, D. Gunceler, Y. Ozhabes and T.A. Arias, 'JDFTx: software for joint density-functional theory', SoftwareX 6, 278 (2017)

   gga-PBE exchange-correlation functional:
      J.P. Perdew, K. Burke and M. Ernzerhof, Phys. Rev. Lett. 77, 3865 (1996)

   Pseudopotentials:
      M Schlipf and F Gygi, Comput. Phys. Commun. 196, 36 (2015)

   Truncated Coulomb potentials:
      R. Sundararaman and T.A. Arias, Phys. Rev. B 87, 165122 (2013)

This list may not be complete. Please suggest additional citations or
report any other bugs at https://github.com/shankar1729/jdftx/issues

Initialization completed successfully at t[s]:      5.77


-------- Electronic minimization -----------
Will mix electronic density at each iteration.
	FillingsUpdate:  mu: -0.085362415  nElectrons: 9.000000  magneticMoment: [ Abs: 0.86000  Tot: +0.86000 ]
	FillingsUpdate:  mu: -0.105664936  nElectrons: 9.000000  magneticMoment: [ Abs: 0.86000  Tot: +0.86000 ]
SCF: Cycle:  0   F: -20.177893251096304   dF: -1.276e-02   |Residual|: 1.980e-02   |deigs|: 1.884e-01  t[s]:      8.12
	FillingsUpdate:  mu: -0.110841203  nElectrons: 9.000000  magneticMoment: [ Abs: 0.86000  Tot: +0.86000 ]
SCF: Cycle:  1   F: -20.178957863301871   dF: -1.065e-03   |Residual|: 1.480e-02   |deigs|: 7.345e-03  t[s]:      9.89
	FillingsUpdate:  mu: -0.107955757  nElectrons: 9.000000  magneticMoment: [ Abs: 0.86642  Tot: +0.86000 ]
SCF: Cycle:  2   F: -20.179666684113261   dF: -7.088e-04   |Residual|: 7.832e-03   |deigs|: 2.246e-03  t[s]:     11.69
	FillingsUpdate:  mu: -0.104970793  nElectrons: 9.000000  magneticMoment: [ Abs: 0.86000  Tot: +0.86000 ]
SCF: Cycle:  3   F: -20.179930944806557   dF: -2.643e-04   |Residual|: 5.193e-03   |deigs|: 3.140e-03  t[s]:     13.57
	FillingsUpdate:  mu: -0.101795028  nElectrons: 9.000000  magneticMoment: [ Abs: 0.86000  Tot: +0.86000 ]
SCF: Cycle:  4   F: -20.180064454729127   dF: -1.335e-04   |Residual|: 3.283e-03   |deigs|: 3.040e-03  t[s]:     15.44
	FillingsUpdate:  mu: -0.099746788  nElectrons: 9.000000  magneticMoment: [ Abs: 0.86003  Tot: +0.86000 ]
SCF: Cycle:  5   F: -20.180112035812613   dF: -4.758e-05   |Residual|: 2.837e-03   |deigs|: 2.558e-03  t[s]:     17.32
	FillingsUpdate:  mu: -0.095822740  nElectrons: 9.000000  magneticMoment: [ Abs: 0.86235  Tot: +0.86000 ]
SCF: Cycle:  6   F: -20.180130927051486   dF: -1.889e-05   |Residual|: 2.059e-03   |deigs|: 4.207e-03  t[s]:     19.23
	FillingsUpdate:  mu: -0.092535982  nElectrons: 9.000000  magneticMoment: [ Abs: 0.86578  Tot: +0.86000 ]
SCF: Cycle:  7   F: -20.180141635570024   dF: -1.071e-05   |Residual|: 1.597e-03   |deigs|: 3.685e-03  t[s]:     21.26
	FillingsUpdate:  mu: -0.090998862  nElectrons: 9.000000  magneticMoment: [ Abs: 0.86099  Tot: +0.86000 ]
SCF: Cycle:  8   F: -20.180179737452917   dF: -3.810e-05   |Residual|: 1.390e-03   |deigs|: 2.259e-03  t[s]:     23.22
	FillingsUpdate:  mu: -0.090643196  nElectrons: 9.000000  magneticMoment: [ Abs: 0.86128  Tot: +0.86000 ]
SCF: Cycle:  9   F: -20.180205013929207   dF: -2.528e-05   |Residual|: 1.093e-03   |deigs|: 6.092e-04  t[s]:     25.19
	FillingsUpdate:  mu: -0.089301506  nElectrons: 9.000000  magneticMoment: [ Abs: 0.86451  Tot: +0.86000 ]
SCF: Cycle: 10   F: -20.180216827493986   dF: -1.181e-05   |Residual|: 8.799e-04   |deigs|: 1.441e-03  t[s]:     27.27
	FillingsUpdate:  mu: -0.088182016  nElectrons: 9.000000  magneticMoment: [ Abs: 0.86556  Tot: +0.86000 ]
SCF: Cycle: 11   F: -20.180232819931600   dF: -1.599e-05   |Residual|: 8.352e-04   |deigs|: 1.553e-03  t[s]:     29.28
	FillingsUpdate:  mu: -0.087308878  nElectrons: 9.000000  magneticMoment: [ Abs: 0.86553  Tot: +0.86000 ]
SCF: Cycle: 12   F: -20.180245700452570   dF: -1.288e-05   |Residual|: 7.257e-04   |deigs|: 1.237e-03  t[s]:     31.28
	FillingsUpdate:  mu: -0.085365235  nElectrons: 9.000000  magneticMoment: [ Abs: 0.86594  Tot: +0.86000 ]
SCF: Cycle: 13   F: -20.180252273921216   dF: -6.573e-06   |Residual|: 6.743e-04   |deigs|: 2.281e-03  t[s]:     33.28
	FillingsUpdate:  mu: -0.083736062  nElectrons: 9.000000  magneticMoment: [ Abs: 0.86306  Tot: +0.86000 ]
SCF: Cycle: 14   F: -20.180258553014895   dF: -6.279e-06   |Residual|: 6.176e-04   |deigs|: 2.144e-03  t[s]:     35.27
	FillingsUpdate:  mu: -0.082521579  nElectrons: 9.000000  magneticMoment: [ Abs: 0.86268  Tot: +0.86000 ]
SCF: Cycle: 15   F: -20.180265287589229   dF: -6.735e-06   |Residual|: 5.131e-04   |deigs|: 2.694e-03  t[s]:     37.38
	FillingsUpdate:  mu: -0.081673606  nElectrons: 9.000000  magneticMoment: [ Abs: 0.86136  Tot: +0.86000 ]
SCF: Cycle: 16   F: -20.180274296836060   dF: -9.009e-06   |Residual|: 3.967e-04   |deigs|: 1.439e-03  t[s]:     39.41
	FillingsUpdate:  mu: -0.081652623  nElectrons: 9.000000  magneticMoment: [ Abs: 0.86111  Tot: +0.86000 ]
SCF: Cycle: 17   F: -20.180279491212055   dF: -5.194e-06   |Residual|: 2.764e-04   |deigs|: 5.173e-04  t[s]:     41.39
	FillingsUpdate:  mu: -0.081555379  nElectrons: 9.000000  magneticMoment: [ Abs: 0.86139  Tot: +0.86000 ]
SCF: Cycle: 18   F: -20.180281611431134   dF: -2.120e-06   |Residual|: 1.832e-04   |deigs|: 2.362e-04  t[s]:     43.37
	FillingsUpdate:  mu: -0.081592650  nElectrons: 9.000000  magneticMoment: [ Abs: 0.86117  Tot: +0.86000 ]
SCF: Cycle: 19   F: -20.180283535802783   dF: -1.924e-06   |Residual|: 1.437e-04   |deigs|: 1.285e-04  t[s]:     45.35
	FillingsUpdate:  mu: -0.081695186  nElectrons: 9.000000  magneticMoment: [ Abs: 0.86126  Tot: +0.86000 ]
SCF: Cycle: 20   F: -20.180283878912402   dF: -3.431e-07   |Residual|: 1.052e-04   |deigs|: 1.258e-04  t[s]:     47.33
	FillingsUpdate:  mu: -0.081971997  nElectrons: 9.000000  magneticMoment: [ Abs: 0.86131  Tot: +0.86000 ]
SCF: Cycle: 21   F: -20.180284581977265   dF: -7.031e-07   |Residual|: 6.392e-05   |deigs|: 3.046e-04  t[s]:     49.31
	FillingsUpdate:  mu: -0.081994363  nElectrons: 9.000000  magneticMoment: [ Abs: 0.86109  Tot: +0.86000 ]
SCF: Cycle: 22   F: -20.180284712434805   dF: -1.305e-07   |Residual|: 4.676e-05   |deigs|: 1.303e-03  t[s]:     51.34
	FillingsUpdate:  mu: -0.082043511  nElectrons: 9.000000  magneticMoment: [ Abs: 0.86091  Tot: +0.86000 ]
SCF: Cycle: 23   F: -20.180284819679283   dF: -1.072e-07   |Residual|: 4.005e-05   |deigs|: 7.161e-04  t[s]:     53.33
	FillingsUpdate:  mu: -0.082042298  nElectrons: 9.000000  magneticMoment: [ Abs: 0.86066  Tot: +0.86000 ]
SCF: Cycle: 24   F: -20.180284875279789   dF: -5.560e-08   |Residual|: 3.907e-05   |deigs|: 5.264e-05  t[s]:     55.32
	FillingsUpdate:  mu: -0.082061890  nElectrons: 9.000000  magneticMoment: [ Abs: 0.86051  Tot: +0.86000 ]
SCF: Cycle: 25   F: -20.180284909600694   dF: -3.432e-08   |Residual|: 2.969e-05   |deigs|: 5.871e-05  t[s]:     57.31
	FillingsUpdate:  mu: -0.082057708  nElectrons: 9.000000  magneticMoment: [ Abs: 0.86039  Tot: +0.86000 ]
SCF: Cycle: 26   F: -20.180284984463775   dF: -7.486e-08   |Residual|: 2.303e-05   |deigs|: 6.362e-05  t[s]:     59.34
	FillingsUpdate:  mu: -0.082025947  nElectrons: 9.000000  magneticMoment: [ Abs: 0.86031  Tot: +0.86000 ]
SCF: Cycle: 27   F: -20.180284998386451   dF: -1.392e-08   |Residual|: 1.975e-05   |deigs|: 7.185e-05  t[s]:     61.33
	FillingsUpdate:  mu: -0.081978644  nElectrons: 9.000000  magneticMoment: [ Abs: 0.86025  Tot: +0.86000 ]
SCF: Cycle: 28   F: -20.180285018107302   dF: -1.972e-08   |Residual|: 1.306e-05   |deigs|: 8.782e-05  t[s]:     63.35
	FillingsUpdate:  mu: -0.081969534  nElectrons: 9.000000  magneticMoment: [ Abs: 0.86025  Tot: +0.86000 ]
SCF: Cycle: 29   F: -20.180285032413856   dF: -1.431e-08   |Residual|: 9.109e-06   |deigs|: 8.175e-05  t[s]:     65.34
	FillingsUpdate:  mu: -0.081958660  nElectrons: 9.000000  magneticMoment: [ Abs: 0.86025  Tot: +0.86000 ]
SCF: Cycle: 30   F: -20.180285040208204   dF: -7.794e-09   |Residual|: 6.877e-06   |deigs|: 5.164e-04  t[s]:     67.41
	FillingsUpdate:  mu: -0.081951520  nElectrons: 9.000000  magneticMoment: [ Abs: 0.86025  Tot: +0.86000 ]
SCF: Cycle: 31   F: -20.180285044929185   dF: -4.721e-09   |Residual|: 4.735e-06   |deigs|: 1.765e-04  t[s]:     69.40
SCF: Converged (|Delta E|<1.000000e-08 for 2 iters).


# Ionic positions in lattice coordinates:
ion Cs   0.000000000000000   0.000000000000000   0.000000000000000 0

# Forces in Lattice coordinates:
force Cs   0.000000000000000  -0.000000000000000   0.000000000000000 0

# Energy components:
   Eewald =      -18.0480261003326561
       EH =       -1.7876147720713824
     Eloc =       -5.7912638713532125
      Enl =        3.4363309488113600
   Epulay =        0.0000000264484078
      Exc =       -3.1523764581778337
       KE =        5.1626657590724481
-------------------------------------
     Etot =      -20.1802844676028670
       TS =        0.0000005773263190
-------------------------------------
        F =      -20.1802850449291853

IonicMinimize: Iter:   0  F: -20.180285044929185  |grad|_K:  0.000e+00  t[s]:     69.52
IonicMinimize: Converged (|grad|_K<1.000000e-04).

#--- Lowdin population analysis ---
# oxidation-state Cs +0.158
# magnetic-moments Cs +0.707

End date and time: Sun Feb  6 13:35:26 2022  (Duration: 0-0:01:09.54)
Done!
