
*************** JDFTx 1.6.0 (git hash 42ebbcc2) ***************

Start date and time: Sun Feb  6 13:29:07 2022
Executable jdftx with command-line: -i Alkali.in
Running on hosts (process indices):  d-6-8-2 (0-18)
Divided in process groups (process indices):  0 (0)  1 (1)  2 (2)  3 (3)  4 (4)  5 (5)  6 (6)  7 (7)  8 (8)  9 (9)  10 (10)  11 (11)  12 (12)  13 (13)  14 (14)  15 (15)  16 (16)  17 (17)  18 (18)
Resource initialization completed at t[s]:      0.00
Run totals: 19 processes, 48 threads, 0 GPUs


Input parsed successfully to the following command list (including defaults):

basis kpoint-dependent
coords-type Lattice
core-overlap-check vector
coulomb-interaction Slab 001
davidson-band-ratio 1.1
dump End None
dump-name $INPUT.$VAR
elec-cutoff 20
elec-eigen-algo Davidson
elec-ex-corr gga-PBE
elec-initial-magnetization 0.520000 yes
elec-smearing Fermi 1e-05
electronic-minimize  \
	dirUpdateScheme      FletcherReeves \
	linminMethod         DirUpdateRecommended \
	nIterations          100 \
	history              15 \
	knormThreshold       0 \
	energyDiffThreshold  1e-08 \
	nEnergyDiff          2 \
	alphaTstart          1 \
	alphaTmin            1e-10 \
	updateTestStepSize   yes \
	alphaTreduceFactor   0.1 \
	alphaTincreaseFactor 3 \
	nAlphaAdjustMax      3 \
	wolfeEnergy          0.0001 \
	wolfeGradient        0.9 \
	fdTest               no
electronic-scf  \
	nIterations	10000 \
	energyDiffThreshold	1e-08 \
	residualThreshold	1e-07 \
	mixFraction	0.5 \
	qMetric	0.8 \
	history	10 \
	nEigSteps	2 \
	eigDiffThreshold	1e-08 \
	mixedVariable	Density \
	qKerker	0.8 \
	qKappa	-1 \
	verbose	no \
	mixFractionMag	1.5
exchange-regularization WignerSeitzTruncated
fluid None
fluid-ex-corr (null) lda-PZ
fluid-gummel-loop 10 1.000000e-05
fluid-minimize  \
	dirUpdateScheme      PolakRibiere \
	linminMethod         DirUpdateRecommended \
	nIterations          100 \
	history              15 \
	knormThreshold       0 \
	energyDiffThreshold  0 \
	nEnergyDiff          2 \
	alphaTstart          1 \
	alphaTmin            1e-10 \
	updateTestStepSize   yes \
	alphaTreduceFactor   0.1 \
	alphaTincreaseFactor 3 \
	nAlphaAdjustMax      3 \
	wolfeEnergy          0.0001 \
	wolfeGradient        0.9 \
	fdTest               no
fluid-solvent H2O 55.338 ScalarEOS \
	epsBulk 78.4 \
	pMol 0.92466 \
	epsInf 1.77 \
	Pvap 1.06736e-10 \
	sigmaBulk 4.62e-05 \
	Rvdw 2.61727 \
	Res 1.42 \
	tauNuc 343133 \
	poleEl 15 7 1
forces-output-coords Positions
ion Cs   0.000000000000000   0.000000000000000   0.000000000000000 0
ion-species SG15/$ID_ONCV_PBE.upf
ion-width 0
ionic-minimize  \
	dirUpdateScheme      L-BFGS \
	linminMethod         DirUpdateRecommended \
	nIterations          0 \
	history              15 \
	knormThreshold       0.0001 \
	energyDiffThreshold  1e-06 \
	nEnergyDiff          2 \
	alphaTstart          1 \
	alphaTmin            1e-10 \
	updateTestStepSize   yes \
	alphaTreduceFactor   0.1 \
	alphaTincreaseFactor 3 \
	nAlphaAdjustMax      3 \
	wolfeEnergy          0.0001 \
	wolfeGradient        0.9 \
	fdTest               no
kpoint   0.000000000000   0.000000000000   0.000000000000  1.00000000000000
kpoint-folding 12 12 1 
latt-move-scale 1 1 1
latt-scale 2 2 1 
lattice  \
	   4.727486978767153   -2.363743489383575    0.000000000000000  \
	  -0.000000000000000    4.094123819672498    0.000000000000000  \
	   0.000000000000000    0.000000000000000   40.000000000000000 
lattice-minimize  \
	dirUpdateScheme      L-BFGS \
	linminMethod         DirUpdateRecommended \
	nIterations          0 \
	history              15 \
	knormThreshold       0 \
	energyDiffThreshold  1e-06 \
	nEnergyDiff          2 \
	alphaTstart          1 \
	alphaTmin            1e-10 \
	updateTestStepSize   yes \
	alphaTreduceFactor   0.1 \
	alphaTincreaseFactor 3 \
	nAlphaAdjustMax      3 \
	wolfeEnergy          0.0001 \
	wolfeGradient        0.9 \
	fdTest               no
lcao-params -1 1e-06 1e-05
pcm-variant GLSSA13
spintype z-spin
subspace-rotation-factor 1 yes
symmetries automatic
symmetry-threshold 0.0001



---------- Setting up symmetries ----------

Found 24 point-group symmetries of the bravais lattice
Found 24 space-group symmetries with basis
Applied RMS atom displacement 0 bohrs to make symmetries exact.

---------- Initializing the Grid ----------
R = 
[      9.45497     -4.72749            0  ]
[            0      8.18825            0  ]
[            0            0           40  ]
unit cell volume = 3096.79
G =
[   0.664538   0.383671         -0  ]
[          0   0.767342         -0  ]
[         -0         -0    0.15708  ]
Minimum fftbox size, Smin = [  40  40  164  ]
Chosen fftbox size, S = [  40  40  168  ]

---------- Exchange Correlation functional ----------
Initalized PBE GGA exchange.
Initalized PBE GGA correlation.

---------- Setting up pseudopotentials ----------
Width of ionic core gaussian charges (only for fluid interactions / plotting) set to 0

Reading pseudopotential file '/home/gridsan/aligho/DFT/build-Nov24/pseudopotentials/SG15/Cs_ONCV_PBE.upf':
  'Cs' pseudopotential, 'PBE' functional
  Generated using ONCVPSP code by D. R. Hamann
  Author: Martin Schlipf and Francois Gygi  Date: 150915.
  9 valence electrons, 3 orbitals, 6 projectors, 2414 radial grid points, with lMax = 2
  Transforming local potential to a uniform radial grid of dG=0.02 with 1489 points.
  Transforming nonlocal projectors to a uniform radial grid of dG=0.02 with 432 points.
    5S    l: 0   occupation:  2.0   eigenvalue: -0.982388
    5P    l: 1   occupation:  6.0   eigenvalue: -0.496786
    6S    l: 0   occupation:  1.0   eigenvalue: -0.076670
  Transforming atomic orbitals to a uniform radial grid of dG=0.02 with 432 points.
  Core radius for overlap checks: 2.06 bohrs.
  Reading pulay file /home/gridsan/aligho/DFT/build-Nov24/pseudopotentials/SG15/Cs_ONCV_PBE.pulay ... using dE_dnG = -1.008762e-04 computed for Ecut = 20.

Initialized 1 species with 1 total atoms.

Folded 1 k-points by 12x12x1 to 144 k-points.

---------- Setting up k-points, bands, fillings ----------
Reduced to 19 k-points under symmetry. 
Computing the number of bands and number of electrons
Calculating initial fillings.
nElectrons:   9.000000   nBands: 6   nStates: 38

----- Setting up reduced wavefunction bases (one per k-point) -----
average nbasis = 13230.521 , ideal nbasis = 13229.709

---------- Setting up coulomb interaction ----------
Initialized slab truncation along lattice direction 001

---------- Setting up 2D ewald sum ----------
Optimum gaussian width for ewald sums = 5.249020 bohr.
Real space sums over 289 unit cells with max indices [  8  8  0  ]
Reciprocal space sums over 81 terms with max indices [  4  4  0  ]

---------- Allocating electronic variables ----------
Initializing wave functions:  linear combination of atomic orbitals
Note: number of bands (6) exceeds available atomic orbitals (5)
Cs pseudo-atom occupations:   s ( 2 1 )  p ( 6 )
	FillingsUpdate:  mu: -0.091623279  nElectrons: 9.000000  magneticMoment: [ Abs: 0.52000  Tot: +0.52000 ]
LCAOMinimize: Iter:   0  F: -20.1760927343699841  |grad|_K:  3.047e-05  alpha:  1.000e+00
	FillingsUpdate:  mu: -0.091608892  nElectrons: 9.000000  magneticMoment: [ Abs: 0.52000  Tot: +0.52000 ]
LCAOMinimize: Iter:   1  F: -20.1760933561396989  |grad|_K:  3.093e-07  alpha:  9.792e-01  linmin: -3.001e-02  cgtest:  2.622e-01  t[s]:      4.54
LCAOMinimize: Encountered beta<0, resetting CG.
	FillingsUpdate:  mu: -0.091608985  nElectrons: 9.000000  magneticMoment: [ Abs: 0.52000  Tot: +0.52000 ]
LCAOMinimize: Iter:   2  F: -20.1760933562044293  |grad|_K:  3.017e-09  alpha:  9.918e-01  linmin: -1.127e-01  cgtest:  8.670e-01  t[s]:      5.73
LCAOMinimize: Encountered beta<0, resetting CG.
LCAOMinimize: Converged (|Delta F|<1.000000e-06 for 2 iters).


---- Citations for features of the code used in this run ----

   Software package:
      R. Sundararaman, K. Letchworth-Weaver, K.A. Schwarz, D. Gunceler, Y. Ozhabes and T.A. Arias, 'JDFTx: software for joint density-functional theory', SoftwareX 6, 278 (2017)

   gga-PBE exchange-correlation functional:
      J.P. Perdew, K. Burke and M. Ernzerhof, Phys. Rev. Lett. 77, 3865 (1996)

   Pseudopotentials:
      M Schlipf and F Gygi, Comput. Phys. Commun. 196, 36 (2015)

   Truncated Coulomb potentials:
      R. Sundararaman and T.A. Arias, Phys. Rev. B 87, 165122 (2013)

This list may not be complete. Please suggest additional citations or
report any other bugs at https://github.com/shankar1729/jdftx/issues

Initialization completed successfully at t[s]:      5.82


-------- Electronic minimization -----------
Will mix electronic density at each iteration.
	FillingsUpdate:  mu: -0.091608985  nElectrons: 9.000000  magneticMoment: [ Abs: 0.52000  Tot: +0.52000 ]
	FillingsUpdate:  mu: -0.105448971  nElectrons: 9.000000  magneticMoment: [ Abs: 0.52000  Tot: +0.52000 ]
SCF: Cycle:  0   F: -20.184039860369573   dF: -7.947e-03   |Residual|: 1.532e-02   |deigs|: 1.880e-01  t[s]:      8.27
	FillingsUpdate:  mu: -0.105530411  nElectrons: 9.000000  magneticMoment: [ Abs: 0.52000  Tot: +0.52000 ]
SCF: Cycle:  1   F: -20.184786740670319   dF: -7.469e-04   |Residual|: 1.182e-02   |deigs|: 5.338e-03  t[s]:     10.04
	FillingsUpdate:  mu: -0.102739704  nElectrons: 9.000000  magneticMoment: [ Abs: 0.52793  Tot: +0.52000 ]
SCF: Cycle:  2   F: -20.185157399087284   dF: -3.707e-04   |Residual|: 6.184e-03   |deigs|: 2.295e-03  t[s]:     11.87
	FillingsUpdate:  mu: -0.100759430  nElectrons: 9.000000  magneticMoment: [ Abs: 0.52000  Tot: +0.52000 ]
SCF: Cycle:  3   F: -20.185335961665391   dF: -1.786e-04   |Residual|: 4.046e-03   |deigs|: 2.939e-03  t[s]:     13.67
	FillingsUpdate:  mu: -0.098213932  nElectrons: 9.000000  magneticMoment: [ Abs: 0.52003  Tot: +0.52000 ]
SCF: Cycle:  4   F: -20.185420520647106   dF: -8.456e-05   |Residual|: 3.005e-03   |deigs|: 3.167e-03  t[s]:     15.53
	FillingsUpdate:  mu: -0.095478665  nElectrons: 9.000000  magneticMoment: [ Abs: 0.52527  Tot: +0.52000 ]
SCF: Cycle:  5   F: -20.185467387107447   dF: -4.687e-05   |Residual|: 2.598e-03   |deigs|: 3.426e-03  t[s]:     17.40
	FillingsUpdate:  mu: -0.092654096  nElectrons: 9.000000  magneticMoment: [ Abs: 0.53407  Tot: +0.52000 ]
SCF: Cycle:  6   F: -20.185469925265060   dF: -2.538e-06   |Residual|: 1.814e-03   |deigs|: 3.455e-03  t[s]:     19.29
	FillingsUpdate:  mu: -0.090046168  nElectrons: 9.000000  magneticMoment: [ Abs: 0.53238  Tot: +0.52000 ]
SCF: Cycle:  7   F: -20.185516720330583   dF: -4.680e-05   |Residual|: 1.500e-03   |deigs|: 2.869e-03  t[s]:     21.21
	FillingsUpdate:  mu: -0.089735999  nElectrons: 9.000000  magneticMoment: [ Abs: 0.52279  Tot: +0.52000 ]
SCF: Cycle:  8   F: -20.185548854962224   dF: -3.213e-05   |Residual|: 1.295e-03   |deigs|: 8.412e-04  t[s]:     23.20
	FillingsUpdate:  mu: -0.087843863  nElectrons: 9.000000  magneticMoment: [ Abs: 0.52456  Tot: +0.52000 ]
SCF: Cycle:  9   F: -20.185537078971823   dF: +1.178e-05   |Residual|: 1.062e-03   |deigs|: 2.005e-03  t[s]:     25.22
	FillingsUpdate:  mu: -0.085764833  nElectrons: 9.000000  magneticMoment: [ Abs: 0.52694  Tot: +0.52000 ]
SCF: Cycle: 10   F: -20.185533039039214   dF: +4.040e-06   |Residual|: 8.754e-04   |deigs|: 2.224e-03  t[s]:     27.18
	FillingsUpdate:  mu: -0.084516948  nElectrons: 9.000000  magneticMoment: [ Abs: 0.52611  Tot: +0.52000 ]
SCF: Cycle: 11   F: -20.185551493066498   dF: -1.845e-05   |Residual|: 8.011e-04   |deigs|: 1.344e-03  t[s]:     29.16
	FillingsUpdate:  mu: -0.083109698  nElectrons: 9.000000  magneticMoment: [ Abs: 0.52717  Tot: +0.52000 ]
SCF: Cycle: 12   F: -20.185576790382736   dF: -2.530e-05   |Residual|: 7.642e-04   |deigs|: 1.399e-03  t[s]:     31.15
	FillingsUpdate:  mu: -0.080944655  nElectrons: 9.000000  magneticMoment: [ Abs: 0.52710  Tot: +0.52000 ]
SCF: Cycle: 13   F: -20.185589030835036   dF: -1.224e-05   |Residual|: 6.918e-04   |deigs|: 2.230e-03  t[s]:     33.14
	FillingsUpdate:  mu: -0.078835545  nElectrons: 9.000000  magneticMoment: [ Abs: 0.52361  Tot: +0.52000 ]
SCF: Cycle: 14   F: -20.185598429104175   dF: -9.398e-06   |Residual|: 5.956e-04   |deigs|: 2.201e-03  t[s]:     35.13
	FillingsUpdate:  mu: -0.077635178  nElectrons: 9.000000  magneticMoment: [ Abs: 0.52115  Tot: +0.52000 ]
SCF: Cycle: 15   F: -20.185606971114243   dF: -8.542e-06   |Residual|: 4.217e-04   |deigs|: 1.340e-03  t[s]:     37.14
	FillingsUpdate:  mu: -0.076827697  nElectrons: 9.000000  magneticMoment: [ Abs: 0.52105  Tot: +0.52000 ]
SCF: Cycle: 16   F: -20.185610879983312   dF: -3.909e-06   |Residual|: 3.116e-04   |deigs|: 1.188e-03  t[s]:     39.17
	FillingsUpdate:  mu: -0.076529127  nElectrons: 9.000000  magneticMoment: [ Abs: 0.52030  Tot: +0.52000 ]
SCF: Cycle: 17   F: -20.185613455202297   dF: -2.575e-06   |Residual|: 2.112e-04   |deigs|: 8.786e-04  t[s]:     41.15
	FillingsUpdate:  mu: -0.076758835  nElectrons: 9.000000  magneticMoment: [ Abs: 0.52092  Tot: +0.52000 ]
SCF: Cycle: 18   F: -20.185614205620968   dF: -7.504e-07   |Residual|: 1.295e-04   |deigs|: 6.314e-04  t[s]:     43.16
	FillingsUpdate:  mu: -0.076775415  nElectrons: 9.000000  magneticMoment: [ Abs: 0.52049  Tot: +0.52000 ]
SCF: Cycle: 19   F: -20.185614792605328   dF: -5.870e-07   |Residual|: 6.368e-05   |deigs|: 4.682e-04  t[s]:     45.19
	FillingsUpdate:  mu: -0.076868808  nElectrons: 9.000000  magneticMoment: [ Abs: 0.52034  Tot: +0.52000 ]
SCF: Cycle: 20   F: -20.185614954033870   dF: -1.614e-07   |Residual|: 3.443e-05   |deigs|: 4.002e-04  t[s]:     47.20
	FillingsUpdate:  mu: -0.076836764  nElectrons: 9.000000  magneticMoment: [ Abs: 0.52026  Tot: +0.52000 ]
SCF: Cycle: 21   F: -20.185615046647765   dF: -9.261e-08   |Residual|: 2.366e-05   |deigs|: 3.577e-04  t[s]:     49.18
	FillingsUpdate:  mu: -0.076858560  nElectrons: 9.000000  magneticMoment: [ Abs: 0.52030  Tot: +0.52000 ]
SCF: Cycle: 22   F: -20.185615085539041   dF: -3.889e-08   |Residual|: 1.552e-05   |deigs|: 2.375e-04  t[s]:     51.13
	FillingsUpdate:  mu: -0.076862315  nElectrons: 9.000000  magneticMoment: [ Abs: 0.52034  Tot: +0.52000 ]
SCF: Cycle: 23   F: -20.185615111940049   dF: -2.640e-08   |Residual|: 1.134e-05   |deigs|: 1.639e-04  t[s]:     53.14
	FillingsUpdate:  mu: -0.076865565  nElectrons: 9.000000  magneticMoment: [ Abs: 0.52034  Tot: +0.52000 ]
SCF: Cycle: 24   F: -20.185615126736149   dF: -1.480e-08   |Residual|: 6.568e-06   |deigs|: 1.402e-04  t[s]:     55.13
	FillingsUpdate:  mu: -0.076858520  nElectrons: 9.000000  magneticMoment: [ Abs: 0.52033  Tot: +0.52000 ]
SCF: Cycle: 25   F: -20.185615134178850   dF: -7.443e-09   |Residual|: 5.405e-06   |deigs|: 9.482e-04  t[s]:     57.18
	FillingsUpdate:  mu: -0.076856012  nElectrons: 9.000000  magneticMoment: [ Abs: 0.52031  Tot: +0.52000 ]
SCF: Cycle: 26   F: -20.185615137362728   dF: -3.184e-09   |Residual|: 5.303e-06   |deigs|: 5.117e-04  t[s]:     59.17
SCF: Converged (|Delta E|<1.000000e-08 for 2 iters).


# Ionic positions in lattice coordinates:
ion Cs   0.000000000000000   0.000000000000000   0.000000000000000 0

# Forces in Lattice coordinates:
force Cs  -0.000000000000000   0.000000000000000   0.000000000000000 0

# Energy components:
   Eewald =      -18.0480261003326561
       EH =       -1.7914847641722809
     Eloc =       -5.7896044333210437
      Enl =        3.4395971531604315
   Epulay =        0.0000000264484078
      Exc =       -3.1479543183071703
       KE =        5.1518580799542528
-------------------------------------
     Etot =      -20.1856143565700634
       TS =        0.0000007807926644
-------------------------------------
        F =      -20.1856151373627277

IonicMinimize: Iter:   0  F: -20.185615137362728  |grad|_K:  0.000e+00  t[s]:     59.28
IonicMinimize: Converged (|grad|_K<1.000000e-04).

#--- Lowdin population analysis ---
# oxidation-state Cs +0.087
# magnetic-moments Cs +0.443

End date and time: Sun Feb  6 13:30:06 2022  (Duration: 0-0:00:59.30)
Done!
