
*************** JDFTx 1.6.0 (git hash 42ebbcc2) ***************

Start date and time: Sun Feb  6 13:15:48 2022
Executable jdftx with command-line: -i Alkali.in
Running on hosts (process indices):  d-6-7-4 (0-18)
Divided in process groups (process indices):  0 (0)  1 (1)  2 (2)  3 (3)  4 (4)  5 (5)  6 (6)  7 (7)  8 (8)  9 (9)  10 (10)  11 (11)  12 (12)  13 (13)  14 (14)  15 (15)  16 (16)  17 (17)  18 (18)
Resource initialization completed at t[s]:      0.00
Run totals: 19 processes, 48 threads, 0 GPUs


Input parsed successfully to the following command list (including defaults):

basis kpoint-dependent
coords-type Lattice
core-overlap-check vector
coulomb-interaction Slab 001
davidson-band-ratio 1.1
dump End None
dump-name $INPUT.$VAR
elec-cutoff 20
elec-eigen-algo Davidson
elec-ex-corr gga-PBE
elec-initial-magnetization -0.460000 yes
elec-smearing Fermi 1e-05
electronic-minimize  \
	dirUpdateScheme      FletcherReeves \
	linminMethod         DirUpdateRecommended \
	nIterations          100 \
	history              15 \
	knormThreshold       0 \
	energyDiffThreshold  1e-08 \
	nEnergyDiff          2 \
	alphaTstart          1 \
	alphaTmin            1e-10 \
	updateTestStepSize   yes \
	alphaTreduceFactor   0.1 \
	alphaTincreaseFactor 3 \
	nAlphaAdjustMax      3 \
	wolfeEnergy          0.0001 \
	wolfeGradient        0.9 \
	fdTest               no
electronic-scf  \
	nIterations	10000 \
	energyDiffThreshold	1e-08 \
	residualThreshold	1e-07 \
	mixFraction	0.5 \
	qMetric	0.8 \
	history	10 \
	nEigSteps	2 \
	eigDiffThreshold	1e-08 \
	mixedVariable	Density \
	qKerker	0.8 \
	qKappa	-1 \
	verbose	no \
	mixFractionMag	1.5
exchange-regularization WignerSeitzTruncated
fluid None
fluid-ex-corr (null) lda-PZ
fluid-gummel-loop 10 1.000000e-05
fluid-minimize  \
	dirUpdateScheme      PolakRibiere \
	linminMethod         DirUpdateRecommended \
	nIterations          100 \
	history              15 \
	knormThreshold       0 \
	energyDiffThreshold  0 \
	nEnergyDiff          2 \
	alphaTstart          1 \
	alphaTmin            1e-10 \
	updateTestStepSize   yes \
	alphaTreduceFactor   0.1 \
	alphaTincreaseFactor 3 \
	nAlphaAdjustMax      3 \
	wolfeEnergy          0.0001 \
	wolfeGradient        0.9 \
	fdTest               no
fluid-solvent H2O 55.338 ScalarEOS \
	epsBulk 78.4 \
	pMol 0.92466 \
	epsInf 1.77 \
	Pvap 1.06736e-10 \
	sigmaBulk 4.62e-05 \
	Rvdw 2.61727 \
	Res 1.42 \
	tauNuc 343133 \
	poleEl 15 7 1
forces-output-coords Positions
ion Cs   0.000000000000000   0.000000000000000   0.000000000000000 0
ion-species SG15/$ID_ONCV_PBE.upf
ion-width 0
ionic-minimize  \
	dirUpdateScheme      L-BFGS \
	linminMethod         DirUpdateRecommended \
	nIterations          0 \
	history              15 \
	knormThreshold       0.0001 \
	energyDiffThreshold  1e-06 \
	nEnergyDiff          2 \
	alphaTstart          1 \
	alphaTmin            1e-10 \
	updateTestStepSize   yes \
	alphaTreduceFactor   0.1 \
	alphaTincreaseFactor 3 \
	nAlphaAdjustMax      3 \
	wolfeEnergy          0.0001 \
	wolfeGradient        0.9 \
	fdTest               no
kpoint   0.000000000000   0.000000000000   0.000000000000  1.00000000000000
kpoint-folding 12 12 1 
latt-move-scale 1 1 1
latt-scale 2 2 1 
lattice  \
	   4.727486978767153   -2.363743489383575    0.000000000000000  \
	  -0.000000000000000    4.094123819672498    0.000000000000000  \
	   0.000000000000000    0.000000000000000   40.000000000000000 
lattice-minimize  \
	dirUpdateScheme      L-BFGS \
	linminMethod         DirUpdateRecommended \
	nIterations          0 \
	history              15 \
	knormThreshold       0 \
	energyDiffThreshold  1e-06 \
	nEnergyDiff          2 \
	alphaTstart          1 \
	alphaTmin            1e-10 \
	updateTestStepSize   yes \
	alphaTreduceFactor   0.1 \
	alphaTincreaseFactor 3 \
	nAlphaAdjustMax      3 \
	wolfeEnergy          0.0001 \
	wolfeGradient        0.9 \
	fdTest               no
lcao-params -1 1e-06 1e-05
pcm-variant GLSSA13
spintype z-spin
subspace-rotation-factor 1 yes
symmetries automatic
symmetry-threshold 0.0001



---------- Setting up symmetries ----------

Found 24 point-group symmetries of the bravais lattice
Found 24 space-group symmetries with basis
Applied RMS atom displacement 0 bohrs to make symmetries exact.

---------- Initializing the Grid ----------
R = 
[      9.45497     -4.72749            0  ]
[            0      8.18825            0  ]
[            0            0           40  ]
unit cell volume = 3096.79
G =
[   0.664538   0.383671         -0  ]
[          0   0.767342         -0  ]
[         -0         -0    0.15708  ]
Minimum fftbox size, Smin = [  40  40  164  ]
Chosen fftbox size, S = [  40  40  168  ]

---------- Exchange Correlation functional ----------
Initalized PBE GGA exchange.
Initalized PBE GGA correlation.

---------- Setting up pseudopotentials ----------
Width of ionic core gaussian charges (only for fluid interactions / plotting) set to 0

Reading pseudopotential file '/home/gridsan/aligho/DFT/build-Nov24/pseudopotentials/SG15/Cs_ONCV_PBE.upf':
  'Cs' pseudopotential, 'PBE' functional
  Generated using ONCVPSP code by D. R. Hamann
  Author: Martin Schlipf and Francois Gygi  Date: 150915.
  9 valence electrons, 3 orbitals, 6 projectors, 2414 radial grid points, with lMax = 2
  Transforming local potential to a uniform radial grid of dG=0.02 with 1489 points.
  Transforming nonlocal projectors to a uniform radial grid of dG=0.02 with 432 points.
    5S    l: 0   occupation:  2.0   eigenvalue: -0.982388
    5P    l: 1   occupation:  6.0   eigenvalue: -0.496786
    6S    l: 0   occupation:  1.0   eigenvalue: -0.076670
  Transforming atomic orbitals to a uniform radial grid of dG=0.02 with 432 points.
  Core radius for overlap checks: 2.06 bohrs.
  Reading pulay file /home/gridsan/aligho/DFT/build-Nov24/pseudopotentials/SG15/Cs_ONCV_PBE.pulay ... using dE_dnG = -1.008762e-04 computed for Ecut = 20.

Initialized 1 species with 1 total atoms.

Folded 1 k-points by 12x12x1 to 144 k-points.

---------- Setting up k-points, bands, fillings ----------
Reduced to 19 k-points under symmetry. 
Computing the number of bands and number of electrons
Calculating initial fillings.
nElectrons:   9.000000   nBands: 6   nStates: 38

----- Setting up reduced wavefunction bases (one per k-point) -----
average nbasis = 13230.521 , ideal nbasis = 13229.709

---------- Setting up coulomb interaction ----------
Initialized slab truncation along lattice direction 001

---------- Setting up 2D ewald sum ----------
Optimum gaussian width for ewald sums = 5.249020 bohr.
Real space sums over 289 unit cells with max indices [  8  8  0  ]
Reciprocal space sums over 81 terms with max indices [  4  4  0  ]

---------- Allocating electronic variables ----------
Initializing wave functions:  linear combination of atomic orbitals
Note: number of bands (6) exceeds available atomic orbitals (5)
Cs pseudo-atom occupations:   s ( 2 1 )  p ( 6 )
	FillingsUpdate:  mu: -0.089193638  nElectrons: 9.000000  magneticMoment: [ Abs: 0.46000  Tot: -0.46000 ]
LCAOMinimize: Iter:   0  F: -20.1774096907313343  |grad|_K:  3.259e-05  alpha:  1.000e+00
	FillingsUpdate:  mu: -0.089179436  nElectrons: 9.000000  magneticMoment: [ Abs: 0.46000  Tot: -0.46000 ]
LCAOMinimize: Iter:   1  F: -20.1774104012667621  |grad|_K:  3.182e-07  alpha:  9.782e-01  linmin: -3.925e-02  cgtest:  3.051e-01  t[s]:      4.65
LCAOMinimize: Encountered beta<0, resetting CG.
	FillingsUpdate:  mu: -0.089179549  nElectrons: 9.000000  magneticMoment: [ Abs: 0.46000  Tot: -0.46000 ]
LCAOMinimize: Iter:   2  F: -20.1774104013367115  |grad|_K:  2.823e-09  alpha:  1.009e+00  linmin:  1.326e-01  cgtest: -9.297e-01  t[s]:      5.80
LCAOMinimize: Converged (|Delta F|<1.000000e-06 for 2 iters).


---- Citations for features of the code used in this run ----

   Software package:
      R. Sundararaman, K. Letchworth-Weaver, K.A. Schwarz, D. Gunceler, Y. Ozhabes and T.A. Arias, 'JDFTx: software for joint density-functional theory', SoftwareX 6, 278 (2017)

   gga-PBE exchange-correlation functional:
      J.P. Perdew, K. Burke and M. Ernzerhof, Phys. Rev. Lett. 77, 3865 (1996)

   Pseudopotentials:
      M Schlipf and F Gygi, Comput. Phys. Commun. 196, 36 (2015)

   Truncated Coulomb potentials:
      R. Sundararaman and T.A. Arias, Phys. Rev. B 87, 165122 (2013)

This list may not be complete. Please suggest additional citations or
report any other bugs at https://github.com/shankar1729/jdftx/issues

Initialization completed successfully at t[s]:      5.89


-------- Electronic minimization -----------
Will mix electronic density at each iteration.
	FillingsUpdate:  mu: -0.089179549  nElectrons: 9.000000  magneticMoment: [ Abs: 0.46000  Tot: -0.46000 ]
	FillingsUpdate:  mu: -0.103147144  nElectrons: 9.000000  magneticMoment: [ Abs: 0.46000  Tot: -0.46000 ]
SCF: Cycle:  0   F: -20.184725529103392   dF: -7.315e-03   |Residual|: 1.468e-02   |deigs|: 1.880e-01  t[s]:      8.30
	FillingsUpdate:  mu: -0.103584960  nElectrons: 9.000000  magneticMoment: [ Abs: 0.46000  Tot: -0.46000 ]
SCF: Cycle:  1   F: -20.185440576459165   dF: -7.150e-04   |Residual|: 1.143e-02   |deigs|: 5.357e-03  t[s]:     10.10
	FillingsUpdate:  mu: -0.100861592  nElectrons: 9.000000  magneticMoment: [ Abs: 0.46861  Tot: -0.46000 ]
SCF: Cycle:  2   F: -20.185798814749596   dF: -3.582e-04   |Residual|: 5.842e-03   |deigs|: 2.443e-03  t[s]:     11.97
	FillingsUpdate:  mu: -0.098948206  nElectrons: 9.000000  magneticMoment: [ Abs: 0.46000  Tot: -0.46000 ]
SCF: Cycle:  3   F: -20.185963024441598   dF: -1.642e-04   |Residual|: 3.892e-03   |deigs|: 2.823e-03  t[s]:     13.80
	FillingsUpdate:  mu: -0.096467499  nElectrons: 9.000000  magneticMoment: [ Abs: 0.46032  Tot: -0.46000 ]
SCF: Cycle:  4   F: -20.186041675260995   dF: -7.865e-05   |Residual|: 2.907e-03   |deigs|: 3.139e-03  t[s]:     15.65
	FillingsUpdate:  mu: -0.093846152  nElectrons: 9.000000  magneticMoment: [ Abs: 0.46548  Tot: -0.46000 ]
SCF: Cycle:  5   F: -20.186084409737390   dF: -4.273e-05   |Residual|: 2.519e-03   |deigs|: 3.310e-03  t[s]:     17.52
	FillingsUpdate:  mu: -0.091006865  nElectrons: 9.000000  magneticMoment: [ Abs: 0.47357  Tot: -0.46000 ]
SCF: Cycle:  6   F: -20.186086322417868   dF: -1.913e-06   |Residual|: 1.748e-03   |deigs|: 3.403e-03  t[s]:     19.41
	FillingsUpdate:  mu: -0.088445100  nElectrons: 9.000000  magneticMoment: [ Abs: 0.47198  Tot: -0.46000 ]
SCF: Cycle:  7   F: -20.186121630807911   dF: -3.531e-05   |Residual|: 1.445e-03   |deigs|: 2.704e-03  t[s]:     21.35
	FillingsUpdate:  mu: -0.087835341  nElectrons: 9.000000  magneticMoment: [ Abs: 0.46321  Tot: -0.46000 ]
SCF: Cycle:  8   F: -20.186155455477476   dF: -3.382e-05   |Residual|: 1.208e-03   |deigs|: 1.311e-03  t[s]:     23.37
	FillingsUpdate:  mu: -0.086079252  nElectrons: 9.000000  magneticMoment: [ Abs: 0.46443  Tot: -0.46000 ]
SCF: Cycle:  9   F: -20.186144333755394   dF: +1.112e-05   |Residual|: 1.004e-03   |deigs|: 1.828e-03  t[s]:     25.36
	FillingsUpdate:  mu: -0.083947887  nElectrons: 9.000000  magneticMoment: [ Abs: 0.46686  Tot: -0.46000 ]
SCF: Cycle: 10   F: -20.186138044405830   dF: +6.289e-06   |Residual|: 8.581e-04   |deigs|: 2.255e-03  t[s]:     27.31
	FillingsUpdate:  mu: -0.082589141  nElectrons: 9.000000  magneticMoment: [ Abs: 0.46609  Tot: -0.46000 ]
SCF: Cycle: 11   F: -20.186153993293910   dF: -1.595e-05   |Residual|: 7.795e-04   |deigs|: 1.430e-03  t[s]:     29.34
	FillingsUpdate:  mu: -0.081201490  nElectrons: 9.000000  magneticMoment: [ Abs: 0.46650  Tot: -0.46000 ]
SCF: Cycle: 12   F: -20.186181742640240   dF: -2.775e-05   |Residual|: 7.326e-04   |deigs|: 1.350e-03  t[s]:     31.40
	FillingsUpdate:  mu: -0.079210894  nElectrons: 9.000000  magneticMoment: [ Abs: 0.46641  Tot: -0.46000 ]
SCF: Cycle: 13   F: -20.186193657993741   dF: -1.192e-05   |Residual|: 6.779e-04   |deigs|: 2.033e-03  t[s]:     33.39
	FillingsUpdate:  mu: -0.076984092  nElectrons: 9.000000  magneticMoment: [ Abs: 0.46296  Tot: -0.46000 ]
SCF: Cycle: 14   F: -20.186203814159050   dF: -1.016e-05   |Residual|: 5.660e-04   |deigs|: 2.313e-03  t[s]:     35.46
	FillingsUpdate:  mu: -0.076186414  nElectrons: 9.000000  magneticMoment: [ Abs: 0.46120  Tot: -0.46000 ]
SCF: Cycle: 15   F: -20.186210979167136   dF: -7.165e-06   |Residual|: 4.078e-04   |deigs|: 8.678e-04  t[s]:     37.44
	FillingsUpdate:  mu: -0.075252163  nElectrons: 9.000000  magneticMoment: [ Abs: 0.46098  Tot: -0.46000 ]
SCF: Cycle: 16   F: -20.186215243419237   dF: -4.264e-06   |Residual|: 2.961e-04   |deigs|: 1.028e-03  t[s]:     39.47
	FillingsUpdate:  mu: -0.075009801  nElectrons: 9.000000  magneticMoment: [ Abs: 0.46030  Tot: -0.46000 ]
SCF: Cycle: 17   F: -20.186216881421419   dF: -1.638e-06   |Residual|: 1.927e-04   |deigs|: 9.512e-04  t[s]:     41.55
	FillingsUpdate:  mu: -0.075002763  nElectrons: 9.000000  magneticMoment: [ Abs: 0.46064  Tot: -0.46000 ]
SCF: Cycle: 18   F: -20.186218224410410   dF: -1.343e-06   |Residual|: 1.355e-04   |deigs|: 4.095e-04  t[s]:     43.57
	FillingsUpdate:  mu: -0.075254626  nElectrons: 9.000000  magneticMoment: [ Abs: 0.46062  Tot: -0.46000 ]
SCF: Cycle: 19   F: -20.186218616195664   dF: -3.918e-07   |Residual|: 6.802e-05   |deigs|: 4.092e-04  t[s]:     45.55
	FillingsUpdate:  mu: -0.075270623  nElectrons: 9.000000  magneticMoment: [ Abs: 0.46023  Tot: -0.46000 ]
SCF: Cycle: 20   F: -20.186218767920579   dF: -1.517e-07   |Residual|: 3.564e-05   |deigs|: 2.006e-04  t[s]:     47.55
	FillingsUpdate:  mu: -0.075273140  nElectrons: 9.000000  magneticMoment: [ Abs: 0.46019  Tot: -0.46000 ]
SCF: Cycle: 21   F: -20.186218855835840   dF: -8.792e-08   |Residual|: 1.955e-05   |deigs|: 2.394e-04  t[s]:     49.55
	FillingsUpdate:  mu: -0.075279512  nElectrons: 9.000000  magneticMoment: [ Abs: 0.46021  Tot: -0.46000 ]
SCF: Cycle: 22   F: -20.186218893011009   dF: -3.718e-08   |Residual|: 1.437e-05   |deigs|: 3.579e-04  t[s]:     51.57
	FillingsUpdate:  mu: -0.075280214  nElectrons: 9.000000  magneticMoment: [ Abs: 0.46027  Tot: -0.46000 ]
SCF: Cycle: 23   F: -20.186218922239135   dF: -2.923e-08   |Residual|: 1.055e-05   |deigs|: 1.086e-04  t[s]:     53.60
	FillingsUpdate:  mu: -0.075291350  nElectrons: 9.000000  magneticMoment: [ Abs: 0.46028  Tot: -0.46000 ]
SCF: Cycle: 24   F: -20.186218936717953   dF: -1.448e-08   |Residual|: 6.639e-06   |deigs|: 1.027e-04  t[s]:     55.58
	FillingsUpdate:  mu: -0.075293655  nElectrons: 9.000000  magneticMoment: [ Abs: 0.46027  Tot: -0.46000 ]
SCF: Cycle: 25   F: -20.186218944691539   dF: -7.974e-09   |Residual|: 4.834e-06   |deigs|: 5.809e-04  t[s]:     57.58
	FillingsUpdate:  mu: -0.075289009  nElectrons: 9.000000  magneticMoment: [ Abs: 0.46026  Tot: -0.46000 ]
SCF: Cycle: 26   F: -20.186218948016879   dF: -3.325e-09   |Residual|: 3.774e-06   |deigs|: 4.419e-04  t[s]:     59.53
SCF: Converged (|Delta E|<1.000000e-08 for 2 iters).


# Ionic positions in lattice coordinates:
ion Cs   0.000000000000000   0.000000000000000   0.000000000000000 0

# Forces in Lattice coordinates:
force Cs  -0.000000000000000  -0.000000000000000   0.000000000000000 0

# Energy components:
   Eewald =      -18.0480261003326561
       EH =       -1.7988916744115855
     Eloc =       -5.7825734709100693
      Enl =        3.4401034193048607
   Epulay =        0.0000000264484078
      Exc =       -3.1470864512928669
       KE =        5.1502557807170586
-------------------------------------
     Etot =      -20.1862184704768524
       TS =        0.0000004775400274
-------------------------------------
        F =      -20.1862189480168794

IonicMinimize: Iter:   0  F: -20.186218948016879  |grad|_K:  0.000e+00  t[s]:     59.65
IonicMinimize: Converged (|grad|_K<1.000000e-04).

#--- Lowdin population analysis ---
# oxidation-state Cs +0.080
# magnetic-moments Cs -0.392

End date and time: Sun Feb  6 13:16:48 2022  (Duration: 0-0:00:59.67)
Done!
