
*************** JDFTx 1.6.0 (git hash 42ebbcc2) ***************

Start date and time: Sun Feb  6 13:09:09 2022
Executable jdftx with command-line: -i Alkali.in
Running on hosts (process indices):  d-16-6-2 (0-18)
Divided in process groups (process indices):  0 (0)  1 (1)  2 (2)  3 (3)  4 (4)  5 (5)  6 (6)  7 (7)  8 (8)  9 (9)  10 (10)  11 (11)  12 (12)  13 (13)  14 (14)  15 (15)  16 (16)  17 (17)  18 (18)
Resource initialization completed at t[s]:      0.00
Run totals: 19 processes, 48 threads, 0 GPUs


Input parsed successfully to the following command list (including defaults):

basis kpoint-dependent
coords-type Lattice
core-overlap-check vector
coulomb-interaction Slab 001
davidson-band-ratio 1.1
dump End None
dump-name $INPUT.$VAR
elec-cutoff 20
elec-eigen-algo Davidson
elec-ex-corr gga-PBE
elec-initial-magnetization -0.660000 yes
elec-smearing Fermi 1e-05
electronic-minimize  \
	dirUpdateScheme      FletcherReeves \
	linminMethod         DirUpdateRecommended \
	nIterations          100 \
	history              15 \
	knormThreshold       0 \
	energyDiffThreshold  1e-08 \
	nEnergyDiff          2 \
	alphaTstart          1 \
	alphaTmin            1e-10 \
	updateTestStepSize   yes \
	alphaTreduceFactor   0.1 \
	alphaTincreaseFactor 3 \
	nAlphaAdjustMax      3 \
	wolfeEnergy          0.0001 \
	wolfeGradient        0.9 \
	fdTest               no
electronic-scf  \
	nIterations	10000 \
	energyDiffThreshold	1e-08 \
	residualThreshold	1e-07 \
	mixFraction	0.5 \
	qMetric	0.8 \
	history	10 \
	nEigSteps	2 \
	eigDiffThreshold	1e-08 \
	mixedVariable	Density \
	qKerker	0.8 \
	qKappa	-1 \
	verbose	no \
	mixFractionMag	1.5
exchange-regularization WignerSeitzTruncated
fluid None
fluid-ex-corr (null) lda-PZ
fluid-gummel-loop 10 1.000000e-05
fluid-minimize  \
	dirUpdateScheme      PolakRibiere \
	linminMethod         DirUpdateRecommended \
	nIterations          100 \
	history              15 \
	knormThreshold       0 \
	energyDiffThreshold  0 \
	nEnergyDiff          2 \
	alphaTstart          1 \
	alphaTmin            1e-10 \
	updateTestStepSize   yes \
	alphaTreduceFactor   0.1 \
	alphaTincreaseFactor 3 \
	nAlphaAdjustMax      3 \
	wolfeEnergy          0.0001 \
	wolfeGradient        0.9 \
	fdTest               no
fluid-solvent H2O 55.338 ScalarEOS \
	epsBulk 78.4 \
	pMol 0.92466 \
	epsInf 1.77 \
	Pvap 1.06736e-10 \
	sigmaBulk 4.62e-05 \
	Rvdw 2.61727 \
	Res 1.42 \
	tauNuc 343133 \
	poleEl 15 7 1
forces-output-coords Positions
ion Cs   0.000000000000000   0.000000000000000   0.000000000000000 0
ion-species SG15/$ID_ONCV_PBE.upf
ion-width 0
ionic-minimize  \
	dirUpdateScheme      L-BFGS \
	linminMethod         DirUpdateRecommended \
	nIterations          0 \
	history              15 \
	knormThreshold       0.0001 \
	energyDiffThreshold  1e-06 \
	nEnergyDiff          2 \
	alphaTstart          1 \
	alphaTmin            1e-10 \
	updateTestStepSize   yes \
	alphaTreduceFactor   0.1 \
	alphaTincreaseFactor 3 \
	nAlphaAdjustMax      3 \
	wolfeEnergy          0.0001 \
	wolfeGradient        0.9 \
	fdTest               no
kpoint   0.000000000000   0.000000000000   0.000000000000  1.00000000000000
kpoint-folding 12 12 1 
latt-move-scale 1 1 1
latt-scale 2 2 1 
lattice  \
	   4.727486978767153   -2.363743489383575    0.000000000000000  \
	  -0.000000000000000    4.094123819672498    0.000000000000000  \
	   0.000000000000000    0.000000000000000   40.000000000000000 
lattice-minimize  \
	dirUpdateScheme      L-BFGS \
	linminMethod         DirUpdateRecommended \
	nIterations          0 \
	history              15 \
	knormThreshold       0 \
	energyDiffThreshold  1e-06 \
	nEnergyDiff          2 \
	alphaTstart          1 \
	alphaTmin            1e-10 \
	updateTestStepSize   yes \
	alphaTreduceFactor   0.1 \
	alphaTincreaseFactor 3 \
	nAlphaAdjustMax      3 \
	wolfeEnergy          0.0001 \
	wolfeGradient        0.9 \
	fdTest               no
lcao-params -1 1e-06 1e-05
pcm-variant GLSSA13
spintype z-spin
subspace-rotation-factor 1 yes
symmetries automatic
symmetry-threshold 0.0001



---------- Setting up symmetries ----------

Found 24 point-group symmetries of the bravais lattice
Found 24 space-group symmetries with basis
Applied RMS atom displacement 0 bohrs to make symmetries exact.

---------- Initializing the Grid ----------
R = 
[      9.45497     -4.72749            0  ]
[            0      8.18825            0  ]
[            0            0           40  ]
unit cell volume = 3096.79
G =
[   0.664538   0.383671         -0  ]
[          0   0.767342         -0  ]
[         -0         -0    0.15708  ]
Minimum fftbox size, Smin = [  40  40  164  ]
Chosen fftbox size, S = [  40  40  168  ]

---------- Exchange Correlation functional ----------
Initalized PBE GGA exchange.
Initalized PBE GGA correlation.

---------- Setting up pseudopotentials ----------
Width of ionic core gaussian charges (only for fluid interactions / plotting) set to 0

Reading pseudopotential file '/home/gridsan/aligho/DFT/build-Nov24/pseudopotentials/SG15/Cs_ONCV_PBE.upf':
  'Cs' pseudopotential, 'PBE' functional
  Generated using ONCVPSP code by D. R. Hamann
  Author: Martin Schlipf and Francois Gygi  Date: 150915.
  9 valence electrons, 3 orbitals, 6 projectors, 2414 radial grid points, with lMax = 2
  Transforming local potential to a uniform radial grid of dG=0.02 with 1489 points.
  Transforming nonlocal projectors to a uniform radial grid of dG=0.02 with 432 points.
    5S    l: 0   occupation:  2.0   eigenvalue: -0.982388
    5P    l: 1   occupation:  6.0   eigenvalue: -0.496786
    6S    l: 0   occupation:  1.0   eigenvalue: -0.076670
  Transforming atomic orbitals to a uniform radial grid of dG=0.02 with 432 points.
  Core radius for overlap checks: 2.06 bohrs.
  Reading pulay file /home/gridsan/aligho/DFT/build-Nov24/pseudopotentials/SG15/Cs_ONCV_PBE.pulay ... using dE_dnG = -1.008762e-04 computed for Ecut = 20.

Initialized 1 species with 1 total atoms.

Folded 1 k-points by 12x12x1 to 144 k-points.

---------- Setting up k-points, bands, fillings ----------
Reduced to 19 k-points under symmetry. 
Computing the number of bands and number of electrons
Calculating initial fillings.
nElectrons:   9.000000   nBands: 6   nStates: 38

----- Setting up reduced wavefunction bases (one per k-point) -----
average nbasis = 13230.521 , ideal nbasis = 13229.709

---------- Setting up coulomb interaction ----------
Initialized slab truncation along lattice direction 001

---------- Setting up 2D ewald sum ----------
Optimum gaussian width for ewald sums = 5.249020 bohr.
Real space sums over 289 unit cells with max indices [  8  8  0  ]
Reciprocal space sums over 81 terms with max indices [  4  4  0  ]

---------- Allocating electronic variables ----------
Initializing wave functions:  linear combination of atomic orbitals
Note: number of bands (6) exceeds available atomic orbitals (5)
Cs pseudo-atom occupations:   s ( 2 1 )  p ( 6 )
	FillingsUpdate:  mu: -0.094076435  nElectrons: 9.000000  magneticMoment: [ Abs: 0.66000  Tot: -0.66000 ]
LCAOMinimize: Iter:   0  F: -20.1724350824106473  |grad|_K:  2.433e-05  alpha:  1.000e+00
	FillingsUpdate:  mu: -0.094066218  nElectrons: 9.000000  magneticMoment: [ Abs: 0.66000  Tot: -0.66000 ]
LCAOMinimize: Iter:   1  F: -20.1724354786492910  |grad|_K:  2.277e-07  alpha:  9.789e-01  linmin: -2.884e-02  cgtest:  2.455e-01  t[s]:      4.47
LCAOMinimize: Encountered beta<0, resetting CG.
	FillingsUpdate:  mu: -0.094066302  nElectrons: 9.000000  magneticMoment: [ Abs: 0.66000  Tot: -0.66000 ]
LCAOMinimize: Iter:   2  F: -20.1724354786845872  |grad|_K:  2.317e-09  alpha:  9.912e-01  linmin: -1.317e-01  cgtest:  9.057e-01  t[s]:      5.73
LCAOMinimize: Encountered beta<0, resetting CG.
LCAOMinimize: Converged (|Delta F|<1.000000e-06 for 2 iters).


---- Citations for features of the code used in this run ----

   Software package:
      R. Sundararaman, K. Letchworth-Weaver, K.A. Schwarz, D. Gunceler, Y. Ozhabes and T.A. Arias, 'JDFTx: software for joint density-functional theory', SoftwareX 6, 278 (2017)

   gga-PBE exchange-correlation functional:
      J.P. Perdew, K. Burke and M. Ernzerhof, Phys. Rev. Lett. 77, 3865 (1996)

   Pseudopotentials:
      M Schlipf and F Gygi, Comput. Phys. Commun. 196, 36 (2015)

   Truncated Coulomb potentials:
      R. Sundararaman and T.A. Arias, Phys. Rev. B 87, 165122 (2013)

This list may not be complete. Please suggest additional citations or
report any other bugs at https://github.com/shankar1729/jdftx/issues

Initialization completed successfully at t[s]:      5.81


-------- Electronic minimization -----------
Will mix electronic density at each iteration.
	FillingsUpdate:  mu: -0.094066302  nElectrons: 9.000000  magneticMoment: [ Abs: 0.66000  Tot: -0.66000 ]
	FillingsUpdate:  mu: -0.107592057  nElectrons: 9.000000  magneticMoment: [ Abs: 0.66000  Tot: -0.66000 ]
SCF: Cycle:  0   F: -20.182126117861987   dF: -9.691e-03   |Residual|: 1.689e-02   |deigs|: 1.880e-01  t[s]:      8.14
	FillingsUpdate:  mu: -0.107956506  nElectrons: 9.000000  magneticMoment: [ Abs: 0.66000  Tot: -0.66000 ]
SCF: Cycle:  1   F: -20.182956323473196   dF: -8.302e-04   |Residual|: 1.276e-02   |deigs|: 6.053e-03  t[s]:      9.91
	FillingsUpdate:  mu: -0.105009518  nElectrons: 9.000000  magneticMoment: [ Abs: 0.66707  Tot: -0.66000 ]
SCF: Cycle:  2   F: -20.183357041031783   dF: -4.007e-04   |Residual|: 7.136e-03   |deigs|: 2.072e-03  t[s]:     11.79
	FillingsUpdate:  mu: -0.102293807  nElectrons: 9.000000  magneticMoment: [ Abs: 0.66000  Tot: -0.66000 ]
SCF: Cycle:  3   F: -20.183541067605919   dF: -1.840e-04   |Residual|: 4.418e-03   |deigs|: 3.208e-03  t[s]:     13.60
	FillingsUpdate:  mu: -0.099271066  nElectrons: 9.000000  magneticMoment: [ Abs: 0.66008  Tot: -0.66000 ]
SCF: Cycle:  4   F: -20.183627816097594   dF: -8.675e-05   |Residual|: 3.280e-03   |deigs|: 3.381e-03  t[s]:     15.43
	FillingsUpdate:  mu: -0.096375981  nElectrons: 9.000000  magneticMoment: [ Abs: 0.66378  Tot: -0.66000 ]
SCF: Cycle:  5   F: -20.183668201744730   dF: -4.039e-05   |Residual|: 2.742e-03   |deigs|: 3.676e-03  t[s]:     17.37
	FillingsUpdate:  mu: -0.093132365  nElectrons: 9.000000  magneticMoment: [ Abs: 0.67392  Tot: -0.66000 ]
SCF: Cycle:  6   F: -20.183665164806317   dF: +3.037e-06   |Residual|: 1.985e-03   |deigs|: 3.874e-03  t[s]:     19.29
	FillingsUpdate:  mu: -0.090438196  nElectrons: 9.000000  magneticMoment: [ Abs: 0.67342  Tot: -0.66000 ]
SCF: Cycle:  7   F: -20.183733622430825   dF: -6.846e-05   |Residual|: 1.691e-03   |deigs|: 3.143e-03  t[s]:     21.21
	FillingsUpdate:  mu: -0.090962043  nElectrons: 9.000000  magneticMoment: [ Abs: 0.66172  Tot: -0.66000 ]
SCF: Cycle:  8   F: -20.183759920105775   dF: -2.630e-05   |Residual|: 1.478e-03   |deigs|: 8.598e-04  t[s]:     23.22
	FillingsUpdate:  mu: -0.088526551  nElectrons: 9.000000  magneticMoment: [ Abs: 0.66398  Tot: -0.66000 ]
SCF: Cycle:  9   F: -20.183750779534240   dF: +9.141e-06   |Residual|: 1.134e-03   |deigs|: 2.559e-03  t[s]:     25.17
	FillingsUpdate:  mu: -0.086418736  nElectrons: 9.000000  magneticMoment: [ Abs: 0.66675  Tot: -0.66000 ]
SCF: Cycle: 10   F: -20.183750158002912   dF: +6.215e-07   |Residual|: 9.196e-04   |deigs|: 2.273e-03  t[s]:     27.13
	FillingsUpdate:  mu: -0.085688081  nElectrons: 9.000000  magneticMoment: [ Abs: 0.66614  Tot: -0.66000 ]
SCF: Cycle: 11   F: -20.183771633986844   dF: -2.148e-05   |Residual|: 8.761e-04   |deigs|: 1.019e-03  t[s]:     29.16
	FillingsUpdate:  mu: -0.083971407  nElectrons: 9.000000  magneticMoment: [ Abs: 0.66813  Tot: -0.66000 ]
SCF: Cycle: 12   F: -20.183791983804220   dF: -2.035e-05   |Residual|: 7.984e-04   |deigs|: 1.852e-03  t[s]:     31.21
	FillingsUpdate:  mu: -0.081436056  nElectrons: 9.000000  magneticMoment: [ Abs: 0.66825  Tot: -0.66000 ]
SCF: Cycle: 13   F: -20.183804698375805   dF: -1.271e-05   |Residual|: 7.147e-04   |deigs|: 2.660e-03  t[s]:     33.22
	FillingsUpdate:  mu: -0.079423689  nElectrons: 9.000000  magneticMoment: [ Abs: 0.66450  Tot: -0.66000 ]
SCF: Cycle: 14   F: -20.183813569899733   dF: -8.872e-06   |Residual|: 6.577e-04   |deigs|: 2.130e-03  t[s]:     35.18
	FillingsUpdate:  mu: -0.078021187  nElectrons: 9.000000  magneticMoment: [ Abs: 0.66144  Tot: -0.66000 ]
SCF: Cycle: 15   F: -20.183822428753775   dF: -8.859e-06   |Residual|: 4.697e-04   |deigs|: 1.526e-03  t[s]:     37.22
	FillingsUpdate:  mu: -0.077075848  nElectrons: 9.000000  magneticMoment: [ Abs: 0.66150  Tot: -0.66000 ]
SCF: Cycle: 16   F: -20.183827448950105   dF: -5.020e-06   |Residual|: 3.561e-04   |deigs|: 1.177e-03  t[s]:     39.20
	FillingsUpdate:  mu: -0.076751068  nElectrons: 9.000000  magneticMoment: [ Abs: 0.66103  Tot: -0.66000 ]
SCF: Cycle: 17   F: -20.183830109357405   dF: -2.660e-06   |Residual|: 2.524e-04   |deigs|: 4.544e-04  t[s]:     41.20
	FillingsUpdate:  mu: -0.076875122  nElectrons: 9.000000  magneticMoment: [ Abs: 0.66168  Tot: -0.66000 ]
SCF: Cycle: 18   F: -20.183831779481331   dF: -1.670e-06   |Residual|: 1.826e-04   |deigs|: 3.426e-04  t[s]:     43.17
	FillingsUpdate:  mu: -0.077126799  nElectrons: 9.000000  magneticMoment: [ Abs: 0.66099  Tot: -0.66000 ]
SCF: Cycle: 19   F: -20.183832676323700   dF: -8.968e-07   |Residual|: 9.885e-05   |deigs|: 4.569e-04  t[s]:     45.24
	FillingsUpdate:  mu: -0.077045739  nElectrons: 9.000000  magneticMoment: [ Abs: 0.66070  Tot: -0.66000 ]
SCF: Cycle: 20   F: -20.183833098596498   dF: -4.223e-07   |Residual|: 5.364e-05   |deigs|: 6.542e-04  t[s]:     47.30
	FillingsUpdate:  mu: -0.077042409  nElectrons: 9.000000  magneticMoment: [ Abs: 0.66070  Tot: -0.66000 ]
SCF: Cycle: 21   F: -20.183833217434831   dF: -1.188e-07   |Residual|: 3.099e-05   |deigs|: 5.757e-04  t[s]:     49.35
	FillingsUpdate:  mu: -0.077099259  nElectrons: 9.000000  magneticMoment: [ Abs: 0.66068  Tot: -0.66000 ]
SCF: Cycle: 22   F: -20.183833320817069   dF: -1.034e-07   |Residual|: 2.509e-05   |deigs|: 2.810e-04  t[s]:     51.41
	FillingsUpdate:  mu: -0.077160701  nElectrons: 9.000000  magneticMoment: [ Abs: 0.66064  Tot: -0.66000 ]
SCF: Cycle: 23   F: -20.183833366961004   dF: -4.614e-08   |Residual|: 2.052e-05   |deigs|: 2.377e-04  t[s]:     53.48
	FillingsUpdate:  mu: -0.077139789  nElectrons: 9.000000  magneticMoment: [ Abs: 0.66059  Tot: -0.66000 ]
SCF: Cycle: 24   F: -20.183833384848132   dF: -1.789e-08   |Residual|: 1.698e-05   |deigs|: 5.653e-04  t[s]:     55.52
	FillingsUpdate:  mu: -0.077095889  nElectrons: 9.000000  magneticMoment: [ Abs: 0.66044  Tot: -0.66000 ]
SCF: Cycle: 25   F: -20.183833403156758   dF: -1.831e-08   |Residual|: 1.679e-05   |deigs|: 6.746e-04  t[s]:     57.54
	FillingsUpdate:  mu: -0.077097975  nElectrons: 9.000000  magneticMoment: [ Abs: 0.66040  Tot: -0.66000 ]
SCF: Cycle: 26   F: -20.183833409959590   dF: -6.803e-09   |Residual|: 1.391e-05   |deigs|: 1.465e-04  t[s]:     59.55
	FillingsUpdate:  mu: -0.077077216  nElectrons: 9.000000  magneticMoment: [ Abs: 0.66033  Tot: -0.66000 ]
SCF: Cycle: 27   F: -20.183833412549095   dF: -2.590e-09   |Residual|: 9.974e-06   |deigs|: 1.064e-04  t[s]:     61.56
SCF: Converged (|Delta E|<1.000000e-08 for 2 iters).


# Ionic positions in lattice coordinates:
ion Cs   0.000000000000000   0.000000000000000   0.000000000000000 0

# Forces in Lattice coordinates:
force Cs   0.000000000000000  -0.000000000000000   0.000000000000000 0

# Energy components:
   Eewald =      -18.0480261003326561
       EH =       -1.7760172828657912
     Eloc =       -5.8046008480731972
      Enl =        3.4385727609611396
   Epulay =        0.0000000264484078
      Exc =       -3.1501252098228165
       KE =        5.1563640514447613
-------------------------------------
     Etot =      -20.1838326022401517
       TS =        0.0000008103089425
-------------------------------------
        F =      -20.1838334125490952

IonicMinimize: Iter:   0  F: -20.183833412549095  |grad|_K:  0.000e+00  t[s]:     61.68
IonicMinimize: Converged (|grad|_K<1.000000e-04).

#--- Lowdin population analysis ---
# oxidation-state Cs +0.103
# magnetic-moments Cs -0.564

End date and time: Sun Feb  6 13:10:11 2022  (Duration: 0-0:01:01.70)
Done!
