
*************** JDFTx 1.6.0 (git hash 42ebbcc2) ***************

Start date and time: Sun Feb  6 13:16:19 2022
Executable jdftx with command-line: -i Alkali.in
Running on hosts (process indices):  d-4-6-1 (0-18)
Divided in process groups (process indices):  0 (0)  1 (1)  2 (2)  3 (3)  4 (4)  5 (5)  6 (6)  7 (7)  8 (8)  9 (9)  10 (10)  11 (11)  12 (12)  13 (13)  14 (14)  15 (15)  16 (16)  17 (17)  18 (18)
Resource initialization completed at t[s]:      0.00
Run totals: 19 processes, 48 threads, 0 GPUs


Input parsed successfully to the following command list (including defaults):

basis kpoint-dependent
coords-type Lattice
core-overlap-check vector
coulomb-interaction Slab 001
davidson-band-ratio 1.1
dump End None
dump-name $INPUT.$VAR
elec-cutoff 20
elec-eigen-algo Davidson
elec-ex-corr gga-PBE
elec-initial-magnetization -0.280000 yes
elec-smearing Fermi 1e-05
electronic-minimize  \
	dirUpdateScheme      FletcherReeves \
	linminMethod         DirUpdateRecommended \
	nIterations          100 \
	history              15 \
	knormThreshold       0 \
	energyDiffThreshold  1e-08 \
	nEnergyDiff          2 \
	alphaTstart          1 \
	alphaTmin            1e-10 \
	updateTestStepSize   yes \
	alphaTreduceFactor   0.1 \
	alphaTincreaseFactor 3 \
	nAlphaAdjustMax      3 \
	wolfeEnergy          0.0001 \
	wolfeGradient        0.9 \
	fdTest               no
electronic-scf  \
	nIterations	10000 \
	energyDiffThreshold	1e-08 \
	residualThreshold	1e-07 \
	mixFraction	0.5 \
	qMetric	0.8 \
	history	10 \
	nEigSteps	2 \
	eigDiffThreshold	1e-08 \
	mixedVariable	Density \
	qKerker	0.8 \
	qKappa	-1 \
	verbose	no \
	mixFractionMag	1.5
exchange-regularization WignerSeitzTruncated
fluid None
fluid-ex-corr (null) lda-PZ
fluid-gummel-loop 10 1.000000e-05
fluid-minimize  \
	dirUpdateScheme      PolakRibiere \
	linminMethod         DirUpdateRecommended \
	nIterations          100 \
	history              15 \
	knormThreshold       0 \
	energyDiffThreshold  0 \
	nEnergyDiff          2 \
	alphaTstart          1 \
	alphaTmin            1e-10 \
	updateTestStepSize   yes \
	alphaTreduceFactor   0.1 \
	alphaTincreaseFactor 3 \
	nAlphaAdjustMax      3 \
	wolfeEnergy          0.0001 \
	wolfeGradient        0.9 \
	fdTest               no
fluid-solvent H2O 55.338 ScalarEOS \
	epsBulk 78.4 \
	pMol 0.92466 \
	epsInf 1.77 \
	Pvap 1.06736e-10 \
	sigmaBulk 4.62e-05 \
	Rvdw 2.61727 \
	Res 1.42 \
	tauNuc 343133 \
	poleEl 15 7 1
forces-output-coords Positions
ion Cs   0.000000000000000   0.000000000000000   0.000000000000000 0
ion-species SG15/$ID_ONCV_PBE.upf
ion-width 0
ionic-minimize  \
	dirUpdateScheme      L-BFGS \
	linminMethod         DirUpdateRecommended \
	nIterations          0 \
	history              15 \
	knormThreshold       0.0001 \
	energyDiffThreshold  1e-06 \
	nEnergyDiff          2 \
	alphaTstart          1 \
	alphaTmin            1e-10 \
	updateTestStepSize   yes \
	alphaTreduceFactor   0.1 \
	alphaTincreaseFactor 3 \
	nAlphaAdjustMax      3 \
	wolfeEnergy          0.0001 \
	wolfeGradient        0.9 \
	fdTest               no
kpoint   0.000000000000   0.000000000000   0.000000000000  1.00000000000000
kpoint-folding 12 12 1 
latt-move-scale 1 1 1
latt-scale 2 2 1 
lattice  \
	   4.727486978767153   -2.363743489383575    0.000000000000000  \
	  -0.000000000000000    4.094123819672498    0.000000000000000  \
	   0.000000000000000    0.000000000000000   40.000000000000000 
lattice-minimize  \
	dirUpdateScheme      L-BFGS \
	linminMethod         DirUpdateRecommended \
	nIterations          0 \
	history              15 \
	knormThreshold       0 \
	energyDiffThreshold  1e-06 \
	nEnergyDiff          2 \
	alphaTstart          1 \
	alphaTmin            1e-10 \
	updateTestStepSize   yes \
	alphaTreduceFactor   0.1 \
	alphaTincreaseFactor 3 \
	nAlphaAdjustMax      3 \
	wolfeEnergy          0.0001 \
	wolfeGradient        0.9 \
	fdTest               no
lcao-params -1 1e-06 1e-05
pcm-variant GLSSA13
spintype z-spin
subspace-rotation-factor 1 yes
symmetries automatic
symmetry-threshold 0.0001



---------- Setting up symmetries ----------

Found 24 point-group symmetries of the bravais lattice
Found 24 space-group symmetries with basis
Applied RMS atom displacement 0 bohrs to make symmetries exact.

---------- Initializing the Grid ----------
R = 
[      9.45497     -4.72749            0  ]
[            0      8.18825            0  ]
[            0            0           40  ]
unit cell volume = 3096.79
G =
[   0.664538   0.383671         -0  ]
[          0   0.767342         -0  ]
[         -0         -0    0.15708  ]
Minimum fftbox size, Smin = [  40  40  164  ]
Chosen fftbox size, S = [  40  40  168  ]

---------- Exchange Correlation functional ----------
Initalized PBE GGA exchange.
Initalized PBE GGA correlation.

---------- Setting up pseudopotentials ----------
Width of ionic core gaussian charges (only for fluid interactions / plotting) set to 0

Reading pseudopotential file '/home/gridsan/aligho/DFT/build-Nov24/pseudopotentials/SG15/Cs_ONCV_PBE.upf':
  'Cs' pseudopotential, 'PBE' functional
  Generated using ONCVPSP code by D. R. Hamann
  Author: Martin Schlipf and Francois Gygi  Date: 150915.
  9 valence electrons, 3 orbitals, 6 projectors, 2414 radial grid points, with lMax = 2
  Transforming local potential to a uniform radial grid of dG=0.02 with 1489 points.
  Transforming nonlocal projectors to a uniform radial grid of dG=0.02 with 432 points.
    5S    l: 0   occupation:  2.0   eigenvalue: -0.982388
    5P    l: 1   occupation:  6.0   eigenvalue: -0.496786
    6S    l: 0   occupation:  1.0   eigenvalue: -0.076670
  Transforming atomic orbitals to a uniform radial grid of dG=0.02 with 432 points.
  Core radius for overlap checks: 2.06 bohrs.
  Reading pulay file /home/gridsan/aligho/DFT/build-Nov24/pseudopotentials/SG15/Cs_ONCV_PBE.pulay ... using dE_dnG = -1.008762e-04 computed for Ecut = 20.

Initialized 1 species with 1 total atoms.

Folded 1 k-points by 12x12x1 to 144 k-points.

---------- Setting up k-points, bands, fillings ----------
Reduced to 19 k-points under symmetry. 
Computing the number of bands and number of electrons
Calculating initial fillings.
nElectrons:   9.000000   nBands: 6   nStates: 38

----- Setting up reduced wavefunction bases (one per k-point) -----
average nbasis = 13230.521 , ideal nbasis = 13229.709

---------- Setting up coulomb interaction ----------
Initialized slab truncation along lattice direction 001

---------- Setting up 2D ewald sum ----------
Optimum gaussian width for ewald sums = 5.249020 bohr.
Real space sums over 289 unit cells with max indices [  8  8  0  ]
Reciprocal space sums over 81 terms with max indices [  4  4  0  ]

---------- Allocating electronic variables ----------
Initializing wave functions:  linear combination of atomic orbitals
Note: number of bands (6) exceeds available atomic orbitals (5)
Cs pseudo-atom occupations:   s ( 2 1 )  p ( 6 )
	FillingsUpdate:  mu: -0.088860081  nElectrons: 9.000000  magneticMoment: [ Abs: 0.28000  Tot: -0.28000 ]
LCAOMinimize: Iter:   0  F: -20.1809503099563692  |grad|_K:  3.940e-05  alpha:  1.000e+00
	FillingsUpdate:  mu: -0.088842359  nElectrons: 9.000000  magneticMoment: [ Abs: 0.28000  Tot: -0.28000 ]
LCAOMinimize: Iter:   1  F: -20.1809513477040667  |grad|_K:  3.965e-07  alpha:  9.774e-01  linmin: -4.697e-02  cgtest:  3.576e-01  t[s]:      4.69
LCAOMinimize: Encountered beta<0, resetting CG.
	FillingsUpdate:  mu: -0.088842474  nElectrons: 9.000000  magneticMoment: [ Abs: 0.28000  Tot: -0.28000 ]
LCAOMinimize: Iter:   2  F: -20.1809513478119733  |grad|_K:  2.562e-09  alpha:  9.948e-01  linmin: -1.484e-01  cgtest:  9.518e-01  t[s]:      5.97
LCAOMinimize: Encountered beta<0, resetting CG.
LCAOMinimize: 	Step increased F by 3.197442e-13, reducing alpha to 1.097315e-03.
LCAOMinimize: 	Step increased F by 3.268497e-13, reducing alpha to 1.097315e-04.
LCAOMinimize: 	Step increased F by 2.060574e-13, reducing alpha to 1.097315e-05.
LCAOMinimize: 	Step failed to reduce F after 3 attempts. Quitting step.
LCAOMinimize: 	Undoing step.
LCAOMinimize: 	Step failed along negative gradient direction.
LCAOMinimize: Probably at roundoff error limit. (Stopping)


---- Citations for features of the code used in this run ----

   Software package:
      R. Sundararaman, K. Letchworth-Weaver, K.A. Schwarz, D. Gunceler, Y. Ozhabes and T.A. Arias, 'JDFTx: software for joint density-functional theory', SoftwareX 6, 278 (2017)

   gga-PBE exchange-correlation functional:
      J.P. Perdew, K. Burke and M. Ernzerhof, Phys. Rev. Lett. 77, 3865 (1996)

   Pseudopotentials:
      M Schlipf and F Gygi, Comput. Phys. Commun. 196, 36 (2015)

   Truncated Coulomb potentials:
      R. Sundararaman and T.A. Arias, Phys. Rev. B 87, 165122 (2013)

This list may not be complete. Please suggest additional citations or
report any other bugs at https://github.com/shankar1729/jdftx/issues

Initialization completed successfully at t[s]:      9.42


-------- Electronic minimization -----------
Will mix electronic density at each iteration.
	FillingsUpdate:  mu: -0.088842474  nElectrons: 9.000000  magneticMoment: [ Abs: 0.28000  Tot: -0.28000 ]
	FillingsUpdate:  mu: -0.102444404  nElectrons: 9.000000  magneticMoment: [ Abs: 0.28000  Tot: -0.28000 ]
SCF: Cycle:  0   F: -20.186370447893630   dF: -5.419e-03   |Residual|: 1.240e-02   |deigs|: 1.881e-01  t[s]:     11.85
	FillingsUpdate:  mu: -0.103334757  nElectrons: 9.000000  magneticMoment: [ Abs: 0.28000  Tot: -0.28000 ]
SCF: Cycle:  1   F: -20.186850709643583   dF: -4.803e-04   |Residual|: 1.014e-02   |deigs|: 5.004e-03  t[s]:     13.72
	FillingsUpdate:  mu: -0.100369707  nElectrons: 9.000000  magneticMoment: [ Abs: 0.28972  Tot: -0.28000 ]
SCF: Cycle:  2   F: -20.187171733080262   dF: -3.210e-04   |Residual|: 4.636e-03   |deigs|: 2.967e-03  t[s]:     15.57
	FillingsUpdate:  mu: -0.099492105  nElectrons: 9.000000  magneticMoment: [ Abs: 0.28000  Tot: -0.28000 ]
SCF: Cycle:  3   F: -20.187308261393959   dF: -1.365e-04   |Residual|: 3.350e-03   |deigs|: 2.209e-03  t[s]:     17.44
	FillingsUpdate:  mu: -0.097129386  nElectrons: 9.000000  magneticMoment: [ Abs: 0.28130  Tot: -0.28000 ]
SCF: Cycle:  4   F: -20.187378803850592   dF: -7.054e-05   |Residual|: 2.508e-03   |deigs|: 3.208e-03  t[s]:     19.33
	FillingsUpdate:  mu: -0.094620599  nElectrons: 9.000000  magneticMoment: [ Abs: 0.28465  Tot: -0.28000 ]
SCF: Cycle:  5   F: -20.187418235036461   dF: -3.943e-05   |Residual|: 2.236e-03   |deigs|: 3.049e-03  t[s]:     21.28
	FillingsUpdate:  mu: -0.092260070  nElectrons: 9.000000  magneticMoment: [ Abs: 0.28963  Tot: -0.28000 ]
SCF: Cycle:  6   F: -20.187424150376501   dF: -5.915e-06   |Residual|: 1.530e-03   |deigs|: 2.881e-03  t[s]:     23.24
	FillingsUpdate:  mu: -0.090457494  nElectrons: 9.000000  magneticMoment: [ Abs: 0.28727  Tot: -0.28000 ]
SCF: Cycle:  7   F: -20.187447888320364   dF: -2.374e-05   |Residual|: 1.259e-03   |deigs|: 1.851e-03  t[s]:     25.21
	FillingsUpdate:  mu: -0.088951131  nElectrons: 9.000000  magneticMoment: [ Abs: 0.28235  Tot: -0.28000 ]
SCF: Cycle:  8   F: -20.187476500706758   dF: -2.861e-05   |Residual|: 1.030e-03   |deigs|: 1.662e-03  t[s]:     27.24
	FillingsUpdate:  mu: -0.087530133  nElectrons: 9.000000  magneticMoment: [ Abs: 0.28346  Tot: -0.28000 ]
SCF: Cycle:  9   F: -20.187465921516310   dF: +1.058e-05   |Residual|: 8.721e-04   |deigs|: 1.537e-03  t[s]:     29.25
	FillingsUpdate:  mu: -0.085575726  nElectrons: 9.000000  magneticMoment: [ Abs: 0.28541  Tot: -0.28000 ]
SCF: Cycle: 10   F: -20.187461108331448   dF: +4.813e-06   |Residual|: 8.169e-04   |deigs|: 2.082e-03  t[s]:     31.28
	FillingsUpdate:  mu: -0.083709432  nElectrons: 9.000000  magneticMoment: [ Abs: 0.28391  Tot: -0.28000 ]
SCF: Cycle: 11   F: -20.187480832582587   dF: -1.972e-05   |Residual|: 7.358e-04   |deigs|: 1.920e-03  t[s]:     33.37
	FillingsUpdate:  mu: -0.082371824  nElectrons: 9.000000  magneticMoment: [ Abs: 0.28391  Tot: -0.28000 ]
SCF: Cycle: 12   F: -20.187503530701086   dF: -2.270e-05   |Residual|: 6.715e-04   |deigs|: 1.281e-03  t[s]:     35.49
	FillingsUpdate:  mu: -0.080814596  nElectrons: 9.000000  magneticMoment: [ Abs: 0.28344  Tot: -0.28000 ]
SCF: Cycle: 13   F: -20.187514378750336   dF: -1.085e-05   |Residual|: 6.217e-04   |deigs|: 1.542e-03  t[s]:     37.57
	FillingsUpdate:  mu: -0.079104739  nElectrons: 9.000000  magneticMoment: [ Abs: 0.28136  Tot: -0.28000 ]
SCF: Cycle: 14   F: -20.187524059366169   dF: -9.681e-06   |Residual|: 4.703e-04   |deigs|: 1.773e-03  t[s]:     39.67
	FillingsUpdate:  mu: -0.078328499  nElectrons: 9.000000  magneticMoment: [ Abs: 0.28141  Tot: -0.28000 ]
SCF: Cycle: 15   F: -20.187528724885865   dF: -4.666e-06   |Residual|: 3.698e-04   |deigs|: 1.437e-03  t[s]:     41.72
	FillingsUpdate:  mu: -0.077963578  nElectrons: 9.000000  magneticMoment: [ Abs: 0.28034  Tot: -0.28000 ]
SCF: Cycle: 16   F: -20.187531952477350   dF: -3.228e-06   |Residual|: 2.784e-04   |deigs|: 7.554e-04  t[s]:     43.74
	FillingsUpdate:  mu: -0.077957377  nElectrons: 9.000000  magneticMoment: [ Abs: 0.28018  Tot: -0.28000 ]
SCF: Cycle: 17   F: -20.187532889498474   dF: -9.370e-07   |Residual|: 1.621e-04   |deigs|: 2.809e-04  t[s]:     45.78
	FillingsUpdate:  mu: -0.078020258  nElectrons: 9.000000  magneticMoment: [ Abs: 0.28019  Tot: -0.28000 ]
SCF: Cycle: 18   F: -20.187533559987468   dF: -6.705e-07   |Residual|: 7.511e-05   |deigs|: 4.297e-04  t[s]:     47.90
	FillingsUpdate:  mu: -0.077979823  nElectrons: 9.000000  magneticMoment: [ Abs: 0.28013  Tot: -0.28000 ]
SCF: Cycle: 19   F: -20.187533877231129   dF: -3.172e-07   |Residual|: 4.313e-05   |deigs|: 5.437e-04  t[s]:     49.98
	FillingsUpdate:  mu: -0.077986505  nElectrons: 9.000000  magneticMoment: [ Abs: 0.28011  Tot: -0.28000 ]
SCF: Cycle: 20   F: -20.187533958807904   dF: -8.158e-08   |Residual|: 2.490e-05   |deigs|: 1.409e-04  t[s]:     52.03
	FillingsUpdate:  mu: -0.077995612  nElectrons: 9.000000  magneticMoment: [ Abs: 0.28011  Tot: -0.28000 ]
SCF: Cycle: 21   F: -20.187534005124004   dF: -4.632e-08   |Residual|: 1.521e-05   |deigs|: 6.805e-05  t[s]:     54.12
	FillingsUpdate:  mu: -0.078010217  nElectrons: 9.000000  magneticMoment: [ Abs: 0.28014  Tot: -0.28000 ]
SCF: Cycle: 22   F: -20.187534023164901   dF: -1.804e-08   |Residual|: 7.783e-06   |deigs|: 4.568e-04  t[s]:     56.19
	FillingsUpdate:  mu: -0.078024505  nElectrons: 9.000000  magneticMoment: [ Abs: 0.28014  Tot: -0.28000 ]
SCF: Cycle: 23   F: -20.187534031964127   dF: -8.799e-09   |Residual|: 3.931e-06   |deigs|: 4.562e-04  t[s]:     58.30
	FillingsUpdate:  mu: -0.078027522  nElectrons: 9.000000  magneticMoment: [ Abs: 0.28014  Tot: -0.28000 ]
SCF: Cycle: 24   F: -20.187534037182452   dF: -5.218e-09   |Residual|: 2.977e-06   |deigs|: 4.268e-04  t[s]:     60.48
SCF: Converged (|Delta E|<1.000000e-08 for 2 iters).


# Ionic positions in lattice coordinates:
ion Cs   0.000000000000000   0.000000000000000   0.000000000000000 0

# Forces in Lattice coordinates:
force Cs  -0.000000000000000   0.000000000000000   0.000000000000000 0

# Energy components:
   Eewald =      -18.0480261003326561
       EH =       -1.8274084797589949
     Eloc =       -5.7563934370508303
      Enl =        3.4422379409377086
   Epulay =        0.0000000264484078
      Exc =       -3.1446119793519789
       KE =        5.1466686113618092
-------------------------------------
     Etot =      -20.1875334177465362
       TS =        0.0000006194359173
-------------------------------------
        F =      -20.1875340371824521

IonicMinimize: Iter:   0  F: -20.187534037182452  |grad|_K:  0.000e+00  t[s]:     60.60
IonicMinimize: Converged (|grad|_K<1.000000e-04).

#--- Lowdin population analysis ---
# oxidation-state Cs +0.055
# magnetic-moments Cs -0.245

End date and time: Sun Feb  6 13:17:19 2022  (Duration: 0-0:01:00.63)
Done!
