
*************** JDFTx 1.6.0 (git hash 42ebbcc2) ***************

Start date and time: Sun Feb  6 13:17:20 2022
Executable jdftx with command-line: -i Alkali.in
Running on hosts (process indices):  d-3-5-3 (0-18)
Divided in process groups (process indices):  0 (0)  1 (1)  2 (2)  3 (3)  4 (4)  5 (5)  6 (6)  7 (7)  8 (8)  9 (9)  10 (10)  11 (11)  12 (12)  13 (13)  14 (14)  15 (15)  16 (16)  17 (17)  18 (18)
Resource initialization completed at t[s]:      0.00
Run totals: 19 processes, 48 threads, 0 GPUs


Input parsed successfully to the following command list (including defaults):

basis kpoint-dependent
coords-type Lattice
core-overlap-check vector
coulomb-interaction Slab 001
davidson-band-ratio 1.1
dump End None
dump-name $INPUT.$VAR
elec-cutoff 20
elec-eigen-algo Davidson
elec-ex-corr gga-PBE
elec-initial-magnetization -0.100000 yes
elec-smearing Fermi 1e-05
electronic-minimize  \
	dirUpdateScheme      FletcherReeves \
	linminMethod         DirUpdateRecommended \
	nIterations          100 \
	history              15 \
	knormThreshold       0 \
	energyDiffThreshold  1e-08 \
	nEnergyDiff          2 \
	alphaTstart          1 \
	alphaTmin            1e-10 \
	updateTestStepSize   yes \
	alphaTreduceFactor   0.1 \
	alphaTincreaseFactor 3 \
	nAlphaAdjustMax      3 \
	wolfeEnergy          0.0001 \
	wolfeGradient        0.9 \
	fdTest               no
electronic-scf  \
	nIterations	10000 \
	energyDiffThreshold	1e-08 \
	residualThreshold	1e-07 \
	mixFraction	0.5 \
	qMetric	0.8 \
	history	10 \
	nEigSteps	2 \
	eigDiffThreshold	1e-08 \
	mixedVariable	Density \
	qKerker	0.8 \
	qKappa	-1 \
	verbose	no \
	mixFractionMag	1.5
exchange-regularization WignerSeitzTruncated
fluid None
fluid-ex-corr (null) lda-PZ
fluid-gummel-loop 10 1.000000e-05
fluid-minimize  \
	dirUpdateScheme      PolakRibiere \
	linminMethod         DirUpdateRecommended \
	nIterations          100 \
	history              15 \
	knormThreshold       0 \
	energyDiffThreshold  0 \
	nEnergyDiff          2 \
	alphaTstart          1 \
	alphaTmin            1e-10 \
	updateTestStepSize   yes \
	alphaTreduceFactor   0.1 \
	alphaTincreaseFactor 3 \
	nAlphaAdjustMax      3 \
	wolfeEnergy          0.0001 \
	wolfeGradient        0.9 \
	fdTest               no
fluid-solvent H2O 55.338 ScalarEOS \
	epsBulk 78.4 \
	pMol 0.92466 \
	epsInf 1.77 \
	Pvap 1.06736e-10 \
	sigmaBulk 4.62e-05 \
	Rvdw 2.61727 \
	Res 1.42 \
	tauNuc 343133 \
	poleEl 15 7 1
forces-output-coords Positions
ion Cs   0.000000000000000   0.000000000000000   0.000000000000000 0
ion-species SG15/$ID_ONCV_PBE.upf
ion-width 0
ionic-minimize  \
	dirUpdateScheme      L-BFGS \
	linminMethod         DirUpdateRecommended \
	nIterations          0 \
	history              15 \
	knormThreshold       0.0001 \
	energyDiffThreshold  1e-06 \
	nEnergyDiff          2 \
	alphaTstart          1 \
	alphaTmin            1e-10 \
	updateTestStepSize   yes \
	alphaTreduceFactor   0.1 \
	alphaTincreaseFactor 3 \
	nAlphaAdjustMax      3 \
	wolfeEnergy          0.0001 \
	wolfeGradient        0.9 \
	fdTest               no
kpoint   0.000000000000   0.000000000000   0.000000000000  1.00000000000000
kpoint-folding 12 12 1 
latt-move-scale 1 1 1
latt-scale 2 2 1 
lattice  \
	   4.727486978767153   -2.363743489383575    0.000000000000000  \
	  -0.000000000000000    4.094123819672498    0.000000000000000  \
	   0.000000000000000    0.000000000000000   40.000000000000000 
lattice-minimize  \
	dirUpdateScheme      L-BFGS \
	linminMethod         DirUpdateRecommended \
	nIterations          0 \
	history              15 \
	knormThreshold       0 \
	energyDiffThreshold  1e-06 \
	nEnergyDiff          2 \
	alphaTstart          1 \
	alphaTmin            1e-10 \
	updateTestStepSize   yes \
	alphaTreduceFactor   0.1 \
	alphaTincreaseFactor 3 \
	nAlphaAdjustMax      3 \
	wolfeEnergy          0.0001 \
	wolfeGradient        0.9 \
	fdTest               no
lcao-params -1 1e-06 1e-05
pcm-variant GLSSA13
spintype z-spin
subspace-rotation-factor 1 yes
symmetries automatic
symmetry-threshold 0.0001



---------- Setting up symmetries ----------

Found 24 point-group symmetries of the bravais lattice
Found 24 space-group symmetries with basis
Applied RMS atom displacement 0 bohrs to make symmetries exact.

---------- Initializing the Grid ----------
R = 
[      9.45497     -4.72749            0  ]
[            0      8.18825            0  ]
[            0            0           40  ]
unit cell volume = 3096.79
G =
[   0.664538   0.383671         -0  ]
[          0   0.767342         -0  ]
[         -0         -0    0.15708  ]
Minimum fftbox size, Smin = [  40  40  164  ]
Chosen fftbox size, S = [  40  40  168  ]

---------- Exchange Correlation functional ----------
Initalized PBE GGA exchange.
Initalized PBE GGA correlation.

---------- Setting up pseudopotentials ----------
Width of ionic core gaussian charges (only for fluid interactions / plotting) set to 0

Reading pseudopotential file '/home/gridsan/aligho/DFT/build-Nov24/pseudopotentials/SG15/Cs_ONCV_PBE.upf':
  'Cs' pseudopotential, 'PBE' functional
  Generated using ONCVPSP code by D. R. Hamann
  Author: Martin Schlipf and Francois Gygi  Date: 150915.
  9 valence electrons, 3 orbitals, 6 projectors, 2414 radial grid points, with lMax = 2
  Transforming local potential to a uniform radial grid of dG=0.02 with 1489 points.
  Transforming nonlocal projectors to a uniform radial grid of dG=0.02 with 432 points.
    5S    l: 0   occupation:  2.0   eigenvalue: -0.982388
    5P    l: 1   occupation:  6.0   eigenvalue: -0.496786
    6S    l: 0   occupation:  1.0   eigenvalue: -0.076670
  Transforming atomic orbitals to a uniform radial grid of dG=0.02 with 432 points.
  Core radius for overlap checks: 2.06 bohrs.
  Reading pulay file /home/gridsan/aligho/DFT/build-Nov24/pseudopotentials/SG15/Cs_ONCV_PBE.pulay ... using dE_dnG = -1.008762e-04 computed for Ecut = 20.

Initialized 1 species with 1 total atoms.

Folded 1 k-points by 12x12x1 to 144 k-points.

---------- Setting up k-points, bands, fillings ----------
Reduced to 19 k-points under symmetry. 
Computing the number of bands and number of electrons
Calculating initial fillings.
nElectrons:   9.000000   nBands: 6   nStates: 38

----- Setting up reduced wavefunction bases (one per k-point) -----
average nbasis = 13230.521 , ideal nbasis = 13229.709

---------- Setting up coulomb interaction ----------
Initialized slab truncation along lattice direction 001

---------- Setting up 2D ewald sum ----------
Optimum gaussian width for ewald sums = 5.249020 bohr.
Real space sums over 289 unit cells with max indices [  8  8  0  ]
Reciprocal space sums over 81 terms with max indices [  4  4  0  ]

---------- Allocating electronic variables ----------
Initializing wave functions:  linear combination of atomic orbitals
Note: number of bands (6) exceeds available atomic orbitals (5)
Cs pseudo-atom occupations:   s ( 2 1 )  p ( 6 )
	FillingsUpdate:  mu: -0.091495440  nElectrons: 9.000000  magneticMoment: [ Abs: 0.10000  Tot: -0.10000 ]
LCAOMinimize: Iter:   0  F: -20.1824792697991420  |grad|_K:  4.222e-05  alpha:  1.000e+00
	FillingsUpdate:  mu: -0.091476602  nElectrons: 9.000000  magneticMoment: [ Abs: 0.10000  Tot: -0.10000 ]
LCAOMinimize: Iter:   1  F: -20.1824804606946238  |grad|_K:  4.278e-07  alpha:  9.770e-01  linmin: -5.257e-02  cgtest:  3.861e-01  t[s]:      4.55
LCAOMinimize: Encountered beta<0, resetting CG.
	FillingsUpdate:  mu: -0.091476715  nElectrons: 9.000000  magneticMoment: [ Abs: 0.10000  Tot: -0.10000 ]
LCAOMinimize: Iter:   2  F: -20.1824804608204289  |grad|_K:  1.513e-09  alpha:  1.004e+00  linmin:  1.656e-01  cgtest: -9.396e-01  t[s]:      5.80
	FillingsUpdate:  mu: -0.091476715  nElectrons: 9.000000  magneticMoment: [ Abs: 0.10000  Tot: -0.10000 ]
LCAOMinimize: Iter:   3  F: -20.1824804608205035  |grad|_K:  1.512e-09  alpha:  3.374e-03  linmin: -9.460e-03  cgtest:  1.000e+00  t[s]:      7.03
LCAOMinimize: Encountered beta<0, resetting CG.
LCAOMinimize: Converged (|Delta F|<1.000000e-06 for 2 iters).


---- Citations for features of the code used in this run ----

   Software package:
      R. Sundararaman, K. Letchworth-Weaver, K.A. Schwarz, D. Gunceler, Y. Ozhabes and T.A. Arias, 'JDFTx: software for joint density-functional theory', SoftwareX 6, 278 (2017)

   gga-PBE exchange-correlation functional:
      J.P. Perdew, K. Burke and M. Ernzerhof, Phys. Rev. Lett. 77, 3865 (1996)

   Pseudopotentials:
      M Schlipf and F Gygi, Comput. Phys. Commun. 196, 36 (2015)

   Truncated Coulomb potentials:
      R. Sundararaman and T.A. Arias, Phys. Rev. B 87, 165122 (2013)

This list may not be complete. Please suggest additional citations or
report any other bugs at https://github.com/shankar1729/jdftx/issues

Initialization completed successfully at t[s]:      7.13


-------- Electronic minimization -----------
Will mix electronic density at each iteration.
	FillingsUpdate:  mu: -0.091476715  nElectrons: 9.000000  magneticMoment: [ Abs: 0.10000  Tot: -0.10000 ]
	FillingsUpdate:  mu: -0.100722357  nElectrons: 9.000000  magneticMoment: [ Abs: 0.10000  Tot: -0.10000 ]
SCF: Cycle:  0   F: -20.186993167979406   dF: -4.513e-03   |Residual|: 1.138e-02   |deigs|: 1.882e-01  t[s]:      9.56
	FillingsUpdate:  mu: -0.100875008  nElectrons: 9.000000  magneticMoment: [ Abs: 0.10000  Tot: -0.10000 ]
SCF: Cycle:  1   F: -20.187348101159092   dF: -3.549e-04   |Residual|: 9.560e-03   |deigs|: 4.475e-03  t[s]:     11.38
	FillingsUpdate:  mu: -0.096544949  nElectrons: 9.000000  magneticMoment: [ Abs: 0.10752  Tot: -0.10000 ]
SCF: Cycle:  2   F: -20.187661036525821   dF: -3.129e-04   |Residual|: 4.455e-03   |deigs|: 3.926e-03  t[s]:     13.28
	FillingsUpdate:  mu: -0.096993938  nElectrons: 9.000000  magneticMoment: [ Abs: 0.10000  Tot: -0.10000 ]
SCF: Cycle:  3   F: -20.187757699862320   dF: -9.666e-05   |Residual|: 3.644e-03   |deigs|: 1.480e-03  t[s]:     15.14
	FillingsUpdate:  mu: -0.093982481  nElectrons: 9.000000  magneticMoment: [ Abs: 0.10152  Tot: -0.10000 ]
SCF: Cycle:  4   F: -20.187835257280010   dF: -7.756e-05   |Residual|: 2.393e-03   |deigs|: 3.756e-03  t[s]:     17.06
	FillingsUpdate:  mu: -0.091803308  nElectrons: 9.000000  magneticMoment: [ Abs: 0.10171  Tot: -0.10000 ]
SCF: Cycle:  5   F: -20.187876536154658   dF: -4.128e-05   |Residual|: 1.868e-03   |deigs|: 2.699e-03  t[s]:     19.03
	FillingsUpdate:  mu: -0.089382957  nElectrons: 9.000000  magneticMoment: [ Abs: 0.10359  Tot: -0.10000 ]
SCF: Cycle:  6   F: -20.187891995670423   dF: -1.546e-05   |Residual|: 1.507e-03   |deigs|: 2.972e-03  t[s]:     21.00
	FillingsUpdate:  mu: -0.088397978  nElectrons: 9.000000  magneticMoment: [ Abs: 0.10211  Tot: -0.10000 ]
SCF: Cycle:  7   F: -20.187912633130004   dF: -2.064e-05   |Residual|: 1.233e-03   |deigs|: 1.272e-03  t[s]:     23.04
	FillingsUpdate:  mu: -0.086585392  nElectrons: 9.000000  magneticMoment: [ Abs: 0.10106  Tot: -0.10000 ]
SCF: Cycle:  8   F: -20.187928042570491   dF: -1.541e-05   |Residual|: 9.816e-04   |deigs|: 1.731e-03  t[s]:     25.03
	FillingsUpdate:  mu: -0.085110837  nElectrons: 9.000000  magneticMoment: [ Abs: 0.10174  Tot: -0.10000 ]
SCF: Cycle:  9   F: -20.187908734120569   dF: +1.931e-05   |Residual|: 1.064e-03   |deigs|: 1.534e-03  t[s]:     27.06
	FillingsUpdate:  mu: -0.082900432  nElectrons: 9.000000  magneticMoment: [ Abs: 0.10198  Tot: -0.10000 ]
SCF: Cycle: 10   F: -20.187920704826556   dF: -1.197e-05   |Residual|: 8.882e-04   |deigs|: 2.434e-03  t[s]:     29.11
	FillingsUpdate:  mu: -0.081411546  nElectrons: 9.000000  magneticMoment: [ Abs: 0.10120  Tot: -0.10000 ]
SCF: Cycle: 11   F: -20.187948098625697   dF: -2.739e-05   |Residual|: 6.867e-04   |deigs|: 1.518e-03  t[s]:     31.18
	FillingsUpdate:  mu: -0.080339726  nElectrons: 9.000000  magneticMoment: [ Abs: 0.10147  Tot: -0.10000 ]
SCF: Cycle: 12   F: -20.187964508869637   dF: -1.641e-05   |Residual|: 6.294e-04   |deigs|: 1.006e-03  t[s]:     33.22
	FillingsUpdate:  mu: -0.078188432  nElectrons: 9.000000  magneticMoment: [ Abs: 0.10083  Tot: -0.10000 ]
SCF: Cycle: 13   F: -20.187975302205981   dF: -1.079e-05   |Residual|: 5.379e-04   |deigs|: 2.223e-03  t[s]:     35.25
	FillingsUpdate:  mu: -0.076905225  nElectrons: 9.000000  magneticMoment: [ Abs: 0.10069  Tot: -0.10000 ]
SCF: Cycle: 14   F: -20.187982244835748   dF: -6.943e-06   |Residual|: 4.296e-04   |deigs|: 1.377e-03  t[s]:     37.35
	FillingsUpdate:  mu: -0.076618527  nElectrons: 9.000000  magneticMoment: [ Abs: 0.10071  Tot: -0.10000 ]
SCF: Cycle: 15   F: -20.187985337493732   dF: -3.093e-06   |Residual|: 3.388e-04   |deigs|: 1.316e-03  t[s]:     39.44
	FillingsUpdate:  mu: -0.076441472  nElectrons: 9.000000  magneticMoment: [ Abs: 0.10026  Tot: -0.10000 ]
SCF: Cycle: 16   F: -20.187988107164305   dF: -2.770e-06   |Residual|: 2.225e-04   |deigs|: 5.223e-04  t[s]:     41.44
	FillingsUpdate:  mu: -0.076564120  nElectrons: 9.000000  magneticMoment: [ Abs: 0.10006  Tot: -0.10000 ]
SCF: Cycle: 17   F: -20.187988778624661   dF: -6.715e-07   |Residual|: 1.127e-04   |deigs|: 2.024e-04  t[s]:     43.45
	FillingsUpdate:  mu: -0.076577165  nElectrons: 9.000000  magneticMoment: [ Abs: 0.10008  Tot: -0.10000 ]
SCF: Cycle: 18   F: -20.187989003809829   dF: -2.252e-07   |Residual|: 5.764e-05   |deigs|: 1.611e-04  t[s]:     45.48
	FillingsUpdate:  mu: -0.076506267  nElectrons: 9.000000  magneticMoment: [ Abs: 0.10004  Tot: -0.10000 ]
SCF: Cycle: 19   F: -20.187989118732730   dF: -1.149e-07   |Residual|: 3.320e-05   |deigs|: 5.930e-04  t[s]:     47.56
	FillingsUpdate:  mu: -0.076516295  nElectrons: 9.000000  magneticMoment: [ Abs: 0.10004  Tot: -0.10000 ]
SCF: Cycle: 20   F: -20.187989160523070   dF: -4.179e-08   |Residual|: 2.038e-05   |deigs|: 2.009e-04  t[s]:     49.62
	FillingsUpdate:  mu: -0.076542520  nElectrons: 9.000000  magneticMoment: [ Abs: 0.10004  Tot: -0.10000 ]
SCF: Cycle: 21   F: -20.187989171140256   dF: -1.062e-08   |Residual|: 1.205e-05   |deigs|: 3.691e-04  t[s]:     51.71
	FillingsUpdate:  mu: -0.076564019  nElectrons: 9.000000  magneticMoment: [ Abs: 0.10004  Tot: -0.10000 ]
SCF: Cycle: 22   F: -20.187989176778323   dF: -5.638e-09   |Residual|: 5.957e-06   |deigs|: 5.653e-04  t[s]:     53.81
	FillingsUpdate:  mu: -0.076571079  nElectrons: 9.000000  magneticMoment: [ Abs: 0.10004  Tot: -0.10000 ]
SCF: Cycle: 23   F: -20.187989179031970   dF: -2.254e-09   |Residual|: 3.617e-06   |deigs|: 1.260e-04  t[s]:     55.88
SCF: Converged (|Delta E|<1.000000e-08 for 2 iters).


# Ionic positions in lattice coordinates:
ion Cs   0.000000000000000   0.000000000000000   0.000000000000000 0

# Forces in Lattice coordinates:
force Cs   0.000000000000000  -0.000000000000000   0.000000000000000 0

# Energy components:
   Eewald =      -18.0480261003326561
       EH =       -1.8411648581042999
     Eloc =       -5.7437704769376126
      Enl =        3.4432516383856822
   Epulay =        0.0000000264484078
      Exc =       -3.1433938043967267
       KE =        5.1451154933409224
-------------------------------------
     Etot =      -20.1879880815962807
       TS =        0.0000010974356905
-------------------------------------
        F =      -20.1879891790319697

IonicMinimize: Iter:   0  F: -20.187989179031970  |grad|_K:  0.000e+00  t[s]:     56.00
IonicMinimize: Converged (|grad|_K<1.000000e-04).

#--- Lowdin population analysis ---
# oxidation-state Cs +0.044
# magnetic-moments Cs -0.089

End date and time: Sun Feb  6 13:18:16 2022  (Duration: 0-0:00:56.02)
Done!
