
*************** JDFTx 1.6.0 (git hash 42ebbcc2) ***************

Start date and time: Sun Feb  6 13:29:07 2022
Executable jdftx with command-line: -i Alkali.in
Running on hosts (process indices):  d-17-2-2 (0-18)
Divided in process groups (process indices):  0 (0)  1 (1)  2 (2)  3 (3)  4 (4)  5 (5)  6 (6)  7 (7)  8 (8)  9 (9)  10 (10)  11 (11)  12 (12)  13 (13)  14 (14)  15 (15)  16 (16)  17 (17)  18 (18)
Resource initialization completed at t[s]:      0.00
Run totals: 19 processes, 48 threads, 0 GPUs


Input parsed successfully to the following command list (including defaults):

basis kpoint-dependent
coords-type Lattice
core-overlap-check vector
coulomb-interaction Slab 001
davidson-band-ratio 1.1
dump End None
dump-name $INPUT.$VAR
elec-cutoff 20
elec-eigen-algo Davidson
elec-ex-corr gga-PBE
elec-initial-magnetization 0.600000 yes
elec-smearing Fermi 1e-05
electronic-minimize  \
	dirUpdateScheme      FletcherReeves \
	linminMethod         DirUpdateRecommended \
	nIterations          100 \
	history              15 \
	knormThreshold       0 \
	energyDiffThreshold  1e-08 \
	nEnergyDiff          2 \
	alphaTstart          1 \
	alphaTmin            1e-10 \
	updateTestStepSize   yes \
	alphaTreduceFactor   0.1 \
	alphaTincreaseFactor 3 \
	nAlphaAdjustMax      3 \
	wolfeEnergy          0.0001 \
	wolfeGradient        0.9 \
	fdTest               no
electronic-scf  \
	nIterations	10000 \
	energyDiffThreshold	1e-08 \
	residualThreshold	1e-07 \
	mixFraction	0.5 \
	qMetric	0.8 \
	history	10 \
	nEigSteps	2 \
	eigDiffThreshold	1e-08 \
	mixedVariable	Density \
	qKerker	0.8 \
	qKappa	-1 \
	verbose	no \
	mixFractionMag	1.5
exchange-regularization WignerSeitzTruncated
fluid None
fluid-ex-corr (null) lda-PZ
fluid-gummel-loop 10 1.000000e-05
fluid-minimize  \
	dirUpdateScheme      PolakRibiere \
	linminMethod         DirUpdateRecommended \
	nIterations          100 \
	history              15 \
	knormThreshold       0 \
	energyDiffThreshold  0 \
	nEnergyDiff          2 \
	alphaTstart          1 \
	alphaTmin            1e-10 \
	updateTestStepSize   yes \
	alphaTreduceFactor   0.1 \
	alphaTincreaseFactor 3 \
	nAlphaAdjustMax      3 \
	wolfeEnergy          0.0001 \
	wolfeGradient        0.9 \
	fdTest               no
fluid-solvent H2O 55.338 ScalarEOS \
	epsBulk 78.4 \
	pMol 0.92466 \
	epsInf 1.77 \
	Pvap 1.06736e-10 \
	sigmaBulk 4.62e-05 \
	Rvdw 2.61727 \
	Res 1.42 \
	tauNuc 343133 \
	poleEl 15 7 1
forces-output-coords Positions
ion Cs   0.000000000000000   0.000000000000000   0.000000000000000 0
ion-species SG15/$ID_ONCV_PBE.upf
ion-width 0
ionic-minimize  \
	dirUpdateScheme      L-BFGS \
	linminMethod         DirUpdateRecommended \
	nIterations          0 \
	history              15 \
	knormThreshold       0.0001 \
	energyDiffThreshold  1e-06 \
	nEnergyDiff          2 \
	alphaTstart          1 \
	alphaTmin            1e-10 \
	updateTestStepSize   yes \
	alphaTreduceFactor   0.1 \
	alphaTincreaseFactor 3 \
	nAlphaAdjustMax      3 \
	wolfeEnergy          0.0001 \
	wolfeGradient        0.9 \
	fdTest               no
kpoint   0.000000000000   0.000000000000   0.000000000000  1.00000000000000
kpoint-folding 12 12 1 
latt-move-scale 1 1 1
latt-scale 2 2 1 
lattice  \
	   4.727486978767153   -2.363743489383575    0.000000000000000  \
	  -0.000000000000000    4.094123819672498    0.000000000000000  \
	   0.000000000000000    0.000000000000000   40.000000000000000 
lattice-minimize  \
	dirUpdateScheme      L-BFGS \
	linminMethod         DirUpdateRecommended \
	nIterations          0 \
	history              15 \
	knormThreshold       0 \
	energyDiffThreshold  1e-06 \
	nEnergyDiff          2 \
	alphaTstart          1 \
	alphaTmin            1e-10 \
	updateTestStepSize   yes \
	alphaTreduceFactor   0.1 \
	alphaTincreaseFactor 3 \
	nAlphaAdjustMax      3 \
	wolfeEnergy          0.0001 \
	wolfeGradient        0.9 \
	fdTest               no
lcao-params -1 1e-06 1e-05
pcm-variant GLSSA13
spintype z-spin
subspace-rotation-factor 1 yes
symmetries automatic
symmetry-threshold 0.0001



---------- Setting up symmetries ----------

Found 24 point-group symmetries of the bravais lattice
Found 24 space-group symmetries with basis
Applied RMS atom displacement 0 bohrs to make symmetries exact.

---------- Initializing the Grid ----------
R = 
[      9.45497     -4.72749            0  ]
[            0      8.18825            0  ]
[            0            0           40  ]
unit cell volume = 3096.79
G =
[   0.664538   0.383671         -0  ]
[          0   0.767342         -0  ]
[         -0         -0    0.15708  ]
Minimum fftbox size, Smin = [  40  40  164  ]
Chosen fftbox size, S = [  40  40  168  ]

---------- Exchange Correlation functional ----------
Initalized PBE GGA exchange.
Initalized PBE GGA correlation.

---------- Setting up pseudopotentials ----------
Width of ionic core gaussian charges (only for fluid interactions / plotting) set to 0

Reading pseudopotential file '/home/gridsan/aligho/DFT/build-Nov24/pseudopotentials/SG15/Cs_ONCV_PBE.upf':
  'Cs' pseudopotential, 'PBE' functional
  Generated using ONCVPSP code by D. R. Hamann
  Author: Martin Schlipf and Francois Gygi  Date: 150915.
  9 valence electrons, 3 orbitals, 6 projectors, 2414 radial grid points, with lMax = 2
  Transforming local potential to a uniform radial grid of dG=0.02 with 1489 points.
  Transforming nonlocal projectors to a uniform radial grid of dG=0.02 with 432 points.
    5S    l: 0   occupation:  2.0   eigenvalue: -0.982388
    5P    l: 1   occupation:  6.0   eigenvalue: -0.496786
    6S    l: 0   occupation:  1.0   eigenvalue: -0.076670
  Transforming atomic orbitals to a uniform radial grid of dG=0.02 with 432 points.
  Core radius for overlap checks: 2.06 bohrs.
  Reading pulay file /home/gridsan/aligho/DFT/build-Nov24/pseudopotentials/SG15/Cs_ONCV_PBE.pulay ... using dE_dnG = -1.008762e-04 computed for Ecut = 20.

Initialized 1 species with 1 total atoms.

Folded 1 k-points by 12x12x1 to 144 k-points.

---------- Setting up k-points, bands, fillings ----------
Reduced to 19 k-points under symmetry. 
Computing the number of bands and number of electrons
Calculating initial fillings.
nElectrons:   9.000000   nBands: 6   nStates: 38

----- Setting up reduced wavefunction bases (one per k-point) -----
average nbasis = 13230.521 , ideal nbasis = 13229.709

---------- Setting up coulomb interaction ----------
Initialized slab truncation along lattice direction 001

---------- Setting up 2D ewald sum ----------
Optimum gaussian width for ewald sums = 5.249020 bohr.
Real space sums over 289 unit cells with max indices [  8  8  0  ]
Reciprocal space sums over 81 terms with max indices [  4  4  0  ]

---------- Allocating electronic variables ----------
Initializing wave functions:  linear combination of atomic orbitals
Note: number of bands (6) exceeds available atomic orbitals (5)
Cs pseudo-atom occupations:   s ( 2 1 )  p ( 6 )
	FillingsUpdate:  mu: -0.094103511  nElectrons: 9.000000  magneticMoment: [ Abs: 0.60000  Tot: +0.60000 ]
LCAOMinimize: Iter:   0  F: -20.1740418651340683  |grad|_K:  2.710e-05  alpha:  1.000e+00
	FillingsUpdate:  mu: -0.094091175  nElectrons: 9.000000  magneticMoment: [ Abs: 0.60000  Tot: +0.60000 ]
LCAOMinimize: Iter:   1  F: -20.1740423572991183  |grad|_K:  2.745e-07  alpha:  9.796e-01  linmin: -2.639e-02  cgtest:  2.336e-01  t[s]:      4.55
LCAOMinimize: Encountered beta<0, resetting CG.
	FillingsUpdate:  mu: -0.094091267  nElectrons: 9.000000  magneticMoment: [ Abs: 0.60000  Tot: +0.60000 ]
LCAOMinimize: Iter:   2  F: -20.1740423573499967  |grad|_K:  2.485e-09  alpha:  9.929e-01  linmin: -1.062e-01  cgtest:  7.892e-01  t[s]:      5.81
LCAOMinimize: Encountered beta<0, resetting CG.
LCAOMinimize: Converged (|Delta F|<1.000000e-06 for 2 iters).


---- Citations for features of the code used in this run ----

   Software package:
      R. Sundararaman, K. Letchworth-Weaver, K.A. Schwarz, D. Gunceler, Y. Ozhabes and T.A. Arias, 'JDFTx: software for joint density-functional theory', SoftwareX 6, 278 (2017)

   gga-PBE exchange-correlation functional:
      J.P. Perdew, K. Burke and M. Ernzerhof, Phys. Rev. Lett. 77, 3865 (1996)

   Pseudopotentials:
      M Schlipf and F Gygi, Comput. Phys. Commun. 196, 36 (2015)

   Truncated Coulomb potentials:
      R. Sundararaman and T.A. Arias, Phys. Rev. B 87, 165122 (2013)

This list may not be complete. Please suggest additional citations or
report any other bugs at https://github.com/shankar1729/jdftx/issues

Initialization completed successfully at t[s]:      5.90


-------- Electronic minimization -----------
Will mix electronic density at each iteration.
	FillingsUpdate:  mu: -0.094091267  nElectrons: 9.000000  magneticMoment: [ Abs: 0.60000  Tot: +0.60000 ]
	FillingsUpdate:  mu: -0.108068311  nElectrons: 9.000000  magneticMoment: [ Abs: 0.60000  Tot: +0.60000 ]
SCF: Cycle:  0   F: -20.182959809416467   dF: -8.917e-03   |Residual|: 1.619e-02   |deigs|: 1.880e-01  t[s]:      8.35
	FillingsUpdate:  mu: -0.108397231  nElectrons: 9.000000  magneticMoment: [ Abs: 0.60000  Tot: +0.60000 ]
SCF: Cycle:  1   F: -20.183760639156652   dF: -8.008e-04   |Residual|: 1.240e-02   |deigs|: 5.454e-03  t[s]:     10.17
	FillingsUpdate:  mu: -0.105598608  nElectrons: 9.000000  magneticMoment: [ Abs: 0.60734  Tot: +0.60000 ]
SCF: Cycle:  2   F: -20.184151053696652   dF: -3.904e-04   |Residual|: 6.729e-03   |deigs|: 2.198e-03  t[s]:     12.02
	FillingsUpdate:  mu: -0.103333792  nElectrons: 9.000000  magneticMoment: [ Abs: 0.60000  Tot: +0.60000 ]
SCF: Cycle:  3   F: -20.184339507043209   dF: -1.885e-04   |Residual|: 4.290e-03   |deigs|: 3.079e-03  t[s]:     13.89
	FillingsUpdate:  mu: -0.100537333  nElectrons: 9.000000  magneticMoment: [ Abs: 0.60002  Tot: +0.60000 ]
SCF: Cycle:  4   F: -20.184428820344991   dF: -8.931e-05   |Residual|: 3.145e-03   |deigs|: 3.219e-03  t[s]:     15.86
	FillingsUpdate:  mu: -0.097665051  nElectrons: 9.000000  magneticMoment: [ Abs: 0.60461  Tot: +0.60000 ]
SCF: Cycle:  5   F: -20.184474233966874   dF: -4.541e-05   |Residual|: 2.693e-03   |deigs|: 3.585e-03  t[s]:     17.86
	FillingsUpdate:  mu: -0.094628084  nElectrons: 9.000000  magneticMoment: [ Abs: 0.61419  Tot: +0.60000 ]
SCF: Cycle:  6   F: -20.184474204988241   dF: +2.898e-08   |Residual|: 1.908e-03   |deigs|: 3.651e-03  t[s]:     19.81
	FillingsUpdate:  mu: -0.091957803  nElectrons: 9.000000  magneticMoment: [ Abs: 0.61300  Tot: +0.60000 ]
SCF: Cycle:  7   F: -20.184534376734916   dF: -6.017e-05   |Residual|: 1.577e-03   |deigs|: 2.989e-03  t[s]:     21.80
	FillingsUpdate:  mu: -0.091935103  nElectrons: 9.000000  magneticMoment: [ Abs: 0.60231  Tot: +0.60000 ]
SCF: Cycle:  8   F: -20.184565377949877   dF: -3.100e-05   |Residual|: 1.363e-03   |deigs|: 5.124e-04  t[s]:     23.77
	FillingsUpdate:  mu: -0.089763956  nElectrons: 9.000000  magneticMoment: [ Abs: 0.60436  Tot: +0.60000 ]
SCF: Cycle:  9   F: -20.184555431165609   dF: +9.947e-06   |Residual|: 1.079e-03   |deigs|: 2.312e-03  t[s]:     25.82
	FillingsUpdate:  mu: -0.087720066  nElectrons: 9.000000  magneticMoment: [ Abs: 0.60702  Tot: +0.60000 ]
SCF: Cycle: 10   F: -20.184551670848549   dF: +3.760e-06   |Residual|: 8.971e-04   |deigs|: 2.183e-03  t[s]:     27.83
	FillingsUpdate:  mu: -0.086589129  nElectrons: 9.000000  magneticMoment: [ Abs: 0.60620  Tot: +0.60000 ]
SCF: Cycle: 11   F: -20.184572267334953   dF: -2.060e-05   |Residual|: 8.257e-04   |deigs|: 1.267e-03  t[s]:     29.89
	FillingsUpdate:  mu: -0.084977586  nElectrons: 9.000000  magneticMoment: [ Abs: 0.60791  Tot: +0.60000 ]
SCF: Cycle: 12   F: -20.184594819547574   dF: -2.255e-05   |Residual|: 7.503e-04   |deigs|: 1.661e-03  t[s]:     31.97
	FillingsUpdate:  mu: -0.082596897  nElectrons: 9.000000  magneticMoment: [ Abs: 0.60777  Tot: +0.60000 ]
SCF: Cycle: 13   F: -20.184608065226595   dF: -1.325e-05   |Residual|: 6.987e-04   |deigs|: 2.457e-03  t[s]:     34.03
	FillingsUpdate:  mu: -0.080655419  nElectrons: 9.000000  magneticMoment: [ Abs: 0.60389  Tot: +0.60000 ]
SCF: Cycle: 14   F: -20.184616871740435   dF: -8.807e-06   |Residual|: 6.272e-04   |deigs|: 2.032e-03  t[s]:     36.07
	FillingsUpdate:  mu: -0.079286307  nElectrons: 9.000000  magneticMoment: [ Abs: 0.60141  Tot: +0.60000 ]
SCF: Cycle: 15   F: -20.184625502262755   dF: -8.631e-06   |Residual|: 4.461e-04   |deigs|: 1.663e-03  t[s]:     38.10
	FillingsUpdate:  mu: -0.078468822  nElectrons: 9.000000  magneticMoment: [ Abs: 0.60126  Tot: +0.60000 ]
SCF: Cycle: 16   F: -20.184629840401449   dF: -4.338e-06   |Residual|: 3.337e-04   |deigs|: 1.301e-03  t[s]:     40.15
	FillingsUpdate:  mu: -0.078166267  nElectrons: 9.000000  magneticMoment: [ Abs: 0.60066  Tot: +0.60000 ]
SCF: Cycle: 17   F: -20.184632572525729   dF: -2.732e-06   |Residual|: 2.309e-04   |deigs|: 7.580e-04  t[s]:     42.19
	FillingsUpdate:  mu: -0.078368109  nElectrons: 9.000000  magneticMoment: [ Abs: 0.60142  Tot: +0.60000 ]
SCF: Cycle: 18   F: -20.184633671351971   dF: -1.099e-06   |Residual|: 1.551e-04   |deigs|: 6.203e-04  t[s]:     44.29
	FillingsUpdate:  mu: -0.078489481  nElectrons: 9.000000  magneticMoment: [ Abs: 0.60078  Tot: +0.60000 ]
SCF: Cycle: 19   F: -20.184634479005414   dF: -8.077e-07   |Residual|: 7.200e-05   |deigs|: 3.492e-04  t[s]:     46.35
	FillingsUpdate:  mu: -0.078539054  nElectrons: 9.000000  magneticMoment: [ Abs: 0.60048  Tot: +0.60000 ]
SCF: Cycle: 20   F: -20.184634728354936   dF: -2.493e-07   |Residual|: 4.436e-05   |deigs|: 4.871e-04  t[s]:     48.41
	FillingsUpdate:  mu: -0.078493423  nElectrons: 9.000000  magneticMoment: [ Abs: 0.60045  Tot: +0.60000 ]
SCF: Cycle: 21   F: -20.184634854478205   dF: -1.261e-07   |Residual|: 2.737e-05   |deigs|: 2.584e-04  t[s]:     50.48
	FillingsUpdate:  mu: -0.078524889  nElectrons: 9.000000  magneticMoment: [ Abs: 0.60048  Tot: +0.60000 ]
SCF: Cycle: 22   F: -20.184634935400737   dF: -8.092e-08   |Residual|: 2.201e-05   |deigs|: 2.031e-04  t[s]:     52.51
	FillingsUpdate:  mu: -0.078555417  nElectrons: 9.000000  magneticMoment: [ Abs: 0.60048  Tot: +0.60000 ]
SCF: Cycle: 23   F: -20.184634966785516   dF: -3.138e-08   |Residual|: 1.591e-05   |deigs|: 2.176e-04  t[s]:     54.62
	FillingsUpdate:  mu: -0.078568465  nElectrons: 9.000000  magneticMoment: [ Abs: 0.60050  Tot: +0.60000 ]
SCF: Cycle: 24   F: -20.184634992179593   dF: -2.539e-08   |Residual|: 1.242e-05   |deigs|: 8.607e-04  t[s]:     56.68
	FillingsUpdate:  mu: -0.078554907  nElectrons: 9.000000  magneticMoment: [ Abs: 0.60048  Tot: +0.60000 ]
SCF: Cycle: 25   F: -20.184635000190355   dF: -8.011e-09   |Residual|: 9.751e-06   |deigs|: 5.162e-04  t[s]:     58.75
	FillingsUpdate:  mu: -0.078545456  nElectrons: 9.000000  magneticMoment: [ Abs: 0.60043  Tot: +0.60000 ]
SCF: Cycle: 26   F: -20.184635010812443   dF: -1.062e-08   |Residual|: 8.631e-06   |deigs|: 1.508e-04  t[s]:     60.88
	FillingsUpdate:  mu: -0.078547217  nElectrons: 9.000000  magneticMoment: [ Abs: 0.60036  Tot: +0.60000 ]
SCF: Cycle: 27   F: -20.184635017196442   dF: -6.384e-09   |Residual|: 7.296e-06   |deigs|: 1.629e-04  t[s]:     62.95
	FillingsUpdate:  mu: -0.078539313  nElectrons: 9.000000  magneticMoment: [ Abs: 0.60030  Tot: +0.60000 ]
SCF: Cycle: 28   F: -20.184635022228914   dF: -5.032e-09   |Residual|: 4.500e-06   |deigs|: 1.231e-04  t[s]:     65.03
SCF: Converged (|Delta E|<1.000000e-08 for 2 iters).


# Ionic positions in lattice coordinates:
ion Cs   0.000000000000000   0.000000000000000   0.000000000000000 0

# Forces in Lattice coordinates:
force Cs   0.000000000000000   0.000000000000000   0.000000000000000 0

# Energy components:
   Eewald =      -18.0480261003326561
       EH =       -1.7822310917442530
     Eloc =       -5.7985311625946707
      Enl =        3.4389856709383171
   Epulay =        0.0000000264484078
      Exc =       -3.1491820796890755
       KE =        5.1543505644811001
-------------------------------------
     Etot =      -20.1846341724928315
       TS =        0.0000008497360834
-------------------------------------
        F =      -20.1846350222289139

IonicMinimize: Iter:   0  F: -20.184635022228914  |grad|_K:  0.000e+00  t[s]:     65.16
IonicMinimize: Converged (|grad|_K<1.000000e-04).

#--- Lowdin population analysis ---
# oxidation-state Cs +0.097
# magnetic-moments Cs +0.511

End date and time: Sun Feb  6 13:30:12 2022  (Duration: 0-0:01:05.18)
Done!
