
*************** JDFTx 1.6.0 (git hash 42ebbcc2) ***************

Start date and time: Sun Feb  6 13:28:06 2022
Executable jdftx with command-line: -i Alkali.in
Running on hosts (process indices):  d-16-8-3 (0-18)
Divided in process groups (process indices):  0 (0)  1 (1)  2 (2)  3 (3)  4 (4)  5 (5)  6 (6)  7 (7)  8 (8)  9 (9)  10 (10)  11 (11)  12 (12)  13 (13)  14 (14)  15 (15)  16 (16)  17 (17)  18 (18)
Resource initialization completed at t[s]:      0.00
Run totals: 19 processes, 48 threads, 0 GPUs


Input parsed successfully to the following command list (including defaults):

basis kpoint-dependent
coords-type Lattice
core-overlap-check vector
coulomb-interaction Slab 001
davidson-band-ratio 1.1
dump End None
dump-name $INPUT.$VAR
elec-cutoff 20
elec-eigen-algo Davidson
elec-ex-corr gga-PBE
elec-initial-magnetization 0.420000 yes
elec-smearing Fermi 1e-05
electronic-minimize  \
	dirUpdateScheme      FletcherReeves \
	linminMethod         DirUpdateRecommended \
	nIterations          100 \
	history              15 \
	knormThreshold       0 \
	energyDiffThreshold  1e-08 \
	nEnergyDiff          2 \
	alphaTstart          1 \
	alphaTmin            1e-10 \
	updateTestStepSize   yes \
	alphaTreduceFactor   0.1 \
	alphaTincreaseFactor 3 \
	nAlphaAdjustMax      3 \
	wolfeEnergy          0.0001 \
	wolfeGradient        0.9 \
	fdTest               no
electronic-scf  \
	nIterations	10000 \
	energyDiffThreshold	1e-08 \
	residualThreshold	1e-07 \
	mixFraction	0.5 \
	qMetric	0.8 \
	history	10 \
	nEigSteps	2 \
	eigDiffThreshold	1e-08 \
	mixedVariable	Density \
	qKerker	0.8 \
	qKappa	-1 \
	verbose	no \
	mixFractionMag	1.5
exchange-regularization WignerSeitzTruncated
fluid None
fluid-ex-corr (null) lda-PZ
fluid-gummel-loop 10 1.000000e-05
fluid-minimize  \
	dirUpdateScheme      PolakRibiere \
	linminMethod         DirUpdateRecommended \
	nIterations          100 \
	history              15 \
	knormThreshold       0 \
	energyDiffThreshold  0 \
	nEnergyDiff          2 \
	alphaTstart          1 \
	alphaTmin            1e-10 \
	updateTestStepSize   yes \
	alphaTreduceFactor   0.1 \
	alphaTincreaseFactor 3 \
	nAlphaAdjustMax      3 \
	wolfeEnergy          0.0001 \
	wolfeGradient        0.9 \
	fdTest               no
fluid-solvent H2O 55.338 ScalarEOS \
	epsBulk 78.4 \
	pMol 0.92466 \
	epsInf 1.77 \
	Pvap 1.06736e-10 \
	sigmaBulk 4.62e-05 \
	Rvdw 2.61727 \
	Res 1.42 \
	tauNuc 343133 \
	poleEl 15 7 1
forces-output-coords Positions
ion Cs   0.000000000000000   0.000000000000000   0.000000000000000 0
ion-species SG15/$ID_ONCV_PBE.upf
ion-width 0
ionic-minimize  \
	dirUpdateScheme      L-BFGS \
	linminMethod         DirUpdateRecommended \
	nIterations          0 \
	history              15 \
	knormThreshold       0.0001 \
	energyDiffThreshold  1e-06 \
	nEnergyDiff          2 \
	alphaTstart          1 \
	alphaTmin            1e-10 \
	updateTestStepSize   yes \
	alphaTreduceFactor   0.1 \
	alphaTincreaseFactor 3 \
	nAlphaAdjustMax      3 \
	wolfeEnergy          0.0001 \
	wolfeGradient        0.9 \
	fdTest               no
kpoint   0.000000000000   0.000000000000   0.000000000000  1.00000000000000
kpoint-folding 12 12 1 
latt-move-scale 1 1 1
latt-scale 2 2 1 
lattice  \
	   4.727486978767153   -2.363743489383575    0.000000000000000  \
	  -0.000000000000000    4.094123819672498    0.000000000000000  \
	   0.000000000000000    0.000000000000000   40.000000000000000 
lattice-minimize  \
	dirUpdateScheme      L-BFGS \
	linminMethod         DirUpdateRecommended \
	nIterations          0 \
	history              15 \
	knormThreshold       0 \
	energyDiffThreshold  1e-06 \
	nEnergyDiff          2 \
	alphaTstart          1 \
	alphaTmin            1e-10 \
	updateTestStepSize   yes \
	alphaTreduceFactor   0.1 \
	alphaTincreaseFactor 3 \
	nAlphaAdjustMax      3 \
	wolfeEnergy          0.0001 \
	wolfeGradient        0.9 \
	fdTest               no
lcao-params -1 1e-06 1e-05
pcm-variant GLSSA13
spintype z-spin
subspace-rotation-factor 1 yes
symmetries automatic
symmetry-threshold 0.0001



---------- Setting up symmetries ----------

Found 24 point-group symmetries of the bravais lattice
Found 24 space-group symmetries with basis
Applied RMS atom displacement 0 bohrs to make symmetries exact.

---------- Initializing the Grid ----------
R = 
[      9.45497     -4.72749            0  ]
[            0      8.18825            0  ]
[            0            0           40  ]
unit cell volume = 3096.79
G =
[   0.664538   0.383671         -0  ]
[          0   0.767342         -0  ]
[         -0         -0    0.15708  ]
Minimum fftbox size, Smin = [  40  40  164  ]
Chosen fftbox size, S = [  40  40  168  ]

---------- Exchange Correlation functional ----------
Initalized PBE GGA exchange.
Initalized PBE GGA correlation.

---------- Setting up pseudopotentials ----------
Width of ionic core gaussian charges (only for fluid interactions / plotting) set to 0

Reading pseudopotential file '/home/gridsan/aligho/DFT/build-Nov24/pseudopotentials/SG15/Cs_ONCV_PBE.upf':
  'Cs' pseudopotential, 'PBE' functional
  Generated using ONCVPSP code by D. R. Hamann
  Author: Martin Schlipf and Francois Gygi  Date: 150915.
  9 valence electrons, 3 orbitals, 6 projectors, 2414 radial grid points, with lMax = 2
  Transforming local potential to a uniform radial grid of dG=0.02 with 1489 points.
  Transforming nonlocal projectors to a uniform radial grid of dG=0.02 with 432 points.
    5S    l: 0   occupation:  2.0   eigenvalue: -0.982388
    5P    l: 1   occupation:  6.0   eigenvalue: -0.496786
    6S    l: 0   occupation:  1.0   eigenvalue: -0.076670
  Transforming atomic orbitals to a uniform radial grid of dG=0.02 with 432 points.
  Core radius for overlap checks: 2.06 bohrs.
  Reading pulay file /home/gridsan/aligho/DFT/build-Nov24/pseudopotentials/SG15/Cs_ONCV_PBE.pulay ... using dE_dnG = -1.008762e-04 computed for Ecut = 20.

Initialized 1 species with 1 total atoms.

Folded 1 k-points by 12x12x1 to 144 k-points.

---------- Setting up k-points, bands, fillings ----------
Reduced to 19 k-points under symmetry. 
Computing the number of bands and number of electrons
Calculating initial fillings.
nElectrons:   9.000000   nBands: 6   nStates: 38

----- Setting up reduced wavefunction bases (one per k-point) -----
average nbasis = 13230.521 , ideal nbasis = 13229.709

---------- Setting up coulomb interaction ----------
Initialized slab truncation along lattice direction 001

---------- Setting up 2D ewald sum ----------
Optimum gaussian width for ewald sums = 5.249020 bohr.
Real space sums over 289 unit cells with max indices [  8  8  0  ]
Reciprocal space sums over 81 terms with max indices [  4  4  0  ]

---------- Allocating electronic variables ----------
Initializing wave functions:  linear combination of atomic orbitals
Note: number of bands (6) exceeds available atomic orbitals (5)
Cs pseudo-atom occupations:   s ( 2 1 )  p ( 6 )
	FillingsUpdate:  mu: -0.089255708  nElectrons: 9.000000  magneticMoment: [ Abs: 0.42000  Tot: +0.42000 ]
LCAOMinimize: Iter:   0  F: -20.1782191602015573  |grad|_K:  3.433e-05  alpha:  1.000e+00
	FillingsUpdate:  mu: -0.089239574  nElectrons: 9.000000  magneticMoment: [ Abs: 0.42000  Tot: +0.42000 ]
LCAOMinimize: Iter:   1  F: -20.1782199486446423  |grad|_K:  3.480e-07  alpha:  9.784e-01  linmin: -3.641e-02  cgtest:  3.038e-01  t[s]:      4.49
LCAOMinimize: Encountered beta<0, resetting CG.
	FillingsUpdate:  mu: -0.089239680  nElectrons: 9.000000  magneticMoment: [ Abs: 0.42000  Tot: +0.42000 ]
LCAOMinimize: Iter:   2  F: -20.1782199487278326  |grad|_K:  1.751e-09  alpha:  1.004e+00  linmin:  9.414e-02  cgtest: -6.761e-01  t[s]:      5.70
LCAOMinimize: Converged (|Delta F|<1.000000e-06 for 2 iters).


---- Citations for features of the code used in this run ----

   Software package:
      R. Sundararaman, K. Letchworth-Weaver, K.A. Schwarz, D. Gunceler, Y. Ozhabes and T.A. Arias, 'JDFTx: software for joint density-functional theory', SoftwareX 6, 278 (2017)

   gga-PBE exchange-correlation functional:
      J.P. Perdew, K. Burke and M. Ernzerhof, Phys. Rev. Lett. 77, 3865 (1996)

   Pseudopotentials:
      M Schlipf and F Gygi, Comput. Phys. Commun. 196, 36 (2015)

   Truncated Coulomb potentials:
      R. Sundararaman and T.A. Arias, Phys. Rev. B 87, 165122 (2013)

This list may not be complete. Please suggest additional citations or
report any other bugs at https://github.com/shankar1729/jdftx/issues

Initialization completed successfully at t[s]:      5.79


-------- Electronic minimization -----------
Will mix electronic density at each iteration.
	FillingsUpdate:  mu: -0.089239680  nElectrons: 9.000000  magneticMoment: [ Abs: 0.42000  Tot: +0.42000 ]
	FillingsUpdate:  mu: -0.103141646  nElectrons: 9.000000  magneticMoment: [ Abs: 0.42000  Tot: +0.42000 ]
SCF: Cycle:  0   F: -20.185077781232774   dF: -6.858e-03   |Residual|: 1.415e-02   |deigs|: 1.880e-01  t[s]:      8.13
	FillingsUpdate:  mu: -0.103493167  nElectrons: 9.000000  magneticMoment: [ Abs: 0.42000  Tot: +0.42000 ]
SCF: Cycle:  1   F: -20.185728493506335   dF: -6.507e-04   |Residual|: 1.110e-02   |deigs|: 5.336e-03  t[s]:     10.08
	FillingsUpdate:  mu: -0.100717123  nElectrons: 9.000000  magneticMoment: [ Abs: 0.42852  Tot: +0.42000 ]
SCF: Cycle:  2   F: -20.186080619889228   dF: -3.521e-04   |Residual|: 5.515e-03   |deigs|: 2.498e-03  t[s]:     11.90
	FillingsUpdate:  mu: -0.098996776  nElectrons: 9.000000  magneticMoment: [ Abs: 0.42000  Tot: +0.42000 ]
SCF: Cycle:  3   F: -20.186245550205921   dF: -1.649e-04   |Residual|: 3.710e-03   |deigs|: 2.703e-03  t[s]:     13.76
	FillingsUpdate:  mu: -0.096589761  nElectrons: 9.000000  magneticMoment: [ Abs: 0.42052  Tot: +0.42000 ]
SCF: Cycle:  4   F: -20.186324116750562   dF: -7.857e-05   |Residual|: 2.811e-03   |deigs|: 3.087e-03  t[s]:     15.62
	FillingsUpdate:  mu: -0.093963811  nElectrons: 9.000000  magneticMoment: [ Abs: 0.42566  Tot: +0.42000 ]
SCF: Cycle:  5   F: -20.186368889497363   dF: -4.477e-05   |Residual|: 2.462e-03   |deigs|: 3.242e-03  t[s]:     17.60
	FillingsUpdate:  mu: -0.091297603  nElectrons: 9.000000  magneticMoment: [ Abs: 0.43310  Tot: +0.42000 ]
SCF: Cycle:  6   F: -20.186373389296520   dF: -4.500e-06   |Residual|: 1.691e-03   |deigs|: 3.233e-03  t[s]:     19.51
	FillingsUpdate:  mu: -0.088849049  nElectrons: 9.000000  magneticMoment: [ Abs: 0.43073  Tot: +0.42000 ]
SCF: Cycle:  7   F: -20.186406924206270   dF: -3.353e-05   |Residual|: 1.381e-03   |deigs|: 2.583e-03  t[s]:     21.41
	FillingsUpdate:  mu: -0.088042804  nElectrons: 9.000000  magneticMoment: [ Abs: 0.42293  Tot: +0.42000 ]
SCF: Cycle:  8   F: -20.186438276075904   dF: -3.135e-05   |Residual|: 1.155e-03   |deigs|: 1.225e-03  t[s]:     23.35
	FillingsUpdate:  mu: -0.086373345  nElectrons: 9.000000  magneticMoment: [ Abs: 0.42442  Tot: +0.42000 ]
SCF: Cycle:  9   F: -20.186428621976201   dF: +9.654e-06   |Residual|: 9.732e-04   |deigs|: 1.749e-03  t[s]:     25.41
	FillingsUpdate:  mu: -0.084260244  nElectrons: 9.000000  magneticMoment: [ Abs: 0.42679  Tot: +0.42000 ]
SCF: Cycle: 10   F: -20.186423332073620   dF: +5.290e-06   |Residual|: 8.371e-04   |deigs|: 2.245e-03  t[s]:     27.42
	FillingsUpdate:  mu: -0.082719751  nElectrons: 9.000000  magneticMoment: [ Abs: 0.42568  Tot: +0.42000 ]
SCF: Cycle: 11   F: -20.186440134192207   dF: -1.680e-05   |Residual|: 7.543e-04   |deigs|: 1.603e-03  t[s]:     29.42
	FillingsUpdate:  mu: -0.081344139  nElectrons: 9.000000  magneticMoment: [ Abs: 0.42608  Tot: +0.42000 ]
SCF: Cycle: 12   F: -20.186466851796833   dF: -2.672e-05   |Residual|: 7.170e-04   |deigs|: 1.338e-03  t[s]:     31.45
	FillingsUpdate:  mu: -0.079552816  nElectrons: 9.000000  magneticMoment: [ Abs: 0.42577  Tot: +0.42000 ]
SCF: Cycle: 13   F: -20.186478697359110   dF: -1.185e-05   |Residual|: 6.533e-04   |deigs|: 1.812e-03  t[s]:     33.46
	FillingsUpdate:  mu: -0.077358220  nElectrons: 9.000000  magneticMoment: [ Abs: 0.42240  Tot: +0.42000 ]
SCF: Cycle: 14   F: -20.186488189440627   dF: -9.492e-06   |Residual|: 5.383e-04   |deigs|: 2.301e-03  t[s]:     35.51
	FillingsUpdate:  mu: -0.076720211  nElectrons: 9.000000  magneticMoment: [ Abs: 0.42122  Tot: +0.42000 ]
SCF: Cycle: 15   F: -20.186494691706542   dF: -6.502e-06   |Residual|: 3.779e-04   |deigs|: 8.386e-04  t[s]:     37.52
	FillingsUpdate:  mu: -0.075886853  nElectrons: 9.000000  magneticMoment: [ Abs: 0.42074  Tot: +0.42000 ]
SCF: Cycle: 16   F: -20.186498546404415   dF: -3.855e-06   |Residual|: 2.741e-04   |deigs|: 1.619e-03  t[s]:     39.49
	FillingsUpdate:  mu: -0.075722590  nElectrons: 9.000000  magneticMoment: [ Abs: 0.42021  Tot: +0.42000 ]
SCF: Cycle: 17   F: -20.186500162592825   dF: -1.616e-06   |Residual|: 1.809e-04   |deigs|: 7.259e-04  t[s]:     41.53
	FillingsUpdate:  mu: -0.075825018  nElectrons: 9.000000  magneticMoment: [ Abs: 0.42061  Tot: +0.42000 ]
SCF: Cycle: 18   F: -20.186501044793157   dF: -8.822e-07   |Residual|: 1.147e-04   |deigs|: 3.231e-04  t[s]:     43.62
	FillingsUpdate:  mu: -0.075985077  nElectrons: 9.000000  magneticMoment: [ Abs: 0.42041  Tot: +0.42000 ]
SCF: Cycle: 19   F: -20.186501505452828   dF: -4.607e-07   |Residual|: 5.289e-05   |deigs|: 4.664e-04  t[s]:     45.73
	FillingsUpdate:  mu: -0.075955769  nElectrons: 9.000000  magneticMoment: [ Abs: 0.42025  Tot: +0.42000 ]
SCF: Cycle: 20   F: -20.186501619326656   dF: -1.139e-07   |Residual|: 3.056e-05   |deigs|: 1.394e-04  t[s]:     47.72
	FillingsUpdate:  mu: -0.075957298  nElectrons: 9.000000  magneticMoment: [ Abs: 0.42021  Tot: +0.42000 ]
SCF: Cycle: 21   F: -20.186501682642231   dF: -6.332e-08   |Residual|: 1.849e-05   |deigs|: 1.702e-04  t[s]:     49.74
	FillingsUpdate:  mu: -0.075962214  nElectrons: 9.000000  magneticMoment: [ Abs: 0.42020  Tot: +0.42000 ]
SCF: Cycle: 22   F: -20.186501708045050   dF: -2.540e-08   |Residual|: 1.161e-05   |deigs|: 1.920e-04  t[s]:     51.76
	FillingsUpdate:  mu: -0.075959125  nElectrons: 9.000000  magneticMoment: [ Abs: 0.42025  Tot: +0.42000 ]
SCF: Cycle: 23   F: -20.186501728173592   dF: -2.013e-08   |Residual|: 7.708e-06   |deigs|: 1.552e-04  t[s]:     53.80
	FillingsUpdate:  mu: -0.075958484  nElectrons: 9.000000  magneticMoment: [ Abs: 0.42025  Tot: +0.42000 ]
SCF: Cycle: 24   F: -20.186501738317812   dF: -1.014e-08   |Residual|: 5.559e-06   |deigs|: 1.427e-04  t[s]:     55.83
	FillingsUpdate:  mu: -0.075958353  nElectrons: 9.000000  magneticMoment: [ Abs: 0.42024  Tot: +0.42000 ]
SCF: Cycle: 25   F: -20.186501745316416   dF: -6.999e-09   |Residual|: 4.126e-06   |deigs|: 1.445e-04  t[s]:     57.91
	FillingsUpdate:  mu: -0.075957814  nElectrons: 9.000000  magneticMoment: [ Abs: 0.42023  Tot: +0.42000 ]
SCF: Cycle: 26   F: -20.186501750099168   dF: -4.783e-09   |Residual|: 3.602e-06   |deigs|: 1.997e-04  t[s]:     59.97
SCF: Converged (|Delta E|<1.000000e-08 for 2 iters).


# Ionic positions in lattice coordinates:
ion Cs   0.000000000000000   0.000000000000000   0.000000000000000 0

# Forces in Lattice coordinates:
force Cs  -0.000000000000000   0.000000000000000   0.000000000000000 0

# Energy components:
   Eewald =      -18.0480261003326561
       EH =       -1.8056920668136840
     Eloc =       -5.7762928605304946
      Enl =        3.4405816198314976
   Epulay =        0.0000000264484078
      Exc =       -3.1464780616531898
       KE =        5.1494064233635575
-------------------------------------
     Etot =      -20.1865010196865633
       TS =        0.0000007304126033
-------------------------------------
        F =      -20.1865017500991684

IonicMinimize: Iter:   0  F: -20.186501750099168  |grad|_K:  0.000e+00  t[s]:     60.08
IonicMinimize: Converged (|grad|_K<1.000000e-04).

#--- Lowdin population analysis ---
# oxidation-state Cs +0.074
# magnetic-moments Cs +0.359

End date and time: Sun Feb  6 13:29:06 2022  (Duration: 0-0:01:00.11)
Done!
