
*************** JDFTx 1.6.0 (git hash 42ebbcc2) ***************

Start date and time: Sun Feb  6 13:29:38 2022
Executable jdftx with command-line: -i Alkali.in
Running on hosts (process indices):  d-4-7-2 (0-18)
Divided in process groups (process indices):  0 (0)  1 (1)  2 (2)  3 (3)  4 (4)  5 (5)  6 (6)  7 (7)  8 (8)  9 (9)  10 (10)  11 (11)  12 (12)  13 (13)  14 (14)  15 (15)  16 (16)  17 (17)  18 (18)
Resource initialization completed at t[s]:      0.00
Run totals: 19 processes, 48 threads, 0 GPUs


Input parsed successfully to the following command list (including defaults):

basis kpoint-dependent
coords-type Lattice
core-overlap-check vector
coulomb-interaction Slab 001
davidson-band-ratio 1.1
dump End None
dump-name $INPUT.$VAR
elec-cutoff 20
elec-eigen-algo Davidson
elec-ex-corr gga-PBE
elec-initial-magnetization 0.680000 yes
elec-smearing Fermi 1e-05
electronic-minimize  \
	dirUpdateScheme      FletcherReeves \
	linminMethod         DirUpdateRecommended \
	nIterations          100 \
	history              15 \
	knormThreshold       0 \
	energyDiffThreshold  1e-08 \
	nEnergyDiff          2 \
	alphaTstart          1 \
	alphaTmin            1e-10 \
	updateTestStepSize   yes \
	alphaTreduceFactor   0.1 \
	alphaTincreaseFactor 3 \
	nAlphaAdjustMax      3 \
	wolfeEnergy          0.0001 \
	wolfeGradient        0.9 \
	fdTest               no
electronic-scf  \
	nIterations	10000 \
	energyDiffThreshold	1e-08 \
	residualThreshold	1e-07 \
	mixFraction	0.5 \
	qMetric	0.8 \
	history	10 \
	nEigSteps	2 \
	eigDiffThreshold	1e-08 \
	mixedVariable	Density \
	qKerker	0.8 \
	qKappa	-1 \
	verbose	no \
	mixFractionMag	1.5
exchange-regularization WignerSeitzTruncated
fluid None
fluid-ex-corr (null) lda-PZ
fluid-gummel-loop 10 1.000000e-05
fluid-minimize  \
	dirUpdateScheme      PolakRibiere \
	linminMethod         DirUpdateRecommended \
	nIterations          100 \
	history              15 \
	knormThreshold       0 \
	energyDiffThreshold  0 \
	nEnergyDiff          2 \
	alphaTstart          1 \
	alphaTmin            1e-10 \
	updateTestStepSize   yes \
	alphaTreduceFactor   0.1 \
	alphaTincreaseFactor 3 \
	nAlphaAdjustMax      3 \
	wolfeEnergy          0.0001 \
	wolfeGradient        0.9 \
	fdTest               no
fluid-solvent H2O 55.338 ScalarEOS \
	epsBulk 78.4 \
	pMol 0.92466 \
	epsInf 1.77 \
	Pvap 1.06736e-10 \
	sigmaBulk 4.62e-05 \
	Rvdw 2.61727 \
	Res 1.42 \
	tauNuc 343133 \
	poleEl 15 7 1
forces-output-coords Positions
ion Cs   0.000000000000000   0.000000000000000   0.000000000000000 0
ion-species SG15/$ID_ONCV_PBE.upf
ion-width 0
ionic-minimize  \
	dirUpdateScheme      L-BFGS \
	linminMethod         DirUpdateRecommended \
	nIterations          0 \
	history              15 \
	knormThreshold       0.0001 \
	energyDiffThreshold  1e-06 \
	nEnergyDiff          2 \
	alphaTstart          1 \
	alphaTmin            1e-10 \
	updateTestStepSize   yes \
	alphaTreduceFactor   0.1 \
	alphaTincreaseFactor 3 \
	nAlphaAdjustMax      3 \
	wolfeEnergy          0.0001 \
	wolfeGradient        0.9 \
	fdTest               no
kpoint   0.000000000000   0.000000000000   0.000000000000  1.00000000000000
kpoint-folding 12 12 1 
latt-move-scale 1 1 1
latt-scale 2 2 1 
lattice  \
	   4.727486978767153   -2.363743489383575    0.000000000000000  \
	  -0.000000000000000    4.094123819672498    0.000000000000000  \
	   0.000000000000000    0.000000000000000   40.000000000000000 
lattice-minimize  \
	dirUpdateScheme      L-BFGS \
	linminMethod         DirUpdateRecommended \
	nIterations          0 \
	history              15 \
	knormThreshold       0 \
	energyDiffThreshold  1e-06 \
	nEnergyDiff          2 \
	alphaTstart          1 \
	alphaTmin            1e-10 \
	updateTestStepSize   yes \
	alphaTreduceFactor   0.1 \
	alphaTincreaseFactor 3 \
	nAlphaAdjustMax      3 \
	wolfeEnergy          0.0001 \
	wolfeGradient        0.9 \
	fdTest               no
lcao-params -1 1e-06 1e-05
pcm-variant GLSSA13
spintype z-spin
subspace-rotation-factor 1 yes
symmetries automatic
symmetry-threshold 0.0001



---------- Setting up symmetries ----------

Found 24 point-group symmetries of the bravais lattice
Found 24 space-group symmetries with basis
Applied RMS atom displacement 0 bohrs to make symmetries exact.

---------- Initializing the Grid ----------
R = 
[      9.45497     -4.72749            0  ]
[            0      8.18825            0  ]
[            0            0           40  ]
unit cell volume = 3096.79
G =
[   0.664538   0.383671         -0  ]
[          0   0.767342         -0  ]
[         -0         -0    0.15708  ]
Minimum fftbox size, Smin = [  40  40  164  ]
Chosen fftbox size, S = [  40  40  168  ]

---------- Exchange Correlation functional ----------
Initalized PBE GGA exchange.
Initalized PBE GGA correlation.

---------- Setting up pseudopotentials ----------
Width of ionic core gaussian charges (only for fluid interactions / plotting) set to 0

Reading pseudopotential file '/home/gridsan/aligho/DFT/build-Nov24/pseudopotentials/SG15/Cs_ONCV_PBE.upf':
  'Cs' pseudopotential, 'PBE' functional
  Generated using ONCVPSP code by D. R. Hamann
  Author: Martin Schlipf and Francois Gygi  Date: 150915.
  9 valence electrons, 3 orbitals, 6 projectors, 2414 radial grid points, with lMax = 2
  Transforming local potential to a uniform radial grid of dG=0.02 with 1489 points.
  Transforming nonlocal projectors to a uniform radial grid of dG=0.02 with 432 points.
    5S    l: 0   occupation:  2.0   eigenvalue: -0.982388
    5P    l: 1   occupation:  6.0   eigenvalue: -0.496786
    6S    l: 0   occupation:  1.0   eigenvalue: -0.076670
  Transforming atomic orbitals to a uniform radial grid of dG=0.02 with 432 points.
  Core radius for overlap checks: 2.06 bohrs.
  Reading pulay file /home/gridsan/aligho/DFT/build-Nov24/pseudopotentials/SG15/Cs_ONCV_PBE.pulay ... using dE_dnG = -1.008762e-04 computed for Ecut = 20.

Initialized 1 species with 1 total atoms.

Folded 1 k-points by 12x12x1 to 144 k-points.

---------- Setting up k-points, bands, fillings ----------
Reduced to 19 k-points under symmetry. 
Computing the number of bands and number of electrons
Calculating initial fillings.
nElectrons:   9.000000   nBands: 6   nStates: 38

----- Setting up reduced wavefunction bases (one per k-point) -----
average nbasis = 13230.521 , ideal nbasis = 13229.709

---------- Setting up coulomb interaction ----------
Initialized slab truncation along lattice direction 001

---------- Setting up 2D ewald sum ----------
Optimum gaussian width for ewald sums = 5.249020 bohr.
Real space sums over 289 unit cells with max indices [  8  8  0  ]
Reciprocal space sums over 81 terms with max indices [  4  4  0  ]

---------- Allocating electronic variables ----------
Initializing wave functions:  linear combination of atomic orbitals
Note: number of bands (6) exceeds available atomic orbitals (5)
Cs pseudo-atom occupations:   s ( 2 1 )  p ( 6 )
	FillingsUpdate:  mu: -0.094036637  nElectrons: 9.000000  magneticMoment: [ Abs: 0.68000  Tot: +0.68000 ]
LCAOMinimize: Iter:   0  F: -20.1719156534943771  |grad|_K:  2.387e-05  alpha:  1.000e+00
	FillingsUpdate:  mu: -0.094026074  nElectrons: 9.000000  magneticMoment: [ Abs: 0.68000  Tot: +0.68000 ]
LCAOMinimize: Iter:   1  F: -20.1719160352901952  |grad|_K:  2.428e-07  alpha:  9.800e-01  linmin: -2.294e-02  cgtest:  2.086e-01  t[s]:      4.59
LCAOMinimize: Encountered beta<0, resetting CG.
	FillingsUpdate:  mu: -0.094026160  nElectrons: 9.000000  magneticMoment: [ Abs: 0.68000  Tot: +0.68000 ]
LCAOMinimize: Iter:   2  F: -20.1719160353308808  |grad|_K:  6.503e-09  alpha:  1.026e+00  linmin:  1.359e-01  cgtest: -9.708e-01  t[s]:      5.78
LCAOMinimize: Converged (|Delta F|<1.000000e-06 for 2 iters).


---- Citations for features of the code used in this run ----

   Software package:
      R. Sundararaman, K. Letchworth-Weaver, K.A. Schwarz, D. Gunceler, Y. Ozhabes and T.A. Arias, 'JDFTx: software for joint density-functional theory', SoftwareX 6, 278 (2017)

   gga-PBE exchange-correlation functional:
      J.P. Perdew, K. Burke and M. Ernzerhof, Phys. Rev. Lett. 77, 3865 (1996)

   Pseudopotentials:
      M Schlipf and F Gygi, Comput. Phys. Commun. 196, 36 (2015)

   Truncated Coulomb potentials:
      R. Sundararaman and T.A. Arias, Phys. Rev. B 87, 165122 (2013)

This list may not be complete. Please suggest additional citations or
report any other bugs at https://github.com/shankar1729/jdftx/issues

Initialization completed successfully at t[s]:      5.87


-------- Electronic minimization -----------
Will mix electronic density at each iteration.
	FillingsUpdate:  mu: -0.094026160  nElectrons: 9.000000  magneticMoment: [ Abs: 0.68000  Tot: +0.68000 ]
	FillingsUpdate:  mu: -0.107534893  nElectrons: 9.000000  magneticMoment: [ Abs: 0.68000  Tot: +0.68000 ]
SCF: Cycle:  0   F: -20.181805494527495   dF: -9.889e-03   |Residual|: 1.704e-02   |deigs|: 1.880e-01  t[s]:      8.40
	FillingsUpdate:  mu: -0.108173704  nElectrons: 9.000000  magneticMoment: [ Abs: 0.68000  Tot: +0.68000 ]
SCF: Cycle:  1   F: -20.182633805613882   dF: -8.283e-04   |Residual|: 1.295e-02   |deigs|: 5.766e-03  t[s]:     10.24
	FillingsUpdate:  mu: -0.105263077  nElectrons: 9.000000  magneticMoment: [ Abs: 0.68667  Tot: +0.68000 ]
SCF: Cycle:  2   F: -20.183050217292255   dF: -4.164e-04   |Residual|: 7.295e-03   |deigs|: 2.108e-03  t[s]:     12.12
	FillingsUpdate:  mu: -0.102387511  nElectrons: 9.000000  magneticMoment: [ Abs: 0.68000  Tot: +0.68000 ]
SCF: Cycle:  3   F: -20.183248774259361   dF: -1.986e-04   |Residual|: 4.478e-03   |deigs|: 3.258e-03  t[s]:     13.99
	FillingsUpdate:  mu: -0.099298745  nElectrons: 9.000000  magneticMoment: [ Abs: 0.68004  Tot: +0.68000 ]
SCF: Cycle:  4   F: -20.183342918863154   dF: -9.414e-05   |Residual|: 3.280e-03   |deigs|: 3.285e-03  t[s]:     15.89
	FillingsUpdate:  mu: -0.096269561  nElectrons: 9.000000  magneticMoment: [ Abs: 0.68372  Tot: +0.68000 ]
SCF: Cycle:  5   F: -20.183384931976011   dF: -4.201e-05   |Residual|: 2.784e-03   |deigs|: 3.789e-03  t[s]:     17.82
	FillingsUpdate:  mu: -0.093067050  nElectrons: 9.000000  magneticMoment: [ Abs: 0.69370  Tot: +0.68000 ]
SCF: Cycle:  6   F: -20.183388684921837   dF: -3.753e-06   |Residual|: 2.005e-03   |deigs|: 3.853e-03  t[s]:     19.82
	FillingsUpdate:  mu: -0.090500435  nElectrons: 9.000000  magneticMoment: [ Abs: 0.69267  Tot: +0.68000 ]
SCF: Cycle:  7   F: -20.183458799910028   dF: -7.011e-05   |Residual|: 1.642e-03   |deigs|: 3.011e-03  t[s]:     21.79
	FillingsUpdate:  mu: -0.090549965  nElectrons: 9.000000  magneticMoment: [ Abs: 0.68177  Tot: +0.68000 ]
SCF: Cycle:  8   F: -20.183486434450945   dF: -2.763e-05   |Residual|: 1.388e-03   |deigs|: 4.203e-04  t[s]:     23.77
	FillingsUpdate:  mu: -0.088074473  nElectrons: 9.000000  magneticMoment: [ Abs: 0.68388  Tot: +0.68000 ]
SCF: Cycle:  9   F: -20.183478394363039   dF: +8.040e-06   |Residual|: 1.083e-03   |deigs|: 2.662e-03  t[s]:     25.79
	FillingsUpdate:  mu: -0.086097412  nElectrons: 9.000000  magneticMoment: [ Abs: 0.68697  Tot: +0.68000 ]
SCF: Cycle: 10   F: -20.183477910420454   dF: +4.839e-07   |Residual|: 9.168e-04   |deigs|: 2.125e-03  t[s]:     27.82
	FillingsUpdate:  mu: -0.085215505  nElectrons: 9.000000  magneticMoment: [ Abs: 0.68632  Tot: +0.68000 ]
SCF: Cycle: 11   F: -20.183502012872129   dF: -2.410e-05   |Residual|: 8.208e-04   |deigs|: 1.122e-03  t[s]:     29.89
	FillingsUpdate:  mu: -0.083441268  nElectrons: 9.000000  magneticMoment: [ Abs: 0.68874  Tot: +0.68000 ]
SCF: Cycle: 12   F: -20.183521635052522   dF: -1.962e-05   |Residual|: 7.527e-04   |deigs|: 1.872e-03  t[s]:     31.93
	FillingsUpdate:  mu: -0.081085601  nElectrons: 9.000000  magneticMoment: [ Abs: 0.68839  Tot: +0.68000 ]
SCF: Cycle: 13   F: -20.183533541526181   dF: -1.191e-05   |Residual|: 7.158e-04   |deigs|: 2.486e-03  t[s]:     33.91
	FillingsUpdate:  mu: -0.079327218  nElectrons: 9.000000  magneticMoment: [ Abs: 0.68431  Tot: +0.68000 ]
SCF: Cycle: 14   F: -20.183541503414748   dF: -7.962e-06   |Residual|: 6.571e-04   |deigs|: 1.964e-03  t[s]:     35.96
	FillingsUpdate:  mu: -0.077797530  nElectrons: 9.000000  magneticMoment: [ Abs: 0.68173  Tot: +0.68000 ]
SCF: Cycle: 15   F: -20.183550809548322   dF: -9.306e-06   |Residual|: 4.656e-04   |deigs|: 1.779e-03  t[s]:     38.04
	FillingsUpdate:  mu: -0.076989207  nElectrons: 9.000000  magneticMoment: [ Abs: 0.68150  Tot: +0.68000 ]
SCF: Cycle: 16   F: -20.183555394223944   dF: -4.585e-06   |Residual|: 3.597e-04   |deigs|: 1.146e-03  t[s]:     40.10
	FillingsUpdate:  mu: -0.076647850  nElectrons: 9.000000  magneticMoment: [ Abs: 0.68121  Tot: +0.68000 ]
SCF: Cycle: 17   F: -20.183558129203732   dF: -2.735e-06   |Residual|: 2.665e-04   |deigs|: 5.850e-04  t[s]:     42.16
	FillingsUpdate:  mu: -0.076903083  nElectrons: 9.000000  magneticMoment: [ Abs: 0.68160  Tot: +0.68000 ]
SCF: Cycle: 18   F: -20.183559486407706   dF: -1.357e-06   |Residual|: 1.732e-04   |deigs|: 4.564e-04  t[s]:     44.19
	FillingsUpdate:  mu: -0.077004657  nElectrons: 9.000000  magneticMoment: [ Abs: 0.68073  Tot: +0.68000 ]
SCF: Cycle: 19   F: -20.183560832284847   dF: -1.346e-06   |Residual|: 7.441e-05   |deigs|: 5.622e-04  t[s]:     46.27
	FillingsUpdate:  mu: -0.077023664  nElectrons: 9.000000  magneticMoment: [ Abs: 0.68060  Tot: +0.68000 ]
SCF: Cycle: 20   F: -20.183561248936570   dF: -4.167e-07   |Residual|: 5.082e-05   |deigs|: 5.264e-04  t[s]:     48.32
	FillingsUpdate:  mu: -0.076989622  nElectrons: 9.000000  magneticMoment: [ Abs: 0.68067  Tot: +0.68000 ]
SCF: Cycle: 21   F: -20.183561390243522   dF: -1.413e-07   |Residual|: 3.640e-05   |deigs|: 5.990e-04  t[s]:     50.34
	FillingsUpdate:  mu: -0.077010195  nElectrons: 9.000000  magneticMoment: [ Abs: 0.68070  Tot: +0.68000 ]
SCF: Cycle: 22   F: -20.183561501283108   dF: -1.110e-07   |Residual|: 2.621e-05   |deigs|: 1.671e-04  t[s]:     52.41
	FillingsUpdate:  mu: -0.077043431  nElectrons: 9.000000  magneticMoment: [ Abs: 0.68066  Tot: +0.68000 ]
SCF: Cycle: 23   F: -20.183561528008784   dF: -2.673e-08   |Residual|: 2.121e-05   |deigs|: 1.508e-04  t[s]:     54.46
	FillingsUpdate:  mu: -0.077040412  nElectrons: 9.000000  magneticMoment: [ Abs: 0.68065  Tot: +0.68000 ]
SCF: Cycle: 24   F: -20.183561558018525   dF: -3.001e-08   |Residual|: 1.814e-05   |deigs|: 1.324e-04  t[s]:     56.55
	FillingsUpdate:  mu: -0.077025874  nElectrons: 9.000000  magneticMoment: [ Abs: 0.68053  Tot: +0.68000 ]
SCF: Cycle: 25   F: -20.183561586857245   dF: -2.884e-08   |Residual|: 1.443e-05   |deigs|: 1.311e-04  t[s]:     58.61
	FillingsUpdate:  mu: -0.077023716  nElectrons: 9.000000  magneticMoment: [ Abs: 0.68044  Tot: +0.68000 ]
SCF: Cycle: 26   F: -20.183561604719138   dF: -1.786e-08   |Residual|: 1.193e-05   |deigs|: 9.261e-05  t[s]:     60.70
	FillingsUpdate:  mu: -0.077013695  nElectrons: 9.000000  magneticMoment: [ Abs: 0.68037  Tot: +0.68000 ]
SCF: Cycle: 27   F: -20.183561610078261   dF: -5.359e-09   |Residual|: 7.157e-06   |deigs|: 1.033e-04  t[s]:     62.72
	FillingsUpdate:  mu: -0.077020705  nElectrons: 9.000000  magneticMoment: [ Abs: 0.68032  Tot: +0.68000 ]
SCF: Cycle: 28   F: -20.183561616310683   dF: -6.232e-09   |Residual|: 4.488e-06   |deigs|: 6.660e-04  t[s]:     64.76
SCF: Converged (|Delta E|<1.000000e-08 for 2 iters).


# Ionic positions in lattice coordinates:
ion Cs   0.000000000000000   0.000000000000000   0.000000000000000 0

# Forces in Lattice coordinates:
force Cs   0.000000000000000  -0.000000000000000   0.000000000000000 0

# Energy components:
   Eewald =      -18.0480261003326561
       EH =       -1.7742642702370823
     Eloc =       -5.8063914573031372
      Enl =        3.4384842608302870
   Epulay =        0.0000000264484078
      Exc =       -3.1504363253284566
       KE =        5.1570730707193260
-------------------------------------
     Etot =      -20.1835607952033129
       TS =        0.0000008211073706
-------------------------------------
        F =      -20.1835616163106835

IonicMinimize: Iter:   0  F: -20.183561616310683  |grad|_K:  0.000e+00  t[s]:     64.88
IonicMinimize: Converged (|grad|_K<1.000000e-04).

#--- Lowdin population analysis ---
# oxidation-state Cs +0.106
# magnetic-moments Cs +0.581

End date and time: Sun Feb  6 13:30:43 2022  (Duration: 0-0:01:04.90)
Done!
