
*************** JDFTx 1.6.0 (git hash 42ebbcc2) ***************

Start date and time: Sun Feb  6 13:16:19 2022
Executable jdftx with command-line: -i Alkali.in
Running on hosts (process indices):  d-16-6-2 (0-18)
Divided in process groups (process indices):  0 (0)  1 (1)  2 (2)  3 (3)  4 (4)  5 (5)  6 (6)  7 (7)  8 (8)  9 (9)  10 (10)  11 (11)  12 (12)  13 (13)  14 (14)  15 (15)  16 (16)  17 (17)  18 (18)
Resource initialization completed at t[s]:      0.00
Run totals: 19 processes, 48 threads, 0 GPUs


Input parsed successfully to the following command list (including defaults):

basis kpoint-dependent
coords-type Lattice
core-overlap-check vector
coulomb-interaction Slab 001
davidson-band-ratio 1.1
dump End None
dump-name $INPUT.$VAR
elec-cutoff 20
elec-eigen-algo Davidson
elec-ex-corr gga-PBE
elec-initial-magnetization -0.120000 yes
elec-smearing Fermi 1e-05
electronic-minimize  \
	dirUpdateScheme      FletcherReeves \
	linminMethod         DirUpdateRecommended \
	nIterations          100 \
	history              15 \
	knormThreshold       0 \
	energyDiffThreshold  1e-08 \
	nEnergyDiff          2 \
	alphaTstart          1 \
	alphaTmin            1e-10 \
	updateTestStepSize   yes \
	alphaTreduceFactor   0.1 \
	alphaTincreaseFactor 3 \
	nAlphaAdjustMax      3 \
	wolfeEnergy          0.0001 \
	wolfeGradient        0.9 \
	fdTest               no
electronic-scf  \
	nIterations	10000 \
	energyDiffThreshold	1e-08 \
	residualThreshold	1e-07 \
	mixFraction	0.5 \
	qMetric	0.8 \
	history	10 \
	nEigSteps	2 \
	eigDiffThreshold	1e-08 \
	mixedVariable	Density \
	qKerker	0.8 \
	qKappa	-1 \
	verbose	no \
	mixFractionMag	1.5
exchange-regularization WignerSeitzTruncated
fluid None
fluid-ex-corr (null) lda-PZ
fluid-gummel-loop 10 1.000000e-05
fluid-minimize  \
	dirUpdateScheme      PolakRibiere \
	linminMethod         DirUpdateRecommended \
	nIterations          100 \
	history              15 \
	knormThreshold       0 \
	energyDiffThreshold  0 \
	nEnergyDiff          2 \
	alphaTstart          1 \
	alphaTmin            1e-10 \
	updateTestStepSize   yes \
	alphaTreduceFactor   0.1 \
	alphaTincreaseFactor 3 \
	nAlphaAdjustMax      3 \
	wolfeEnergy          0.0001 \
	wolfeGradient        0.9 \
	fdTest               no
fluid-solvent H2O 55.338 ScalarEOS \
	epsBulk 78.4 \
	pMol 0.92466 \
	epsInf 1.77 \
	Pvap 1.06736e-10 \
	sigmaBulk 4.62e-05 \
	Rvdw 2.61727 \
	Res 1.42 \
	tauNuc 343133 \
	poleEl 15 7 1
forces-output-coords Positions
ion Cs   0.000000000000000   0.000000000000000   0.000000000000000 0
ion-species SG15/$ID_ONCV_PBE.upf
ion-width 0
ionic-minimize  \
	dirUpdateScheme      L-BFGS \
	linminMethod         DirUpdateRecommended \
	nIterations          0 \
	history              15 \
	knormThreshold       0.0001 \
	energyDiffThreshold  1e-06 \
	nEnergyDiff          2 \
	alphaTstart          1 \
	alphaTmin            1e-10 \
	updateTestStepSize   yes \
	alphaTreduceFactor   0.1 \
	alphaTincreaseFactor 3 \
	nAlphaAdjustMax      3 \
	wolfeEnergy          0.0001 \
	wolfeGradient        0.9 \
	fdTest               no
kpoint   0.000000000000   0.000000000000   0.000000000000  1.00000000000000
kpoint-folding 12 12 1 
latt-move-scale 1 1 1
latt-scale 2 2 1 
lattice  \
	   4.727486978767153   -2.363743489383575    0.000000000000000  \
	  -0.000000000000000    4.094123819672498    0.000000000000000  \
	   0.000000000000000    0.000000000000000   40.000000000000000 
lattice-minimize  \
	dirUpdateScheme      L-BFGS \
	linminMethod         DirUpdateRecommended \
	nIterations          0 \
	history              15 \
	knormThreshold       0 \
	energyDiffThreshold  1e-06 \
	nEnergyDiff          2 \
	alphaTstart          1 \
	alphaTmin            1e-10 \
	updateTestStepSize   yes \
	alphaTreduceFactor   0.1 \
	alphaTincreaseFactor 3 \
	nAlphaAdjustMax      3 \
	wolfeEnergy          0.0001 \
	wolfeGradient        0.9 \
	fdTest               no
lcao-params -1 1e-06 1e-05
pcm-variant GLSSA13
spintype z-spin
subspace-rotation-factor 1 yes
symmetries automatic
symmetry-threshold 0.0001



---------- Setting up symmetries ----------

Found 24 point-group symmetries of the bravais lattice
Found 24 space-group symmetries with basis
Applied RMS atom displacement 0 bohrs to make symmetries exact.

---------- Initializing the Grid ----------
R = 
[      9.45497     -4.72749            0  ]
[            0      8.18825            0  ]
[            0            0           40  ]
unit cell volume = 3096.79
G =
[   0.664538   0.383671         -0  ]
[          0   0.767342         -0  ]
[         -0         -0    0.15708  ]
Minimum fftbox size, Smin = [  40  40  164  ]
Chosen fftbox size, S = [  40  40  168  ]

---------- Exchange Correlation functional ----------
Initalized PBE GGA exchange.
Initalized PBE GGA correlation.

---------- Setting up pseudopotentials ----------
Width of ionic core gaussian charges (only for fluid interactions / plotting) set to 0

Reading pseudopotential file '/home/gridsan/aligho/DFT/build-Nov24/pseudopotentials/SG15/Cs_ONCV_PBE.upf':
  'Cs' pseudopotential, 'PBE' functional
  Generated using ONCVPSP code by D. R. Hamann
  Author: Martin Schlipf and Francois Gygi  Date: 150915.
  9 valence electrons, 3 orbitals, 6 projectors, 2414 radial grid points, with lMax = 2
  Transforming local potential to a uniform radial grid of dG=0.02 with 1489 points.
  Transforming nonlocal projectors to a uniform radial grid of dG=0.02 with 432 points.
    5S    l: 0   occupation:  2.0   eigenvalue: -0.982388
    5P    l: 1   occupation:  6.0   eigenvalue: -0.496786
    6S    l: 0   occupation:  1.0   eigenvalue: -0.076670
  Transforming atomic orbitals to a uniform radial grid of dG=0.02 with 432 points.
  Core radius for overlap checks: 2.06 bohrs.
  Reading pulay file /home/gridsan/aligho/DFT/build-Nov24/pseudopotentials/SG15/Cs_ONCV_PBE.pulay ... using dE_dnG = -1.008762e-04 computed for Ecut = 20.

Initialized 1 species with 1 total atoms.

Folded 1 k-points by 12x12x1 to 144 k-points.

---------- Setting up k-points, bands, fillings ----------
Reduced to 19 k-points under symmetry. 
Computing the number of bands and number of electrons
Calculating initial fillings.
nElectrons:   9.000000   nBands: 6   nStates: 38

----- Setting up reduced wavefunction bases (one per k-point) -----
average nbasis = 13230.521 , ideal nbasis = 13229.709

---------- Setting up coulomb interaction ----------
Initialized slab truncation along lattice direction 001

---------- Setting up 2D ewald sum ----------
Optimum gaussian width for ewald sums = 5.249020 bohr.
Real space sums over 289 unit cells with max indices [  8  8  0  ]
Reciprocal space sums over 81 terms with max indices [  4  4  0  ]

---------- Allocating electronic variables ----------
Initializing wave functions:  linear combination of atomic orbitals
Note: number of bands (6) exceeds available atomic orbitals (5)
Cs pseudo-atom occupations:   s ( 2 1 )  p ( 6 )
	FillingsUpdate:  mu: -0.091489331  nElectrons: 9.000000  magneticMoment: [ Abs: 0.12000  Tot: -0.12000 ]
LCAOMinimize: Iter:   0  F: -20.1824505435033892  |grad|_K:  4.208e-05  alpha:  1.000e+00
	FillingsUpdate:  mu: -0.091470445  nElectrons: 9.000000  magneticMoment: [ Abs: 0.12000  Tot: -0.12000 ]
LCAOMinimize: Iter:   1  F: -20.1824517265854055  |grad|_K:  4.233e-07  alpha:  9.769e-01  linmin: -5.246e-02  cgtest:  3.883e-01  t[s]:      4.49
LCAOMinimize: Encountered beta<0, resetting CG.
	FillingsUpdate:  mu: -0.091470553  nElectrons: 9.000000  magneticMoment: [ Abs: 0.12000  Tot: -0.12000 ]
LCAOMinimize: Iter:   2  F: -20.1824517267079990  |grad|_K:  8.404e-10  alpha:  1.003e+00  linmin:  1.439e-01  cgtest: -8.408e-01  t[s]:      5.71
LCAOMinimize: 	Step increased F by 3.055334e-13, reducing alpha to 6.641653e-04.
	FillingsUpdate:  mu: -0.091470553  nElectrons: 9.000000  magneticMoment: [ Abs: 0.12000  Tot: -0.12000 ]
LCAOMinimize: Iter:   3  F: -20.1824517267080346  |grad|_K:  8.402e-10  alpha:  6.642e-04  linmin: -1.303e-02  cgtest:  1.000e+00  t[s]:      7.59
LCAOMinimize: Encountered beta<0, resetting CG.
LCAOMinimize: Converged (|Delta F|<1.000000e-06 for 2 iters).


---- Citations for features of the code used in this run ----

   Software package:
      R. Sundararaman, K. Letchworth-Weaver, K.A. Schwarz, D. Gunceler, Y. Ozhabes and T.A. Arias, 'JDFTx: software for joint density-functional theory', SoftwareX 6, 278 (2017)

   gga-PBE exchange-correlation functional:
      J.P. Perdew, K. Burke and M. Ernzerhof, Phys. Rev. Lett. 77, 3865 (1996)

   Pseudopotentials:
      M Schlipf and F Gygi, Comput. Phys. Commun. 196, 36 (2015)

   Truncated Coulomb potentials:
      R. Sundararaman and T.A. Arias, Phys. Rev. B 87, 165122 (2013)

This list may not be complete. Please suggest additional citations or
report any other bugs at https://github.com/shankar1729/jdftx/issues

Initialization completed successfully at t[s]:      7.68


-------- Electronic minimization -----------
Will mix electronic density at each iteration.
	FillingsUpdate:  mu: -0.091470553  nElectrons: 9.000000  magneticMoment: [ Abs: 0.12000  Tot: -0.12000 ]
	FillingsUpdate:  mu: -0.100714186  nElectrons: 9.000000  magneticMoment: [ Abs: 0.12000  Tot: -0.12000 ]
SCF: Cycle:  0   F: -20.187005887668843   dF: -4.554e-03   |Residual|: 1.143e-02   |deigs|: 1.882e-01  t[s]:     10.03
	FillingsUpdate:  mu: -0.100857528  nElectrons: 9.000000  magneticMoment: [ Abs: 0.12000  Tot: -0.12000 ]
SCF: Cycle:  1   F: -20.187367234761449   dF: -3.613e-04   |Residual|: 9.601e-03   |deigs|: 4.477e-03  t[s]:     11.85
	FillingsUpdate:  mu: -0.096651767  nElectrons: 9.000000  magneticMoment: [ Abs: 0.12823  Tot: -0.12000 ]
SCF: Cycle:  2   F: -20.187681435468772   dF: -3.142e-04   |Residual|: 4.391e-03   |deigs|: 3.825e-03  t[s]:     13.62
	FillingsUpdate:  mu: -0.096918591  nElectrons: 9.000000  magneticMoment: [ Abs: 0.12000  Tot: -0.12000 ]
SCF: Cycle:  3   F: -20.187781393247981   dF: -9.996e-05   |Residual|: 3.545e-03   |deigs|: 1.524e-03  t[s]:     15.47
	FillingsUpdate:  mu: -0.094001398  nElectrons: 9.000000  magneticMoment: [ Abs: 0.12153  Tot: -0.12000 ]
SCF: Cycle:  4   F: -20.187857793752389   dF: -7.640e-05   |Residual|: 2.385e-03   |deigs|: 3.677e-03  t[s]:     17.31
	FillingsUpdate:  mu: -0.091771232  nElectrons: 9.000000  magneticMoment: [ Abs: 0.12199  Tot: -0.12000 ]
SCF: Cycle:  5   F: -20.187898558449422   dF: -4.076e-05   |Residual|: 1.918e-03   |deigs|: 2.722e-03  t[s]:     19.16
	FillingsUpdate:  mu: -0.089404100  nElectrons: 9.000000  magneticMoment: [ Abs: 0.12416  Tot: -0.12000 ]
SCF: Cycle:  6   F: -20.187912770733242   dF: -1.421e-05   |Residual|: 1.497e-03   |deigs|: 2.958e-03  t[s]:     21.08
	FillingsUpdate:  mu: -0.088315078  nElectrons: 9.000000  magneticMoment: [ Abs: 0.12259  Tot: -0.12000 ]
SCF: Cycle:  7   F: -20.187934753542237   dF: -2.198e-05   |Residual|: 1.233e-03   |deigs|: 1.316e-03  t[s]:     23.08
	FillingsUpdate:  mu: -0.086562992  nElectrons: 9.000000  magneticMoment: [ Abs: 0.12109  Tot: -0.12000 ]
SCF: Cycle:  8   F: -20.187949175903817   dF: -1.442e-05   |Residual|: 9.676e-04   |deigs|: 1.647e-03  t[s]:     25.05
	FillingsUpdate:  mu: -0.085017429  nElectrons: 9.000000  magneticMoment: [ Abs: 0.12196  Tot: -0.12000 ]
SCF: Cycle:  9   F: -20.187931319849060   dF: +1.786e-05   |Residual|: 1.008e-03   |deigs|: 1.604e-03  t[s]:     27.02
	FillingsUpdate:  mu: -0.082945732  nElectrons: 9.000000  magneticMoment: [ Abs: 0.12233  Tot: -0.12000 ]
SCF: Cycle: 10   F: -20.187942112104320   dF: -1.079e-05   |Residual|: 8.849e-04   |deigs|: 2.355e-03  t[s]:     28.99
	FillingsUpdate:  mu: -0.081461420  nElectrons: 9.000000  magneticMoment: [ Abs: 0.12147  Tot: -0.12000 ]
SCF: Cycle: 11   F: -20.187969440354298   dF: -2.733e-05   |Residual|: 6.903e-04   |deigs|: 1.513e-03  t[s]:     31.04
	FillingsUpdate:  mu: -0.080267064  nElectrons: 9.000000  magneticMoment: [ Abs: 0.12160  Tot: -0.12000 ]
SCF: Cycle: 12   F: -20.187986481727094   dF: -1.704e-05   |Residual|: 6.407e-04   |deigs|: 1.140e-03  t[s]:     33.00
	FillingsUpdate:  mu: -0.078207028  nElectrons: 9.000000  magneticMoment: [ Abs: 0.12085  Tot: -0.12000 ]
SCF: Cycle: 13   F: -20.187997414995468   dF: -1.093e-05   |Residual|: 5.542e-04   |deigs|: 2.124e-03  t[s]:     34.96
	FillingsUpdate:  mu: -0.076901399  nElectrons: 9.000000  magneticMoment: [ Abs: 0.12087  Tot: -0.12000 ]
SCF: Cycle: 14   F: -20.188004602094878   dF: -7.187e-06   |Residual|: 4.346e-04   |deigs|: 1.390e-03  t[s]:     36.93
	FillingsUpdate:  mu: -0.076567605  nElectrons: 9.000000  magneticMoment: [ Abs: 0.12091  Tot: -0.12000 ]
SCF: Cycle: 15   F: -20.188007900274783   dF: -3.298e-06   |Residual|: 3.427e-04   |deigs|: 1.287e-03  t[s]:     38.97
	FillingsUpdate:  mu: -0.076351171  nElectrons: 9.000000  magneticMoment: [ Abs: 0.12035  Tot: -0.12000 ]
SCF: Cycle: 16   F: -20.188010754098276   dF: -2.854e-06   |Residual|: 2.321e-04   |deigs|: 5.050e-04  t[s]:     40.99
	FillingsUpdate:  mu: -0.076438032  nElectrons: 9.000000  magneticMoment: [ Abs: 0.12011  Tot: -0.12000 ]
SCF: Cycle: 17   F: -20.188011522238948   dF: -7.681e-07   |Residual|: 1.136e-04   |deigs|: 1.874e-04  t[s]:     43.06
	FillingsUpdate:  mu: -0.076482161  nElectrons: 9.000000  magneticMoment: [ Abs: 0.12012  Tot: -0.12000 ]
SCF: Cycle: 18   F: -20.188011729210793   dF: -2.070e-07   |Residual|: 5.939e-05   |deigs|: 3.079e-04  t[s]:     45.07
	FillingsUpdate:  mu: -0.076413005  nElectrons: 9.000000  magneticMoment: [ Abs: 0.12007  Tot: -0.12000 ]
SCF: Cycle: 19   F: -20.188011831585044   dF: -1.024e-07   |Residual|: 3.608e-05   |deigs|: 5.708e-04  t[s]:     47.12
	FillingsUpdate:  mu: -0.076417123  nElectrons: 9.000000  magneticMoment: [ Abs: 0.12006  Tot: -0.12000 ]
SCF: Cycle: 20   F: -20.188011884689040   dF: -5.310e-08   |Residual|: 2.049e-05   |deigs|: 1.482e-04  t[s]:     49.11
	FillingsUpdate:  mu: -0.076441582  nElectrons: 9.000000  magneticMoment: [ Abs: 0.12007  Tot: -0.12000 ]
SCF: Cycle: 21   F: -20.188011895294341   dF: -1.061e-08   |Residual|: 1.245e-05   |deigs|: 1.189e-04  t[s]:     51.07
	FillingsUpdate:  mu: -0.076463800  nElectrons: 9.000000  magneticMoment: [ Abs: 0.12008  Tot: -0.12000 ]
SCF: Cycle: 22   F: -20.188011901020431   dF: -5.726e-09   |Residual|: 6.806e-06   |deigs|: 1.160e-04  t[s]:     53.08
	FillingsUpdate:  mu: -0.076476012  nElectrons: 9.000000  magneticMoment: [ Abs: 0.12007  Tot: -0.12000 ]
SCF: Cycle: 23   F: -20.188011902971407   dF: -1.951e-09   |Residual|: 4.134e-06   |deigs|: 1.632e-04  t[s]:     55.10
SCF: Converged (|Delta E|<1.000000e-08 for 2 iters).


# Ionic positions in lattice coordinates:
ion Cs   0.000000000000000   0.000000000000000   0.000000000000000 0

# Forces in Lattice coordinates:
force Cs   0.000000000000000   0.000000000000000   0.000000000000000 0

# Energy components:
   Eewald =      -18.0480261003326561
       EH =       -1.8402049867144921
     Eloc =       -5.7446494130088155
      Enl =        3.4431923610021409
   Epulay =        0.0000000264484078
      Exc =       -3.1434679268998087
       KE =        5.1451450957492924
-------------------------------------
     Etot =      -20.1880109437559341
       TS =        0.0000009592154742
-------------------------------------
        F =      -20.1880119029714074

IonicMinimize: Iter:   0  F: -20.188011902971407  |grad|_K:  0.000e+00  t[s]:     55.21
IonicMinimize: Converged (|grad|_K<1.000000e-04).

#--- Lowdin population analysis ---
# oxidation-state Cs +0.044
# magnetic-moments Cs -0.107

End date and time: Sun Feb  6 13:17:14 2022  (Duration: 0-0:00:55.24)
Done!
