
*************** JDFTx 1.6.0 (git hash 42ebbcc2) ***************

Start date and time: Sun Feb  6 13:29:38 2022
Executable jdftx with command-line: -i Alkali.in
Running on hosts (process indices):  d-3-15-1 (0-18)
Divided in process groups (process indices):  0 (0)  1 (1)  2 (2)  3 (3)  4 (4)  5 (5)  6 (6)  7 (7)  8 (8)  9 (9)  10 (10)  11 (11)  12 (12)  13 (13)  14 (14)  15 (15)  16 (16)  17 (17)  18 (18)
Resource initialization completed at t[s]:      0.00
Run totals: 19 processes, 48 threads, 0 GPUs


Input parsed successfully to the following command list (including defaults):

basis kpoint-dependent
coords-type Lattice
core-overlap-check vector
coulomb-interaction Slab 001
davidson-band-ratio 1.1
dump End None
dump-name $INPUT.$VAR
elec-cutoff 20
elec-eigen-algo Davidson
elec-ex-corr gga-PBE
elec-initial-magnetization 0.620000 yes
elec-smearing Fermi 1e-05
electronic-minimize  \
	dirUpdateScheme      FletcherReeves \
	linminMethod         DirUpdateRecommended \
	nIterations          100 \
	history              15 \
	knormThreshold       0 \
	energyDiffThreshold  1e-08 \
	nEnergyDiff          2 \
	alphaTstart          1 \
	alphaTmin            1e-10 \
	updateTestStepSize   yes \
	alphaTreduceFactor   0.1 \
	alphaTincreaseFactor 3 \
	nAlphaAdjustMax      3 \
	wolfeEnergy          0.0001 \
	wolfeGradient        0.9 \
	fdTest               no
electronic-scf  \
	nIterations	10000 \
	energyDiffThreshold	1e-08 \
	residualThreshold	1e-07 \
	mixFraction	0.5 \
	qMetric	0.8 \
	history	10 \
	nEigSteps	2 \
	eigDiffThreshold	1e-08 \
	mixedVariable	Density \
	qKerker	0.8 \
	qKappa	-1 \
	verbose	no \
	mixFractionMag	1.5
exchange-regularization WignerSeitzTruncated
fluid None
fluid-ex-corr (null) lda-PZ
fluid-gummel-loop 10 1.000000e-05
fluid-minimize  \
	dirUpdateScheme      PolakRibiere \
	linminMethod         DirUpdateRecommended \
	nIterations          100 \
	history              15 \
	knormThreshold       0 \
	energyDiffThreshold  0 \
	nEnergyDiff          2 \
	alphaTstart          1 \
	alphaTmin            1e-10 \
	updateTestStepSize   yes \
	alphaTreduceFactor   0.1 \
	alphaTincreaseFactor 3 \
	nAlphaAdjustMax      3 \
	wolfeEnergy          0.0001 \
	wolfeGradient        0.9 \
	fdTest               no
fluid-solvent H2O 55.338 ScalarEOS \
	epsBulk 78.4 \
	pMol 0.92466 \
	epsInf 1.77 \
	Pvap 1.06736e-10 \
	sigmaBulk 4.62e-05 \
	Rvdw 2.61727 \
	Res 1.42 \
	tauNuc 343133 \
	poleEl 15 7 1
forces-output-coords Positions
ion Cs   0.000000000000000   0.000000000000000   0.000000000000000 0
ion-species SG15/$ID_ONCV_PBE.upf
ion-width 0
ionic-minimize  \
	dirUpdateScheme      L-BFGS \
	linminMethod         DirUpdateRecommended \
	nIterations          0 \
	history              15 \
	knormThreshold       0.0001 \
	energyDiffThreshold  1e-06 \
	nEnergyDiff          2 \
	alphaTstart          1 \
	alphaTmin            1e-10 \
	updateTestStepSize   yes \
	alphaTreduceFactor   0.1 \
	alphaTincreaseFactor 3 \
	nAlphaAdjustMax      3 \
	wolfeEnergy          0.0001 \
	wolfeGradient        0.9 \
	fdTest               no
kpoint   0.000000000000   0.000000000000   0.000000000000  1.00000000000000
kpoint-folding 12 12 1 
latt-move-scale 1 1 1
latt-scale 2 2 1 
lattice  \
	   4.727486978767153   -2.363743489383575    0.000000000000000  \
	  -0.000000000000000    4.094123819672498    0.000000000000000  \
	   0.000000000000000    0.000000000000000   40.000000000000000 
lattice-minimize  \
	dirUpdateScheme      L-BFGS \
	linminMethod         DirUpdateRecommended \
	nIterations          0 \
	history              15 \
	knormThreshold       0 \
	energyDiffThreshold  1e-06 \
	nEnergyDiff          2 \
	alphaTstart          1 \
	alphaTmin            1e-10 \
	updateTestStepSize   yes \
	alphaTreduceFactor   0.1 \
	alphaTincreaseFactor 3 \
	nAlphaAdjustMax      3 \
	wolfeEnergy          0.0001 \
	wolfeGradient        0.9 \
	fdTest               no
lcao-params -1 1e-06 1e-05
pcm-variant GLSSA13
spintype z-spin
subspace-rotation-factor 1 yes
symmetries automatic
symmetry-threshold 0.0001



---------- Setting up symmetries ----------

Found 24 point-group symmetries of the bravais lattice
Found 24 space-group symmetries with basis
Applied RMS atom displacement 0 bohrs to make symmetries exact.

---------- Initializing the Grid ----------
R = 
[      9.45497     -4.72749            0  ]
[            0      8.18825            0  ]
[            0            0           40  ]
unit cell volume = 3096.79
G =
[   0.664538   0.383671         -0  ]
[          0   0.767342         -0  ]
[         -0         -0    0.15708  ]
Minimum fftbox size, Smin = [  40  40  164  ]
Chosen fftbox size, S = [  40  40  168  ]

---------- Exchange Correlation functional ----------
Initalized PBE GGA exchange.
Initalized PBE GGA correlation.

---------- Setting up pseudopotentials ----------
Width of ionic core gaussian charges (only for fluid interactions / plotting) set to 0

Reading pseudopotential file '/home/gridsan/aligho/DFT/build-Nov24/pseudopotentials/SG15/Cs_ONCV_PBE.upf':
  'Cs' pseudopotential, 'PBE' functional
  Generated using ONCVPSP code by D. R. Hamann
  Author: Martin Schlipf and Francois Gygi  Date: 150915.
  9 valence electrons, 3 orbitals, 6 projectors, 2414 radial grid points, with lMax = 2
  Transforming local potential to a uniform radial grid of dG=0.02 with 1489 points.
  Transforming nonlocal projectors to a uniform radial grid of dG=0.02 with 432 points.
    5S    l: 0   occupation:  2.0   eigenvalue: -0.982388
    5P    l: 1   occupation:  6.0   eigenvalue: -0.496786
    6S    l: 0   occupation:  1.0   eigenvalue: -0.076670
  Transforming atomic orbitals to a uniform radial grid of dG=0.02 with 432 points.
  Core radius for overlap checks: 2.06 bohrs.
  Reading pulay file /home/gridsan/aligho/DFT/build-Nov24/pseudopotentials/SG15/Cs_ONCV_PBE.pulay ... using dE_dnG = -1.008762e-04 computed for Ecut = 20.

Initialized 1 species with 1 total atoms.

Folded 1 k-points by 12x12x1 to 144 k-points.

---------- Setting up k-points, bands, fillings ----------
Reduced to 19 k-points under symmetry. 
Computing the number of bands and number of electrons
Calculating initial fillings.
nElectrons:   9.000000   nBands: 6   nStates: 38

----- Setting up reduced wavefunction bases (one per k-point) -----
average nbasis = 13230.521 , ideal nbasis = 13229.709

---------- Setting up coulomb interaction ----------
Initialized slab truncation along lattice direction 001

---------- Setting up 2D ewald sum ----------
Optimum gaussian width for ewald sums = 5.249020 bohr.
Real space sums over 289 unit cells with max indices [  8  8  0  ]
Reciprocal space sums over 81 terms with max indices [  4  4  0  ]

---------- Allocating electronic variables ----------
Initializing wave functions:  linear combination of atomic orbitals
Note: number of bands (6) exceeds available atomic orbitals (5)
Cs pseudo-atom occupations:   s ( 2 1 )  p ( 6 )
	FillingsUpdate:  mu: -0.094079638  nElectrons: 9.000000  magneticMoment: [ Abs: 0.62000  Tot: +0.62000 ]
LCAOMinimize: Iter:   0  F: -20.1735056632934828  |grad|_K:  2.628e-05  alpha:  1.000e+00
	FillingsUpdate:  mu: -0.094067763  nElectrons: 9.000000  magneticMoment: [ Abs: 0.62000  Tot: +0.62000 ]
LCAOMinimize: Iter:   1  F: -20.1735061258788981  |grad|_K:  2.666e-07  alpha:  9.797e-01  linmin: -2.548e-02  cgtest:  2.263e-01  t[s]:      4.55
LCAOMinimize: Encountered beta<0, resetting CG.
	FillingsUpdate:  mu: -0.094067852  nElectrons: 9.000000  magneticMoment: [ Abs: 0.62000  Tot: +0.62000 ]
LCAOMinimize: Iter:   2  F: -20.1735061259268313  |grad|_K:  3.727e-09  alpha:  9.872e-01  linmin: -1.222e-01  cgtest:  9.121e-01  t[s]:      5.75
LCAOMinimize: Encountered beta<0, resetting CG.
LCAOMinimize: Converged (|Delta F|<1.000000e-06 for 2 iters).


---- Citations for features of the code used in this run ----

   Software package:
      R. Sundararaman, K. Letchworth-Weaver, K.A. Schwarz, D. Gunceler, Y. Ozhabes and T.A. Arias, 'JDFTx: software for joint density-functional theory', SoftwareX 6, 278 (2017)

   gga-PBE exchange-correlation functional:
      J.P. Perdew, K. Burke and M. Ernzerhof, Phys. Rev. Lett. 77, 3865 (1996)

   Pseudopotentials:
      M Schlipf and F Gygi, Comput. Phys. Commun. 196, 36 (2015)

   Truncated Coulomb potentials:
      R. Sundararaman and T.A. Arias, Phys. Rev. B 87, 165122 (2013)

This list may not be complete. Please suggest additional citations or
report any other bugs at https://github.com/shankar1729/jdftx/issues

Initialization completed successfully at t[s]:      5.84


-------- Electronic minimization -----------
Will mix electronic density at each iteration.
	FillingsUpdate:  mu: -0.094067852  nElectrons: 9.000000  magneticMoment: [ Abs: 0.62000  Tot: +0.62000 ]
	FillingsUpdate:  mu: -0.108054583  nElectrons: 9.000000  magneticMoment: [ Abs: 0.62000  Tot: +0.62000 ]
SCF: Cycle:  0   F: -20.182668482234906   dF: -9.162e-03   |Residual|: 1.642e-02   |deigs|: 1.880e-01  t[s]:      8.25
	FillingsUpdate:  mu: -0.108519969  nElectrons: 9.000000  magneticMoment: [ Abs: 0.62000  Tot: +0.62000 ]
SCF: Cycle:  1   F: -20.183481076270692   dF: -8.126e-04   |Residual|: 1.255e-02   |deigs|: 5.509e-03  t[s]:     10.05
	FillingsUpdate:  mu: -0.105738874  nElectrons: 9.000000  magneticMoment: [ Abs: 0.62719  Tot: +0.62000 ]
SCF: Cycle:  2   F: -20.183878820696673   dF: -3.977e-04   |Residual|: 6.879e-03   |deigs|: 2.183e-03  t[s]:     11.90
	FillingsUpdate:  mu: -0.103360796  nElectrons: 9.000000  magneticMoment: [ Abs: 0.62000  Tot: +0.62000 ]
SCF: Cycle:  3   F: -20.184069988410137   dF: -1.912e-04   |Residual|: 4.349e-03   |deigs|: 3.116e-03  t[s]:     13.81
	FillingsUpdate:  mu: -0.100496892  nElectrons: 9.000000  magneticMoment: [ Abs: 0.62002  Tot: +0.62000 ]
SCF: Cycle:  4   F: -20.184160742660357   dF: -9.075e-05   |Residual|: 3.181e-03   |deigs|: 3.235e-03  t[s]:     15.75
	FillingsUpdate:  mu: -0.097581352  nElectrons: 9.000000  magneticMoment: [ Abs: 0.62442  Tot: +0.62000 ]
SCF: Cycle:  5   F: -20.184205647513895   dF: -4.490e-05   |Residual|: 2.718e-03   |deigs|: 3.635e-03  t[s]:     17.67
	FillingsUpdate:  mu: -0.094487620  nElectrons: 9.000000  magneticMoment: [ Abs: 0.63413  Tot: +0.62000 ]
SCF: Cycle:  6   F: -20.184205513520748   dF: +1.340e-07   |Residual|: 1.933e-03   |deigs|: 3.699e-03  t[s]:     19.60
	FillingsUpdate:  mu: -0.091819631  nElectrons: 9.000000  magneticMoment: [ Abs: 0.63305  Tot: +0.62000 ]
SCF: Cycle:  7   F: -20.184269108482546   dF: -6.359e-05   |Residual|: 1.595e-03   |deigs|: 3.008e-03  t[s]:     21.57
	FillingsUpdate:  mu: -0.091838570  nElectrons: 9.000000  magneticMoment: [ Abs: 0.62219  Tot: +0.62000 ]
SCF: Cycle:  8   F: -20.184299585802425   dF: -3.048e-05   |Residual|: 1.377e-03   |deigs|: 5.045e-04  t[s]:     23.58
	FillingsUpdate:  mu: -0.089580595  nElectrons: 9.000000  magneticMoment: [ Abs: 0.62425  Tot: +0.62000 ]
SCF: Cycle:  9   F: -20.184289519616090   dF: +1.007e-05   |Residual|: 1.081e-03   |deigs|: 2.397e-03  t[s]:     25.59
	FillingsUpdate:  mu: -0.087551203  nElectrons: 9.000000  magneticMoment: [ Abs: 0.62703  Tot: +0.62000 ]
SCF: Cycle: 10   F: -20.184286941560618   dF: +2.578e-06   |Residual|: 9.038e-04   |deigs|: 2.172e-03  t[s]:     27.63
	FillingsUpdate:  mu: -0.086479113  nElectrons: 9.000000  magneticMoment: [ Abs: 0.62619  Tot: +0.62000 ]
SCF: Cycle: 11   F: -20.184308630526591   dF: -2.169e-05   |Residual|: 8.275e-04   |deigs|: 1.240e-03  t[s]:     29.66
	FillingsUpdate:  mu: -0.084817027  nElectrons: 9.000000  magneticMoment: [ Abs: 0.62810  Tot: +0.62000 ]
SCF: Cycle: 12   F: -20.184329797491440   dF: -2.117e-05   |Residual|: 7.523e-04   |deigs|: 1.725e-03  t[s]:     31.67
	FillingsUpdate:  mu: -0.082415738  nElectrons: 9.000000  magneticMoment: [ Abs: 0.62803  Tot: +0.62000 ]
SCF: Cycle: 13   F: -20.184342763568381   dF: -1.297e-05   |Residual|: 7.039e-04   |deigs|: 2.482e-03  t[s]:     33.65
	FillingsUpdate:  mu: -0.080503367  nElectrons: 9.000000  magneticMoment: [ Abs: 0.62405  Tot: +0.62000 ]
SCF: Cycle: 14   F: -20.184351697930058   dF: -8.934e-06   |Residual|: 6.369e-04   |deigs|: 2.007e-03  t[s]:     35.68
	FillingsUpdate:  mu: -0.079130829  nElectrons: 9.000000  magneticMoment: [ Abs: 0.62142  Tot: +0.62000 ]
SCF: Cycle: 15   F: -20.184360356329659   dF: -8.658e-06   |Residual|: 4.523e-04   |deigs|: 1.751e-03  t[s]:     37.74
	FillingsUpdate:  mu: -0.078265483  nElectrons: 9.000000  magneticMoment: [ Abs: 0.62132  Tot: +0.62000 ]
SCF: Cycle: 16   F: -20.184364916859604   dF: -4.561e-06   |Residual|: 3.398e-04   |deigs|: 1.383e-03  t[s]:     39.76
	FillingsUpdate:  mu: -0.077949425  nElectrons: 9.000000  magneticMoment: [ Abs: 0.62081  Tot: +0.62000 ]
SCF: Cycle: 17   F: -20.184368015368072   dF: -3.099e-06   |Residual|: 2.456e-04   |deigs|: 7.183e-04  t[s]:     41.82
	FillingsUpdate:  mu: -0.078246594  nElectrons: 9.000000  magneticMoment: [ Abs: 0.62151  Tot: +0.62000 ]
SCF: Cycle: 18   F: -20.184368806386278   dF: -7.910e-07   |Residual|: 1.671e-04   |deigs|: 7.523e-04  t[s]:     43.89
	FillingsUpdate:  mu: -0.078235702  nElectrons: 9.000000  magneticMoment: [ Abs: 0.62076  Tot: +0.62000 ]
SCF: Cycle: 19   F: -20.184369865779221   dF: -1.059e-06   |Residual|: 7.345e-05   |deigs|: 4.957e-04  t[s]:     45.98
	FillingsUpdate:  mu: -0.078346888  nElectrons: 9.000000  magneticMoment: [ Abs: 0.62047  Tot: +0.62000 ]
SCF: Cycle: 20   F: -20.184370100908001   dF: -2.351e-07   |Residual|: 4.531e-05   |deigs|: 2.162e-04  t[s]:     48.01
	FillingsUpdate:  mu: -0.078302850  nElectrons: 9.000000  magneticMoment: [ Abs: 0.62052  Tot: +0.62000 ]
SCF: Cycle: 21   F: -20.184370241992983   dF: -1.411e-07   |Residual|: 2.901e-05   |deigs|: 1.398e-04  t[s]:     50.04
	FillingsUpdate:  mu: -0.078316492  nElectrons: 9.000000  magneticMoment: [ Abs: 0.62053  Tot: +0.62000 ]
SCF: Cycle: 22   F: -20.184370316898903   dF: -7.491e-08   |Residual|: 2.226e-05   |deigs|: 1.808e-04  t[s]:     52.10
	FillingsUpdate:  mu: -0.078337286  nElectrons: 9.000000  magneticMoment: [ Abs: 0.62051  Tot: +0.62000 ]
SCF: Cycle: 23   F: -20.184370351623784   dF: -3.472e-08   |Residual|: 1.689e-05   |deigs|: 2.245e-04  t[s]:     54.11
	FillingsUpdate:  mu: -0.078346837  nElectrons: 9.000000  magneticMoment: [ Abs: 0.62048  Tot: +0.62000 ]
SCF: Cycle: 24   F: -20.184370381828455   dF: -3.020e-08   |Residual|: 1.397e-05   |deigs|: 1.641e-04  t[s]:     56.24
	FillingsUpdate:  mu: -0.078339796  nElectrons: 9.000000  magneticMoment: [ Abs: 0.62046  Tot: +0.62000 ]
SCF: Cycle: 25   F: -20.184370396894405   dF: -1.507e-08   |Residual|: 1.259e-05   |deigs|: 2.114e-04  t[s]:     58.31
	FillingsUpdate:  mu: -0.078324349  nElectrons: 9.000000  magneticMoment: [ Abs: 0.62044  Tot: +0.62000 ]
SCF: Cycle: 26   F: -20.184370404950389   dF: -8.056e-09   |Residual|: 9.703e-06   |deigs|: 1.724e-04  t[s]:     60.41
	FillingsUpdate:  mu: -0.078320749  nElectrons: 9.000000  magneticMoment: [ Abs: 0.62037  Tot: +0.62000 ]
SCF: Cycle: 27   F: -20.184370411455635   dF: -6.505e-09   |Residual|: 7.542e-06   |deigs|: 1.971e-04  t[s]:     62.45
SCF: Converged (|Delta E|<1.000000e-08 for 2 iters).


# Ionic positions in lattice coordinates:
ion Cs   0.000000000000000   0.000000000000000   0.000000000000000 0

# Forces in Lattice coordinates:
force Cs   0.000000000000000  -0.000000000000000   0.000000000000000 0

# Energy components:
   Eewald =      -18.0480261003326561
       EH =       -1.7798988289933950
     Eloc =       -5.8007686272340351
      Enl =        3.4388201451205456
   Epulay =        0.0000000264484078
      Exc =       -3.1495027908019830
       KE =        5.1550065702461909
-------------------------------------
     Etot =      -20.1843696055469266
       TS =        0.0000008059087085
-------------------------------------
        F =      -20.1843704114556353

IonicMinimize: Iter:   0  F: -20.184370411455635  |grad|_K:  0.000e+00  t[s]:     62.57
IonicMinimize: Converged (|grad|_K<1.000000e-04).

#--- Lowdin population analysis ---
# oxidation-state Cs +0.099
# magnetic-moments Cs +0.529

End date and time: Sun Feb  6 13:30:41 2022  (Duration: 0-0:01:02.60)
Done!
