
*************** JDFTx 1.6.0 (git hash 42ebbcc2) ***************

Start date and time: Sun Feb  6 13:33:13 2022
Executable jdftx with command-line: -i Alkali.in
Running on hosts (process indices):  d-6-13-4 (0-18)
Divided in process groups (process indices):  0 (0)  1 (1)  2 (2)  3 (3)  4 (4)  5 (5)  6 (6)  7 (7)  8 (8)  9 (9)  10 (10)  11 (11)  12 (12)  13 (13)  14 (14)  15 (15)  16 (16)  17 (17)  18 (18)
Resource initialization completed at t[s]:      0.00
Run totals: 19 processes, 48 threads, 0 GPUs


Input parsed successfully to the following command list (including defaults):

basis kpoint-dependent
coords-type Lattice
core-overlap-check vector
coulomb-interaction Slab 001
davidson-band-ratio 1.1
dump End None
dump-name $INPUT.$VAR
elec-cutoff 20
elec-eigen-algo Davidson
elec-ex-corr gga-PBE
elec-initial-magnetization 0.840000 yes
elec-smearing Fermi 1e-05
electronic-minimize  \
	dirUpdateScheme      FletcherReeves \
	linminMethod         DirUpdateRecommended \
	nIterations          100 \
	history              15 \
	knormThreshold       0 \
	energyDiffThreshold  1e-08 \
	nEnergyDiff          2 \
	alphaTstart          1 \
	alphaTmin            1e-10 \
	updateTestStepSize   yes \
	alphaTreduceFactor   0.1 \
	alphaTincreaseFactor 3 \
	nAlphaAdjustMax      3 \
	wolfeEnergy          0.0001 \
	wolfeGradient        0.9 \
	fdTest               no
electronic-scf  \
	nIterations	10000 \
	energyDiffThreshold	1e-08 \
	residualThreshold	1e-07 \
	mixFraction	0.5 \
	qMetric	0.8 \
	history	10 \
	nEigSteps	2 \
	eigDiffThreshold	1e-08 \
	mixedVariable	Density \
	qKerker	0.8 \
	qKappa	-1 \
	verbose	no \
	mixFractionMag	1.5
exchange-regularization WignerSeitzTruncated
fluid None
fluid-ex-corr (null) lda-PZ
fluid-gummel-loop 10 1.000000e-05
fluid-minimize  \
	dirUpdateScheme      PolakRibiere \
	linminMethod         DirUpdateRecommended \
	nIterations          100 \
	history              15 \
	knormThreshold       0 \
	energyDiffThreshold  0 \
	nEnergyDiff          2 \
	alphaTstart          1 \
	alphaTmin            1e-10 \
	updateTestStepSize   yes \
	alphaTreduceFactor   0.1 \
	alphaTincreaseFactor 3 \
	nAlphaAdjustMax      3 \
	wolfeEnergy          0.0001 \
	wolfeGradient        0.9 \
	fdTest               no
fluid-solvent H2O 55.338 ScalarEOS \
	epsBulk 78.4 \
	pMol 0.92466 \
	epsInf 1.77 \
	Pvap 1.06736e-10 \
	sigmaBulk 4.62e-05 \
	Rvdw 2.61727 \
	Res 1.42 \
	tauNuc 343133 \
	poleEl 15 7 1
forces-output-coords Positions
ion Cs   0.000000000000000   0.000000000000000   0.000000000000000 0
ion-species SG15/$ID_ONCV_PBE.upf
ion-width 0
ionic-minimize  \
	dirUpdateScheme      L-BFGS \
	linminMethod         DirUpdateRecommended \
	nIterations          0 \
	history              15 \
	knormThreshold       0.0001 \
	energyDiffThreshold  1e-06 \
	nEnergyDiff          2 \
	alphaTstart          1 \
	alphaTmin            1e-10 \
	updateTestStepSize   yes \
	alphaTreduceFactor   0.1 \
	alphaTincreaseFactor 3 \
	nAlphaAdjustMax      3 \
	wolfeEnergy          0.0001 \
	wolfeGradient        0.9 \
	fdTest               no
kpoint   0.000000000000   0.000000000000   0.000000000000  1.00000000000000
kpoint-folding 12 12 1 
latt-move-scale 1 1 1
latt-scale 2 2 1 
lattice  \
	   4.727486978767153   -2.363743489383575    0.000000000000000  \
	  -0.000000000000000    4.094123819672498    0.000000000000000  \
	   0.000000000000000    0.000000000000000   40.000000000000000 
lattice-minimize  \
	dirUpdateScheme      L-BFGS \
	linminMethod         DirUpdateRecommended \
	nIterations          0 \
	history              15 \
	knormThreshold       0 \
	energyDiffThreshold  1e-06 \
	nEnergyDiff          2 \
	alphaTstart          1 \
	alphaTmin            1e-10 \
	updateTestStepSize   yes \
	alphaTreduceFactor   0.1 \
	alphaTincreaseFactor 3 \
	nAlphaAdjustMax      3 \
	wolfeEnergy          0.0001 \
	wolfeGradient        0.9 \
	fdTest               no
lcao-params -1 1e-06 1e-05
pcm-variant GLSSA13
spintype z-spin
subspace-rotation-factor 1 yes
symmetries automatic
symmetry-threshold 0.0001



---------- Setting up symmetries ----------

Found 24 point-group symmetries of the bravais lattice
Found 24 space-group symmetries with basis
Applied RMS atom displacement 0 bohrs to make symmetries exact.

---------- Initializing the Grid ----------
R = 
[      9.45497     -4.72749            0  ]
[            0      8.18825            0  ]
[            0            0           40  ]
unit cell volume = 3096.79
G =
[   0.664538   0.383671         -0  ]
[          0   0.767342         -0  ]
[         -0         -0    0.15708  ]
Minimum fftbox size, Smin = [  40  40  164  ]
Chosen fftbox size, S = [  40  40  168  ]

---------- Exchange Correlation functional ----------
Initalized PBE GGA exchange.
Initalized PBE GGA correlation.

---------- Setting up pseudopotentials ----------
Width of ionic core gaussian charges (only for fluid interactions / plotting) set to 0

Reading pseudopotential file '/home/gridsan/aligho/DFT/build-Nov24/pseudopotentials/SG15/Cs_ONCV_PBE.upf':
  'Cs' pseudopotential, 'PBE' functional
  Generated using ONCVPSP code by D. R. Hamann
  Author: Martin Schlipf and Francois Gygi  Date: 150915.
  9 valence electrons, 3 orbitals, 6 projectors, 2414 radial grid points, with lMax = 2
  Transforming local potential to a uniform radial grid of dG=0.02 with 1489 points.
  Transforming nonlocal projectors to a uniform radial grid of dG=0.02 with 432 points.
    5S    l: 0   occupation:  2.0   eigenvalue: -0.982388
    5P    l: 1   occupation:  6.0   eigenvalue: -0.496786
    6S    l: 0   occupation:  1.0   eigenvalue: -0.076670
  Transforming atomic orbitals to a uniform radial grid of dG=0.02 with 432 points.
  Core radius for overlap checks: 2.06 bohrs.
  Reading pulay file /home/gridsan/aligho/DFT/build-Nov24/pseudopotentials/SG15/Cs_ONCV_PBE.pulay ... using dE_dnG = -1.008762e-04 computed for Ecut = 20.

Initialized 1 species with 1 total atoms.

Folded 1 k-points by 12x12x1 to 144 k-points.

---------- Setting up k-points, bands, fillings ----------
Reduced to 19 k-points under symmetry. 
Computing the number of bands and number of electrons
Calculating initial fillings.
nElectrons:   9.000000   nBands: 6   nStates: 38

----- Setting up reduced wavefunction bases (one per k-point) -----
average nbasis = 13230.521 , ideal nbasis = 13229.709

---------- Setting up coulomb interaction ----------
Initialized slab truncation along lattice direction 001

---------- Setting up 2D ewald sum ----------
Optimum gaussian width for ewald sums = 5.249020 bohr.
Real space sums over 289 unit cells with max indices [  8  8  0  ]
Reciprocal space sums over 81 terms with max indices [  4  4  0  ]

---------- Allocating electronic variables ----------
Initializing wave functions:  linear combination of atomic orbitals
Note: number of bands (6) exceeds available atomic orbitals (5)
Cs pseudo-atom occupations:   s ( 2 1 )  p ( 6 )
	FillingsUpdate:  mu: -0.085193352  nElectrons: 9.000000  magneticMoment: [ Abs: 0.84000  Tot: +0.84000 ]
LCAOMinimize: Iter:   0  F: -20.1660499019112045  |grad|_K:  1.528e-05  alpha:  1.000e+00
	FillingsUpdate:  mu: -0.085186596  nElectrons: 9.000000  magneticMoment: [ Abs: 0.84000  Tot: +0.84000 ]
LCAOMinimize: Iter:   1  F: -20.1660500582626305  |grad|_K:  1.470e-07  alpha:  9.793e-01  linmin: -1.693e-02  cgtest:  1.994e-01  t[s]:      4.55
LCAOMinimize: Encountered beta<0, resetting CG.
	FillingsUpdate:  mu: -0.085186642  nElectrons: 9.000000  magneticMoment: [ Abs: 0.84000  Tot: +0.84000 ]
LCAOMinimize: Iter:   2  F: -20.1660500582774915  |grad|_K:  2.869e-09  alpha:  1.019e+00  linmin:  9.682e-02  cgtest: -9.547e-01  t[s]:      5.79
LCAOMinimize: Converged (|Delta F|<1.000000e-06 for 2 iters).


---- Citations for features of the code used in this run ----

   Software package:
      R. Sundararaman, K. Letchworth-Weaver, K.A. Schwarz, D. Gunceler, Y. Ozhabes and T.A. Arias, 'JDFTx: software for joint density-functional theory', SoftwareX 6, 278 (2017)

   gga-PBE exchange-correlation functional:
      J.P. Perdew, K. Burke and M. Ernzerhof, Phys. Rev. Lett. 77, 3865 (1996)

   Pseudopotentials:
      M Schlipf and F Gygi, Comput. Phys. Commun. 196, 36 (2015)

   Truncated Coulomb potentials:
      R. Sundararaman and T.A. Arias, Phys. Rev. B 87, 165122 (2013)

This list may not be complete. Please suggest additional citations or
report any other bugs at https://github.com/shankar1729/jdftx/issues

Initialization completed successfully at t[s]:      5.89


-------- Electronic minimization -----------
Will mix electronic density at each iteration.
	FillingsUpdate:  mu: -0.085186642  nElectrons: 9.000000  magneticMoment: [ Abs: 0.84000  Tot: +0.84000 ]
	FillingsUpdate:  mu: -0.105467280  nElectrons: 9.000000  magneticMoment: [ Abs: 0.84000  Tot: +0.84000 ]
SCF: Cycle:  0   F: -20.178464620516891   dF: -1.241e-02   |Residual|: 1.947e-02   |deigs|: 1.883e-01  t[s]:      8.37
	FillingsUpdate:  mu: -0.110706604  nElectrons: 9.000000  magneticMoment: [ Abs: 0.84000  Tot: +0.84000 ]
SCF: Cycle:  1   F: -20.179470538026006   dF: -1.006e-03   |Residual|: 1.460e-02   |deigs|: 7.356e-03  t[s]:     10.21
	FillingsUpdate:  mu: -0.107974756  nElectrons: 9.000000  magneticMoment: [ Abs: 0.84628  Tot: +0.84000 ]
SCF: Cycle:  2   F: -20.180105217981634   dF: -6.347e-04   |Residual|: 8.009e-03   |deigs|: 2.213e-03  t[s]:     12.17
	FillingsUpdate:  mu: -0.104260461  nElectrons: 9.000000  magneticMoment: [ Abs: 0.84000  Tot: +0.84000 ]
SCF: Cycle:  3   F: -20.180372050183934   dF: -2.668e-04   |Residual|: 5.044e-03   |deigs|: 3.573e-03  t[s]:     14.09
	FillingsUpdate:  mu: -0.101081000  nElectrons: 9.000000  magneticMoment: [ Abs: 0.84001  Tot: +0.84000 ]
SCF: Cycle:  4   F: -20.180494177866539   dF: -1.221e-04   |Residual|: 3.384e-03   |deigs|: 3.214e-03  t[s]:     16.06
	FillingsUpdate:  mu: -0.098400165  nElectrons: 9.000000  magneticMoment: [ Abs: 0.84011  Tot: +0.84000 ]
SCF: Cycle:  5   F: -20.180538727251893   dF: -4.455e-05   |Residual|: 2.919e-03   |deigs|: 3.246e-03  t[s]:     17.99
	FillingsUpdate:  mu: -0.094433175  nElectrons: 9.000000  magneticMoment: [ Abs: 0.84549  Tot: +0.84000 ]
SCF: Cycle:  6   F: -20.180553788349751   dF: -1.506e-05   |Residual|: 2.107e-03   |deigs|: 4.243e-03  t[s]:     19.93
	FillingsUpdate:  mu: -0.091401990  nElectrons: 9.000000  magneticMoment: [ Abs: 0.84774  Tot: +0.84000 ]
SCF: Cycle:  7   F: -20.180579033938461   dF: -2.525e-05   |Residual|: 1.629e-03   |deigs|: 3.620e-03  t[s]:     22.08
	FillingsUpdate:  mu: -0.090503699  nElectrons: 9.000000  magneticMoment: [ Abs: 0.84094  Tot: +0.84000 ]
SCF: Cycle:  8   F: -20.180621538641283   dF: -4.250e-05   |Residual|: 1.412e-03   |deigs|: 1.589e-03  t[s]:     24.13
	FillingsUpdate:  mu: -0.089298551  nElectrons: 9.000000  magneticMoment: [ Abs: 0.84213  Tot: +0.84000 ]
SCF: Cycle:  9   F: -20.180636205114901   dF: -1.467e-05   |Residual|: 1.104e-03   |deigs|: 1.073e-03  t[s]:     26.17
	FillingsUpdate:  mu: -0.087727531  nElectrons: 9.000000  magneticMoment: [ Abs: 0.84567  Tot: +0.84000 ]
SCF: Cycle: 10   F: -20.180656103120477   dF: -1.990e-05   |Residual|: 9.202e-04   |deigs|: 2.010e-03  t[s]:     28.23
	FillingsUpdate:  mu: -0.087376150  nElectrons: 9.000000  magneticMoment: [ Abs: 0.84566  Tot: +0.84000 ]
SCF: Cycle: 11   F: -20.180673102582794   dF: -1.700e-05   |Residual|: 8.431e-04   |deigs|: 8.968e-04  t[s]:     30.26
	FillingsUpdate:  mu: -0.086239982  nElectrons: 9.000000  magneticMoment: [ Abs: 0.84661  Tot: +0.84000 ]
SCF: Cycle: 12   F: -20.180684542224213   dF: -1.144e-05   |Residual|: 7.459e-04   |deigs|: 1.409e-03  t[s]:     32.30
	FillingsUpdate:  mu: -0.083766857  nElectrons: 9.000000  magneticMoment: [ Abs: 0.84694  Tot: +0.84000 ]
SCF: Cycle: 13   F: -20.180691766630986   dF: -7.224e-06   |Residual|: 7.308e-04   |deigs|: 2.746e-03  t[s]:     34.47
	FillingsUpdate:  mu: -0.082319147  nElectrons: 9.000000  magneticMoment: [ Abs: 0.84332  Tot: +0.84000 ]
SCF: Cycle: 14   F: -20.180697589583673   dF: -5.823e-06   |Residual|: 6.746e-04   |deigs|: 2.198e-03  t[s]:     36.52
	FillingsUpdate:  mu: -0.081190371  nElectrons: 9.000000  magneticMoment: [ Abs: 0.84201  Tot: +0.84000 ]
SCF: Cycle: 15   F: -20.180705940296946   dF: -8.351e-06   |Residual|: 5.212e-04   |deigs|: 2.435e-03  t[s]:     38.61
	FillingsUpdate:  mu: -0.080528732  nElectrons: 9.000000  magneticMoment: [ Abs: 0.84121  Tot: +0.84000 ]
SCF: Cycle: 16   F: -20.180714656003584   dF: -8.716e-06   |Residual|: 3.958e-04   |deigs|: 1.441e-03  t[s]:     40.68
	FillingsUpdate:  mu: -0.079894572  nElectrons: 9.000000  magneticMoment: [ Abs: 0.84148  Tot: +0.84000 ]
SCF: Cycle: 17   F: -20.180718141144364   dF: -3.485e-06   |Residual|: 2.925e-04   |deigs|: 9.053e-04  t[s]:     42.71
	FillingsUpdate:  mu: -0.079917670  nElectrons: 9.000000  magneticMoment: [ Abs: 0.84180  Tot: +0.84000 ]
SCF: Cycle: 18   F: -20.180722405325540   dF: -4.264e-06   |Residual|: 2.361e-04   |deigs|: 2.396e-04  t[s]:     44.80
	FillingsUpdate:  mu: -0.080489416  nElectrons: 9.000000  magneticMoment: [ Abs: 0.84141  Tot: +0.84000 ]
SCF: Cycle: 19   F: -20.180723324488802   dF: -9.192e-07   |Residual|: 1.374e-04   |deigs|: 6.074e-04  t[s]:     46.78
	FillingsUpdate:  mu: -0.080635541  nElectrons: 9.000000  magneticMoment: [ Abs: 0.84090  Tot: +0.84000 ]
SCF: Cycle: 20   F: -20.180723971214974   dF: -6.467e-07   |Residual|: 9.685e-05   |deigs|: 1.111e-03  t[s]:     48.95
	FillingsUpdate:  mu: -0.080557517  nElectrons: 9.000000  magneticMoment: [ Abs: 0.84085  Tot: +0.84000 ]
SCF: Cycle: 21   F: -20.180724230353320   dF: -2.591e-07   |Residual|: 7.518e-05   |deigs|: 5.765e-04  t[s]:     51.01
	FillingsUpdate:  mu: -0.080638921  nElectrons: 9.000000  magneticMoment: [ Abs: 0.84079  Tot: +0.84000 ]
SCF: Cycle: 22   F: -20.180724579835491   dF: -3.495e-07   |Residual|: 4.383e-05   |deigs|: 8.128e-04  t[s]:     53.17
	FillingsUpdate:  mu: -0.080729161  nElectrons: 9.000000  magneticMoment: [ Abs: 0.84080  Tot: +0.84000 ]
SCF: Cycle: 23   F: -20.180724749769201   dF: -1.699e-07   |Residual|: 5.562e-05   |deigs|: 3.137e-04  t[s]:     55.28
	FillingsUpdate:  mu: -0.080607696  nElectrons: 9.000000  magneticMoment: [ Abs: 0.84087  Tot: +0.84000 ]
SCF: Cycle: 24   F: -20.180724792260889   dF: -4.249e-08   |Residual|: 3.331e-05   |deigs|: 1.333e-04  t[s]:     57.33
	FillingsUpdate:  mu: -0.080506963  nElectrons: 9.000000  magneticMoment: [ Abs: 0.84078  Tot: +0.84000 ]
SCF: Cycle: 25   F: -20.180724898275059   dF: -1.060e-07   |Residual|: 2.684e-05   |deigs|: 1.064e-03  t[s]:     59.41
	FillingsUpdate:  mu: -0.080560612  nElectrons: 9.000000  magneticMoment: [ Abs: 0.84062  Tot: +0.84000 ]
SCF: Cycle: 26   F: -20.180724925937469   dF: -2.766e-08   |Residual|: 2.004e-05   |deigs|: 5.564e-04  t[s]:     61.57
	FillingsUpdate:  mu: -0.080574203  nElectrons: 9.000000  magneticMoment: [ Abs: 0.84044  Tot: +0.84000 ]
SCF: Cycle: 27   F: -20.180724971773159   dF: -4.584e-08   |Residual|: 1.604e-05   |deigs|: 3.606e-05  t[s]:     63.65
	FillingsUpdate:  mu: -0.080548079  nElectrons: 9.000000  magneticMoment: [ Abs: 0.84034  Tot: +0.84000 ]
SCF: Cycle: 28   F: -20.180724986654099   dF: -1.488e-08   |Residual|: 1.225e-05   |deigs|: 4.885e-04  t[s]:     65.73
	FillingsUpdate:  mu: -0.080531256  nElectrons: 9.000000  magneticMoment: [ Abs: 0.84030  Tot: +0.84000 ]
SCF: Cycle: 29   F: -20.180724990787311   dF: -4.133e-09   |Residual|: 6.566e-06   |deigs|: 3.964e-04  t[s]:     67.79
	FillingsUpdate:  mu: -0.080537655  nElectrons: 9.000000  magneticMoment: [ Abs: 0.84029  Tot: +0.84000 ]
SCF: Cycle: 30   F: -20.180724999298540   dF: -8.511e-09   |Residual|: 4.665e-06   |deigs|: 3.034e-05  t[s]:     69.87
SCF: Converged (|Delta E|<1.000000e-08 for 2 iters).


# Ionic positions in lattice coordinates:
ion Cs   0.000000000000000   0.000000000000000   0.000000000000000 0

# Forces in Lattice coordinates:
force Cs  -0.000000000000000  -0.000000000000000   0.000000000000000 0

# Energy components:
   Eewald =      -18.0480261003326561
       EH =       -1.7752494020334673
     Eloc =       -5.8039439211882264
      Enl =        3.4366109579092123
   Epulay =        0.0000000264484078
      Exc =       -3.1525595477567041
       KE =        5.1624434531910470
-------------------------------------
     Etot =      -20.1807245337623868
       TS =        0.0000004655361546
-------------------------------------
        F =      -20.1807249992985405

IonicMinimize: Iter:   0  F: -20.180724999298540  |grad|_K:  0.000e+00  t[s]:     69.99
IonicMinimize: Converged (|grad|_K<1.000000e-04).

#--- Lowdin population analysis ---
# oxidation-state Cs +0.147
# magnetic-moments Cs +0.698

End date and time: Sun Feb  6 13:34:23 2022  (Duration: 0-0:01:10.02)
Done!
