
*************** JDFTx 1.6.0 (git hash 42ebbcc2) ***************

Start date and time: Sun Feb  6 13:09:09 2022
Executable jdftx with command-line: -i Alkali.in
Running on hosts (process indices):  d-4-7-2 (0-18)
Divided in process groups (process indices):  0 (0)  1 (1)  2 (2)  3 (3)  4 (4)  5 (5)  6 (6)  7 (7)  8 (8)  9 (9)  10 (10)  11 (11)  12 (12)  13 (13)  14 (14)  15 (15)  16 (16)  17 (17)  18 (18)
Resource initialization completed at t[s]:      0.00
Run totals: 19 processes, 48 threads, 0 GPUs


Input parsed successfully to the following command list (including defaults):

basis kpoint-dependent
coords-type Lattice
core-overlap-check vector
coulomb-interaction Slab 001
davidson-band-ratio 1.1
dump End None
dump-name $INPUT.$VAR
elec-cutoff 20
elec-eigen-algo Davidson
elec-ex-corr gga-PBE
elec-initial-magnetization -0.800000 yes
elec-smearing Fermi 1e-05
electronic-minimize  \
	dirUpdateScheme      FletcherReeves \
	linminMethod         DirUpdateRecommended \
	nIterations          100 \
	history              15 \
	knormThreshold       0 \
	energyDiffThreshold  1e-08 \
	nEnergyDiff          2 \
	alphaTstart          1 \
	alphaTmin            1e-10 \
	updateTestStepSize   yes \
	alphaTreduceFactor   0.1 \
	alphaTincreaseFactor 3 \
	nAlphaAdjustMax      3 \
	wolfeEnergy          0.0001 \
	wolfeGradient        0.9 \
	fdTest               no
electronic-scf  \
	nIterations	10000 \
	energyDiffThreshold	1e-08 \
	residualThreshold	1e-07 \
	mixFraction	0.5 \
	qMetric	0.8 \
	history	10 \
	nEigSteps	2 \
	eigDiffThreshold	1e-08 \
	mixedVariable	Density \
	qKerker	0.8 \
	qKappa	-1 \
	verbose	no \
	mixFractionMag	1.5
exchange-regularization WignerSeitzTruncated
fluid None
fluid-ex-corr (null) lda-PZ
fluid-gummel-loop 10 1.000000e-05
fluid-minimize  \
	dirUpdateScheme      PolakRibiere \
	linminMethod         DirUpdateRecommended \
	nIterations          100 \
	history              15 \
	knormThreshold       0 \
	energyDiffThreshold  0 \
	nEnergyDiff          2 \
	alphaTstart          1 \
	alphaTmin            1e-10 \
	updateTestStepSize   yes \
	alphaTreduceFactor   0.1 \
	alphaTincreaseFactor 3 \
	nAlphaAdjustMax      3 \
	wolfeEnergy          0.0001 \
	wolfeGradient        0.9 \
	fdTest               no
fluid-solvent H2O 55.338 ScalarEOS \
	epsBulk 78.4 \
	pMol 0.92466 \
	epsInf 1.77 \
	Pvap 1.06736e-10 \
	sigmaBulk 4.62e-05 \
	Rvdw 2.61727 \
	Res 1.42 \
	tauNuc 343133 \
	poleEl 15 7 1
forces-output-coords Positions
ion Cs   0.000000000000000   0.000000000000000   0.000000000000000 0
ion-species SG15/$ID_ONCV_PBE.upf
ion-width 0
ionic-minimize  \
	dirUpdateScheme      L-BFGS \
	linminMethod         DirUpdateRecommended \
	nIterations          0 \
	history              15 \
	knormThreshold       0.0001 \
	energyDiffThreshold  1e-06 \
	nEnergyDiff          2 \
	alphaTstart          1 \
	alphaTmin            1e-10 \
	updateTestStepSize   yes \
	alphaTreduceFactor   0.1 \
	alphaTincreaseFactor 3 \
	nAlphaAdjustMax      3 \
	wolfeEnergy          0.0001 \
	wolfeGradient        0.9 \
	fdTest               no
kpoint   0.000000000000   0.000000000000   0.000000000000  1.00000000000000
kpoint-folding 12 12 1 
latt-move-scale 1 1 1
latt-scale 2 2 1 
lattice  \
	   4.727486978767153   -2.363743489383575    0.000000000000000  \
	  -0.000000000000000    4.094123819672498    0.000000000000000  \
	   0.000000000000000    0.000000000000000   40.000000000000000 
lattice-minimize  \
	dirUpdateScheme      L-BFGS \
	linminMethod         DirUpdateRecommended \
	nIterations          0 \
	history              15 \
	knormThreshold       0 \
	energyDiffThreshold  1e-06 \
	nEnergyDiff          2 \
	alphaTstart          1 \
	alphaTmin            1e-10 \
	updateTestStepSize   yes \
	alphaTreduceFactor   0.1 \
	alphaTincreaseFactor 3 \
	nAlphaAdjustMax      3 \
	wolfeEnergy          0.0001 \
	wolfeGradient        0.9 \
	fdTest               no
lcao-params -1 1e-06 1e-05
pcm-variant GLSSA13
spintype z-spin
subspace-rotation-factor 1 yes
symmetries automatic
symmetry-threshold 0.0001



---------- Setting up symmetries ----------

Found 24 point-group symmetries of the bravais lattice
Found 24 space-group symmetries with basis
Applied RMS atom displacement 0 bohrs to make symmetries exact.

---------- Initializing the Grid ----------
R = 
[      9.45497     -4.72749            0  ]
[            0      8.18825            0  ]
[            0            0           40  ]
unit cell volume = 3096.79
G =
[   0.664538   0.383671         -0  ]
[          0   0.767342         -0  ]
[         -0         -0    0.15708  ]
Minimum fftbox size, Smin = [  40  40  164  ]
Chosen fftbox size, S = [  40  40  168  ]

---------- Exchange Correlation functional ----------
Initalized PBE GGA exchange.
Initalized PBE GGA correlation.

---------- Setting up pseudopotentials ----------
Width of ionic core gaussian charges (only for fluid interactions / plotting) set to 0

Reading pseudopotential file '/home/gridsan/aligho/DFT/build-Nov24/pseudopotentials/SG15/Cs_ONCV_PBE.upf':
  'Cs' pseudopotential, 'PBE' functional
  Generated using ONCVPSP code by D. R. Hamann
  Author: Martin Schlipf and Francois Gygi  Date: 150915.
  9 valence electrons, 3 orbitals, 6 projectors, 2414 radial grid points, with lMax = 2
  Transforming local potential to a uniform radial grid of dG=0.02 with 1489 points.
  Transforming nonlocal projectors to a uniform radial grid of dG=0.02 with 432 points.
    5S    l: 0   occupation:  2.0   eigenvalue: -0.982388
    5P    l: 1   occupation:  6.0   eigenvalue: -0.496786
    6S    l: 0   occupation:  1.0   eigenvalue: -0.076670
  Transforming atomic orbitals to a uniform radial grid of dG=0.02 with 432 points.
  Core radius for overlap checks: 2.06 bohrs.
  Reading pulay file /home/gridsan/aligho/DFT/build-Nov24/pseudopotentials/SG15/Cs_ONCV_PBE.pulay ... using dE_dnG = -1.008762e-04 computed for Ecut = 20.

Initialized 1 species with 1 total atoms.

Folded 1 k-points by 12x12x1 to 144 k-points.

---------- Setting up k-points, bands, fillings ----------
Reduced to 19 k-points under symmetry. 
Computing the number of bands and number of electrons
Calculating initial fillings.
nElectrons:   9.000000   nBands: 6   nStates: 38

----- Setting up reduced wavefunction bases (one per k-point) -----
average nbasis = 13230.521 , ideal nbasis = 13229.709

---------- Setting up coulomb interaction ----------
Initialized slab truncation along lattice direction 001

---------- Setting up 2D ewald sum ----------
Optimum gaussian width for ewald sums = 5.249020 bohr.
Real space sums over 289 unit cells with max indices [  8  8  0  ]
Reciprocal space sums over 81 terms with max indices [  4  4  0  ]

---------- Allocating electronic variables ----------
Initializing wave functions:  linear combination of atomic orbitals
Note: number of bands (6) exceeds available atomic orbitals (5)
Cs pseudo-atom occupations:   s ( 2 1 )  p ( 6 )
	FillingsUpdate:  mu: -0.089471584  nElectrons: 9.000000  magneticMoment: [ Abs: 0.80000  Tot: -0.80000 ]
LCAOMinimize: Iter:   0  F: -20.1678142336969977  |grad|_K:  1.783e-05  alpha:  1.000e+00
	FillingsUpdate:  mu: -0.089464594  nElectrons: 9.000000  magneticMoment: [ Abs: 0.80000  Tot: -0.80000 ]
LCAOMinimize: Iter:   1  F: -20.1678144465863518  |grad|_K:  1.646e-07  alpha:  9.789e-01  linmin: -2.237e-02  cgtest:  2.190e-01  t[s]:      4.55
LCAOMinimize: Encountered beta<0, resetting CG.
	FillingsUpdate:  mu: -0.089464660  nElectrons: 9.000000  magneticMoment: [ Abs: 0.80000  Tot: -0.80000 ]
LCAOMinimize: Iter:   2  F: -20.1678144466053872  |grad|_K:  1.542e-09  alpha:  1.008e+00  linmin:  1.228e-01  cgtest: -8.541e-01  t[s]:      5.83
LCAOMinimize: Converged (|Delta F|<1.000000e-06 for 2 iters).


---- Citations for features of the code used in this run ----

   Software package:
      R. Sundararaman, K. Letchworth-Weaver, K.A. Schwarz, D. Gunceler, Y. Ozhabes and T.A. Arias, 'JDFTx: software for joint density-functional theory', SoftwareX 6, 278 (2017)

   gga-PBE exchange-correlation functional:
      J.P. Perdew, K. Burke and M. Ernzerhof, Phys. Rev. Lett. 77, 3865 (1996)

   Pseudopotentials:
      M Schlipf and F Gygi, Comput. Phys. Commun. 196, 36 (2015)

   Truncated Coulomb potentials:
      R. Sundararaman and T.A. Arias, Phys. Rev. B 87, 165122 (2013)

This list may not be complete. Please suggest additional citations or
report any other bugs at https://github.com/shankar1729/jdftx/issues

Initialization completed successfully at t[s]:      5.93


-------- Electronic minimization -----------
Will mix electronic density at each iteration.
	FillingsUpdate:  mu: -0.089464660  nElectrons: 9.000000  magneticMoment: [ Abs: 0.80000  Tot: -0.80000 ]
	FillingsUpdate:  mu: -0.108717307  nElectrons: 9.000000  magneticMoment: [ Abs: 0.80000  Tot: -0.80000 ]
SCF: Cycle:  0   F: -20.179563926486491   dF: -1.175e-02   |Residual|: 1.887e-02   |deigs|: 1.882e-01  t[s]:      8.35
	FillingsUpdate:  mu: -0.113537028  nElectrons: 9.000000  magneticMoment: [ Abs: 0.80000  Tot: -0.80000 ]
SCF: Cycle:  1   F: -20.180464763490406   dF: -9.008e-04   |Residual|: 1.415e-02   |deigs|: 7.438e-03  t[s]:     10.16
	FillingsUpdate:  mu: -0.110355639  nElectrons: 9.000000  magneticMoment: [ Abs: 0.80622  Tot: -0.80000 ]
SCF: Cycle:  2   F: -20.180976235785902   dF: -5.115e-04   |Residual|: 8.249e-03   |deigs|: 2.364e-03  t[s]:     12.00
	FillingsUpdate:  mu: -0.105701910  nElectrons: 9.000000  magneticMoment: [ Abs: 0.80002  Tot: -0.80000 ]
SCF: Cycle:  3   F: -20.181213126553150   dF: -2.369e-04   |Residual|: 4.892e-03   |deigs|: 3.954e-03  t[s]:     13.87
	FillingsUpdate:  mu: -0.101941377  nElectrons: 9.000000  magneticMoment: [ Abs: 0.80025  Tot: -0.80000 ]
SCF: Cycle:  4   F: -20.181311003955113   dF: -9.788e-05   |Residual|: 3.609e-03   |deigs|: 3.750e-03  t[s]:     15.76
	FillingsUpdate:  mu: -0.098602878  nElectrons: 9.000000  magneticMoment: [ Abs: 0.80274  Tot: -0.80000 ]
SCF: Cycle:  5   F: -20.181346249524662   dF: -3.525e-05   |Residual|: 3.012e-03   |deigs|: 4.051e-03  t[s]:     17.66
	FillingsUpdate:  mu: -0.094989665  nElectrons: 9.000000  magneticMoment: [ Abs: 0.81373  Tot: -0.80000 ]
SCF: Cycle:  6   F: -20.181363004156722   dF: -1.675e-05   |Residual|: 2.207e-03   |deigs|: 4.333e-03  t[s]:     19.58
	FillingsUpdate:  mu: -0.091749860  nElectrons: 9.000000  magneticMoment: [ Abs: 0.81285  Tot: -0.80000 ]
SCF: Cycle:  7   F: -20.181417667976699   dF: -5.466e-05   |Residual|: 1.835e-03   |deigs|: 3.433e-03  t[s]:     21.56
	FillingsUpdate:  mu: -0.092078404  nElectrons: 9.000000  magneticMoment: [ Abs: 0.80177  Tot: -0.80000 ]
SCF: Cycle:  8   F: -20.181449682361201   dF: -3.201e-05   |Residual|: 1.502e-03   |deigs|: 4.807e-04  t[s]:     23.54
	FillingsUpdate:  mu: -0.089393488  nElectrons: 9.000000  magneticMoment: [ Abs: 0.80324  Tot: -0.80000 ]
SCF: Cycle:  9   F: -20.181466757471380   dF: -1.708e-05   |Residual|: 1.174e-03   |deigs|: 2.719e-03  t[s]:     25.59
	FillingsUpdate:  mu: -0.087444248  nElectrons: 9.000000  magneticMoment: [ Abs: 0.80734  Tot: -0.80000 ]
SCF: Cycle: 10   F: -20.181474203377977   dF: -7.446e-06   |Residual|: 9.871e-04   |deigs|: 2.084e-03  t[s]:     27.77
	FillingsUpdate:  mu: -0.087056797  nElectrons: 9.000000  magneticMoment: [ Abs: 0.80708  Tot: -0.80000 ]
SCF: Cycle: 11   F: -20.181491176597060   dF: -1.697e-05   |Residual|: 8.729e-04   |deigs|: 9.563e-04  t[s]:     29.84
	FillingsUpdate:  mu: -0.084822350  nElectrons: 9.000000  magneticMoment: [ Abs: 0.80933  Tot: -0.80000 ]
SCF: Cycle: 12   F: -20.181512631112245   dF: -2.145e-05   |Residual|: 8.320e-04   |deigs|: 2.499e-03  t[s]:     31.90
	FillingsUpdate:  mu: -0.082872557  nElectrons: 9.000000  magneticMoment: [ Abs: 0.80738  Tot: -0.80000 ]
SCF: Cycle: 13   F: -20.181521018562417   dF: -8.387e-06   |Residual|: 7.472e-04   |deigs|: 2.015e-03  t[s]:     34.01
	FillingsUpdate:  mu: -0.081108452  nElectrons: 9.000000  magneticMoment: [ Abs: 0.80405  Tot: -0.80000 ]
SCF: Cycle: 14   F: -20.181528604641080   dF: -7.586e-06   |Residual|: 6.872e-04   |deigs|: 1.836e-03  t[s]:     36.05
	FillingsUpdate:  mu: -0.079300384  nElectrons: 9.000000  magneticMoment: [ Abs: 0.80313  Tot: -0.80000 ]
SCF: Cycle: 15   F: -20.181538965134589   dF: -1.036e-05   |Residual|: 5.100e-04   |deigs|: 1.991e-03  t[s]:     38.06
	FillingsUpdate:  mu: -0.078095105  nElectrons: 9.000000  magneticMoment: [ Abs: 0.80257  Tot: -0.80000 ]
SCF: Cycle: 16   F: -20.181545582743770   dF: -6.618e-06   |Residual|: 3.788e-04   |deigs|: 1.361e-03  t[s]:     40.07
	FillingsUpdate:  mu: -0.077588640  nElectrons: 9.000000  magneticMoment: [ Abs: 0.80176  Tot: -0.80000 ]
SCF: Cycle: 17   F: -20.181549060327381   dF: -3.478e-06   |Residual|: 2.709e-04   |deigs|: 5.187e-04  t[s]:     42.13
	FillingsUpdate:  mu: -0.077521426  nElectrons: 9.000000  magneticMoment: [ Abs: 0.80148  Tot: -0.80000 ]
SCF: Cycle: 18   F: -20.181552107752548   dF: -3.047e-06   |Residual|: 2.258e-04   |deigs|: 2.499e-04  t[s]:     44.16
	FillingsUpdate:  mu: -0.078041380  nElectrons: 9.000000  magneticMoment: [ Abs: 0.80149  Tot: -0.80000 ]
SCF: Cycle: 19   F: -20.181552886834751   dF: -7.791e-07   |Residual|: 1.202e-04   |deigs|: 6.420e-04  t[s]:     46.18
	FillingsUpdate:  mu: -0.077879121  nElectrons: 9.000000  magneticMoment: [ Abs: 0.80127  Tot: -0.80000 ]
SCF: Cycle: 20   F: -20.181553491247602   dF: -6.044e-07   |Residual|: 6.585e-05   |deigs|: 1.647e-03  t[s]:     48.18
	FillingsUpdate:  mu: -0.077841904  nElectrons: 9.000000  magneticMoment: [ Abs: 0.80114  Tot: -0.80000 ]
SCF: Cycle: 21   F: -20.181553571248319   dF: -8.000e-08   |Residual|: 5.107e-05   |deigs|: 9.749e-04  t[s]:     50.25
	FillingsUpdate:  mu: -0.077874360  nElectrons: 9.000000  magneticMoment: [ Abs: 0.80096  Tot: -0.80000 ]
SCF: Cycle: 22   F: -20.181553753526231   dF: -1.823e-07   |Residual|: 3.922e-05   |deigs|: 2.642e-04  t[s]:     52.27
	FillingsUpdate:  mu: -0.077908520  nElectrons: 9.000000  magneticMoment: [ Abs: 0.80079  Tot: -0.80000 ]
SCF: Cycle: 23   F: -20.181553800269274   dF: -4.674e-08   |Residual|: 3.875e-05   |deigs|: 1.681e-04  t[s]:     54.35
	FillingsUpdate:  mu: -0.077854797  nElectrons: 9.000000  magneticMoment: [ Abs: 0.80062  Tot: -0.80000 ]
SCF: Cycle: 24   F: -20.181553862285941   dF: -6.202e-08   |Residual|: 3.341e-05   |deigs|: 9.233e-05  t[s]:     56.43
	FillingsUpdate:  mu: -0.077860250  nElectrons: 9.000000  magneticMoment: [ Abs: 0.80045  Tot: -0.80000 ]
SCF: Cycle: 25   F: -20.181553906303552   dF: -4.402e-08   |Residual|: 2.409e-05   |deigs|: 6.240e-04  t[s]:     58.53
	FillingsUpdate:  mu: -0.077884603  nElectrons: 9.000000  magneticMoment: [ Abs: 0.80042  Tot: -0.80000 ]
SCF: Cycle: 26   F: -20.181553931615611   dF: -2.531e-08   |Residual|: 1.684e-05   |deigs|: 2.232e-04  t[s]:     60.67
	FillingsUpdate:  mu: -0.077855097  nElectrons: 9.000000  magneticMoment: [ Abs: 0.80036  Tot: -0.80000 ]
SCF: Cycle: 27   F: -20.181553938653590   dF: -7.038e-09   |Residual|: 1.040e-05   |deigs|: 1.285e-04  t[s]:     62.66
	FillingsUpdate:  mu: -0.077838708  nElectrons: 9.000000  magneticMoment: [ Abs: 0.80034  Tot: -0.80000 ]
SCF: Cycle: 28   F: -20.181553946893999   dF: -8.240e-09   |Residual|: 5.145e-06   |deigs|: 1.244e-04  t[s]:     64.70
SCF: Converged (|Delta E|<1.000000e-08 for 2 iters).


# Ionic positions in lattice coordinates:
ion Cs   0.000000000000000   0.000000000000000   0.000000000000000 0

# Forces in Lattice coordinates:
force Cs   0.000000000000000   0.000000000000000   0.000000000000000 0

# Energy components:
   Eewald =      -18.0480261003326561
       EH =       -1.7542980769656620
     Eloc =       -5.8255149637419974
      Enl =        3.4371775867069942
   Epulay =        0.0000000264484078
      Exc =       -3.1527876888598305
       KE =        5.1618955982685826
-------------------------------------
     Etot =      -20.1815536184761619
       TS =        0.0000003284178367
-------------------------------------
        F =      -20.1815539468939988

IonicMinimize: Iter:   0  F: -20.181553946893999  |grad|_K:  0.000e+00  t[s]:     64.82
IonicMinimize: Converged (|grad|_K<1.000000e-04).

#--- Lowdin population analysis ---
# oxidation-state Cs +0.127
# magnetic-moments Cs -0.678

End date and time: Sun Feb  6 13:10:14 2022  (Duration: 0-0:01:04.85)
Done!
