
*************** JDFTx 1.6.0 (git hash 42ebbcc2) ***************

Start date and time: Sun Feb  6 13:16:19 2022
Executable jdftx with command-line: -i Alkali.in
Running on hosts (process indices):  d-3-4-3 (0-18)
Divided in process groups (process indices):  0 (0)  1 (1)  2 (2)  3 (3)  4 (4)  5 (5)  6 (6)  7 (7)  8 (8)  9 (9)  10 (10)  11 (11)  12 (12)  13 (13)  14 (14)  15 (15)  16 (16)  17 (17)  18 (18)
Resource initialization completed at t[s]:      0.00
Run totals: 19 processes, 48 threads, 0 GPUs


Input parsed successfully to the following command list (including defaults):

basis kpoint-dependent
coords-type Lattice
core-overlap-check vector
coulomb-interaction Slab 001
davidson-band-ratio 1.1
dump End None
dump-name $INPUT.$VAR
elec-cutoff 20
elec-eigen-algo Davidson
elec-ex-corr gga-PBE
elec-initial-magnetization -0.360000 yes
elec-smearing Fermi 1e-05
electronic-minimize  \
	dirUpdateScheme      FletcherReeves \
	linminMethod         DirUpdateRecommended \
	nIterations          100 \
	history              15 \
	knormThreshold       0 \
	energyDiffThreshold  1e-08 \
	nEnergyDiff          2 \
	alphaTstart          1 \
	alphaTmin            1e-10 \
	updateTestStepSize   yes \
	alphaTreduceFactor   0.1 \
	alphaTincreaseFactor 3 \
	nAlphaAdjustMax      3 \
	wolfeEnergy          0.0001 \
	wolfeGradient        0.9 \
	fdTest               no
electronic-scf  \
	nIterations	10000 \
	energyDiffThreshold	1e-08 \
	residualThreshold	1e-07 \
	mixFraction	0.5 \
	qMetric	0.8 \
	history	10 \
	nEigSteps	2 \
	eigDiffThreshold	1e-08 \
	mixedVariable	Density \
	qKerker	0.8 \
	qKappa	-1 \
	verbose	no \
	mixFractionMag	1.5
exchange-regularization WignerSeitzTruncated
fluid None
fluid-ex-corr (null) lda-PZ
fluid-gummel-loop 10 1.000000e-05
fluid-minimize  \
	dirUpdateScheme      PolakRibiere \
	linminMethod         DirUpdateRecommended \
	nIterations          100 \
	history              15 \
	knormThreshold       0 \
	energyDiffThreshold  0 \
	nEnergyDiff          2 \
	alphaTstart          1 \
	alphaTmin            1e-10 \
	updateTestStepSize   yes \
	alphaTreduceFactor   0.1 \
	alphaTincreaseFactor 3 \
	nAlphaAdjustMax      3 \
	wolfeEnergy          0.0001 \
	wolfeGradient        0.9 \
	fdTest               no
fluid-solvent H2O 55.338 ScalarEOS \
	epsBulk 78.4 \
	pMol 0.92466 \
	epsInf 1.77 \
	Pvap 1.06736e-10 \
	sigmaBulk 4.62e-05 \
	Rvdw 2.61727 \
	Res 1.42 \
	tauNuc 343133 \
	poleEl 15 7 1
forces-output-coords Positions
ion Cs   0.000000000000000   0.000000000000000   0.000000000000000 0
ion-species SG15/$ID_ONCV_PBE.upf
ion-width 0
ionic-minimize  \
	dirUpdateScheme      L-BFGS \
	linminMethod         DirUpdateRecommended \
	nIterations          0 \
	history              15 \
	knormThreshold       0.0001 \
	energyDiffThreshold  1e-06 \
	nEnergyDiff          2 \
	alphaTstart          1 \
	alphaTmin            1e-10 \
	updateTestStepSize   yes \
	alphaTreduceFactor   0.1 \
	alphaTincreaseFactor 3 \
	nAlphaAdjustMax      3 \
	wolfeEnergy          0.0001 \
	wolfeGradient        0.9 \
	fdTest               no
kpoint   0.000000000000   0.000000000000   0.000000000000  1.00000000000000
kpoint-folding 12 12 1 
latt-move-scale 1 1 1
latt-scale 2 2 1 
lattice  \
	   4.727486978767153   -2.363743489383575    0.000000000000000  \
	  -0.000000000000000    4.094123819672498    0.000000000000000  \
	   0.000000000000000    0.000000000000000   40.000000000000000 
lattice-minimize  \
	dirUpdateScheme      L-BFGS \
	linminMethod         DirUpdateRecommended \
	nIterations          0 \
	history              15 \
	knormThreshold       0 \
	energyDiffThreshold  1e-06 \
	nEnergyDiff          2 \
	alphaTstart          1 \
	alphaTmin            1e-10 \
	updateTestStepSize   yes \
	alphaTreduceFactor   0.1 \
	alphaTincreaseFactor 3 \
	nAlphaAdjustMax      3 \
	wolfeEnergy          0.0001 \
	wolfeGradient        0.9 \
	fdTest               no
lcao-params -1 1e-06 1e-05
pcm-variant GLSSA13
spintype z-spin
subspace-rotation-factor 1 yes
symmetries automatic
symmetry-threshold 0.0001



---------- Setting up symmetries ----------

Found 24 point-group symmetries of the bravais lattice
Found 24 space-group symmetries with basis
Applied RMS atom displacement 0 bohrs to make symmetries exact.

---------- Initializing the Grid ----------
R = 
[      9.45497     -4.72749            0  ]
[            0      8.18825            0  ]
[            0            0           40  ]
unit cell volume = 3096.79
G =
[   0.664538   0.383671         -0  ]
[          0   0.767342         -0  ]
[         -0         -0    0.15708  ]
Minimum fftbox size, Smin = [  40  40  164  ]
Chosen fftbox size, S = [  40  40  168  ]

---------- Exchange Correlation functional ----------
Initalized PBE GGA exchange.
Initalized PBE GGA correlation.

---------- Setting up pseudopotentials ----------
Width of ionic core gaussian charges (only for fluid interactions / plotting) set to 0

Reading pseudopotential file '/home/gridsan/aligho/DFT/build-Nov24/pseudopotentials/SG15/Cs_ONCV_PBE.upf':
  'Cs' pseudopotential, 'PBE' functional
  Generated using ONCVPSP code by D. R. Hamann
  Author: Martin Schlipf and Francois Gygi  Date: 150915.
  9 valence electrons, 3 orbitals, 6 projectors, 2414 radial grid points, with lMax = 2
  Transforming local potential to a uniform radial grid of dG=0.02 with 1489 points.
  Transforming nonlocal projectors to a uniform radial grid of dG=0.02 with 432 points.
    5S    l: 0   occupation:  2.0   eigenvalue: -0.982388
    5P    l: 1   occupation:  6.0   eigenvalue: -0.496786
    6S    l: 0   occupation:  1.0   eigenvalue: -0.076670
  Transforming atomic orbitals to a uniform radial grid of dG=0.02 with 432 points.
  Core radius for overlap checks: 2.06 bohrs.
  Reading pulay file /home/gridsan/aligho/DFT/build-Nov24/pseudopotentials/SG15/Cs_ONCV_PBE.pulay ... using dE_dnG = -1.008762e-04 computed for Ecut = 20.

Initialized 1 species with 1 total atoms.

Folded 1 k-points by 12x12x1 to 144 k-points.

---------- Setting up k-points, bands, fillings ----------
Reduced to 19 k-points under symmetry. 
Computing the number of bands and number of electrons
Calculating initial fillings.
nElectrons:   9.000000   nBands: 6   nStates: 38

----- Setting up reduced wavefunction bases (one per k-point) -----
average nbasis = 13230.521 , ideal nbasis = 13229.709

---------- Setting up coulomb interaction ----------
Initialized slab truncation along lattice direction 001

---------- Setting up 2D ewald sum ----------
Optimum gaussian width for ewald sums = 5.249020 bohr.
Real space sums over 289 unit cells with max indices [  8  8  0  ]
Reciprocal space sums over 81 terms with max indices [  4  4  0  ]

---------- Allocating electronic variables ----------
Initializing wave functions:  linear combination of atomic orbitals
Note: number of bands (6) exceeds available atomic orbitals (5)
Cs pseudo-atom occupations:   s ( 2 1 )  p ( 6 )
	FillingsUpdate:  mu: -0.088045695  nElectrons: 9.000000  magneticMoment: [ Abs: 0.36000  Tot: -0.36000 ]
LCAOMinimize: Iter:   0  F: -20.1793940904485183  |grad|_K:  3.631e-05  alpha:  1.000e+00
	FillingsUpdate:  mu: -0.088029374  nElectrons: 9.000000  magneticMoment: [ Abs: 0.36000  Tot: -0.36000 ]
LCAOMinimize: Iter:   1  F: -20.1793949719508348  |grad|_K:  3.580e-07  alpha:  9.777e-01  linmin: -4.448e-02  cgtest:  3.370e-01  t[s]:      4.58
LCAOMinimize: Encountered beta<0, resetting CG.
	FillingsUpdate:  mu: -0.088029483  nElectrons: 9.000000  magneticMoment: [ Abs: 0.36000  Tot: -0.36000 ]
LCAOMinimize: Iter:   2  F: -20.1793949720381285  |grad|_K:  8.798e-10  alpha:  1.001e+00  linmin:  1.905e-02  cgtest: -1.331e-01  t[s]:      5.81
LCAOMinimize: Converged (|Delta F|<1.000000e-06 for 2 iters).


---- Citations for features of the code used in this run ----

   Software package:
      R. Sundararaman, K. Letchworth-Weaver, K.A. Schwarz, D. Gunceler, Y. Ozhabes and T.A. Arias, 'JDFTx: software for joint density-functional theory', SoftwareX 6, 278 (2017)

   gga-PBE exchange-correlation functional:
      J.P. Perdew, K. Burke and M. Ernzerhof, Phys. Rev. Lett. 77, 3865 (1996)

   Pseudopotentials:
      M Schlipf and F Gygi, Comput. Phys. Commun. 196, 36 (2015)

   Truncated Coulomb potentials:
      R. Sundararaman and T.A. Arias, Phys. Rev. B 87, 165122 (2013)

This list may not be complete. Please suggest additional citations or
report any other bugs at https://github.com/shankar1729/jdftx/issues

Initialization completed successfully at t[s]:      5.90


-------- Electronic minimization -----------
Will mix electronic density at each iteration.
	FillingsUpdate:  mu: -0.088029483  nElectrons: 9.000000  magneticMoment: [ Abs: 0.36000  Tot: -0.36000 ]
	FillingsUpdate:  mu: -0.102337870  nElectrons: 9.000000  magneticMoment: [ Abs: 0.36000  Tot: -0.36000 ]
SCF: Cycle:  0   F: -20.185609642137464   dF: -6.215e-03   |Residual|: 1.334e-02   |deigs|: 1.880e-01  t[s]:      8.26
	FillingsUpdate:  mu: -0.102804934  nElectrons: 9.000000  magneticMoment: [ Abs: 0.36000  Tot: -0.36000 ]
SCF: Cycle:  1   F: -20.186199471240108   dF: -5.898e-04   |Residual|: 1.070e-02   |deigs|: 5.061e-03  t[s]:     10.03
	FillingsUpdate:  mu: -0.099883633  nElectrons: 9.000000  magneticMoment: [ Abs: 0.36906  Tot: -0.36000 ]
SCF: Cycle:  2   F: -20.186540743520933   dF: -3.413e-04   |Residual|: 5.146e-03   |deigs|: 2.722e-03  t[s]:     11.90
	FillingsUpdate:  mu: -0.098476467  nElectrons: 9.000000  magneticMoment: [ Abs: 0.36000  Tot: -0.36000 ]
SCF: Cycle:  3   F: -20.186690382017471   dF: -1.496e-04   |Residual|: 3.617e-03   |deigs|: 2.487e-03  t[s]:     13.74
	FillingsUpdate:  mu: -0.096040777  nElectrons: 9.000000  magneticMoment: [ Abs: 0.36103  Tot: -0.36000 ]
SCF: Cycle:  4   F: -20.186765507693394   dF: -7.513e-05   |Residual|: 2.677e-03   |deigs|: 3.150e-03  t[s]:     15.58
	FillingsUpdate:  mu: -0.093570160  nElectrons: 9.000000  magneticMoment: [ Abs: 0.36520  Tot: -0.36000 ]
SCF: Cycle:  5   F: -20.186806257234380   dF: -4.075e-05   |Residual|: 2.361e-03   |deigs|: 3.015e-03  t[s]:     17.47
	FillingsUpdate:  mu: -0.090997633  nElectrons: 9.000000  magneticMoment: [ Abs: 0.37177  Tot: -0.36000 ]
SCF: Cycle:  6   F: -20.186810856388764   dF: -4.599e-06   |Residual|: 1.629e-03   |deigs|: 3.144e-03  t[s]:     19.37
	FillingsUpdate:  mu: -0.088809282  nElectrons: 9.000000  magneticMoment: [ Abs: 0.36964  Tot: -0.36000 ]
SCF: Cycle:  7   F: -20.186835072285835   dF: -2.422e-05   |Residual|: 1.318e-03   |deigs|: 2.304e-03  t[s]:     21.31
	FillingsUpdate:  mu: -0.087547798  nElectrons: 9.000000  magneticMoment: [ Abs: 0.36313  Tot: -0.36000 ]
SCF: Cycle:  8   F: -20.186868913891541   dF: -3.384e-05   |Residual|: 1.098e-03   |deigs|: 1.600e-03  t[s]:     23.30
	FillingsUpdate:  mu: -0.086084966  nElectrons: 9.000000  magneticMoment: [ Abs: 0.36397  Tot: -0.36000 ]
SCF: Cycle:  9   F: -20.186857380248046   dF: +1.153e-05   |Residual|: 9.113e-04   |deigs|: 1.573e-03  t[s]:     25.35
	FillingsUpdate:  mu: -0.084054079  nElectrons: 9.000000  magneticMoment: [ Abs: 0.36633  Tot: -0.36000 ]
SCF: Cycle: 10   F: -20.186850746231176   dF: +6.634e-06   |Residual|: 8.192e-04   |deigs|: 2.155e-03  t[s]:     27.40
	FillingsUpdate:  mu: -0.082307449  nElectrons: 9.000000  magneticMoment: [ Abs: 0.36522  Tot: -0.36000 ]
SCF: Cycle: 11   F: -20.186867950478053   dF: -1.720e-05   |Residual|: 7.571e-04   |deigs|: 1.817e-03  t[s]:     29.43
	FillingsUpdate:  mu: -0.081057000  nElectrons: 9.000000  magneticMoment: [ Abs: 0.36505  Tot: -0.36000 ]
SCF: Cycle: 12   F: -20.186893874137606   dF: -2.592e-05   |Residual|: 6.934e-04   |deigs|: 1.207e-03  t[s]:     31.52
	FillingsUpdate:  mu: -0.079263820  nElectrons: 9.000000  magneticMoment: [ Abs: 0.36503  Tot: -0.36000 ]
SCF: Cycle: 13   F: -20.186906106144331   dF: -1.223e-05   |Residual|: 6.385e-04   |deigs|: 1.791e-03  t[s]:     33.48
	FillingsUpdate:  mu: -0.076997749  nElectrons: 9.000000  magneticMoment: [ Abs: 0.36192  Tot: -0.36000 ]
SCF: Cycle: 14   F: -20.186916014225158   dF: -9.908e-06   |Residual|: 5.066e-04   |deigs|: 2.371e-03  t[s]:     35.46
	FillingsUpdate:  mu: -0.076707615  nElectrons: 9.000000  magneticMoment: [ Abs: 0.36098  Tot: -0.36000 ]
SCF: Cycle: 15   F: -20.186920895723738   dF: -4.881e-06   |Residual|: 3.930e-04   |deigs|: 6.445e-04  t[s]:     37.44
	FillingsUpdate:  mu: -0.076244946  nElectrons: 9.000000  magneticMoment: [ Abs: 0.36013  Tot: -0.36000 ]
SCF: Cycle: 16   F: -20.186925284127533   dF: -4.388e-06   |Residual|: 2.585e-04   |deigs|: 1.197e-03  t[s]:     39.52
	FillingsUpdate:  mu: -0.075969243  nElectrons: 9.000000  magneticMoment: [ Abs: 0.36017  Tot: -0.36000 ]
SCF: Cycle: 17   F: -20.186926411034118   dF: -1.127e-06   |Residual|: 1.768e-04   |deigs|: 4.401e-04  t[s]:     41.54
	FillingsUpdate:  mu: -0.075889095  nElectrons: 9.000000  magneticMoment: [ Abs: 0.36036  Tot: -0.36000 ]
SCF: Cycle: 18   F: -20.186927228315330   dF: -8.173e-07   |Residual|: 1.023e-04   |deigs|: 2.263e-04  t[s]:     43.56
	FillingsUpdate:  mu: -0.075973276  nElectrons: 9.000000  magneticMoment: [ Abs: 0.36032  Tot: -0.36000 ]
SCF: Cycle: 19   F: -20.186927692606162   dF: -4.643e-07   |Residual|: 5.665e-05   |deigs|: 1.720e-04  t[s]:     45.62
	FillingsUpdate:  mu: -0.076013795  nElectrons: 9.000000  magneticMoment: [ Abs: 0.36024  Tot: -0.36000 ]
SCF: Cycle: 20   F: -20.186927747725168   dF: -5.512e-08   |Residual|: 4.068e-05   |deigs|: 1.140e-04  t[s]:     47.60
	FillingsUpdate:  mu: -0.076008225  nElectrons: 9.000000  magneticMoment: [ Abs: 0.36019  Tot: -0.36000 ]
SCF: Cycle: 21   F: -20.186927834787479   dF: -8.706e-08   |Residual|: 2.456e-05   |deigs|: 9.109e-05  t[s]:     49.65
	FillingsUpdate:  mu: -0.076001893  nElectrons: 9.000000  magneticMoment: [ Abs: 0.36017  Tot: -0.36000 ]
SCF: Cycle: 22   F: -20.186927871368557   dF: -3.658e-08   |Residual|: 1.481e-05   |deigs|: 1.831e-04  t[s]:     51.68
	FillingsUpdate:  mu: -0.076000716  nElectrons: 9.000000  magneticMoment: [ Abs: 0.36016  Tot: -0.36000 ]
SCF: Cycle: 23   F: -20.186927891776936   dF: -2.041e-08   |Residual|: 1.321e-05   |deigs|: 5.291e-04  t[s]:     53.70
	FillingsUpdate:  mu: -0.076004637  nElectrons: 9.000000  magneticMoment: [ Abs: 0.36016  Tot: -0.36000 ]
SCF: Cycle: 24   F: -20.186927902300528   dF: -1.052e-08   |Residual|: 1.239e-05   |deigs|: 3.519e-04  t[s]:     55.77
	FillingsUpdate:  mu: -0.076016170  nElectrons: 9.000000  magneticMoment: [ Abs: 0.36018  Tot: -0.36000 ]
SCF: Cycle: 25   F: -20.186927908632921   dF: -6.332e-09   |Residual|: 6.635e-06   |deigs|: 1.040e-04  t[s]:     57.80
	FillingsUpdate:  mu: -0.076019231  nElectrons: 9.000000  magneticMoment: [ Abs: 0.36018  Tot: -0.36000 ]
SCF: Cycle: 26   F: -20.186927911960073   dF: -3.327e-09   |Residual|: 4.256e-06   |deigs|: 5.562e-04  t[s]:     59.81
SCF: Converged (|Delta E|<1.000000e-08 for 2 iters).


# Ionic positions in lattice coordinates:
ion Cs   0.000000000000000   0.000000000000000   0.000000000000000 0

# Forces in Lattice coordinates:
force Cs   0.000000000000000  -0.000000000000000   0.000000000000000 0

# Energy components:
   Eewald =      -18.0480261003326561
       EH =       -1.8152799510153987
     Eloc =       -5.7674621319687862
      Enl =        3.4412815438940711
   Epulay =        0.0000000264484078
      Exc =       -3.1456320936618130
       KE =        5.1481917957879730
-------------------------------------
     Etot =      -20.1869269108482001
       TS =        0.0000010011118736
-------------------------------------
        F =      -20.1869279119600726

IonicMinimize: Iter:   0  F: -20.186927911960073  |grad|_K:  0.000e+00  t[s]:     59.92
IonicMinimize: Converged (|grad|_K<1.000000e-04).

#--- Lowdin population analysis ---
# oxidation-state Cs +0.066
# magnetic-moments Cs -0.310

End date and time: Sun Feb  6 13:17:19 2022  (Duration: 0-0:00:59.95)
Done!
