
*************** JDFTx 1.6.0 (git hash 42ebbcc2) ***************

Start date and time: Sun Feb  6 13:09:09 2022
Executable jdftx with command-line: -i Alkali.in
Running on hosts (process indices):  d-16-5-2 (0-18)
Divided in process groups (process indices):  0 (0)  1 (1)  2 (2)  3 (3)  4 (4)  5 (5)  6 (6)  7 (7)  8 (8)  9 (9)  10 (10)  11 (11)  12 (12)  13 (13)  14 (14)  15 (15)  16 (16)  17 (17)  18 (18)
Resource initialization completed at t[s]:      0.00
Run totals: 19 processes, 48 threads, 0 GPUs


Input parsed successfully to the following command list (including defaults):

basis kpoint-dependent
coords-type Lattice
core-overlap-check vector
coulomb-interaction Slab 001
davidson-band-ratio 1.1
dump End None
dump-name $INPUT.$VAR
elec-cutoff 20
elec-eigen-algo Davidson
elec-ex-corr gga-PBE
elec-initial-magnetization -0.680000 yes
elec-smearing Fermi 1e-05
electronic-minimize  \
	dirUpdateScheme      FletcherReeves \
	linminMethod         DirUpdateRecommended \
	nIterations          100 \
	history              15 \
	knormThreshold       0 \
	energyDiffThreshold  1e-08 \
	nEnergyDiff          2 \
	alphaTstart          1 \
	alphaTmin            1e-10 \
	updateTestStepSize   yes \
	alphaTreduceFactor   0.1 \
	alphaTincreaseFactor 3 \
	nAlphaAdjustMax      3 \
	wolfeEnergy          0.0001 \
	wolfeGradient        0.9 \
	fdTest               no
electronic-scf  \
	nIterations	10000 \
	energyDiffThreshold	1e-08 \
	residualThreshold	1e-07 \
	mixFraction	0.5 \
	qMetric	0.8 \
	history	10 \
	nEigSteps	2 \
	eigDiffThreshold	1e-08 \
	mixedVariable	Density \
	qKerker	0.8 \
	qKappa	-1 \
	verbose	no \
	mixFractionMag	1.5
exchange-regularization WignerSeitzTruncated
fluid None
fluid-ex-corr (null) lda-PZ
fluid-gummel-loop 10 1.000000e-05
fluid-minimize  \
	dirUpdateScheme      PolakRibiere \
	linminMethod         DirUpdateRecommended \
	nIterations          100 \
	history              15 \
	knormThreshold       0 \
	energyDiffThreshold  0 \
	nEnergyDiff          2 \
	alphaTstart          1 \
	alphaTmin            1e-10 \
	updateTestStepSize   yes \
	alphaTreduceFactor   0.1 \
	alphaTincreaseFactor 3 \
	nAlphaAdjustMax      3 \
	wolfeEnergy          0.0001 \
	wolfeGradient        0.9 \
	fdTest               no
fluid-solvent H2O 55.338 ScalarEOS \
	epsBulk 78.4 \
	pMol 0.92466 \
	epsInf 1.77 \
	Pvap 1.06736e-10 \
	sigmaBulk 4.62e-05 \
	Rvdw 2.61727 \
	Res 1.42 \
	tauNuc 343133 \
	poleEl 15 7 1
forces-output-coords Positions
ion Cs   0.000000000000000   0.000000000000000   0.000000000000000 0
ion-species SG15/$ID_ONCV_PBE.upf
ion-width 0
ionic-minimize  \
	dirUpdateScheme      L-BFGS \
	linminMethod         DirUpdateRecommended \
	nIterations          0 \
	history              15 \
	knormThreshold       0.0001 \
	energyDiffThreshold  1e-06 \
	nEnergyDiff          2 \
	alphaTstart          1 \
	alphaTmin            1e-10 \
	updateTestStepSize   yes \
	alphaTreduceFactor   0.1 \
	alphaTincreaseFactor 3 \
	nAlphaAdjustMax      3 \
	wolfeEnergy          0.0001 \
	wolfeGradient        0.9 \
	fdTest               no
kpoint   0.000000000000   0.000000000000   0.000000000000  1.00000000000000
kpoint-folding 12 12 1 
latt-move-scale 1 1 1
latt-scale 2 2 1 
lattice  \
	   4.727486978767153   -2.363743489383575    0.000000000000000  \
	  -0.000000000000000    4.094123819672498    0.000000000000000  \
	   0.000000000000000    0.000000000000000   40.000000000000000 
lattice-minimize  \
	dirUpdateScheme      L-BFGS \
	linminMethod         DirUpdateRecommended \
	nIterations          0 \
	history              15 \
	knormThreshold       0 \
	energyDiffThreshold  1e-06 \
	nEnergyDiff          2 \
	alphaTstart          1 \
	alphaTmin            1e-10 \
	updateTestStepSize   yes \
	alphaTreduceFactor   0.1 \
	alphaTincreaseFactor 3 \
	nAlphaAdjustMax      3 \
	wolfeEnergy          0.0001 \
	wolfeGradient        0.9 \
	fdTest               no
lcao-params -1 1e-06 1e-05
pcm-variant GLSSA13
spintype z-spin
subspace-rotation-factor 1 yes
symmetries automatic
symmetry-threshold 0.0001



---------- Setting up symmetries ----------

Found 24 point-group symmetries of the bravais lattice
Found 24 space-group symmetries with basis
Applied RMS atom displacement 0 bohrs to make symmetries exact.

---------- Initializing the Grid ----------
R = 
[      9.45497     -4.72749            0  ]
[            0      8.18825            0  ]
[            0            0           40  ]
unit cell volume = 3096.79
G =
[   0.664538   0.383671         -0  ]
[          0   0.767342         -0  ]
[         -0         -0    0.15708  ]
Minimum fftbox size, Smin = [  40  40  164  ]
Chosen fftbox size, S = [  40  40  168  ]

---------- Exchange Correlation functional ----------
Initalized PBE GGA exchange.
Initalized PBE GGA correlation.

---------- Setting up pseudopotentials ----------
Width of ionic core gaussian charges (only for fluid interactions / plotting) set to 0

Reading pseudopotential file '/home/gridsan/aligho/DFT/build-Nov24/pseudopotentials/SG15/Cs_ONCV_PBE.upf':
  'Cs' pseudopotential, 'PBE' functional
  Generated using ONCVPSP code by D. R. Hamann
  Author: Martin Schlipf and Francois Gygi  Date: 150915.
  9 valence electrons, 3 orbitals, 6 projectors, 2414 radial grid points, with lMax = 2
  Transforming local potential to a uniform radial grid of dG=0.02 with 1489 points.
  Transforming nonlocal projectors to a uniform radial grid of dG=0.02 with 432 points.
    5S    l: 0   occupation:  2.0   eigenvalue: -0.982388
    5P    l: 1   occupation:  6.0   eigenvalue: -0.496786
    6S    l: 0   occupation:  1.0   eigenvalue: -0.076670
  Transforming atomic orbitals to a uniform radial grid of dG=0.02 with 432 points.
  Core radius for overlap checks: 2.06 bohrs.
  Reading pulay file /home/gridsan/aligho/DFT/build-Nov24/pseudopotentials/SG15/Cs_ONCV_PBE.pulay ... using dE_dnG = -1.008762e-04 computed for Ecut = 20.

Initialized 1 species with 1 total atoms.

Folded 1 k-points by 12x12x1 to 144 k-points.

---------- Setting up k-points, bands, fillings ----------
Reduced to 19 k-points under symmetry. 
Computing the number of bands and number of electrons
Calculating initial fillings.
nElectrons:   9.000000   nBands: 6   nStates: 38

----- Setting up reduced wavefunction bases (one per k-point) -----
average nbasis = 13230.521 , ideal nbasis = 13229.709

---------- Setting up coulomb interaction ----------
Initialized slab truncation along lattice direction 001

---------- Setting up 2D ewald sum ----------
Optimum gaussian width for ewald sums = 5.249020 bohr.
Real space sums over 289 unit cells with max indices [  8  8  0  ]
Reciprocal space sums over 81 terms with max indices [  4  4  0  ]

---------- Allocating electronic variables ----------
Initializing wave functions:  linear combination of atomic orbitals
Note: number of bands (6) exceeds available atomic orbitals (5)
Cs pseudo-atom occupations:   s ( 2 1 )  p ( 6 )
	FillingsUpdate:  mu: -0.094061296  nElectrons: 9.000000  magneticMoment: [ Abs: 0.68000  Tot: -0.68000 ]
LCAOMinimize: Iter:   0  F: -20.1719079212981889  |grad|_K:  2.354e-05  alpha:  1.000e+00
	FillingsUpdate:  mu: -0.094051508  nElectrons: 9.000000  magneticMoment: [ Abs: 0.68000  Tot: -0.68000 ]
LCAOMinimize: Iter:   1  F: -20.1719082923816231  |grad|_K:  2.198e-07  alpha:  9.789e-01  linmin: -2.811e-02  cgtest:  2.411e-01  t[s]:      4.62
LCAOMinimize: Encountered beta<0, resetting CG.
	FillingsUpdate:  mu: -0.094051592  nElectrons: 9.000000  magneticMoment: [ Abs: 0.68000  Tot: -0.68000 ]
LCAOMinimize: Iter:   2  F: -20.1719082924148836  |grad|_K:  1.057e-09  alpha:  1.002e+00  linmin:  5.776e-02  cgtest: -3.861e-01  t[s]:      5.83
LCAOMinimize: Converged (|Delta F|<1.000000e-06 for 2 iters).


---- Citations for features of the code used in this run ----

   Software package:
      R. Sundararaman, K. Letchworth-Weaver, K.A. Schwarz, D. Gunceler, Y. Ozhabes and T.A. Arias, 'JDFTx: software for joint density-functional theory', SoftwareX 6, 278 (2017)

   gga-PBE exchange-correlation functional:
      J.P. Perdew, K. Burke and M. Ernzerhof, Phys. Rev. Lett. 77, 3865 (1996)

   Pseudopotentials:
      M Schlipf and F Gygi, Comput. Phys. Commun. 196, 36 (2015)

   Truncated Coulomb potentials:
      R. Sundararaman and T.A. Arias, Phys. Rev. B 87, 165122 (2013)

This list may not be complete. Please suggest additional citations or
report any other bugs at https://github.com/shankar1729/jdftx/issues

Initialization completed successfully at t[s]:      5.93


-------- Electronic minimization -----------
Will mix electronic density at each iteration.
	FillingsUpdate:  mu: -0.094051592  nElectrons: 9.000000  magneticMoment: [ Abs: 0.68000  Tot: -0.68000 ]
	FillingsUpdate:  mu: -0.107608531  nElectrons: 9.000000  magneticMoment: [ Abs: 0.68000  Tot: -0.68000 ]
SCF: Cycle:  0   F: -20.181841089952847   dF: -9.933e-03   |Residual|: 1.709e-02   |deigs|: 1.880e-01  t[s]:      8.36
	FillingsUpdate:  mu: -0.108236283  nElectrons: 9.000000  magneticMoment: [ Abs: 0.68000  Tot: -0.68000 ]
SCF: Cycle:  1   F: -20.182672976682571   dF: -8.319e-04   |Residual|: 1.288e-02   |deigs|: 6.169e-03  t[s]:     10.26
	FillingsUpdate:  mu: -0.105283770  nElectrons: 9.000000  magneticMoment: [ Abs: 0.68688  Tot: -0.68000 ]
SCF: Cycle:  2   F: -20.183079685161175   dF: -4.067e-04   |Residual|: 7.261e-03   |deigs|: 2.056e-03  t[s]:     12.17
	FillingsUpdate:  mu: -0.102375387  nElectrons: 9.000000  magneticMoment: [ Abs: 0.68000  Tot: -0.68000 ]
SCF: Cycle:  3   F: -20.183265843839912   dF: -1.862e-04   |Residual|: 4.453e-03   |deigs|: 3.264e-03  t[s]:     14.05
	FillingsUpdate:  mu: -0.099291596  nElectrons: 9.000000  magneticMoment: [ Abs: 0.68010  Tot: -0.68000 ]
SCF: Cycle:  4   F: -20.183353136852361   dF: -8.729e-05   |Residual|: 3.312e-03   |deigs|: 3.387e-03  t[s]:     15.94
	FillingsUpdate:  mu: -0.096342152  nElectrons: 9.000000  magneticMoment: [ Abs: 0.68354  Tot: -0.68000 ]
SCF: Cycle:  5   F: -20.183392673565134   dF: -3.954e-05   |Residual|: 2.763e-03   |deigs|: 3.728e-03  t[s]:     18.00
	FillingsUpdate:  mu: -0.093062731  nElectrons: 9.000000  magneticMoment: [ Abs: 0.69374  Tot: -0.68000 ]
SCF: Cycle:  6   F: -20.183391507508972   dF: +1.166e-06   |Residual|: 2.009e-03   |deigs|: 3.913e-03  t[s]:     19.98
	FillingsUpdate:  mu: -0.090364037  nElectrons: 9.000000  magneticMoment: [ Abs: 0.69320  Tot: -0.68000 ]
SCF: Cycle:  7   F: -20.183461002217371   dF: -6.949e-05   |Residual|: 1.707e-03   |deigs|: 3.151e-03  t[s]:     22.04
	FillingsUpdate:  mu: -0.090898914  nElectrons: 9.000000  magneticMoment: [ Abs: 0.68155  Tot: -0.68000 ]
SCF: Cycle:  8   F: -20.183486823470634   dF: -2.582e-05   |Residual|: 1.474e-03   |deigs|: 8.630e-04  t[s]:     24.17
	FillingsUpdate:  mu: -0.088416174  nElectrons: 9.000000  magneticMoment: [ Abs: 0.68381  Tot: -0.68000 ]
SCF: Cycle:  9   F: -20.183478081099537   dF: +8.742e-06   |Residual|: 1.134e-03   |deigs|: 2.600e-03  t[s]:     26.34
	FillingsUpdate:  mu: -0.086287252  nElectrons: 9.000000  magneticMoment: [ Abs: 0.68672  Tot: -0.68000 ]
SCF: Cycle: 10   F: -20.183478673809297   dF: -5.927e-07   |Residual|: 9.226e-04   |deigs|: 2.298e-03  t[s]:     28.43
	FillingsUpdate:  mu: -0.085646861  nElectrons: 9.000000  magneticMoment: [ Abs: 0.68616  Tot: -0.68000 ]
SCF: Cycle: 11   F: -20.183500175356635   dF: -2.150e-05   |Residual|: 8.748e-04   |deigs|: 9.864e-04  t[s]:     30.51
	FillingsUpdate:  mu: -0.083893036  nElectrons: 9.000000  magneticMoment: [ Abs: 0.68830  Tot: -0.68000 ]
SCF: Cycle: 12   F: -20.183520426309990   dF: -2.025e-05   |Residual|: 8.003e-04   |deigs|: 1.896e-03  t[s]:     32.65
	FillingsUpdate:  mu: -0.081383012  nElectrons: 9.000000  magneticMoment: [ Abs: 0.68832  Tot: -0.68000 ]
SCF: Cycle: 13   F: -20.183532647057859   dF: -1.222e-05   |Residual|: 7.176e-04   |deigs|: 2.638e-03  t[s]:     34.70
	FillingsUpdate:  mu: -0.079406080  nElectrons: 9.000000  magneticMoment: [ Abs: 0.68458  Tot: -0.68000 ]
SCF: Cycle: 14   F: -20.183541223877732   dF: -8.577e-06   |Residual|: 6.618e-04   |deigs|: 2.095e-03  t[s]:     36.76
	FillingsUpdate:  mu: -0.077969420  nElectrons: 9.000000  magneticMoment: [ Abs: 0.68153  Tot: -0.68000 ]
SCF: Cycle: 15   F: -20.183550299244537   dF: -9.075e-06   |Residual|: 4.747e-04   |deigs|: 1.567e-03  t[s]:     38.95
	FillingsUpdate:  mu: -0.077000978  nElectrons: 9.000000  magneticMoment: [ Abs: 0.68158  Tot: -0.68000 ]
SCF: Cycle: 16   F: -20.183555352595253   dF: -5.053e-06   |Residual|: 3.626e-04   |deigs|: 1.183e-03  t[s]:     41.04
	FillingsUpdate:  mu: -0.076654196  nElectrons: 9.000000  magneticMoment: [ Abs: 0.68116  Tot: -0.68000 ]
SCF: Cycle: 17   F: -20.183558145246465   dF: -2.793e-06   |Residual|: 2.592e-04   |deigs|: 4.549e-04  t[s]:     43.15
	FillingsUpdate:  mu: -0.076796653  nElectrons: 9.000000  magneticMoment: [ Abs: 0.68174  Tot: -0.68000 ]
SCF: Cycle: 18   F: -20.183559473003566   dF: -1.328e-06   |Residual|: 1.771e-04   |deigs|: 3.262e-04  t[s]:     45.24
	FillingsUpdate:  mu: -0.076839244  nElectrons: 9.000000  magneticMoment: [ Abs: 0.68097  Tot: -0.68000 ]
SCF: Cycle: 19   F: -20.183560861266077   dF: -1.388e-06   |Residual|: 8.507e-05   |deigs|: 3.044e-04  t[s]:     47.33
	FillingsUpdate:  mu: -0.077017705  nElectrons: 9.000000  magneticMoment: [ Abs: 0.68074  Tot: -0.68000 ]
SCF: Cycle: 20   F: -20.183561235962429   dF: -3.747e-07   |Residual|: 5.227e-05   |deigs|: 4.182e-04  t[s]:     49.48
	FillingsUpdate:  mu: -0.076948218  nElectrons: 9.000000  magneticMoment: [ Abs: 0.68073  Tot: -0.68000 ]
SCF: Cycle: 21   F: -20.183561357632350   dF: -1.217e-07   |Residual|: 3.517e-05   |deigs|: 3.713e-04  t[s]:     51.59
	FillingsUpdate:  mu: -0.076989271  nElectrons: 9.000000  magneticMoment: [ Abs: 0.68068  Tot: -0.68000 ]
SCF: Cycle: 22   F: -20.183561498440717   dF: -1.408e-07   |Residual|: 2.732e-05   |deigs|: 3.015e-04  t[s]:     53.67
	FillingsUpdate:  mu: -0.077031438  nElectrons: 9.000000  magneticMoment: [ Abs: 0.68061  Tot: -0.68000 ]
SCF: Cycle: 23   F: -20.183561522488997   dF: -2.405e-08   |Residual|: 2.201e-05   |deigs|: 2.530e-04  t[s]:     55.74
	FillingsUpdate:  mu: -0.077056191  nElectrons: 9.000000  magneticMoment: [ Abs: 0.68055  Tot: -0.68000 ]
SCF: Cycle: 24   F: -20.183561560350398   dF: -3.786e-08   |Residual|: 1.926e-05   |deigs|: 2.216e-04  t[s]:     57.81
	FillingsUpdate:  mu: -0.077027247  nElectrons: 9.000000  magneticMoment: [ Abs: 0.68048  Tot: -0.68000 ]
SCF: Cycle: 25   F: -20.183561591956931   dF: -3.161e-08   |Residual|: 1.917e-05   |deigs|: 2.063e-04  t[s]:     59.91
	FillingsUpdate:  mu: -0.076990945  nElectrons: 9.000000  magneticMoment: [ Abs: 0.68046  Tot: -0.68000 ]
SCF: Cycle: 26   F: -20.183561602776805   dF: -1.082e-08   |Residual|: 1.345e-05   |deigs|: 1.476e-04  t[s]:     62.01
	FillingsUpdate:  mu: -0.076987192  nElectrons: 9.000000  magneticMoment: [ Abs: 0.68038  Tot: -0.68000 ]
SCF: Cycle: 27   F: -20.183561612967377   dF: -1.019e-08   |Residual|: 7.517e-06   |deigs|: 1.183e-04  t[s]:     64.11
	FillingsUpdate:  mu: -0.076996213  nElectrons: 9.000000  magneticMoment: [ Abs: 0.68032  Tot: -0.68000 ]
SCF: Cycle: 28   F: -20.183561616450419   dF: -3.483e-09   |Residual|: 4.504e-06   |deigs|: 4.870e-04  t[s]:     66.25
	FillingsUpdate:  mu: -0.077003761  nElectrons: 9.000000  magneticMoment: [ Abs: 0.68029  Tot: -0.68000 ]
SCF: Cycle: 29   F: -20.183561618689168   dF: -2.239e-09   |Residual|: 2.423e-06   |deigs|: 4.128e-04  t[s]:     68.36
SCF: Converged (|Delta E|<1.000000e-08 for 2 iters).


# Ionic positions in lattice coordinates:
ion Cs   0.000000000000000   0.000000000000000   0.000000000000000 0

# Forces in Lattice coordinates:
force Cs  -0.000000000000000   0.000000000000000   0.000000000000000 0

# Energy components:
   Eewald =      -18.0480261003326561
       EH =       -1.7743930633510989
     Eloc =       -5.8062516600946648
      Enl =        3.4384798049468888
   Epulay =        0.0000000264484078
      Exc =       -3.1504290930838010
       KE =        5.1570592878851311
-------------------------------------
     Etot =      -20.1835607975817979
       TS =        0.0000008211073706
-------------------------------------
        F =      -20.1835616186891684

IonicMinimize: Iter:   0  F: -20.183561618689168  |grad|_K:  0.000e+00  t[s]:     68.53
IonicMinimize: Converged (|grad|_K<1.000000e-04).

#--- Lowdin population analysis ---
# oxidation-state Cs +0.106
# magnetic-moments Cs -0.581

End date and time: Sun Feb  6 13:10:17 2022  (Duration: 0-0:01:08.55)
Done!
