
*************** JDFTx 1.6.0 (git hash 42ebbcc2) ***************

Start date and time: Sun Feb  6 13:09:09 2022
Executable jdftx with command-line: -i Alkali.in
Running on hosts (process indices):  d-6-2-2 (0-18)
Divided in process groups (process indices):  0 (0)  1 (1)  2 (2)  3 (3)  4 (4)  5 (5)  6 (6)  7 (7)  8 (8)  9 (9)  10 (10)  11 (11)  12 (12)  13 (13)  14 (14)  15 (15)  16 (16)  17 (17)  18 (18)
Resource initialization completed at t[s]:      0.00
Run totals: 19 processes, 48 threads, 0 GPUs


Input parsed successfully to the following command list (including defaults):

basis kpoint-dependent
coords-type Lattice
core-overlap-check vector
coulomb-interaction Slab 001
davidson-band-ratio 1.1
dump End None
dump-name $INPUT.$VAR
elec-cutoff 20
elec-eigen-algo Davidson
elec-ex-corr gga-PBE
elec-initial-magnetization -0.780000 yes
elec-smearing Fermi 1e-05
electronic-minimize  \
	dirUpdateScheme      FletcherReeves \
	linminMethod         DirUpdateRecommended \
	nIterations          100 \
	history              15 \
	knormThreshold       0 \
	energyDiffThreshold  1e-08 \
	nEnergyDiff          2 \
	alphaTstart          1 \
	alphaTmin            1e-10 \
	updateTestStepSize   yes \
	alphaTreduceFactor   0.1 \
	alphaTincreaseFactor 3 \
	nAlphaAdjustMax      3 \
	wolfeEnergy          0.0001 \
	wolfeGradient        0.9 \
	fdTest               no
electronic-scf  \
	nIterations	10000 \
	energyDiffThreshold	1e-08 \
	residualThreshold	1e-07 \
	mixFraction	0.5 \
	qMetric	0.8 \
	history	10 \
	nEigSteps	2 \
	eigDiffThreshold	1e-08 \
	mixedVariable	Density \
	qKerker	0.8 \
	qKappa	-1 \
	verbose	no \
	mixFractionMag	1.5
exchange-regularization WignerSeitzTruncated
fluid None
fluid-ex-corr (null) lda-PZ
fluid-gummel-loop 10 1.000000e-05
fluid-minimize  \
	dirUpdateScheme      PolakRibiere \
	linminMethod         DirUpdateRecommended \
	nIterations          100 \
	history              15 \
	knormThreshold       0 \
	energyDiffThreshold  0 \
	nEnergyDiff          2 \
	alphaTstart          1 \
	alphaTmin            1e-10 \
	updateTestStepSize   yes \
	alphaTreduceFactor   0.1 \
	alphaTincreaseFactor 3 \
	nAlphaAdjustMax      3 \
	wolfeEnergy          0.0001 \
	wolfeGradient        0.9 \
	fdTest               no
fluid-solvent H2O 55.338 ScalarEOS \
	epsBulk 78.4 \
	pMol 0.92466 \
	epsInf 1.77 \
	Pvap 1.06736e-10 \
	sigmaBulk 4.62e-05 \
	Rvdw 2.61727 \
	Res 1.42 \
	tauNuc 343133 \
	poleEl 15 7 1
forces-output-coords Positions
ion Cs   0.000000000000000   0.000000000000000   0.000000000000000 0
ion-species SG15/$ID_ONCV_PBE.upf
ion-width 0
ionic-minimize  \
	dirUpdateScheme      L-BFGS \
	linminMethod         DirUpdateRecommended \
	nIterations          0 \
	history              15 \
	knormThreshold       0.0001 \
	energyDiffThreshold  1e-06 \
	nEnergyDiff          2 \
	alphaTstart          1 \
	alphaTmin            1e-10 \
	updateTestStepSize   yes \
	alphaTreduceFactor   0.1 \
	alphaTincreaseFactor 3 \
	nAlphaAdjustMax      3 \
	wolfeEnergy          0.0001 \
	wolfeGradient        0.9 \
	fdTest               no
kpoint   0.000000000000   0.000000000000   0.000000000000  1.00000000000000
kpoint-folding 12 12 1 
latt-move-scale 1 1 1
latt-scale 2 2 1 
lattice  \
	   4.727486978767153   -2.363743489383575    0.000000000000000  \
	  -0.000000000000000    4.094123819672498    0.000000000000000  \
	   0.000000000000000    0.000000000000000   40.000000000000000 
lattice-minimize  \
	dirUpdateScheme      L-BFGS \
	linminMethod         DirUpdateRecommended \
	nIterations          0 \
	history              15 \
	knormThreshold       0 \
	energyDiffThreshold  1e-06 \
	nEnergyDiff          2 \
	alphaTstart          1 \
	alphaTmin            1e-10 \
	updateTestStepSize   yes \
	alphaTreduceFactor   0.1 \
	alphaTincreaseFactor 3 \
	nAlphaAdjustMax      3 \
	wolfeEnergy          0.0001 \
	wolfeGradient        0.9 \
	fdTest               no
lcao-params -1 1e-06 1e-05
pcm-variant GLSSA13
spintype z-spin
subspace-rotation-factor 1 yes
symmetries automatic
symmetry-threshold 0.0001



---------- Setting up symmetries ----------

Found 24 point-group symmetries of the bravais lattice
Found 24 space-group symmetries with basis
Applied RMS atom displacement 0 bohrs to make symmetries exact.

---------- Initializing the Grid ----------
R = 
[      9.45497     -4.72749            0  ]
[            0      8.18825            0  ]
[            0            0           40  ]
unit cell volume = 3096.79
G =
[   0.664538   0.383671         -0  ]
[          0   0.767342         -0  ]
[         -0         -0    0.15708  ]
Minimum fftbox size, Smin = [  40  40  164  ]
Chosen fftbox size, S = [  40  40  168  ]

---------- Exchange Correlation functional ----------
Initalized PBE GGA exchange.
Initalized PBE GGA correlation.

---------- Setting up pseudopotentials ----------
Width of ionic core gaussian charges (only for fluid interactions / plotting) set to 0

Reading pseudopotential file '/home/gridsan/aligho/DFT/build-Nov24/pseudopotentials/SG15/Cs_ONCV_PBE.upf':
  'Cs' pseudopotential, 'PBE' functional
  Generated using ONCVPSP code by D. R. Hamann
  Author: Martin Schlipf and Francois Gygi  Date: 150915.
  9 valence electrons, 3 orbitals, 6 projectors, 2414 radial grid points, with lMax = 2
  Transforming local potential to a uniform radial grid of dG=0.02 with 1489 points.
  Transforming nonlocal projectors to a uniform radial grid of dG=0.02 with 432 points.
    5S    l: 0   occupation:  2.0   eigenvalue: -0.982388
    5P    l: 1   occupation:  6.0   eigenvalue: -0.496786
    6S    l: 0   occupation:  1.0   eigenvalue: -0.076670
  Transforming atomic orbitals to a uniform radial grid of dG=0.02 with 432 points.
  Core radius for overlap checks: 2.06 bohrs.
  Reading pulay file /home/gridsan/aligho/DFT/build-Nov24/pseudopotentials/SG15/Cs_ONCV_PBE.pulay ... using dE_dnG = -1.008762e-04 computed for Ecut = 20.

Initialized 1 species with 1 total atoms.

Folded 1 k-points by 12x12x1 to 144 k-points.

---------- Setting up k-points, bands, fillings ----------
Reduced to 19 k-points under symmetry. 
Computing the number of bands and number of electrons
Calculating initial fillings.
nElectrons:   9.000000   nBands: 6   nStates: 38

----- Setting up reduced wavefunction bases (one per k-point) -----
average nbasis = 13230.521 , ideal nbasis = 13229.709

---------- Setting up coulomb interaction ----------
Initialized slab truncation along lattice direction 001

---------- Setting up 2D ewald sum ----------
Optimum gaussian width for ewald sums = 5.249020 bohr.
Real space sums over 289 unit cells with max indices [  8  8  0  ]
Reciprocal space sums over 81 terms with max indices [  4  4  0  ]

---------- Allocating electronic variables ----------
Initializing wave functions:  linear combination of atomic orbitals
Note: number of bands (6) exceeds available atomic orbitals (5)
Cs pseudo-atom occupations:   s ( 2 1 )  p ( 6 )
	FillingsUpdate:  mu: -0.089384959  nElectrons: 9.000000  magneticMoment: [ Abs: 0.78000  Tot: -0.78000 ]
LCAOMinimize: Iter:   0  F: -20.1685864337778327  |grad|_K:  1.890e-05  alpha:  1.000e+00
	FillingsUpdate:  mu: -0.089377425  nElectrons: 9.000000  magneticMoment: [ Abs: 0.78000  Tot: -0.78000 ]
LCAOMinimize: Iter:   1  F: -20.1685866729920313  |grad|_K:  1.752e-07  alpha:  9.790e-01  linmin: -2.316e-02  cgtest:  2.212e-01  t[s]:      4.60
LCAOMinimize: Encountered beta<0, resetting CG.
	FillingsUpdate:  mu: -0.089377495  nElectrons: 9.000000  magneticMoment: [ Abs: 0.78000  Tot: -0.78000 ]
LCAOMinimize: Iter:   2  F: -20.1685866730126300  |grad|_K:  8.692e-10  alpha:  1.001e+00  linmin:  3.350e-02  cgtest: -2.279e-01  t[s]:      5.87
LCAOMinimize: Converged (|Delta F|<1.000000e-06 for 2 iters).


---- Citations for features of the code used in this run ----

   Software package:
      R. Sundararaman, K. Letchworth-Weaver, K.A. Schwarz, D. Gunceler, Y. Ozhabes and T.A. Arias, 'JDFTx: software for joint density-functional theory', SoftwareX 6, 278 (2017)

   gga-PBE exchange-correlation functional:
      J.P. Perdew, K. Burke and M. Ernzerhof, Phys. Rev. Lett. 77, 3865 (1996)

   Pseudopotentials:
      M Schlipf and F Gygi, Comput. Phys. Commun. 196, 36 (2015)

   Truncated Coulomb potentials:
      R. Sundararaman and T.A. Arias, Phys. Rev. B 87, 165122 (2013)

This list may not be complete. Please suggest additional citations or
report any other bugs at https://github.com/shankar1729/jdftx/issues

Initialization completed successfully at t[s]:      5.97


-------- Electronic minimization -----------
Will mix electronic density at each iteration.
	FillingsUpdate:  mu: -0.089377495  nElectrons: 9.000000  magneticMoment: [ Abs: 0.78000  Tot: -0.78000 ]
	FillingsUpdate:  mu: -0.108610137  nElectrons: 9.000000  magneticMoment: [ Abs: 0.78000  Tot: -0.78000 ]
SCF: Cycle:  0   F: -20.180010588062107   dF: -1.142e-02   |Residual|: 1.852e-02   |deigs|: 1.881e-01  t[s]:      8.34
	FillingsUpdate:  mu: -0.112961586  nElectrons: 9.000000  magneticMoment: [ Abs: 0.78000  Tot: -0.78000 ]
SCF: Cycle:  1   F: -20.180885946879027   dF: -8.754e-04   |Residual|: 1.391e-02   |deigs|: 7.207e-03  t[s]:     10.15
	FillingsUpdate:  mu: -0.109686859  nElectrons: 9.000000  magneticMoment: [ Abs: 0.78621  Tot: -0.78000 ]
SCF: Cycle:  2   F: -20.181388966696677   dF: -5.030e-04   |Residual|: 8.054e-03   |deigs|: 2.425e-03  t[s]:     12.00
	FillingsUpdate:  mu: -0.105539055  nElectrons: 9.000000  magneticMoment: [ Abs: 0.78002  Tot: -0.78000 ]
SCF: Cycle:  3   F: -20.181607519366480   dF: -2.186e-04   |Residual|: 4.795e-03   |deigs|: 3.726e-03  t[s]:     13.90
	FillingsUpdate:  mu: -0.101951451  nElectrons: 9.000000  magneticMoment: [ Abs: 0.78022  Tot: -0.78000 ]
SCF: Cycle:  4   F: -20.181702770664785   dF: -9.525e-05   |Residual|: 3.543e-03   |deigs|: 3.665e-03  t[s]:     15.81
	FillingsUpdate:  mu: -0.098664755  nElectrons: 9.000000  magneticMoment: [ Abs: 0.78277  Tot: -0.78000 ]
SCF: Cycle:  5   F: -20.181738748012656   dF: -3.598e-05   |Residual|: 2.973e-03   |deigs|: 3.988e-03  t[s]:     17.75
	FillingsUpdate:  mu: -0.095104917  nElectrons: 9.000000  magneticMoment: [ Abs: 0.79373  Tot: -0.78000 ]
SCF: Cycle:  6   F: -20.181751585761969   dF: -1.284e-05   |Residual|: 2.159e-03   |deigs|: 4.253e-03  t[s]:     19.68
	FillingsUpdate:  mu: -0.092020858  nElectrons: 9.000000  magneticMoment: [ Abs: 0.79278  Tot: -0.78000 ]
SCF: Cycle:  7   F: -20.181810555181524   dF: -5.897e-05   |Residual|: 1.805e-03   |deigs|: 3.314e-03  t[s]:     21.69
	FillingsUpdate:  mu: -0.092238694  nElectrons: 9.000000  magneticMoment: [ Abs: 0.78191  Tot: -0.78000 ]
SCF: Cycle:  8   F: -20.181839341589470   dF: -2.879e-05   |Residual|: 1.480e-03   |deigs|: 4.315e-04  t[s]:     23.76
	FillingsUpdate:  mu: -0.089588921  nElectrons: 9.000000  magneticMoment: [ Abs: 0.78343  Tot: -0.78000 ]
SCF: Cycle:  9   F: -20.181852304237079   dF: -1.296e-05   |Residual|: 1.160e-03   |deigs|: 2.696e-03  t[s]:     25.80
	FillingsUpdate:  mu: -0.087590901  nElectrons: 9.000000  magneticMoment: [ Abs: 0.78723  Tot: -0.78000 ]
SCF: Cycle: 10   F: -20.181858108925912   dF: -5.805e-06   |Residual|: 9.725e-04   |deigs|: 2.111e-03  t[s]:     27.84
	FillingsUpdate:  mu: -0.087173592  nElectrons: 9.000000  magneticMoment: [ Abs: 0.78707  Tot: -0.78000 ]
SCF: Cycle: 11   F: -20.181874792482812   dF: -1.668e-05   |Residual|: 8.609e-04   |deigs|: 9.333e-04  t[s]:     29.96
	FillingsUpdate:  mu: -0.085005509  nElectrons: 9.000000  magneticMoment: [ Abs: 0.78934  Tot: -0.78000 ]
SCF: Cycle: 12   F: -20.181897233497200   dF: -2.244e-05   |Residual|: 8.267e-04   |deigs|: 2.412e-03  t[s]:     32.09
	FillingsUpdate:  mu: -0.083012525  nElectrons: 9.000000  magneticMoment: [ Abs: 0.78761  Tot: -0.78000 ]
SCF: Cycle: 13   F: -20.181905837065468   dF: -8.604e-06   |Residual|: 7.411e-04   |deigs|: 2.060e-03  t[s]:     34.14
	FillingsUpdate:  mu: -0.081231960  nElectrons: 9.000000  magneticMoment: [ Abs: 0.78418  Tot: -0.78000 ]
SCF: Cycle: 14   F: -20.181914143882754   dF: -8.307e-06   |Residual|: 6.805e-04   |deigs|: 1.866e-03  t[s]:     36.15
	FillingsUpdate:  mu: -0.079465821  nElectrons: 9.000000  magneticMoment: [ Abs: 0.78273  Tot: -0.78000 ]
SCF: Cycle: 15   F: -20.181924038912907   dF: -9.895e-06   |Residual|: 5.034e-04   |deigs|: 1.930e-03  t[s]:     38.22
	FillingsUpdate:  mu: -0.078257230  nElectrons: 9.000000  magneticMoment: [ Abs: 0.78237  Tot: -0.78000 ]
SCF: Cycle: 16   F: -20.181930307737808   dF: -6.269e-06   |Residual|: 3.704e-04   |deigs|: 1.347e-03  t[s]:     40.26
	FillingsUpdate:  mu: -0.077824167  nElectrons: 9.000000  magneticMoment: [ Abs: 0.78158  Tot: -0.78000 ]
SCF: Cycle: 17   F: -20.181933850561801   dF: -3.543e-06   |Residual|: 2.654e-04   |deigs|: 4.821e-04  t[s]:     42.31
	FillingsUpdate:  mu: -0.077806837  nElectrons: 9.000000  magneticMoment: [ Abs: 0.78143  Tot: -0.78000 ]
SCF: Cycle: 18   F: -20.181936083665658   dF: -2.233e-06   |Residual|: 1.908e-04   |deigs|: 2.333e-04  t[s]:     44.35
	FillingsUpdate:  mu: -0.078066246  nElectrons: 9.000000  magneticMoment: [ Abs: 0.78126  Tot: -0.78000 ]
SCF: Cycle: 19   F: -20.181937266664892   dF: -1.183e-06   |Residual|: 8.715e-05   |deigs|: 3.803e-04  t[s]:     46.38
	FillingsUpdate:  mu: -0.078094844  nElectrons: 9.000000  magneticMoment: [ Abs: 0.78111  Tot: -0.78000 ]
SCF: Cycle: 20   F: -20.181937790507920   dF: -5.238e-07   |Residual|: 5.884e-05   |deigs|: 9.812e-04  t[s]:     48.46
	FillingsUpdate:  mu: -0.078060452  nElectrons: 9.000000  magneticMoment: [ Abs: 0.78108  Tot: -0.78000 ]
SCF: Cycle: 21   F: -20.181937978246612   dF: -1.877e-07   |Residual|: 4.879e-05   |deigs|: 8.821e-04  t[s]:     50.49
	FillingsUpdate:  mu: -0.078125099  nElectrons: 9.000000  magneticMoment: [ Abs: 0.78098  Tot: -0.78000 ]
SCF: Cycle: 22   F: -20.181938180022083   dF: -2.018e-07   |Residual|: 3.504e-05   |deigs|: 3.490e-04  t[s]:     52.52
	FillingsUpdate:  mu: -0.078138757  nElectrons: 9.000000  magneticMoment: [ Abs: 0.78080  Tot: -0.78000 ]
SCF: Cycle: 23   F: -20.181938247245736   dF: -6.722e-08   |Residual|: 3.615e-05   |deigs|: 2.524e-04  t[s]:     54.56
	FillingsUpdate:  mu: -0.078104423  nElectrons: 9.000000  magneticMoment: [ Abs: 0.78070  Tot: -0.78000 ]
SCF: Cycle: 24   F: -20.181938277026820   dF: -2.978e-08   |Residual|: 2.826e-05   |deigs|: 1.029e-03  t[s]:     56.59
	FillingsUpdate:  mu: -0.078076062  nElectrons: 9.000000  magneticMoment: [ Abs: 0.78045  Tot: -0.78000 ]
SCF: Cycle: 25   F: -20.181938331966318   dF: -5.494e-08   |Residual|: 2.111e-05   |deigs|: 5.698e-04  t[s]:     58.65
	FillingsUpdate:  mu: -0.078080423  nElectrons: 9.000000  magneticMoment: [ Abs: 0.78043  Tot: -0.78000 ]
SCF: Cycle: 26   F: -20.181938363124491   dF: -3.116e-08   |Residual|: 1.214e-05   |deigs|: 6.232e-05  t[s]:     60.71
	FillingsUpdate:  mu: -0.078084564  nElectrons: 9.000000  magneticMoment: [ Abs: 0.78039  Tot: -0.78000 ]
SCF: Cycle: 27   F: -20.181938372242346   dF: -9.118e-09   |Residual|: 8.917e-06   |deigs|: 1.051e-04  t[s]:     62.77
	FillingsUpdate:  mu: -0.078080225  nElectrons: 9.000000  magneticMoment: [ Abs: 0.78035  Tot: -0.78000 ]
SCF: Cycle: 28   F: -20.181938377788139   dF: -5.546e-09   |Residual|: 4.854e-06   |deigs|: 6.239e-04  t[s]:     64.91
SCF: Converged (|Delta E|<1.000000e-08 for 2 iters).


# Ionic positions in lattice coordinates:
ion Cs   0.000000000000000   0.000000000000000   0.000000000000000 0

# Forces in Lattice coordinates:
force Cs   0.000000000000000   0.000000000000000   0.000000000000000 0

# Energy components:
   Eewald =      -18.0480261003326561
       EH =       -1.7585516004265471
     Eloc =       -5.8214931309504836
      Enl =        3.4374632982979896
   Epulay =        0.0000000264484078
      Exc =       -3.1523475375186640
       KE =        5.1610172117487583
-------------------------------------
     Etot =      -20.1819378327331975
       TS =        0.0000005450549413
-------------------------------------
        F =      -20.1819383777881391

IonicMinimize: Iter:   0  F: -20.181938377788139  |grad|_K:  0.000e+00  t[s]:     65.03
IonicMinimize: Converged (|grad|_K<1.000000e-04).

#--- Lowdin population analysis ---
# oxidation-state Cs +0.123
# magnetic-moments Cs -0.662

End date and time: Sun Feb  6 13:10:14 2022  (Duration: 0-0:01:05.05)
Done!
