
*************** JDFTx 1.6.0 (git hash 42ebbcc2) ***************

Start date and time: Sun Feb  6 13:09:10 2022
Executable jdftx with command-line: -i Alkali.in
Running on hosts (process indices):  d-3-15-1 (0-18)
Divided in process groups (process indices):  0 (0)  1 (1)  2 (2)  3 (3)  4 (4)  5 (5)  6 (6)  7 (7)  8 (8)  9 (9)  10 (10)  11 (11)  12 (12)  13 (13)  14 (14)  15 (15)  16 (16)  17 (17)  18 (18)
Resource initialization completed at t[s]:      0.00
Run totals: 19 processes, 48 threads, 0 GPUs


Input parsed successfully to the following command list (including defaults):

basis kpoint-dependent
coords-type Lattice
core-overlap-check vector
coulomb-interaction Slab 001
davidson-band-ratio 1.1
dump End None
dump-name $INPUT.$VAR
elec-cutoff 20
elec-eigen-algo Davidson
elec-ex-corr gga-PBE
elec-initial-magnetization -0.940000 yes
elec-smearing Fermi 1e-05
electronic-minimize  \
	dirUpdateScheme      FletcherReeves \
	linminMethod         DirUpdateRecommended \
	nIterations          100 \
	history              15 \
	knormThreshold       0 \
	energyDiffThreshold  1e-08 \
	nEnergyDiff          2 \
	alphaTstart          1 \
	alphaTmin            1e-10 \
	updateTestStepSize   yes \
	alphaTreduceFactor   0.1 \
	alphaTincreaseFactor 3 \
	nAlphaAdjustMax      3 \
	wolfeEnergy          0.0001 \
	wolfeGradient        0.9 \
	fdTest               no
electronic-scf  \
	nIterations	10000 \
	energyDiffThreshold	1e-08 \
	residualThreshold	1e-07 \
	mixFraction	0.5 \
	qMetric	0.8 \
	history	10 \
	nEigSteps	2 \
	eigDiffThreshold	1e-08 \
	mixedVariable	Density \
	qKerker	0.8 \
	qKappa	-1 \
	verbose	no \
	mixFractionMag	1.5
exchange-regularization WignerSeitzTruncated
fluid None
fluid-ex-corr (null) lda-PZ
fluid-gummel-loop 10 1.000000e-05
fluid-minimize  \
	dirUpdateScheme      PolakRibiere \
	linminMethod         DirUpdateRecommended \
	nIterations          100 \
	history              15 \
	knormThreshold       0 \
	energyDiffThreshold  0 \
	nEnergyDiff          2 \
	alphaTstart          1 \
	alphaTmin            1e-10 \
	updateTestStepSize   yes \
	alphaTreduceFactor   0.1 \
	alphaTincreaseFactor 3 \
	nAlphaAdjustMax      3 \
	wolfeEnergy          0.0001 \
	wolfeGradient        0.9 \
	fdTest               no
fluid-solvent H2O 55.338 ScalarEOS \
	epsBulk 78.4 \
	pMol 0.92466 \
	epsInf 1.77 \
	Pvap 1.06736e-10 \
	sigmaBulk 4.62e-05 \
	Rvdw 2.61727 \
	Res 1.42 \
	tauNuc 343133 \
	poleEl 15 7 1
forces-output-coords Positions
ion Cs   0.000000000000000   0.000000000000000   0.000000000000000 0
ion-species SG15/$ID_ONCV_PBE.upf
ion-width 0
ionic-minimize  \
	dirUpdateScheme      L-BFGS \
	linminMethod         DirUpdateRecommended \
	nIterations          0 \
	history              15 \
	knormThreshold       0.0001 \
	energyDiffThreshold  1e-06 \
	nEnergyDiff          2 \
	alphaTstart          1 \
	alphaTmin            1e-10 \
	updateTestStepSize   yes \
	alphaTreduceFactor   0.1 \
	alphaTincreaseFactor 3 \
	nAlphaAdjustMax      3 \
	wolfeEnergy          0.0001 \
	wolfeGradient        0.9 \
	fdTest               no
kpoint   0.000000000000   0.000000000000   0.000000000000  1.00000000000000
kpoint-folding 12 12 1 
latt-move-scale 1 1 1
latt-scale 2 2 1 
lattice  \
	   4.727486978767153   -2.363743489383575    0.000000000000000  \
	  -0.000000000000000    4.094123819672498    0.000000000000000  \
	   0.000000000000000    0.000000000000000   40.000000000000000 
lattice-minimize  \
	dirUpdateScheme      L-BFGS \
	linminMethod         DirUpdateRecommended \
	nIterations          0 \
	history              15 \
	knormThreshold       0 \
	energyDiffThreshold  1e-06 \
	nEnergyDiff          2 \
	alphaTstart          1 \
	alphaTmin            1e-10 \
	updateTestStepSize   yes \
	alphaTreduceFactor   0.1 \
	alphaTincreaseFactor 3 \
	nAlphaAdjustMax      3 \
	wolfeEnergy          0.0001 \
	wolfeGradient        0.9 \
	fdTest               no
lcao-params -1 1e-06 1e-05
pcm-variant GLSSA13
spintype z-spin
subspace-rotation-factor 1 yes
symmetries automatic
symmetry-threshold 0.0001



---------- Setting up symmetries ----------

Found 24 point-group symmetries of the bravais lattice
Found 24 space-group symmetries with basis
Applied RMS atom displacement 0 bohrs to make symmetries exact.

---------- Initializing the Grid ----------
R = 
[      9.45497     -4.72749            0  ]
[            0      8.18825            0  ]
[            0            0           40  ]
unit cell volume = 3096.79
G =
[   0.664538   0.383671         -0  ]
[          0   0.767342         -0  ]
[         -0         -0    0.15708  ]
Minimum fftbox size, Smin = [  40  40  164  ]
Chosen fftbox size, S = [  40  40  168  ]

---------- Exchange Correlation functional ----------
Initalized PBE GGA exchange.
Initalized PBE GGA correlation.

---------- Setting up pseudopotentials ----------
Width of ionic core gaussian charges (only for fluid interactions / plotting) set to 0

Reading pseudopotential file '/home/gridsan/aligho/DFT/build-Nov24/pseudopotentials/SG15/Cs_ONCV_PBE.upf':
  'Cs' pseudopotential, 'PBE' functional
  Generated using ONCVPSP code by D. R. Hamann
  Author: Martin Schlipf and Francois Gygi  Date: 150915.
  9 valence electrons, 3 orbitals, 6 projectors, 2414 radial grid points, with lMax = 2
  Transforming local potential to a uniform radial grid of dG=0.02 with 1489 points.
  Transforming nonlocal projectors to a uniform radial grid of dG=0.02 with 432 points.
    5S    l: 0   occupation:  2.0   eigenvalue: -0.982388
    5P    l: 1   occupation:  6.0   eigenvalue: -0.496786
    6S    l: 0   occupation:  1.0   eigenvalue: -0.076670
  Transforming atomic orbitals to a uniform radial grid of dG=0.02 with 432 points.
  Core radius for overlap checks: 2.06 bohrs.
  Reading pulay file /home/gridsan/aligho/DFT/build-Nov24/pseudopotentials/SG15/Cs_ONCV_PBE.pulay ... using dE_dnG = -1.008762e-04 computed for Ecut = 20.

Initialized 1 species with 1 total atoms.

Folded 1 k-points by 12x12x1 to 144 k-points.

---------- Setting up k-points, bands, fillings ----------
Reduced to 19 k-points under symmetry. 
Computing the number of bands and number of electrons
Calculating initial fillings.
nElectrons:   9.000000   nBands: 6   nStates: 38

----- Setting up reduced wavefunction bases (one per k-point) -----
average nbasis = 13230.521 , ideal nbasis = 13229.709

---------- Setting up coulomb interaction ----------
Initialized slab truncation along lattice direction 001

---------- Setting up 2D ewald sum ----------
Optimum gaussian width for ewald sums = 5.249020 bohr.
Real space sums over 289 unit cells with max indices [  8  8  0  ]
Reciprocal space sums over 81 terms with max indices [  4  4  0  ]

---------- Allocating electronic variables ----------
Initializing wave functions:  linear combination of atomic orbitals
Note: number of bands (6) exceeds available atomic orbitals (5)
Cs pseudo-atom occupations:   s ( 2 1 )  p ( 6 )
	FillingsUpdate:  mu: -0.089081512  nElectrons: 9.000000  magneticMoment: [ Abs: 0.94000  Tot: -0.94000 ]
LCAOMinimize: Iter:   0  F: -20.1613552442646160  |grad|_K:  7.823e-06  alpha:  1.000e+00
	FillingsUpdate:  mu: -0.089079300  nElectrons: 9.000000  magneticMoment: [ Abs: 0.94000  Tot: -0.94000 ]
LCAOMinimize: Iter:   1  F: -20.1613552852479430  |grad|_K:  6.846e-08  alpha:  9.791e-01  linmin: -1.213e-02  cgtest:  1.491e-01  t[s]:      4.80
LCAOMinimize: Encountered beta<0, resetting CG.
	FillingsUpdate:  mu: -0.089079332  nElectrons: 9.000000  magneticMoment: [ Abs: 0.94000  Tot: -0.94000 ]
LCAOMinimize: Iter:   2  F: -20.1613552852515063  |grad|_K:  2.551e-09  alpha:  1.036e+00  linmin:  7.155e-02  cgtest: -9.853e-01  t[s]:      5.99
LCAOMinimize: Converged (|Delta F|<1.000000e-06 for 2 iters).


---- Citations for features of the code used in this run ----

   Software package:
      R. Sundararaman, K. Letchworth-Weaver, K.A. Schwarz, D. Gunceler, Y. Ozhabes and T.A. Arias, 'JDFTx: software for joint density-functional theory', SoftwareX 6, 278 (2017)

   gga-PBE exchange-correlation functional:
      J.P. Perdew, K. Burke and M. Ernzerhof, Phys. Rev. Lett. 77, 3865 (1996)

   Pseudopotentials:
      M Schlipf and F Gygi, Comput. Phys. Commun. 196, 36 (2015)

   Truncated Coulomb potentials:
      R. Sundararaman and T.A. Arias, Phys. Rev. B 87, 165122 (2013)

This list may not be complete. Please suggest additional citations or
report any other bugs at https://github.com/shankar1729/jdftx/issues

Initialization completed successfully at t[s]:      6.09


-------- Electronic minimization -----------
Will mix electronic density at each iteration.
	FillingsUpdate:  mu: -0.089079332  nElectrons: 9.000000  magneticMoment: [ Abs: 0.94000  Tot: -0.94000 ]
	FillingsUpdate:  mu: -0.110072625  nElectrons: 9.000000  magneticMoment: [ Abs: 0.94000  Tot: -0.94000 ]
SCF: Cycle:  0   F: -20.175483054514686   dF: -1.413e-02   |Residual|: 2.113e-02   |deigs|: 1.892e-01  t[s]:      8.64
	FillingsUpdate:  mu: -0.113211331  nElectrons: 9.000000  magneticMoment: [ Abs: 0.94000  Tot: -0.94000 ]
SCF: Cycle:  1   F: -20.176915977725923   dF: -1.433e-03   |Residual|: 1.503e-02   |deigs|: 6.548e-03  t[s]:     10.45
	FillingsUpdate:  mu: -0.110949888  nElectrons: 9.000000  magneticMoment: [ Abs: 0.94681  Tot: -0.94000 ]
SCF: Cycle:  2   F: -20.177692352608105   dF: -7.764e-04   |Residual|: 7.693e-03   |deigs|: 1.954e-03  t[s]:     12.24
	FillingsUpdate:  mu: -0.109051213  nElectrons: 9.000000  magneticMoment: [ Abs: 0.94000  Tot: -0.94000 ]
SCF: Cycle:  3   F: -20.178016429993963   dF: -3.241e-04   |Residual|: 4.270e-03   |deigs|: 2.398e-03  t[s]:     14.16
	FillingsUpdate:  mu: -0.105317604  nElectrons: 9.000000  magneticMoment: [ Abs: 0.94005  Tot: -0.94000 ]
SCF: Cycle:  4   F: -20.178136015575241   dF: -1.196e-04   |Residual|: 2.794e-03   |deigs|: 2.955e-03  t[s]:     16.04
	FillingsUpdate:  mu: -0.103528867  nElectrons: 9.000000  magneticMoment: [ Abs: 0.94012  Tot: -0.94000 ]
SCF: Cycle:  5   F: -20.178183016293520   dF: -4.700e-05   |Residual|: 2.412e-03   |deigs|: 2.116e-03  t[s]:     17.97
	FillingsUpdate:  mu: -0.101247317  nElectrons: 9.000000  magneticMoment: [ Abs: 0.94098  Tot: -0.94000 ]
SCF: Cycle:  6   F: -20.178132652716521   dF: +5.036e-05   |Residual|: 2.253e-03   |deigs|: 2.825e-03  t[s]:     19.91
	FillingsUpdate:  mu: -0.101130040  nElectrons: 9.000000  magneticMoment: [ Abs: 0.94095  Tot: -0.94000 ]
SCF: Cycle:  7   F: -20.178140449928389   dF: -7.797e-06   |Residual|: 2.264e-03   |deigs|: 9.380e-04  t[s]:     21.83
	FillingsUpdate:  mu: -0.102449569  nElectrons: 9.000000  magneticMoment: [ Abs: 0.94436  Tot: -0.94000 ]
SCF: Cycle:  8   F: -20.178132126705776   dF: +8.323e-06   |Residual|: 3.461e-03   |deigs|: 1.886e-03  t[s]:     23.81
	FillingsUpdate:  mu: -0.099324378  nElectrons: 9.000000  magneticMoment: [ Abs: 0.94085  Tot: -0.94000 ]
SCF: Cycle:  9   F: -20.178146683357053   dF: -1.456e-05   |Residual|: 1.695e-03   |deigs|: 3.741e-03  t[s]:     25.84
	FillingsUpdate:  mu: -0.097198792  nElectrons: 9.000000  magneticMoment: [ Abs: 0.94054  Tot: -0.94000 ]
SCF: Cycle: 10   F: -20.178145801352599   dF: +8.820e-07   |Residual|: 1.570e-03   |deigs|: 2.874e-03  t[s]:     27.94
	FillingsUpdate:  mu: -0.095452641  nElectrons: 9.000000  magneticMoment: [ Abs: 0.94274  Tot: -0.94000 ]
SCF: Cycle: 11   F: -20.178252401530472   dF: -1.066e-04   |Residual|: 1.220e-03   |deigs|: 1.785e-03  t[s]:     29.97
	FillingsUpdate:  mu: -0.098235903  nElectrons: 9.000000  magneticMoment: [ Abs: 0.94313  Tot: -0.94000 ]
SCF: Cycle: 12   F: -20.178280646866249   dF: -2.825e-05   |Residual|: 1.646e-03   |deigs|: 2.784e-03  t[s]:     32.03
	FillingsUpdate:  mu: -0.097097652  nElectrons: 9.000000  magneticMoment: [ Abs: 0.94188  Tot: -0.94000 ]
SCF: Cycle: 13   F: -20.178288011506822   dF: -7.365e-06   |Residual|: 1.202e-03   |deigs|: 1.269e-03  t[s]:     34.13
	FillingsUpdate:  mu: -0.095962225  nElectrons: 9.000000  magneticMoment: [ Abs: 0.94286  Tot: -0.94000 ]
SCF: Cycle: 14   F: -20.178288238774947   dF: -2.273e-07   |Residual|: 1.217e-03   |deigs|: 1.299e-03  t[s]:     36.22
	FillingsUpdate:  mu: -0.095035208  nElectrons: 9.000000  magneticMoment: [ Abs: 0.94252  Tot: -0.94000 ]
SCF: Cycle: 15   F: -20.178291526830410   dF: -3.288e-06   |Residual|: 1.207e-03   |deigs|: 1.191e-03  t[s]:     38.24
	FillingsUpdate:  mu: -0.093879327  nElectrons: 9.000000  magneticMoment: [ Abs: 0.94344  Tot: -0.94000 ]
SCF: Cycle: 16   F: -20.178298291924531   dF: -6.765e-06   |Residual|: 8.794e-04   |deigs|: 1.410e-03  t[s]:     40.26
	FillingsUpdate:  mu: -0.091541690  nElectrons: 9.000000  magneticMoment: [ Abs: 0.94459  Tot: -0.94000 ]
SCF: Cycle: 17   F: -20.178311253814829   dF: -1.296e-05   |Residual|: 4.413e-04   |deigs|: 3.029e-03  t[s]:     42.25
	FillingsUpdate:  mu: -0.090644324  nElectrons: 9.000000  magneticMoment: [ Abs: 0.94288  Tot: -0.94000 ]
SCF: Cycle: 18   F: -20.178313888133594   dF: -2.634e-06   |Residual|: 3.738e-04   |deigs|: 1.017e-03  t[s]:     44.21
	FillingsUpdate:  mu: -0.089872429  nElectrons: 9.000000  magneticMoment: [ Abs: 0.94263  Tot: -0.94000 ]
SCF: Cycle: 19   F: -20.178316452253650   dF: -2.564e-06   |Residual|: 2.930e-04   |deigs|: 9.721e-04  t[s]:     46.20
	FillingsUpdate:  mu: -0.089133581  nElectrons: 9.000000  magneticMoment: [ Abs: 0.94211  Tot: -0.94000 ]
SCF: Cycle: 20   F: -20.178319543014418   dF: -3.091e-06   |Residual|: 1.975e-04   |deigs|: 9.276e-04  t[s]:     48.19
	FillingsUpdate:  mu: -0.089313182  nElectrons: 9.000000  magneticMoment: [ Abs: 0.94186  Tot: -0.94000 ]
SCF: Cycle: 21   F: -20.178320448892485   dF: -9.059e-07   |Residual|: 1.316e-04   |deigs|: 2.944e-04  t[s]:     50.17
	FillingsUpdate:  mu: -0.089387589  nElectrons: 9.000000  magneticMoment: [ Abs: 0.94120  Tot: -0.94000 ]
SCF: Cycle: 22   F: -20.178321503326334   dF: -1.054e-06   |Residual|: 1.120e-04   |deigs|: 1.877e-04  t[s]:     52.26
	FillingsUpdate:  mu: -0.089604767  nElectrons: 9.000000  magneticMoment: [ Abs: 0.94098  Tot: -0.94000 ]
SCF: Cycle: 23   F: -20.178322084006542   dF: -5.807e-07   |Residual|: 7.831e-05   |deigs|: 2.076e-04  t[s]:     54.35
	FillingsUpdate:  mu: -0.089646201  nElectrons: 9.000000  magneticMoment: [ Abs: 0.94086  Tot: -0.94000 ]
SCF: Cycle: 24   F: -20.178322283383295   dF: -1.994e-07   |Residual|: 4.690e-05   |deigs|: 9.212e-05  t[s]:     56.35
	FillingsUpdate:  mu: -0.089702744  nElectrons: 9.000000  magneticMoment: [ Abs: 0.94077  Tot: -0.94000 ]
SCF: Cycle: 25   F: -20.178322487284799   dF: -2.039e-07   |Residual|: 4.082e-05   |deigs|: 1.066e-04  t[s]:     58.39
	FillingsUpdate:  mu: -0.089812135  nElectrons: 9.000000  magneticMoment: [ Abs: 0.94062  Tot: -0.94000 ]
SCF: Cycle: 26   F: -20.178322570598141   dF: -8.331e-08   |Residual|: 3.744e-05   |deigs|: 1.354e-04  t[s]:     60.44
	FillingsUpdate:  mu: -0.089846423  nElectrons: 9.000000  magneticMoment: [ Abs: 0.94039  Tot: -0.94000 ]
SCF: Cycle: 27   F: -20.178322605049448   dF: -3.445e-08   |Residual|: 3.738e-05   |deigs|: 7.408e-05  t[s]:     62.45
	FillingsUpdate:  mu: -0.089825435  nElectrons: 9.000000  magneticMoment: [ Abs: 0.94019  Tot: -0.94000 ]
SCF: Cycle: 28   F: -20.178322626171266   dF: -2.112e-08   |Residual|: 2.971e-05   |deigs|: 3.781e-04  t[s]:     64.57
	FillingsUpdate:  mu: -0.089753075  nElectrons: 9.000000  magneticMoment: [ Abs: 0.94015  Tot: -0.94000 ]
SCF: Cycle: 29   F: -20.178322649463087   dF: -2.329e-08   |Residual|: 1.661e-05   |deigs|: 4.450e-04  t[s]:     66.58
	FillingsUpdate:  mu: -0.089725826  nElectrons: 9.000000  magneticMoment: [ Abs: 0.94015  Tot: -0.94000 ]
SCF: Cycle: 30   F: -20.178322661405232   dF: -1.194e-08   |Residual|: 1.318e-05   |deigs|: 2.794e-04  t[s]:     68.62
	FillingsUpdate:  mu: -0.089737530  nElectrons: 9.000000  magneticMoment: [ Abs: 0.94015  Tot: -0.94000 ]
SCF: Cycle: 31   F: -20.178322679574922   dF: -1.817e-08   |Residual|: 8.006e-06   |deigs|: 7.383e-05  t[s]:     70.68
	FillingsUpdate:  mu: -0.089747889  nElectrons: 9.000000  magneticMoment: [ Abs: 0.94015  Tot: -0.94000 ]
SCF: Cycle: 32   F: -20.178322685614802   dF: -6.040e-09   |Residual|: 4.115e-06   |deigs|: 6.408e-05  t[s]:     72.74
	FillingsUpdate:  mu: -0.089746898  nElectrons: 9.000000  magneticMoment: [ Abs: 0.94015  Tot: -0.94000 ]
SCF: Cycle: 33   F: -20.178322688926706   dF: -3.312e-09   |Residual|: 2.565e-06   |deigs|: 1.083e-04  t[s]:     74.73
SCF: Converged (|Delta E|<1.000000e-08 for 2 iters).


# Ionic positions in lattice coordinates:
ion Cs   0.000000000000000   0.000000000000000   0.000000000000000 0

# Forces in Lattice coordinates:
force Cs  -0.000000000000000   0.000000000000000   0.000000000000000 0

# Energy components:
   Eewald =      -18.0480261003326561
       EH =       -1.8342989498878481
     Eloc =       -5.7431988636415934
      Enl =        3.4351632816997038
   Epulay =        0.0000000264484078
      Exc =       -3.1516881485542783
       KE =        5.1637266382144329
-------------------------------------
     Etot =      -20.1783221160538275
       TS =        0.0000005728728787
-------------------------------------
        F =      -20.1783226889267056

IonicMinimize: Iter:   0  F: -20.178322688926706  |grad|_K:  0.000e+00  t[s]:     74.85
IonicMinimize: Converged (|grad|_K<1.000000e-04).

#--- Lowdin population analysis ---
# oxidation-state Cs +0.200
# magnetic-moments Cs -0.743

End date and time: Sun Feb  6 13:10:25 2022  (Duration: 0-0:01:14.87)
Done!
