
*************** JDFTx 1.6.0 (git hash 42ebbcc2) ***************

Start date and time: Sun Feb  6 13:09:10 2022
Executable jdftx with command-line: -i Alkali.in
Running on hosts (process indices):  d-17-1-1 (0-18)
Divided in process groups (process indices):  0 (0)  1 (1)  2 (2)  3 (3)  4 (4)  5 (5)  6 (6)  7 (7)  8 (8)  9 (9)  10 (10)  11 (11)  12 (12)  13 (13)  14 (14)  15 (15)  16 (16)  17 (17)  18 (18)
Resource initialization completed at t[s]:      0.00
Run totals: 19 processes, 48 threads, 0 GPUs


Input parsed successfully to the following command list (including defaults):

basis kpoint-dependent
coords-type Lattice
core-overlap-check vector
coulomb-interaction Slab 001
davidson-band-ratio 1.1
dump End None
dump-name $INPUT.$VAR
elec-cutoff 20
elec-eigen-algo Davidson
elec-ex-corr gga-PBE
elec-initial-magnetization -0.580000 yes
elec-smearing Fermi 1e-05
electronic-minimize  \
	dirUpdateScheme      FletcherReeves \
	linminMethod         DirUpdateRecommended \
	nIterations          100 \
	history              15 \
	knormThreshold       0 \
	energyDiffThreshold  1e-08 \
	nEnergyDiff          2 \
	alphaTstart          1 \
	alphaTmin            1e-10 \
	updateTestStepSize   yes \
	alphaTreduceFactor   0.1 \
	alphaTincreaseFactor 3 \
	nAlphaAdjustMax      3 \
	wolfeEnergy          0.0001 \
	wolfeGradient        0.9 \
	fdTest               no
electronic-scf  \
	nIterations	10000 \
	energyDiffThreshold	1e-08 \
	residualThreshold	1e-07 \
	mixFraction	0.5 \
	qMetric	0.8 \
	history	10 \
	nEigSteps	2 \
	eigDiffThreshold	1e-08 \
	mixedVariable	Density \
	qKerker	0.8 \
	qKappa	-1 \
	verbose	no \
	mixFractionMag	1.5
exchange-regularization WignerSeitzTruncated
fluid None
fluid-ex-corr (null) lda-PZ
fluid-gummel-loop 10 1.000000e-05
fluid-minimize  \
	dirUpdateScheme      PolakRibiere \
	linminMethod         DirUpdateRecommended \
	nIterations          100 \
	history              15 \
	knormThreshold       0 \
	energyDiffThreshold  0 \
	nEnergyDiff          2 \
	alphaTstart          1 \
	alphaTmin            1e-10 \
	updateTestStepSize   yes \
	alphaTreduceFactor   0.1 \
	alphaTincreaseFactor 3 \
	nAlphaAdjustMax      3 \
	wolfeEnergy          0.0001 \
	wolfeGradient        0.9 \
	fdTest               no
fluid-solvent H2O 55.338 ScalarEOS \
	epsBulk 78.4 \
	pMol 0.92466 \
	epsInf 1.77 \
	Pvap 1.06736e-10 \
	sigmaBulk 4.62e-05 \
	Rvdw 2.61727 \
	Res 1.42 \
	tauNuc 343133 \
	poleEl 15 7 1
forces-output-coords Positions
ion Cs   0.000000000000000   0.000000000000000   0.000000000000000 0
ion-species SG15/$ID_ONCV_PBE.upf
ion-width 0
ionic-minimize  \
	dirUpdateScheme      L-BFGS \
	linminMethod         DirUpdateRecommended \
	nIterations          0 \
	history              15 \
	knormThreshold       0.0001 \
	energyDiffThreshold  1e-06 \
	nEnergyDiff          2 \
	alphaTstart          1 \
	alphaTmin            1e-10 \
	updateTestStepSize   yes \
	alphaTreduceFactor   0.1 \
	alphaTincreaseFactor 3 \
	nAlphaAdjustMax      3 \
	wolfeEnergy          0.0001 \
	wolfeGradient        0.9 \
	fdTest               no
kpoint   0.000000000000   0.000000000000   0.000000000000  1.00000000000000
kpoint-folding 12 12 1 
latt-move-scale 1 1 1
latt-scale 2 2 1 
lattice  \
	   4.727486978767153   -2.363743489383575    0.000000000000000  \
	  -0.000000000000000    4.094123819672498    0.000000000000000  \
	   0.000000000000000    0.000000000000000   40.000000000000000 
lattice-minimize  \
	dirUpdateScheme      L-BFGS \
	linminMethod         DirUpdateRecommended \
	nIterations          0 \
	history              15 \
	knormThreshold       0 \
	energyDiffThreshold  1e-06 \
	nEnergyDiff          2 \
	alphaTstart          1 \
	alphaTmin            1e-10 \
	updateTestStepSize   yes \
	alphaTreduceFactor   0.1 \
	alphaTincreaseFactor 3 \
	nAlphaAdjustMax      3 \
	wolfeEnergy          0.0001 \
	wolfeGradient        0.9 \
	fdTest               no
lcao-params -1 1e-06 1e-05
pcm-variant GLSSA13
spintype z-spin
subspace-rotation-factor 1 yes
symmetries automatic
symmetry-threshold 0.0001



---------- Setting up symmetries ----------

Found 24 point-group symmetries of the bravais lattice
Found 24 space-group symmetries with basis
Applied RMS atom displacement 0 bohrs to make symmetries exact.

---------- Initializing the Grid ----------
R = 
[      9.45497     -4.72749            0  ]
[            0      8.18825            0  ]
[            0            0           40  ]
unit cell volume = 3096.79
G =
[   0.664538   0.383671         -0  ]
[          0   0.767342         -0  ]
[         -0         -0    0.15708  ]
Minimum fftbox size, Smin = [  40  40  164  ]
Chosen fftbox size, S = [  40  40  168  ]

---------- Exchange Correlation functional ----------
Initalized PBE GGA exchange.
Initalized PBE GGA correlation.

---------- Setting up pseudopotentials ----------
Width of ionic core gaussian charges (only for fluid interactions / plotting) set to 0

Reading pseudopotential file '/home/gridsan/aligho/DFT/build-Nov24/pseudopotentials/SG15/Cs_ONCV_PBE.upf':
  'Cs' pseudopotential, 'PBE' functional
  Generated using ONCVPSP code by D. R. Hamann
  Author: Martin Schlipf and Francois Gygi  Date: 150915.
  9 valence electrons, 3 orbitals, 6 projectors, 2414 radial grid points, with lMax = 2
  Transforming local potential to a uniform radial grid of dG=0.02 with 1489 points.
  Transforming nonlocal projectors to a uniform radial grid of dG=0.02 with 432 points.
    5S    l: 0   occupation:  2.0   eigenvalue: -0.982388
    5P    l: 1   occupation:  6.0   eigenvalue: -0.496786
    6S    l: 0   occupation:  1.0   eigenvalue: -0.076670
  Transforming atomic orbitals to a uniform radial grid of dG=0.02 with 432 points.
  Core radius for overlap checks: 2.06 bohrs.
  Reading pulay file /home/gridsan/aligho/DFT/build-Nov24/pseudopotentials/SG15/Cs_ONCV_PBE.pulay ... using dE_dnG = -1.008762e-04 computed for Ecut = 20.

Initialized 1 species with 1 total atoms.

Folded 1 k-points by 12x12x1 to 144 k-points.

---------- Setting up k-points, bands, fillings ----------
Reduced to 19 k-points under symmetry. 
Computing the number of bands and number of electrons
Calculating initial fillings.
nElectrons:   9.000000   nBands: 6   nStates: 38

----- Setting up reduced wavefunction bases (one per k-point) -----
average nbasis = 13230.521 , ideal nbasis = 13229.709

---------- Setting up coulomb interaction ----------
Initialized slab truncation along lattice direction 001

---------- Setting up 2D ewald sum ----------
Optimum gaussian width for ewald sums = 5.249020 bohr.
Real space sums over 289 unit cells with max indices [  8  8  0  ]
Reciprocal space sums over 81 terms with max indices [  4  4  0  ]

---------- Allocating electronic variables ----------
Initializing wave functions:  linear combination of atomic orbitals
Note: number of bands (6) exceeds available atomic orbitals (5)
Cs pseudo-atom occupations:   s ( 2 1 )  p ( 6 )
	FillingsUpdate:  mu: -0.094155898  nElectrons: 9.000000  magneticMoment: [ Abs: 0.58000  Tot: -0.58000 ]
LCAOMinimize: Iter:   0  F: -20.1745737821633604  |grad|_K:  2.765e-05  alpha:  1.000e+00
	FillingsUpdate:  mu: -0.094144016  nElectrons: 9.000000  magneticMoment: [ Abs: 0.58000  Tot: -0.58000 ]
LCAOMinimize: Iter:   1  F: -20.1745742936806423  |grad|_K:  2.615e-07  alpha:  9.786e-01  linmin: -3.216e-02  cgtest:  2.698e-01  t[s]:      4.55
LCAOMinimize: Encountered beta<0, resetting CG.
	FillingsUpdate:  mu: -0.094144111  nElectrons: 9.000000  magneticMoment: [ Abs: 0.58000  Tot: -0.58000 ]
LCAOMinimize: Iter:   2  F: -20.1745742937280390  |grad|_K:  1.925e-09  alpha:  1.007e+00  linmin:  1.115e-01  cgtest: -8.514e-01  t[s]:      5.69
LCAOMinimize: Converged (|Delta F|<1.000000e-06 for 2 iters).


---- Citations for features of the code used in this run ----

   Software package:
      R. Sundararaman, K. Letchworth-Weaver, K.A. Schwarz, D. Gunceler, Y. Ozhabes and T.A. Arias, 'JDFTx: software for joint density-functional theory', SoftwareX 6, 278 (2017)

   gga-PBE exchange-correlation functional:
      J.P. Perdew, K. Burke and M. Ernzerhof, Phys. Rev. Lett. 77, 3865 (1996)

   Pseudopotentials:
      M Schlipf and F Gygi, Comput. Phys. Commun. 196, 36 (2015)

   Truncated Coulomb potentials:
      R. Sundararaman and T.A. Arias, Phys. Rev. B 87, 165122 (2013)

This list may not be complete. Please suggest additional citations or
report any other bugs at https://github.com/shankar1729/jdftx/issues

Initialization completed successfully at t[s]:      5.78


-------- Electronic minimization -----------
Will mix electronic density at each iteration.
	FillingsUpdate:  mu: -0.094144111  nElectrons: 9.000000  magneticMoment: [ Abs: 0.58000  Tot: -0.58000 ]
	FillingsUpdate:  mu: -0.108344447  nElectrons: 9.000000  magneticMoment: [ Abs: 0.58000  Tot: -0.58000 ]
SCF: Cycle:  0   F: -20.183277139494827   dF: -8.703e-03   |Residual|: 1.602e-02   |deigs|: 1.880e-01  t[s]:      8.12
	FillingsUpdate:  mu: -0.108416702  nElectrons: 9.000000  magneticMoment: [ Abs: 0.58000  Tot: -0.58000 ]
SCF: Cycle:  1   F: -20.184075260134122   dF: -7.981e-04   |Residual|: 1.222e-02   |deigs|: 5.680e-03  t[s]:      9.89
	FillingsUpdate:  mu: -0.105550939  nElectrons: 9.000000  magneticMoment: [ Abs: 0.58770  Tot: -0.58000 ]
SCF: Cycle:  2   F: -20.184451517566647   dF: -3.763e-04   |Residual|: 6.594e-03   |deigs|: 2.232e-03  t[s]:     11.65
	FillingsUpdate:  mu: -0.103333607  nElectrons: 9.000000  magneticMoment: [ Abs: 0.58000  Tot: -0.58000 ]
SCF: Cycle:  3   F: -20.184627843798761   dF: -1.763e-04   |Residual|: 4.232e-03   |deigs|: 3.030e-03  t[s]:     13.43
	FillingsUpdate:  mu: -0.100577522  nElectrons: 9.000000  magneticMoment: [ Abs: 0.58004  Tot: -0.58000 ]
SCF: Cycle:  4   F: -20.184710813821926   dF: -8.297e-05   |Residual|: 3.136e-03   |deigs|: 3.271e-03  t[s]:     15.32
	FillingsUpdate:  mu: -0.097828328  nElectrons: 9.000000  magneticMoment: [ Abs: 0.58455  Tot: -0.58000 ]
SCF: Cycle:  5   F: -20.184753157205261   dF: -4.234e-05   |Residual|: 2.655e-03   |deigs|: 3.531e-03  t[s]:     17.18
	FillingsUpdate:  mu: -0.094762794  nElectrons: 9.000000  magneticMoment: [ Abs: 0.59418  Tot: -0.58000 ]
SCF: Cycle:  6   F: -20.184749610394178   dF: +3.547e-06   |Residual|: 1.884e-03   |deigs|: 3.674e-03  t[s]:     19.07
	FillingsUpdate:  mu: -0.092043070  nElectrons: 9.000000  magneticMoment: [ Abs: 0.59342  Tot: -0.58000 ]
SCF: Cycle:  7   F: -20.184805835818210   dF: -5.623e-05   |Residual|: 1.600e-03   |deigs|: 3.029e-03  t[s]:     20.96
	FillingsUpdate:  mu: -0.092245255  nElectrons: 9.000000  magneticMoment: [ Abs: 0.58237  Tot: -0.58000 ]
SCF: Cycle:  8   F: -20.184835887150324   dF: -3.005e-05   |Residual|: 1.392e-03   |deigs|: 5.944e-04  t[s]:     22.88
	FillingsUpdate:  mu: -0.090094721  nElectrons: 9.000000  magneticMoment: [ Abs: 0.58446  Tot: -0.58000 ]
SCF: Cycle:  9   F: -20.184824750935043   dF: +1.114e-05   |Residual|: 1.108e-03   |deigs|: 2.206e-03  t[s]:     24.84
	FillingsUpdate:  mu: -0.088029603  nElectrons: 9.000000  magneticMoment: [ Abs: 0.58682  Tot: -0.58000 ]
SCF: Cycle: 10   F: -20.184822002204939   dF: +2.749e-06   |Residual|: 8.988e-04   |deigs|: 2.200e-03  t[s]:     26.80
	FillingsUpdate:  mu: -0.087004637  nElectrons: 9.000000  magneticMoment: [ Abs: 0.58613  Tot: -0.58000 ]
SCF: Cycle: 11   F: -20.184840789845349   dF: -1.879e-05   |Residual|: 8.438e-04   |deigs|: 1.208e-03  t[s]:     28.76
	FillingsUpdate:  mu: -0.085438482  nElectrons: 9.000000  magneticMoment: [ Abs: 0.58760  Tot: -0.58000 ]
SCF: Cycle: 12   F: -20.184863393001415   dF: -2.260e-05   |Residual|: 7.937e-04   |deigs|: 1.645e-03  t[s]:     30.75
	FillingsUpdate:  mu: -0.083028779  nElectrons: 9.000000  magneticMoment: [ Abs: 0.58768  Tot: -0.58000 ]
SCF: Cycle: 13   F: -20.184876200960190   dF: -1.281e-05   |Residual|: 7.037e-04   |deigs|: 2.500e-03  t[s]:     32.75
	FillingsUpdate:  mu: -0.080925148  nElectrons: 9.000000  magneticMoment: [ Abs: 0.58409  Tot: -0.58000 ]
SCF: Cycle: 14   F: -20.184886035810667   dF: -9.835e-06   |Residual|: 6.246e-04   |deigs|: 2.193e-03  t[s]:     34.69
	FillingsUpdate:  mu: -0.079628537  nElectrons: 9.000000  magneticMoment: [ Abs: 0.58106  Tot: -0.58000 ]
SCF: Cycle: 15   F: -20.184894503002585   dF: -8.467e-06   |Residual|: 4.481e-04   |deigs|: 1.379e-03  t[s]:     36.63
	FillingsUpdate:  mu: -0.078681708  nElectrons: 9.000000  magneticMoment: [ Abs: 0.58136  Tot: -0.58000 ]
SCF: Cycle: 16   F: -20.184899011750424   dF: -4.509e-06   |Residual|: 3.308e-04   |deigs|: 1.064e-03  t[s]:     38.56
	FillingsUpdate:  mu: -0.078387891  nElectrons: 9.000000  magneticMoment: [ Abs: 0.58055  Tot: -0.58000 ]
SCF: Cycle: 17   F: -20.184901130496577   dF: -2.119e-06   |Residual|: 2.219e-04   |deigs|: 7.964e-04  t[s]:     40.51
	FillingsUpdate:  mu: -0.078403527  nElectrons: 9.000000  magneticMoment: [ Abs: 0.58119  Tot: -0.58000 ]
SCF: Cycle: 18   F: -20.184902799526448   dF: -1.669e-06   |Residual|: 1.680e-04   |deigs|: 4.672e-04  t[s]:     42.45
	FillingsUpdate:  mu: -0.078726339  nElectrons: 9.000000  magneticMoment: [ Abs: 0.58088  Tot: -0.58000 ]
SCF: Cycle: 19   F: -20.184903448281595   dF: -6.488e-07   |Residual|: 7.578e-05   |deigs|: 5.199e-04  t[s]:     44.38
	FillingsUpdate:  mu: -0.078676439  nElectrons: 9.000000  magneticMoment: [ Abs: 0.58045  Tot: -0.58000 ]
SCF: Cycle: 20   F: -20.184903637501691   dF: -1.892e-07   |Residual|: 4.362e-05   |deigs|: 6.774e-04  t[s]:     46.33
	FillingsUpdate:  mu: -0.078666314  nElectrons: 9.000000  magneticMoment: [ Abs: 0.58045  Tot: -0.58000 ]
SCF: Cycle: 21   F: -20.184903763706430   dF: -1.262e-07   |Residual|: 3.079e-05   |deigs|: 5.828e-04  t[s]:     48.31
	FillingsUpdate:  mu: -0.078713575  nElectrons: 9.000000  magneticMoment: [ Abs: 0.58047  Tot: -0.58000 ]
SCF: Cycle: 22   F: -20.184903828113434   dF: -6.441e-08   |Residual|: 2.506e-05   |deigs|: 1.894e-04  t[s]:     50.27
	FillingsUpdate:  mu: -0.078755377  nElectrons: 9.000000  magneticMoment: [ Abs: 0.58046  Tot: -0.58000 ]
SCF: Cycle: 23   F: -20.184903866307415   dF: -3.819e-08   |Residual|: 1.876e-05   |deigs|: 1.550e-04  t[s]:     52.27
	FillingsUpdate:  mu: -0.078759372  nElectrons: 9.000000  magneticMoment: [ Abs: 0.58046  Tot: -0.58000 ]
SCF: Cycle: 24   F: -20.184903874619863   dF: -8.312e-09   |Residual|: 1.375e-05   |deigs|: 8.636e-04  t[s]:     54.24
	FillingsUpdate:  mu: -0.078753830  nElectrons: 9.000000  magneticMoment: [ Abs: 0.58042  Tot: -0.58000 ]
SCF: Cycle: 25   F: -20.184903880106834   dF: -5.487e-09   |Residual|: 1.072e-05   |deigs|: 7.628e-04  t[s]:     56.25
SCF: Converged (|Delta E|<1.000000e-08 for 2 iters).


# Ionic positions in lattice coordinates:
ion Cs   0.000000000000000   0.000000000000000   0.000000000000000 0

# Forces in Lattice coordinates:
force Cs   0.000000000000000  -0.000000000000000   0.000000000000000 0

# Energy components:
   Eewald =      -18.0480261003326561
       EH =       -1.7847090028751955
     Eloc =       -5.7961315994632070
      Enl =        3.4391419476760916
   Epulay =        0.0000000264484078
      Exc =       -3.1488594960321419
       KE =        5.1536810824120254
-------------------------------------
     Etot =      -20.1849031421666787
       TS =        0.0000007379401535
-------------------------------------
        F =      -20.1849038801068339

IonicMinimize: Iter:   0  F: -20.184903880106834  |grad|_K:  0.000e+00  t[s]:     56.36
IonicMinimize: Converged (|grad|_K<1.000000e-04).

#--- Lowdin population analysis ---
# oxidation-state Cs +0.094
# magnetic-moments Cs -0.494

End date and time: Sun Feb  6 13:10:07 2022  (Duration: 0-0:00:56.39)
Done!
