
*************** JDFTx 1.6.0 (git hash 42ebbcc2) ***************

Start date and time: Sun Feb  6 13:16:19 2022
Executable jdftx with command-line: -i Alkali.in
Running on hosts (process indices):  d-6-13-4 (0-18)
Divided in process groups (process indices):  0 (0)  1 (1)  2 (2)  3 (3)  4 (4)  5 (5)  6 (6)  7 (7)  8 (8)  9 (9)  10 (10)  11 (11)  12 (12)  13 (13)  14 (14)  15 (15)  16 (16)  17 (17)  18 (18)
Resource initialization completed at t[s]:      0.00
Run totals: 19 processes, 48 threads, 0 GPUs


Input parsed successfully to the following command list (including defaults):

basis kpoint-dependent
coords-type Lattice
core-overlap-check vector
coulomb-interaction Slab 001
davidson-band-ratio 1.1
dump End None
dump-name $INPUT.$VAR
elec-cutoff 20
elec-eigen-algo Davidson
elec-ex-corr gga-PBE
elec-initial-magnetization -0.160000 yes
elec-smearing Fermi 1e-05
electronic-minimize  \
	dirUpdateScheme      FletcherReeves \
	linminMethod         DirUpdateRecommended \
	nIterations          100 \
	history              15 \
	knormThreshold       0 \
	energyDiffThreshold  1e-08 \
	nEnergyDiff          2 \
	alphaTstart          1 \
	alphaTmin            1e-10 \
	updateTestStepSize   yes \
	alphaTreduceFactor   0.1 \
	alphaTincreaseFactor 3 \
	nAlphaAdjustMax      3 \
	wolfeEnergy          0.0001 \
	wolfeGradient        0.9 \
	fdTest               no
electronic-scf  \
	nIterations	10000 \
	energyDiffThreshold	1e-08 \
	residualThreshold	1e-07 \
	mixFraction	0.5 \
	qMetric	0.8 \
	history	10 \
	nEigSteps	2 \
	eigDiffThreshold	1e-08 \
	mixedVariable	Density \
	qKerker	0.8 \
	qKappa	-1 \
	verbose	no \
	mixFractionMag	1.5
exchange-regularization WignerSeitzTruncated
fluid None
fluid-ex-corr (null) lda-PZ
fluid-gummel-loop 10 1.000000e-05
fluid-minimize  \
	dirUpdateScheme      PolakRibiere \
	linminMethod         DirUpdateRecommended \
	nIterations          100 \
	history              15 \
	knormThreshold       0 \
	energyDiffThreshold  0 \
	nEnergyDiff          2 \
	alphaTstart          1 \
	alphaTmin            1e-10 \
	updateTestStepSize   yes \
	alphaTreduceFactor   0.1 \
	alphaTincreaseFactor 3 \
	nAlphaAdjustMax      3 \
	wolfeEnergy          0.0001 \
	wolfeGradient        0.9 \
	fdTest               no
fluid-solvent H2O 55.338 ScalarEOS \
	epsBulk 78.4 \
	pMol 0.92466 \
	epsInf 1.77 \
	Pvap 1.06736e-10 \
	sigmaBulk 4.62e-05 \
	Rvdw 2.61727 \
	Res 1.42 \
	tauNuc 343133 \
	poleEl 15 7 1
forces-output-coords Positions
ion Cs   0.000000000000000   0.000000000000000   0.000000000000000 0
ion-species SG15/$ID_ONCV_PBE.upf
ion-width 0
ionic-minimize  \
	dirUpdateScheme      L-BFGS \
	linminMethod         DirUpdateRecommended \
	nIterations          0 \
	history              15 \
	knormThreshold       0.0001 \
	energyDiffThreshold  1e-06 \
	nEnergyDiff          2 \
	alphaTstart          1 \
	alphaTmin            1e-10 \
	updateTestStepSize   yes \
	alphaTreduceFactor   0.1 \
	alphaTincreaseFactor 3 \
	nAlphaAdjustMax      3 \
	wolfeEnergy          0.0001 \
	wolfeGradient        0.9 \
	fdTest               no
kpoint   0.000000000000   0.000000000000   0.000000000000  1.00000000000000
kpoint-folding 12 12 1 
latt-move-scale 1 1 1
latt-scale 2 2 1 
lattice  \
	   4.727486978767153   -2.363743489383575    0.000000000000000  \
	  -0.000000000000000    4.094123819672498    0.000000000000000  \
	   0.000000000000000    0.000000000000000   40.000000000000000 
lattice-minimize  \
	dirUpdateScheme      L-BFGS \
	linminMethod         DirUpdateRecommended \
	nIterations          0 \
	history              15 \
	knormThreshold       0 \
	energyDiffThreshold  1e-06 \
	nEnergyDiff          2 \
	alphaTstart          1 \
	alphaTmin            1e-10 \
	updateTestStepSize   yes \
	alphaTreduceFactor   0.1 \
	alphaTincreaseFactor 3 \
	nAlphaAdjustMax      3 \
	wolfeEnergy          0.0001 \
	wolfeGradient        0.9 \
	fdTest               no
lcao-params -1 1e-06 1e-05
pcm-variant GLSSA13
spintype z-spin
subspace-rotation-factor 1 yes
symmetries automatic
symmetry-threshold 0.0001



---------- Setting up symmetries ----------

Found 24 point-group symmetries of the bravais lattice
Found 24 space-group symmetries with basis
Applied RMS atom displacement 0 bohrs to make symmetries exact.

---------- Initializing the Grid ----------
R = 
[      9.45497     -4.72749            0  ]
[            0      8.18825            0  ]
[            0            0           40  ]
unit cell volume = 3096.79
G =
[   0.664538   0.383671         -0  ]
[          0   0.767342         -0  ]
[         -0         -0    0.15708  ]
Minimum fftbox size, Smin = [  40  40  164  ]
Chosen fftbox size, S = [  40  40  168  ]

---------- Exchange Correlation functional ----------
Initalized PBE GGA exchange.
Initalized PBE GGA correlation.

---------- Setting up pseudopotentials ----------
Width of ionic core gaussian charges (only for fluid interactions / plotting) set to 0

Reading pseudopotential file '/home/gridsan/aligho/DFT/build-Nov24/pseudopotentials/SG15/Cs_ONCV_PBE.upf':
  'Cs' pseudopotential, 'PBE' functional
  Generated using ONCVPSP code by D. R. Hamann
  Author: Martin Schlipf and Francois Gygi  Date: 150915.
  9 valence electrons, 3 orbitals, 6 projectors, 2414 radial grid points, with lMax = 2
  Transforming local potential to a uniform radial grid of dG=0.02 with 1489 points.
  Transforming nonlocal projectors to a uniform radial grid of dG=0.02 with 432 points.
    5S    l: 0   occupation:  2.0   eigenvalue: -0.982388
    5P    l: 1   occupation:  6.0   eigenvalue: -0.496786
    6S    l: 0   occupation:  1.0   eigenvalue: -0.076670
  Transforming atomic orbitals to a uniform radial grid of dG=0.02 with 432 points.
  Core radius for overlap checks: 2.06 bohrs.
  Reading pulay file /home/gridsan/aligho/DFT/build-Nov24/pseudopotentials/SG15/Cs_ONCV_PBE.pulay ... using dE_dnG = -1.008762e-04 computed for Ecut = 20.

Initialized 1 species with 1 total atoms.

Folded 1 k-points by 12x12x1 to 144 k-points.

---------- Setting up k-points, bands, fillings ----------
Reduced to 19 k-points under symmetry. 
Computing the number of bands and number of electrons
Calculating initial fillings.
nElectrons:   9.000000   nBands: 6   nStates: 38

----- Setting up reduced wavefunction bases (one per k-point) -----
average nbasis = 13230.521 , ideal nbasis = 13229.709

---------- Setting up coulomb interaction ----------
Initialized slab truncation along lattice direction 001

---------- Setting up 2D ewald sum ----------
Optimum gaussian width for ewald sums = 5.249020 bohr.
Real space sums over 289 unit cells with max indices [  8  8  0  ]
Reciprocal space sums over 81 terms with max indices [  4  4  0  ]

---------- Allocating electronic variables ----------
Initializing wave functions:  linear combination of atomic orbitals
Note: number of bands (6) exceeds available atomic orbitals (5)
Cs pseudo-atom occupations:   s ( 2 1 )  p ( 6 )
	FillingsUpdate:  mu: -0.096255017  nElectrons: 9.000000  magneticMoment: [ Abs: 0.16000  Tot: -0.16000 ]
LCAOMinimize: Iter:   0  F: -20.1823712019275092  |grad|_K:  4.176e-05  alpha:  1.000e+00
	FillingsUpdate:  mu: -0.096236457  nElectrons: 9.000000  magneticMoment: [ Abs: 0.16000  Tot: -0.16000 ]
LCAOMinimize: Iter:   1  F: -20.1823723671184716  |grad|_K:  4.151e-07  alpha:  9.768e-01  linmin: -5.190e-02  cgtest:  3.907e-01  t[s]:      4.62
LCAOMinimize: Encountered beta<0, resetting CG.
	FillingsUpdate:  mu: -0.096236559  nElectrons: 9.000000  magneticMoment: [ Abs: 0.16000  Tot: -0.16000 ]
LCAOMinimize: Iter:   2  F: -20.1823723672363151  |grad|_K:  6.699e-10  alpha:  1.002e+00  linmin:  1.258e-01  cgtest: -8.265e-01  t[s]:      5.82
LCAOMinimize: 	Wrong curvature in test step, increasing alphaT to 3.006928e+00.
	FillingsUpdate:  mu: -0.096236559  nElectrons: 9.000000  magneticMoment: [ Abs: 0.16000  Tot: -0.16000 ]
LCAOMinimize: Iter:   3  F: -20.1823723672363435  |grad|_K:  5.544e-10  alpha: -3.426e-03  linmin:  2.319e-04  cgtest:  8.212e-01  t[s]:      7.01
LCAOMinimize: Converged (|Delta F|<1.000000e-06 for 2 iters).


---- Citations for features of the code used in this run ----

   Software package:
      R. Sundararaman, K. Letchworth-Weaver, K.A. Schwarz, D. Gunceler, Y. Ozhabes and T.A. Arias, 'JDFTx: software for joint density-functional theory', SoftwareX 6, 278 (2017)

   gga-PBE exchange-correlation functional:
      J.P. Perdew, K. Burke and M. Ernzerhof, Phys. Rev. Lett. 77, 3865 (1996)

   Pseudopotentials:
      M Schlipf and F Gygi, Comput. Phys. Commun. 196, 36 (2015)

   Truncated Coulomb potentials:
      R. Sundararaman and T.A. Arias, Phys. Rev. B 87, 165122 (2013)

This list may not be complete. Please suggest additional citations or
report any other bugs at https://github.com/shankar1729/jdftx/issues

Initialization completed successfully at t[s]:      7.11


-------- Electronic minimization -----------
Will mix electronic density at each iteration.
	FillingsUpdate:  mu: -0.096236559  nElectrons: 9.000000  magneticMoment: [ Abs: 0.16000  Tot: -0.16000 ]
	FillingsUpdate:  mu: -0.104875542  nElectrons: 9.000000  magneticMoment: [ Abs: 0.16000  Tot: -0.16000 ]
SCF: Cycle:  0   F: -20.187019592388250   dF: -4.647e-03   |Residual|: 1.156e-02   |deigs|: 1.882e-01  t[s]:      9.52
	FillingsUpdate:  mu: -0.105162389  nElectrons: 9.000000  magneticMoment: [ Abs: 0.16000  Tot: -0.16000 ]
SCF: Cycle:  1   F: -20.187394088053015   dF: -3.745e-04   |Residual|: 9.686e-03   |deigs|: 4.511e-03  t[s]:     11.44
	FillingsUpdate:  mu: -0.101199907  nElectrons: 9.000000  magneticMoment: [ Abs: 0.16903  Tot: -0.16000 ]
SCF: Cycle:  2   F: -20.187708906685682   dF: -3.148e-04   |Residual|: 4.309e-03   |deigs|: 3.622e-03  t[s]:     13.38
	FillingsUpdate:  mu: -0.101170001  nElectrons: 9.000000  magneticMoment: [ Abs: 0.16000  Tot: -0.16000 ]
SCF: Cycle:  3   F: -20.187815802085357   dF: -1.069e-04   |Residual|: 3.406e-03   |deigs|: 1.705e-03  t[s]:     15.31
	FillingsUpdate:  mu: -0.098412204  nElectrons: 9.000000  magneticMoment: [ Abs: 0.16144  Tot: -0.16000 ]
SCF: Cycle:  4   F: -20.187890212510514   dF: -7.441e-05   |Residual|: 2.385e-03   |deigs|: 3.503e-03  t[s]:     17.21
	FillingsUpdate:  mu: -0.096082039  nElectrons: 9.000000  magneticMoment: [ Abs: 0.16256  Tot: -0.16000 ]
SCF: Cycle:  5   F: -20.187930407866411   dF: -4.020e-05   |Residual|: 2.004e-03   |deigs|: 2.785e-03  t[s]:     19.20
	FillingsUpdate:  mu: -0.093789034  nElectrons: 9.000000  magneticMoment: [ Abs: 0.16527  Tot: -0.16000 ]
SCF: Cycle:  6   F: -20.187942057687604   dF: -1.165e-05   |Residual|: 1.477e-03   |deigs|: 2.850e-03  t[s]:     21.18
	FillingsUpdate:  mu: -0.092493699  nElectrons: 9.000000  magneticMoment: [ Abs: 0.16351  Tot: -0.16000 ]
SCF: Cycle:  7   F: -20.187965418556189   dF: -2.336e-05   |Residual|: 1.232e-03   |deigs|: 1.429e-03  t[s]:     23.19
	FillingsUpdate:  mu: -0.090801892  nElectrons: 9.000000  magneticMoment: [ Abs: 0.16124  Tot: -0.16000 ]
SCF: Cycle:  8   F: -20.187983600902090   dF: -1.818e-05   |Residual|: 9.671e-04   |deigs|: 1.569e-03  t[s]:     25.25
	FillingsUpdate:  mu: -0.089309042  nElectrons: 9.000000  magneticMoment: [ Abs: 0.16239  Tot: -0.16000 ]
SCF: Cycle:  9   F: -20.187967194135343   dF: +1.641e-05   |Residual|: 9.428e-04   |deigs|: 1.538e-03  t[s]:     27.37
	FillingsUpdate:  mu: -0.087243692  nElectrons: 9.000000  magneticMoment: [ Abs: 0.16305  Tot: -0.16000 ]
SCF: Cycle: 10   F: -20.187973898131521   dF: -6.704e-06   |Residual|: 8.669e-04   |deigs|: 2.253e-03  t[s]:     29.46
	FillingsUpdate:  mu: -0.085749362  nElectrons: 9.000000  magneticMoment: [ Abs: 0.16188  Tot: -0.16000 ]
SCF: Cycle: 11   F: -20.188001365006549   dF: -2.747e-05   |Residual|: 7.020e-04   |deigs|: 1.639e-03  t[s]:     31.51
	FillingsUpdate:  mu: -0.084488443  nElectrons: 9.000000  magneticMoment: [ Abs: 0.16218  Tot: -0.16000 ]
SCF: Cycle: 12   F: -20.188019000416418   dF: -1.764e-05   |Residual|: 6.548e-04   |deigs|: 1.201e-03  t[s]:     33.58
	FillingsUpdate:  mu: -0.082596720  nElectrons: 9.000000  magneticMoment: [ Abs: 0.16132  Tot: -0.16000 ]
SCF: Cycle: 13   F: -20.188028841549837   dF: -9.841e-06   |Residual|: 5.840e-04   |deigs|: 1.947e-03  t[s]:     35.61
	FillingsUpdate:  mu: -0.081103955  nElectrons: 9.000000  magneticMoment: [ Abs: 0.16098  Tot: -0.16000 ]
SCF: Cycle: 14   F: -20.188036878958858   dF: -8.037e-06   |Residual|: 4.405e-04   |deigs|: 1.568e-03  t[s]:     37.66
	FillingsUpdate:  mu: -0.080710338  nElectrons: 9.000000  magneticMoment: [ Abs: 0.16105  Tot: -0.16000 ]
SCF: Cycle: 15   F: -20.188040453973503   dF: -3.575e-06   |Residual|: 3.447e-04   |deigs|: 1.429e-03  t[s]:     39.73
	FillingsUpdate:  mu: -0.080415835  nElectrons: 9.000000  magneticMoment: [ Abs: 0.16035  Tot: -0.16000 ]
SCF: Cycle: 16   F: -20.188043187226729   dF: -2.733e-06   |Residual|: 2.433e-04   |deigs|: 5.622e-04  t[s]:     41.87
	FillingsUpdate:  mu: -0.080408367  nElectrons: 9.000000  magneticMoment: [ Abs: 0.16013  Tot: -0.16000 ]
SCF: Cycle: 17   F: -20.188044153994039   dF: -9.668e-07   |Residual|: 1.165e-04   |deigs|: 1.771e-04  t[s]:     43.92
	FillingsUpdate:  mu: -0.080496032  nElectrons: 9.000000  magneticMoment: [ Abs: 0.16020  Tot: -0.16000 ]
SCF: Cycle: 18   F: -20.188044532821408   dF: -3.788e-07   |Residual|: 6.434e-05   |deigs|: 3.707e-04  t[s]:     46.09
	FillingsUpdate:  mu: -0.080493916  nElectrons: 9.000000  magneticMoment: [ Abs: 0.16012  Tot: -0.16000 ]
SCF: Cycle: 19   F: -20.188044671699206   dF: -1.389e-07   |Residual|: 3.829e-05   |deigs|: 5.376e-04  t[s]:     48.14
	FillingsUpdate:  mu: -0.080510587  nElectrons: 9.000000  magneticMoment: [ Abs: 0.16006  Tot: -0.16000 ]
SCF: Cycle: 20   F: -20.188044698294110   dF: -2.659e-08   |Residual|: 2.393e-05   |deigs|: 1.441e-04  t[s]:     50.22
	FillingsUpdate:  mu: -0.080528008  nElectrons: 9.000000  magneticMoment: [ Abs: 0.16009  Tot: -0.16000 ]
SCF: Cycle: 21   F: -20.188044726048052   dF: -2.775e-08   |Residual|: 9.956e-06   |deigs|: 7.341e-05  t[s]:     52.35
	FillingsUpdate:  mu: -0.080537642  nElectrons: 9.000000  magneticMoment: [ Abs: 0.16011  Tot: -0.16000 ]
SCF: Cycle: 22   F: -20.188044733043402   dF: -6.995e-09   |Residual|: 5.225e-06   |deigs|: 4.175e-05  t[s]:     54.57
	FillingsUpdate:  mu: -0.080539749  nElectrons: 9.000000  magneticMoment: [ Abs: 0.16012  Tot: -0.16000 ]
SCF: Cycle: 23   F: -20.188044736626573   dF: -3.583e-09   |Residual|: 4.559e-06   |deigs|: 1.642e-04  t[s]:     56.70
SCF: Converged (|Delta E|<1.000000e-08 for 2 iters).


# Ionic positions in lattice coordinates:
ion Cs   0.000000000000000   0.000000000000000   0.000000000000000 0

# Forces in Lattice coordinates:
force Cs   0.000000000000000   0.000000000000000   0.000000000000000 0

# Energy components:
   Eewald =      -18.0480261003326561
       EH =       -1.8382676372083953
     Eloc =       -5.7464499850140225
      Enl =        3.4430790624157526
   Epulay =        0.0000000264484078
      Exc =       -3.1436424489513346
       KE =        5.1452627800929962
-------------------------------------
     Etot =      -20.1880443025492546
       TS =        0.0000004340773189
-------------------------------------
        F =      -20.1880447366265727

IonicMinimize: Iter:   0  F: -20.188044736626573  |grad|_K:  0.000e+00  t[s]:     56.83
IonicMinimize: Converged (|grad|_K<1.000000e-04).

#--- Lowdin population analysis ---
# oxidation-state Cs +0.045
# magnetic-moments Cs -0.143

End date and time: Sun Feb  6 13:17:16 2022  (Duration: 0-0:00:56.85)
Done!
