
*************** JDFTx 1.6.0 (git hash 42ebbcc2) ***************

Start date and time: Sun Feb  6 13:35:19 2022
Executable jdftx with command-line: -i Alkali.in
Running on hosts (process indices):  c-16-3-4 (0-18)
Divided in process groups (process indices):  0 (0)  1 (1)  2 (2)  3 (3)  4 (4)  5 (5)  6 (6)  7 (7)  8 (8)  9 (9)  10 (10)  11 (11)  12 (12)  13 (13)  14 (14)  15 (15)  16 (16)  17 (17)  18 (18)
Resource initialization completed at t[s]:      0.00
Run totals: 19 processes, 48 threads, 0 GPUs


Input parsed successfully to the following command list (including defaults):

basis kpoint-dependent
coords-type Lattice
core-overlap-check vector
coulomb-interaction Slab 001
davidson-band-ratio 1.1
dump End None
dump-name $INPUT.$VAR
elec-cutoff 20
elec-eigen-algo Davidson
elec-ex-corr gga-PBE
elec-initial-magnetization 0.940000 yes
elec-smearing Fermi 1e-05
electronic-minimize  \
	dirUpdateScheme      FletcherReeves \
	linminMethod         DirUpdateRecommended \
	nIterations          100 \
	history              15 \
	knormThreshold       0 \
	energyDiffThreshold  1e-08 \
	nEnergyDiff          2 \
	alphaTstart          1 \
	alphaTmin            1e-10 \
	updateTestStepSize   yes \
	alphaTreduceFactor   0.1 \
	alphaTincreaseFactor 3 \
	nAlphaAdjustMax      3 \
	wolfeEnergy          0.0001 \
	wolfeGradient        0.9 \
	fdTest               no
electronic-scf  \
	nIterations	10000 \
	energyDiffThreshold	1e-08 \
	residualThreshold	1e-07 \
	mixFraction	0.5 \
	qMetric	0.8 \
	history	10 \
	nEigSteps	2 \
	eigDiffThreshold	1e-08 \
	mixedVariable	Density \
	qKerker	0.8 \
	qKappa	-1 \
	verbose	no \
	mixFractionMag	1.5
exchange-regularization WignerSeitzTruncated
fluid None
fluid-ex-corr (null) lda-PZ
fluid-gummel-loop 10 1.000000e-05
fluid-minimize  \
	dirUpdateScheme      PolakRibiere \
	linminMethod         DirUpdateRecommended \
	nIterations          100 \
	history              15 \
	knormThreshold       0 \
	energyDiffThreshold  0 \
	nEnergyDiff          2 \
	alphaTstart          1 \
	alphaTmin            1e-10 \
	updateTestStepSize   yes \
	alphaTreduceFactor   0.1 \
	alphaTincreaseFactor 3 \
	nAlphaAdjustMax      3 \
	wolfeEnergy          0.0001 \
	wolfeGradient        0.9 \
	fdTest               no
fluid-solvent H2O 55.338 ScalarEOS \
	epsBulk 78.4 \
	pMol 0.92466 \
	epsInf 1.77 \
	Pvap 1.06736e-10 \
	sigmaBulk 4.62e-05 \
	Rvdw 2.61727 \
	Res 1.42 \
	tauNuc 343133 \
	poleEl 15 7 1
forces-output-coords Positions
ion Cs   0.000000000000000   0.000000000000000   0.000000000000000 0
ion-species SG15/$ID_ONCV_PBE.upf
ion-width 0
ionic-minimize  \
	dirUpdateScheme      L-BFGS \
	linminMethod         DirUpdateRecommended \
	nIterations          0 \
	history              15 \
	knormThreshold       0.0001 \
	energyDiffThreshold  1e-06 \
	nEnergyDiff          2 \
	alphaTstart          1 \
	alphaTmin            1e-10 \
	updateTestStepSize   yes \
	alphaTreduceFactor   0.1 \
	alphaTincreaseFactor 3 \
	nAlphaAdjustMax      3 \
	wolfeEnergy          0.0001 \
	wolfeGradient        0.9 \
	fdTest               no
kpoint   0.000000000000   0.000000000000   0.000000000000  1.00000000000000
kpoint-folding 12 12 1 
latt-move-scale 1 1 1
latt-scale 2 2 1 
lattice  \
	   4.727486978767153   -2.363743489383575    0.000000000000000  \
	  -0.000000000000000    4.094123819672498    0.000000000000000  \
	   0.000000000000000    0.000000000000000   40.000000000000000 
lattice-minimize  \
	dirUpdateScheme      L-BFGS \
	linminMethod         DirUpdateRecommended \
	nIterations          0 \
	history              15 \
	knormThreshold       0 \
	energyDiffThreshold  1e-06 \
	nEnergyDiff          2 \
	alphaTstart          1 \
	alphaTmin            1e-10 \
	updateTestStepSize   yes \
	alphaTreduceFactor   0.1 \
	alphaTincreaseFactor 3 \
	nAlphaAdjustMax      3 \
	wolfeEnergy          0.0001 \
	wolfeGradient        0.9 \
	fdTest               no
lcao-params -1 1e-06 1e-05
pcm-variant GLSSA13
spintype z-spin
subspace-rotation-factor 1 yes
symmetries automatic
symmetry-threshold 0.0001



---------- Setting up symmetries ----------

Found 24 point-group symmetries of the bravais lattice
Found 24 space-group symmetries with basis
Applied RMS atom displacement 0 bohrs to make symmetries exact.

---------- Initializing the Grid ----------
R = 
[      9.45497     -4.72749            0  ]
[            0      8.18825            0  ]
[            0            0           40  ]
unit cell volume = 3096.79
G =
[   0.664538   0.383671         -0  ]
[          0   0.767342         -0  ]
[         -0         -0    0.15708  ]
Minimum fftbox size, Smin = [  40  40  164  ]
Chosen fftbox size, S = [  40  40  168  ]

---------- Exchange Correlation functional ----------
Initalized PBE GGA exchange.
Initalized PBE GGA correlation.

---------- Setting up pseudopotentials ----------
Width of ionic core gaussian charges (only for fluid interactions / plotting) set to 0

Reading pseudopotential file '/home/gridsan/aligho/DFT/build-Nov24/pseudopotentials/SG15/Cs_ONCV_PBE.upf':
  'Cs' pseudopotential, 'PBE' functional
  Generated using ONCVPSP code by D. R. Hamann
  Author: Martin Schlipf and Francois Gygi  Date: 150915.
  9 valence electrons, 3 orbitals, 6 projectors, 2414 radial grid points, with lMax = 2
  Transforming local potential to a uniform radial grid of dG=0.02 with 1489 points.
  Transforming nonlocal projectors to a uniform radial grid of dG=0.02 with 432 points.
    5S    l: 0   occupation:  2.0   eigenvalue: -0.982388
    5P    l: 1   occupation:  6.0   eigenvalue: -0.496786
    6S    l: 0   occupation:  1.0   eigenvalue: -0.076670
  Transforming atomic orbitals to a uniform radial grid of dG=0.02 with 432 points.
  Core radius for overlap checks: 2.06 bohrs.
  Reading pulay file /home/gridsan/aligho/DFT/build-Nov24/pseudopotentials/SG15/Cs_ONCV_PBE.pulay ... using dE_dnG = -1.008762e-04 computed for Ecut = 20.

Initialized 1 species with 1 total atoms.

Folded 1 k-points by 12x12x1 to 144 k-points.

---------- Setting up k-points, bands, fillings ----------
Reduced to 19 k-points under symmetry. 
Computing the number of bands and number of electrons
Calculating initial fillings.
nElectrons:   9.000000   nBands: 6   nStates: 38

----- Setting up reduced wavefunction bases (one per k-point) -----
average nbasis = 13230.521 , ideal nbasis = 13229.709

---------- Setting up coulomb interaction ----------
Initialized slab truncation along lattice direction 001

---------- Setting up 2D ewald sum ----------
Optimum gaussian width for ewald sums = 5.249020 bohr.
Real space sums over 289 unit cells with max indices [  8  8  0  ]
Reciprocal space sums over 81 terms with max indices [  4  4  0  ]

---------- Allocating electronic variables ----------
Initializing wave functions:  linear combination of atomic orbitals
Note: number of bands (6) exceeds available atomic orbitals (5)
Cs pseudo-atom occupations:   s ( 2 1 )  p ( 6 )
	FillingsUpdate:  mu: -0.089038788  nElectrons: 9.000000  magneticMoment: [ Abs: 0.94000  Tot: +0.94000 ]
LCAOMinimize: Iter:   0  F: -20.1613633857418328  |grad|_K:  7.775e-06  alpha:  1.000e+00
	FillingsUpdate:  mu: -0.089036316  nElectrons: 9.000000  magneticMoment: [ Abs: 0.94000  Tot: +0.94000 ]
LCAOMinimize: Iter:   1  F: -20.1613634262242449  |grad|_K:  6.895e-08  alpha:  9.792e-01  linmin: -1.087e-02  cgtest:  1.508e-01  t[s]:      4.68
LCAOMinimize: Encountered beta<0, resetting CG.
	FillingsUpdate:  mu: -0.089036347  nElectrons: 9.000000  magneticMoment: [ Abs: 0.94000  Tot: +0.94000 ]
LCAOMinimize: Iter:   2  F: -20.1613634262275241  |grad|_K:  9.030e-09  alpha:  1.129e+00  linmin:  5.898e-02  cgtest: -9.985e-01  t[s]:      5.87
LCAOMinimize: Converged (|Delta F|<1.000000e-06 for 2 iters).


---- Citations for features of the code used in this run ----

   Software package:
      R. Sundararaman, K. Letchworth-Weaver, K.A. Schwarz, D. Gunceler, Y. Ozhabes and T.A. Arias, 'JDFTx: software for joint density-functional theory', SoftwareX 6, 278 (2017)

   gga-PBE exchange-correlation functional:
      J.P. Perdew, K. Burke and M. Ernzerhof, Phys. Rev. Lett. 77, 3865 (1996)

   Pseudopotentials:
      M Schlipf and F Gygi, Comput. Phys. Commun. 196, 36 (2015)

   Truncated Coulomb potentials:
      R. Sundararaman and T.A. Arias, Phys. Rev. B 87, 165122 (2013)

This list may not be complete. Please suggest additional citations or
report any other bugs at https://github.com/shankar1729/jdftx/issues

Initialization completed successfully at t[s]:      5.97


-------- Electronic minimization -----------
Will mix electronic density at each iteration.
	FillingsUpdate:  mu: -0.089036347  nElectrons: 9.000000  magneticMoment: [ Abs: 0.94000  Tot: +0.94000 ]
	FillingsUpdate:  mu: -0.109998918  nElectrons: 9.000000  magneticMoment: [ Abs: 0.94000  Tot: +0.94000 ]
SCF: Cycle:  0   F: -20.175463077070141   dF: -1.410e-02   |Residual|: 2.108e-02   |deigs|: 1.891e-01  t[s]:      8.42
	FillingsUpdate:  mu: -0.112981916  nElectrons: 9.000000  magneticMoment: [ Abs: 0.94000  Tot: +0.94000 ]
SCF: Cycle:  1   F: -20.176778637050383   dF: -1.316e-03   |Residual|: 1.563e-02   |deigs|: 6.613e-03  t[s]:     10.32
	FillingsUpdate:  mu: -0.110532726  nElectrons: 9.000000  magneticMoment: [ Abs: 0.94706  Tot: +0.94000 ]
SCF: Cycle:  2   F: -20.177342414089338   dF: -5.638e-04   |Residual|: 8.983e-03   |deigs|: 2.089e-03  t[s]:     12.28
	FillingsUpdate:  mu: -0.107845849  nElectrons: 9.000000  magneticMoment: [ Abs: 0.94000  Tot: +0.94000 ]
SCF: Cycle:  3   F: -20.177973738864143   dF: -6.313e-04   |Residual|: 4.077e-03   |deigs|: 3.308e-03  t[s]:     14.18
	FillingsUpdate:  mu: -0.105187149  nElectrons: 9.000000  magneticMoment: [ Abs: 0.94004  Tot: +0.94000 ]
SCF: Cycle:  4   F: -20.178128562135232   dF: -1.548e-04   |Residual|: 2.841e-03   |deigs|: 2.224e-03  t[s]:     16.09
	FillingsUpdate:  mu: -0.103349140  nElectrons: 9.000000  magneticMoment: [ Abs: 0.94014  Tot: +0.94000 ]
SCF: Cycle:  5   F: -20.178188914951821   dF: -6.035e-05   |Residual|: 2.116e-03   |deigs|: 2.165e-03  t[s]:     18.05
	FillingsUpdate:  mu: -0.101704912  nElectrons: 9.000000  magneticMoment: [ Abs: 0.94183  Tot: +0.94000 ]
SCF: Cycle:  6   F: -20.178132487453158   dF: +5.643e-05   |Residual|: 2.406e-03   |deigs|: 1.691e-03  t[s]:     20.03
	FillingsUpdate:  mu: -0.103606856  nElectrons: 9.000000  magneticMoment: [ Abs: 0.94339  Tot: +0.94000 ]
SCF: Cycle:  7   F: -20.178131471360100   dF: +1.016e-06   |Residual|: 3.192e-03   |deigs|: 2.088e-03  t[s]:     22.14
	FillingsUpdate:  mu: -0.100356215  nElectrons: 9.000000  magneticMoment: [ Abs: 0.94016  Tot: +0.94000 ]
SCF: Cycle:  8   F: -20.178150585586291   dF: -1.911e-05   |Residual|: 1.966e-03   |deigs|: 4.329e-03  t[s]:     24.19
	FillingsUpdate:  mu: -0.098001779  nElectrons: 9.000000  magneticMoment: [ Abs: 0.94010  Tot: +0.94000 ]
SCF: Cycle:  9   F: -20.178147222429306   dF: +3.363e-06   |Residual|: 1.901e-03   |deigs|: 2.500e-03  t[s]:     26.24
	FillingsUpdate:  mu: -0.096173464  nElectrons: 9.000000  magneticMoment: [ Abs: 0.94010  Tot: +0.94000 ]
SCF: Cycle: 10   F: -20.178245926954030   dF: -9.870e-05   |Residual|: 1.133e-03   |deigs|: 1.771e-03  t[s]:     28.39
	FillingsUpdate:  mu: -0.097962656  nElectrons: 9.000000  magneticMoment: [ Abs: 0.94138  Tot: +0.94000 ]
SCF: Cycle: 11   F: -20.178269506297539   dF: -2.358e-05   |Residual|: 1.592e-03   |deigs|: 1.625e-03  t[s]:     30.45
	FillingsUpdate:  mu: -0.097394097  nElectrons: 9.000000  magneticMoment: [ Abs: 0.94069  Tot: +0.94000 ]
SCF: Cycle: 12   F: -20.178282160077572   dF: -1.265e-05   |Residual|: 1.479e-03   |deigs|: 1.199e-03  t[s]:     32.57
	FillingsUpdate:  mu: -0.096187914  nElectrons: 9.000000  magneticMoment: [ Abs: 0.94246  Tot: +0.94000 ]
SCF: Cycle: 13   F: -20.178290592584311   dF: -8.433e-06   |Residual|: 1.052e-03   |deigs|: 1.560e-03  t[s]:     34.61
	FillingsUpdate:  mu: -0.095048727  nElectrons: 9.000000  magneticMoment: [ Abs: 0.94352  Tot: +0.94000 ]
SCF: Cycle: 14   F: -20.178295331289494   dF: -4.739e-06   |Residual|: 8.894e-04   |deigs|: 1.441e-03  t[s]:     36.65
	FillingsUpdate:  mu: -0.093620572  nElectrons: 9.000000  magneticMoment: [ Abs: 0.94326  Tot: +0.94000 ]
SCF: Cycle: 15   F: -20.178297018443700   dF: -1.687e-06   |Residual|: 7.428e-04   |deigs|: 1.752e-03  t[s]:     38.76
	FillingsUpdate:  mu: -0.090572835  nElectrons: 9.000000  magneticMoment: [ Abs: 0.94300  Tot: +0.94000 ]
SCF: Cycle: 16   F: -20.178308226864022   dF: -1.121e-05   |Residual|: 4.747e-04   |deigs|: 3.549e-03  t[s]:     40.82
	FillingsUpdate:  mu: -0.089501491  nElectrons: 9.000000  magneticMoment: [ Abs: 0.94270  Tot: +0.94000 ]
SCF: Cycle: 17   F: -20.178313319138326   dF: -5.092e-06   |Residual|: 4.974e-04   |deigs|: 1.398e-03  t[s]:     42.87
	FillingsUpdate:  mu: -0.089445554  nElectrons: 9.000000  magneticMoment: [ Abs: 0.94201  Tot: +0.94000 ]
SCF: Cycle: 18   F: -20.178316707605713   dF: -3.388e-06   |Residual|: 3.664e-04   |deigs|: 4.381e-04  t[s]:     44.96
	FillingsUpdate:  mu: -0.089795667  nElectrons: 9.000000  magneticMoment: [ Abs: 0.94102  Tot: +0.94000 ]
SCF: Cycle: 19   F: -20.178319539400885   dF: -2.832e-06   |Residual|: 2.046e-04   |deigs|: 3.177e-04  t[s]:     47.02
	FillingsUpdate:  mu: -0.089477886  nElectrons: 9.000000  magneticMoment: [ Abs: 0.94107  Tot: +0.94000 ]
SCF: Cycle: 20   F: -20.178320997091419   dF: -1.458e-06   |Residual|: 1.204e-04   |deigs|: 3.848e-04  t[s]:     49.05
	FillingsUpdate:  mu: -0.089486725  nElectrons: 9.000000  magneticMoment: [ Abs: 0.94109  Tot: +0.94000 ]
SCF: Cycle: 21   F: -20.178321817242718   dF: -8.202e-07   |Residual|: 8.129e-05   |deigs|: 1.184e-04  t[s]:     51.15
	FillingsUpdate:  mu: -0.089580325  nElectrons: 9.000000  magneticMoment: [ Abs: 0.94093  Tot: +0.94000 ]
SCF: Cycle: 22   F: -20.178322274607616   dF: -4.574e-07   |Residual|: 6.073e-05   |deigs|: 4.964e-04  t[s]:     53.24
	FillingsUpdate:  mu: -0.089790660  nElectrons: 9.000000  magneticMoment: [ Abs: 0.94059  Tot: +0.94000 ]
SCF: Cycle: 23   F: -20.178322451266546   dF: -1.767e-07   |Residual|: 4.466e-05   |deigs|: 4.650e-04  t[s]:     55.31
	FillingsUpdate:  mu: -0.089757141  nElectrons: 9.000000  magneticMoment: [ Abs: 0.94050  Tot: +0.94000 ]
SCF: Cycle: 24   F: -20.178322556441849   dF: -1.052e-07   |Residual|: 4.054e-05   |deigs|: 5.047e-04  t[s]:     57.38
	FillingsUpdate:  mu: -0.089809495  nElectrons: 9.000000  magneticMoment: [ Abs: 0.94045  Tot: +0.94000 ]
SCF: Cycle: 25   F: -20.178322611591064   dF: -5.515e-08   |Residual|: 3.227e-05   |deigs|: 5.993e-04  t[s]:     59.44
	FillingsUpdate:  mu: -0.089780346  nElectrons: 9.000000  magneticMoment: [ Abs: 0.94040  Tot: +0.94000 ]
SCF: Cycle: 26   F: -20.178322638702468   dF: -2.711e-08   |Residual|: 2.797e-05   |deigs|: 2.370e-04  t[s]:     61.61
	FillingsUpdate:  mu: -0.089722226  nElectrons: 9.000000  magneticMoment: [ Abs: 0.94032  Tot: +0.94000 ]
SCF: Cycle: 27   F: -20.178322658481566   dF: -1.978e-08   |Residual|: 1.970e-05   |deigs|: 1.546e-04  t[s]:     63.75
	FillingsUpdate:  mu: -0.089718387  nElectrons: 9.000000  magneticMoment: [ Abs: 0.94026  Tot: +0.94000 ]
SCF: Cycle: 28   F: -20.178322669528281   dF: -1.105e-08   |Residual|: 1.383e-05   |deigs|: 1.368e-04  t[s]:     65.78
	FillingsUpdate:  mu: -0.089742565  nElectrons: 9.000000  magneticMoment: [ Abs: 0.94019  Tot: +0.94000 ]
SCF: Cycle: 29   F: -20.178322681303385   dF: -1.178e-08   |Residual|: 6.365e-06   |deigs|: 1.438e-04  t[s]:     67.89
	FillingsUpdate:  mu: -0.089749383  nElectrons: 9.000000  magneticMoment: [ Abs: 0.94016  Tot: +0.94000 ]
SCF: Cycle: 30   F: -20.178322685893136   dF: -4.590e-09   |Residual|: 3.003e-06   |deigs|: 6.758e-05  t[s]:     69.99
	FillingsUpdate:  mu: -0.089747626  nElectrons: 9.000000  magneticMoment: [ Abs: 0.94016  Tot: +0.94000 ]
SCF: Cycle: 31   F: -20.178322688931740   dF: -3.039e-09   |Residual|: 1.707e-06   |deigs|: 5.313e-05  t[s]:     72.08
SCF: Converged (|Delta E|<1.000000e-08 for 2 iters).


# Ionic positions in lattice coordinates:
ion Cs   0.000000000000000   0.000000000000000   0.000000000000000 0

# Forces in Lattice coordinates:
force Cs   0.000000000000000   0.000000000000000   0.000000000000000 0

# Energy components:
   Eewald =      -18.0480261003326561
       EH =       -1.8342617543235504
     Eloc =       -5.7432388117111151
      Enl =        3.4351635457148388
   Epulay =        0.0000000264484078
      Exc =       -3.1516901808697835
       KE =        5.1637311590149979
-------------------------------------
     Etot =      -20.1783221160588617
       TS =        0.0000005728728787
-------------------------------------
        F =      -20.1783226889317397

IonicMinimize: Iter:   0  F: -20.178322688931740  |grad|_K:  0.000e+00  t[s]:     72.20
IonicMinimize: Converged (|grad|_K<1.000000e-04).

#--- Lowdin population analysis ---
# oxidation-state Cs +0.200
# magnetic-moments Cs +0.743

End date and time: Sun Feb  6 13:36:31 2022  (Duration: 0-0:01:12.22)
Done!
