
*************** JDFTx 1.6.0 (git hash 42ebbcc2) ***************

Start date and time: Sun Feb  6 13:22:59 2022
Executable jdftx with command-line: -i Alkali.in
Running on hosts (process indices):  d-6-13-4 (0-18)
Divided in process groups (process indices):  0 (0)  1 (1)  2 (2)  3 (3)  4 (4)  5 (5)  6 (6)  7 (7)  8 (8)  9 (9)  10 (10)  11 (11)  12 (12)  13 (13)  14 (14)  15 (15)  16 (16)  17 (17)  18 (18)
Resource initialization completed at t[s]:      0.00
Run totals: 19 processes, 48 threads, 0 GPUs


Input parsed successfully to the following command list (including defaults):

basis kpoint-dependent
coords-type Lattice
core-overlap-check vector
coulomb-interaction Slab 001
davidson-band-ratio 1.1
dump End None
dump-name $INPUT.$VAR
elec-cutoff 20
elec-eigen-algo Davidson
elec-ex-corr gga-PBE
elec-initial-magnetization 0.260000 yes
elec-smearing Fermi 1e-05
electronic-minimize  \
	dirUpdateScheme      FletcherReeves \
	linminMethod         DirUpdateRecommended \
	nIterations          100 \
	history              15 \
	knormThreshold       0 \
	energyDiffThreshold  1e-08 \
	nEnergyDiff          2 \
	alphaTstart          1 \
	alphaTmin            1e-10 \
	updateTestStepSize   yes \
	alphaTreduceFactor   0.1 \
	alphaTincreaseFactor 3 \
	nAlphaAdjustMax      3 \
	wolfeEnergy          0.0001 \
	wolfeGradient        0.9 \
	fdTest               no
electronic-scf  \
	nIterations	10000 \
	energyDiffThreshold	1e-08 \
	residualThreshold	1e-07 \
	mixFraction	0.5 \
	qMetric	0.8 \
	history	10 \
	nEigSteps	2 \
	eigDiffThreshold	1e-08 \
	mixedVariable	Density \
	qKerker	0.8 \
	qKappa	-1 \
	verbose	no \
	mixFractionMag	1.5
exchange-regularization WignerSeitzTruncated
fluid None
fluid-ex-corr (null) lda-PZ
fluid-gummel-loop 10 1.000000e-05
fluid-minimize  \
	dirUpdateScheme      PolakRibiere \
	linminMethod         DirUpdateRecommended \
	nIterations          100 \
	history              15 \
	knormThreshold       0 \
	energyDiffThreshold  0 \
	nEnergyDiff          2 \
	alphaTstart          1 \
	alphaTmin            1e-10 \
	updateTestStepSize   yes \
	alphaTreduceFactor   0.1 \
	alphaTincreaseFactor 3 \
	nAlphaAdjustMax      3 \
	wolfeEnergy          0.0001 \
	wolfeGradient        0.9 \
	fdTest               no
fluid-solvent H2O 55.338 ScalarEOS \
	epsBulk 78.4 \
	pMol 0.92466 \
	epsInf 1.77 \
	Pvap 1.06736e-10 \
	sigmaBulk 4.62e-05 \
	Rvdw 2.61727 \
	Res 1.42 \
	tauNuc 343133 \
	poleEl 15 7 1
forces-output-coords Positions
ion Cs   0.000000000000000   0.000000000000000   0.000000000000000 0
ion-species SG15/$ID_ONCV_PBE.upf
ion-width 0
ionic-minimize  \
	dirUpdateScheme      L-BFGS \
	linminMethod         DirUpdateRecommended \
	nIterations          0 \
	history              15 \
	knormThreshold       0.0001 \
	energyDiffThreshold  1e-06 \
	nEnergyDiff          2 \
	alphaTstart          1 \
	alphaTmin            1e-10 \
	updateTestStepSize   yes \
	alphaTreduceFactor   0.1 \
	alphaTincreaseFactor 3 \
	nAlphaAdjustMax      3 \
	wolfeEnergy          0.0001 \
	wolfeGradient        0.9 \
	fdTest               no
kpoint   0.000000000000   0.000000000000   0.000000000000  1.00000000000000
kpoint-folding 12 12 1 
latt-move-scale 1 1 1
latt-scale 2 2 1 
lattice  \
	   4.727486978767153   -2.363743489383575    0.000000000000000  \
	  -0.000000000000000    4.094123819672498    0.000000000000000  \
	   0.000000000000000    0.000000000000000   40.000000000000000 
lattice-minimize  \
	dirUpdateScheme      L-BFGS \
	linminMethod         DirUpdateRecommended \
	nIterations          0 \
	history              15 \
	knormThreshold       0 \
	energyDiffThreshold  1e-06 \
	nEnergyDiff          2 \
	alphaTstart          1 \
	alphaTmin            1e-10 \
	updateTestStepSize   yes \
	alphaTreduceFactor   0.1 \
	alphaTincreaseFactor 3 \
	nAlphaAdjustMax      3 \
	wolfeEnergy          0.0001 \
	wolfeGradient        0.9 \
	fdTest               no
lcao-params -1 1e-06 1e-05
pcm-variant GLSSA13
spintype z-spin
subspace-rotation-factor 1 yes
symmetries automatic
symmetry-threshold 0.0001



---------- Setting up symmetries ----------

Found 24 point-group symmetries of the bravais lattice
Found 24 space-group symmetries with basis
Applied RMS atom displacement 0 bohrs to make symmetries exact.

---------- Initializing the Grid ----------
R = 
[      9.45497     -4.72749            0  ]
[            0      8.18825            0  ]
[            0            0           40  ]
unit cell volume = 3096.79
G =
[   0.664538   0.383671         -0  ]
[          0   0.767342         -0  ]
[         -0         -0    0.15708  ]
Minimum fftbox size, Smin = [  40  40  164  ]
Chosen fftbox size, S = [  40  40  168  ]

---------- Exchange Correlation functional ----------
Initalized PBE GGA exchange.
Initalized PBE GGA correlation.

---------- Setting up pseudopotentials ----------
Width of ionic core gaussian charges (only for fluid interactions / plotting) set to 0

Reading pseudopotential file '/home/gridsan/aligho/DFT/build-Nov24/pseudopotentials/SG15/Cs_ONCV_PBE.upf':
  'Cs' pseudopotential, 'PBE' functional
  Generated using ONCVPSP code by D. R. Hamann
  Author: Martin Schlipf and Francois Gygi  Date: 150915.
  9 valence electrons, 3 orbitals, 6 projectors, 2414 radial grid points, with lMax = 2
  Transforming local potential to a uniform radial grid of dG=0.02 with 1489 points.
  Transforming nonlocal projectors to a uniform radial grid of dG=0.02 with 432 points.
    5S    l: 0   occupation:  2.0   eigenvalue: -0.982388
    5P    l: 1   occupation:  6.0   eigenvalue: -0.496786
    6S    l: 0   occupation:  1.0   eigenvalue: -0.076670
  Transforming atomic orbitals to a uniform radial grid of dG=0.02 with 432 points.
  Core radius for overlap checks: 2.06 bohrs.
  Reading pulay file /home/gridsan/aligho/DFT/build-Nov24/pseudopotentials/SG15/Cs_ONCV_PBE.pulay ... using dE_dnG = -1.008762e-04 computed for Ecut = 20.

Initialized 1 species with 1 total atoms.

Folded 1 k-points by 12x12x1 to 144 k-points.

---------- Setting up k-points, bands, fillings ----------
Reduced to 19 k-points under symmetry. 
Computing the number of bands and number of electrons
Calculating initial fillings.
nElectrons:   9.000000   nBands: 6   nStates: 38

----- Setting up reduced wavefunction bases (one per k-point) -----
average nbasis = 13230.521 , ideal nbasis = 13229.709

---------- Setting up coulomb interaction ----------
Initialized slab truncation along lattice direction 001

---------- Setting up 2D ewald sum ----------
Optimum gaussian width for ewald sums = 5.249020 bohr.
Real space sums over 289 unit cells with max indices [  8  8  0  ]
Reciprocal space sums over 81 terms with max indices [  4  4  0  ]

---------- Allocating electronic variables ----------
Initializing wave functions:  linear combination of atomic orbitals
Note: number of bands (6) exceeds available atomic orbitals (5)
Cs pseudo-atom occupations:   s ( 2 1 )  p ( 6 )
	FillingsUpdate:  mu: -0.094747175  nElectrons: 9.000000  magneticMoment: [ Abs: 0.26000  Tot: +0.26000 ]
LCAOMinimize: Iter:   0  F: -20.1813288566275375  |grad|_K:  4.023e-05  alpha:  1.000e+00
	FillingsUpdate:  mu: -0.094729503  nElectrons: 9.000000  magneticMoment: [ Abs: 0.26000  Tot: +0.26000 ]
LCAOMinimize: Iter:   1  F: -20.1813299384960310  |grad|_K:  4.191e-07  alpha:  9.776e-01  linmin: -4.316e-02  cgtest:  3.508e-01  t[s]:      4.66
LCAOMinimize: Encountered beta<0, resetting CG.
	FillingsUpdate:  mu: -0.094729632  nElectrons: 9.000000  magneticMoment: [ Abs: 0.26000  Tot: +0.26000 ]
LCAOMinimize: Iter:   2  F: -20.1813299386159279  |grad|_K:  1.408e-09  alpha:  9.990e-01  linmin: -9.214e-02  cgtest:  6.154e-01  t[s]:      6.04
LCAOMinimize: Encountered beta<0, resetting CG.
LCAOMinimize: 	Step increased F by 6.039613e-14, reducing alpha to 9.770488e-04.
	FillingsUpdate:  mu: -0.094729632  nElectrons: 9.000000  magneticMoment: [ Abs: 0.26000  Tot: +0.26000 ]
LCAOMinimize: Iter:   3  F: -20.1813299386160594  |grad|_K:  1.407e-09  alpha:  9.770e-04  linmin: -2.747e-02  cgtest:  1.000e+00  t[s]:      7.94
LCAOMinimize: Encountered beta<0, resetting CG.
LCAOMinimize: Converged (|Delta F|<1.000000e-06 for 2 iters).


---- Citations for features of the code used in this run ----

   Software package:
      R. Sundararaman, K. Letchworth-Weaver, K.A. Schwarz, D. Gunceler, Y. Ozhabes and T.A. Arias, 'JDFTx: software for joint density-functional theory', SoftwareX 6, 278 (2017)

   gga-PBE exchange-correlation functional:
      J.P. Perdew, K. Burke and M. Ernzerhof, Phys. Rev. Lett. 77, 3865 (1996)

   Pseudopotentials:
      M Schlipf and F Gygi, Comput. Phys. Commun. 196, 36 (2015)

   Truncated Coulomb potentials:
      R. Sundararaman and T.A. Arias, Phys. Rev. B 87, 165122 (2013)

This list may not be complete. Please suggest additional citations or
report any other bugs at https://github.com/shankar1729/jdftx/issues

Initialization completed successfully at t[s]:      8.04


-------- Electronic minimization -----------
Will mix electronic density at each iteration.
	FillingsUpdate:  mu: -0.094729632  nElectrons: 9.000000  magneticMoment: [ Abs: 0.26000  Tot: +0.26000 ]
	FillingsUpdate:  mu: -0.105993947  nElectrons: 9.000000  magneticMoment: [ Abs: 0.26000  Tot: +0.26000 ]
SCF: Cycle:  0   F: -20.186549206128099   dF: -5.219e-03   |Residual|: 1.219e-02   |deigs|: 1.881e-01  t[s]:     10.50
	FillingsUpdate:  mu: -0.106345469  nElectrons: 9.000000  magneticMoment: [ Abs: 0.26000  Tot: +0.26000 ]
SCF: Cycle:  1   F: -20.186989716356184   dF: -4.405e-04   |Residual|: 1.007e-02   |deigs|: 4.692e-03  t[s]:     12.38
	FillingsUpdate:  mu: -0.102986325  nElectrons: 9.000000  magneticMoment: [ Abs: 0.26979  Tot: +0.26000 ]
SCF: Cycle:  2   F: -20.187318618131712   dF: -3.289e-04   |Residual|: 4.512e-03   |deigs|: 3.127e-03  t[s]:     14.32
	FillingsUpdate:  mu: -0.102141672  nElectrons: 9.000000  magneticMoment: [ Abs: 0.26000  Tot: +0.26000 ]
SCF: Cycle:  3   F: -20.187452938660254   dF: -1.343e-04   |Residual|: 3.337e-03   |deigs|: 2.158e-03  t[s]:     16.23
	FillingsUpdate:  mu: -0.099607873  nElectrons: 9.000000  magneticMoment: [ Abs: 0.26121  Tot: +0.26000 ]
SCF: Cycle:  4   F: -20.187523393049371   dF: -7.045e-05   |Residual|: 2.450e-03   |deigs|: 3.230e-03  t[s]:     18.31
	FillingsUpdate:  mu: -0.096942874  nElectrons: 9.000000  magneticMoment: [ Abs: 0.26495  Tot: +0.26000 ]
SCF: Cycle:  5   F: -20.187563350027361   dF: -3.996e-05   |Residual|: 2.202e-03   |deigs|: 3.185e-03  t[s]:     20.32
	FillingsUpdate:  mu: -0.094691208  nElectrons: 9.000000  magneticMoment: [ Abs: 0.26917  Tot: +0.26000 ]
SCF: Cycle:  6   F: -20.187570324948361   dF: -6.975e-06   |Residual|: 1.512e-03   |deigs|: 2.751e-03  t[s]:     22.34
	FillingsUpdate:  mu: -0.093096269  nElectrons: 9.000000  magneticMoment: [ Abs: 0.26666  Tot: +0.26000 ]
SCF: Cycle:  7   F: -20.187593603592148   dF: -2.328e-05   |Residual|: 1.246e-03   |deigs|: 1.675e-03  t[s]:     24.32
	FillingsUpdate:  mu: -0.091506474  nElectrons: 9.000000  magneticMoment: [ Abs: 0.26220  Tot: +0.26000 ]
SCF: Cycle:  8   F: -20.187624628453104   dF: -3.102e-05   |Residual|: 1.011e-03   |deigs|: 1.663e-03  t[s]:     26.35
	FillingsUpdate:  mu: -0.090136606  nElectrons: 9.000000  magneticMoment: [ Abs: 0.26356  Tot: +0.26000 ]
SCF: Cycle:  9   F: -20.187612107862510   dF: +1.252e-05   |Residual|: 8.639e-04   |deigs|: 1.500e-03  t[s]:     28.42
	FillingsUpdate:  mu: -0.088205059  nElectrons: 9.000000  magneticMoment: [ Abs: 0.26529  Tot: +0.26000 ]
SCF: Cycle: 10   F: -20.187607017075710   dF: +5.091e-06   |Residual|: 8.328e-04   |deigs|: 2.086e-03  t[s]:     30.49
	FillingsUpdate:  mu: -0.086102627  nElectrons: 9.000000  magneticMoment: [ Abs: 0.26340  Tot: +0.26000 ]
SCF: Cycle: 11   F: -20.187630143067274   dF: -2.313e-05   |Residual|: 7.394e-04   |deigs|: 2.371e-03  t[s]:     32.59
	FillingsUpdate:  mu: -0.084969804  nElectrons: 9.000000  magneticMoment: [ Abs: 0.26383  Tot: +0.26000 ]
SCF: Cycle: 12   F: -20.187650566684617   dF: -2.042e-05   |Residual|: 6.633e-04   |deigs|: 1.072e-03  t[s]:     34.64
	FillingsUpdate:  mu: -0.083430558  nElectrons: 9.000000  magneticMoment: [ Abs: 0.26316  Tot: +0.26000 ]
SCF: Cycle: 13   F: -20.187660595621658   dF: -1.003e-05   |Residual|: 6.053e-04   |deigs|: 1.539e-03  t[s]:     36.69
	FillingsUpdate:  mu: -0.081776270  nElectrons: 9.000000  magneticMoment: [ Abs: 0.26134  Tot: +0.26000 ]
SCF: Cycle: 14   F: -20.187669490119454   dF: -8.894e-06   |Residual|: 4.628e-04   |deigs|: 1.726e-03  t[s]:     38.83
	FillingsUpdate:  mu: -0.080968760  nElectrons: 9.000000  magneticMoment: [ Abs: 0.26137  Tot: +0.26000 ]
SCF: Cycle: 15   F: -20.187674020749494   dF: -4.531e-06   |Residual|: 3.618e-04   |deigs|: 1.212e-03  t[s]:     40.95
	FillingsUpdate:  mu: -0.080616230  nElectrons: 9.000000  magneticMoment: [ Abs: 0.26040  Tot: +0.26000 ]
SCF: Cycle: 16   F: -20.187677769185903   dF: -3.748e-06   |Residual|: 2.667e-04   |deigs|: 6.152e-04  t[s]:     43.13
	FillingsUpdate:  mu: -0.080790152  nElectrons: 9.000000  magneticMoment: [ Abs: 0.26009  Tot: +0.26000 ]
SCF: Cycle: 17   F: -20.187678735227365   dF: -9.660e-07   |Residual|: 1.432e-04   |deigs|: 4.297e-04  t[s]:     45.19
	FillingsUpdate:  mu: -0.080841974  nElectrons: 9.000000  magneticMoment: [ Abs: 0.26027  Tot: +0.26000 ]
SCF: Cycle: 18   F: -20.187679097148688   dF: -3.619e-07   |Residual|: 7.224e-05   |deigs|: 7.854e-04  t[s]:     47.28
	FillingsUpdate:  mu: -0.080752892  nElectrons: 9.000000  magneticMoment: [ Abs: 0.26011  Tot: +0.26000 ]
SCF: Cycle: 19   F: -20.187679292586530   dF: -1.954e-07   |Residual|: 4.627e-05   |deigs|: 6.368e-04  t[s]:     49.41
	FillingsUpdate:  mu: -0.080785771  nElectrons: 9.000000  magneticMoment: [ Abs: 0.26013  Tot: +0.26000 ]
SCF: Cycle: 20   F: -20.187679376028914   dF: -8.344e-08   |Residual|: 2.713e-05   |deigs|: 1.425e-04  t[s]:     51.52
	FillingsUpdate:  mu: -0.080815297  nElectrons: 9.000000  magneticMoment: [ Abs: 0.26014  Tot: +0.26000 ]
SCF: Cycle: 21   F: -20.187679401967440   dF: -2.594e-08   |Residual|: 1.711e-05   |deigs|: 8.940e-05  t[s]:     53.66
	FillingsUpdate:  mu: -0.080827160  nElectrons: 9.000000  magneticMoment: [ Abs: 0.26014  Tot: +0.26000 ]
SCF: Cycle: 22   F: -20.187679415070331   dF: -1.310e-08   |Residual|: 9.747e-06   |deigs|: 8.196e-05  t[s]:     55.78
	FillingsUpdate:  mu: -0.080834942  nElectrons: 9.000000  magneticMoment: [ Abs: 0.26014  Tot: +0.26000 ]
SCF: Cycle: 23   F: -20.187679423230328   dF: -8.160e-09   |Residual|: 5.726e-06   |deigs|: 9.062e-05  t[s]:     57.84
	FillingsUpdate:  mu: -0.080837539  nElectrons: 9.000000  magneticMoment: [ Abs: 0.26014  Tot: +0.26000 ]
SCF: Cycle: 24   F: -20.187679426461813   dF: -3.231e-09   |Residual|: 4.234e-06   |deigs|: 9.906e-05  t[s]:     59.98
SCF: Converged (|Delta E|<1.000000e-08 for 2 iters).


# Ionic positions in lattice coordinates:
ion Cs   0.000000000000000   0.000000000000000   0.000000000000000 0

# Forces in Lattice coordinates:
force Cs   0.000000000000000   0.000000000000000   0.000000000000000 0

# Energy components:
   Eewald =      -18.0480261003326561
       EH =       -1.8303793477520802
     Eloc =       -5.7536985034571178
      Enl =        3.4424787385779982
   Epulay =        0.0000000264484078
      Exc =       -3.1443771187212213
       KE =        5.1463232998240915
-------------------------------------
     Etot =      -20.1876790054125763
       TS =        0.0000004210492349
-------------------------------------
        F =      -20.1876794264618127

IonicMinimize: Iter:   0  F: -20.187679426461813  |grad|_K:  0.000e+00  t[s]:     60.14
IonicMinimize: Converged (|grad|_K<1.000000e-04).

#--- Lowdin population analysis ---
# oxidation-state Cs +0.052
# magnetic-moments Cs +0.228

End date and time: Sun Feb  6 13:23:59 2022  (Duration: 0-0:01:00.17)
Done!
