
*************** JDFTx 1.6.0 (git hash 42ebbcc2) ***************

Start date and time: Sun Feb  6 13:09:10 2022
Executable jdftx with command-line: -i Alkali.in
Running on hosts (process indices):  c-16-3-4 (0-18)
Divided in process groups (process indices):  0 (0)  1 (1)  2 (2)  3 (3)  4 (4)  5 (5)  6 (6)  7 (7)  8 (8)  9 (9)  10 (10)  11 (11)  12 (12)  13 (13)  14 (14)  15 (15)  16 (16)  17 (17)  18 (18)
Resource initialization completed at t[s]:      0.00
Run totals: 19 processes, 48 threads, 0 GPUs


Input parsed successfully to the following command list (including defaults):

basis kpoint-dependent
coords-type Lattice
core-overlap-check vector
coulomb-interaction Slab 001
davidson-band-ratio 1.1
dump End None
dump-name $INPUT.$VAR
elec-cutoff 20
elec-eigen-algo Davidson
elec-ex-corr gga-PBE
elec-initial-magnetization -1.000000 yes
elec-smearing Fermi 1e-05
electronic-minimize  \
	dirUpdateScheme      FletcherReeves \
	linminMethod         DirUpdateRecommended \
	nIterations          100 \
	history              15 \
	knormThreshold       0 \
	energyDiffThreshold  1e-08 \
	nEnergyDiff          2 \
	alphaTstart          1 \
	alphaTmin            1e-10 \
	updateTestStepSize   yes \
	alphaTreduceFactor   0.1 \
	alphaTincreaseFactor 3 \
	nAlphaAdjustMax      3 \
	wolfeEnergy          0.0001 \
	wolfeGradient        0.9 \
	fdTest               no
electronic-scf  \
	nIterations	10000 \
	energyDiffThreshold	1e-08 \
	residualThreshold	1e-07 \
	mixFraction	0.5 \
	qMetric	0.8 \
	history	10 \
	nEigSteps	2 \
	eigDiffThreshold	1e-08 \
	mixedVariable	Density \
	qKerker	0.8 \
	qKappa	-1 \
	verbose	no \
	mixFractionMag	1.5
exchange-regularization WignerSeitzTruncated
fluid None
fluid-ex-corr (null) lda-PZ
fluid-gummel-loop 10 1.000000e-05
fluid-minimize  \
	dirUpdateScheme      PolakRibiere \
	linminMethod         DirUpdateRecommended \
	nIterations          100 \
	history              15 \
	knormThreshold       0 \
	energyDiffThreshold  0 \
	nEnergyDiff          2 \
	alphaTstart          1 \
	alphaTmin            1e-10 \
	updateTestStepSize   yes \
	alphaTreduceFactor   0.1 \
	alphaTincreaseFactor 3 \
	nAlphaAdjustMax      3 \
	wolfeEnergy          0.0001 \
	wolfeGradient        0.9 \
	fdTest               no
fluid-solvent H2O 55.338 ScalarEOS \
	epsBulk 78.4 \
	pMol 0.92466 \
	epsInf 1.77 \
	Pvap 1.06736e-10 \
	sigmaBulk 4.62e-05 \
	Rvdw 2.61727 \
	Res 1.42 \
	tauNuc 343133 \
	poleEl 15 7 1
forces-output-coords Positions
ion Cs   0.000000000000000   0.000000000000000   0.000000000000000 0
ion-species SG15/$ID_ONCV_PBE.upf
ion-width 0
ionic-minimize  \
	dirUpdateScheme      L-BFGS \
	linminMethod         DirUpdateRecommended \
	nIterations          0 \
	history              15 \
	knormThreshold       0.0001 \
	energyDiffThreshold  1e-06 \
	nEnergyDiff          2 \
	alphaTstart          1 \
	alphaTmin            1e-10 \
	updateTestStepSize   yes \
	alphaTreduceFactor   0.1 \
	alphaTincreaseFactor 3 \
	nAlphaAdjustMax      3 \
	wolfeEnergy          0.0001 \
	wolfeGradient        0.9 \
	fdTest               no
kpoint   0.000000000000   0.000000000000   0.000000000000  1.00000000000000
kpoint-folding 12 12 1 
latt-move-scale 1 1 1
latt-scale 2 2 1 
lattice  \
	   4.727486978767153   -2.363743489383575    0.000000000000000  \
	  -0.000000000000000    4.094123819672498    0.000000000000000  \
	   0.000000000000000    0.000000000000000   40.000000000000000 
lattice-minimize  \
	dirUpdateScheme      L-BFGS \
	linminMethod         DirUpdateRecommended \
	nIterations          0 \
	history              15 \
	knormThreshold       0 \
	energyDiffThreshold  1e-06 \
	nEnergyDiff          2 \
	alphaTstart          1 \
	alphaTmin            1e-10 \
	updateTestStepSize   yes \
	alphaTreduceFactor   0.1 \
	alphaTincreaseFactor 3 \
	nAlphaAdjustMax      3 \
	wolfeEnergy          0.0001 \
	wolfeGradient        0.9 \
	fdTest               no
lcao-params -1 1e-06 1e-05
pcm-variant GLSSA13
spintype z-spin
subspace-rotation-factor 1 yes
symmetries automatic
symmetry-threshold 0.0001



---------- Setting up symmetries ----------

Found 24 point-group symmetries of the bravais lattice
Found 24 space-group symmetries with basis
Applied RMS atom displacement 0 bohrs to make symmetries exact.

---------- Initializing the Grid ----------
R = 
[      9.45497     -4.72749            0  ]
[            0      8.18825            0  ]
[            0            0           40  ]
unit cell volume = 3096.79
G =
[   0.664538   0.383671         -0  ]
[          0   0.767342         -0  ]
[         -0         -0    0.15708  ]
Minimum fftbox size, Smin = [  40  40  164  ]
Chosen fftbox size, S = [  40  40  168  ]

---------- Exchange Correlation functional ----------
Initalized PBE GGA exchange.
Initalized PBE GGA correlation.

---------- Setting up pseudopotentials ----------
Width of ionic core gaussian charges (only for fluid interactions / plotting) set to 0

Reading pseudopotential file '/home/gridsan/aligho/DFT/build-Nov24/pseudopotentials/SG15/Cs_ONCV_PBE.upf':
  'Cs' pseudopotential, 'PBE' functional
  Generated using ONCVPSP code by D. R. Hamann
  Author: Martin Schlipf and Francois Gygi  Date: 150915.
  9 valence electrons, 3 orbitals, 6 projectors, 2414 radial grid points, with lMax = 2
  Transforming local potential to a uniform radial grid of dG=0.02 with 1489 points.
  Transforming nonlocal projectors to a uniform radial grid of dG=0.02 with 432 points.
    5S    l: 0   occupation:  2.0   eigenvalue: -0.982388
    5P    l: 1   occupation:  6.0   eigenvalue: -0.496786
    6S    l: 0   occupation:  1.0   eigenvalue: -0.076670
  Transforming atomic orbitals to a uniform radial grid of dG=0.02 with 432 points.
  Core radius for overlap checks: 2.06 bohrs.
  Reading pulay file /home/gridsan/aligho/DFT/build-Nov24/pseudopotentials/SG15/Cs_ONCV_PBE.pulay ... using dE_dnG = -1.008762e-04 computed for Ecut = 20.

Initialized 1 species with 1 total atoms.

Folded 1 k-points by 12x12x1 to 144 k-points.

---------- Setting up k-points, bands, fillings ----------
Reduced to 19 k-points under symmetry. 
Computing the number of bands and number of electrons
Calculating initial fillings.
nElectrons:   9.000000   nBands: 6   nStates: 38

----- Setting up reduced wavefunction bases (one per k-point) -----
average nbasis = 13230.521 , ideal nbasis = 13229.709

---------- Setting up coulomb interaction ----------
Initialized slab truncation along lattice direction 001

---------- Setting up 2D ewald sum ----------
Optimum gaussian width for ewald sums = 5.249020 bohr.
Real space sums over 289 unit cells with max indices [  8  8  0  ]
Reciprocal space sums over 81 terms with max indices [  4  4  0  ]

---------- Allocating electronic variables ----------
Initializing wave functions:  linear combination of atomic orbitals
Note: number of bands (6) exceeds available atomic orbitals (5)
Cs pseudo-atom occupations:   s ( 2 1 )  p ( 6 )
	FillingsUpdate:  mu: -0.100000000  nElectrons: 9.000000  magneticMoment: [ Abs: 1.00000  Tot: -1.00000 ]
LCAOMinimize: Iter:   0  F: -20.1581404852743802  |grad|_K:       -nan  alpha:  1.000e+00
LCAOMinimize: |grad|_K=-nan. Stopping ...


---- Citations for features of the code used in this run ----

   Software package:
      R. Sundararaman, K. Letchworth-Weaver, K.A. Schwarz, D. Gunceler, Y. Ozhabes and T.A. Arias, 'JDFTx: software for joint density-functional theory', SoftwareX 6, 278 (2017)

   gga-PBE exchange-correlation functional:
      J.P. Perdew, K. Burke and M. Ernzerhof, Phys. Rev. Lett. 77, 3865 (1996)

   Pseudopotentials:
      M Schlipf and F Gygi, Comput. Phys. Commun. 196, 36 (2015)

   Truncated Coulomb potentials:
      R. Sundararaman and T.A. Arias, Phys. Rev. B 87, 165122 (2013)

This list may not be complete. Please suggest additional citations or
report any other bugs at https://github.com/shankar1729/jdftx/issues

Initialization completed successfully at t[s]:      3.57


-------- Electronic minimization -----------
Will mix electronic density at each iteration.
	FillingsUpdate:  mu: -0.100000000  nElectrons: 9.000000  magneticMoment: [ Abs: 1.00000  Tot: -1.00000 ]
	FillingsUpdate:  mu: -0.200000000  nElectrons: 9.000000  magneticMoment: [ Abs: 1.00000  Tot: -1.00000 ]
SCF: Cycle:  0   F: -20.173299409985731   dF: -1.516e-02   |Residual|: 2.237e-02   |deigs|: 1.912e-01  t[s]:      6.05
	FillingsUpdate:  mu: -0.112329693  nElectrons: 9.000000  magneticMoment: [ Abs: 1.00000  Tot: -1.00000 ]
SCF: Cycle:  1   F: -20.175060965500432   dF: -1.762e-03   |Residual|: 1.589e-02   |deigs|: 6.227e-03  t[s]:      7.90
	FillingsUpdate:  mu: -0.200000000  nElectrons: 9.000000  magneticMoment: [ Abs: 1.00756  Tot: -1.00000 ]
SCF: Cycle:  2   F: -20.175804057231321   dF: -7.431e-04   |Residual|: 8.421e-03   |deigs|: 1.754e-03  t[s]:      9.78
	FillingsUpdate:  mu: -0.111513789  nElectrons: 9.000000  magneticMoment: [ Abs: 1.00000  Tot: -1.00000 ]
SCF: Cycle:  3   F: -20.176115902919346   dF: -3.118e-04   |Residual|: 5.093e-03   |deigs|: 2.951e-03  t[s]:     11.69
	FillingsUpdate:  mu: -0.106867687  nElectrons: 9.000000  magneticMoment: [ Abs: 1.00015  Tot: -1.00000 ]
SCF: Cycle:  4   F: -20.176412564896573   dF: -2.967e-04   |Residual|: 3.411e-03   |deigs|: 3.548e-03  t[s]:     13.61
	FillingsUpdate:  mu: -0.107907879  nElectrons: 9.000000  magneticMoment: [ Abs: 1.00000  Tot: -1.00000 ]
SCF: Cycle:  5   F: -20.176315500619534   dF: +9.706e-05   |Residual|: 3.856e-03   |deigs|: 1.146e-03  t[s]:     15.54
	FillingsUpdate:  mu: -0.174825190  nElectrons: 9.000000  magneticMoment: [ Abs: 1.00155  Tot: -1.00000 ]
SCF: Cycle:  6   F: -20.176345652678965   dF: -3.015e-05   |Residual|: 3.217e-03   |deigs|: 2.072e-03  t[s]:     17.63
	FillingsUpdate:  mu: -0.200000000  nElectrons: 9.000000  magneticMoment: [ Abs: 1.00105  Tot: -1.00000 ]
SCF: Cycle:  7   F: -20.176361267827058   dF: -1.562e-05   |Residual|: 2.811e-03   |deigs|: 1.558e-03  t[s]:     19.63
	FillingsUpdate:  mu: -0.170509240  nElectrons: 9.000000  magneticMoment: [ Abs: 1.00047  Tot: -1.00000 ]
SCF: Cycle:  8   F: -20.176380279629619   dF: -1.901e-05   |Residual|: 1.905e-03   |deigs|: 3.949e-03  t[s]:     21.63
	FillingsUpdate:  mu: -0.100000000  nElectrons: 9.000000  magneticMoment: [ Abs: 1.00012  Tot: -1.00000 ]
SCF: Cycle:  9   F: -20.176393141993366   dF: -1.286e-05   |Residual|: 1.424e-03   |deigs|: 1.526e-03  t[s]:     23.72
	FillingsUpdate:  mu: -0.100000000  nElectrons: 9.000000  magneticMoment: [ Abs: 1.00230  Tot: -1.00000 ]
SCF: Cycle: 10   F: -20.176557203644894   dF: -1.641e-04   |Residual|: 2.021e-03   |deigs|: 2.451e-03  t[s]:     25.84
	FillingsUpdate:  mu: -0.099619801  nElectrons: 9.000000  magneticMoment: [ Abs: 1.00035  Tot: -1.00000 ]
SCF: Cycle: 11   F: -20.176560160760641   dF: -2.957e-06   |Residual|: 9.786e-04   |deigs|: 2.726e-03  t[s]:     27.95
	FillingsUpdate:  mu: -0.200000000  nElectrons: 9.000000  magneticMoment: [ Abs: 1.00167  Tot: -1.00000 ]
SCF: Cycle: 12   F: -20.176594558061307   dF: -3.440e-05   |Residual|: 1.312e-03   |deigs|: 1.907e-03  t[s]:     30.05
	FillingsUpdate:  mu: -0.154478904  nElectrons: 9.000000  magneticMoment: [ Abs: 1.00515  Tot: -1.00000 ]
SCF: Cycle: 13   F: -20.176594163483632   dF: +3.946e-07   |Residual|: 1.461e-03   |deigs|: 6.809e-04  t[s]:     32.09
	FillingsUpdate:  mu: -0.101300044  nElectrons: 9.000000  magneticMoment: [ Abs: 1.00498  Tot: -1.00000 ]
SCF: Cycle: 14   F: -20.176593007412897   dF: +1.156e-06   |Residual|: 1.636e-03   |deigs|: 7.833e-04  t[s]:     34.16
	FillingsUpdate:  mu: -0.136453454  nElectrons: 9.000000  magneticMoment: [ Abs: 1.00394  Tot: -1.00000 ]
SCF: Cycle: 15   F: -20.176595428931893   dF: -2.422e-06   |Residual|: 1.429e-03   |deigs|: 8.048e-04  t[s]:     36.21
	FillingsUpdate:  mu: -0.100000000  nElectrons: 9.000000  magneticMoment: [ Abs: 1.00368  Tot: -1.00000 ]
SCF: Cycle: 16   F: -20.176601313181990   dF: -5.884e-06   |Residual|: 9.697e-04   |deigs|: 1.855e-03  t[s]:     38.30
	FillingsUpdate:  mu: -0.100000000  nElectrons: 9.000000  magneticMoment: [ Abs: 1.00338  Tot: -1.00000 ]
SCF: Cycle: 17   F: -20.176607460751583   dF: -6.148e-06   |Residual|: 6.614e-04   |deigs|: 1.701e-03  t[s]:     40.37
	FillingsUpdate:  mu: -0.100000000  nElectrons: 9.000000  magneticMoment: [ Abs: 1.00219  Tot: -1.00000 ]
SCF: Cycle: 18   F: -20.176612821129904   dF: -5.360e-06   |Residual|: 3.033e-04   |deigs|: 2.346e-03  t[s]:     42.47
	FillingsUpdate:  mu: -0.099540075  nElectrons: 9.000000  magneticMoment: [ Abs: 1.00180  Tot: -1.00000 ]
SCF: Cycle: 19   F: -20.176615615534086   dF: -2.794e-06   |Residual|: 3.419e-04   |deigs|: 1.453e-03  t[s]:     44.57
	FillingsUpdate:  mu: -0.094724960  nElectrons: 9.000000  magneticMoment: [ Abs: 1.00110  Tot: -1.00000 ]
SCF: Cycle: 20   F: -20.176616808925413   dF: -1.193e-06   |Residual|: 1.509e-04   |deigs|: 5.148e-04  t[s]:     46.66
	FillingsUpdate:  mu: -0.094569810  nElectrons: 9.000000  magneticMoment: [ Abs: 1.00073  Tot: -1.00000 ]
SCF: Cycle: 21   F: -20.176618538676490   dF: -1.730e-06   |Residual|: 1.082e-04   |deigs|: 2.845e-04  t[s]:     48.78
	FillingsUpdate:  mu: -0.100000000  nElectrons: 9.000000  magneticMoment: [ Abs: 1.00055  Tot: -1.00000 ]
SCF: Cycle: 22   F: -20.176619026737519   dF: -4.881e-07   |Residual|: 6.842e-05   |deigs|: 2.472e-04  t[s]:     50.83
	FillingsUpdate:  mu: -0.100000000  nElectrons: 9.000000  magneticMoment: [ Abs: 1.00041  Tot: -1.00000 ]
SCF: Cycle: 23   F: -20.176619323065268   dF: -2.963e-07   |Residual|: 4.977e-05   |deigs|: 2.095e-04  t[s]:     52.89
	FillingsUpdate:  mu: -0.095094816  nElectrons: 9.000000  magneticMoment: [ Abs: 1.00046  Tot: -1.00000 ]
SCF: Cycle: 24   F: -20.176619434803282   dF: -1.117e-07   |Residual|: 3.812e-05   |deigs|: 3.411e-04  t[s]:     54.91
	FillingsUpdate:  mu: -0.100000000  nElectrons: 9.000000  magneticMoment: [ Abs: 1.00053  Tot: -1.00000 ]
SCF: Cycle: 25   F: -20.176619533203382   dF: -9.840e-08   |Residual|: 2.667e-05   |deigs|: 3.879e-04  t[s]:     57.01
	FillingsUpdate:  mu: -0.095129044  nElectrons: 9.000000  magneticMoment: [ Abs: 1.00044  Tot: -1.00000 ]
SCF: Cycle: 26   F: -20.176619568291326   dF: -3.509e-08   |Residual|: 2.635e-05   |deigs|: 8.051e-05  t[s]:     59.13
	FillingsUpdate:  mu: -0.100000000  nElectrons: 9.000000  magneticMoment: [ Abs: 1.00032  Tot: -1.00000 ]
SCF: Cycle: 27   F: -20.176619584655956   dF: -1.636e-08   |Residual|: 1.965e-05   |deigs|: 8.939e-05  t[s]:     61.24
	FillingsUpdate:  mu: -0.095103209  nElectrons: 9.000000  magneticMoment: [ Abs: 1.00021  Tot: -1.00000 ]
SCF: Cycle: 28   F: -20.176619606012480   dF: -2.136e-08   |Residual|: 1.229e-05   |deigs|: 5.910e-05  t[s]:     63.37
	FillingsUpdate:  mu: -0.095118061  nElectrons: 9.000000  magneticMoment: [ Abs: 1.00016  Tot: -1.00000 ]
SCF: Cycle: 29   F: -20.176619616258517   dF: -1.025e-08   |Residual|: 7.093e-06   |deigs|: 4.932e-05  t[s]:     65.45
	FillingsUpdate:  mu: -0.100000000  nElectrons: 9.000000  magneticMoment: [ Abs: 1.00015  Tot: -1.00000 ]
SCF: Cycle: 30   F: -20.176619621815892   dF: -5.557e-09   |Residual|: 5.130e-06   |deigs|: 5.187e-04  t[s]:     67.54
	FillingsUpdate:  mu: -0.100000000  nElectrons: 9.000000  magneticMoment: [ Abs: 1.00013  Tot: -1.00000 ]
SCF: Cycle: 31   F: -20.176619628124016   dF: -6.308e-09   |Residual|: 3.357e-06   |deigs|: 5.336e-04  t[s]:     69.67
SCF: Converged (|Delta E|<1.000000e-08 for 2 iters).


# Ionic positions in lattice coordinates:
ion Cs   0.000000000000000   0.000000000000000   0.000000000000000 0

# Forces in Lattice coordinates:
force Cs  -0.000000000000000  -0.000000000000000   0.000000000000000 0

# Energy components:
   Eewald =      -18.0480261003326561
       EH =       -1.8673756195539364
     Eloc =       -5.7089737932291875
      Enl =        3.4342452505515411
   Epulay =        0.0000000264484078
      Exc =       -3.1511914030122590
       KE =        5.1647021987379089
-------------------------------------
     Etot =      -20.1766194403901800
       TS =        0.0000001877338370
-------------------------------------
        F =      -20.1766196281240155

IonicMinimize: Iter:   0  F: -20.176619628124016  |grad|_K:  0.000e+00  t[s]:     69.79
IonicMinimize: Converged (|grad|_K<1.000000e-04).

#--- Lowdin population analysis ---
# oxidation-state Cs +0.232
# magnetic-moments Cs -0.769

End date and time: Sun Feb  6 13:10:20 2022  (Duration: 0-0:01:09.81)
Done!
