
*************** JDFTx 1.6.0 (git hash 42ebbcc2) ***************

Start date and time: Sun Feb  6 13:15:50 2022
Executable jdftx with command-line: -i Alkali.in
Running on hosts (process indices):  d-4-9-2 (0-18)
Divided in process groups (process indices):  0 (0)  1 (1)  2 (2)  3 (3)  4 (4)  5 (5)  6 (6)  7 (7)  8 (8)  9 (9)  10 (10)  11 (11)  12 (12)  13 (13)  14 (14)  15 (15)  16 (16)  17 (17)  18 (18)
Resource initialization completed at t[s]:      0.00
Run totals: 19 processes, 48 threads, 0 GPUs


Input parsed successfully to the following command list (including defaults):

basis kpoint-dependent
coords-type Lattice
core-overlap-check vector
coulomb-interaction Slab 001
davidson-band-ratio 1.1
dump End None
dump-name $INPUT.$VAR
elec-cutoff 20
elec-eigen-algo Davidson
elec-ex-corr gga-PBE
elec-initial-magnetization -0.480000 yes
elec-smearing Fermi 1e-05
electronic-minimize  \
	dirUpdateScheme      FletcherReeves \
	linminMethod         DirUpdateRecommended \
	nIterations          100 \
	history              15 \
	knormThreshold       0 \
	energyDiffThreshold  1e-08 \
	nEnergyDiff          2 \
	alphaTstart          1 \
	alphaTmin            1e-10 \
	updateTestStepSize   yes \
	alphaTreduceFactor   0.1 \
	alphaTincreaseFactor 3 \
	nAlphaAdjustMax      3 \
	wolfeEnergy          0.0001 \
	wolfeGradient        0.9 \
	fdTest               no
electronic-scf  \
	nIterations	10000 \
	energyDiffThreshold	1e-08 \
	residualThreshold	1e-07 \
	mixFraction	0.5 \
	qMetric	0.8 \
	history	10 \
	nEigSteps	2 \
	eigDiffThreshold	1e-08 \
	mixedVariable	Density \
	qKerker	0.8 \
	qKappa	-1 \
	verbose	no \
	mixFractionMag	1.5
exchange-regularization WignerSeitzTruncated
fluid None
fluid-ex-corr (null) lda-PZ
fluid-gummel-loop 10 1.000000e-05
fluid-minimize  \
	dirUpdateScheme      PolakRibiere \
	linminMethod         DirUpdateRecommended \
	nIterations          100 \
	history              15 \
	knormThreshold       0 \
	energyDiffThreshold  0 \
	nEnergyDiff          2 \
	alphaTstart          1 \
	alphaTmin            1e-10 \
	updateTestStepSize   yes \
	alphaTreduceFactor   0.1 \
	alphaTincreaseFactor 3 \
	nAlphaAdjustMax      3 \
	wolfeEnergy          0.0001 \
	wolfeGradient        0.9 \
	fdTest               no
fluid-solvent H2O 55.338 ScalarEOS \
	epsBulk 78.4 \
	pMol 0.92466 \
	epsInf 1.77 \
	Pvap 1.06736e-10 \
	sigmaBulk 4.62e-05 \
	Rvdw 2.61727 \
	Res 1.42 \
	tauNuc 343133 \
	poleEl 15 7 1
forces-output-coords Positions
ion Cs   0.000000000000000   0.000000000000000   0.000000000000000 0
ion-species SG15/$ID_ONCV_PBE.upf
ion-width 0
ionic-minimize  \
	dirUpdateScheme      L-BFGS \
	linminMethod         DirUpdateRecommended \
	nIterations          0 \
	history              15 \
	knormThreshold       0.0001 \
	energyDiffThreshold  1e-06 \
	nEnergyDiff          2 \
	alphaTstart          1 \
	alphaTmin            1e-10 \
	updateTestStepSize   yes \
	alphaTreduceFactor   0.1 \
	alphaTincreaseFactor 3 \
	nAlphaAdjustMax      3 \
	wolfeEnergy          0.0001 \
	wolfeGradient        0.9 \
	fdTest               no
kpoint   0.000000000000   0.000000000000   0.000000000000  1.00000000000000
kpoint-folding 12 12 1 
latt-move-scale 1 1 1
latt-scale 2 2 1 
lattice  \
	   4.727486978767153   -2.363743489383575    0.000000000000000  \
	  -0.000000000000000    4.094123819672498    0.000000000000000  \
	   0.000000000000000    0.000000000000000   40.000000000000000 
lattice-minimize  \
	dirUpdateScheme      L-BFGS \
	linminMethod         DirUpdateRecommended \
	nIterations          0 \
	history              15 \
	knormThreshold       0 \
	energyDiffThreshold  1e-06 \
	nEnergyDiff          2 \
	alphaTstart          1 \
	alphaTmin            1e-10 \
	updateTestStepSize   yes \
	alphaTreduceFactor   0.1 \
	alphaTincreaseFactor 3 \
	nAlphaAdjustMax      3 \
	wolfeEnergy          0.0001 \
	wolfeGradient        0.9 \
	fdTest               no
lcao-params -1 1e-06 1e-05
pcm-variant GLSSA13
spintype z-spin
subspace-rotation-factor 1 yes
symmetries automatic
symmetry-threshold 0.0001



---------- Setting up symmetries ----------

Found 24 point-group symmetries of the bravais lattice
Found 24 space-group symmetries with basis
Applied RMS atom displacement 0 bohrs to make symmetries exact.

---------- Initializing the Grid ----------
R = 
[      9.45497     -4.72749            0  ]
[            0      8.18825            0  ]
[            0            0           40  ]
unit cell volume = 3096.79
G =
[   0.664538   0.383671         -0  ]
[          0   0.767342         -0  ]
[         -0         -0    0.15708  ]
Minimum fftbox size, Smin = [  40  40  164  ]
Chosen fftbox size, S = [  40  40  168  ]

---------- Exchange Correlation functional ----------
Initalized PBE GGA exchange.
Initalized PBE GGA correlation.

---------- Setting up pseudopotentials ----------
Width of ionic core gaussian charges (only for fluid interactions / plotting) set to 0

Reading pseudopotential file '/home/gridsan/aligho/DFT/build-Nov24/pseudopotentials/SG15/Cs_ONCV_PBE.upf':
  'Cs' pseudopotential, 'PBE' functional
  Generated using ONCVPSP code by D. R. Hamann
  Author: Martin Schlipf and Francois Gygi  Date: 150915.
  9 valence electrons, 3 orbitals, 6 projectors, 2414 radial grid points, with lMax = 2
  Transforming local potential to a uniform radial grid of dG=0.02 with 1489 points.
  Transforming nonlocal projectors to a uniform radial grid of dG=0.02 with 432 points.
    5S    l: 0   occupation:  2.0   eigenvalue: -0.982388
    5P    l: 1   occupation:  6.0   eigenvalue: -0.496786
    6S    l: 0   occupation:  1.0   eigenvalue: -0.076670
  Transforming atomic orbitals to a uniform radial grid of dG=0.02 with 432 points.
  Core radius for overlap checks: 2.06 bohrs.
  Reading pulay file /home/gridsan/aligho/DFT/build-Nov24/pseudopotentials/SG15/Cs_ONCV_PBE.pulay ... using dE_dnG = -1.008762e-04 computed for Ecut = 20.

Initialized 1 species with 1 total atoms.

Folded 1 k-points by 12x12x1 to 144 k-points.

---------- Setting up k-points, bands, fillings ----------
Reduced to 19 k-points under symmetry. 
Computing the number of bands and number of electrons
Calculating initial fillings.
nElectrons:   9.000000   nBands: 6   nStates: 38

----- Setting up reduced wavefunction bases (one per k-point) -----
average nbasis = 13230.521 , ideal nbasis = 13229.709

---------- Setting up coulomb interaction ----------
Initialized slab truncation along lattice direction 001

---------- Setting up 2D ewald sum ----------
Optimum gaussian width for ewald sums = 5.249020 bohr.
Real space sums over 289 unit cells with max indices [  8  8  0  ]
Reciprocal space sums over 81 terms with max indices [  4  4  0  ]

---------- Allocating electronic variables ----------
Initializing wave functions:  linear combination of atomic orbitals
Note: number of bands (6) exceeds available atomic orbitals (5)
Cs pseudo-atom occupations:   s ( 2 1 )  p ( 6 )
	FillingsUpdate:  mu: -0.089178305  nElectrons: 9.000000  magneticMoment: [ Abs: 0.48000  Tot: -0.48000 ]
LCAOMinimize: Iter:   0  F: -20.1770137788302719  |grad|_K:  3.186e-05  alpha:  1.000e+00
	FillingsUpdate:  mu: -0.089164441  nElectrons: 9.000000  magneticMoment: [ Abs: 0.48000  Tot: -0.48000 ]
LCAOMinimize: Iter:   1  F: -20.1770144581847326  |grad|_K:  3.108e-07  alpha:  9.783e-01  linmin: -3.791e-02  cgtest:  2.987e-01  t[s]:      4.73
LCAOMinimize: Encountered beta<0, resetting CG.
	FillingsUpdate:  mu: -0.089164550  nElectrons: 9.000000  magneticMoment: [ Abs: 0.48000  Tot: -0.48000 ]
LCAOMinimize: Iter:   2  F: -20.1770144582500173  |grad|_K:  5.090e-09  alpha:  9.846e-01  linmin: -1.450e-01  cgtest:  9.787e-01  t[s]:      5.90
LCAOMinimize: Encountered beta<0, resetting CG.
LCAOMinimize: Converged (|Delta F|<1.000000e-06 for 2 iters).


---- Citations for features of the code used in this run ----

   Software package:
      R. Sundararaman, K. Letchworth-Weaver, K.A. Schwarz, D. Gunceler, Y. Ozhabes and T.A. Arias, 'JDFTx: software for joint density-functional theory', SoftwareX 6, 278 (2017)

   gga-PBE exchange-correlation functional:
      J.P. Perdew, K. Burke and M. Ernzerhof, Phys. Rev. Lett. 77, 3865 (1996)

   Pseudopotentials:
      M Schlipf and F Gygi, Comput. Phys. Commun. 196, 36 (2015)

   Truncated Coulomb potentials:
      R. Sundararaman and T.A. Arias, Phys. Rev. B 87, 165122 (2013)

This list may not be complete. Please suggest additional citations or
report any other bugs at https://github.com/shankar1729/jdftx/issues

Initialization completed successfully at t[s]:      5.99


-------- Electronic minimization -----------
Will mix electronic density at each iteration.
	FillingsUpdate:  mu: -0.089164550  nElectrons: 9.000000  magneticMoment: [ Abs: 0.48000  Tot: -0.48000 ]
	FillingsUpdate:  mu: -0.101645490  nElectrons: 9.000000  magneticMoment: [ Abs: 0.48000  Tot: -0.48000 ]
SCF: Cycle:  0   F: -20.184547566463294   dF: -7.533e-03   |Residual|: 1.494e-02   |deigs|: 1.880e-01  t[s]:      8.35
	FillingsUpdate:  mu: -0.101543032  nElectrons: 9.000000  magneticMoment: [ Abs: 0.48000  Tot: -0.48000 ]
SCF: Cycle:  1   F: -20.185286244848388   dF: -7.387e-04   |Residual|: 1.157e-02   |deigs|: 5.389e-03  t[s]:     10.17
	FillingsUpdate:  mu: -0.098768285  nElectrons: 9.000000  magneticMoment: [ Abs: 0.48849  Tot: -0.48000 ]
SCF: Cycle:  2   F: -20.185645738387048   dF: -3.595e-04   |Residual|: 5.977e-03   |deigs|: 2.395e-03  t[s]:     12.01
	FillingsUpdate:  mu: -0.096821868  nElectrons: 9.000000  magneticMoment: [ Abs: 0.48000  Tot: -0.48000 ]
SCF: Cycle:  3   F: -20.185812176157071   dF: -1.664e-04   |Residual|: 3.948e-03   |deigs|: 2.888e-03  t[s]:     13.84
	FillingsUpdate:  mu: -0.094336802  nElectrons: 9.000000  magneticMoment: [ Abs: 0.48017  Tot: -0.48000 ]
SCF: Cycle:  4   F: -20.185891257411122   dF: -7.908e-05   |Residual|: 2.957e-03   |deigs|: 3.173e-03  t[s]:     15.74
	FillingsUpdate:  mu: -0.091723569  nElectrons: 9.000000  magneticMoment: [ Abs: 0.48543  Tot: -0.48000 ]
SCF: Cycle:  5   F: -20.185933946032968   dF: -4.269e-05   |Residual|: 2.546e-03   |deigs|: 3.337e-03  t[s]:     17.64
	FillingsUpdate:  mu: -0.088869108  nElectrons: 9.000000  magneticMoment: [ Abs: 0.49386  Tot: -0.48000 ]
SCF: Cycle:  6   F: -20.185935254447998   dF: -1.308e-06   |Residual|: 1.771e-03   |deigs|: 3.470e-03  t[s]:     19.60
	FillingsUpdate:  mu: -0.086328485  nElectrons: 9.000000  magneticMoment: [ Abs: 0.49233  Tot: -0.48000 ]
SCF: Cycle:  7   F: -20.185974762988714   dF: -3.951e-05   |Residual|: 1.480e-03   |deigs|: 2.764e-03  t[s]:     21.55
	FillingsUpdate:  mu: -0.085923924  nElectrons: 9.000000  magneticMoment: [ Abs: 0.48311  Tot: -0.48000 ]
SCF: Cycle:  8   F: -20.186007475378958   dF: -3.271e-05   |Residual|: 1.248e-03   |deigs|: 1.127e-03  t[s]:     23.58
	FillingsUpdate:  mu: -0.084100630  nElectrons: 9.000000  magneticMoment: [ Abs: 0.48453  Tot: -0.48000 ]
SCF: Cycle:  9   F: -20.185995743677633   dF: +1.173e-05   |Residual|: 1.034e-03   |deigs|: 1.922e-03  t[s]:     25.59
	FillingsUpdate:  mu: -0.081992395  nElectrons: 9.000000  magneticMoment: [ Abs: 0.48686  Tot: -0.48000 ]
SCF: Cycle: 10   F: -20.185990725398678   dF: +5.018e-06   |Residual|: 8.686e-04   |deigs|: 2.252e-03  t[s]:     27.63
	FillingsUpdate:  mu: -0.080704607  nElectrons: 9.000000  magneticMoment: [ Abs: 0.48612  Tot: -0.48000 ]
SCF: Cycle: 11   F: -20.186007098342966   dF: -1.637e-05   |Residual|: 7.870e-04   |deigs|: 1.374e-03  t[s]:     29.64
	FillingsUpdate:  mu: -0.079331568  nElectrons: 9.000000  magneticMoment: [ Abs: 0.48673  Tot: -0.48000 ]
SCF: Cycle: 12   F: -20.186034052934751   dF: -2.695e-05   |Residual|: 7.535e-04   |deigs|: 1.346e-03  t[s]:     31.65
	FillingsUpdate:  mu: -0.077279415  nElectrons: 9.000000  magneticMoment: [ Abs: 0.48664  Tot: -0.48000 ]
SCF: Cycle: 13   F: -20.186045677437985   dF: -1.162e-05   |Residual|: 6.914e-04   |deigs|: 2.116e-03  t[s]:     33.67
	FillingsUpdate:  mu: -0.075095639  nElectrons: 9.000000  magneticMoment: [ Abs: 0.48324  Tot: -0.48000 ]
SCF: Cycle: 14   F: -20.186055942079129   dF: -1.026e-05   |Residual|: 5.791e-04   |deigs|: 2.286e-03  t[s]:     35.62
	FillingsUpdate:  mu: -0.074154663  nElectrons: 9.000000  magneticMoment: [ Abs: 0.48117  Tot: -0.48000 ]
SCF: Cycle: 15   F: -20.186063679080114   dF: -7.737e-06   |Residual|: 4.156e-04   |deigs|: 1.018e-03  t[s]:     37.65
	FillingsUpdate:  mu: -0.073227979  nElectrons: 9.000000  magneticMoment: [ Abs: 0.48109  Tot: -0.48000 ]
SCF: Cycle: 16   F: -20.186067902780991   dF: -4.224e-06   |Residual|: 3.031e-04   |deigs|: 1.039e-03  t[s]:     39.59
	FillingsUpdate:  mu: -0.072974355  nElectrons: 9.000000  magneticMoment: [ Abs: 0.48032  Tot: -0.48000 ]
SCF: Cycle: 17   F: -20.186069882735936   dF: -1.980e-06   |Residual|: 1.999e-04   |deigs|: 1.197e-03  t[s]:     41.62
	FillingsUpdate:  mu: -0.073060563  nElectrons: 9.000000  magneticMoment: [ Abs: 0.48073  Tot: -0.48000 ]
SCF: Cycle: 18   F: -20.186071022582482   dF: -1.140e-06   |Residual|: 1.294e-04   |deigs|: 5.592e-04  t[s]:     43.60
	FillingsUpdate:  mu: -0.073270912  nElectrons: 9.000000  magneticMoment: [ Abs: 0.48053  Tot: -0.48000 ]
SCF: Cycle: 19   F: -20.186071479554734   dF: -4.570e-07   |Residual|: 5.896e-05   |deigs|: 3.175e-04  t[s]:     45.61
	FillingsUpdate:  mu: -0.073262805  nElectrons: 9.000000  magneticMoment: [ Abs: 0.48024  Tot: -0.48000 ]
SCF: Cycle: 20   F: -20.186071632245422   dF: -1.527e-07   |Residual|: 3.341e-05   |deigs|: 1.012e-04  t[s]:     47.69
	FillingsUpdate:  mu: -0.073260603  nElectrons: 9.000000  magneticMoment: [ Abs: 0.48022  Tot: -0.48000 ]
SCF: Cycle: 21   F: -20.186071717097107   dF: -8.485e-08   |Residual|: 2.059e-05   |deigs|: 7.194e-05  t[s]:     49.72
	FillingsUpdate:  mu: -0.073271651  nElectrons: 9.000000  magneticMoment: [ Abs: 0.48024  Tot: -0.48000 ]
SCF: Cycle: 22   F: -20.186071754498581   dF: -3.740e-08   |Residual|: 1.575e-05   |deigs|: 7.606e-05  t[s]:     51.72
	FillingsUpdate:  mu: -0.073279176  nElectrons: 9.000000  magneticMoment: [ Abs: 0.48029  Tot: -0.48000 ]
SCF: Cycle: 23   F: -20.186071785109725   dF: -3.061e-08   |Residual|: 9.179e-06   |deigs|: 9.291e-05  t[s]:     53.73
	FillingsUpdate:  mu: -0.073279817  nElectrons: 9.000000  magneticMoment: [ Abs: 0.48030  Tot: -0.48000 ]
SCF: Cycle: 24   F: -20.186071799804491   dF: -1.469e-08   |Residual|: 5.289e-06   |deigs|: 1.148e-04  t[s]:     55.71
	FillingsUpdate:  mu: -0.073275873  nElectrons: 9.000000  magneticMoment: [ Abs: 0.48028  Tot: -0.48000 ]
SCF: Cycle: 25   F: -20.186071808054251   dF: -8.250e-09   |Residual|: 4.023e-06   |deigs|: 1.435e-04  t[s]:     57.76
	FillingsUpdate:  mu: -0.073276467  nElectrons: 9.000000  magneticMoment: [ Abs: 0.48027  Tot: -0.48000 ]
SCF: Cycle: 26   F: -20.186071813127853   dF: -5.074e-09   |Residual|: 3.790e-06   |deigs|: 1.506e-04  t[s]:     59.80
SCF: Converged (|Delta E|<1.000000e-08 for 2 iters).


# Ionic positions in lattice coordinates:
ion Cs   0.000000000000000   0.000000000000000   0.000000000000000 0

# Forces in Lattice coordinates:
force Cs   0.000000000000000   0.000000000000000   0.000000000000000 0

# Energy components:
   Eewald =      -18.0480261003326561
       EH =       -1.7958235581590127
     Eloc =       -5.7854425691205087
      Enl =        3.4399000747992057
   Epulay =        0.0000000264484078
      Exc =       -3.1473864620466889
       KE =        5.1507070416746563
-------------------------------------
     Etot =      -20.1860715467365992
       TS =        0.0000002663912536
-------------------------------------
        F =      -20.1860718131278531

IonicMinimize: Iter:   0  F: -20.186071813127853  |grad|_K:  0.000e+00  t[s]:     59.92
IonicMinimize: Converged (|grad|_K<1.000000e-04).

#--- Lowdin population analysis ---
# oxidation-state Cs +0.082
# magnetic-moments Cs -0.409

End date and time: Sun Feb  6 13:16:50 2022  (Duration: 0-0:00:59.94)
Done!
