
*************** JDFTx 1.6.0 (git hash 42ebbcc2) ***************

Start date and time: Sun Feb  6 13:23:35 2022
Executable jdftx with command-line: -i Alkali.in
Running on hosts (process indices):  d-3-15-4 (0-18)
Divided in process groups (process indices):  0 (0)  1 (1)  2 (2)  3 (3)  4 (4)  5 (5)  6 (6)  7 (7)  8 (8)  9 (9)  10 (10)  11 (11)  12 (12)  13 (13)  14 (14)  15 (15)  16 (16)  17 (17)  18 (18)
Resource initialization completed at t[s]:      0.00
Run totals: 19 processes, 48 threads, 0 GPUs


Input parsed successfully to the following command list (including defaults):

basis kpoint-dependent
coords-type Lattice
core-overlap-check vector
coulomb-interaction Slab 001
davidson-band-ratio 1.1
dump End None
dump-name $INPUT.$VAR
elec-cutoff 20
elec-eigen-algo Davidson
elec-ex-corr gga-PBE
elec-initial-magnetization 0.000000 yes
elec-smearing Fermi 1e-05
electronic-minimize  \
	dirUpdateScheme      FletcherReeves \
	linminMethod         DirUpdateRecommended \
	nIterations          100 \
	history              15 \
	knormThreshold       0 \
	energyDiffThreshold  1e-08 \
	nEnergyDiff          2 \
	alphaTstart          1 \
	alphaTmin            1e-10 \
	updateTestStepSize   yes \
	alphaTreduceFactor   0.1 \
	alphaTincreaseFactor 3 \
	nAlphaAdjustMax      3 \
	wolfeEnergy          0.0001 \
	wolfeGradient        0.9 \
	fdTest               no
electronic-scf  \
	nIterations	10000 \
	energyDiffThreshold	1e-08 \
	residualThreshold	1e-07 \
	mixFraction	0.5 \
	qMetric	0.8 \
	history	10 \
	nEigSteps	2 \
	eigDiffThreshold	1e-08 \
	mixedVariable	Density \
	qKerker	0.8 \
	qKappa	-1 \
	verbose	no \
	mixFractionMag	1.5
exchange-regularization WignerSeitzTruncated
fluid None
fluid-ex-corr (null) lda-PZ
fluid-gummel-loop 10 1.000000e-05
fluid-minimize  \
	dirUpdateScheme      PolakRibiere \
	linminMethod         DirUpdateRecommended \
	nIterations          100 \
	history              15 \
	knormThreshold       0 \
	energyDiffThreshold  0 \
	nEnergyDiff          2 \
	alphaTstart          1 \
	alphaTmin            1e-10 \
	updateTestStepSize   yes \
	alphaTreduceFactor   0.1 \
	alphaTincreaseFactor 3 \
	nAlphaAdjustMax      3 \
	wolfeEnergy          0.0001 \
	wolfeGradient        0.9 \
	fdTest               no
fluid-solvent H2O 55.338 ScalarEOS \
	epsBulk 78.4 \
	pMol 0.92466 \
	epsInf 1.77 \
	Pvap 1.06736e-10 \
	sigmaBulk 4.62e-05 \
	Rvdw 2.61727 \
	Res 1.42 \
	tauNuc 343133 \
	poleEl 15 7 1
forces-output-coords Positions
ion Cs   0.000000000000000   0.000000000000000   0.000000000000000 0
ion-species SG15/$ID_ONCV_PBE.upf
ion-width 0
ionic-minimize  \
	dirUpdateScheme      L-BFGS \
	linminMethod         DirUpdateRecommended \
	nIterations          0 \
	history              15 \
	knormThreshold       0.0001 \
	energyDiffThreshold  1e-06 \
	nEnergyDiff          2 \
	alphaTstart          1 \
	alphaTmin            1e-10 \
	updateTestStepSize   yes \
	alphaTreduceFactor   0.1 \
	alphaTincreaseFactor 3 \
	nAlphaAdjustMax      3 \
	wolfeEnergy          0.0001 \
	wolfeGradient        0.9 \
	fdTest               no
kpoint   0.000000000000   0.000000000000   0.000000000000  1.00000000000000
kpoint-folding 12 12 1 
latt-move-scale 1 1 1
latt-scale 3 3 1 
lattice  \
	   4.727486978767153   -2.363743489383575    0.000000000000000  \
	  -0.000000000000000    4.094123819672498    0.000000000000000  \
	   0.000000000000000    0.000000000000000   40.000000000000000 
lattice-minimize  \
	dirUpdateScheme      L-BFGS \
	linminMethod         DirUpdateRecommended \
	nIterations          0 \
	history              15 \
	knormThreshold       0 \
	energyDiffThreshold  1e-06 \
	nEnergyDiff          2 \
	alphaTstart          1 \
	alphaTmin            1e-10 \
	updateTestStepSize   yes \
	alphaTreduceFactor   0.1 \
	alphaTincreaseFactor 3 \
	nAlphaAdjustMax      3 \
	wolfeEnergy          0.0001 \
	wolfeGradient        0.9 \
	fdTest               no
lcao-params -1 1e-06 1e-05
pcm-variant GLSSA13
spintype z-spin
subspace-rotation-factor 1 yes
symmetries automatic
symmetry-threshold 0.0001



---------- Setting up symmetries ----------

Found 24 point-group symmetries of the bravais lattice
Found 24 space-group symmetries with basis
Applied RMS atom displacement 0 bohrs to make symmetries exact.

---------- Initializing the Grid ----------
R = 
[      14.1825     -7.09123            0  ]
[            0      12.2824            0  ]
[            0            0           40  ]
unit cell volume = 6967.77
G =
[   0.443025   0.255781         -0  ]
[          0   0.511561         -0  ]
[         -0         -0    0.15708  ]
Minimum fftbox size, Smin = [  60  60  164  ]
Chosen fftbox size, S = [  60  60  168  ]

---------- Exchange Correlation functional ----------
Initalized PBE GGA exchange.
Initalized PBE GGA correlation.

---------- Setting up pseudopotentials ----------
Width of ionic core gaussian charges (only for fluid interactions / plotting) set to 0

Reading pseudopotential file '/home/gridsan/aligho/DFT/build-Nov24/pseudopotentials/SG15/Cs_ONCV_PBE.upf':
  'Cs' pseudopotential, 'PBE' functional
  Generated using ONCVPSP code by D. R. Hamann
  Author: Martin Schlipf and Francois Gygi  Date: 150915.
  9 valence electrons, 3 orbitals, 6 projectors, 2414 radial grid points, with lMax = 2
  Transforming local potential to a uniform radial grid of dG=0.02 with 1489 points.
  Transforming nonlocal projectors to a uniform radial grid of dG=0.02 with 432 points.
    5S    l: 0   occupation:  2.0   eigenvalue: -0.982388
    5P    l: 1   occupation:  6.0   eigenvalue: -0.496786
    6S    l: 0   occupation:  1.0   eigenvalue: -0.076670
  Transforming atomic orbitals to a uniform radial grid of dG=0.02 with 432 points.
  Core radius for overlap checks: 2.06 bohrs.
  Reading pulay file /home/gridsan/aligho/DFT/build-Nov24/pseudopotentials/SG15/Cs_ONCV_PBE.pulay ... using dE_dnG = -1.008762e-04 computed for Ecut = 20.

Initialized 1 species with 1 total atoms.

Folded 1 k-points by 12x12x1 to 144 k-points.

---------- Setting up k-points, bands, fillings ----------
Reduced to 19 k-points under symmetry. 
Computing the number of bands and number of electrons
Calculating initial fillings.
nElectrons:   9.000000   nBands: 6   nStates: 38

----- Setting up reduced wavefunction bases (one per k-point) -----
average nbasis = 29766.104 , ideal nbasis = 29766.845

---------- Setting up coulomb interaction ----------
Initialized slab truncation along lattice direction 001

---------- Setting up 2D ewald sum ----------
Optimum gaussian width for ewald sums = 7.873530 bohr.
Real space sums over 289 unit cells with max indices [  8  8  0  ]
Reciprocal space sums over 81 terms with max indices [  4  4  0  ]

---------- Allocating electronic variables ----------
Initializing wave functions:  linear combination of atomic orbitals
Note: number of bands (6) exceeds available atomic orbitals (5)
Cs pseudo-atom occupations:   s ( 2 1 )  p ( 6 )
	FillingsUpdate:  mu: -0.079346335  nElectrons: 9.000000  magneticMoment: [ Abs: 0.00018  Tot: -0.00000 ]
LCAOMinimize: Iter:   0  F: -20.1753780948913111  |grad|_K:  1.606e-05  alpha:  1.000e+00
	FillingsUpdate:  mu: -0.079342705  nElectrons: 9.000000  magneticMoment: [ Abs: 0.00019  Tot: +0.00000 ]
LCAOMinimize: Iter:   1  F: -20.1753782688022127  |grad|_K:  9.732e-08  alpha:  9.863e-01  linmin: -2.542e-02  cgtest:  5.041e-01  t[s]:      7.44
LCAOMinimize: Encountered beta<0, resetting CG.
	FillingsUpdate:  mu: -0.079342702  nElectrons: 9.000000  magneticMoment: [ Abs: 0.00019  Tot: -0.00000 ]
LCAOMinimize: Iter:   2  F: -20.1753782688088172  |grad|_K:  8.119e-09  alpha:  1.084e+00  linmin:  5.425e-02  cgtest: -9.998e-01  t[s]:      9.82
LCAOMinimize: Converged (|Delta F|<1.000000e-06 for 2 iters).


---- Citations for features of the code used in this run ----

   Software package:
      R. Sundararaman, K. Letchworth-Weaver, K.A. Schwarz, D. Gunceler, Y. Ozhabes and T.A. Arias, 'JDFTx: software for joint density-functional theory', SoftwareX 6, 278 (2017)

   gga-PBE exchange-correlation functional:
      J.P. Perdew, K. Burke and M. Ernzerhof, Phys. Rev. Lett. 77, 3865 (1996)

   Pseudopotentials:
      M Schlipf and F Gygi, Comput. Phys. Commun. 196, 36 (2015)

   Truncated Coulomb potentials:
      R. Sundararaman and T.A. Arias, Phys. Rev. B 87, 165122 (2013)

This list may not be complete. Please suggest additional citations or
report any other bugs at https://github.com/shankar1729/jdftx/issues

Initialization completed successfully at t[s]:      9.98


-------- Electronic minimization -----------
Will mix electronic density at each iteration.
	FillingsUpdate:  mu: -0.079342702  nElectrons: 9.000000  magneticMoment: [ Abs: 0.00019  Tot: -0.00000 ]
	FillingsUpdate:  mu: -0.083081843  nElectrons: 9.000000  magneticMoment: [ Abs: 0.00019  Tot: -0.00000 ]
SCF: Cycle:  0   F: -20.177754026258821   dF: -2.376e-03   |Residual|: 4.313e-03   |deigs|: 1.729e-01  t[s]:     14.75
	FillingsUpdate:  mu: -0.083335030  nElectrons: 9.000000  magneticMoment: [ Abs: 0.00016  Tot: -0.00000 ]
SCF: Cycle:  1   F: -20.177824470779566   dF: -7.044e-05   |Residual|: 3.859e-03   |deigs|: 4.712e-03  t[s]:     18.49
	FillingsUpdate:  mu: -0.083907303  nElectrons: 9.000000  magneticMoment: [ Abs: 0.00049  Tot: -0.00000 ]
SCF: Cycle:  2   F: -20.177890511074899   dF: -6.604e-05   |Residual|: 1.703e-03   |deigs|: 3.549e-03  t[s]:     22.26
	FillingsUpdate:  mu: -0.083702146  nElectrons: 9.000000  magneticMoment: [ Abs: 0.00019  Tot: -0.00000 ]
SCF: Cycle:  3   F: -20.177911246866159   dF: -2.074e-05   |Residual|: 1.133e-03   |deigs|: 1.196e-03  t[s]:     26.20
	FillingsUpdate:  mu: -0.083448424  nElectrons: 9.000000  magneticMoment: [ Abs: 0.00033  Tot: -0.00000 ]
SCF: Cycle:  4   F: -20.177918387823375   dF: -7.141e-06   |Residual|: 6.908e-04   |deigs|: 1.049e-03  t[s]:     30.17
	FillingsUpdate:  mu: -0.082945162  nElectrons: 9.000000  magneticMoment: [ Abs: 0.00078  Tot: -0.00000 ]
SCF: Cycle:  5   F: -20.177923561571983   dF: -5.174e-06   |Residual|: 5.610e-04   |deigs|: 9.156e-04  t[s]:     34.12
	FillingsUpdate:  mu: -0.082406941  nElectrons: 9.000000  magneticMoment: [ Abs: 0.00057  Tot: +0.00000 ]
SCF: Cycle:  6   F: -20.177923802581805   dF: -2.410e-07   |Residual|: 5.188e-04   |deigs|: 8.461e-04  t[s]:     38.15
	FillingsUpdate:  mu: -0.081775662  nElectrons: 9.000000  magneticMoment: [ Abs: 0.00173  Tot: +0.00000 ]
SCF: Cycle:  7   F: -20.177924532777606   dF: -7.302e-07   |Residual|: 3.876e-04   |deigs|: 1.402e-03  t[s]:     42.27
	FillingsUpdate:  mu: -0.081590556  nElectrons: 9.000000  magneticMoment: [ Abs: 0.00105  Tot: +0.00000 ]
SCF: Cycle:  8   F: -20.177926089967823   dF: -1.557e-06   |Residual|: 3.159e-04   |deigs|: 5.749e-04  t[s]:     46.53
	FillingsUpdate:  mu: -0.081043863  nElectrons: 9.000000  magneticMoment: [ Abs: 0.00250  Tot: +0.00000 ]
SCF: Cycle:  9   F: -20.177926644355967   dF: -5.544e-07   |Residual|: 3.015e-04   |deigs|: 5.612e-04  t[s]:     50.75
	FillingsUpdate:  mu: -0.080665453  nElectrons: 9.000000  magneticMoment: [ Abs: 0.00080  Tot: +0.00000 ]
SCF: Cycle: 10   F: -20.177924965640180   dF: +1.679e-06   |Residual|: 2.802e-04   |deigs|: 4.383e-04  t[s]:     55.12
	FillingsUpdate:  mu: -0.080153040  nElectrons: 9.000000  magneticMoment: [ Abs: 0.00165  Tot: +0.00000 ]
SCF: Cycle: 11   F: -20.177924165511619   dF: +8.001e-07   |Residual|: 2.304e-04   |deigs|: 4.858e-04  t[s]:     59.40
	FillingsUpdate:  mu: -0.079532654  nElectrons: 9.000000  magneticMoment: [ Abs: 0.00176  Tot: +0.00000 ]
SCF: Cycle: 12   F: -20.177927334944375   dF: -3.169e-06   |Residual|: 2.489e-04   |deigs|: 6.134e-04  t[s]:     63.67
	FillingsUpdate:  mu: -0.079757937  nElectrons: 9.000000  magneticMoment: [ Abs: 0.00203  Tot: +0.00000 ]
SCF: Cycle: 13   F: -20.177929485415206   dF: -2.150e-06   |Residual|: 1.918e-04   |deigs|: 3.260e-04  t[s]:     67.94
	FillingsUpdate:  mu: -0.079265921  nElectrons: 9.000000  magneticMoment: [ Abs: 0.00148  Tot: +0.00000 ]
SCF: Cycle: 14   F: -20.177930740164005   dF: -1.255e-06   |Residual|: 1.422e-04   |deigs|: 5.725e-04  t[s]:     72.17
	FillingsUpdate:  mu: -0.079184055  nElectrons: 9.000000  magneticMoment: [ Abs: 0.00076  Tot: +0.00000 ]
SCF: Cycle: 15   F: -20.177931556330030   dF: -8.162e-07   |Residual|: 8.084e-05   |deigs|: 3.050e-04  t[s]:     76.48
	FillingsUpdate:  mu: -0.079201882  nElectrons: 9.000000  magneticMoment: [ Abs: 0.00054  Tot: +0.00000 ]
SCF: Cycle: 16   F: -20.177931724915144   dF: -1.686e-07   |Residual|: 5.949e-05   |deigs|: 7.605e-04  t[s]:     80.76
	FillingsUpdate:  mu: -0.079210571  nElectrons: 9.000000  magneticMoment: [ Abs: 0.00030  Tot: -0.00000 ]
SCF: Cycle: 17   F: -20.177931846141835   dF: -1.212e-07   |Residual|: 3.828e-05   |deigs|: 3.946e-04  t[s]:     85.04
	FillingsUpdate:  mu: -0.079207232  nElectrons: 9.000000  magneticMoment: [ Abs: 0.00027  Tot: -0.00000 ]
SCF: Cycle: 18   F: -20.177931911383070   dF: -6.524e-08   |Residual|: 1.875e-05   |deigs|: 8.927e-05  t[s]:     89.35
	FillingsUpdate:  mu: -0.079218978  nElectrons: 9.000000  magneticMoment: [ Abs: 0.00007  Tot: -0.00000 ]
SCF: Cycle: 19   F: -20.177931931942123   dF: -2.056e-08   |Residual|: 9.551e-06   |deigs|: 5.948e-05  t[s]:     93.61
	FillingsUpdate:  mu: -0.079226430  nElectrons: 9.000000  magneticMoment: [ Abs: 0.00007  Tot: -0.00000 ]
SCF: Cycle: 20   F: -20.177931941273325   dF: -9.331e-09   |Residual|: 8.472e-06   |deigs|: 8.325e-05  t[s]:     97.88
	FillingsUpdate:  mu: -0.079228905  nElectrons: 9.000000  magneticMoment: [ Abs: 0.00005  Tot: -0.00000 ]
SCF: Cycle: 21   F: -20.177931943288879   dF: -2.016e-09   |Residual|: 6.977e-06   |deigs|: 5.952e-05  t[s]:    102.17
SCF: Converged (|Delta E|<1.000000e-08 for 2 iters).


# Ionic positions in lattice coordinates:
ion Cs   0.000000000000000   0.000000000000000   0.000000000000000 0

# Forces in Lattice coordinates:
force Cs  -0.000000000000000   0.000000000000000   0.000000000000000 0

# Energy components:
   Eewald =      -12.0320174002217755
       EH =        4.0099906407145465
     Eloc =      -17.5789967109665390
      Enl =        3.4316616562900282
   Epulay =       -0.0000000107257212
      Exc =       -3.1080080919066422
       KE =        5.0994384515871971
-------------------------------------
     Etot =      -20.1779314652289088
       TS =        0.0000004780599718
-------------------------------------
        F =      -20.1779319432888791

IonicMinimize: Iter:   0  F: -20.177931943288879  |grad|_K:  0.000e+00  t[s]:    102.43
IonicMinimize: Converged (|grad|_K<1.000000e-04).

#--- Lowdin population analysis ---
# oxidation-state Cs +0.041
# magnetic-moments Cs -0.000

End date and time: Sun Feb  6 13:25:17 2022  (Duration: 0-0:01:42.48)
Done!
