
*************** JDFTx 1.6.0 (git hash 42ebbcc2) ***************

Start date and time: Sun Feb  6 13:17:20 2022
Executable jdftx with command-line: -i Alkali.in
Running on hosts (process indices):  d-3-4-3 (0-18)
Divided in process groups (process indices):  0 (0)  1 (1)  2 (2)  3 (3)  4 (4)  5 (5)  6 (6)  7 (7)  8 (8)  9 (9)  10 (10)  11 (11)  12 (12)  13 (13)  14 (14)  15 (15)  16 (16)  17 (17)  18 (18)
Resource initialization completed at t[s]:      0.00
Run totals: 19 processes, 48 threads, 0 GPUs


Input parsed successfully to the following command list (including defaults):

basis kpoint-dependent
coords-type Lattice
core-overlap-check vector
coulomb-interaction Slab 001
davidson-band-ratio 1.1
dump End None
dump-name $INPUT.$VAR
elec-cutoff 20
elec-eigen-algo Davidson
elec-ex-corr gga-PBE
elec-initial-magnetization -0.360000 yes
elec-smearing Fermi 1e-05
electronic-minimize  \
	dirUpdateScheme      FletcherReeves \
	linminMethod         DirUpdateRecommended \
	nIterations          100 \
	history              15 \
	knormThreshold       0 \
	energyDiffThreshold  1e-08 \
	nEnergyDiff          2 \
	alphaTstart          1 \
	alphaTmin            1e-10 \
	updateTestStepSize   yes \
	alphaTreduceFactor   0.1 \
	alphaTincreaseFactor 3 \
	nAlphaAdjustMax      3 \
	wolfeEnergy          0.0001 \
	wolfeGradient        0.9 \
	fdTest               no
electronic-scf  \
	nIterations	10000 \
	energyDiffThreshold	1e-08 \
	residualThreshold	1e-07 \
	mixFraction	0.5 \
	qMetric	0.8 \
	history	10 \
	nEigSteps	2 \
	eigDiffThreshold	1e-08 \
	mixedVariable	Density \
	qKerker	0.8 \
	qKappa	-1 \
	verbose	no \
	mixFractionMag	1.5
exchange-regularization WignerSeitzTruncated
fluid None
fluid-ex-corr (null) lda-PZ
fluid-gummel-loop 10 1.000000e-05
fluid-minimize  \
	dirUpdateScheme      PolakRibiere \
	linminMethod         DirUpdateRecommended \
	nIterations          100 \
	history              15 \
	knormThreshold       0 \
	energyDiffThreshold  0 \
	nEnergyDiff          2 \
	alphaTstart          1 \
	alphaTmin            1e-10 \
	updateTestStepSize   yes \
	alphaTreduceFactor   0.1 \
	alphaTincreaseFactor 3 \
	nAlphaAdjustMax      3 \
	wolfeEnergy          0.0001 \
	wolfeGradient        0.9 \
	fdTest               no
fluid-solvent H2O 55.338 ScalarEOS \
	epsBulk 78.4 \
	pMol 0.92466 \
	epsInf 1.77 \
	Pvap 1.06736e-10 \
	sigmaBulk 4.62e-05 \
	Rvdw 2.61727 \
	Res 1.42 \
	tauNuc 343133 \
	poleEl 15 7 1
forces-output-coords Positions
ion Cs   0.000000000000000   0.000000000000000   0.000000000000000 0
ion-species SG15/$ID_ONCV_PBE.upf
ion-width 0
ionic-minimize  \
	dirUpdateScheme      L-BFGS \
	linminMethod         DirUpdateRecommended \
	nIterations          0 \
	history              15 \
	knormThreshold       0.0001 \
	energyDiffThreshold  1e-06 \
	nEnergyDiff          2 \
	alphaTstart          1 \
	alphaTmin            1e-10 \
	updateTestStepSize   yes \
	alphaTreduceFactor   0.1 \
	alphaTincreaseFactor 3 \
	nAlphaAdjustMax      3 \
	wolfeEnergy          0.0001 \
	wolfeGradient        0.9 \
	fdTest               no
kpoint   0.000000000000   0.000000000000   0.000000000000  1.00000000000000
kpoint-folding 12 12 1 
latt-move-scale 1 1 1
latt-scale 3 3 1 
lattice  \
	   4.727486978767153   -2.363743489383575    0.000000000000000  \
	  -0.000000000000000    4.094123819672498    0.000000000000000  \
	   0.000000000000000    0.000000000000000   40.000000000000000 
lattice-minimize  \
	dirUpdateScheme      L-BFGS \
	linminMethod         DirUpdateRecommended \
	nIterations          0 \
	history              15 \
	knormThreshold       0 \
	energyDiffThreshold  1e-06 \
	nEnergyDiff          2 \
	alphaTstart          1 \
	alphaTmin            1e-10 \
	updateTestStepSize   yes \
	alphaTreduceFactor   0.1 \
	alphaTincreaseFactor 3 \
	nAlphaAdjustMax      3 \
	wolfeEnergy          0.0001 \
	wolfeGradient        0.9 \
	fdTest               no
lcao-params -1 1e-06 1e-05
pcm-variant GLSSA13
spintype z-spin
subspace-rotation-factor 1 yes
symmetries automatic
symmetry-threshold 0.0001



---------- Setting up symmetries ----------

Found 24 point-group symmetries of the bravais lattice
Found 24 space-group symmetries with basis
Applied RMS atom displacement 0 bohrs to make symmetries exact.

---------- Initializing the Grid ----------
R = 
[      14.1825     -7.09123            0  ]
[            0      12.2824            0  ]
[            0            0           40  ]
unit cell volume = 6967.77
G =
[   0.443025   0.255781         -0  ]
[          0   0.511561         -0  ]
[         -0         -0    0.15708  ]
Minimum fftbox size, Smin = [  60  60  164  ]
Chosen fftbox size, S = [  60  60  168  ]

---------- Exchange Correlation functional ----------
Initalized PBE GGA exchange.
Initalized PBE GGA correlation.

---------- Setting up pseudopotentials ----------
Width of ionic core gaussian charges (only for fluid interactions / plotting) set to 0

Reading pseudopotential file '/home/gridsan/aligho/DFT/build-Nov24/pseudopotentials/SG15/Cs_ONCV_PBE.upf':
  'Cs' pseudopotential, 'PBE' functional
  Generated using ONCVPSP code by D. R. Hamann
  Author: Martin Schlipf and Francois Gygi  Date: 150915.
  9 valence electrons, 3 orbitals, 6 projectors, 2414 radial grid points, with lMax = 2
  Transforming local potential to a uniform radial grid of dG=0.02 with 1489 points.
  Transforming nonlocal projectors to a uniform radial grid of dG=0.02 with 432 points.
    5S    l: 0   occupation:  2.0   eigenvalue: -0.982388
    5P    l: 1   occupation:  6.0   eigenvalue: -0.496786
    6S    l: 0   occupation:  1.0   eigenvalue: -0.076670
  Transforming atomic orbitals to a uniform radial grid of dG=0.02 with 432 points.
  Core radius for overlap checks: 2.06 bohrs.
  Reading pulay file /home/gridsan/aligho/DFT/build-Nov24/pseudopotentials/SG15/Cs_ONCV_PBE.pulay ... using dE_dnG = -1.008762e-04 computed for Ecut = 20.

Initialized 1 species with 1 total atoms.

Folded 1 k-points by 12x12x1 to 144 k-points.

---------- Setting up k-points, bands, fillings ----------
Reduced to 19 k-points under symmetry. 
Computing the number of bands and number of electrons
Calculating initial fillings.
nElectrons:   9.000000   nBands: 6   nStates: 38

----- Setting up reduced wavefunction bases (one per k-point) -----
average nbasis = 29766.104 , ideal nbasis = 29766.845

---------- Setting up coulomb interaction ----------
Initialized slab truncation along lattice direction 001

---------- Setting up 2D ewald sum ----------
Optimum gaussian width for ewald sums = 7.873530 bohr.
Real space sums over 289 unit cells with max indices [  8  8  0  ]
Reciprocal space sums over 81 terms with max indices [  4  4  0  ]

---------- Allocating electronic variables ----------
Initializing wave functions:  linear combination of atomic orbitals
Note: number of bands (6) exceeds available atomic orbitals (5)
Cs pseudo-atom occupations:   s ( 2 1 )  p ( 6 )
	FillingsUpdate:  mu: -0.078743211  nElectrons: 9.000000  magneticMoment: [ Abs: 0.36000  Tot: -0.36000 ]
LCAOMinimize: Iter:   0  F: -20.1745357670640502  |grad|_K:  2.252e-05  alpha:  1.000e+00
	FillingsUpdate:  mu: -0.078738281  nElectrons: 9.000000  magneticMoment: [ Abs: 0.36000  Tot: -0.36000 ]
LCAOMinimize: Iter:   1  F: -20.1745361095632525  |grad|_K:  1.572e-07  alpha:  9.872e-01  linmin: -2.886e-02  cgtest:  5.217e-01  t[s]:      8.86
LCAOMinimize: Encountered beta<0, resetting CG.
	FillingsUpdate:  mu: -0.078738279  nElectrons: 9.000000  magneticMoment: [ Abs: 0.36000  Tot: -0.36000 ]
LCAOMinimize: Iter:   2  F: -20.1745361095802345  |grad|_K:  3.296e-10  alpha:  1.003e+00  linmin:  7.628e-02  cgtest: -9.470e-01  t[s]:     11.25
LCAOMinimize: Converged (|Delta F|<1.000000e-06 for 2 iters).


---- Citations for features of the code used in this run ----

   Software package:
      R. Sundararaman, K. Letchworth-Weaver, K.A. Schwarz, D. Gunceler, Y. Ozhabes and T.A. Arias, 'JDFTx: software for joint density-functional theory', SoftwareX 6, 278 (2017)

   gga-PBE exchange-correlation functional:
      J.P. Perdew, K. Burke and M. Ernzerhof, Phys. Rev. Lett. 77, 3865 (1996)

   Pseudopotentials:
      M Schlipf and F Gygi, Comput. Phys. Commun. 196, 36 (2015)

   Truncated Coulomb potentials:
      R. Sundararaman and T.A. Arias, Phys. Rev. B 87, 165122 (2013)

This list may not be complete. Please suggest additional citations or
report any other bugs at https://github.com/shankar1729/jdftx/issues

Initialization completed successfully at t[s]:     11.41


-------- Electronic minimization -----------
Will mix electronic density at each iteration.
	FillingsUpdate:  mu: -0.078738279  nElectrons: 9.000000  magneticMoment: [ Abs: 0.36000  Tot: -0.36000 ]
	FillingsUpdate:  mu: -0.081843466  nElectrons: 9.000000  magneticMoment: [ Abs: 0.36000  Tot: -0.36000 ]
SCF: Cycle:  0   F: -20.176966363172880   dF: -2.430e-03   |Residual|: 4.801e-03   |deigs|: 1.731e-01  t[s]:     16.12
	FillingsUpdate:  mu: -0.082106105  nElectrons: 9.000000  magneticMoment: [ Abs: 0.36000  Tot: -0.36000 ]
SCF: Cycle:  1   F: -20.177094876809917   dF: -1.285e-04   |Residual|: 4.220e-03   |deigs|: 4.938e-03  t[s]:     19.78
	FillingsUpdate:  mu: -0.082304676  nElectrons: 9.000000  magneticMoment: [ Abs: 0.36239  Tot: -0.36000 ]
SCF: Cycle:  2   F: -20.177171777952438   dF: -7.690e-05   |Residual|: 2.547e-03   |deigs|: 2.285e-03  t[s]:     23.53
	FillingsUpdate:  mu: -0.082349506  nElectrons: 9.000000  magneticMoment: [ Abs: 0.36212  Tot: -0.36000 ]
SCF: Cycle:  3   F: -20.177198651175758   dF: -2.687e-05   |Residual|: 1.729e-03   |deigs|: 1.435e-03  t[s]:     27.36
	FillingsUpdate:  mu: -0.082193051  nElectrons: 9.000000  magneticMoment: [ Abs: 0.36020  Tot: -0.36000 ]
SCF: Cycle:  4   F: -20.177215721067284   dF: -1.707e-05   |Residual|: 9.797e-04   |deigs|: 1.031e-03  t[s]:     31.23
	FillingsUpdate:  mu: -0.082058850  nElectrons: 9.000000  magneticMoment: [ Abs: 0.36027  Tot: -0.36000 ]
SCF: Cycle:  5   F: -20.177224112461182   dF: -8.391e-06   |Residual|: 7.034e-04   |deigs|: 9.352e-04  t[s]:     35.24
	FillingsUpdate:  mu: -0.081757609  nElectrons: 9.000000  magneticMoment: [ Abs: 0.36062  Tot: -0.36000 ]
SCF: Cycle:  6   F: -20.177228200724290   dF: -4.088e-06   |Residual|: 5.532e-04   |deigs|: 1.343e-03  t[s]:     39.26
	FillingsUpdate:  mu: -0.081367408  nElectrons: 9.000000  magneticMoment: [ Abs: 0.36176  Tot: -0.36000 ]
SCF: Cycle:  7   F: -20.177228731564181   dF: -5.308e-07   |Residual|: 4.705e-04   |deigs|: 6.466e-04  t[s]:     43.36
	FillingsUpdate:  mu: -0.080690873  nElectrons: 9.000000  magneticMoment: [ Abs: 0.36296  Tot: -0.36000 ]
SCF: Cycle:  8   F: -20.177225585347713   dF: +3.146e-06   |Residual|: 3.681e-04   |deigs|: 8.073e-04  t[s]:     47.47
	FillingsUpdate:  mu: -0.080121635  nElectrons: 9.000000  magneticMoment: [ Abs: 0.36235  Tot: -0.36000 ]
SCF: Cycle:  9   F: -20.177227117055061   dF: -1.532e-06   |Residual|: 3.362e-04   |deigs|: 7.548e-04  t[s]:     51.69
	FillingsUpdate:  mu: -0.080126234  nElectrons: 9.000000  magneticMoment: [ Abs: 0.36169  Tot: -0.36000 ]
SCF: Cycle: 10   F: -20.177230378516896   dF: -3.261e-06   |Residual|: 2.770e-04   |deigs|: 6.117e-04  t[s]:     55.91
	FillingsUpdate:  mu: -0.079732409  nElectrons: 9.000000  magneticMoment: [ Abs: 0.36257  Tot: -0.36000 ]
SCF: Cycle: 11   F: -20.177231618751918   dF: -1.240e-06   |Residual|: 2.404e-04   |deigs|: 9.301e-04  t[s]:     60.10
	FillingsUpdate:  mu: -0.079152546  nElectrons: 9.000000  magneticMoment: [ Abs: 0.36235  Tot: -0.36000 ]
SCF: Cycle: 12   F: -20.177230812982494   dF: +8.058e-07   |Residual|: 2.371e-04   |deigs|: 6.494e-04  t[s]:     64.43
	FillingsUpdate:  mu: -0.078698974  nElectrons: 9.000000  magneticMoment: [ Abs: 0.36102  Tot: -0.36000 ]
SCF: Cycle: 13   F: -20.177230363793640   dF: +4.492e-07   |Residual|: 2.272e-04   |deigs|: 6.175e-04  t[s]:     68.66
	FillingsUpdate:  mu: -0.078367648  nElectrons: 9.000000  magneticMoment: [ Abs: 0.36174  Tot: -0.36000 ]
SCF: Cycle: 14   F: -20.177232137242054   dF: -1.773e-06   |Residual|: 1.968e-04   |deigs|: 5.194e-04  t[s]:     72.94
	FillingsUpdate:  mu: -0.078080906  nElectrons: 9.000000  magneticMoment: [ Abs: 0.36132  Tot: -0.36000 ]
SCF: Cycle: 15   F: -20.177234316772953   dF: -2.180e-06   |Residual|: 1.519e-04   |deigs|: 3.593e-04  t[s]:     77.24
	FillingsUpdate:  mu: -0.077856035  nElectrons: 9.000000  magneticMoment: [ Abs: 0.36057  Tot: -0.36000 ]
SCF: Cycle: 16   F: -20.177235730918284   dF: -1.414e-06   |Residual|: 9.664e-05   |deigs|: 2.122e-04  t[s]:     81.41
	FillingsUpdate:  mu: -0.077829423  nElectrons: 9.000000  magneticMoment: [ Abs: 0.36051  Tot: -0.36000 ]
SCF: Cycle: 17   F: -20.177236031075921   dF: -3.002e-07   |Residual|: 6.538e-05   |deigs|: 4.884e-05  t[s]:     85.53
	FillingsUpdate:  mu: -0.077836610  nElectrons: 9.000000  magneticMoment: [ Abs: 0.36046  Tot: -0.36000 ]
SCF: Cycle: 18   F: -20.177236209074415   dF: -1.780e-07   |Residual|: 3.976e-05   |deigs|: 4.707e-05  t[s]:     89.74
	FillingsUpdate:  mu: -0.077858274  nElectrons: 9.000000  magneticMoment: [ Abs: 0.36047  Tot: -0.36000 ]
SCF: Cycle: 19   F: -20.177236283224062   dF: -7.415e-08   |Residual|: 2.482e-05   |deigs|: 4.806e-05  t[s]:     93.87
	FillingsUpdate:  mu: -0.077860715  nElectrons: 9.000000  magneticMoment: [ Abs: 0.36047  Tot: -0.36000 ]
SCF: Cycle: 20   F: -20.177236319067468   dF: -3.584e-08   |Residual|: 1.534e-05   |deigs|: 3.870e-05  t[s]:     98.15
	FillingsUpdate:  mu: -0.077868043  nElectrons: 9.000000  magneticMoment: [ Abs: 0.36048  Tot: -0.36000 ]
SCF: Cycle: 21   F: -20.177236340267484   dF: -2.120e-08   |Residual|: 1.210e-05   |deigs|: 1.068e-04  t[s]:    102.39
	FillingsUpdate:  mu: -0.077868548  nElectrons: 9.000000  magneticMoment: [ Abs: 0.36048  Tot: -0.36000 ]
SCF: Cycle: 22   F: -20.177236347538745   dF: -7.271e-09   |Residual|: 9.918e-06   |deigs|: 9.370e-05  t[s]:    106.55
	FillingsUpdate:  mu: -0.077869625  nElectrons: 9.000000  magneticMoment: [ Abs: 0.36047  Tot: -0.36000 ]
SCF: Cycle: 23   F: -20.177236352120779   dF: -4.582e-09   |Residual|: 6.371e-06   |deigs|: 7.710e-05  t[s]:    110.80
SCF: Converged (|Delta E|<1.000000e-08 for 2 iters).


# Ionic positions in lattice coordinates:
ion Cs   0.000000000000000   0.000000000000000   0.000000000000000 0

# Forces in Lattice coordinates:
force Cs   0.000000000000000   0.000000000000000   0.000000000000000 0

# Energy components:
   Eewald =      -12.0320174002217755
       EH =        4.0134817746482652
     Eloc =      -17.5828042699473421
      Enl =        3.4317443942528043
   Epulay =       -0.0000000107257212
      Exc =       -3.1087779788778009
       KE =        5.1011378388284196
-------------------------------------
     Etot =      -20.1772356520431515
       TS =        0.0000007000776280
-------------------------------------
        F =      -20.1772363521207794

IonicMinimize: Iter:   0  F: -20.177236352120779  |grad|_K:  0.000e+00  t[s]:    111.05
IonicMinimize: Converged (|grad|_K<1.000000e-04).

#--- Lowdin population analysis ---
# oxidation-state Cs +0.051
# magnetic-moments Cs -0.323

End date and time: Sun Feb  6 13:19:11 2022  (Duration: 0-0:01:51.10)
Done!
