
*************** JDFTx 1.6.0 (git hash 42ebbcc2) ***************

Start date and time: Sun Feb  6 13:30:11 2022
Executable jdftx with command-line: -i Alkali.in
Running on hosts (process indices):  d-16-7-1 (0-18)
Divided in process groups (process indices):  0 (0)  1 (1)  2 (2)  3 (3)  4 (4)  5 (5)  6 (6)  7 (7)  8 (8)  9 (9)  10 (10)  11 (11)  12 (12)  13 (13)  14 (14)  15 (15)  16 (16)  17 (17)  18 (18)
Resource initialization completed at t[s]:      0.00
Run totals: 19 processes, 48 threads, 0 GPUs


Input parsed successfully to the following command list (including defaults):

basis kpoint-dependent
coords-type Lattice
core-overlap-check vector
coulomb-interaction Slab 001
davidson-band-ratio 1.1
dump End None
dump-name $INPUT.$VAR
elec-cutoff 20
elec-eigen-algo Davidson
elec-ex-corr gga-PBE
elec-initial-magnetization 0.560000 yes
elec-smearing Fermi 1e-05
electronic-minimize  \
	dirUpdateScheme      FletcherReeves \
	linminMethod         DirUpdateRecommended \
	nIterations          100 \
	history              15 \
	knormThreshold       0 \
	energyDiffThreshold  1e-08 \
	nEnergyDiff          2 \
	alphaTstart          1 \
	alphaTmin            1e-10 \
	updateTestStepSize   yes \
	alphaTreduceFactor   0.1 \
	alphaTincreaseFactor 3 \
	nAlphaAdjustMax      3 \
	wolfeEnergy          0.0001 \
	wolfeGradient        0.9 \
	fdTest               no
electronic-scf  \
	nIterations	10000 \
	energyDiffThreshold	1e-08 \
	residualThreshold	1e-07 \
	mixFraction	0.5 \
	qMetric	0.8 \
	history	10 \
	nEigSteps	2 \
	eigDiffThreshold	1e-08 \
	mixedVariable	Density \
	qKerker	0.8 \
	qKappa	-1 \
	verbose	no \
	mixFractionMag	1.5
exchange-regularization WignerSeitzTruncated
fluid None
fluid-ex-corr (null) lda-PZ
fluid-gummel-loop 10 1.000000e-05
fluid-minimize  \
	dirUpdateScheme      PolakRibiere \
	linminMethod         DirUpdateRecommended \
	nIterations          100 \
	history              15 \
	knormThreshold       0 \
	energyDiffThreshold  0 \
	nEnergyDiff          2 \
	alphaTstart          1 \
	alphaTmin            1e-10 \
	updateTestStepSize   yes \
	alphaTreduceFactor   0.1 \
	alphaTincreaseFactor 3 \
	nAlphaAdjustMax      3 \
	wolfeEnergy          0.0001 \
	wolfeGradient        0.9 \
	fdTest               no
fluid-solvent H2O 55.338 ScalarEOS \
	epsBulk 78.4 \
	pMol 0.92466 \
	epsInf 1.77 \
	Pvap 1.06736e-10 \
	sigmaBulk 4.62e-05 \
	Rvdw 2.61727 \
	Res 1.42 \
	tauNuc 343133 \
	poleEl 15 7 1
forces-output-coords Positions
ion Cs   0.000000000000000   0.000000000000000   0.000000000000000 0
ion-species SG15/$ID_ONCV_PBE.upf
ion-width 0
ionic-minimize  \
	dirUpdateScheme      L-BFGS \
	linminMethod         DirUpdateRecommended \
	nIterations          0 \
	history              15 \
	knormThreshold       0.0001 \
	energyDiffThreshold  1e-06 \
	nEnergyDiff          2 \
	alphaTstart          1 \
	alphaTmin            1e-10 \
	updateTestStepSize   yes \
	alphaTreduceFactor   0.1 \
	alphaTincreaseFactor 3 \
	nAlphaAdjustMax      3 \
	wolfeEnergy          0.0001 \
	wolfeGradient        0.9 \
	fdTest               no
kpoint   0.000000000000   0.000000000000   0.000000000000  1.00000000000000
kpoint-folding 12 12 1 
latt-move-scale 1 1 1
latt-scale 3 3 1 
lattice  \
	   4.727486978767153   -2.363743489383575    0.000000000000000  \
	  -0.000000000000000    4.094123819672498    0.000000000000000  \
	   0.000000000000000    0.000000000000000   40.000000000000000 
lattice-minimize  \
	dirUpdateScheme      L-BFGS \
	linminMethod         DirUpdateRecommended \
	nIterations          0 \
	history              15 \
	knormThreshold       0 \
	energyDiffThreshold  1e-06 \
	nEnergyDiff          2 \
	alphaTstart          1 \
	alphaTmin            1e-10 \
	updateTestStepSize   yes \
	alphaTreduceFactor   0.1 \
	alphaTincreaseFactor 3 \
	nAlphaAdjustMax      3 \
	wolfeEnergy          0.0001 \
	wolfeGradient        0.9 \
	fdTest               no
lcao-params -1 1e-06 1e-05
pcm-variant GLSSA13
spintype z-spin
subspace-rotation-factor 1 yes
symmetries automatic
symmetry-threshold 0.0001



---------- Setting up symmetries ----------

Found 24 point-group symmetries of the bravais lattice
Found 24 space-group symmetries with basis
Applied RMS atom displacement 0 bohrs to make symmetries exact.

---------- Initializing the Grid ----------
R = 
[      14.1825     -7.09123            0  ]
[            0      12.2824            0  ]
[            0            0           40  ]
unit cell volume = 6967.77
G =
[   0.443025   0.255781         -0  ]
[          0   0.511561         -0  ]
[         -0         -0    0.15708  ]
Minimum fftbox size, Smin = [  60  60  164  ]
Chosen fftbox size, S = [  60  60  168  ]

---------- Exchange Correlation functional ----------
Initalized PBE GGA exchange.
Initalized PBE GGA correlation.

---------- Setting up pseudopotentials ----------
Width of ionic core gaussian charges (only for fluid interactions / plotting) set to 0

Reading pseudopotential file '/home/gridsan/aligho/DFT/build-Nov24/pseudopotentials/SG15/Cs_ONCV_PBE.upf':
  'Cs' pseudopotential, 'PBE' functional
  Generated using ONCVPSP code by D. R. Hamann
  Author: Martin Schlipf and Francois Gygi  Date: 150915.
  9 valence electrons, 3 orbitals, 6 projectors, 2414 radial grid points, with lMax = 2
  Transforming local potential to a uniform radial grid of dG=0.02 with 1489 points.
  Transforming nonlocal projectors to a uniform radial grid of dG=0.02 with 432 points.
    5S    l: 0   occupation:  2.0   eigenvalue: -0.982388
    5P    l: 1   occupation:  6.0   eigenvalue: -0.496786
    6S    l: 0   occupation:  1.0   eigenvalue: -0.076670
  Transforming atomic orbitals to a uniform radial grid of dG=0.02 with 432 points.
  Core radius for overlap checks: 2.06 bohrs.
  Reading pulay file /home/gridsan/aligho/DFT/build-Nov24/pseudopotentials/SG15/Cs_ONCV_PBE.pulay ... using dE_dnG = -1.008762e-04 computed for Ecut = 20.

Initialized 1 species with 1 total atoms.

Folded 1 k-points by 12x12x1 to 144 k-points.

---------- Setting up k-points, bands, fillings ----------
Reduced to 19 k-points under symmetry. 
Computing the number of bands and number of electrons
Calculating initial fillings.
nElectrons:   9.000000   nBands: 6   nStates: 38

----- Setting up reduced wavefunction bases (one per k-point) -----
average nbasis = 29766.104 , ideal nbasis = 29766.845

---------- Setting up coulomb interaction ----------
Initialized slab truncation along lattice direction 001

---------- Setting up 2D ewald sum ----------
Optimum gaussian width for ewald sums = 7.873530 bohr.
Real space sums over 289 unit cells with max indices [  8  8  0  ]
Reciprocal space sums over 81 terms with max indices [  4  4  0  ]

---------- Allocating electronic variables ----------
Initializing wave functions:  linear combination of atomic orbitals
Note: number of bands (6) exceeds available atomic orbitals (5)
Cs pseudo-atom occupations:   s ( 2 1 )  p ( 6 )
	FillingsUpdate:  mu: -0.080707686  nElectrons: 9.000000  magneticMoment: [ Abs: 0.56000  Tot: +0.56000 ]
LCAOMinimize: Iter:   0  F: -20.1734623847790111  |grad|_K:  1.675e-05  alpha:  1.000e+00
	FillingsUpdate:  mu: -0.080704302  nElectrons: 9.000000  magneticMoment: [ Abs: 0.56000  Tot: +0.56000 ]
LCAOMinimize: Iter:   1  F: -20.1734625744159608  |grad|_K:  1.030e-07  alpha:  9.882e-01  linmin: -2.376e-02  cgtest:  4.518e-01  t[s]:      8.84
LCAOMinimize: Encountered beta<0, resetting CG.
	FillingsUpdate:  mu: -0.080704306  nElectrons: 9.000000  magneticMoment: [ Abs: 0.56000  Tot: +0.56000 ]
LCAOMinimize: Iter:   2  F: -20.1734625744231515  |grad|_K:  1.771e-09  alpha:  1.018e+00  linmin:  7.245e-02  cgtest: -9.990e-01  t[s]:     11.29
LCAOMinimize: Converged (|Delta F|<1.000000e-06 for 2 iters).


---- Citations for features of the code used in this run ----

   Software package:
      R. Sundararaman, K. Letchworth-Weaver, K.A. Schwarz, D. Gunceler, Y. Ozhabes and T.A. Arias, 'JDFTx: software for joint density-functional theory', SoftwareX 6, 278 (2017)

   gga-PBE exchange-correlation functional:
      J.P. Perdew, K. Burke and M. Ernzerhof, Phys. Rev. Lett. 77, 3865 (1996)

   Pseudopotentials:
      M Schlipf and F Gygi, Comput. Phys. Commun. 196, 36 (2015)

   Truncated Coulomb potentials:
      R. Sundararaman and T.A. Arias, Phys. Rev. B 87, 165122 (2013)

This list may not be complete. Please suggest additional citations or
report any other bugs at https://github.com/shankar1729/jdftx/issues

Initialization completed successfully at t[s]:     11.46


-------- Electronic minimization -----------
Will mix electronic density at each iteration.
	FillingsUpdate:  mu: -0.080704306  nElectrons: 9.000000  magneticMoment: [ Abs: 0.56000  Tot: +0.56000 ]
	FillingsUpdate:  mu: -0.082963887  nElectrons: 9.000000  magneticMoment: [ Abs: 0.56000  Tot: +0.56000 ]
SCF: Cycle:  0   F: -20.175974156541180   dF: -2.512e-03   |Residual|: 5.242e-03   |deigs|: 1.733e-01  t[s]:     16.32
	FillingsUpdate:  mu: -0.083235199  nElectrons: 9.000000  magneticMoment: [ Abs: 0.56003  Tot: +0.56000 ]
SCF: Cycle:  1   F: -20.176137427169611   dF: -1.633e-04   |Residual|: 4.534e-03   |deigs|: 5.149e-03  t[s]:     20.14
	FillingsUpdate:  mu: -0.083366296  nElectrons: 9.000000  magneticMoment: [ Abs: 0.56162  Tot: +0.56000 ]
SCF: Cycle:  2   F: -20.176227109778388   dF: -8.968e-05   |Residual|: 3.228e-03   |deigs|: 2.151e-03  t[s]:     23.98
	FillingsUpdate:  mu: -0.083444641  nElectrons: 9.000000  magneticMoment: [ Abs: 0.56268  Tot: +0.56000 ]
SCF: Cycle:  3   F: -20.176273815631792   dF: -4.671e-05   |Residual|: 2.323e-03   |deigs|: 1.492e-03  t[s]:     27.89
	FillingsUpdate:  mu: -0.083217110  nElectrons: 9.000000  magneticMoment: [ Abs: 0.56036  Tot: +0.56000 ]
SCF: Cycle:  4   F: -20.176293898029368   dF: -2.008e-05   |Residual|: 1.148e-03   |deigs|: 1.124e-03  t[s]:     31.83
	FillingsUpdate:  mu: -0.083175973  nElectrons: 9.000000  magneticMoment: [ Abs: 0.56060  Tot: +0.56000 ]
SCF: Cycle:  5   F: -20.176308522507430   dF: -1.462e-05   |Residual|: 7.988e-04   |deigs|: 5.692e-04  t[s]:     35.84
	FillingsUpdate:  mu: -0.083017670  nElectrons: 9.000000  magneticMoment: [ Abs: 0.56085  Tot: +0.56000 ]
SCF: Cycle:  6   F: -20.176316741900315   dF: -8.219e-06   |Residual|: 6.137e-04   |deigs|: 6.433e-04  t[s]:     39.94
	FillingsUpdate:  mu: -0.082648908  nElectrons: 9.000000  magneticMoment: [ Abs: 0.56134  Tot: +0.56000 ]
SCF: Cycle:  7   F: -20.176318079124091   dF: -1.337e-06   |Residual|: 5.297e-04   |deigs|: 4.450e-04  t[s]:     44.07
	FillingsUpdate:  mu: -0.081956328  nElectrons: 9.000000  magneticMoment: [ Abs: 0.56334  Tot: +0.56000 ]
SCF: Cycle:  8   F: -20.176314944114406   dF: +3.135e-06   |Residual|: 4.019e-04   |deigs|: 1.140e-03  t[s]:     48.35
	FillingsUpdate:  mu: -0.081190210  nElectrons: 9.000000  magneticMoment: [ Abs: 0.56338  Tot: +0.56000 ]
SCF: Cycle:  9   F: -20.176314580393630   dF: +3.637e-07   |Residual|: 3.863e-04   |deigs|: 9.967e-04  t[s]:     52.63
	FillingsUpdate:  mu: -0.081122203  nElectrons: 9.000000  magneticMoment: [ Abs: 0.56195  Tot: +0.56000 ]
SCF: Cycle: 10   F: -20.176319704508884   dF: -5.124e-06   |Residual|: 2.893e-04   |deigs|: 2.376e-04  t[s]:     56.96
	FillingsUpdate:  mu: -0.080823974  nElectrons: 9.000000  magneticMoment: [ Abs: 0.56399  Tot: +0.56000 ]
SCF: Cycle: 11   F: -20.176321737671127   dF: -2.033e-06   |Residual|: 2.550e-04   |deigs|: 7.366e-04  t[s]:     61.26
	FillingsUpdate:  mu: -0.080244029  nElectrons: 9.000000  magneticMoment: [ Abs: 0.56387  Tot: +0.56000 ]
SCF: Cycle: 12   F: -20.176320834959871   dF: +9.027e-07   |Residual|: 2.477e-04   |deigs|: 6.658e-04  t[s]:     65.61
	FillingsUpdate:  mu: -0.079730510  nElectrons: 9.000000  magneticMoment: [ Abs: 0.56215  Tot: +0.56000 ]
SCF: Cycle: 13   F: -20.176320041198760   dF: +7.938e-07   |Residual|: 2.364e-04   |deigs|: 5.521e-04  t[s]:     69.94
	FillingsUpdate:  mu: -0.079612018  nElectrons: 9.000000  magneticMoment: [ Abs: 0.56265  Tot: +0.56000 ]
SCF: Cycle: 14   F: -20.176322269752806   dF: -2.229e-06   |Residual|: 2.141e-04   |deigs|: 4.042e-04  t[s]:     74.30
	FillingsUpdate:  mu: -0.079258526  nElectrons: 9.000000  magneticMoment: [ Abs: 0.56213  Tot: +0.56000 ]
SCF: Cycle: 15   F: -20.176325189586606   dF: -2.920e-06   |Residual|: 1.536e-04   |deigs|: 5.877e-04  t[s]:     78.64
	FillingsUpdate:  mu: -0.078814592  nElectrons: 9.000000  magneticMoment: [ Abs: 0.56113  Tot: +0.56000 ]
SCF: Cycle: 16   F: -20.176326324345961   dF: -1.135e-06   |Residual|: 1.052e-04   |deigs|: 5.669e-04  t[s]:     83.05
	FillingsUpdate:  mu: -0.078786640  nElectrons: 9.000000  magneticMoment: [ Abs: 0.56084  Tot: +0.56000 ]
SCF: Cycle: 17   F: -20.176326653436153   dF: -3.291e-07   |Residual|: 8.067e-05   |deigs|: 3.212e-04  t[s]:     87.32
	FillingsUpdate:  mu: -0.078848737  nElectrons: 9.000000  magneticMoment: [ Abs: 0.56082  Tot: +0.56000 ]
SCF: Cycle: 18   F: -20.176326907248608   dF: -2.538e-07   |Residual|: 5.312e-05   |deigs|: 2.543e-04  t[s]:     91.65
	FillingsUpdate:  mu: -0.078837352  nElectrons: 9.000000  magneticMoment: [ Abs: 0.56088  Tot: +0.56000 ]
SCF: Cycle: 19   F: -20.176327041314572   dF: -1.341e-07   |Residual|: 3.504e-05   |deigs|: 1.738e-04  t[s]:     95.93
	FillingsUpdate:  mu: -0.078851159  nElectrons: 9.000000  magneticMoment: [ Abs: 0.56088  Tot: +0.56000 ]
SCF: Cycle: 20   F: -20.176327115557058   dF: -7.424e-08   |Residual|: 1.882e-05   |deigs|: 1.467e-04  t[s]:    100.33
	FillingsUpdate:  mu: -0.078840920  nElectrons: 9.000000  magneticMoment: [ Abs: 0.56090  Tot: +0.56000 ]
SCF: Cycle: 21   F: -20.176327135156320   dF: -1.960e-08   |Residual|: 1.473e-05   |deigs|: 1.476e-04  t[s]:    104.69
	FillingsUpdate:  mu: -0.078844765  nElectrons: 9.000000  magneticMoment: [ Abs: 0.56092  Tot: +0.56000 ]
SCF: Cycle: 22   F: -20.176327148191557   dF: -1.304e-08   |Residual|: 1.033e-05   |deigs|: 6.906e-05  t[s]:    109.01
	FillingsUpdate:  mu: -0.078852073  nElectrons: 9.000000  magneticMoment: [ Abs: 0.56090  Tot: +0.56000 ]
SCF: Cycle: 23   F: -20.176327152783308   dF: -4.592e-09   |Residual|: 6.434e-06   |deigs|: 2.782e-05  t[s]:    113.37
	FillingsUpdate:  mu: -0.078850125  nElectrons: 9.000000  magneticMoment: [ Abs: 0.56091  Tot: +0.56000 ]
SCF: Cycle: 24   F: -20.176327157355303   dF: -4.572e-09   |Residual|: 5.084e-06   |deigs|: 1.747e-05  t[s]:    117.71
SCF: Converged (|Delta E|<1.000000e-08 for 2 iters).


# Ionic positions in lattice coordinates:
ion Cs   0.000000000000000   0.000000000000000   0.000000000000000 0

# Forces in Lattice coordinates:
force Cs   0.000000000000000   0.000000000000000   0.000000000000000 0

# Energy components:
   Eewald =      -12.0320174002217755
       EH =        4.0185462988562968
     Eloc =      -17.5884163864266654
      Enl =        3.4319237602234343
   Epulay =       -0.0000000107257212
      Exc =       -3.1098642160525922
       KE =        5.1035014357347217
-------------------------------------
     Etot =      -20.1763265186123029
       TS =        0.0000006387429985
-------------------------------------
        F =      -20.1763271573553027

IonicMinimize: Iter:   0  F: -20.176327157355303  |grad|_K:  0.000e+00  t[s]:    117.97
IonicMinimize: Converged (|grad|_K<1.000000e-04).

#--- Lowdin population analysis ---
# oxidation-state Cs +0.063
# magnetic-moments Cs +0.504

End date and time: Sun Feb  6 13:32:09 2022  (Duration: 0-0:01:58.02)
Done!
