
*************** JDFTx 1.6.0 (git hash 42ebbcc2) ***************

Start date and time: Sun Feb  6 13:10:21 2022
Executable jdftx with command-line: -i Alkali.in
Running on hosts (process indices):  d-3-15-4 (0-18)
Divided in process groups (process indices):  0 (0)  1 (1)  2 (2)  3 (3)  4 (4)  5 (5)  6 (6)  7 (7)  8 (8)  9 (9)  10 (10)  11 (11)  12 (12)  13 (13)  14 (14)  15 (15)  16 (16)  17 (17)  18 (18)
Resource initialization completed at t[s]:      0.00
Run totals: 19 processes, 48 threads, 0 GPUs


Input parsed successfully to the following command list (including defaults):

basis kpoint-dependent
coords-type Lattice
core-overlap-check vector
coulomb-interaction Slab 001
davidson-band-ratio 1.1
dump End None
dump-name $INPUT.$VAR
elec-cutoff 20
elec-eigen-algo Davidson
elec-ex-corr gga-PBE
elec-initial-magnetization -0.920000 yes
elec-smearing Fermi 1e-05
electronic-minimize  \
	dirUpdateScheme      FletcherReeves \
	linminMethod         DirUpdateRecommended \
	nIterations          100 \
	history              15 \
	knormThreshold       0 \
	energyDiffThreshold  1e-08 \
	nEnergyDiff          2 \
	alphaTstart          1 \
	alphaTmin            1e-10 \
	updateTestStepSize   yes \
	alphaTreduceFactor   0.1 \
	alphaTincreaseFactor 3 \
	nAlphaAdjustMax      3 \
	wolfeEnergy          0.0001 \
	wolfeGradient        0.9 \
	fdTest               no
electronic-scf  \
	nIterations	10000 \
	energyDiffThreshold	1e-08 \
	residualThreshold	1e-07 \
	mixFraction	0.5 \
	qMetric	0.8 \
	history	10 \
	nEigSteps	2 \
	eigDiffThreshold	1e-08 \
	mixedVariable	Density \
	qKerker	0.8 \
	qKappa	-1 \
	verbose	no \
	mixFractionMag	1.5
exchange-regularization WignerSeitzTruncated
fluid None
fluid-ex-corr (null) lda-PZ
fluid-gummel-loop 10 1.000000e-05
fluid-minimize  \
	dirUpdateScheme      PolakRibiere \
	linminMethod         DirUpdateRecommended \
	nIterations          100 \
	history              15 \
	knormThreshold       0 \
	energyDiffThreshold  0 \
	nEnergyDiff          2 \
	alphaTstart          1 \
	alphaTmin            1e-10 \
	updateTestStepSize   yes \
	alphaTreduceFactor   0.1 \
	alphaTincreaseFactor 3 \
	nAlphaAdjustMax      3 \
	wolfeEnergy          0.0001 \
	wolfeGradient        0.9 \
	fdTest               no
fluid-solvent H2O 55.338 ScalarEOS \
	epsBulk 78.4 \
	pMol 0.92466 \
	epsInf 1.77 \
	Pvap 1.06736e-10 \
	sigmaBulk 4.62e-05 \
	Rvdw 2.61727 \
	Res 1.42 \
	tauNuc 343133 \
	poleEl 15 7 1
forces-output-coords Positions
ion Cs   0.000000000000000   0.000000000000000   0.000000000000000 0
ion-species SG15/$ID_ONCV_PBE.upf
ion-width 0
ionic-minimize  \
	dirUpdateScheme      L-BFGS \
	linminMethod         DirUpdateRecommended \
	nIterations          0 \
	history              15 \
	knormThreshold       0.0001 \
	energyDiffThreshold  1e-06 \
	nEnergyDiff          2 \
	alphaTstart          1 \
	alphaTmin            1e-10 \
	updateTestStepSize   yes \
	alphaTreduceFactor   0.1 \
	alphaTincreaseFactor 3 \
	nAlphaAdjustMax      3 \
	wolfeEnergy          0.0001 \
	wolfeGradient        0.9 \
	fdTest               no
kpoint   0.000000000000   0.000000000000   0.000000000000  1.00000000000000
kpoint-folding 12 12 1 
latt-move-scale 1 1 1
latt-scale 3 3 1 
lattice  \
	   4.727486978767153   -2.363743489383575    0.000000000000000  \
	  -0.000000000000000    4.094123819672498    0.000000000000000  \
	   0.000000000000000    0.000000000000000   40.000000000000000 
lattice-minimize  \
	dirUpdateScheme      L-BFGS \
	linminMethod         DirUpdateRecommended \
	nIterations          0 \
	history              15 \
	knormThreshold       0 \
	energyDiffThreshold  1e-06 \
	nEnergyDiff          2 \
	alphaTstart          1 \
	alphaTmin            1e-10 \
	updateTestStepSize   yes \
	alphaTreduceFactor   0.1 \
	alphaTincreaseFactor 3 \
	nAlphaAdjustMax      3 \
	wolfeEnergy          0.0001 \
	wolfeGradient        0.9 \
	fdTest               no
lcao-params -1 1e-06 1e-05
pcm-variant GLSSA13
spintype z-spin
subspace-rotation-factor 1 yes
symmetries automatic
symmetry-threshold 0.0001



---------- Setting up symmetries ----------

Found 24 point-group symmetries of the bravais lattice
Found 24 space-group symmetries with basis
Applied RMS atom displacement 0 bohrs to make symmetries exact.

---------- Initializing the Grid ----------
R = 
[      14.1825     -7.09123            0  ]
[            0      12.2824            0  ]
[            0            0           40  ]
unit cell volume = 6967.77
G =
[   0.443025   0.255781         -0  ]
[          0   0.511561         -0  ]
[         -0         -0    0.15708  ]
Minimum fftbox size, Smin = [  60  60  164  ]
Chosen fftbox size, S = [  60  60  168  ]

---------- Exchange Correlation functional ----------
Initalized PBE GGA exchange.
Initalized PBE GGA correlation.

---------- Setting up pseudopotentials ----------
Width of ionic core gaussian charges (only for fluid interactions / plotting) set to 0

Reading pseudopotential file '/home/gridsan/aligho/DFT/build-Nov24/pseudopotentials/SG15/Cs_ONCV_PBE.upf':
  'Cs' pseudopotential, 'PBE' functional
  Generated using ONCVPSP code by D. R. Hamann
  Author: Martin Schlipf and Francois Gygi  Date: 150915.
  9 valence electrons, 3 orbitals, 6 projectors, 2414 radial grid points, with lMax = 2
  Transforming local potential to a uniform radial grid of dG=0.02 with 1489 points.
  Transforming nonlocal projectors to a uniform radial grid of dG=0.02 with 432 points.
    5S    l: 0   occupation:  2.0   eigenvalue: -0.982388
    5P    l: 1   occupation:  6.0   eigenvalue: -0.496786
    6S    l: 0   occupation:  1.0   eigenvalue: -0.076670
  Transforming atomic orbitals to a uniform radial grid of dG=0.02 with 432 points.
  Core radius for overlap checks: 2.06 bohrs.
  Reading pulay file /home/gridsan/aligho/DFT/build-Nov24/pseudopotentials/SG15/Cs_ONCV_PBE.pulay ... using dE_dnG = -1.008762e-04 computed for Ecut = 20.

Initialized 1 species with 1 total atoms.

Folded 1 k-points by 12x12x1 to 144 k-points.

---------- Setting up k-points, bands, fillings ----------
Reduced to 19 k-points under symmetry. 
Computing the number of bands and number of electrons
Calculating initial fillings.
nElectrons:   9.000000   nBands: 6   nStates: 38

----- Setting up reduced wavefunction bases (one per k-point) -----
average nbasis = 29766.104 , ideal nbasis = 29766.845

---------- Setting up coulomb interaction ----------
Initialized slab truncation along lattice direction 001

---------- Setting up 2D ewald sum ----------
Optimum gaussian width for ewald sums = 7.873530 bohr.
Real space sums over 289 unit cells with max indices [  8  8  0  ]
Reciprocal space sums over 81 terms with max indices [  4  4  0  ]

---------- Allocating electronic variables ----------
Initializing wave functions:  linear combination of atomic orbitals
Note: number of bands (6) exceeds available atomic orbitals (5)
Cs pseudo-atom occupations:   s ( 2 1 )  p ( 6 )
	FillingsUpdate:  mu: -0.081271451  nElectrons: 9.000000  magneticMoment: [ Abs: 0.92000  Tot: -0.92000 ]
LCAOMinimize: Iter:   0  F: -20.1706244466176265  |grad|_K:  4.155e-06  alpha:  1.000e+00
	FillingsUpdate:  mu: -0.081271065  nElectrons: 9.000000  magneticMoment: [ Abs: 0.92000  Tot: -0.92000 ]
LCAOMinimize: Iter:   1  F: -20.1706244583896783  |grad|_K:  2.221e-08  alpha:  9.969e-01  linmin: -2.786e-03  cgtest:  5.313e-02  t[s]:      8.80
LCAOMinimize: Encountered beta<0, resetting CG.
	FillingsUpdate:  mu: -0.081271071  nElectrons: 9.000000  magneticMoment: [ Abs: 0.92000  Tot: -0.92000 ]
LCAOMinimize: Iter:   2  F: -20.1706244583898417  |grad|_K:  1.238e-10  alpha:  9.938e-01  linmin: -1.703e-02  cgtest:  1.449e-01  t[s]:     11.17
LCAOMinimize: Encountered beta<0, resetting CG.
LCAOMinimize: Converged (|Delta F|<1.000000e-06 for 2 iters).


---- Citations for features of the code used in this run ----

   Software package:
      R. Sundararaman, K. Letchworth-Weaver, K.A. Schwarz, D. Gunceler, Y. Ozhabes and T.A. Arias, 'JDFTx: software for joint density-functional theory', SoftwareX 6, 278 (2017)

   gga-PBE exchange-correlation functional:
      J.P. Perdew, K. Burke and M. Ernzerhof, Phys. Rev. Lett. 77, 3865 (1996)

   Pseudopotentials:
      M Schlipf and F Gygi, Comput. Phys. Commun. 196, 36 (2015)

   Truncated Coulomb potentials:
      R. Sundararaman and T.A. Arias, Phys. Rev. B 87, 165122 (2013)

This list may not be complete. Please suggest additional citations or
report any other bugs at https://github.com/shankar1729/jdftx/issues

Initialization completed successfully at t[s]:     11.33


-------- Electronic minimization -----------
Will mix electronic density at each iteration.
	FillingsUpdate:  mu: -0.081271071  nElectrons: 9.000000  magneticMoment: [ Abs: 0.92000  Tot: -0.92000 ]
	FillingsUpdate:  mu: -0.082767730  nElectrons: 9.000000  magneticMoment: [ Abs: 0.92000  Tot: -0.92000 ]
SCF: Cycle:  0   F: -20.172939330421855   dF: -2.315e-03   |Residual|: 4.985e-03   |deigs|: 1.734e-01  t[s]:     16.11
	FillingsUpdate:  mu: -0.083067978  nElectrons: 9.000000  magneticMoment: [ Abs: 0.92108  Tot: -0.92000 ]
SCF: Cycle:  1   F: -20.173143466113462   dF: -2.041e-04   |Residual|: 4.181e-03   |deigs|: 4.866e-03  t[s]:     19.84
	FillingsUpdate:  mu: -0.082580334  nElectrons: 9.000000  magneticMoment: [ Abs: 0.92329  Tot: -0.92000 ]
SCF: Cycle:  2   F: -20.173259918582392   dF: -1.165e-04   |Residual|: 3.365e-03   |deigs|: 2.696e-03  t[s]:     23.65
	FillingsUpdate:  mu: -0.082622733  nElectrons: 9.000000  magneticMoment: [ Abs: 0.92476  Tot: -0.92000 ]
SCF: Cycle:  3   F: -20.173366002629191   dF: -1.061e-04   |Residual|: 2.748e-03   |deigs|: 1.779e-03  t[s]:     27.53
	FillingsUpdate:  mu: -0.083474257  nElectrons: 9.000000  magneticMoment: [ Abs: 0.92236  Tot: -0.92000 ]
SCF: Cycle:  4   F: -20.173434208774157   dF: -6.821e-05   |Residual|: 1.722e-03   |deigs|: 1.631e-03  t[s]:     31.46
	FillingsUpdate:  mu: -0.083909147  nElectrons: 9.000000  magneticMoment: [ Abs: 0.92225  Tot: -0.92000 ]
SCF: Cycle:  5   F: -20.173460025192288   dF: -2.582e-05   |Residual|: 1.005e-03   |deigs|: 1.059e-03  t[s]:     35.45
	FillingsUpdate:  mu: -0.083346847  nElectrons: 9.000000  magneticMoment: [ Abs: 0.92303  Tot: -0.92000 ]
SCF: Cycle:  6   F: -20.173471312281315   dF: -1.129e-05   |Residual|: 9.380e-04   |deigs|: 7.519e-04  t[s]:     39.47
	FillingsUpdate:  mu: -0.083174056  nElectrons: 9.000000  magneticMoment: [ Abs: 0.92284  Tot: -0.92000 ]
SCF: Cycle:  7   F: -20.173477059400135   dF: -5.747e-06   |Residual|: 7.656e-04   |deigs|: 2.315e-04  t[s]:     43.66
	FillingsUpdate:  mu: -0.082422446  nElectrons: 9.000000  magneticMoment: [ Abs: 0.92352  Tot: -0.92000 ]
SCF: Cycle:  8   F: -20.173481881434981   dF: -4.822e-06   |Residual|: 6.192e-04   |deigs|: 7.277e-04  t[s]:     47.80
	FillingsUpdate:  mu: -0.081722084  nElectrons: 9.000000  magneticMoment: [ Abs: 0.92420  Tot: -0.92000 ]
SCF: Cycle:  9   F: -20.173482416473636   dF: -5.350e-07   |Residual|: 6.851e-04   |deigs|: 8.894e-04  t[s]:     52.03
	FillingsUpdate:  mu: -0.081234484  nElectrons: 9.000000  magneticMoment: [ Abs: 0.92264  Tot: -0.92000 ]
SCF: Cycle: 10   F: -20.173483103192257   dF: -6.867e-07   |Residual|: 3.625e-04   |deigs|: 2.781e-04  t[s]:     56.33
	FillingsUpdate:  mu: -0.081313270  nElectrons: 9.000000  magneticMoment: [ Abs: 0.92412  Tot: -0.92000 ]
SCF: Cycle: 11   F: -20.173490287973951   dF: -7.185e-06   |Residual|: 5.713e-04   |deigs|: 5.926e-04  t[s]:     60.67
	FillingsUpdate:  mu: -0.081205777  nElectrons: 9.000000  magneticMoment: [ Abs: 0.92414  Tot: -0.92000 ]
SCF: Cycle: 12   F: -20.173493561333490   dF: -3.273e-06   |Residual|: 3.346e-04   |deigs|: 3.563e-04  t[s]:     64.95
	FillingsUpdate:  mu: -0.080812053  nElectrons: 9.000000  magneticMoment: [ Abs: 0.92437  Tot: -0.92000 ]
SCF: Cycle: 13   F: -20.173494695947710   dF: -1.135e-06   |Residual|: 2.537e-04   |deigs|: 3.504e-04  t[s]:     69.21
	FillingsUpdate:  mu: -0.080373737  nElectrons: 9.000000  magneticMoment: [ Abs: 0.92407  Tot: -0.92000 ]
SCF: Cycle: 14   F: -20.173494030702585   dF: +6.652e-07   |Residual|: 2.452e-04   |deigs|: 4.044e-04  t[s]:     73.51
	FillingsUpdate:  mu: -0.079996541  nElectrons: 9.000000  magneticMoment: [ Abs: 0.92478  Tot: -0.92000 ]
SCF: Cycle: 15   F: -20.173494721638892   dF: -6.909e-07   |Residual|: 2.142e-04   |deigs|: 5.570e-04  t[s]:     77.84
	FillingsUpdate:  mu: -0.079699223  nElectrons: 9.000000  magneticMoment: [ Abs: 0.92441  Tot: -0.92000 ]
SCF: Cycle: 16   F: -20.173496709803299   dF: -1.988e-06   |Residual|: 1.712e-04   |deigs|: 4.882e-04  t[s]:     82.18
	FillingsUpdate:  mu: -0.079470452  nElectrons: 9.000000  magneticMoment: [ Abs: 0.92286  Tot: -0.92000 ]
SCF: Cycle: 17   F: -20.173497893300301   dF: -1.183e-06   |Residual|: 1.323e-04   |deigs|: 3.504e-04  t[s]:     86.50
	FillingsUpdate:  mu: -0.079374182  nElectrons: 9.000000  magneticMoment: [ Abs: 0.92237  Tot: -0.92000 ]
SCF: Cycle: 18   F: -20.173498612956806   dF: -7.197e-07   |Residual|: 8.708e-05   |deigs|: 2.726e-04  t[s]:     90.80
	FillingsUpdate:  mu: -0.079309474  nElectrons: 9.000000  magneticMoment: [ Abs: 0.92245  Tot: -0.92000 ]
SCF: Cycle: 19   F: -20.173498966812769   dF: -3.539e-07   |Residual|: 6.289e-05   |deigs|: 2.053e-04  t[s]:     95.08
	FillingsUpdate:  mu: -0.079292910  nElectrons: 9.000000  magneticMoment: [ Abs: 0.92265  Tot: -0.92000 ]
SCF: Cycle: 20   F: -20.173499028592726   dF: -6.178e-08   |Residual|: 4.489e-05   |deigs|: 9.049e-05  t[s]:     99.38
	FillingsUpdate:  mu: -0.079294734  nElectrons: 9.000000  magneticMoment: [ Abs: 0.92270  Tot: -0.92000 ]
SCF: Cycle: 21   F: -20.173499280298142   dF: -2.517e-07   |Residual|: 3.589e-05   |deigs|: 8.409e-05  t[s]:    103.74
	FillingsUpdate:  mu: -0.079315224  nElectrons: 9.000000  magneticMoment: [ Abs: 0.92269  Tot: -0.92000 ]
SCF: Cycle: 22   F: -20.173499290497979   dF: -1.020e-08   |Residual|: 2.478e-05   |deigs|: 8.041e-05  t[s]:    108.05
	FillingsUpdate:  mu: -0.079315421  nElectrons: 9.000000  magneticMoment: [ Abs: 0.92275  Tot: -0.92000 ]
SCF: Cycle: 23   F: -20.173499424935116   dF: -1.344e-07   |Residual|: 1.872e-05   |deigs|: 5.850e-05  t[s]:    112.39
	FillingsUpdate:  mu: -0.079322330  nElectrons: 9.000000  magneticMoment: [ Abs: 0.92272  Tot: -0.92000 ]
SCF: Cycle: 24   F: -20.173499455709038   dF: -3.077e-08   |Residual|: 1.356e-05   |deigs|: 1.211e-04  t[s]:    116.67
	FillingsUpdate:  mu: -0.079322855  nElectrons: 9.000000  magneticMoment: [ Abs: 0.92257  Tot: -0.92000 ]
SCF: Cycle: 25   F: -20.173499461720329   dF: -6.011e-09   |Residual|: 9.623e-06   |deigs|: 6.979e-05  t[s]:    121.03
	FillingsUpdate:  mu: -0.079328637  nElectrons: 9.000000  magneticMoment: [ Abs: 0.92243  Tot: -0.92000 ]
SCF: Cycle: 26   F: -20.173499464177223   dF: -2.457e-09   |Residual|: 7.406e-06   |deigs|: 2.610e-05  t[s]:    125.37
SCF: Converged (|Delta E|<1.000000e-08 for 2 iters).


# Ionic positions in lattice coordinates:
ion Cs   0.000000000000000   0.000000000000000   0.000000000000000 0

# Forces in Lattice coordinates:
force Cs   0.000000000000000  -0.000000000000000   0.000000000000000 0

# Energy components:
   Eewald =      -12.0320174002217755
       EH =        4.0369753320456496
     Eloc =      -17.6097785423052713
      Enl =        3.4331861359340623
   Epulay =       -0.0000000107257212
      Exc =       -3.1132203227802622
       KE =        5.1113560742887003
-------------------------------------
     Etot =      -20.1734987337646174
       TS =        0.0000007304126033
-------------------------------------
        F =      -20.1734994641772225

IonicMinimize: Iter:   0  F: -20.173499464177223  |grad|_K:  0.000e+00  t[s]:    125.62
IonicMinimize: Converged (|grad|_K<1.000000e-04).

#--- Lowdin population analysis ---
# oxidation-state Cs +0.076
# magnetic-moments Cs -0.845

End date and time: Sun Feb  6 13:12:27 2022  (Duration: 0-0:02:05.67)
Done!
