
*************** JDFTx 1.6.0 (git hash 42ebbcc2) ***************

Start date and time: Sun Feb  6 13:36:32 2022
Executable jdftx with command-line: -i Alkali.in
Running on hosts (process indices):  c-16-3-4 (0-18)
Divided in process groups (process indices):  0 (0)  1 (1)  2 (2)  3 (3)  4 (4)  5 (5)  6 (6)  7 (7)  8 (8)  9 (9)  10 (10)  11 (11)  12 (12)  13 (13)  14 (14)  15 (15)  16 (16)  17 (17)  18 (18)
Resource initialization completed at t[s]:      0.00
Run totals: 19 processes, 48 threads, 0 GPUs


Input parsed successfully to the following command list (including defaults):

basis kpoint-dependent
coords-type Lattice
core-overlap-check vector
coulomb-interaction Slab 001
davidson-band-ratio 1.1
dump End None
dump-name $INPUT.$VAR
elec-cutoff 20
elec-eigen-algo Davidson
elec-ex-corr gga-PBE
elec-initial-magnetization 0.940000 yes
elec-smearing Fermi 1e-05
electronic-minimize  \
	dirUpdateScheme      FletcherReeves \
	linminMethod         DirUpdateRecommended \
	nIterations          100 \
	history              15 \
	knormThreshold       0 \
	energyDiffThreshold  1e-08 \
	nEnergyDiff          2 \
	alphaTstart          1 \
	alphaTmin            1e-10 \
	updateTestStepSize   yes \
	alphaTreduceFactor   0.1 \
	alphaTincreaseFactor 3 \
	nAlphaAdjustMax      3 \
	wolfeEnergy          0.0001 \
	wolfeGradient        0.9 \
	fdTest               no
electronic-scf  \
	nIterations	10000 \
	energyDiffThreshold	1e-08 \
	residualThreshold	1e-07 \
	mixFraction	0.5 \
	qMetric	0.8 \
	history	10 \
	nEigSteps	2 \
	eigDiffThreshold	1e-08 \
	mixedVariable	Density \
	qKerker	0.8 \
	qKappa	-1 \
	verbose	no \
	mixFractionMag	1.5
exchange-regularization WignerSeitzTruncated
fluid None
fluid-ex-corr (null) lda-PZ
fluid-gummel-loop 10 1.000000e-05
fluid-minimize  \
	dirUpdateScheme      PolakRibiere \
	linminMethod         DirUpdateRecommended \
	nIterations          100 \
	history              15 \
	knormThreshold       0 \
	energyDiffThreshold  0 \
	nEnergyDiff          2 \
	alphaTstart          1 \
	alphaTmin            1e-10 \
	updateTestStepSize   yes \
	alphaTreduceFactor   0.1 \
	alphaTincreaseFactor 3 \
	nAlphaAdjustMax      3 \
	wolfeEnergy          0.0001 \
	wolfeGradient        0.9 \
	fdTest               no
fluid-solvent H2O 55.338 ScalarEOS \
	epsBulk 78.4 \
	pMol 0.92466 \
	epsInf 1.77 \
	Pvap 1.06736e-10 \
	sigmaBulk 4.62e-05 \
	Rvdw 2.61727 \
	Res 1.42 \
	tauNuc 343133 \
	poleEl 15 7 1
forces-output-coords Positions
ion Cs   0.000000000000000   0.000000000000000   0.000000000000000 0
ion-species SG15/$ID_ONCV_PBE.upf
ion-width 0
ionic-minimize  \
	dirUpdateScheme      L-BFGS \
	linminMethod         DirUpdateRecommended \
	nIterations          0 \
	history              15 \
	knormThreshold       0.0001 \
	energyDiffThreshold  1e-06 \
	nEnergyDiff          2 \
	alphaTstart          1 \
	alphaTmin            1e-10 \
	updateTestStepSize   yes \
	alphaTreduceFactor   0.1 \
	alphaTincreaseFactor 3 \
	nAlphaAdjustMax      3 \
	wolfeEnergy          0.0001 \
	wolfeGradient        0.9 \
	fdTest               no
kpoint   0.000000000000   0.000000000000   0.000000000000  1.00000000000000
kpoint-folding 12 12 1 
latt-move-scale 1 1 1
latt-scale 3 3 1 
lattice  \
	   4.727486978767153   -2.363743489383575    0.000000000000000  \
	  -0.000000000000000    4.094123819672498    0.000000000000000  \
	   0.000000000000000    0.000000000000000   40.000000000000000 
lattice-minimize  \
	dirUpdateScheme      L-BFGS \
	linminMethod         DirUpdateRecommended \
	nIterations          0 \
	history              15 \
	knormThreshold       0 \
	energyDiffThreshold  1e-06 \
	nEnergyDiff          2 \
	alphaTstart          1 \
	alphaTmin            1e-10 \
	updateTestStepSize   yes \
	alphaTreduceFactor   0.1 \
	alphaTincreaseFactor 3 \
	nAlphaAdjustMax      3 \
	wolfeEnergy          0.0001 \
	wolfeGradient        0.9 \
	fdTest               no
lcao-params -1 1e-06 1e-05
pcm-variant GLSSA13
spintype z-spin
subspace-rotation-factor 1 yes
symmetries automatic
symmetry-threshold 0.0001



---------- Setting up symmetries ----------

Found 24 point-group symmetries of the bravais lattice
Found 24 space-group symmetries with basis
Applied RMS atom displacement 0 bohrs to make symmetries exact.

---------- Initializing the Grid ----------
R = 
[      14.1825     -7.09123            0  ]
[            0      12.2824            0  ]
[            0            0           40  ]
unit cell volume = 6967.77
G =
[   0.443025   0.255781         -0  ]
[          0   0.511561         -0  ]
[         -0         -0    0.15708  ]
Minimum fftbox size, Smin = [  60  60  164  ]
Chosen fftbox size, S = [  60  60  168  ]

---------- Exchange Correlation functional ----------
Initalized PBE GGA exchange.
Initalized PBE GGA correlation.

---------- Setting up pseudopotentials ----------
Width of ionic core gaussian charges (only for fluid interactions / plotting) set to 0

Reading pseudopotential file '/home/gridsan/aligho/DFT/build-Nov24/pseudopotentials/SG15/Cs_ONCV_PBE.upf':
  'Cs' pseudopotential, 'PBE' functional
  Generated using ONCVPSP code by D. R. Hamann
  Author: Martin Schlipf and Francois Gygi  Date: 150915.
  9 valence electrons, 3 orbitals, 6 projectors, 2414 radial grid points, with lMax = 2
  Transforming local potential to a uniform radial grid of dG=0.02 with 1489 points.
  Transforming nonlocal projectors to a uniform radial grid of dG=0.02 with 432 points.
    5S    l: 0   occupation:  2.0   eigenvalue: -0.982388
    5P    l: 1   occupation:  6.0   eigenvalue: -0.496786
    6S    l: 0   occupation:  1.0   eigenvalue: -0.076670
  Transforming atomic orbitals to a uniform radial grid of dG=0.02 with 432 points.
  Core radius for overlap checks: 2.06 bohrs.
  Reading pulay file /home/gridsan/aligho/DFT/build-Nov24/pseudopotentials/SG15/Cs_ONCV_PBE.pulay ... using dE_dnG = -1.008762e-04 computed for Ecut = 20.

Initialized 1 species with 1 total atoms.

Folded 1 k-points by 12x12x1 to 144 k-points.

---------- Setting up k-points, bands, fillings ----------
Reduced to 19 k-points under symmetry. 
Computing the number of bands and number of electrons
Calculating initial fillings.
nElectrons:   9.000000   nBands: 6   nStates: 38

----- Setting up reduced wavefunction bases (one per k-point) -----
average nbasis = 29766.104 , ideal nbasis = 29766.845

---------- Setting up coulomb interaction ----------
Initialized slab truncation along lattice direction 001

---------- Setting up 2D ewald sum ----------
Optimum gaussian width for ewald sums = 7.873530 bohr.
Real space sums over 289 unit cells with max indices [  8  8  0  ]
Reciprocal space sums over 81 terms with max indices [  4  4  0  ]

---------- Allocating electronic variables ----------
Initializing wave functions:  linear combination of atomic orbitals
Note: number of bands (6) exceeds available atomic orbitals (5)
Cs pseudo-atom occupations:   s ( 2 1 )  p ( 6 )
	FillingsUpdate:  mu: -0.080934356  nElectrons: 9.000000  magneticMoment: [ Abs: 0.94000  Tot: +0.94000 ]
LCAOMinimize: Iter:   0  F: -20.1704393925880652  |grad|_K:  3.354e-06  alpha:  1.000e+00
	FillingsUpdate:  mu: -0.080933929  nElectrons: 9.000000  magneticMoment: [ Abs: 0.94000  Tot: +0.94000 ]
LCAOMinimize: Iter:   1  F: -20.1704394002559404  |grad|_K:  1.633e-08  alpha:  9.967e-01  linmin: -1.108e-03  cgtest:  1.761e-02  t[s]:      8.91
LCAOMinimize: Encountered beta<0, resetting CG.
	FillingsUpdate:  mu: -0.080933930  nElectrons: 9.000000  magneticMoment: [ Abs: 0.94000  Tot: +0.94000 ]
LCAOMinimize: Iter:   2  F: -20.1704394002561429  |grad|_K:  1.055e-08  alpha:  3.519e-01  linmin: -1.054e-01  cgtest:  1.000e+00  t[s]:     11.34
LCAOMinimize: Encountered beta<0, resetting CG.
LCAOMinimize: Converged (|Delta F|<1.000000e-06 for 2 iters).


---- Citations for features of the code used in this run ----

   Software package:
      R. Sundararaman, K. Letchworth-Weaver, K.A. Schwarz, D. Gunceler, Y. Ozhabes and T.A. Arias, 'JDFTx: software for joint density-functional theory', SoftwareX 6, 278 (2017)

   gga-PBE exchange-correlation functional:
      J.P. Perdew, K. Burke and M. Ernzerhof, Phys. Rev. Lett. 77, 3865 (1996)

   Pseudopotentials:
      M Schlipf and F Gygi, Comput. Phys. Commun. 196, 36 (2015)

   Truncated Coulomb potentials:
      R. Sundararaman and T.A. Arias, Phys. Rev. B 87, 165122 (2013)

This list may not be complete. Please suggest additional citations or
report any other bugs at https://github.com/shankar1729/jdftx/issues

Initialization completed successfully at t[s]:     11.51


-------- Electronic minimization -----------
Will mix electronic density at each iteration.
	FillingsUpdate:  mu: -0.080933930  nElectrons: 9.000000  magneticMoment: [ Abs: 0.94000  Tot: +0.94000 ]
	FillingsUpdate:  mu: -0.082440711  nElectrons: 9.000000  magneticMoment: [ Abs: 0.94000  Tot: +0.94000 ]
SCF: Cycle:  0   F: -20.172721582329544   dF: -2.282e-03   |Residual|: 4.930e-03   |deigs|: 1.734e-01  t[s]:     16.37
	FillingsUpdate:  mu: -0.082033328  nElectrons: 9.000000  magneticMoment: [ Abs: 0.94128  Tot: +0.94000 ]
SCF: Cycle:  1   F: -20.172922548177645   dF: -2.010e-04   |Residual|: 4.109e-03   |deigs|: 4.775e-03  t[s]:     20.12
	FillingsUpdate:  mu: -0.081902731  nElectrons: 9.000000  magneticMoment: [ Abs: 0.94346  Tot: +0.94000 ]
SCF: Cycle:  2   F: -20.173042847485977   dF: -1.203e-04   |Residual|: 3.350e-03   |deigs|: 2.403e-03  t[s]:     23.94
	FillingsUpdate:  mu: -0.082040334  nElectrons: 9.000000  magneticMoment: [ Abs: 0.94488  Tot: +0.94000 ]
SCF: Cycle:  3   F: -20.173152080685739   dF: -1.092e-04   |Residual|: 2.779e-03   |deigs|: 1.490e-03  t[s]:     27.91
	FillingsUpdate:  mu: -0.082592941  nElectrons: 9.000000  magneticMoment: [ Abs: 0.94257  Tot: +0.94000 ]
SCF: Cycle:  4   F: -20.173222208235106   dF: -7.013e-05   |Residual|: 1.773e-03   |deigs|: 1.605e-03  t[s]:     31.89
	FillingsUpdate:  mu: -0.083561629  nElectrons: 9.000000  magneticMoment: [ Abs: 0.94240  Tot: +0.94000 ]
SCF: Cycle:  5   F: -20.173249624241318   dF: -2.742e-05   |Residual|: 1.028e-03   |deigs|: 1.394e-03  t[s]:     35.87
	FillingsUpdate:  mu: -0.082958214  nElectrons: 9.000000  magneticMoment: [ Abs: 0.94322  Tot: +0.94000 ]
SCF: Cycle:  6   F: -20.173259481219997   dF: -9.857e-06   |Residual|: 1.007e-03   |deigs|: 9.483e-04  t[s]:     39.87
	FillingsUpdate:  mu: -0.082714681  nElectrons: 9.000000  magneticMoment: [ Abs: 0.94302  Tot: +0.94000 ]
SCF: Cycle:  7   F: -20.173265632881535   dF: -6.152e-06   |Residual|: 8.021e-04   |deigs|: 4.466e-04  t[s]:     43.99
	FillingsUpdate:  mu: -0.082238356  nElectrons: 9.000000  magneticMoment: [ Abs: 0.94356  Tot: +0.94000 ]
SCF: Cycle:  8   F: -20.173272005013416   dF: -6.372e-06   |Residual|: 6.446e-04   |deigs|: 7.387e-04  t[s]:     48.17
	FillingsUpdate:  mu: -0.081628610  nElectrons: 9.000000  magneticMoment: [ Abs: 0.94423  Tot: +0.94000 ]
SCF: Cycle:  9   F: -20.173274024671038   dF: -2.020e-06   |Residual|: 7.229e-04   |deigs|: 8.859e-04  t[s]:     52.36
	FillingsUpdate:  mu: -0.081069487  nElectrons: 9.000000  magneticMoment: [ Abs: 0.94287  Tot: +0.94000 ]
SCF: Cycle: 10   F: -20.173273837977248   dF: +1.867e-07   |Residual|: 3.729e-04   |deigs|: 3.243e-04  t[s]:     56.73
	FillingsUpdate:  mu: -0.081029230  nElectrons: 9.000000  magneticMoment: [ Abs: 0.94422  Tot: +0.94000 ]
SCF: Cycle: 11   F: -20.173280445209890   dF: -6.607e-06   |Residual|: 5.636e-04   |deigs|: 6.254e-04  t[s]:     61.08
	FillingsUpdate:  mu: -0.081094112  nElectrons: 9.000000  magneticMoment: [ Abs: 0.94393  Tot: +0.94000 ]
SCF: Cycle: 12   F: -20.173283936347779   dF: -3.491e-06   |Residual|: 3.299e-04   |deigs|: 5.553e-04  t[s]:     65.39
	FillingsUpdate:  mu: -0.080822281  nElectrons: 9.000000  magneticMoment: [ Abs: 0.94421  Tot: +0.94000 ]
SCF: Cycle: 13   F: -20.173285399412741   dF: -1.463e-06   |Residual|: 2.425e-04   |deigs|: 3.145e-04  t[s]:     69.69
	FillingsUpdate:  mu: -0.080327000  nElectrons: 9.000000  magneticMoment: [ Abs: 0.94434  Tot: +0.94000 ]
SCF: Cycle: 14   F: -20.173285402555862   dF: -3.143e-09   |Residual|: 2.445e-04   |deigs|: 4.769e-04  t[s]:     74.02
	FillingsUpdate:  mu: -0.079948777  nElectrons: 9.000000  magneticMoment: [ Abs: 0.94454  Tot: +0.94000 ]
SCF: Cycle: 15   F: -20.173285438052936   dF: -3.550e-08   |Residual|: 2.126e-04   |deigs|: 4.547e-04  t[s]:     78.36
	FillingsUpdate:  mu: -0.079662255  nElectrons: 9.000000  magneticMoment: [ Abs: 0.94467  Tot: +0.94000 ]
SCF: Cycle: 16   F: -20.173287123398303   dF: -1.685e-06   |Residual|: 1.740e-04   |deigs|: 4.062e-04  t[s]:     82.76
	FillingsUpdate:  mu: -0.079390644  nElectrons: 9.000000  magneticMoment: [ Abs: 0.94346  Tot: +0.94000 ]
SCF: Cycle: 17   F: -20.173288293431533   dF: -1.170e-06   |Residual|: 1.410e-04   |deigs|: 3.881e-04  t[s]:     87.10
	FillingsUpdate:  mu: -0.079252423  nElectrons: 9.000000  magneticMoment: [ Abs: 0.94270  Tot: +0.94000 ]
SCF: Cycle: 18   F: -20.173289123298005   dF: -8.299e-07   |Residual|: 9.177e-05   |deigs|: 2.603e-04  t[s]:     91.38
	FillingsUpdate:  mu: -0.079198797  nElectrons: 9.000000  magneticMoment: [ Abs: 0.94265  Tot: +0.94000 ]
SCF: Cycle: 19   F: -20.173289528264327   dF: -4.050e-07   |Residual|: 6.819e-05   |deigs|: 1.783e-04  t[s]:     95.66
	FillingsUpdate:  mu: -0.079217036  nElectrons: 9.000000  magneticMoment: [ Abs: 0.94265  Tot: +0.94000 ]
SCF: Cycle: 20   F: -20.173289700847842   dF: -1.726e-07   |Residual|: 4.645e-05   |deigs|: 7.597e-05  t[s]:     99.98
	FillingsUpdate:  mu: -0.079225486  nElectrons: 9.000000  magneticMoment: [ Abs: 0.94272  Tot: +0.94000 ]
SCF: Cycle: 21   F: -20.173289791344931   dF: -9.050e-08   |Residual|: 3.220e-05   |deigs|: 9.443e-05  t[s]:    104.28
	FillingsUpdate:  mu: -0.079240388  nElectrons: 9.000000  magneticMoment: [ Abs: 0.94274  Tot: +0.94000 ]
SCF: Cycle: 22   F: -20.173289840056022   dF: -4.871e-08   |Residual|: 2.447e-05   |deigs|: 1.765e-04  t[s]:    108.59
	FillingsUpdate:  mu: -0.079238094  nElectrons: 9.000000  magneticMoment: [ Abs: 0.94278  Tot: +0.94000 ]
SCF: Cycle: 23   F: -20.173289982922213   dF: -1.429e-07   |Residual|: 1.669e-05   |deigs|: 1.480e-04  t[s]:    112.99
	FillingsUpdate:  mu: -0.079243238  nElectrons: 9.000000  magneticMoment: [ Abs: 0.94276  Tot: +0.94000 ]
SCF: Cycle: 24   F: -20.173290012519274   dF: -2.960e-08   |Residual|: 1.316e-05   |deigs|: 7.581e-05  t[s]:    117.28
	FillingsUpdate:  mu: -0.079238881  nElectrons: 9.000000  magneticMoment: [ Abs: 0.94272  Tot: +0.94000 ]
SCF: Cycle: 25   F: -20.173290016074816   dF: -3.556e-09   |Residual|: 9.394e-06   |deigs|: 3.933e-05  t[s]:    121.61
	FillingsUpdate:  mu: -0.079239785  nElectrons: 9.000000  magneticMoment: [ Abs: 0.94261  Tot: +0.94000 ]
SCF: Cycle: 26   F: -20.173290021179753   dF: -5.105e-09   |Residual|: 7.703e-06   |deigs|: 1.929e-05  t[s]:    125.96
SCF: Converged (|Delta E|<1.000000e-08 for 2 iters).


# Ionic positions in lattice coordinates:
ion Cs   0.000000000000000   0.000000000000000   0.000000000000000 0

# Forces in Lattice coordinates:
force Cs  -0.000000000000000   0.000000000000000   0.000000000000000 0

# Energy components:
   Eewald =      -12.0320174002217755
       EH =        4.0383073324811569
     Eloc =      -17.6114047876059878
      Enl =        3.4333176237012522
   Epulay =       -0.0000000107257212
      Exc =       -3.1134712109831959
       KE =        5.1119791277946209
-------------------------------------
     Etot =      -20.1732893255596508
       TS =        0.0000006956201006
-------------------------------------
        F =      -20.1732900211797528

IonicMinimize: Iter:   0  F: -20.173290021179753  |grad|_K:  0.000e+00  t[s]:    126.22
IonicMinimize: Converged (|grad|_K<1.000000e-04).

#--- Lowdin population analysis ---
# oxidation-state Cs +0.077
# magnetic-moments Cs +0.864

End date and time: Sun Feb  6 13:38:38 2022  (Duration: 0-0:02:06.26)
Done!
