
*************** JDFTx 1.6.0 (git hash 42ebbcc2) ***************

Start date and time: Sun Feb  6 13:10:11 2022
Executable jdftx with command-line: -i Alkali.in
Running on hosts (process indices):  d-16-8-3 (0-18)
Divided in process groups (process indices):  0 (0)  1 (1)  2 (2)  3 (3)  4 (4)  5 (5)  6 (6)  7 (7)  8 (8)  9 (9)  10 (10)  11 (11)  12 (12)  13 (13)  14 (14)  15 (15)  16 (16)  17 (17)  18 (18)
Resource initialization completed at t[s]:      0.00
Run totals: 19 processes, 48 threads, 0 GPUs


Input parsed successfully to the following command list (including defaults):

basis kpoint-dependent
coords-type Lattice
core-overlap-check vector
coulomb-interaction Slab 001
davidson-band-ratio 1.1
dump End None
dump-name $INPUT.$VAR
elec-cutoff 20
elec-eigen-algo Davidson
elec-ex-corr gga-PBE
elec-initial-magnetization -0.620000 yes
elec-smearing Fermi 1e-05
electronic-minimize  \
	dirUpdateScheme      FletcherReeves \
	linminMethod         DirUpdateRecommended \
	nIterations          100 \
	history              15 \
	knormThreshold       0 \
	energyDiffThreshold  1e-08 \
	nEnergyDiff          2 \
	alphaTstart          1 \
	alphaTmin            1e-10 \
	updateTestStepSize   yes \
	alphaTreduceFactor   0.1 \
	alphaTincreaseFactor 3 \
	nAlphaAdjustMax      3 \
	wolfeEnergy          0.0001 \
	wolfeGradient        0.9 \
	fdTest               no
electronic-scf  \
	nIterations	10000 \
	energyDiffThreshold	1e-08 \
	residualThreshold	1e-07 \
	mixFraction	0.5 \
	qMetric	0.8 \
	history	10 \
	nEigSteps	2 \
	eigDiffThreshold	1e-08 \
	mixedVariable	Density \
	qKerker	0.8 \
	qKappa	-1 \
	verbose	no \
	mixFractionMag	1.5
exchange-regularization WignerSeitzTruncated
fluid None
fluid-ex-corr (null) lda-PZ
fluid-gummel-loop 10 1.000000e-05
fluid-minimize  \
	dirUpdateScheme      PolakRibiere \
	linminMethod         DirUpdateRecommended \
	nIterations          100 \
	history              15 \
	knormThreshold       0 \
	energyDiffThreshold  0 \
	nEnergyDiff          2 \
	alphaTstart          1 \
	alphaTmin            1e-10 \
	updateTestStepSize   yes \
	alphaTreduceFactor   0.1 \
	alphaTincreaseFactor 3 \
	nAlphaAdjustMax      3 \
	wolfeEnergy          0.0001 \
	wolfeGradient        0.9 \
	fdTest               no
fluid-solvent H2O 55.338 ScalarEOS \
	epsBulk 78.4 \
	pMol 0.92466 \
	epsInf 1.77 \
	Pvap 1.06736e-10 \
	sigmaBulk 4.62e-05 \
	Rvdw 2.61727 \
	Res 1.42 \
	tauNuc 343133 \
	poleEl 15 7 1
forces-output-coords Positions
ion Cs   0.000000000000000   0.000000000000000   0.000000000000000 0
ion-species SG15/$ID_ONCV_PBE.upf
ion-width 0
ionic-minimize  \
	dirUpdateScheme      L-BFGS \
	linminMethod         DirUpdateRecommended \
	nIterations          0 \
	history              15 \
	knormThreshold       0.0001 \
	energyDiffThreshold  1e-06 \
	nEnergyDiff          2 \
	alphaTstart          1 \
	alphaTmin            1e-10 \
	updateTestStepSize   yes \
	alphaTreduceFactor   0.1 \
	alphaTincreaseFactor 3 \
	nAlphaAdjustMax      3 \
	wolfeEnergy          0.0001 \
	wolfeGradient        0.9 \
	fdTest               no
kpoint   0.000000000000   0.000000000000   0.000000000000  1.00000000000000
kpoint-folding 12 12 1 
latt-move-scale 1 1 1
latt-scale 3 3 1 
lattice  \
	   4.727486978767153   -2.363743489383575    0.000000000000000  \
	  -0.000000000000000    4.094123819672498    0.000000000000000  \
	   0.000000000000000    0.000000000000000   40.000000000000000 
lattice-minimize  \
	dirUpdateScheme      L-BFGS \
	linminMethod         DirUpdateRecommended \
	nIterations          0 \
	history              15 \
	knormThreshold       0 \
	energyDiffThreshold  1e-06 \
	nEnergyDiff          2 \
	alphaTstart          1 \
	alphaTmin            1e-10 \
	updateTestStepSize   yes \
	alphaTreduceFactor   0.1 \
	alphaTincreaseFactor 3 \
	nAlphaAdjustMax      3 \
	wolfeEnergy          0.0001 \
	wolfeGradient        0.9 \
	fdTest               no
lcao-params -1 1e-06 1e-05
pcm-variant GLSSA13
spintype z-spin
subspace-rotation-factor 1 yes
symmetries automatic
symmetry-threshold 0.0001



---------- Setting up symmetries ----------

Found 24 point-group symmetries of the bravais lattice
Found 24 space-group symmetries with basis
Applied RMS atom displacement 0 bohrs to make symmetries exact.

---------- Initializing the Grid ----------
R = 
[      14.1825     -7.09123            0  ]
[            0      12.2824            0  ]
[            0            0           40  ]
unit cell volume = 6967.77
G =
[   0.443025   0.255781         -0  ]
[          0   0.511561         -0  ]
[         -0         -0    0.15708  ]
Minimum fftbox size, Smin = [  60  60  164  ]
Chosen fftbox size, S = [  60  60  168  ]

---------- Exchange Correlation functional ----------
Initalized PBE GGA exchange.
Initalized PBE GGA correlation.

---------- Setting up pseudopotentials ----------
Width of ionic core gaussian charges (only for fluid interactions / plotting) set to 0

Reading pseudopotential file '/home/gridsan/aligho/DFT/build-Nov24/pseudopotentials/SG15/Cs_ONCV_PBE.upf':
  'Cs' pseudopotential, 'PBE' functional
  Generated using ONCVPSP code by D. R. Hamann
  Author: Martin Schlipf and Francois Gygi  Date: 150915.
  9 valence electrons, 3 orbitals, 6 projectors, 2414 radial grid points, with lMax = 2
  Transforming local potential to a uniform radial grid of dG=0.02 with 1489 points.
  Transforming nonlocal projectors to a uniform radial grid of dG=0.02 with 432 points.
    5S    l: 0   occupation:  2.0   eigenvalue: -0.982388
    5P    l: 1   occupation:  6.0   eigenvalue: -0.496786
    6S    l: 0   occupation:  1.0   eigenvalue: -0.076670
  Transforming atomic orbitals to a uniform radial grid of dG=0.02 with 432 points.
  Core radius for overlap checks: 2.06 bohrs.
  Reading pulay file /home/gridsan/aligho/DFT/build-Nov24/pseudopotentials/SG15/Cs_ONCV_PBE.pulay ... using dE_dnG = -1.008762e-04 computed for Ecut = 20.

Initialized 1 species with 1 total atoms.

Folded 1 k-points by 12x12x1 to 144 k-points.

---------- Setting up k-points, bands, fillings ----------
Reduced to 19 k-points under symmetry. 
Computing the number of bands and number of electrons
Calculating initial fillings.
nElectrons:   9.000000   nBands: 6   nStates: 38

----- Setting up reduced wavefunction bases (one per k-point) -----
average nbasis = 29766.104 , ideal nbasis = 29766.845

---------- Setting up coulomb interaction ----------
Initialized slab truncation along lattice direction 001

---------- Setting up 2D ewald sum ----------
Optimum gaussian width for ewald sums = 7.873530 bohr.
Real space sums over 289 unit cells with max indices [  8  8  0  ]
Reciprocal space sums over 81 terms with max indices [  4  4  0  ]

---------- Allocating electronic variables ----------
Initializing wave functions:  linear combination of atomic orbitals
Note: number of bands (6) exceeds available atomic orbitals (5)
Cs pseudo-atom occupations:   s ( 2 1 )  p ( 6 )
	FillingsUpdate:  mu: -0.081747734  nElectrons: 9.000000  magneticMoment: [ Abs: 0.62000  Tot: -0.62000 ]
LCAOMinimize: Iter:   0  F: -20.1730564027434056  |grad|_K:  1.576e-05  alpha:  1.000e+00
	FillingsUpdate:  mu: -0.081745100  nElectrons: 9.000000  magneticMoment: [ Abs: 0.62000  Tot: -0.62000 ]
LCAOMinimize: Iter:   1  F: -20.1730565710759500  |grad|_K:  1.036e-07  alpha:  9.907e-01  linmin: -1.910e-02  cgtest:  3.254e-01  t[s]:      8.70
LCAOMinimize: Encountered beta<0, resetting CG.
	FillingsUpdate:  mu: -0.081745113  nElectrons: 9.000000  magneticMoment: [ Abs: 0.62000  Tot: -0.62000 ]
LCAOMinimize: Iter:   2  F: -20.1730565710835492  |grad|_K:  2.627e-09  alpha:  1.025e+00  linmin:  1.300e-01  cgtest: -9.873e-01  t[s]:     11.05
LCAOMinimize: Converged (|Delta F|<1.000000e-06 for 2 iters).


---- Citations for features of the code used in this run ----

   Software package:
      R. Sundararaman, K. Letchworth-Weaver, K.A. Schwarz, D. Gunceler, Y. Ozhabes and T.A. Arias, 'JDFTx: software for joint density-functional theory', SoftwareX 6, 278 (2017)

   gga-PBE exchange-correlation functional:
      J.P. Perdew, K. Burke and M. Ernzerhof, Phys. Rev. Lett. 77, 3865 (1996)

   Pseudopotentials:
      M Schlipf and F Gygi, Comput. Phys. Commun. 196, 36 (2015)

   Truncated Coulomb potentials:
      R. Sundararaman and T.A. Arias, Phys. Rev. B 87, 165122 (2013)

This list may not be complete. Please suggest additional citations or
report any other bugs at https://github.com/shankar1729/jdftx/issues

Initialization completed successfully at t[s]:     11.21


-------- Electronic minimization -----------
Will mix electronic density at each iteration.
	FillingsUpdate:  mu: -0.081745113  nElectrons: 9.000000  magneticMoment: [ Abs: 0.62000  Tot: -0.62000 ]
	FillingsUpdate:  mu: -0.083795792  nElectrons: 9.000000  magneticMoment: [ Abs: 0.62000  Tot: -0.62000 ]
SCF: Cycle:  0   F: -20.175572889787276   dF: -2.516e-03   |Residual|: 5.283e-03   |deigs|: 1.734e-01  t[s]:     15.97
	FillingsUpdate:  mu: -0.084105619  nElectrons: 9.000000  magneticMoment: [ Abs: 0.62005  Tot: -0.62000 ]
SCF: Cycle:  1   F: -20.175752711836402   dF: -1.798e-04   |Residual|: 4.595e-03   |deigs|: 4.949e-03  t[s]:     19.65
	FillingsUpdate:  mu: -0.084317179  nElectrons: 9.000000  magneticMoment: [ Abs: 0.62157  Tot: -0.62000 ]
SCF: Cycle:  2   F: -20.175847509968580   dF: -9.480e-05   |Residual|: 3.368e-03   |deigs|: 2.692e-03  t[s]:     23.43
	FillingsUpdate:  mu: -0.084427866  nElectrons: 9.000000  magneticMoment: [ Abs: 0.62297  Tot: -0.62000 ]
SCF: Cycle:  3   F: -20.175905505012341   dF: -5.800e-05   |Residual|: 2.516e-03   |deigs|: 1.460e-03  t[s]:     27.32
	FillingsUpdate:  mu: -0.084138738  nElectrons: 9.000000  magneticMoment: [ Abs: 0.62043  Tot: -0.62000 ]
SCF: Cycle:  4   F: -20.175927960742893   dF: -2.246e-05   |Residual|: 1.200e-03   |deigs|: 1.550e-03  t[s]:     31.18
	FillingsUpdate:  mu: -0.084089957  nElectrons: 9.000000  magneticMoment: [ Abs: 0.62079  Tot: -0.62000 ]
SCF: Cycle:  5   F: -20.175943106933257   dF: -1.515e-05   |Residual|: 8.218e-04   |deigs|: 8.174e-04  t[s]:     35.15
	FillingsUpdate:  mu: -0.083951691  nElectrons: 9.000000  magneticMoment: [ Abs: 0.62105  Tot: -0.62000 ]
SCF: Cycle:  6   F: -20.175952318383864   dF: -9.211e-06   |Residual|: 6.346e-04   |deigs|: 4.896e-04  t[s]:     39.17
	FillingsUpdate:  mu: -0.083580452  nElectrons: 9.000000  magneticMoment: [ Abs: 0.62140  Tot: -0.62000 ]
SCF: Cycle:  7   F: -20.175954075755712   dF: -1.757e-06   |Residual|: 5.484e-04   |deigs|: 4.433e-04  t[s]:     43.18
	FillingsUpdate:  mu: -0.082822024  nElectrons: 9.000000  magneticMoment: [ Abs: 0.62371  Tot: -0.62000 ]
SCF: Cycle:  8   F: -20.175950555328935   dF: +3.520e-06   |Residual|: 4.107e-04   |deigs|: 8.522e-04  t[s]:     47.29
	FillingsUpdate:  mu: -0.082089473  nElectrons: 9.000000  magneticMoment: [ Abs: 0.62355  Tot: -0.62000 ]
SCF: Cycle:  9   F: -20.175950147811967   dF: +4.075e-07   |Residual|: 3.981e-04   |deigs|: 9.322e-04  t[s]:     51.47
	FillingsUpdate:  mu: -0.082031723  nElectrons: 9.000000  magneticMoment: [ Abs: 0.62199  Tot: -0.62000 ]
SCF: Cycle: 10   F: -20.175956221141952   dF: -6.073e-06   |Residual|: 2.946e-04   |deigs|: 3.594e-04  t[s]:     55.80
	FillingsUpdate:  mu: -0.081689506  nElectrons: 9.000000  magneticMoment: [ Abs: 0.62443  Tot: -0.62000 ]
SCF: Cycle: 11   F: -20.175958089270587   dF: -1.868e-06   |Residual|: 2.589e-04   |deigs|: 5.613e-04  t[s]:     60.05
	FillingsUpdate:  mu: -0.081130631  nElectrons: 9.000000  magneticMoment: [ Abs: 0.62430  Tot: -0.62000 ]
SCF: Cycle: 12   F: -20.175957494274094   dF: +5.950e-07   |Residual|: 2.535e-04   |deigs|: 5.902e-04  t[s]:     64.29
	FillingsUpdate:  mu: -0.080636821  nElectrons: 9.000000  magneticMoment: [ Abs: 0.62266  Tot: -0.62000 ]
SCF: Cycle: 13   F: -20.175956762138117   dF: +7.321e-07   |Residual|: 2.380e-04   |deigs|: 6.532e-04  t[s]:     68.50
	FillingsUpdate:  mu: -0.080546956  nElectrons: 9.000000  magneticMoment: [ Abs: 0.62301  Tot: -0.62000 ]
SCF: Cycle: 14   F: -20.175959411645600   dF: -2.650e-06   |Residual|: 2.149e-04   |deigs|: 3.374e-04  t[s]:     72.74
	FillingsUpdate:  mu: -0.080116628  nElectrons: 9.000000  magneticMoment: [ Abs: 0.62204  Tot: -0.62000 ]
SCF: Cycle: 15   F: -20.175962130460515   dF: -2.719e-06   |Residual|: 1.557e-04   |deigs|: 5.099e-04  t[s]:     76.99
	FillingsUpdate:  mu: -0.079667256  nElectrons: 9.000000  magneticMoment: [ Abs: 0.62139  Tot: -0.62000 ]
SCF: Cycle: 16   F: -20.175963155078414   dF: -1.025e-06   |Residual|: 1.098e-04   |deigs|: 5.011e-04  t[s]:     81.18
	FillingsUpdate:  mu: -0.079659471  nElectrons: 9.000000  magneticMoment: [ Abs: 0.62100  Tot: -0.62000 ]
SCF: Cycle: 17   F: -20.175963480421942   dF: -3.253e-07   |Residual|: 8.586e-05   |deigs|: 2.401e-04  t[s]:     85.37
	FillingsUpdate:  mu: -0.079713240  nElectrons: 9.000000  magneticMoment: [ Abs: 0.62098  Tot: -0.62000 ]
SCF: Cycle: 18   F: -20.175963763465042   dF: -2.830e-07   |Residual|: 5.651e-05   |deigs|: 2.276e-04  t[s]:     89.61
	FillingsUpdate:  mu: -0.079703459  nElectrons: 9.000000  magneticMoment: [ Abs: 0.62104  Tot: -0.62000 ]
SCF: Cycle: 19   F: -20.175963889688617   dF: -1.262e-07   |Residual|: 3.795e-05   |deigs|: 1.448e-04  t[s]:     93.86
	FillingsUpdate:  mu: -0.079713035  nElectrons: 9.000000  magneticMoment: [ Abs: 0.62108  Tot: -0.62000 ]
SCF: Cycle: 20   F: -20.175963961530115   dF: -7.184e-08   |Residual|: 2.015e-05   |deigs|: 1.029e-04  t[s]:     98.13
	FillingsUpdate:  mu: -0.079703940  nElectrons: 9.000000  magneticMoment: [ Abs: 0.62108  Tot: -0.62000 ]
SCF: Cycle: 21   F: -20.175963980794357   dF: -1.926e-08   |Residual|: 1.748e-05   |deigs|: 1.396e-04  t[s]:    102.32
	FillingsUpdate:  mu: -0.079710502  nElectrons: 9.000000  magneticMoment: [ Abs: 0.62110  Tot: -0.62000 ]
SCF: Cycle: 22   F: -20.175964000014041   dF: -1.922e-08   |Residual|: 1.264e-05   |deigs|: 8.316e-05  t[s]:    106.50
	FillingsUpdate:  mu: -0.079720436  nElectrons: 9.000000  magneticMoment: [ Abs: 0.62108  Tot: -0.62000 ]
SCF: Cycle: 23   F: -20.175964004597617   dF: -4.584e-09   |Residual|: 7.744e-06   |deigs|: 5.962e-05  t[s]:    110.75
	FillingsUpdate:  mu: -0.079718647  nElectrons: 9.000000  magneticMoment: [ Abs: 0.62109  Tot: -0.62000 ]
SCF: Cycle: 24   F: -20.175964013726684   dF: -9.129e-09   |Residual|: 6.393e-06   |deigs|: 5.130e-05  t[s]:    114.93
SCF: Converged (|Delta E|<1.000000e-08 for 2 iters).


# Ionic positions in lattice coordinates:
ion Cs   0.000000000000000   0.000000000000000   0.000000000000000 0

# Forces in Lattice coordinates:
force Cs   0.000000000000000  -0.000000000000000   0.000000000000000 0

# Energy components:
   Eewald =      -12.0320174002217755
       EH =        4.0209219547082835
     Eloc =      -17.5910677024721060
      Enl =        3.4320268593993744
   Epulay =       -0.0000000107257212
      Exc =       -3.1103056047094277
       KE =        5.1044789477732078
-------------------------------------
     Etot =      -20.1759629562481635
       TS =        0.0000010574785198
-------------------------------------
        F =      -20.1759640137266842

IonicMinimize: Iter:   0  F: -20.175964013726684  |grad|_K:  0.000e+00  t[s]:    115.19
IonicMinimize: Converged (|grad|_K<1.000000e-04).

#--- Lowdin population analysis ---
# oxidation-state Cs +0.066
# magnetic-moments Cs -0.560

End date and time: Sun Feb  6 13:12:07 2022  (Duration: 0-0:01:55.23)
Done!
