
*************** JDFTx 1.6.0 (git hash 42ebbcc2) ***************

Start date and time: Sun Feb  6 13:10:22 2022
Executable jdftx with command-line: -i Alkali.in
Running on hosts (process indices):  d-3-5-3 (0-18)
Divided in process groups (process indices):  0 (0)  1 (1)  2 (2)  3 (3)  4 (4)  5 (5)  6 (6)  7 (7)  8 (8)  9 (9)  10 (10)  11 (11)  12 (12)  13 (13)  14 (14)  15 (15)  16 (16)  17 (17)  18 (18)
Resource initialization completed at t[s]:      0.00
Run totals: 19 processes, 48 threads, 0 GPUs


Input parsed successfully to the following command list (including defaults):

basis kpoint-dependent
coords-type Lattice
core-overlap-check vector
coulomb-interaction Slab 001
davidson-band-ratio 1.1
dump End None
dump-name $INPUT.$VAR
elec-cutoff 20
elec-eigen-algo Davidson
elec-ex-corr gga-PBE
elec-initial-magnetization -0.960000 yes
elec-smearing Fermi 1e-05
electronic-minimize  \
	dirUpdateScheme      FletcherReeves \
	linminMethod         DirUpdateRecommended \
	nIterations          100 \
	history              15 \
	knormThreshold       0 \
	energyDiffThreshold  1e-08 \
	nEnergyDiff          2 \
	alphaTstart          1 \
	alphaTmin            1e-10 \
	updateTestStepSize   yes \
	alphaTreduceFactor   0.1 \
	alphaTincreaseFactor 3 \
	nAlphaAdjustMax      3 \
	wolfeEnergy          0.0001 \
	wolfeGradient        0.9 \
	fdTest               no
electronic-scf  \
	nIterations	10000 \
	energyDiffThreshold	1e-08 \
	residualThreshold	1e-07 \
	mixFraction	0.5 \
	qMetric	0.8 \
	history	10 \
	nEigSteps	2 \
	eigDiffThreshold	1e-08 \
	mixedVariable	Density \
	qKerker	0.8 \
	qKappa	-1 \
	verbose	no \
	mixFractionMag	1.5
exchange-regularization WignerSeitzTruncated
fluid None
fluid-ex-corr (null) lda-PZ
fluid-gummel-loop 10 1.000000e-05
fluid-minimize  \
	dirUpdateScheme      PolakRibiere \
	linminMethod         DirUpdateRecommended \
	nIterations          100 \
	history              15 \
	knormThreshold       0 \
	energyDiffThreshold  0 \
	nEnergyDiff          2 \
	alphaTstart          1 \
	alphaTmin            1e-10 \
	updateTestStepSize   yes \
	alphaTreduceFactor   0.1 \
	alphaTincreaseFactor 3 \
	nAlphaAdjustMax      3 \
	wolfeEnergy          0.0001 \
	wolfeGradient        0.9 \
	fdTest               no
fluid-solvent H2O 55.338 ScalarEOS \
	epsBulk 78.4 \
	pMol 0.92466 \
	epsInf 1.77 \
	Pvap 1.06736e-10 \
	sigmaBulk 4.62e-05 \
	Rvdw 2.61727 \
	Res 1.42 \
	tauNuc 343133 \
	poleEl 15 7 1
forces-output-coords Positions
ion Cs   0.000000000000000   0.000000000000000   0.000000000000000 0
ion-species SG15/$ID_ONCV_PBE.upf
ion-width 0
ionic-minimize  \
	dirUpdateScheme      L-BFGS \
	linminMethod         DirUpdateRecommended \
	nIterations          0 \
	history              15 \
	knormThreshold       0.0001 \
	energyDiffThreshold  1e-06 \
	nEnergyDiff          2 \
	alphaTstart          1 \
	alphaTmin            1e-10 \
	updateTestStepSize   yes \
	alphaTreduceFactor   0.1 \
	alphaTincreaseFactor 3 \
	nAlphaAdjustMax      3 \
	wolfeEnergy          0.0001 \
	wolfeGradient        0.9 \
	fdTest               no
kpoint   0.000000000000   0.000000000000   0.000000000000  1.00000000000000
kpoint-folding 12 12 1 
latt-move-scale 1 1 1
latt-scale 3 3 1 
lattice  \
	   4.727486978767153   -2.363743489383575    0.000000000000000  \
	  -0.000000000000000    4.094123819672498    0.000000000000000  \
	   0.000000000000000    0.000000000000000   40.000000000000000 
lattice-minimize  \
	dirUpdateScheme      L-BFGS \
	linminMethod         DirUpdateRecommended \
	nIterations          0 \
	history              15 \
	knormThreshold       0 \
	energyDiffThreshold  1e-06 \
	nEnergyDiff          2 \
	alphaTstart          1 \
	alphaTmin            1e-10 \
	updateTestStepSize   yes \
	alphaTreduceFactor   0.1 \
	alphaTincreaseFactor 3 \
	nAlphaAdjustMax      3 \
	wolfeEnergy          0.0001 \
	wolfeGradient        0.9 \
	fdTest               no
lcao-params -1 1e-06 1e-05
pcm-variant GLSSA13
spintype z-spin
subspace-rotation-factor 1 yes
symmetries automatic
symmetry-threshold 0.0001



---------- Setting up symmetries ----------

Found 24 point-group symmetries of the bravais lattice
Found 24 space-group symmetries with basis
Applied RMS atom displacement 0 bohrs to make symmetries exact.

---------- Initializing the Grid ----------
R = 
[      14.1825     -7.09123            0  ]
[            0      12.2824            0  ]
[            0            0           40  ]
unit cell volume = 6967.77
G =
[   0.443025   0.255781         -0  ]
[          0   0.511561         -0  ]
[         -0         -0    0.15708  ]
Minimum fftbox size, Smin = [  60  60  164  ]
Chosen fftbox size, S = [  60  60  168  ]

---------- Exchange Correlation functional ----------
Initalized PBE GGA exchange.
Initalized PBE GGA correlation.

---------- Setting up pseudopotentials ----------
Width of ionic core gaussian charges (only for fluid interactions / plotting) set to 0

Reading pseudopotential file '/home/gridsan/aligho/DFT/build-Nov24/pseudopotentials/SG15/Cs_ONCV_PBE.upf':
  'Cs' pseudopotential, 'PBE' functional
  Generated using ONCVPSP code by D. R. Hamann
  Author: Martin Schlipf and Francois Gygi  Date: 150915.
  9 valence electrons, 3 orbitals, 6 projectors, 2414 radial grid points, with lMax = 2
  Transforming local potential to a uniform radial grid of dG=0.02 with 1489 points.
  Transforming nonlocal projectors to a uniform radial grid of dG=0.02 with 432 points.
    5S    l: 0   occupation:  2.0   eigenvalue: -0.982388
    5P    l: 1   occupation:  6.0   eigenvalue: -0.496786
    6S    l: 0   occupation:  1.0   eigenvalue: -0.076670
  Transforming atomic orbitals to a uniform radial grid of dG=0.02 with 432 points.
  Core radius for overlap checks: 2.06 bohrs.
  Reading pulay file /home/gridsan/aligho/DFT/build-Nov24/pseudopotentials/SG15/Cs_ONCV_PBE.pulay ... using dE_dnG = -1.008762e-04 computed for Ecut = 20.

Initialized 1 species with 1 total atoms.

Folded 1 k-points by 12x12x1 to 144 k-points.

---------- Setting up k-points, bands, fillings ----------
Reduced to 19 k-points under symmetry. 
Computing the number of bands and number of electrons
Calculating initial fillings.
nElectrons:   9.000000   nBands: 6   nStates: 38

----- Setting up reduced wavefunction bases (one per k-point) -----
average nbasis = 29766.104 , ideal nbasis = 29766.845

---------- Setting up coulomb interaction ----------
Initialized slab truncation along lattice direction 001

---------- Setting up 2D ewald sum ----------
Optimum gaussian width for ewald sums = 7.873530 bohr.
Real space sums over 289 unit cells with max indices [  8  8  0  ]
Reciprocal space sums over 81 terms with max indices [  4  4  0  ]

---------- Allocating electronic variables ----------
Initializing wave functions:  linear combination of atomic orbitals
Note: number of bands (6) exceeds available atomic orbitals (5)
Cs pseudo-atom occupations:   s ( 2 1 )  p ( 6 )
	FillingsUpdate:  mu: -0.080437723  nElectrons: 9.000000  magneticMoment: [ Abs: 0.96000  Tot: -0.96000 ]
LCAOMinimize: Iter:   0  F: -20.1702653602173818  |grad|_K:  2.347e-06  alpha:  1.000e+00
	FillingsUpdate:  mu: -0.080437617  nElectrons: 9.000000  magneticMoment: [ Abs: 0.96000  Tot: -0.96000 ]
LCAOMinimize: Iter:   1  F: -20.1702653639789631  |grad|_K:  1.064e-08  alpha:  9.983e-01  linmin: -2.443e-03  cgtest:  3.457e-02  t[s]:      8.85
LCAOMinimize: Encountered beta<0, resetting CG.
	FillingsUpdate:  mu: -0.080437618  nElectrons: 9.000000  magneticMoment: [ Abs: 0.96000  Tot: -0.96000 ]
LCAOMinimize: Iter:   2  F: -20.1702653639791585  |grad|_K:  8.083e-09  alpha:  2.386e-01  linmin: -7.940e-02  cgtest:  1.000e+00  t[s]:     11.27
LCAOMinimize: Encountered beta<0, resetting CG.
LCAOMinimize: Converged (|Delta F|<1.000000e-06 for 2 iters).


---- Citations for features of the code used in this run ----

   Software package:
      R. Sundararaman, K. Letchworth-Weaver, K.A. Schwarz, D. Gunceler, Y. Ozhabes and T.A. Arias, 'JDFTx: software for joint density-functional theory', SoftwareX 6, 278 (2017)

   gga-PBE exchange-correlation functional:
      J.P. Perdew, K. Burke and M. Ernzerhof, Phys. Rev. Lett. 77, 3865 (1996)

   Pseudopotentials:
      M Schlipf and F Gygi, Comput. Phys. Commun. 196, 36 (2015)

   Truncated Coulomb potentials:
      R. Sundararaman and T.A. Arias, Phys. Rev. B 87, 165122 (2013)

This list may not be complete. Please suggest additional citations or
report any other bugs at https://github.com/shankar1729/jdftx/issues

Initialization completed successfully at t[s]:     11.43


-------- Electronic minimization -----------
Will mix electronic density at each iteration.
	FillingsUpdate:  mu: -0.080437618  nElectrons: 9.000000  magneticMoment: [ Abs: 0.96000  Tot: -0.96000 ]
	FillingsUpdate:  mu: -0.081986549  nElectrons: 9.000000  magneticMoment: [ Abs: 0.96000  Tot: -0.96000 ]
SCF: Cycle:  0   F: -20.172506935989976   dF: -2.242e-03   |Residual|: 4.869e-03   |deigs|: 1.733e-01  t[s]:     16.19
	FillingsUpdate:  mu: -0.081066609  nElectrons: 9.000000  magneticMoment: [ Abs: 0.96150  Tot: -0.96000 ]
SCF: Cycle:  1   F: -20.172711546046198   dF: -2.046e-04   |Residual|: 4.076e-03   |deigs|: 4.539e-03  t[s]:     19.90
	FillingsUpdate:  mu: -0.081238313  nElectrons: 9.000000  magneticMoment: [ Abs: 0.96349  Tot: -0.96000 ]
SCF: Cycle:  2   F: -20.172836740318267   dF: -1.252e-04   |Residual|: 3.393e-03   |deigs|: 2.593e-03  t[s]:     23.72
	FillingsUpdate:  mu: -0.081530276  nElectrons: 9.000000  magneticMoment: [ Abs: 0.96498  Tot: -0.96000 ]
SCF: Cycle:  3   F: -20.172950183812883   dF: -1.134e-04   |Residual|: 2.855e-03   |deigs|: 2.014e-03  t[s]:     27.61
	FillingsUpdate:  mu: -0.081969464  nElectrons: 9.000000  magneticMoment: [ Abs: 0.96264  Tot: -0.96000 ]
SCF: Cycle:  4   F: -20.173021243192686   dF: -7.106e-05   |Residual|: 1.835e-03   |deigs|: 1.560e-03  t[s]:     31.55
	FillingsUpdate:  mu: -0.082683528  nElectrons: 9.000000  magneticMoment: [ Abs: 0.96252  Tot: -0.96000 ]
SCF: Cycle:  5   F: -20.173046739084079   dF: -2.550e-05   |Residual|: 1.034e-03   |deigs|: 1.254e-03  t[s]:     35.63
	FillingsUpdate:  mu: -0.082326129  nElectrons: 9.000000  magneticMoment: [ Abs: 0.96352  Tot: -0.96000 ]
SCF: Cycle:  6   F: -20.173053827603397   dF: -7.089e-06   |Residual|: 1.079e-03   |deigs|: 9.228e-04  t[s]:     39.67
	FillingsUpdate:  mu: -0.082081063  nElectrons: 9.000000  magneticMoment: [ Abs: 0.96334  Tot: -0.96000 ]
SCF: Cycle:  7   F: -20.173059994688884   dF: -6.167e-06   |Residual|: 9.108e-04   |deigs|: 2.367e-04  t[s]:     43.77
	FillingsUpdate:  mu: -0.082041937  nElectrons: 9.000000  magneticMoment: [ Abs: 0.96361  Tot: -0.96000 ]
SCF: Cycle:  8   F: -20.173068338924086   dF: -8.344e-06   |Residual|: 7.071e-04   |deigs|: 4.640e-04  t[s]:     48.01
	FillingsUpdate:  mu: -0.081584020  nElectrons: 9.000000  magneticMoment: [ Abs: 0.96437  Tot: -0.96000 ]
SCF: Cycle:  9   F: -20.173070704976610   dF: -2.366e-06   |Residual|: 8.276e-04   |deigs|: 8.397e-04  t[s]:     52.28
	FillingsUpdate:  mu: -0.080913039  nElectrons: 9.000000  magneticMoment: [ Abs: 0.96324  Tot: -0.96000 ]
SCF: Cycle: 10   F: -20.173070904758987   dF: -1.998e-07   |Residual|: 4.255e-04   |deigs|: 3.777e-04  t[s]:     56.62
	FillingsUpdate:  mu: -0.080630501  nElectrons: 9.000000  magneticMoment: [ Abs: 0.96421  Tot: -0.96000 ]
SCF: Cycle: 11   F: -20.173076175225013   dF: -5.270e-06   |Residual|: 5.847e-04   |deigs|: 6.542e-04  t[s]:     60.89
	FillingsUpdate:  mu: -0.080757720  nElectrons: 9.000000  magneticMoment: [ Abs: 0.96400  Tot: -0.96000 ]
SCF: Cycle: 12   F: -20.173078910647892   dF: -2.735e-06   |Residual|: 3.511e-04   |deigs|: 3.881e-04  t[s]:     65.25
	FillingsUpdate:  mu: -0.080624637  nElectrons: 9.000000  magneticMoment: [ Abs: 0.96409  Tot: -0.96000 ]
SCF: Cycle: 13   F: -20.173080664257633   dF: -1.754e-06   |Residual|: 2.301e-04   |deigs|: 2.991e-04  t[s]:     69.56
	FillingsUpdate:  mu: -0.080166869  nElectrons: 9.000000  magneticMoment: [ Abs: 0.96449  Tot: -0.96000 ]
SCF: Cycle: 14   F: -20.173081422362969   dF: -7.581e-07   |Residual|: 2.442e-04   |deigs|: 4.641e-04  t[s]:     73.87
	FillingsUpdate:  mu: -0.079818485  nElectrons: 9.000000  magneticMoment: [ Abs: 0.96464  Tot: -0.96000 ]
SCF: Cycle: 15   F: -20.173081018992285   dF: +4.034e-07   |Residual|: 2.124e-04   |deigs|: 3.774e-04  t[s]:     78.22
	FillingsUpdate:  mu: -0.079470686  nElectrons: 9.000000  magneticMoment: [ Abs: 0.96491  Tot: -0.96000 ]
SCF: Cycle: 16   F: -20.173082487471802   dF: -1.468e-06   |Residual|: 1.792e-04   |deigs|: 5.057e-04  t[s]:     82.59
	FillingsUpdate:  mu: -0.079197965  nElectrons: 9.000000  magneticMoment: [ Abs: 0.96406  Tot: -0.96000 ]
SCF: Cycle: 17   F: -20.173083644303901   dF: -1.157e-06   |Residual|: 1.489e-04   |deigs|: 4.265e-04  t[s]:     86.96
	FillingsUpdate:  mu: -0.079007415  nElectrons: 9.000000  magneticMoment: [ Abs: 0.96312  Tot: -0.96000 ]
SCF: Cycle: 18   F: -20.173084466127179   dF: -8.218e-07   |Residual|: 9.698e-05   |deigs|: 4.884e-04  t[s]:     91.27
	FillingsUpdate:  mu: -0.078919414  nElectrons: 9.000000  magneticMoment: [ Abs: 0.96308  Tot: -0.96000 ]
SCF: Cycle: 19   F: -20.173084875671890   dF: -4.095e-07   |Residual|: 7.242e-05   |deigs|: 2.961e-04  t[s]:     95.51
	FillingsUpdate:  mu: -0.078981900  nElectrons: 9.000000  magneticMoment: [ Abs: 0.96286  Tot: -0.96000 ]
SCF: Cycle: 20   F: -20.173085103353660   dF: -2.277e-07   |Residual|: 5.406e-05   |deigs|: 9.906e-05  t[s]:     99.77
	FillingsUpdate:  mu: -0.079036021  nElectrons: 9.000000  magneticMoment: [ Abs: 0.96279  Tot: -0.96000 ]
SCF: Cycle: 21   F: -20.173085218679017   dF: -1.153e-07   |Residual|: 4.078e-05   |deigs|: 1.219e-04  t[s]:    104.05
	FillingsUpdate:  mu: -0.079062611  nElectrons: 9.000000  magneticMoment: [ Abs: 0.96281  Tot: -0.96000 ]
SCF: Cycle: 22   F: -20.173085300974432   dF: -8.230e-08   |Residual|: 3.001e-05   |deigs|: 1.671e-04  t[s]:    108.36
	FillingsUpdate:  mu: -0.079056113  nElectrons: 9.000000  magneticMoment: [ Abs: 0.96283  Tot: -0.96000 ]
SCF: Cycle: 23   F: -20.173085318994765   dF: -1.802e-08   |Residual|: 1.834e-05   |deigs|: 7.546e-05  t[s]:    112.62
	FillingsUpdate:  mu: -0.079049042  nElectrons: 9.000000  magneticMoment: [ Abs: 0.96284  Tot: -0.96000 ]
SCF: Cycle: 24   F: -20.173085352202101   dF: -3.321e-08   |Residual|: 1.419e-05   |deigs|: 4.632e-05  t[s]:    116.99
	FillingsUpdate:  mu: -0.079046693  nElectrons: 9.000000  magneticMoment: [ Abs: 0.96279  Tot: -0.96000 ]
SCF: Cycle: 25   F: -20.173085350105225   dF: +2.097e-09   |Residual|: 1.215e-05   |deigs|: 4.100e-05  t[s]:    121.33
	FillingsUpdate:  mu: -0.079034412  nElectrons: 9.000000  magneticMoment: [ Abs: 0.96276  Tot: -0.96000 ]
SCF: Cycle: 26   F: -20.173085371518308   dF: -2.141e-08   |Residual|: 9.140e-06   |deigs|: 2.900e-05  t[s]:    125.65
	FillingsUpdate:  mu: -0.079034511  nElectrons: 9.000000  magneticMoment: [ Abs: 0.96272  Tot: -0.96000 ]
SCF: Cycle: 27   F: -20.173085373596493   dF: -2.078e-09   |Residual|: 6.695e-06   |deigs|: 2.408e-05  t[s]:    129.96
	FillingsUpdate:  mu: -0.079043816  nElectrons: 9.000000  magneticMoment: [ Abs: 0.96265  Tot: -0.96000 ]
SCF: Cycle: 28   F: -20.173085376136807   dF: -2.540e-09   |Residual|: 4.333e-06   |deigs|: 2.174e-05  t[s]:    134.28
SCF: Converged (|Delta E|<1.000000e-08 for 2 iters).


# Ionic positions in lattice coordinates:
ion Cs   0.000000000000000   0.000000000000000   0.000000000000000 0

# Forces in Lattice coordinates:
force Cs   0.000000000000000  -0.000000000000000   0.000000000000000 0

# Energy components:
   Eewald =      -12.0320174002217755
       EH =        4.0397146112507727
     Eloc =      -17.6131284765502620
      Enl =        3.4334553215808237
   Epulay =       -0.0000000107257212
      Exc =       -3.1137374056196752
       KE =        5.1126284616890585
-------------------------------------
     Etot =      -20.1730848985967803
       TS =        0.0000004775400274
-------------------------------------
        F =      -20.1730853761368074

IonicMinimize: Iter:   0  F: -20.173085376136807  |grad|_K:  0.000e+00  t[s]:    134.54
IonicMinimize: Converged (|grad|_K<1.000000e-04).

#--- Lowdin population analysis ---
# oxidation-state Cs +0.077
# magnetic-moments Cs -0.884

End date and time: Sun Feb  6 13:12:37 2022  (Duration: 0-0:02:14.59)
Done!
