
*************** JDFTx 1.6.0 (git hash 42ebbcc2) ***************

Start date and time: Sun Feb  6 13:18:17 2022
Executable jdftx with command-line: -i Alkali.in
Running on hosts (process indices):  d-3-5-3 (0-18)
Divided in process groups (process indices):  0 (0)  1 (1)  2 (2)  3 (3)  4 (4)  5 (5)  6 (6)  7 (7)  8 (8)  9 (9)  10 (10)  11 (11)  12 (12)  13 (13)  14 (14)  15 (15)  16 (16)  17 (17)  18 (18)
Resource initialization completed at t[s]:      0.00
Run totals: 19 processes, 48 threads, 0 GPUs


Input parsed successfully to the following command list (including defaults):

basis kpoint-dependent
coords-type Lattice
core-overlap-check vector
coulomb-interaction Slab 001
davidson-band-ratio 1.1
dump End None
dump-name $INPUT.$VAR
elec-cutoff 20
elec-eigen-algo Davidson
elec-ex-corr gga-PBE
elec-initial-magnetization -0.100000 yes
elec-smearing Fermi 1e-05
electronic-minimize  \
	dirUpdateScheme      FletcherReeves \
	linminMethod         DirUpdateRecommended \
	nIterations          100 \
	history              15 \
	knormThreshold       0 \
	energyDiffThreshold  1e-08 \
	nEnergyDiff          2 \
	alphaTstart          1 \
	alphaTmin            1e-10 \
	updateTestStepSize   yes \
	alphaTreduceFactor   0.1 \
	alphaTincreaseFactor 3 \
	nAlphaAdjustMax      3 \
	wolfeEnergy          0.0001 \
	wolfeGradient        0.9 \
	fdTest               no
electronic-scf  \
	nIterations	10000 \
	energyDiffThreshold	1e-08 \
	residualThreshold	1e-07 \
	mixFraction	0.5 \
	qMetric	0.8 \
	history	10 \
	nEigSteps	2 \
	eigDiffThreshold	1e-08 \
	mixedVariable	Density \
	qKerker	0.8 \
	qKappa	-1 \
	verbose	no \
	mixFractionMag	1.5
exchange-regularization WignerSeitzTruncated
fluid None
fluid-ex-corr (null) lda-PZ
fluid-gummel-loop 10 1.000000e-05
fluid-minimize  \
	dirUpdateScheme      PolakRibiere \
	linminMethod         DirUpdateRecommended \
	nIterations          100 \
	history              15 \
	knormThreshold       0 \
	energyDiffThreshold  0 \
	nEnergyDiff          2 \
	alphaTstart          1 \
	alphaTmin            1e-10 \
	updateTestStepSize   yes \
	alphaTreduceFactor   0.1 \
	alphaTincreaseFactor 3 \
	nAlphaAdjustMax      3 \
	wolfeEnergy          0.0001 \
	wolfeGradient        0.9 \
	fdTest               no
fluid-solvent H2O 55.338 ScalarEOS \
	epsBulk 78.4 \
	pMol 0.92466 \
	epsInf 1.77 \
	Pvap 1.06736e-10 \
	sigmaBulk 4.62e-05 \
	Rvdw 2.61727 \
	Res 1.42 \
	tauNuc 343133 \
	poleEl 15 7 1
forces-output-coords Positions
ion Cs   0.000000000000000   0.000000000000000   0.000000000000000 0
ion-species SG15/$ID_ONCV_PBE.upf
ion-width 0
ionic-minimize  \
	dirUpdateScheme      L-BFGS \
	linminMethod         DirUpdateRecommended \
	nIterations          0 \
	history              15 \
	knormThreshold       0.0001 \
	energyDiffThreshold  1e-06 \
	nEnergyDiff          2 \
	alphaTstart          1 \
	alphaTmin            1e-10 \
	updateTestStepSize   yes \
	alphaTreduceFactor   0.1 \
	alphaTincreaseFactor 3 \
	nAlphaAdjustMax      3 \
	wolfeEnergy          0.0001 \
	wolfeGradient        0.9 \
	fdTest               no
kpoint   0.000000000000   0.000000000000   0.000000000000  1.00000000000000
kpoint-folding 12 12 1 
latt-move-scale 1 1 1
latt-scale 3 3 1 
lattice  \
	   4.727486978767153   -2.363743489383575    0.000000000000000  \
	  -0.000000000000000    4.094123819672498    0.000000000000000  \
	   0.000000000000000    0.000000000000000   40.000000000000000 
lattice-minimize  \
	dirUpdateScheme      L-BFGS \
	linminMethod         DirUpdateRecommended \
	nIterations          0 \
	history              15 \
	knormThreshold       0 \
	energyDiffThreshold  1e-06 \
	nEnergyDiff          2 \
	alphaTstart          1 \
	alphaTmin            1e-10 \
	updateTestStepSize   yes \
	alphaTreduceFactor   0.1 \
	alphaTincreaseFactor 3 \
	nAlphaAdjustMax      3 \
	wolfeEnergy          0.0001 \
	wolfeGradient        0.9 \
	fdTest               no
lcao-params -1 1e-06 1e-05
pcm-variant GLSSA13
spintype z-spin
subspace-rotation-factor 1 yes
symmetries automatic
symmetry-threshold 0.0001



---------- Setting up symmetries ----------

Found 24 point-group symmetries of the bravais lattice
Found 24 space-group symmetries with basis
Applied RMS atom displacement 0 bohrs to make symmetries exact.

---------- Initializing the Grid ----------
R = 
[      14.1825     -7.09123            0  ]
[            0      12.2824            0  ]
[            0            0           40  ]
unit cell volume = 6967.77
G =
[   0.443025   0.255781         -0  ]
[          0   0.511561         -0  ]
[         -0         -0    0.15708  ]
Minimum fftbox size, Smin = [  60  60  164  ]
Chosen fftbox size, S = [  60  60  168  ]

---------- Exchange Correlation functional ----------
Initalized PBE GGA exchange.
Initalized PBE GGA correlation.

---------- Setting up pseudopotentials ----------
Width of ionic core gaussian charges (only for fluid interactions / plotting) set to 0

Reading pseudopotential file '/home/gridsan/aligho/DFT/build-Nov24/pseudopotentials/SG15/Cs_ONCV_PBE.upf':
  'Cs' pseudopotential, 'PBE' functional
  Generated using ONCVPSP code by D. R. Hamann
  Author: Martin Schlipf and Francois Gygi  Date: 150915.
  9 valence electrons, 3 orbitals, 6 projectors, 2414 radial grid points, with lMax = 2
  Transforming local potential to a uniform radial grid of dG=0.02 with 1489 points.
  Transforming nonlocal projectors to a uniform radial grid of dG=0.02 with 432 points.
    5S    l: 0   occupation:  2.0   eigenvalue: -0.982388
    5P    l: 1   occupation:  6.0   eigenvalue: -0.496786
    6S    l: 0   occupation:  1.0   eigenvalue: -0.076670
  Transforming atomic orbitals to a uniform radial grid of dG=0.02 with 432 points.
  Core radius for overlap checks: 2.06 bohrs.
  Reading pulay file /home/gridsan/aligho/DFT/build-Nov24/pseudopotentials/SG15/Cs_ONCV_PBE.pulay ... using dE_dnG = -1.008762e-04 computed for Ecut = 20.

Initialized 1 species with 1 total atoms.

Folded 1 k-points by 12x12x1 to 144 k-points.

---------- Setting up k-points, bands, fillings ----------
Reduced to 19 k-points under symmetry. 
Computing the number of bands and number of electrons
Calculating initial fillings.
nElectrons:   9.000000   nBands: 6   nStates: 38

----- Setting up reduced wavefunction bases (one per k-point) -----
average nbasis = 29766.104 , ideal nbasis = 29766.845

---------- Setting up coulomb interaction ----------
Initialized slab truncation along lattice direction 001

---------- Setting up 2D ewald sum ----------
Optimum gaussian width for ewald sums = 7.873530 bohr.
Real space sums over 289 unit cells with max indices [  8  8  0  ]
Reciprocal space sums over 81 terms with max indices [  4  4  0  ]

---------- Allocating electronic variables ----------
Initializing wave functions:  linear combination of atomic orbitals
Note: number of bands (6) exceeds available atomic orbitals (5)
Cs pseudo-atom occupations:   s ( 2 1 )  p ( 6 )
	FillingsUpdate:  mu: -0.078527356  nElectrons: 9.000000  magneticMoment: [ Abs: 0.10000  Tot: -0.10000 ]
LCAOMinimize: Iter:   0  F: -20.1753400466230381  |grad|_K:  2.578e-05  alpha:  1.000e+00
	FillingsUpdate:  mu: -0.078521414  nElectrons: 9.000000  magneticMoment: [ Abs: 0.10000  Tot: -0.10000 ]
LCAOMinimize: Iter:   1  F: -20.1753404945410750  |grad|_K:  1.865e-07  alpha:  9.853e-01  linmin: -3.364e-02  cgtest:  6.289e-01  t[s]:      8.83
LCAOMinimize: Encountered beta<0, resetting CG.
	FillingsUpdate:  mu: -0.078521402  nElectrons: 9.000000  magneticMoment: [ Abs: 0.10000  Tot: -0.10000 ]
LCAOMinimize: Iter:   2  F: -20.1753404945653898  |grad|_K:  6.496e-09  alpha:  1.035e+00  linmin:  6.116e-02  cgtest: -9.965e-01  t[s]:     11.25
LCAOMinimize: Converged (|Delta F|<1.000000e-06 for 2 iters).


---- Citations for features of the code used in this run ----

   Software package:
      R. Sundararaman, K. Letchworth-Weaver, K.A. Schwarz, D. Gunceler, Y. Ozhabes and T.A. Arias, 'JDFTx: software for joint density-functional theory', SoftwareX 6, 278 (2017)

   gga-PBE exchange-correlation functional:
      J.P. Perdew, K. Burke and M. Ernzerhof, Phys. Rev. Lett. 77, 3865 (1996)

   Pseudopotentials:
      M Schlipf and F Gygi, Comput. Phys. Commun. 196, 36 (2015)

   Truncated Coulomb potentials:
      R. Sundararaman and T.A. Arias, Phys. Rev. B 87, 165122 (2013)

This list may not be complete. Please suggest additional citations or
report any other bugs at https://github.com/shankar1729/jdftx/issues

Initialization completed successfully at t[s]:     11.41


-------- Electronic minimization -----------
Will mix electronic density at each iteration.
	FillingsUpdate:  mu: -0.078521402  nElectrons: 9.000000  magneticMoment: [ Abs: 0.10000  Tot: -0.10000 ]
	FillingsUpdate:  mu: -0.082246051  nElectrons: 9.000000  magneticMoment: [ Abs: 0.10000  Tot: -0.10000 ]
SCF: Cycle:  0   F: -20.177712153259989   dF: -2.372e-03   |Residual|: 4.346e-03   |deigs|: 1.730e-01  t[s]:     16.25
	FillingsUpdate:  mu: -0.082529371  nElectrons: 9.000000  magneticMoment: [ Abs: 0.10000  Tot: -0.10000 ]
SCF: Cycle:  1   F: -20.177789556728520   dF: -7.740e-05   |Residual|: 3.889e-03   |deigs|: 4.889e-03  t[s]:     20.03
	FillingsUpdate:  mu: -0.083031958  nElectrons: 9.000000  magneticMoment: [ Abs: 0.10343  Tot: -0.10000 ]
SCF: Cycle:  2   F: -20.177854197387511   dF: -6.464e-05   |Residual|: 1.614e-03   |deigs|: 3.287e-03  t[s]:     23.88
	FillingsUpdate:  mu: -0.082895328  nElectrons: 9.000000  magneticMoment: [ Abs: 0.10071  Tot: -0.10000 ]
SCF: Cycle:  3   F: -20.177877899018039   dF: -2.370e-05   |Residual|: 1.162e-03   |deigs|: 1.194e-03  t[s]:     27.72
	FillingsUpdate:  mu: -0.082658359  nElectrons: 9.000000  magneticMoment: [ Abs: 0.10012  Tot: -0.10000 ]
SCF: Cycle:  4   F: -20.177886107330398   dF: -8.208e-06   |Residual|: 7.326e-04   |deigs|: 1.052e-03  t[s]:     31.66
	FillingsUpdate:  mu: -0.082405050  nElectrons: 9.000000  magneticMoment: [ Abs: 0.10016  Tot: -0.10000 ]
SCF: Cycle:  5   F: -20.177890525470339   dF: -4.418e-06   |Residual|: 6.262e-04   |deigs|: 1.004e-03  t[s]:     35.68
	FillingsUpdate:  mu: -0.081734037  nElectrons: 9.000000  magneticMoment: [ Abs: 0.10181  Tot: -0.10000 ]
SCF: Cycle:  6   F: -20.177891324034746   dF: -7.986e-07   |Residual|: 5.024e-04   |deigs|: 1.409e-03  t[s]:     39.75
	FillingsUpdate:  mu: -0.081370001  nElectrons: 9.000000  magneticMoment: [ Abs: 0.10141  Tot: -0.10000 ]
SCF: Cycle:  7   F: -20.177890737560666   dF: +5.865e-07   |Residual|: 4.231e-04   |deigs|: 7.195e-04  t[s]:     43.83
	FillingsUpdate:  mu: -0.080862907  nElectrons: 9.000000  magneticMoment: [ Abs: 0.10081  Tot: -0.10000 ]
SCF: Cycle:  8   F: -20.177892519601070   dF: -1.782e-06   |Residual|: 3.452e-04   |deigs|: 6.468e-04  t[s]:     48.01
	FillingsUpdate:  mu: -0.080625185  nElectrons: 9.000000  magneticMoment: [ Abs: 0.10052  Tot: -0.10000 ]
SCF: Cycle:  9   F: -20.177893588060456   dF: -1.068e-06   |Residual|: 3.076e-04   |deigs|: 8.714e-04  t[s]:     52.25
	FillingsUpdate:  mu: -0.080166230  nElectrons: 9.000000  magneticMoment: [ Abs: 0.10113  Tot: -0.10000 ]
SCF: Cycle: 10   F: -20.177894164118065   dF: -5.761e-07   |Residual|: 2.606e-04   |deigs|: 5.212e-04  t[s]:     56.61
	FillingsUpdate:  mu: -0.079678497  nElectrons: 9.000000  magneticMoment: [ Abs: 0.10108  Tot: -0.10000 ]
SCF: Cycle: 11   F: -20.177892787814294   dF: +1.376e-06   |Residual|: 2.381e-04   |deigs|: 7.638e-04  t[s]:     60.93
	FillingsUpdate:  mu: -0.079300528  nElectrons: 9.000000  magneticMoment: [ Abs: 0.10056  Tot: -0.10000 ]
SCF: Cycle: 12   F: -20.177892426448889   dF: +3.614e-07   |Residual|: 2.365e-04   |deigs|: 7.185e-04  t[s]:     65.28
	FillingsUpdate:  mu: -0.078979515  nElectrons: 9.000000  magneticMoment: [ Abs: 0.10040  Tot: -0.10000 ]
SCF: Cycle: 13   F: -20.177893988522722   dF: -1.562e-06   |Residual|: 2.173e-04   |deigs|: 4.726e-04  t[s]:     69.74
	FillingsUpdate:  mu: -0.078694054  nElectrons: 9.000000  magneticMoment: [ Abs: 0.10092  Tot: -0.10000 ]
SCF: Cycle: 14   F: -20.177897300021229   dF: -3.311e-06   |Residual|: 1.601e-04   |deigs|: 3.347e-04  t[s]:     74.05
	FillingsUpdate:  mu: -0.078487844  nElectrons: 9.000000  magneticMoment: [ Abs: 0.10053  Tot: -0.10000 ]
SCF: Cycle: 15   F: -20.177898410141466   dF: -1.110e-06   |Residual|: 1.247e-04   |deigs|: 2.128e-04  t[s]:     78.30
	FillingsUpdate:  mu: -0.078371392  nElectrons: 9.000000  magneticMoment: [ Abs: 0.10020  Tot: -0.10000 ]
SCF: Cycle: 16   F: -20.177899001438544   dF: -5.913e-07   |Residual|: 7.300e-05   |deigs|: 1.510e-04  t[s]:     82.62
	FillingsUpdate:  mu: -0.078359233  nElectrons: 9.000000  magneticMoment: [ Abs: 0.10015  Tot: -0.10000 ]
SCF: Cycle: 17   F: -20.177899242370266   dF: -2.409e-07   |Residual|: 4.311e-05   |deigs|: 8.009e-05  t[s]:     86.88
	FillingsUpdate:  mu: -0.078362248  nElectrons: 9.000000  magneticMoment: [ Abs: 0.10011  Tot: -0.10000 ]
SCF: Cycle: 18   F: -20.177899320447136   dF: -7.808e-08   |Residual|: 2.963e-05   |deigs|: 8.031e-05  t[s]:     91.16
	FillingsUpdate:  mu: -0.078367567  nElectrons: 9.000000  magneticMoment: [ Abs: 0.10012  Tot: -0.10000 ]
SCF: Cycle: 19   F: -20.177899373178523   dF: -5.273e-08   |Residual|: 1.649e-05   |deigs|: 5.700e-05  t[s]:     95.43
	FillingsUpdate:  mu: -0.078370234  nElectrons: 9.000000  magneticMoment: [ Abs: 0.10013  Tot: -0.10000 ]
SCF: Cycle: 20   F: -20.177899393643631   dF: -2.047e-08   |Residual|: 9.534e-06   |deigs|: 4.519e-05  t[s]:     99.73
	FillingsUpdate:  mu: -0.078374079  nElectrons: 9.000000  magneticMoment: [ Abs: 0.10013  Tot: -0.10000 ]
SCF: Cycle: 21   F: -20.177899399858095   dF: -6.214e-09   |Residual|: 8.871e-06   |deigs|: 4.458e-05  t[s]:    104.01
	FillingsUpdate:  mu: -0.078373683  nElectrons: 9.000000  magneticMoment: [ Abs: 0.10013  Tot: -0.10000 ]
SCF: Cycle: 22   F: -20.177899401811519   dF: -1.953e-09   |Residual|: 1.016e-05   |deigs|: 4.575e-05  t[s]:    107.99
SCF: Converged (|Delta E|<1.000000e-08 for 2 iters).


# Ionic positions in lattice coordinates:
ion Cs   0.000000000000000   0.000000000000000   0.000000000000000 0

# Forces in Lattice coordinates:
force Cs  -0.000000000000000   0.000000000000000   0.000000000000000 0

# Energy components:
   Eewald =      -12.0320174002217755
       EH =        4.0104023929779915
     Eloc =      -17.5794279715336579
      Enl =        3.4316659939016225
   Epulay =       -0.0000000107257212
      Exc =       -3.1080745670362804
       KE =        5.0995532582619898
-------------------------------------
     Etot =      -20.1778983043758302
       TS =        0.0000010974356905
-------------------------------------
        F =      -20.1778994018115192

IonicMinimize: Iter:   0  F: -20.177899401811519  |grad|_K:  0.000e+00  t[s]:    108.25
IonicMinimize: Converged (|grad|_K<1.000000e-04).

#--- Lowdin population analysis ---
# oxidation-state Cs +0.041
# magnetic-moments Cs -0.090

End date and time: Sun Feb  6 13:20:05 2022  (Duration: 0-0:01:48.29)
Done!
