
*************** JDFTx 1.6.0 (git hash 42ebbcc2) ***************

Start date and time: Sun Feb  6 13:17:20 2022
Executable jdftx with command-line: -i Alkali.in
Running on hosts (process indices):  d-4-2-2 (0-18)
Divided in process groups (process indices):  0 (0)  1 (1)  2 (2)  3 (3)  4 (4)  5 (5)  6 (6)  7 (7)  8 (8)  9 (9)  10 (10)  11 (11)  12 (12)  13 (13)  14 (14)  15 (15)  16 (16)  17 (17)  18 (18)
Resource initialization completed at t[s]:      0.00
Run totals: 19 processes, 48 threads, 0 GPUs


Input parsed successfully to the following command list (including defaults):

basis kpoint-dependent
coords-type Lattice
core-overlap-check vector
coulomb-interaction Slab 001
davidson-band-ratio 1.1
dump End None
dump-name $INPUT.$VAR
elec-cutoff 20
elec-eigen-algo Davidson
elec-ex-corr gga-PBE
elec-initial-magnetization -0.320000 yes
elec-smearing Fermi 1e-05
electronic-minimize  \
	dirUpdateScheme      FletcherReeves \
	linminMethod         DirUpdateRecommended \
	nIterations          100 \
	history              15 \
	knormThreshold       0 \
	energyDiffThreshold  1e-08 \
	nEnergyDiff          2 \
	alphaTstart          1 \
	alphaTmin            1e-10 \
	updateTestStepSize   yes \
	alphaTreduceFactor   0.1 \
	alphaTincreaseFactor 3 \
	nAlphaAdjustMax      3 \
	wolfeEnergy          0.0001 \
	wolfeGradient        0.9 \
	fdTest               no
electronic-scf  \
	nIterations	10000 \
	energyDiffThreshold	1e-08 \
	residualThreshold	1e-07 \
	mixFraction	0.5 \
	qMetric	0.8 \
	history	10 \
	nEigSteps	2 \
	eigDiffThreshold	1e-08 \
	mixedVariable	Density \
	qKerker	0.8 \
	qKappa	-1 \
	verbose	no \
	mixFractionMag	1.5
exchange-regularization WignerSeitzTruncated
fluid None
fluid-ex-corr (null) lda-PZ
fluid-gummel-loop 10 1.000000e-05
fluid-minimize  \
	dirUpdateScheme      PolakRibiere \
	linminMethod         DirUpdateRecommended \
	nIterations          100 \
	history              15 \
	knormThreshold       0 \
	energyDiffThreshold  0 \
	nEnergyDiff          2 \
	alphaTstart          1 \
	alphaTmin            1e-10 \
	updateTestStepSize   yes \
	alphaTreduceFactor   0.1 \
	alphaTincreaseFactor 3 \
	nAlphaAdjustMax      3 \
	wolfeEnergy          0.0001 \
	wolfeGradient        0.9 \
	fdTest               no
fluid-solvent H2O 55.338 ScalarEOS \
	epsBulk 78.4 \
	pMol 0.92466 \
	epsInf 1.77 \
	Pvap 1.06736e-10 \
	sigmaBulk 4.62e-05 \
	Rvdw 2.61727 \
	Res 1.42 \
	tauNuc 343133 \
	poleEl 15 7 1
forces-output-coords Positions
ion Cs   0.000000000000000   0.000000000000000   0.000000000000000 0
ion-species SG15/$ID_ONCV_PBE.upf
ion-width 0
ionic-minimize  \
	dirUpdateScheme      L-BFGS \
	linminMethod         DirUpdateRecommended \
	nIterations          0 \
	history              15 \
	knormThreshold       0.0001 \
	energyDiffThreshold  1e-06 \
	nEnergyDiff          2 \
	alphaTstart          1 \
	alphaTmin            1e-10 \
	updateTestStepSize   yes \
	alphaTreduceFactor   0.1 \
	alphaTincreaseFactor 3 \
	nAlphaAdjustMax      3 \
	wolfeEnergy          0.0001 \
	wolfeGradient        0.9 \
	fdTest               no
kpoint   0.000000000000   0.000000000000   0.000000000000  1.00000000000000
kpoint-folding 12 12 1 
latt-move-scale 1 1 1
latt-scale 3 3 1 
lattice  \
	   4.727486978767153   -2.363743489383575    0.000000000000000  \
	  -0.000000000000000    4.094123819672498    0.000000000000000  \
	   0.000000000000000    0.000000000000000   40.000000000000000 
lattice-minimize  \
	dirUpdateScheme      L-BFGS \
	linminMethod         DirUpdateRecommended \
	nIterations          0 \
	history              15 \
	knormThreshold       0 \
	energyDiffThreshold  1e-06 \
	nEnergyDiff          2 \
	alphaTstart          1 \
	alphaTmin            1e-10 \
	updateTestStepSize   yes \
	alphaTreduceFactor   0.1 \
	alphaTincreaseFactor 3 \
	nAlphaAdjustMax      3 \
	wolfeEnergy          0.0001 \
	wolfeGradient        0.9 \
	fdTest               no
lcao-params -1 1e-06 1e-05
pcm-variant GLSSA13
spintype z-spin
subspace-rotation-factor 1 yes
symmetries automatic
symmetry-threshold 0.0001



---------- Setting up symmetries ----------

Found 24 point-group symmetries of the bravais lattice
Found 24 space-group symmetries with basis
Applied RMS atom displacement 0 bohrs to make symmetries exact.

---------- Initializing the Grid ----------
R = 
[      14.1825     -7.09123            0  ]
[            0      12.2824            0  ]
[            0            0           40  ]
unit cell volume = 6967.77
G =
[   0.443025   0.255781         -0  ]
[          0   0.511561         -0  ]
[         -0         -0    0.15708  ]
Minimum fftbox size, Smin = [  60  60  164  ]
Chosen fftbox size, S = [  60  60  168  ]

---------- Exchange Correlation functional ----------
Initalized PBE GGA exchange.
Initalized PBE GGA correlation.

---------- Setting up pseudopotentials ----------
Width of ionic core gaussian charges (only for fluid interactions / plotting) set to 0

Reading pseudopotential file '/home/gridsan/aligho/DFT/build-Nov24/pseudopotentials/SG15/Cs_ONCV_PBE.upf':
  'Cs' pseudopotential, 'PBE' functional
  Generated using ONCVPSP code by D. R. Hamann
  Author: Martin Schlipf and Francois Gygi  Date: 150915.
  9 valence electrons, 3 orbitals, 6 projectors, 2414 radial grid points, with lMax = 2
  Transforming local potential to a uniform radial grid of dG=0.02 with 1489 points.
  Transforming nonlocal projectors to a uniform radial grid of dG=0.02 with 432 points.
    5S    l: 0   occupation:  2.0   eigenvalue: -0.982388
    5P    l: 1   occupation:  6.0   eigenvalue: -0.496786
    6S    l: 0   occupation:  1.0   eigenvalue: -0.076670
  Transforming atomic orbitals to a uniform radial grid of dG=0.02 with 432 points.
  Core radius for overlap checks: 2.06 bohrs.
  Reading pulay file /home/gridsan/aligho/DFT/build-Nov24/pseudopotentials/SG15/Cs_ONCV_PBE.pulay ... using dE_dnG = -1.008762e-04 computed for Ecut = 20.

Initialized 1 species with 1 total atoms.

Folded 1 k-points by 12x12x1 to 144 k-points.

---------- Setting up k-points, bands, fillings ----------
Reduced to 19 k-points under symmetry. 
Computing the number of bands and number of electrons
Calculating initial fillings.
nElectrons:   9.000000   nBands: 6   nStates: 38

----- Setting up reduced wavefunction bases (one per k-point) -----
average nbasis = 29766.104 , ideal nbasis = 29766.845

---------- Setting up coulomb interaction ----------
Initialized slab truncation along lattice direction 001

---------- Setting up 2D ewald sum ----------
Optimum gaussian width for ewald sums = 7.873530 bohr.
Real space sums over 289 unit cells with max indices [  8  8  0  ]
Reciprocal space sums over 81 terms with max indices [  4  4  0  ]

---------- Allocating electronic variables ----------
Initializing wave functions:  linear combination of atomic orbitals
Note: number of bands (6) exceeds available atomic orbitals (5)
Cs pseudo-atom occupations:   s ( 2 1 )  p ( 6 )
	FillingsUpdate:  mu: -0.078839602  nElectrons: 9.000000  magneticMoment: [ Abs: 0.32000  Tot: -0.32000 ]
LCAOMinimize: Iter:   0  F: -20.1747364804095071  |grad|_K:  2.345e-05  alpha:  1.000e+00
	FillingsUpdate:  mu: -0.078834448  nElectrons: 9.000000  magneticMoment: [ Abs: 0.32000  Tot: -0.32000 ]
LCAOMinimize: Iter:   1  F: -20.1747368515711010  |grad|_K:  1.666e-07  alpha:  9.869e-01  linmin: -2.962e-02  cgtest:  5.377e-01  t[s]:      8.99
LCAOMinimize: Encountered beta<0, resetting CG.
	FillingsUpdate:  mu: -0.078834445  nElectrons: 9.000000  magneticMoment: [ Abs: 0.32000  Tot: -0.32000 ]
LCAOMinimize: Iter:   2  F: -20.1747368515902217  |grad|_K:  1.903e-09  alpha:  1.012e+00  linmin:  7.689e-02  cgtest: -9.976e-01  t[s]:     11.39
LCAOMinimize: Converged (|Delta F|<1.000000e-06 for 2 iters).


---- Citations for features of the code used in this run ----

   Software package:
      R. Sundararaman, K. Letchworth-Weaver, K.A. Schwarz, D. Gunceler, Y. Ozhabes and T.A. Arias, 'JDFTx: software for joint density-functional theory', SoftwareX 6, 278 (2017)

   gga-PBE exchange-correlation functional:
      J.P. Perdew, K. Burke and M. Ernzerhof, Phys. Rev. Lett. 77, 3865 (1996)

   Pseudopotentials:
      M Schlipf and F Gygi, Comput. Phys. Commun. 196, 36 (2015)

   Truncated Coulomb potentials:
      R. Sundararaman and T.A. Arias, Phys. Rev. B 87, 165122 (2013)

This list may not be complete. Please suggest additional citations or
report any other bugs at https://github.com/shankar1729/jdftx/issues

Initialization completed successfully at t[s]:     11.56


-------- Electronic minimization -----------
Will mix electronic density at each iteration.
	FillingsUpdate:  mu: -0.078834445  nElectrons: 9.000000  magneticMoment: [ Abs: 0.32000  Tot: -0.32000 ]
	FillingsUpdate:  mu: -0.082166159  nElectrons: 9.000000  magneticMoment: [ Abs: 0.32000  Tot: -0.32000 ]
SCF: Cycle:  0   F: -20.177147262368365   dF: -2.410e-03   |Residual|: 4.685e-03   |deigs|: 1.731e-01  t[s]:     16.45
	FillingsUpdate:  mu: -0.082390494  nElectrons: 9.000000  magneticMoment: [ Abs: 0.32000  Tot: -0.32000 ]
SCF: Cycle:  1   F: -20.177268239066883   dF: -1.210e-04   |Residual|: 4.147e-03   |deigs|: 4.969e-03  t[s]:     20.20
	FillingsUpdate:  mu: -0.082630995  nElectrons: 9.000000  magneticMoment: [ Abs: 0.32249  Tot: -0.32000 ]
SCF: Cycle:  2   F: -20.177342031130721   dF: -7.379e-05   |Residual|: 2.358e-03   |deigs|: 2.351e-03  t[s]:     24.09
	FillingsUpdate:  mu: -0.082656688  nElectrons: 9.000000  magneticMoment: [ Abs: 0.32209  Tot: -0.32000 ]
SCF: Cycle:  3   F: -20.177367608569408   dF: -2.558e-05   |Residual|: 1.605e-03   |deigs|: 1.428e-03  t[s]:     28.06
	FillingsUpdate:  mu: -0.082491840  nElectrons: 9.000000  magneticMoment: [ Abs: 0.32020  Tot: -0.32000 ]
SCF: Cycle:  4   F: -20.177383658064496   dF: -1.605e-05   |Residual|: 9.507e-04   |deigs|: 9.595e-04  t[s]:     32.08
	FillingsUpdate:  mu: -0.082342982  nElectrons: 9.000000  magneticMoment: [ Abs: 0.32022  Tot: -0.32000 ]
SCF: Cycle:  5   F: -20.177390939059226   dF: -7.281e-06   |Residual|: 6.836e-04   |deigs|: 9.880e-04  t[s]:     36.15
	FillingsUpdate:  mu: -0.081996183  nElectrons: 9.000000  magneticMoment: [ Abs: 0.32079  Tot: -0.32000 ]
SCF: Cycle:  6   F: -20.177394345081769   dF: -3.406e-06   |Residual|: 5.384e-04   |deigs|: 1.322e-03  t[s]:     40.28
	FillingsUpdate:  mu: -0.081616746  nElectrons: 9.000000  magneticMoment: [ Abs: 0.32189  Tot: -0.32000 ]
SCF: Cycle:  7   F: -20.177394672511312   dF: -3.274e-07   |Residual|: 4.605e-04   |deigs|: 6.931e-04  t[s]:     44.45
	FillingsUpdate:  mu: -0.080943278  nElectrons: 9.000000  magneticMoment: [ Abs: 0.32271  Tot: -0.32000 ]
SCF: Cycle:  8   F: -20.177391942148653   dF: +2.730e-06   |Residual|: 3.655e-04   |deigs|: 8.509e-04  t[s]:     48.77
	FillingsUpdate:  mu: -0.080428915  nElectrons: 9.000000  magneticMoment: [ Abs: 0.32209  Tot: -0.32000 ]
SCF: Cycle:  9   F: -20.177393831383416   dF: -1.889e-06   |Residual|: 3.286e-04   |deigs|: 7.763e-04  t[s]:     53.10
	FillingsUpdate:  mu: -0.080412058  nElectrons: 9.000000  magneticMoment: [ Abs: 0.32155  Tot: -0.32000 ]
SCF: Cycle: 10   F: -20.177396599406073   dF: -2.768e-06   |Residual|: 2.859e-04   |deigs|: 4.775e-04  t[s]:     57.51
	FillingsUpdate:  mu: -0.079942739  nElectrons: 9.000000  magneticMoment: [ Abs: 0.32245  Tot: -0.32000 ]
SCF: Cycle: 11   F: -20.177397482375032   dF: -8.830e-07   |Residual|: 2.434e-04   |deigs|: 9.583e-04  t[s]:     61.87
	FillingsUpdate:  mu: -0.079343305  nElectrons: 9.000000  magneticMoment: [ Abs: 0.32218  Tot: -0.32000 ]
SCF: Cycle: 12   F: -20.177396439034236   dF: +1.043e-06   |Residual|: 2.415e-04   |deigs|: 7.761e-04  t[s]:     66.30
	FillingsUpdate:  mu: -0.078965257  nElectrons: 9.000000  magneticMoment: [ Abs: 0.32091  Tot: -0.32000 ]
SCF: Cycle: 13   F: -20.177396429434335   dF: +9.600e-09   |Residual|: 2.283e-04   |deigs|: 4.502e-04  t[s]:     70.76
	FillingsUpdate:  mu: -0.078762011  nElectrons: 9.000000  magneticMoment: [ Abs: 0.32156  Tot: -0.32000 ]
SCF: Cycle: 14   F: -20.177398609821203   dF: -2.180e-06   |Residual|: 1.955e-04   |deigs|: 2.670e-04  t[s]:     75.19
	FillingsUpdate:  mu: -0.078418151  nElectrons: 9.000000  magneticMoment: [ Abs: 0.32117  Tot: -0.32000 ]
SCF: Cycle: 15   F: -20.177400574832390   dF: -1.965e-06   |Residual|: 1.510e-04   |deigs|: 3.887e-04  t[s]:     79.53
	FillingsUpdate:  mu: -0.078178260  nElectrons: 9.000000  magneticMoment: [ Abs: 0.32058  Tot: -0.32000 ]
SCF: Cycle: 16   F: -20.177401839077227   dF: -1.264e-06   |Residual|: 9.628e-05   |deigs|: 2.273e-04  t[s]:     83.87
	FillingsUpdate:  mu: -0.078135479  nElectrons: 9.000000  magneticMoment: [ Abs: 0.32043  Tot: -0.32000 ]
SCF: Cycle: 17   F: -20.177402092901314   dF: -2.538e-07   |Residual|: 6.443e-05   |deigs|: 5.807e-05  t[s]:     88.14
	FillingsUpdate:  mu: -0.078144010  nElectrons: 9.000000  magneticMoment: [ Abs: 0.32038  Tot: -0.32000 ]
SCF: Cycle: 18   F: -20.177402280897279   dF: -1.880e-07   |Residual|: 3.511e-05   |deigs|: 3.876e-05  t[s]:     92.52
	FillingsUpdate:  mu: -0.078162232  nElectrons: 9.000000  magneticMoment: [ Abs: 0.32042  Tot: -0.32000 ]
SCF: Cycle: 19   F: -20.177402345523472   dF: -6.463e-08   |Residual|: 2.308e-05   |deigs|: 4.254e-05  t[s]:     96.84
	FillingsUpdate:  mu: -0.078165542  nElectrons: 9.000000  magneticMoment: [ Abs: 0.32041  Tot: -0.32000 ]
SCF: Cycle: 20   F: -20.177402377202363   dF: -3.168e-08   |Residual|: 1.604e-05   |deigs|: 4.873e-05  t[s]:    101.22
	FillingsUpdate:  mu: -0.078175294  nElectrons: 9.000000  magneticMoment: [ Abs: 0.32041  Tot: -0.32000 ]
SCF: Cycle: 21   F: -20.177402392305336   dF: -1.510e-08   |Residual|: 1.143e-05   |deigs|: 6.727e-05  t[s]:    105.68
	FillingsUpdate:  mu: -0.078173536  nElectrons: 9.000000  magneticMoment: [ Abs: 0.32041  Tot: -0.32000 ]
SCF: Cycle: 22   F: -20.177402399118197   dF: -6.813e-09   |Residual|: 7.384e-06   |deigs|: 7.148e-05  t[s]:    110.08
	FillingsUpdate:  mu: -0.078176491  nElectrons: 9.000000  magneticMoment: [ Abs: 0.32041  Tot: -0.32000 ]
SCF: Cycle: 23   F: -20.177402403480208   dF: -4.362e-09   |Residual|: 5.385e-06   |deigs|: 6.502e-05  t[s]:    114.45
SCF: Converged (|Delta E|<1.000000e-08 for 2 iters).


# Ionic positions in lattice coordinates:
ion Cs   0.000000000000000   0.000000000000000   0.000000000000000 0

# Forces in Lattice coordinates:
force Cs  -0.000000000000000  -0.000000000000000   0.000000000000000 0

# Energy components:
   Eewald =      -12.0320174002217755
       EH =        4.0128737447517695
     Eloc =      -17.5821303616920268
      Enl =        3.4317279421822797
   Epulay =       -0.0000000107257212
      Exc =       -3.1086237637346144
       KE =        5.1007682868110269
-------------------------------------
     Etot =      -20.1774015626290577
       TS =        0.0000008408511521
-------------------------------------
        F =      -20.1774024034802082

IonicMinimize: Iter:   0  F: -20.177402403480208  |grad|_K:  0.000e+00  t[s]:    114.72
IonicMinimize: Converged (|grad|_K<1.000000e-04).

#--- Lowdin population analysis ---
# oxidation-state Cs +0.048
# magnetic-moments Cs -0.287

End date and time: Sun Feb  6 13:19:15 2022  (Duration: 0-0:01:54.76)
Done!
