
*************** JDFTx 1.6.0 (git hash 42ebbcc2) ***************

Start date and time: Sun Feb  6 13:10:17 2022
Executable jdftx with command-line: -i Alkali.in
Running on hosts (process indices):  d-4-6-3 (0-18)
Divided in process groups (process indices):  0 (0)  1 (1)  2 (2)  3 (3)  4 (4)  5 (5)  6 (6)  7 (7)  8 (8)  9 (9)  10 (10)  11 (11)  12 (12)  13 (13)  14 (14)  15 (15)  16 (16)  17 (17)  18 (18)
Resource initialization completed at t[s]:      0.00
Run totals: 19 processes, 48 threads, 0 GPUs


Input parsed successfully to the following command list (including defaults):

basis kpoint-dependent
coords-type Lattice
core-overlap-check vector
coulomb-interaction Slab 001
davidson-band-ratio 1.1
dump End None
dump-name $INPUT.$VAR
elec-cutoff 20
elec-eigen-algo Davidson
elec-ex-corr gga-PBE
elec-initial-magnetization -0.820000 yes
elec-smearing Fermi 1e-05
electronic-minimize  \
	dirUpdateScheme      FletcherReeves \
	linminMethod         DirUpdateRecommended \
	nIterations          100 \
	history              15 \
	knormThreshold       0 \
	energyDiffThreshold  1e-08 \
	nEnergyDiff          2 \
	alphaTstart          1 \
	alphaTmin            1e-10 \
	updateTestStepSize   yes \
	alphaTreduceFactor   0.1 \
	alphaTincreaseFactor 3 \
	nAlphaAdjustMax      3 \
	wolfeEnergy          0.0001 \
	wolfeGradient        0.9 \
	fdTest               no
electronic-scf  \
	nIterations	10000 \
	energyDiffThreshold	1e-08 \
	residualThreshold	1e-07 \
	mixFraction	0.5 \
	qMetric	0.8 \
	history	10 \
	nEigSteps	2 \
	eigDiffThreshold	1e-08 \
	mixedVariable	Density \
	qKerker	0.8 \
	qKappa	-1 \
	verbose	no \
	mixFractionMag	1.5
exchange-regularization WignerSeitzTruncated
fluid None
fluid-ex-corr (null) lda-PZ
fluid-gummel-loop 10 1.000000e-05
fluid-minimize  \
	dirUpdateScheme      PolakRibiere \
	linminMethod         DirUpdateRecommended \
	nIterations          100 \
	history              15 \
	knormThreshold       0 \
	energyDiffThreshold  0 \
	nEnergyDiff          2 \
	alphaTstart          1 \
	alphaTmin            1e-10 \
	updateTestStepSize   yes \
	alphaTreduceFactor   0.1 \
	alphaTincreaseFactor 3 \
	nAlphaAdjustMax      3 \
	wolfeEnergy          0.0001 \
	wolfeGradient        0.9 \
	fdTest               no
fluid-solvent H2O 55.338 ScalarEOS \
	epsBulk 78.4 \
	pMol 0.92466 \
	epsInf 1.77 \
	Pvap 1.06736e-10 \
	sigmaBulk 4.62e-05 \
	Rvdw 2.61727 \
	Res 1.42 \
	tauNuc 343133 \
	poleEl 15 7 1
forces-output-coords Positions
ion Cs   0.000000000000000   0.000000000000000   0.000000000000000 0
ion-species SG15/$ID_ONCV_PBE.upf
ion-width 0
ionic-minimize  \
	dirUpdateScheme      L-BFGS \
	linminMethod         DirUpdateRecommended \
	nIterations          0 \
	history              15 \
	knormThreshold       0.0001 \
	energyDiffThreshold  1e-06 \
	nEnergyDiff          2 \
	alphaTstart          1 \
	alphaTmin            1e-10 \
	updateTestStepSize   yes \
	alphaTreduceFactor   0.1 \
	alphaTincreaseFactor 3 \
	nAlphaAdjustMax      3 \
	wolfeEnergy          0.0001 \
	wolfeGradient        0.9 \
	fdTest               no
kpoint   0.000000000000   0.000000000000   0.000000000000  1.00000000000000
kpoint-folding 12 12 1 
latt-move-scale 1 1 1
latt-scale 3 3 1 
lattice  \
	   4.727486978767153   -2.363743489383575    0.000000000000000  \
	  -0.000000000000000    4.094123819672498    0.000000000000000  \
	   0.000000000000000    0.000000000000000   40.000000000000000 
lattice-minimize  \
	dirUpdateScheme      L-BFGS \
	linminMethod         DirUpdateRecommended \
	nIterations          0 \
	history              15 \
	knormThreshold       0 \
	energyDiffThreshold  1e-06 \
	nEnergyDiff          2 \
	alphaTstart          1 \
	alphaTmin            1e-10 \
	updateTestStepSize   yes \
	alphaTreduceFactor   0.1 \
	alphaTincreaseFactor 3 \
	nAlphaAdjustMax      3 \
	wolfeEnergy          0.0001 \
	wolfeGradient        0.9 \
	fdTest               no
lcao-params -1 1e-06 1e-05
pcm-variant GLSSA13
spintype z-spin
subspace-rotation-factor 1 yes
symmetries automatic
symmetry-threshold 0.0001



---------- Setting up symmetries ----------

Found 24 point-group symmetries of the bravais lattice
Found 24 space-group symmetries with basis
Applied RMS atom displacement 0 bohrs to make symmetries exact.

---------- Initializing the Grid ----------
R = 
[      14.1825     -7.09123            0  ]
[            0      12.2824            0  ]
[            0            0           40  ]
unit cell volume = 6967.77
G =
[   0.443025   0.255781         -0  ]
[          0   0.511561         -0  ]
[         -0         -0    0.15708  ]
Minimum fftbox size, Smin = [  60  60  164  ]
Chosen fftbox size, S = [  60  60  168  ]

---------- Exchange Correlation functional ----------
Initalized PBE GGA exchange.
Initalized PBE GGA correlation.

---------- Setting up pseudopotentials ----------
Width of ionic core gaussian charges (only for fluid interactions / plotting) set to 0

Reading pseudopotential file '/home/gridsan/aligho/DFT/build-Nov24/pseudopotentials/SG15/Cs_ONCV_PBE.upf':
  'Cs' pseudopotential, 'PBE' functional
  Generated using ONCVPSP code by D. R. Hamann
  Author: Martin Schlipf and Francois Gygi  Date: 150915.
  9 valence electrons, 3 orbitals, 6 projectors, 2414 radial grid points, with lMax = 2
  Transforming local potential to a uniform radial grid of dG=0.02 with 1489 points.
  Transforming nonlocal projectors to a uniform radial grid of dG=0.02 with 432 points.
    5S    l: 0   occupation:  2.0   eigenvalue: -0.982388
    5P    l: 1   occupation:  6.0   eigenvalue: -0.496786
    6S    l: 0   occupation:  1.0   eigenvalue: -0.076670
  Transforming atomic orbitals to a uniform radial grid of dG=0.02 with 432 points.
  Core radius for overlap checks: 2.06 bohrs.
  Reading pulay file /home/gridsan/aligho/DFT/build-Nov24/pseudopotentials/SG15/Cs_ONCV_PBE.pulay ... using dE_dnG = -1.008762e-04 computed for Ecut = 20.

Initialized 1 species with 1 total atoms.

Folded 1 k-points by 12x12x1 to 144 k-points.

---------- Setting up k-points, bands, fillings ----------
Reduced to 19 k-points under symmetry. 
Computing the number of bands and number of electrons
Calculating initial fillings.
nElectrons:   9.000000   nBands: 6   nStates: 38

----- Setting up reduced wavefunction bases (one per k-point) -----
average nbasis = 29766.104 , ideal nbasis = 29766.845

---------- Setting up coulomb interaction ----------
Initialized slab truncation along lattice direction 001

---------- Setting up 2D ewald sum ----------
Optimum gaussian width for ewald sums = 7.873530 bohr.
Real space sums over 289 unit cells with max indices [  8  8  0  ]
Reciprocal space sums over 81 terms with max indices [  4  4  0  ]

---------- Allocating electronic variables ----------
Initializing wave functions:  linear combination of atomic orbitals
Note: number of bands (6) exceeds available atomic orbitals (5)
Cs pseudo-atom occupations:   s ( 2 1 )  p ( 6 )
	FillingsUpdate:  mu: -0.080996076  nElectrons: 9.000000  magneticMoment: [ Abs: 0.82000  Tot: -0.82000 ]
LCAOMinimize: Iter:   0  F: -20.1715553456090007  |grad|_K:  8.722e-06  alpha:  1.000e+00
	FillingsUpdate:  mu: -0.080994971  nElectrons: 9.000000  magneticMoment: [ Abs: 0.82000  Tot: -0.82000 ]
LCAOMinimize: Iter:   1  F: -20.1715553973602475  |grad|_K:  5.299e-08  alpha:  9.947e-01  linmin: -7.912e-03  cgtest:  1.452e-01  t[s]:      8.71
LCAOMinimize: Encountered beta<0, resetting CG.
	FillingsUpdate:  mu: -0.080994980  nElectrons: 9.000000  magneticMoment: [ Abs: 0.82000  Tot: -0.82000 ]
LCAOMinimize: Iter:   2  F: -20.1715553973616686  |grad|_K:  1.366e-08  alpha:  7.398e-01  linmin: -1.529e-01  cgtest:  9.999e-01  t[s]:     11.09
LCAOMinimize: Encountered beta<0, resetting CG.
LCAOMinimize: Converged (|Delta F|<1.000000e-06 for 2 iters).


---- Citations for features of the code used in this run ----

   Software package:
      R. Sundararaman, K. Letchworth-Weaver, K.A. Schwarz, D. Gunceler, Y. Ozhabes and T.A. Arias, 'JDFTx: software for joint density-functional theory', SoftwareX 6, 278 (2017)

   gga-PBE exchange-correlation functional:
      J.P. Perdew, K. Burke and M. Ernzerhof, Phys. Rev. Lett. 77, 3865 (1996)

   Pseudopotentials:
      M Schlipf and F Gygi, Comput. Phys. Commun. 196, 36 (2015)

   Truncated Coulomb potentials:
      R. Sundararaman and T.A. Arias, Phys. Rev. B 87, 165122 (2013)

This list may not be complete. Please suggest additional citations or
report any other bugs at https://github.com/shankar1729/jdftx/issues

Initialization completed successfully at t[s]:     11.26


-------- Electronic minimization -----------
Will mix electronic density at each iteration.
	FillingsUpdate:  mu: -0.080994980  nElectrons: 9.000000  magneticMoment: [ Abs: 0.82000  Tot: -0.82000 ]
	FillingsUpdate:  mu: -0.082515026  nElectrons: 9.000000  magneticMoment: [ Abs: 0.82000  Tot: -0.82000 ]
SCF: Cycle:  0   F: -20.173994113949270   dF: -2.439e-03   |Residual|: 5.202e-03   |deigs|: 1.735e-01  t[s]:     16.05
	FillingsUpdate:  mu: -0.083303722  nElectrons: 9.000000  magneticMoment: [ Abs: 0.82042  Tot: -0.82000 ]
SCF: Cycle:  1   F: -20.174202799530622   dF: -2.087e-04   |Residual|: 4.475e-03   |deigs|: 5.052e-03  t[s]:     19.76
	FillingsUpdate:  mu: -0.084481639  nElectrons: 9.000000  magneticMoment: [ Abs: 0.82243  Tot: -0.82000 ]
SCF: Cycle:  2   F: -20.174300512155224   dF: -9.771e-05   |Residual|: 3.592e-03   |deigs|: 3.044e-03  t[s]:     23.52
	FillingsUpdate:  mu: -0.084137731  nElectrons: 9.000000  magneticMoment: [ Abs: 0.82391  Tot: -0.82000 ]
SCF: Cycle:  3   F: -20.174390879686801   dF: -9.037e-05   |Residual|: 2.804e-03   |deigs|: 1.389e-03  t[s]:     27.39
	FillingsUpdate:  mu: -0.083499625  nElectrons: 9.000000  magneticMoment: [ Abs: 0.82115  Tot: -0.82000 ]
SCF: Cycle:  4   F: -20.174449131703597   dF: -5.825e-05   |Residual|: 1.393e-03   |deigs|: 1.451e-03  t[s]:     31.31
	FillingsUpdate:  mu: -0.082963331  nElectrons: 9.000000  magneticMoment: [ Abs: 0.82183  Tot: -0.82000 ]
SCF: Cycle:  5   F: -20.174470158240108   dF: -2.103e-05   |Residual|: 8.897e-04   |deigs|: 6.358e-04  t[s]:     35.33
	FillingsUpdate:  mu: -0.082751571  nElectrons: 9.000000  magneticMoment: [ Abs: 0.82178  Tot: -0.82000 ]
SCF: Cycle:  6   F: -20.174481918400044   dF: -1.176e-05   |Residual|: 7.263e-04   |deigs|: 5.921e-04  t[s]:     39.36
	FillingsUpdate:  mu: -0.082389317  nElectrons: 9.000000  magneticMoment: [ Abs: 0.82186  Tot: -0.82000 ]
SCF: Cycle:  7   F: -20.174485619938629   dF: -3.702e-06   |Residual|: 5.969e-04   |deigs|: 3.888e-04  t[s]:     43.52
	FillingsUpdate:  mu: -0.081422160  nElectrons: 9.000000  magneticMoment: [ Abs: 0.82358  Tot: -0.82000 ]
SCF: Cycle:  8   F: -20.174482606055914   dF: +3.014e-06   |Residual|: 4.780e-04   |deigs|: 8.837e-04  t[s]:     47.74
	FillingsUpdate:  mu: -0.080795661  nElectrons: 9.000000  magneticMoment: [ Abs: 0.82306  Tot: -0.82000 ]
SCF: Cycle:  9   F: -20.174482705135063   dF: -9.908e-08   |Residual|: 4.970e-04   |deigs|: 9.041e-04  t[s]:     52.00
	FillingsUpdate:  mu: -0.080600798  nElectrons: 9.000000  magneticMoment: [ Abs: 0.82173  Tot: -0.82000 ]
SCF: Cycle: 10   F: -20.174489187848170   dF: -6.483e-06   |Residual|: 3.508e-04   |deigs|: 3.628e-04  t[s]:     56.29
	FillingsUpdate:  mu: -0.080596997  nElectrons: 9.000000  magneticMoment: [ Abs: 0.82401  Tot: -0.82000 ]
SCF: Cycle: 11   F: -20.174494857655528   dF: -5.670e-06   |Residual|: 3.251e-04   |deigs|: 6.904e-04  t[s]:     60.60
	FillingsUpdate:  mu: -0.080058879  nElectrons: 9.000000  magneticMoment: [ Abs: 0.82479  Tot: -0.82000 ]
SCF: Cycle: 12   F: -20.174493695964347   dF: +1.162e-06   |Residual|: 2.595e-04   |deigs|: 5.879e-04  t[s]:     64.90
	FillingsUpdate:  mu: -0.079545732  nElectrons: 9.000000  magneticMoment: [ Abs: 0.82459  Tot: -0.82000 ]
SCF: Cycle: 13   F: -20.174494277492279   dF: -5.815e-07   |Residual|: 2.544e-04   |deigs|: 5.093e-04  t[s]:     69.24
	FillingsUpdate:  mu: -0.079366878  nElectrons: 9.000000  magneticMoment: [ Abs: 0.82380  Tot: -0.82000 ]
SCF: Cycle: 14   F: -20.174495014977879   dF: -7.375e-07   |Residual|: 2.323e-04   |deigs|: 2.105e-04  t[s]:     73.58
	FillingsUpdate:  mu: -0.079071432  nElectrons: 9.000000  magneticMoment: [ Abs: 0.82259  Tot: -0.82000 ]
SCF: Cycle: 15   F: -20.174497416622511   dF: -2.402e-06   |Residual|: 1.980e-04   |deigs|: 3.961e-04  t[s]:     77.97
	FillingsUpdate:  mu: -0.078511315  nElectrons: 9.000000  magneticMoment: [ Abs: 0.82283  Tot: -0.82000 ]
SCF: Cycle: 16   F: -20.174498536822977   dF: -1.120e-06   |Residual|: 1.584e-04   |deigs|: 6.518e-04  t[s]:     82.25
	FillingsUpdate:  mu: -0.078366302  nElectrons: 9.000000  magneticMoment: [ Abs: 0.82194  Tot: -0.82000 ]
SCF: Cycle: 17   F: -20.174499531454888   dF: -9.946e-07   |Residual|: 1.025e-04   |deigs|: 3.673e-04  t[s]:     86.58
	FillingsUpdate:  mu: -0.078409592  nElectrons: 9.000000  magneticMoment: [ Abs: 0.82185  Tot: -0.82000 ]
SCF: Cycle: 18   F: -20.174499959071582   dF: -4.276e-07   |Residual|: 6.807e-05   |deigs|: 2.188e-04  t[s]:     90.82
	FillingsUpdate:  mu: -0.078372142  nElectrons: 9.000000  magneticMoment: [ Abs: 0.82180  Tot: -0.82000 ]
SCF: Cycle: 19   F: -20.174499972667618   dF: -1.360e-08   |Residual|: 5.189e-05   |deigs|: 2.098e-04  t[s]:     95.06
	FillingsUpdate:  mu: -0.078395650  nElectrons: 9.000000  magneticMoment: [ Abs: 0.82186  Tot: -0.82000 ]
SCF: Cycle: 20   F: -20.174500193156721   dF: -2.205e-07   |Residual|: 3.221e-05   |deigs|: 1.738e-04  t[s]:     99.36
	FillingsUpdate:  mu: -0.078383379  nElectrons: 9.000000  magneticMoment: [ Abs: 0.82196  Tot: -0.82000 ]
SCF: Cycle: 21   F: -20.174500322117158   dF: -1.290e-07   |Residual|: 1.996e-05   |deigs|: 2.119e-04  t[s]:    103.70
	FillingsUpdate:  mu: -0.078386246  nElectrons: 9.000000  magneticMoment: [ Abs: 0.82192  Tot: -0.82000 ]
SCF: Cycle: 22   F: -20.174500406055028   dF: -8.394e-08   |Residual|: 1.555e-05   |deigs|: 1.615e-04  t[s]:    108.00
	FillingsUpdate:  mu: -0.078390769  nElectrons: 9.000000  magneticMoment: [ Abs: 0.82194  Tot: -0.82000 ]
SCF: Cycle: 23   F: -20.174500431928553   dF: -2.587e-08   |Residual|: 1.087e-05   |deigs|: 7.390e-05  t[s]:    112.30
	FillingsUpdate:  mu: -0.078393671  nElectrons: 9.000000  magneticMoment: [ Abs: 0.82194  Tot: -0.82000 ]
SCF: Cycle: 24   F: -20.174500441821497   dF: -9.893e-09   |Residual|: 9.983e-06   |deigs|: 4.701e-05  t[s]:    116.64
	FillingsUpdate:  mu: -0.078387110  nElectrons: 9.000000  magneticMoment: [ Abs: 0.82191  Tot: -0.82000 ]
SCF: Cycle: 25   F: -20.174500450313882   dF: -8.492e-09   |Residual|: 7.089e-06   |deigs|: 3.378e-05  t[s]:    120.97
SCF: Converged (|Delta E|<1.000000e-08 for 2 iters).


# Ionic positions in lattice coordinates:
ion Cs   0.000000000000000   0.000000000000000   0.000000000000000 0

# Forces in Lattice coordinates:
force Cs  -0.000000000000000   0.000000000000000   0.000000000000000 0

# Energy components:
   Eewald =      -12.0320174002217755
       EH =        4.0312888605019994
     Eloc =      -17.6029430793470603
      Enl =        3.4326736121424526
   Epulay =       -0.0000000107257212
      Exc =       -3.1121306214109641
       KE =        5.1086284510650355
-------------------------------------
     Etot =      -20.1745001879960313
       TS =        0.0000002623178494
-------------------------------------
        F =      -20.1745004503138823

IonicMinimize: Iter:   0  F: -20.174500450313882  |grad|_K:  0.000e+00  t[s]:    121.24
IonicMinimize: Converged (|grad|_K<1.000000e-04).

#--- Lowdin population analysis ---
# oxidation-state Cs +0.072
# magnetic-moments Cs -0.751

End date and time: Sun Feb  6 13:12:19 2022  (Duration: 0-0:02:01.28)
Done!
