
*************** JDFTx 1.6.0 (git hash 42ebbcc2) ***************

Start date and time: Sun Feb  6 13:17:19 2022
Executable jdftx with command-line: -i Alkali.in
Running on hosts (process indices):  d-4-7-2 (0-18)
Divided in process groups (process indices):  0 (0)  1 (1)  2 (2)  3 (3)  4 (4)  5 (5)  6 (6)  7 (7)  8 (8)  9 (9)  10 (10)  11 (11)  12 (12)  13 (13)  14 (14)  15 (15)  16 (16)  17 (17)  18 (18)
Resource initialization completed at t[s]:      0.00
Run totals: 19 processes, 48 threads, 0 GPUs


Input parsed successfully to the following command list (including defaults):

basis kpoint-dependent
coords-type Lattice
core-overlap-check vector
coulomb-interaction Slab 001
davidson-band-ratio 1.1
dump End None
dump-name $INPUT.$VAR
elec-cutoff 20
elec-eigen-algo Davidson
elec-ex-corr gga-PBE
elec-initial-magnetization -0.240000 yes
elec-smearing Fermi 1e-05
electronic-minimize  \
	dirUpdateScheme      FletcherReeves \
	linminMethod         DirUpdateRecommended \
	nIterations          100 \
	history              15 \
	knormThreshold       0 \
	energyDiffThreshold  1e-08 \
	nEnergyDiff          2 \
	alphaTstart          1 \
	alphaTmin            1e-10 \
	updateTestStepSize   yes \
	alphaTreduceFactor   0.1 \
	alphaTincreaseFactor 3 \
	nAlphaAdjustMax      3 \
	wolfeEnergy          0.0001 \
	wolfeGradient        0.9 \
	fdTest               no
electronic-scf  \
	nIterations	10000 \
	energyDiffThreshold	1e-08 \
	residualThreshold	1e-07 \
	mixFraction	0.5 \
	qMetric	0.8 \
	history	10 \
	nEigSteps	2 \
	eigDiffThreshold	1e-08 \
	mixedVariable	Density \
	qKerker	0.8 \
	qKappa	-1 \
	verbose	no \
	mixFractionMag	1.5
exchange-regularization WignerSeitzTruncated
fluid None
fluid-ex-corr (null) lda-PZ
fluid-gummel-loop 10 1.000000e-05
fluid-minimize  \
	dirUpdateScheme      PolakRibiere \
	linminMethod         DirUpdateRecommended \
	nIterations          100 \
	history              15 \
	knormThreshold       0 \
	energyDiffThreshold  0 \
	nEnergyDiff          2 \
	alphaTstart          1 \
	alphaTmin            1e-10 \
	updateTestStepSize   yes \
	alphaTreduceFactor   0.1 \
	alphaTincreaseFactor 3 \
	nAlphaAdjustMax      3 \
	wolfeEnergy          0.0001 \
	wolfeGradient        0.9 \
	fdTest               no
fluid-solvent H2O 55.338 ScalarEOS \
	epsBulk 78.4 \
	pMol 0.92466 \
	epsInf 1.77 \
	Pvap 1.06736e-10 \
	sigmaBulk 4.62e-05 \
	Rvdw 2.61727 \
	Res 1.42 \
	tauNuc 343133 \
	poleEl 15 7 1
forces-output-coords Positions
ion Cs   0.000000000000000   0.000000000000000   0.000000000000000 0
ion-species SG15/$ID_ONCV_PBE.upf
ion-width 0
ionic-minimize  \
	dirUpdateScheme      L-BFGS \
	linminMethod         DirUpdateRecommended \
	nIterations          0 \
	history              15 \
	knormThreshold       0.0001 \
	energyDiffThreshold  1e-06 \
	nEnergyDiff          2 \
	alphaTstart          1 \
	alphaTmin            1e-10 \
	updateTestStepSize   yes \
	alphaTreduceFactor   0.1 \
	alphaTincreaseFactor 3 \
	nAlphaAdjustMax      3 \
	wolfeEnergy          0.0001 \
	wolfeGradient        0.9 \
	fdTest               no
kpoint   0.000000000000   0.000000000000   0.000000000000  1.00000000000000
kpoint-folding 12 12 1 
latt-move-scale 1 1 1
latt-scale 3 3 1 
lattice  \
	   4.727486978767153   -2.363743489383575    0.000000000000000  \
	  -0.000000000000000    4.094123819672498    0.000000000000000  \
	   0.000000000000000    0.000000000000000   40.000000000000000 
lattice-minimize  \
	dirUpdateScheme      L-BFGS \
	linminMethod         DirUpdateRecommended \
	nIterations          0 \
	history              15 \
	knormThreshold       0 \
	energyDiffThreshold  1e-06 \
	nEnergyDiff          2 \
	alphaTstart          1 \
	alphaTmin            1e-10 \
	updateTestStepSize   yes \
	alphaTreduceFactor   0.1 \
	alphaTincreaseFactor 3 \
	nAlphaAdjustMax      3 \
	wolfeEnergy          0.0001 \
	wolfeGradient        0.9 \
	fdTest               no
lcao-params -1 1e-06 1e-05
pcm-variant GLSSA13
spintype z-spin
subspace-rotation-factor 1 yes
symmetries automatic
symmetry-threshold 0.0001



---------- Setting up symmetries ----------

Found 24 point-group symmetries of the bravais lattice
Found 24 space-group symmetries with basis
Applied RMS atom displacement 0 bohrs to make symmetries exact.

---------- Initializing the Grid ----------
R = 
[      14.1825     -7.09123            0  ]
[            0      12.2824            0  ]
[            0            0           40  ]
unit cell volume = 6967.77
G =
[   0.443025   0.255781         -0  ]
[          0   0.511561         -0  ]
[         -0         -0    0.15708  ]
Minimum fftbox size, Smin = [  60  60  164  ]
Chosen fftbox size, S = [  60  60  168  ]

---------- Exchange Correlation functional ----------
Initalized PBE GGA exchange.
Initalized PBE GGA correlation.

---------- Setting up pseudopotentials ----------
Width of ionic core gaussian charges (only for fluid interactions / plotting) set to 0

Reading pseudopotential file '/home/gridsan/aligho/DFT/build-Nov24/pseudopotentials/SG15/Cs_ONCV_PBE.upf':
  'Cs' pseudopotential, 'PBE' functional
  Generated using ONCVPSP code by D. R. Hamann
  Author: Martin Schlipf and Francois Gygi  Date: 150915.
  9 valence electrons, 3 orbitals, 6 projectors, 2414 radial grid points, with lMax = 2
  Transforming local potential to a uniform radial grid of dG=0.02 with 1489 points.
  Transforming nonlocal projectors to a uniform radial grid of dG=0.02 with 432 points.
    5S    l: 0   occupation:  2.0   eigenvalue: -0.982388
    5P    l: 1   occupation:  6.0   eigenvalue: -0.496786
    6S    l: 0   occupation:  1.0   eigenvalue: -0.076670
  Transforming atomic orbitals to a uniform radial grid of dG=0.02 with 432 points.
  Core radius for overlap checks: 2.06 bohrs.
  Reading pulay file /home/gridsan/aligho/DFT/build-Nov24/pseudopotentials/SG15/Cs_ONCV_PBE.pulay ... using dE_dnG = -1.008762e-04 computed for Ecut = 20.

Initialized 1 species with 1 total atoms.

Folded 1 k-points by 12x12x1 to 144 k-points.

---------- Setting up k-points, bands, fillings ----------
Reduced to 19 k-points under symmetry. 
Computing the number of bands and number of electrons
Calculating initial fillings.
nElectrons:   9.000000   nBands: 6   nStates: 38

----- Setting up reduced wavefunction bases (one per k-point) -----
average nbasis = 29766.104 , ideal nbasis = 29766.845

---------- Setting up coulomb interaction ----------
Initialized slab truncation along lattice direction 001

---------- Setting up 2D ewald sum ----------
Optimum gaussian width for ewald sums = 7.873530 bohr.
Real space sums over 289 unit cells with max indices [  8  8  0  ]
Reciprocal space sums over 81 terms with max indices [  4  4  0  ]

---------- Allocating electronic variables ----------
Initializing wave functions:  linear combination of atomic orbitals
Note: number of bands (6) exceeds available atomic orbitals (5)
Cs pseudo-atom occupations:   s ( 2 1 )  p ( 6 )
	FillingsUpdate:  mu: -0.080411636  nElectrons: 9.000000  magneticMoment: [ Abs: 0.24000  Tot: -0.24000 ]
LCAOMinimize: Iter:   0  F: -20.1751319821932888  |grad|_K:  2.509e-05  alpha:  1.000e+00
	FillingsUpdate:  mu: -0.080406165  nElectrons: 9.000000  magneticMoment: [ Abs: 0.24000  Tot: -0.24000 ]
LCAOMinimize: Iter:   1  F: -20.1751324067474265  |grad|_K:  1.832e-07  alpha:  9.863e-01  linmin: -3.041e-02  cgtest:  5.721e-01  t[s]:      8.84
LCAOMinimize: Encountered beta<0, resetting CG.
	FillingsUpdate:  mu: -0.080406159  nElectrons: 9.000000  magneticMoment: [ Abs: 0.24000  Tot: -0.24000 ]
LCAOMinimize: Iter:   2  F: -20.1751324067708424  |grad|_K:  1.071e-09  alpha:  1.007e+00  linmin:  7.225e-02  cgtest: -9.707e-01  t[s]:     11.20
LCAOMinimize: Converged (|Delta F|<1.000000e-06 for 2 iters).


---- Citations for features of the code used in this run ----

   Software package:
      R. Sundararaman, K. Letchworth-Weaver, K.A. Schwarz, D. Gunceler, Y. Ozhabes and T.A. Arias, 'JDFTx: software for joint density-functional theory', SoftwareX 6, 278 (2017)

   gga-PBE exchange-correlation functional:
      J.P. Perdew, K. Burke and M. Ernzerhof, Phys. Rev. Lett. 77, 3865 (1996)

   Pseudopotentials:
      M Schlipf and F Gygi, Comput. Phys. Commun. 196, 36 (2015)

   Truncated Coulomb potentials:
      R. Sundararaman and T.A. Arias, Phys. Rev. B 87, 165122 (2013)

This list may not be complete. Please suggest additional citations or
report any other bugs at https://github.com/shankar1729/jdftx/issues

Initialization completed successfully at t[s]:     11.36


-------- Electronic minimization -----------
Will mix electronic density at each iteration.
	FillingsUpdate:  mu: -0.080406159  nElectrons: 9.000000  magneticMoment: [ Abs: 0.24000  Tot: -0.24000 ]
	FillingsUpdate:  mu: -0.083458807  nElectrons: 9.000000  magneticMoment: [ Abs: 0.24000  Tot: -0.24000 ]
SCF: Cycle:  0   F: -20.177508060710871   dF: -2.376e-03   |Residual|: 4.504e-03   |deigs|: 1.730e-01  t[s]:     16.20
	FillingsUpdate:  mu: -0.083769929  nElectrons: 9.000000  magneticMoment: [ Abs: 0.24000  Tot: -0.24000 ]
SCF: Cycle:  1   F: -20.177610628347097   dF: -1.026e-04   |Residual|: 4.017e-03   |deigs|: 4.990e-03  t[s]:     19.93
	FillingsUpdate:  mu: -0.084065709  nElectrons: 9.000000  magneticMoment: [ Abs: 0.24278  Tot: -0.24000 ]
SCF: Cycle:  2   F: -20.177678477097405   dF: -6.785e-05   |Residual|: 2.009e-03   |deigs|: 2.537e-03  t[s]:     23.71
	FillingsUpdate:  mu: -0.084040458  nElectrons: 9.000000  magneticMoment: [ Abs: 0.24182  Tot: -0.24000 ]
SCF: Cycle:  3   F: -20.177702424753988   dF: -2.395e-05   |Residual|: 1.397e-03   |deigs|: 1.407e-03  t[s]:     27.58
	FillingsUpdate:  mu: -0.083851706  nElectrons: 9.000000  magneticMoment: [ Abs: 0.24017  Tot: -0.24000 ]
SCF: Cycle:  4   F: -20.177715939007648   dF: -1.351e-05   |Residual|: 8.725e-04   |deigs|: 8.897e-04  t[s]:     31.53
	FillingsUpdate:  mu: -0.083678991  nElectrons: 9.000000  magneticMoment: [ Abs: 0.24016  Tot: -0.24000 ]
SCF: Cycle:  5   F: -20.177722150067247   dF: -6.211e-06   |Residual|: 6.574e-04   |deigs|: 7.722e-04  t[s]:     35.50
	FillingsUpdate:  mu: -0.083222250  nElectrons: 9.000000  magneticMoment: [ Abs: 0.24148  Tot: -0.24000 ]
SCF: Cycle:  6   F: -20.177723829401607   dF: -1.679e-06   |Residual|: 5.370e-04   |deigs|: 1.138e-03  t[s]:     39.52
	FillingsUpdate:  mu: -0.082863578  nElectrons: 9.000000  magneticMoment: [ Abs: 0.24190  Tot: -0.24000 ]
SCF: Cycle:  7   F: -20.177724436999920   dF: -6.076e-07   |Residual|: 4.409e-04   |deigs|: 1.116e-03  t[s]:     43.68
	FillingsUpdate:  mu: -0.082222868  nElectrons: 9.000000  magneticMoment: [ Abs: 0.24227  Tot: -0.24000 ]
SCF: Cycle:  8   F: -20.177723045920338   dF: +1.391e-06   |Residual|: 3.658e-04   |deigs|: 9.937e-04  t[s]:     47.91
	FillingsUpdate:  mu: -0.081796910  nElectrons: 9.000000  magneticMoment: [ Abs: 0.24140  Tot: -0.24000 ]
SCF: Cycle:  9   F: -20.177725159079557   dF: -2.113e-06   |Residual|: 3.187e-04   |deigs|: 5.053e-04  t[s]:     52.11
	FillingsUpdate:  mu: -0.081611803  nElectrons: 9.000000  magneticMoment: [ Abs: 0.24158  Tot: -0.24000 ]
SCF: Cycle: 10   F: -20.177726585120396   dF: -1.426e-06   |Residual|: 2.717e-04   |deigs|: 2.930e-04  t[s]:     56.47
	FillingsUpdate:  mu: -0.081159086  nElectrons: 9.000000  magneticMoment: [ Abs: 0.24201  Tot: -0.24000 ]
SCF: Cycle: 11   F: -20.177726899683083   dF: -3.146e-07   |Residual|: 2.373e-04   |deigs|: 4.706e-04  t[s]:     60.80
	FillingsUpdate:  mu: -0.080554100  nElectrons: 9.000000  magneticMoment: [ Abs: 0.24158  Tot: -0.24000 ]
SCF: Cycle: 12   F: -20.177725568084860   dF: +1.332e-06   |Residual|: 2.389e-04   |deigs|: 6.717e-04  t[s]:     65.10
	FillingsUpdate:  mu: -0.080227415  nElectrons: 9.000000  magneticMoment: [ Abs: 0.24062  Tot: -0.24000 ]
SCF: Cycle: 13   F: -20.177726220461448   dF: -6.524e-07   |Residual|: 2.271e-04   |deigs|: 4.708e-04  t[s]:     69.42
	FillingsUpdate:  mu: -0.080030018  nElectrons: 9.000000  magneticMoment: [ Abs: 0.24108  Tot: -0.24000 ]
SCF: Cycle: 14   F: -20.177728754498276   dF: -2.534e-06   |Residual|: 1.824e-04   |deigs|: 4.644e-04  t[s]:     73.75
	FillingsUpdate:  mu: -0.079683252  nElectrons: 9.000000  magneticMoment: [ Abs: 0.24095  Tot: -0.24000 ]
SCF: Cycle: 15   F: -20.177730869371892   dF: -2.115e-06   |Residual|: 1.348e-04   |deigs|: 3.953e-04  t[s]:     78.17
	FillingsUpdate:  mu: -0.079534000  nElectrons: 9.000000  magneticMoment: [ Abs: 0.24058  Tot: -0.24000 ]
SCF: Cycle: 16   F: -20.177731632829953   dF: -7.635e-07   |Residual|: 1.002e-04   |deigs|: 1.691e-04  t[s]:     82.47
	FillingsUpdate:  mu: -0.079523404  nElectrons: 9.000000  magneticMoment: [ Abs: 0.24034  Tot: -0.24000 ]
SCF: Cycle: 17   F: -20.177731964384122   dF: -3.316e-07   |Residual|: 6.035e-05   |deigs|: 7.223e-05  t[s]:     86.74
	FillingsUpdate:  mu: -0.079514352  nElectrons: 9.000000  magneticMoment: [ Abs: 0.24029  Tot: -0.24000 ]
SCF: Cycle: 18   F: -20.177732127290639   dF: -1.629e-07   |Residual|: 3.208e-05   |deigs|: 5.506e-05  t[s]:     91.02
	FillingsUpdate:  mu: -0.079514621  nElectrons: 9.000000  magneticMoment: [ Abs: 0.24031  Tot: -0.24000 ]
SCF: Cycle: 19   F: -20.177732177880848   dF: -5.059e-08   |Residual|: 2.021e-05   |deigs|: 4.713e-05  t[s]:     95.35
	FillingsUpdate:  mu: -0.079522841  nElectrons: 9.000000  magneticMoment: [ Abs: 0.24029  Tot: -0.24000 ]
SCF: Cycle: 20   F: -20.177732202954708   dF: -2.507e-08   |Residual|: 1.303e-05   |deigs|: 5.004e-05  t[s]:     99.60
	FillingsUpdate:  mu: -0.079525720  nElectrons: 9.000000  magneticMoment: [ Abs: 0.24030  Tot: -0.24000 ]
SCF: Cycle: 21   F: -20.177732215154439   dF: -1.220e-08   |Residual|: 9.112e-06   |deigs|: 6.369e-05  t[s]:    103.87
	FillingsUpdate:  mu: -0.079528985  nElectrons: 9.000000  magneticMoment: [ Abs: 0.24030  Tot: -0.24000 ]
SCF: Cycle: 22   F: -20.177732218624435   dF: -3.470e-09   |Residual|: 5.325e-06   |deigs|: 7.884e-05  t[s]:    108.19
	FillingsUpdate:  mu: -0.079535594  nElectrons: 9.000000  magneticMoment: [ Abs: 0.24030  Tot: -0.24000 ]
SCF: Cycle: 23   F: -20.177732220323186   dF: -1.699e-09   |Residual|: 2.562e-06   |deigs|: 7.233e-05  t[s]:    112.48
SCF: Converged (|Delta E|<1.000000e-08 for 2 iters).


# Ionic positions in lattice coordinates:
ion Cs   0.000000000000000   0.000000000000000   0.000000000000000 0

# Forces in Lattice coordinates:
force Cs   0.000000000000000   0.000000000000000   0.000000000000000 0

# Energy components:
   Eewald =      -12.0320174002217755
       EH =        4.0117580154792343
     Eloc =      -17.5808776583838373
      Enl =        3.4316892698449539
   Epulay =       -0.0000000107257212
      Exc =       -3.1083564054492427
       KE =        5.1000723110604298
-------------------------------------
     Etot =      -20.1777318783959601
       TS =        0.0000003419272243
-------------------------------------
        F =      -20.1777322203231861

IonicMinimize: Iter:   0  F: -20.177732220323186  |grad|_K:  0.000e+00  t[s]:    112.74
IonicMinimize: Converged (|grad|_K<1.000000e-04).

#--- Lowdin population analysis ---
# oxidation-state Cs +0.044
# magnetic-moments Cs -0.216

End date and time: Sun Feb  6 13:19:12 2022  (Duration: 0-0:01:52.78)
Done!
