
*************** JDFTx 1.6.0 (git hash 42ebbcc2) ***************

Start date and time: Sun Feb  6 13:10:12 2022
Executable jdftx with command-line: -i Alkali.in
Running on hosts (process indices):  d-16-6-2 (0-18)
Divided in process groups (process indices):  0 (0)  1 (1)  2 (2)  3 (3)  4 (4)  5 (5)  6 (6)  7 (7)  8 (8)  9 (9)  10 (10)  11 (11)  12 (12)  13 (13)  14 (14)  15 (15)  16 (16)  17 (17)  18 (18)
Resource initialization completed at t[s]:      0.00
Run totals: 19 processes, 48 threads, 0 GPUs


Input parsed successfully to the following command list (including defaults):

basis kpoint-dependent
coords-type Lattice
core-overlap-check vector
coulomb-interaction Slab 001
davidson-band-ratio 1.1
dump End None
dump-name $INPUT.$VAR
elec-cutoff 20
elec-eigen-algo Davidson
elec-ex-corr gga-PBE
elec-initial-magnetization -0.660000 yes
elec-smearing Fermi 1e-05
electronic-minimize  \
	dirUpdateScheme      FletcherReeves \
	linminMethod         DirUpdateRecommended \
	nIterations          100 \
	history              15 \
	knormThreshold       0 \
	energyDiffThreshold  1e-08 \
	nEnergyDiff          2 \
	alphaTstart          1 \
	alphaTmin            1e-10 \
	updateTestStepSize   yes \
	alphaTreduceFactor   0.1 \
	alphaTincreaseFactor 3 \
	nAlphaAdjustMax      3 \
	wolfeEnergy          0.0001 \
	wolfeGradient        0.9 \
	fdTest               no
electronic-scf  \
	nIterations	10000 \
	energyDiffThreshold	1e-08 \
	residualThreshold	1e-07 \
	mixFraction	0.5 \
	qMetric	0.8 \
	history	10 \
	nEigSteps	2 \
	eigDiffThreshold	1e-08 \
	mixedVariable	Density \
	qKerker	0.8 \
	qKappa	-1 \
	verbose	no \
	mixFractionMag	1.5
exchange-regularization WignerSeitzTruncated
fluid None
fluid-ex-corr (null) lda-PZ
fluid-gummel-loop 10 1.000000e-05
fluid-minimize  \
	dirUpdateScheme      PolakRibiere \
	linminMethod         DirUpdateRecommended \
	nIterations          100 \
	history              15 \
	knormThreshold       0 \
	energyDiffThreshold  0 \
	nEnergyDiff          2 \
	alphaTstart          1 \
	alphaTmin            1e-10 \
	updateTestStepSize   yes \
	alphaTreduceFactor   0.1 \
	alphaTincreaseFactor 3 \
	nAlphaAdjustMax      3 \
	wolfeEnergy          0.0001 \
	wolfeGradient        0.9 \
	fdTest               no
fluid-solvent H2O 55.338 ScalarEOS \
	epsBulk 78.4 \
	pMol 0.92466 \
	epsInf 1.77 \
	Pvap 1.06736e-10 \
	sigmaBulk 4.62e-05 \
	Rvdw 2.61727 \
	Res 1.42 \
	tauNuc 343133 \
	poleEl 15 7 1
forces-output-coords Positions
ion Cs   0.000000000000000   0.000000000000000   0.000000000000000 0
ion-species SG15/$ID_ONCV_PBE.upf
ion-width 0
ionic-minimize  \
	dirUpdateScheme      L-BFGS \
	linminMethod         DirUpdateRecommended \
	nIterations          0 \
	history              15 \
	knormThreshold       0.0001 \
	energyDiffThreshold  1e-06 \
	nEnergyDiff          2 \
	alphaTstart          1 \
	alphaTmin            1e-10 \
	updateTestStepSize   yes \
	alphaTreduceFactor   0.1 \
	alphaTincreaseFactor 3 \
	nAlphaAdjustMax      3 \
	wolfeEnergy          0.0001 \
	wolfeGradient        0.9 \
	fdTest               no
kpoint   0.000000000000   0.000000000000   0.000000000000  1.00000000000000
kpoint-folding 12 12 1 
latt-move-scale 1 1 1
latt-scale 3 3 1 
lattice  \
	   4.727486978767153   -2.363743489383575    0.000000000000000  \
	  -0.000000000000000    4.094123819672498    0.000000000000000  \
	   0.000000000000000    0.000000000000000   40.000000000000000 
lattice-minimize  \
	dirUpdateScheme      L-BFGS \
	linminMethod         DirUpdateRecommended \
	nIterations          0 \
	history              15 \
	knormThreshold       0 \
	energyDiffThreshold  1e-06 \
	nEnergyDiff          2 \
	alphaTstart          1 \
	alphaTmin            1e-10 \
	updateTestStepSize   yes \
	alphaTreduceFactor   0.1 \
	alphaTincreaseFactor 3 \
	nAlphaAdjustMax      3 \
	wolfeEnergy          0.0001 \
	wolfeGradient        0.9 \
	fdTest               no
lcao-params -1 1e-06 1e-05
pcm-variant GLSSA13
spintype z-spin
subspace-rotation-factor 1 yes
symmetries automatic
symmetry-threshold 0.0001



---------- Setting up symmetries ----------

Found 24 point-group symmetries of the bravais lattice
Found 24 space-group symmetries with basis
Applied RMS atom displacement 0 bohrs to make symmetries exact.

---------- Initializing the Grid ----------
R = 
[      14.1825     -7.09123            0  ]
[            0      12.2824            0  ]
[            0            0           40  ]
unit cell volume = 6967.77
G =
[   0.443025   0.255781         -0  ]
[          0   0.511561         -0  ]
[         -0         -0    0.15708  ]
Minimum fftbox size, Smin = [  60  60  164  ]
Chosen fftbox size, S = [  60  60  168  ]

---------- Exchange Correlation functional ----------
Initalized PBE GGA exchange.
Initalized PBE GGA correlation.

---------- Setting up pseudopotentials ----------
Width of ionic core gaussian charges (only for fluid interactions / plotting) set to 0

Reading pseudopotential file '/home/gridsan/aligho/DFT/build-Nov24/pseudopotentials/SG15/Cs_ONCV_PBE.upf':
  'Cs' pseudopotential, 'PBE' functional
  Generated using ONCVPSP code by D. R. Hamann
  Author: Martin Schlipf and Francois Gygi  Date: 150915.
  9 valence electrons, 3 orbitals, 6 projectors, 2414 radial grid points, with lMax = 2
  Transforming local potential to a uniform radial grid of dG=0.02 with 1489 points.
  Transforming nonlocal projectors to a uniform radial grid of dG=0.02 with 432 points.
    5S    l: 0   occupation:  2.0   eigenvalue: -0.982388
    5P    l: 1   occupation:  6.0   eigenvalue: -0.496786
    6S    l: 0   occupation:  1.0   eigenvalue: -0.076670
  Transforming atomic orbitals to a uniform radial grid of dG=0.02 with 432 points.
  Core radius for overlap checks: 2.06 bohrs.
  Reading pulay file /home/gridsan/aligho/DFT/build-Nov24/pseudopotentials/SG15/Cs_ONCV_PBE.pulay ... using dE_dnG = -1.008762e-04 computed for Ecut = 20.

Initialized 1 species with 1 total atoms.

Folded 1 k-points by 12x12x1 to 144 k-points.

---------- Setting up k-points, bands, fillings ----------
Reduced to 19 k-points under symmetry. 
Computing the number of bands and number of electrons
Calculating initial fillings.
nElectrons:   9.000000   nBands: 6   nStates: 38

----- Setting up reduced wavefunction bases (one per k-point) -----
average nbasis = 29766.104 , ideal nbasis = 29766.845

---------- Setting up coulomb interaction ----------
Initialized slab truncation along lattice direction 001

---------- Setting up 2D ewald sum ----------
Optimum gaussian width for ewald sums = 7.873530 bohr.
Real space sums over 289 unit cells with max indices [  8  8  0  ]
Reciprocal space sums over 81 terms with max indices [  4  4  0  ]

---------- Allocating electronic variables ----------
Initializing wave functions:  linear combination of atomic orbitals
Note: number of bands (6) exceeds available atomic orbitals (5)
Cs pseudo-atom occupations:   s ( 2 1 )  p ( 6 )
	FillingsUpdate:  mu: -0.081672051  nElectrons: 9.000000  magneticMoment: [ Abs: 0.66000  Tot: -0.66000 ]
LCAOMinimize: Iter:   0  F: -20.1727928587718104  |grad|_K:  1.457e-05  alpha:  1.000e+00
	FillingsUpdate:  mu: -0.081669809  nElectrons: 9.000000  magneticMoment: [ Abs: 0.66000  Tot: -0.66000 ]
LCAOMinimize: Iter:   1  F: -20.1727930027292253  |grad|_K:  9.522e-08  alpha:  9.915e-01  linmin: -1.646e-02  cgtest:  2.858e-01  t[s]:      8.58
LCAOMinimize: Encountered beta<0, resetting CG.
	FillingsUpdate:  mu: -0.081669822  nElectrons: 9.000000  magneticMoment: [ Abs: 0.66000  Tot: -0.66000 ]
LCAOMinimize: Iter:   2  F: -20.1727930027347355  |grad|_K:  1.127e-08  alpha:  8.811e-01  linmin: -1.389e-01  cgtest:  9.994e-01  t[s]:     10.99
LCAOMinimize: Encountered beta<0, resetting CG.
LCAOMinimize: Converged (|Delta F|<1.000000e-06 for 2 iters).


---- Citations for features of the code used in this run ----

   Software package:
      R. Sundararaman, K. Letchworth-Weaver, K.A. Schwarz, D. Gunceler, Y. Ozhabes and T.A. Arias, 'JDFTx: software for joint density-functional theory', SoftwareX 6, 278 (2017)

   gga-PBE exchange-correlation functional:
      J.P. Perdew, K. Burke and M. Ernzerhof, Phys. Rev. Lett. 77, 3865 (1996)

   Pseudopotentials:
      M Schlipf and F Gygi, Comput. Phys. Commun. 196, 36 (2015)

   Truncated Coulomb potentials:
      R. Sundararaman and T.A. Arias, Phys. Rev. B 87, 165122 (2013)

This list may not be complete. Please suggest additional citations or
report any other bugs at https://github.com/shankar1729/jdftx/issues

Initialization completed successfully at t[s]:     11.14


-------- Electronic minimization -----------
Will mix electronic density at each iteration.
	FillingsUpdate:  mu: -0.081669822  nElectrons: 9.000000  magneticMoment: [ Abs: 0.66000  Tot: -0.66000 ]
	FillingsUpdate:  mu: -0.083704807  nElectrons: 9.000000  magneticMoment: [ Abs: 0.66000  Tot: -0.66000 ]
SCF: Cycle:  0   F: -20.175312047877537   dF: -2.519e-03   |Residual|: 5.308e-03   |deigs|: 1.734e-01  t[s]:     15.87
	FillingsUpdate:  mu: -0.084061070  nElectrons: 9.000000  magneticMoment: [ Abs: 0.66007  Tot: -0.66000 ]
SCF: Cycle:  1   F: -20.175501841709018   dF: -1.898e-04   |Residual|: 4.626e-03   |deigs|: 4.854e-03  t[s]:     19.55
	FillingsUpdate:  mu: -0.084369597  nElectrons: 9.000000  magneticMoment: [ Abs: 0.66162  Tot: -0.66000 ]
SCF: Cycle:  2   F: -20.175599879002924   dF: -9.804e-05   |Residual|: 3.454e-03   |deigs|: 2.758e-03  t[s]:     23.34
	FillingsUpdate:  mu: -0.084510384  nElectrons: 9.000000  magneticMoment: [ Abs: 0.66314  Tot: -0.66000 ]
SCF: Cycle:  3   F: -20.175665460975850   dF: -6.558e-05   |Residual|: 2.622e-03   |deigs|: 1.567e-03  t[s]:     27.10
	FillingsUpdate:  mu: -0.084154850  nElectrons: 9.000000  magneticMoment: [ Abs: 0.66052  Tot: -0.66000 ]
SCF: Cycle:  4   F: -20.175691350692219   dF: -2.589e-05   |Residual|: 1.236e-03   |deigs|: 1.489e-03  t[s]:     30.94
	FillingsUpdate:  mu: -0.084075504  nElectrons: 9.000000  magneticMoment: [ Abs: 0.66092  Tot: -0.66000 ]
SCF: Cycle:  5   F: -20.175706283854247   dF: -1.493e-05   |Residual|: 8.365e-04   |deigs|: 7.920e-04  t[s]:     34.84
	FillingsUpdate:  mu: -0.083938140  nElectrons: 9.000000  magneticMoment: [ Abs: 0.66118  Tot: -0.66000 ]
SCF: Cycle:  6   F: -20.175715554417177   dF: -9.271e-06   |Residual|: 6.499e-04   |deigs|: 5.080e-04  t[s]:     38.81
	FillingsUpdate:  mu: -0.083560840  nElectrons: 9.000000  magneticMoment: [ Abs: 0.66148  Tot: -0.66000 ]
SCF: Cycle:  7   F: -20.175717320966939   dF: -1.767e-06   |Residual|: 5.553e-04   |deigs|: 4.543e-04  t[s]:     42.80
	FillingsUpdate:  mu: -0.082745554  nElectrons: 9.000000  magneticMoment: [ Abs: 0.66383  Tot: -0.66000 ]
SCF: Cycle:  8   F: -20.175713393949174   dF: +3.927e-06   |Residual|: 4.214e-04   |deigs|: 8.826e-04  t[s]:     46.85
	FillingsUpdate:  mu: -0.082040685  nElectrons: 9.000000  magneticMoment: [ Abs: 0.66356  Tot: -0.66000 ]
SCF: Cycle:  9   F: -20.175713009084436   dF: +3.849e-07   |Residual|: 4.055e-04   |deigs|: 8.927e-04  t[s]:     51.02
	FillingsUpdate:  mu: -0.081991531  nElectrons: 9.000000  magneticMoment: [ Abs: 0.66190  Tot: -0.66000 ]
SCF: Cycle: 10   F: -20.175719683004626   dF: -6.674e-06   |Residual|: 2.945e-04   |deigs|: 3.537e-04  t[s]:     55.26
	FillingsUpdate:  mu: -0.081612171  nElectrons: 9.000000  magneticMoment: [ Abs: 0.66461  Tot: -0.66000 ]
SCF: Cycle: 11   F: -20.175721586189482   dF: -1.903e-06   |Residual|: 2.633e-04   |deigs|: 5.924e-04  t[s]:     59.45
	FillingsUpdate:  mu: -0.081070835  nElectrons: 9.000000  magneticMoment: [ Abs: 0.66450  Tot: -0.66000 ]
SCF: Cycle: 12   F: -20.175721201907361   dF: +3.843e-07   |Residual|: 2.581e-04   |deigs|: 5.678e-04  t[s]:     63.57
	FillingsUpdate:  mu: -0.080620817  nElectrons: 9.000000  magneticMoment: [ Abs: 0.66298  Tot: -0.66000 ]
SCF: Cycle: 13   F: -20.175720557254088   dF: +6.447e-07   |Residual|: 2.400e-04   |deigs|: 5.417e-04  t[s]:     67.81
	FillingsUpdate:  mu: -0.080511199  nElectrons: 9.000000  magneticMoment: [ Abs: 0.66318  Tot: -0.66000 ]
SCF: Cycle: 14   F: -20.175723279386396   dF: -2.722e-06   |Residual|: 2.151e-04   |deigs|: 4.413e-04  t[s]:     72.00
	FillingsUpdate:  mu: -0.080043207  nElectrons: 9.000000  magneticMoment: [ Abs: 0.66220  Tot: -0.66000 ]
SCF: Cycle: 15   F: -20.175725816012573   dF: -2.537e-06   |Residual|: 1.625e-04   |deigs|: 5.411e-04  t[s]:     76.21
	FillingsUpdate:  mu: -0.079635258  nElectrons: 9.000000  magneticMoment: [ Abs: 0.66154  Tot: -0.66000 ]
SCF: Cycle: 16   F: -20.175726872638052   dF: -1.057e-06   |Residual|: 1.127e-04   |deigs|: 4.407e-04  t[s]:     80.41
	FillingsUpdate:  mu: -0.079599646  nElectrons: 9.000000  magneticMoment: [ Abs: 0.66115  Tot: -0.66000 ]
SCF: Cycle: 17   F: -20.175727262518215   dF: -3.899e-07   |Residual|: 8.603e-05   |deigs|: 1.582e-04  t[s]:     84.57
	FillingsUpdate:  mu: -0.079638776  nElectrons: 9.000000  magneticMoment: [ Abs: 0.66108  Tot: -0.66000 ]
SCF: Cycle: 18   F: -20.175727548422991   dF: -2.859e-07   |Residual|: 6.122e-05   |deigs|: 2.336e-04  t[s]:     88.75
	FillingsUpdate:  mu: -0.079639706  nElectrons: 9.000000  magneticMoment: [ Abs: 0.66111  Tot: -0.66000 ]
SCF: Cycle: 19   F: -20.175727679305410   dF: -1.309e-07   |Residual|: 4.118e-05   |deigs|: 2.656e-04  t[s]:     93.00
	FillingsUpdate:  mu: -0.079647205  nElectrons: 9.000000  magneticMoment: [ Abs: 0.66122  Tot: -0.66000 ]
SCF: Cycle: 20   F: -20.175727754025701   dF: -7.472e-08   |Residual|: 2.270e-05   |deigs|: 2.065e-04  t[s]:     97.23
	FillingsUpdate:  mu: -0.079635658  nElectrons: 9.000000  magneticMoment: [ Abs: 0.66120  Tot: -0.66000 ]
SCF: Cycle: 21   F: -20.175727776980530   dF: -2.295e-08   |Residual|: 1.898e-05   |deigs|: 2.347e-04  t[s]:    101.48
	FillingsUpdate:  mu: -0.079641955  nElectrons: 9.000000  magneticMoment: [ Abs: 0.66122  Tot: -0.66000 ]
SCF: Cycle: 22   F: -20.175727802433627   dF: -2.545e-08   |Residual|: 1.275e-05   |deigs|: 9.081e-05  t[s]:    105.84
	FillingsUpdate:  mu: -0.079650471  nElectrons: 9.000000  magneticMoment: [ Abs: 0.66121  Tot: -0.66000 ]
SCF: Cycle: 23   F: -20.175727805641063   dF: -3.207e-09   |Residual|: 8.320e-06   |deigs|: 3.915e-05  t[s]:    110.00
	FillingsUpdate:  mu: -0.079649712  nElectrons: 9.000000  magneticMoment: [ Abs: 0.66121  Tot: -0.66000 ]
SCF: Cycle: 24   F: -20.175727815950225   dF: -1.031e-08   |Residual|: 7.227e-06   |deigs|: 5.837e-05  t[s]:    114.25
	FillingsUpdate:  mu: -0.079651923  nElectrons: 9.000000  magneticMoment: [ Abs: 0.66123  Tot: -0.66000 ]
SCF: Cycle: 25   F: -20.175727820627692   dF: -4.677e-09   |Residual|: 5.181e-06   |deigs|: 3.091e-05  t[s]:    118.49
	FillingsUpdate:  mu: -0.079650016  nElectrons: 9.000000  magneticMoment: [ Abs: 0.66122  Tot: -0.66000 ]
SCF: Cycle: 26   F: -20.175727821837871   dF: -1.210e-09   |Residual|: 5.508e-06   |deigs|: 1.146e-05  t[s]:    122.67
SCF: Converged (|Delta E|<1.000000e-08 for 2 iters).


# Ionic positions in lattice coordinates:
ion Cs   0.000000000000000   0.000000000000000   0.000000000000000 0

# Forces in Lattice coordinates:
force Cs   0.000000000000000   0.000000000000000   0.000000000000000 0

# Energy components:
   Eewald =      -12.0320174002217755
       EH =        4.0225875180318749
     Eloc =      -17.5929271410502146
      Enl =        3.4321019716169023
   Epulay =       -0.0000000107257212
      Exc =       -3.1106167715545530
       KE =        5.1051448978165688
-------------------------------------
     Etot =      -20.1757269360869209
       TS =        0.0000008857509500
-------------------------------------
        F =      -20.1757278218378708

IonicMinimize: Iter:   0  F: -20.175727821837871  |grad|_K:  0.000e+00  t[s]:    122.92
IonicMinimize: Converged (|grad|_K<1.000000e-04).

#--- Lowdin population analysis ---
# oxidation-state Cs +0.067
# magnetic-moments Cs -0.597

End date and time: Sun Feb  6 13:12:15 2022  (Duration: 0-0:02:02.97)
Done!
