
*************** JDFTx 1.6.0 (git hash 42ebbcc2) ***************

Start date and time: Sun Feb  6 13:10:20 2022
Executable jdftx with command-line: -i Alkali.in
Running on hosts (process indices):  d-4-5-2 (0-18)
Divided in process groups (process indices):  0 (0)  1 (1)  2 (2)  3 (3)  4 (4)  5 (5)  6 (6)  7 (7)  8 (8)  9 (9)  10 (10)  11 (11)  12 (12)  13 (13)  14 (14)  15 (15)  16 (16)  17 (17)  18 (18)
Resource initialization completed at t[s]:      0.00
Run totals: 19 processes, 48 threads, 0 GPUs


Input parsed successfully to the following command list (including defaults):

basis kpoint-dependent
coords-type Lattice
core-overlap-check vector
coulomb-interaction Slab 001
davidson-band-ratio 1.1
dump End None
dump-name $INPUT.$VAR
elec-cutoff 20
elec-eigen-algo Davidson
elec-ex-corr gga-PBE
elec-initial-magnetization -0.860000 yes
elec-smearing Fermi 1e-05
electronic-minimize  \
	dirUpdateScheme      FletcherReeves \
	linminMethod         DirUpdateRecommended \
	nIterations          100 \
	history              15 \
	knormThreshold       0 \
	energyDiffThreshold  1e-08 \
	nEnergyDiff          2 \
	alphaTstart          1 \
	alphaTmin            1e-10 \
	updateTestStepSize   yes \
	alphaTreduceFactor   0.1 \
	alphaTincreaseFactor 3 \
	nAlphaAdjustMax      3 \
	wolfeEnergy          0.0001 \
	wolfeGradient        0.9 \
	fdTest               no
electronic-scf  \
	nIterations	10000 \
	energyDiffThreshold	1e-08 \
	residualThreshold	1e-07 \
	mixFraction	0.5 \
	qMetric	0.8 \
	history	10 \
	nEigSteps	2 \
	eigDiffThreshold	1e-08 \
	mixedVariable	Density \
	qKerker	0.8 \
	qKappa	-1 \
	verbose	no \
	mixFractionMag	1.5
exchange-regularization WignerSeitzTruncated
fluid None
fluid-ex-corr (null) lda-PZ
fluid-gummel-loop 10 1.000000e-05
fluid-minimize  \
	dirUpdateScheme      PolakRibiere \
	linminMethod         DirUpdateRecommended \
	nIterations          100 \
	history              15 \
	knormThreshold       0 \
	energyDiffThreshold  0 \
	nEnergyDiff          2 \
	alphaTstart          1 \
	alphaTmin            1e-10 \
	updateTestStepSize   yes \
	alphaTreduceFactor   0.1 \
	alphaTincreaseFactor 3 \
	nAlphaAdjustMax      3 \
	wolfeEnergy          0.0001 \
	wolfeGradient        0.9 \
	fdTest               no
fluid-solvent H2O 55.338 ScalarEOS \
	epsBulk 78.4 \
	pMol 0.92466 \
	epsInf 1.77 \
	Pvap 1.06736e-10 \
	sigmaBulk 4.62e-05 \
	Rvdw 2.61727 \
	Res 1.42 \
	tauNuc 343133 \
	poleEl 15 7 1
forces-output-coords Positions
ion Cs   0.000000000000000   0.000000000000000   0.000000000000000 0
ion-species SG15/$ID_ONCV_PBE.upf
ion-width 0
ionic-minimize  \
	dirUpdateScheme      L-BFGS \
	linminMethod         DirUpdateRecommended \
	nIterations          0 \
	history              15 \
	knormThreshold       0.0001 \
	energyDiffThreshold  1e-06 \
	nEnergyDiff          2 \
	alphaTstart          1 \
	alphaTmin            1e-10 \
	updateTestStepSize   yes \
	alphaTreduceFactor   0.1 \
	alphaTincreaseFactor 3 \
	nAlphaAdjustMax      3 \
	wolfeEnergy          0.0001 \
	wolfeGradient        0.9 \
	fdTest               no
kpoint   0.000000000000   0.000000000000   0.000000000000  1.00000000000000
kpoint-folding 12 12 1 
latt-move-scale 1 1 1
latt-scale 3 3 1 
lattice  \
	   4.727486978767153   -2.363743489383575    0.000000000000000  \
	  -0.000000000000000    4.094123819672498    0.000000000000000  \
	   0.000000000000000    0.000000000000000   40.000000000000000 
lattice-minimize  \
	dirUpdateScheme      L-BFGS \
	linminMethod         DirUpdateRecommended \
	nIterations          0 \
	history              15 \
	knormThreshold       0 \
	energyDiffThreshold  1e-06 \
	nEnergyDiff          2 \
	alphaTstart          1 \
	alphaTmin            1e-10 \
	updateTestStepSize   yes \
	alphaTreduceFactor   0.1 \
	alphaTincreaseFactor 3 \
	nAlphaAdjustMax      3 \
	wolfeEnergy          0.0001 \
	wolfeGradient        0.9 \
	fdTest               no
lcao-params -1 1e-06 1e-05
pcm-variant GLSSA13
spintype z-spin
subspace-rotation-factor 1 yes
symmetries automatic
symmetry-threshold 0.0001



---------- Setting up symmetries ----------

Found 24 point-group symmetries of the bravais lattice
Found 24 space-group symmetries with basis
Applied RMS atom displacement 0 bohrs to make symmetries exact.

---------- Initializing the Grid ----------
R = 
[      14.1825     -7.09123            0  ]
[            0      12.2824            0  ]
[            0            0           40  ]
unit cell volume = 6967.77
G =
[   0.443025   0.255781         -0  ]
[          0   0.511561         -0  ]
[         -0         -0    0.15708  ]
Minimum fftbox size, Smin = [  60  60  164  ]
Chosen fftbox size, S = [  60  60  168  ]

---------- Exchange Correlation functional ----------
Initalized PBE GGA exchange.
Initalized PBE GGA correlation.

---------- Setting up pseudopotentials ----------
Width of ionic core gaussian charges (only for fluid interactions / plotting) set to 0

Reading pseudopotential file '/home/gridsan/aligho/DFT/build-Nov24/pseudopotentials/SG15/Cs_ONCV_PBE.upf':
  'Cs' pseudopotential, 'PBE' functional
  Generated using ONCVPSP code by D. R. Hamann
  Author: Martin Schlipf and Francois Gygi  Date: 150915.
  9 valence electrons, 3 orbitals, 6 projectors, 2414 radial grid points, with lMax = 2
  Transforming local potential to a uniform radial grid of dG=0.02 with 1489 points.
  Transforming nonlocal projectors to a uniform radial grid of dG=0.02 with 432 points.
    5S    l: 0   occupation:  2.0   eigenvalue: -0.982388
    5P    l: 1   occupation:  6.0   eigenvalue: -0.496786
    6S    l: 0   occupation:  1.0   eigenvalue: -0.076670
  Transforming atomic orbitals to a uniform radial grid of dG=0.02 with 432 points.
  Core radius for overlap checks: 2.06 bohrs.
  Reading pulay file /home/gridsan/aligho/DFT/build-Nov24/pseudopotentials/SG15/Cs_ONCV_PBE.pulay ... using dE_dnG = -1.008762e-04 computed for Ecut = 20.

Initialized 1 species with 1 total atoms.

Folded 1 k-points by 12x12x1 to 144 k-points.

---------- Setting up k-points, bands, fillings ----------
Reduced to 19 k-points under symmetry. 
Computing the number of bands and number of electrons
Calculating initial fillings.
nElectrons:   9.000000   nBands: 6   nStates: 38

----- Setting up reduced wavefunction bases (one per k-point) -----
average nbasis = 29766.104 , ideal nbasis = 29766.845

---------- Setting up coulomb interaction ----------
Initialized slab truncation along lattice direction 001

---------- Setting up 2D ewald sum ----------
Optimum gaussian width for ewald sums = 7.873530 bohr.
Real space sums over 289 unit cells with max indices [  8  8  0  ]
Reciprocal space sums over 81 terms with max indices [  4  4  0  ]

---------- Allocating electronic variables ----------
Initializing wave functions:  linear combination of atomic orbitals
Note: number of bands (6) exceeds available atomic orbitals (5)
Cs pseudo-atom occupations:   s ( 2 1 )  p ( 6 )
	FillingsUpdate:  mu: -0.080778156  nElectrons: 9.000000  magneticMoment: [ Abs: 0.86000  Tot: -0.86000 ]
LCAOMinimize: Iter:   0  F: -20.1711748110735023  |grad|_K:  6.911e-06  alpha:  1.000e+00
	FillingsUpdate:  mu: -0.080777350  nElectrons: 9.000000  magneticMoment: [ Abs: 0.86000  Tot: -0.86000 ]
LCAOMinimize: Iter:   1  F: -20.1711748435998643  |grad|_K:  4.043e-08  alpha:  9.955e-01  linmin: -5.938e-03  cgtest:  1.102e-01  t[s]:      8.78
LCAOMinimize: Encountered beta<0, resetting CG.
	FillingsUpdate:  mu: -0.080777361  nElectrons: 9.000000  magneticMoment: [ Abs: 0.86000  Tot: -0.86000 ]
LCAOMinimize: Iter:   2  F: -20.1711748436013067  |grad|_K:  3.685e-09  alpha:  1.086e+00  linmin:  1.555e-01  cgtest: -9.975e-01  t[s]:     11.17
LCAOMinimize: Converged (|Delta F|<1.000000e-06 for 2 iters).


---- Citations for features of the code used in this run ----

   Software package:
      R. Sundararaman, K. Letchworth-Weaver, K.A. Schwarz, D. Gunceler, Y. Ozhabes and T.A. Arias, 'JDFTx: software for joint density-functional theory', SoftwareX 6, 278 (2017)

   gga-PBE exchange-correlation functional:
      J.P. Perdew, K. Burke and M. Ernzerhof, Phys. Rev. Lett. 77, 3865 (1996)

   Pseudopotentials:
      M Schlipf and F Gygi, Comput. Phys. Commun. 196, 36 (2015)

   Truncated Coulomb potentials:
      R. Sundararaman and T.A. Arias, Phys. Rev. B 87, 165122 (2013)

This list may not be complete. Please suggest additional citations or
report any other bugs at https://github.com/shankar1729/jdftx/issues

Initialization completed successfully at t[s]:     11.33


-------- Electronic minimization -----------
Will mix electronic density at each iteration.
	FillingsUpdate:  mu: -0.080777361  nElectrons: 9.000000  magneticMoment: [ Abs: 0.86000  Tot: -0.86000 ]
	FillingsUpdate:  mu: -0.082300750  nElectrons: 9.000000  magneticMoment: [ Abs: 0.86000  Tot: -0.86000 ]
SCF: Cycle:  0   F: -20.173572421990290   dF: -2.398e-03   |Residual|: 5.127e-03   |deigs|: 1.735e-01  t[s]:     16.03
	FillingsUpdate:  mu: -0.083339929  nElectrons: 9.000000  magneticMoment: [ Abs: 0.86064  Tot: -0.86000 ]
SCF: Cycle:  1   F: -20.173780361678951   dF: -2.079e-04   |Residual|: 4.383e-03   |deigs|: 5.160e-03  t[s]:     19.76
	FillingsUpdate:  mu: -0.083941455  nElectrons: 9.000000  magneticMoment: [ Abs: 0.86272  Tot: -0.86000 ]
SCF: Cycle:  2   F: -20.173890097433240   dF: -1.097e-04   |Residual|: 3.524e-03   |deigs|: 2.804e-03  t[s]:     23.53
	FillingsUpdate:  mu: -0.083893474  nElectrons: 9.000000  magneticMoment: [ Abs: 0.86419  Tot: -0.86000 ]
SCF: Cycle:  3   F: -20.173981855363913   dF: -9.176e-05   |Residual|: 2.761e-03   |deigs|: 1.477e-03  t[s]:     27.28
	FillingsUpdate:  mu: -0.083754656  nElectrons: 9.000000  magneticMoment: [ Abs: 0.86153  Tot: -0.86000 ]
SCF: Cycle:  4   F: -20.174042691358828   dF: -6.084e-05   |Residual|: 1.526e-03   |deigs|: 1.380e-03  t[s]:     31.22
	FillingsUpdate:  mu: -0.082990623  nElectrons: 9.000000  magneticMoment: [ Abs: 0.86198  Tot: -0.86000 ]
SCF: Cycle:  5   F: -20.174067066194318   dF: -2.437e-05   |Residual|: 9.196e-04   |deigs|: 8.058e-04  t[s]:     35.19
	FillingsUpdate:  mu: -0.082736799  nElectrons: 9.000000  magneticMoment: [ Abs: 0.86217  Tot: -0.86000 ]
SCF: Cycle:  6   F: -20.174079308048327   dF: -1.224e-05   |Residual|: 7.665e-04   |deigs|: 6.006e-04  t[s]:     39.19
	FillingsUpdate:  mu: -0.082425767  nElectrons: 9.000000  magneticMoment: [ Abs: 0.86208  Tot: -0.86000 ]
SCF: Cycle:  7   F: -20.174084371183429   dF: -5.063e-06   |Residual|: 5.967e-04   |deigs|: 3.908e-04  t[s]:     43.24
	FillingsUpdate:  mu: -0.081361989  nElectrons: 9.000000  magneticMoment: [ Abs: 0.86399  Tot: -0.86000 ]
SCF: Cycle:  8   F: -20.174082260633291   dF: +2.111e-06   |Residual|: 5.125e-04   |deigs|: 9.810e-04  t[s]:     47.35
	FillingsUpdate:  mu: -0.080710176  nElectrons: 9.000000  magneticMoment: [ Abs: 0.86355  Tot: -0.86000 ]
SCF: Cycle:  9   F: -20.174082353751572   dF: -9.312e-08   |Residual|: 5.146e-04   |deigs|: 8.745e-04  t[s]:     51.53
	FillingsUpdate:  mu: -0.080504173  nElectrons: 9.000000  magneticMoment: [ Abs: 0.86223  Tot: -0.86000 ]
SCF: Cycle: 10   F: -20.174089051071757   dF: -6.697e-06   |Residual|: 3.590e-04   |deigs|: 3.477e-04  t[s]:     55.80
	FillingsUpdate:  mu: -0.080671181  nElectrons: 9.000000  magneticMoment: [ Abs: 0.86405  Tot: -0.86000 ]
SCF: Cycle: 11   F: -20.174095146663237   dF: -6.096e-06   |Residual|: 4.320e-04   |deigs|: 5.635e-04  t[s]:     60.05
	FillingsUpdate:  mu: -0.080132522  nElectrons: 9.000000  magneticMoment: [ Abs: 0.86487  Tot: -0.86000 ]
SCF: Cycle: 12   F: -20.174094740532173   dF: +4.061e-07   |Residual|: 2.618e-04   |deigs|: 4.556e-04  t[s]:     64.24
	FillingsUpdate:  mu: -0.079629640  nElectrons: 9.000000  magneticMoment: [ Abs: 0.86487  Tot: -0.86000 ]
SCF: Cycle: 13   F: -20.174095468747751   dF: -7.282e-07   |Residual|: 2.561e-04   |deigs|: 6.233e-04  t[s]:     68.49
	FillingsUpdate:  mu: -0.079288286  nElectrons: 9.000000  magneticMoment: [ Abs: 0.86441  Tot: -0.86000 ]
SCF: Cycle: 14   F: -20.174095530708676   dF: -6.196e-08   |Residual|: 2.344e-04   |deigs|: 3.864e-04  t[s]:     72.83
	FillingsUpdate:  mu: -0.079060304  nElectrons: 9.000000  magneticMoment: [ Abs: 0.86390  Tot: -0.86000 ]
SCF: Cycle: 15   F: -20.174097416836261   dF: -1.886e-06   |Residual|: 1.981e-04   |deigs|: 4.112e-04  t[s]:     77.08
	FillingsUpdate:  mu: -0.078527823  nElectrons: 9.000000  magneticMoment: [ Abs: 0.86300  Tot: -0.86000 ]
SCF: Cycle: 16   F: -20.174098998454770   dF: -1.582e-06   |Residual|: 1.556e-04   |deigs|: 6.671e-04  t[s]:     81.35
	FillingsUpdate:  mu: -0.078392307  nElectrons: 9.000000  magneticMoment: [ Abs: 0.86226  Tot: -0.86000 ]
SCF: Cycle: 17   F: -20.174099969152085   dF: -9.707e-07   |Residual|: 1.044e-04   |deigs|: 2.274e-04  t[s]:     85.55
	FillingsUpdate:  mu: -0.078374757  nElectrons: 9.000000  magneticMoment: [ Abs: 0.86210  Tot: -0.86000 ]
SCF: Cycle: 18   F: -20.174100445583584   dF: -4.764e-07   |Residual|: 7.393e-05   |deigs|: 2.781e-04  t[s]:     89.89
	FillingsUpdate:  mu: -0.078368859  nElectrons: 9.000000  magneticMoment: [ Abs: 0.86205  Tot: -0.86000 ]
SCF: Cycle: 19   F: -20.174100610753488   dF: -1.652e-07   |Residual|: 5.210e-05   |deigs|: 2.436e-04  t[s]:     94.16
	FillingsUpdate:  mu: -0.078397006  nElectrons: 9.000000  magneticMoment: [ Abs: 0.86218  Tot: -0.86000 ]
SCF: Cycle: 20   F: -20.174100785982723   dF: -1.752e-07   |Residual|: 3.329e-05   |deigs|: 8.243e-05  t[s]:     98.51
	FillingsUpdate:  mu: -0.078406047  nElectrons: 9.000000  magneticMoment: [ Abs: 0.86216  Tot: -0.86000 ]
SCF: Cycle: 21   F: -20.174100849125175   dF: -6.314e-08   |Residual|: 2.173e-05   |deigs|: 8.833e-05  t[s]:    102.76
	FillingsUpdate:  mu: -0.078397041  nElectrons: 9.000000  magneticMoment: [ Abs: 0.86213  Tot: -0.86000 ]
SCF: Cycle: 22   F: -20.174100948455077   dF: -9.933e-08   |Residual|: 1.509e-05   |deigs|: 7.818e-05  t[s]:    107.08
	FillingsUpdate:  mu: -0.078401113  nElectrons: 9.000000  magneticMoment: [ Abs: 0.86216  Tot: -0.86000 ]
SCF: Cycle: 23   F: -20.174100971731811   dF: -2.328e-08   |Residual|: 1.089e-05   |deigs|: 5.017e-05  t[s]:    111.27
	FillingsUpdate:  mu: -0.078400552  nElectrons: 9.000000  magneticMoment: [ Abs: 0.86214  Tot: -0.86000 ]
SCF: Cycle: 24   F: -20.174100991484931   dF: -1.975e-08   |Residual|: 8.582e-06   |deigs|: 3.499e-05  t[s]:    115.53
	FillingsUpdate:  mu: -0.078406222  nElectrons: 9.000000  magneticMoment: [ Abs: 0.86211  Tot: -0.86000 ]
SCF: Cycle: 25   F: -20.174100999204732   dF: -7.720e-09   |Residual|: 7.379e-06   |deigs|: 2.835e-05  t[s]:    119.79
	FillingsUpdate:  mu: -0.078410193  nElectrons: 9.000000  magneticMoment: [ Abs: 0.86205  Tot: -0.86000 ]
SCF: Cycle: 26   F: -20.174101003521997   dF: -4.317e-09   |Residual|: 7.228e-06   |deigs|: 2.188e-05  t[s]:    124.10
SCF: Converged (|Delta E|<1.000000e-08 for 2 iters).


# Ionic positions in lattice coordinates:
ion Cs   0.000000000000000   0.000000000000000   0.000000000000000 0

# Forces in Lattice coordinates:
force Cs  -0.000000000000000   0.000000000000000   0.000000000000000 0

# Energy components:
   Eewald =      -12.0320174002217755
       EH =        4.0334118780238679
     Eloc =      -17.6054808152604529
      Enl =        3.4328580362851335
   Epulay =       -0.0000000107257212
      Exc =       -3.1125424531807004
       KE =        5.1096705767148549
-------------------------------------
     Etot =      -20.1741001883647968
       TS =        0.0000008151572001
-------------------------------------
        F =      -20.1741010035219972

IonicMinimize: Iter:   0  F: -20.174101003521997  |grad|_K:  0.000e+00  t[s]:    124.35
IonicMinimize: Converged (|grad|_K<1.000000e-04).

#--- Lowdin population analysis ---
# oxidation-state Cs +0.074
# magnetic-moments Cs -0.788

End date and time: Sun Feb  6 13:12:25 2022  (Duration: 0-0:02:04.40)
Done!
