
*************** JDFTx 1.6.0 (git hash 42ebbcc2) ***************

Start date and time: Sun Feb  6 13:23:26 2022
Executable jdftx with command-line: -i Alkali.in
Running on hosts (process indices):  d-16-7-1 (0-18)
Divided in process groups (process indices):  0 (0)  1 (1)  2 (2)  3 (3)  4 (4)  5 (5)  6 (6)  7 (7)  8 (8)  9 (9)  10 (10)  11 (11)  12 (12)  13 (13)  14 (14)  15 (15)  16 (16)  17 (17)  18 (18)
Resource initialization completed at t[s]:      0.00
Run totals: 19 processes, 48 threads, 0 GPUs


Input parsed successfully to the following command list (including defaults):

basis kpoint-dependent
coords-type Lattice
core-overlap-check vector
coulomb-interaction Slab 001
davidson-band-ratio 1.1
dump End None
dump-name $INPUT.$VAR
elec-cutoff 20
elec-eigen-algo Davidson
elec-ex-corr gga-PBE
elec-initial-magnetization 0.080000 yes
elec-smearing Fermi 1e-05
electronic-minimize  \
	dirUpdateScheme      FletcherReeves \
	linminMethod         DirUpdateRecommended \
	nIterations          100 \
	history              15 \
	knormThreshold       0 \
	energyDiffThreshold  1e-08 \
	nEnergyDiff          2 \
	alphaTstart          1 \
	alphaTmin            1e-10 \
	updateTestStepSize   yes \
	alphaTreduceFactor   0.1 \
	alphaTincreaseFactor 3 \
	nAlphaAdjustMax      3 \
	wolfeEnergy          0.0001 \
	wolfeGradient        0.9 \
	fdTest               no
electronic-scf  \
	nIterations	10000 \
	energyDiffThreshold	1e-08 \
	residualThreshold	1e-07 \
	mixFraction	0.5 \
	qMetric	0.8 \
	history	10 \
	nEigSteps	2 \
	eigDiffThreshold	1e-08 \
	mixedVariable	Density \
	qKerker	0.8 \
	qKappa	-1 \
	verbose	no \
	mixFractionMag	1.5
exchange-regularization WignerSeitzTruncated
fluid None
fluid-ex-corr (null) lda-PZ
fluid-gummel-loop 10 1.000000e-05
fluid-minimize  \
	dirUpdateScheme      PolakRibiere \
	linminMethod         DirUpdateRecommended \
	nIterations          100 \
	history              15 \
	knormThreshold       0 \
	energyDiffThreshold  0 \
	nEnergyDiff          2 \
	alphaTstart          1 \
	alphaTmin            1e-10 \
	updateTestStepSize   yes \
	alphaTreduceFactor   0.1 \
	alphaTincreaseFactor 3 \
	nAlphaAdjustMax      3 \
	wolfeEnergy          0.0001 \
	wolfeGradient        0.9 \
	fdTest               no
fluid-solvent H2O 55.338 ScalarEOS \
	epsBulk 78.4 \
	pMol 0.92466 \
	epsInf 1.77 \
	Pvap 1.06736e-10 \
	sigmaBulk 4.62e-05 \
	Rvdw 2.61727 \
	Res 1.42 \
	tauNuc 343133 \
	poleEl 15 7 1
forces-output-coords Positions
ion Cs   0.000000000000000   0.000000000000000   0.000000000000000 0
ion-species SG15/$ID_ONCV_PBE.upf
ion-width 0
ionic-minimize  \
	dirUpdateScheme      L-BFGS \
	linminMethod         DirUpdateRecommended \
	nIterations          0 \
	history              15 \
	knormThreshold       0.0001 \
	energyDiffThreshold  1e-06 \
	nEnergyDiff          2 \
	alphaTstart          1 \
	alphaTmin            1e-10 \
	updateTestStepSize   yes \
	alphaTreduceFactor   0.1 \
	alphaTincreaseFactor 3 \
	nAlphaAdjustMax      3 \
	wolfeEnergy          0.0001 \
	wolfeGradient        0.9 \
	fdTest               no
kpoint   0.000000000000   0.000000000000   0.000000000000  1.00000000000000
kpoint-folding 12 12 1 
latt-move-scale 1 1 1
latt-scale 3 3 1 
lattice  \
	   4.727486978767153   -2.363743489383575    0.000000000000000  \
	  -0.000000000000000    4.094123819672498    0.000000000000000  \
	   0.000000000000000    0.000000000000000   40.000000000000000 
lattice-minimize  \
	dirUpdateScheme      L-BFGS \
	linminMethod         DirUpdateRecommended \
	nIterations          0 \
	history              15 \
	knormThreshold       0 \
	energyDiffThreshold  1e-06 \
	nEnergyDiff          2 \
	alphaTstart          1 \
	alphaTmin            1e-10 \
	updateTestStepSize   yes \
	alphaTreduceFactor   0.1 \
	alphaTincreaseFactor 3 \
	nAlphaAdjustMax      3 \
	wolfeEnergy          0.0001 \
	wolfeGradient        0.9 \
	fdTest               no
lcao-params -1 1e-06 1e-05
pcm-variant GLSSA13
spintype z-spin
subspace-rotation-factor 1 yes
symmetries automatic
symmetry-threshold 0.0001



---------- Setting up symmetries ----------

Found 24 point-group symmetries of the bravais lattice
Found 24 space-group symmetries with basis
Applied RMS atom displacement 0 bohrs to make symmetries exact.

---------- Initializing the Grid ----------
R = 
[      14.1825     -7.09123            0  ]
[            0      12.2824            0  ]
[            0            0           40  ]
unit cell volume = 6967.77
G =
[   0.443025   0.255781         -0  ]
[          0   0.511561         -0  ]
[         -0         -0    0.15708  ]
Minimum fftbox size, Smin = [  60  60  164  ]
Chosen fftbox size, S = [  60  60  168  ]

---------- Exchange Correlation functional ----------
Initalized PBE GGA exchange.
Initalized PBE GGA correlation.

---------- Setting up pseudopotentials ----------
Width of ionic core gaussian charges (only for fluid interactions / plotting) set to 0

Reading pseudopotential file '/home/gridsan/aligho/DFT/build-Nov24/pseudopotentials/SG15/Cs_ONCV_PBE.upf':
  'Cs' pseudopotential, 'PBE' functional
  Generated using ONCVPSP code by D. R. Hamann
  Author: Martin Schlipf and Francois Gygi  Date: 150915.
  9 valence electrons, 3 orbitals, 6 projectors, 2414 radial grid points, with lMax = 2
  Transforming local potential to a uniform radial grid of dG=0.02 with 1489 points.
  Transforming nonlocal projectors to a uniform radial grid of dG=0.02 with 432 points.
    5S    l: 0   occupation:  2.0   eigenvalue: -0.982388
    5P    l: 1   occupation:  6.0   eigenvalue: -0.496786
    6S    l: 0   occupation:  1.0   eigenvalue: -0.076670
  Transforming atomic orbitals to a uniform radial grid of dG=0.02 with 432 points.
  Core radius for overlap checks: 2.06 bohrs.
  Reading pulay file /home/gridsan/aligho/DFT/build-Nov24/pseudopotentials/SG15/Cs_ONCV_PBE.pulay ... using dE_dnG = -1.008762e-04 computed for Ecut = 20.

Initialized 1 species with 1 total atoms.

Folded 1 k-points by 12x12x1 to 144 k-points.

---------- Setting up k-points, bands, fillings ----------
Reduced to 19 k-points under symmetry. 
Computing the number of bands and number of electrons
Calculating initial fillings.
nElectrons:   9.000000   nBands: 6   nStates: 38

----- Setting up reduced wavefunction bases (one per k-point) -----
average nbasis = 29766.104 , ideal nbasis = 29766.845

---------- Setting up coulomb interaction ----------
Initialized slab truncation along lattice direction 001

---------- Setting up 2D ewald sum ----------
Optimum gaussian width for ewald sums = 7.873530 bohr.
Real space sums over 289 unit cells with max indices [  8  8  0  ]
Reciprocal space sums over 81 terms with max indices [  4  4  0  ]

---------- Allocating electronic variables ----------
Initializing wave functions:  linear combination of atomic orbitals
Note: number of bands (6) exceeds available atomic orbitals (5)
Cs pseudo-atom occupations:   s ( 2 1 )  p ( 6 )
	FillingsUpdate:  mu: -0.078527808  nElectrons: 9.000000  magneticMoment: [ Abs: 0.08000  Tot: +0.08000 ]
LCAOMinimize: Iter:   0  F: -20.1753441219831160  |grad|_K:  2.557e-05  alpha:  1.000e+00
	FillingsUpdate:  mu: -0.078521898  nElectrons: 9.000000  magneticMoment: [ Abs: 0.08000  Tot: +0.08000 ]
LCAOMinimize: Iter:   1  F: -20.1753445624966616  |grad|_K:  1.810e-07  alpha:  9.849e-01  linmin: -3.479e-02  cgtest:  6.563e-01  t[s]:      8.84
LCAOMinimize: Encountered beta<0, resetting CG.
	FillingsUpdate:  mu: -0.078521885  nElectrons: 9.000000  magneticMoment: [ Abs: 0.08000  Tot: +0.08000 ]
LCAOMinimize: Iter:   2  F: -20.1753445625187418  |grad|_K:  4.827e-09  alpha:  9.734e-01  linmin: -5.488e-02  cgtest:  9.919e-01  t[s]:     11.25
LCAOMinimize: Encountered beta<0, resetting CG.
LCAOMinimize: Converged (|Delta F|<1.000000e-06 for 2 iters).


---- Citations for features of the code used in this run ----

   Software package:
      R. Sundararaman, K. Letchworth-Weaver, K.A. Schwarz, D. Gunceler, Y. Ozhabes and T.A. Arias, 'JDFTx: software for joint density-functional theory', SoftwareX 6, 278 (2017)

   gga-PBE exchange-correlation functional:
      J.P. Perdew, K. Burke and M. Ernzerhof, Phys. Rev. Lett. 77, 3865 (1996)

   Pseudopotentials:
      M Schlipf and F Gygi, Comput. Phys. Commun. 196, 36 (2015)

   Truncated Coulomb potentials:
      R. Sundararaman and T.A. Arias, Phys. Rev. B 87, 165122 (2013)

This list may not be complete. Please suggest additional citations or
report any other bugs at https://github.com/shankar1729/jdftx/issues

Initialization completed successfully at t[s]:     11.42


-------- Electronic minimization -----------
Will mix electronic density at each iteration.
	FillingsUpdate:  mu: -0.078521885  nElectrons: 9.000000  magneticMoment: [ Abs: 0.08000  Tot: +0.08000 ]
	FillingsUpdate:  mu: -0.082240461  nElectrons: 9.000000  magneticMoment: [ Abs: 0.08000  Tot: +0.08000 ]
SCF: Cycle:  0   F: -20.177717796811372   dF: -2.373e-03   |Residual|: 4.332e-03   |deigs|: 1.730e-01  t[s]:     16.23
	FillingsUpdate:  mu: -0.082531916  nElectrons: 9.000000  magneticMoment: [ Abs: 0.08000  Tot: +0.08000 ]
SCF: Cycle:  1   F: -20.177793019136264   dF: -7.522e-05   |Residual|: 3.877e-03   |deigs|: 4.765e-03  t[s]:     20.01
	FillingsUpdate:  mu: -0.083054476  nElectrons: 9.000000  magneticMoment: [ Abs: 0.08315  Tot: +0.08000 ]
SCF: Cycle:  2   F: -20.177858447407242   dF: -6.543e-05   |Residual|: 1.624e-03   |deigs|: 3.367e-03  t[s]:     23.85
	FillingsUpdate:  mu: -0.082901204  nElectrons: 9.000000  magneticMoment: [ Abs: 0.08056  Tot: +0.08000 ]
SCF: Cycle:  3   F: -20.177880979711659   dF: -2.253e-05   |Residual|: 1.140e-03   |deigs|: 1.565e-03  t[s]:     27.74
	FillingsUpdate:  mu: -0.082662929  nElectrons: 9.000000  magneticMoment: [ Abs: 0.08010  Tot: +0.08000 ]
SCF: Cycle:  4   F: -20.177888930471081   dF: -7.951e-06   |Residual|: 7.212e-04   |deigs|: 6.391e-04  t[s]:     31.73
	FillingsUpdate:  mu: -0.082379592  nElectrons: 9.000000  magneticMoment: [ Abs: 0.08021  Tot: +0.08000 ]
SCF: Cycle:  5   F: -20.177893349770283   dF: -4.419e-06   |Residual|: 6.236e-04   |deigs|: 7.109e-04  t[s]:     35.72
	FillingsUpdate:  mu: -0.081703286  nElectrons: 9.000000  magneticMoment: [ Abs: 0.08165  Tot: +0.08000 ]
SCF: Cycle:  6   F: -20.177894167059591   dF: -8.173e-07   |Residual|: 4.963e-04   |deigs|: 9.971e-04  t[s]:     39.86
	FillingsUpdate:  mu: -0.081348640  nElectrons: 9.000000  magneticMoment: [ Abs: 0.08134  Tot: +0.08000 ]
SCF: Cycle:  7   F: -20.177893511080477   dF: +6.560e-07   |Residual|: 4.264e-04   |deigs|: 7.821e-04  t[s]:     44.03
	FillingsUpdate:  mu: -0.080840281  nElectrons: 9.000000  magneticMoment: [ Abs: 0.08071  Tot: +0.08000 ]
SCF: Cycle:  8   F: -20.177895544986555   dF: -2.034e-06   |Residual|: 3.441e-04   |deigs|: 1.031e-03  t[s]:     48.27
	FillingsUpdate:  mu: -0.080634485  nElectrons: 9.000000  magneticMoment: [ Abs: 0.08049  Tot: +0.08000 ]
SCF: Cycle:  9   F: -20.177896689711570   dF: -1.145e-06   |Residual|: 3.029e-04   |deigs|: 3.613e-04  t[s]:     52.61
	FillingsUpdate:  mu: -0.080165165  nElectrons: 9.000000  magneticMoment: [ Abs: 0.08112  Tot: +0.08000 ]
SCF: Cycle: 10   F: -20.177897050317188   dF: -3.606e-07   |Residual|: 2.523e-04   |deigs|: 6.128e-04  t[s]:     56.94
	FillingsUpdate:  mu: -0.079636372  nElectrons: 9.000000  magneticMoment: [ Abs: 0.08100  Tot: +0.08000 ]
SCF: Cycle: 11   F: -20.177895254779759   dF: +1.796e-06   |Residual|: 2.398e-04   |deigs|: 5.774e-04  t[s]:     61.28
	FillingsUpdate:  mu: -0.079283519  nElectrons: 9.000000  magneticMoment: [ Abs: 0.08053  Tot: +0.08000 ]
SCF: Cycle: 12   F: -20.177895185901924   dF: +6.888e-08   |Residual|: 2.361e-04   |deigs|: 7.852e-04  t[s]:     65.58
	FillingsUpdate:  mu: -0.078956516  nElectrons: 9.000000  magneticMoment: [ Abs: 0.08043  Tot: +0.08000 ]
SCF: Cycle: 13   F: -20.177897100235477   dF: -1.914e-06   |Residual|: 2.132e-04   |deigs|: 8.621e-04  t[s]:     69.93
	FillingsUpdate:  mu: -0.078687869  nElectrons: 9.000000  magneticMoment: [ Abs: 0.08088  Tot: +0.08000 ]
SCF: Cycle: 14   F: -20.177900370683432   dF: -3.270e-06   |Residual|: 1.561e-04   |deigs|: 4.819e-04  t[s]:     74.22
	FillingsUpdate:  mu: -0.078472365  nElectrons: 9.000000  magneticMoment: [ Abs: 0.08050  Tot: +0.08000 ]
SCF: Cycle: 15   F: -20.177901327704653   dF: -9.570e-07   |Residual|: 1.198e-04   |deigs|: 2.336e-04  t[s]:     78.48
	FillingsUpdate:  mu: -0.078356469  nElectrons: 9.000000  magneticMoment: [ Abs: 0.08018  Tot: +0.08000 ]
SCF: Cycle: 16   F: -20.177901917319936   dF: -5.896e-07   |Residual|: 6.641e-05   |deigs|: 1.648e-04  t[s]:     82.76
	FillingsUpdate:  mu: -0.078363518  nElectrons: 9.000000  magneticMoment: [ Abs: 0.08013  Tot: +0.08000 ]
SCF: Cycle: 17   F: -20.177902083998610   dF: -1.667e-07   |Residual|: 4.416e-05   |deigs|: 1.317e-04  t[s]:     87.04
	FillingsUpdate:  mu: -0.078380595  nElectrons: 9.000000  magneticMoment: [ Abs: 0.08008  Tot: +0.08000 ]
SCF: Cycle: 18   F: -20.177902164336789   dF: -8.034e-08   |Residual|: 2.648e-05   |deigs|: 1.674e-04  t[s]:     91.50
	FillingsUpdate:  mu: -0.078385561  nElectrons: 9.000000  magneticMoment: [ Abs: 0.08011  Tot: +0.08000 ]
SCF: Cycle: 19   F: -20.177902211081395   dF: -4.674e-08   |Residual|: 1.325e-05   |deigs|: 1.077e-04  t[s]:     95.86
	FillingsUpdate:  mu: -0.078386229  nElectrons: 9.000000  magneticMoment: [ Abs: 0.08010  Tot: +0.08000 ]
SCF: Cycle: 20   F: -20.177902223470831   dF: -1.239e-08   |Residual|: 9.140e-06   |deigs|: 1.118e-04  t[s]:    100.22
	FillingsUpdate:  mu: -0.078391038  nElectrons: 9.000000  magneticMoment: [ Abs: 0.08010  Tot: +0.08000 ]
SCF: Cycle: 21   F: -20.177902228591030   dF: -5.120e-09   |Residual|: 7.459e-06   |deigs|: 8.200e-05  t[s]:    104.53
	FillingsUpdate:  mu: -0.078400959  nElectrons: 9.000000  magneticMoment: [ Abs: 0.08009  Tot: +0.08000 ]
SCF: Cycle: 22   F: -20.177902231659822   dF: -3.069e-09   |Residual|: 4.094e-06   |deigs|: 6.364e-05  t[s]:    108.94
SCF: Converged (|Delta E|<1.000000e-08 for 2 iters).


# Ionic positions in lattice coordinates:
ion Cs   0.000000000000000   0.000000000000000   0.000000000000000 0

# Forces in Lattice coordinates:
force Cs   0.000000000000000  -0.000000000000000   0.000000000000000 0

# Energy components:
   Eewald =      -12.0320174002217755
       EH =        4.0102684740939090
     Eloc =      -17.5792884711467998
      Enl =        3.4316642121488083
   Epulay =       -0.0000000107257212
      Exc =       -3.1080522635715289
       KE =        5.0995243583802150
-------------------------------------
     Etot =      -20.1779011010428917
       TS =        0.0000011306169286
-------------------------------------
        F =      -20.1779022316598216

IonicMinimize: Iter:   0  F: -20.177902231659822  |grad|_K:  0.000e+00  t[s]:    109.21
IonicMinimize: Converged (|grad|_K<1.000000e-04).

#--- Lowdin population analysis ---
# oxidation-state Cs +0.041
# magnetic-moments Cs +0.072

End date and time: Sun Feb  6 13:25:15 2022  (Duration: 0-0:01:49.25)
Done!
