
*************** JDFTx 1.6.0 (git hash 42ebbcc2) ***************

Start date and time: Sun Feb  6 13:23:24 2022
Executable jdftx with command-line: -i Alkali.in
Running on hosts (process indices):  d-4-9-2 (0-18)
Divided in process groups (process indices):  0 (0)  1 (1)  2 (2)  3 (3)  4 (4)  5 (5)  6 (6)  7 (7)  8 (8)  9 (9)  10 (10)  11 (11)  12 (12)  13 (13)  14 (14)  15 (15)  16 (16)  17 (17)  18 (18)
Resource initialization completed at t[s]:      0.00
Run totals: 19 processes, 48 threads, 0 GPUs


Input parsed successfully to the following command list (including defaults):

basis kpoint-dependent
coords-type Lattice
core-overlap-check vector
coulomb-interaction Slab 001
davidson-band-ratio 1.1
dump End None
dump-name $INPUT.$VAR
elec-cutoff 20
elec-eigen-algo Davidson
elec-ex-corr gga-PBE
elec-initial-magnetization 0.040000 yes
elec-smearing Fermi 1e-05
electronic-minimize  \
	dirUpdateScheme      FletcherReeves \
	linminMethod         DirUpdateRecommended \
	nIterations          100 \
	history              15 \
	knormThreshold       0 \
	energyDiffThreshold  1e-08 \
	nEnergyDiff          2 \
	alphaTstart          1 \
	alphaTmin            1e-10 \
	updateTestStepSize   yes \
	alphaTreduceFactor   0.1 \
	alphaTincreaseFactor 3 \
	nAlphaAdjustMax      3 \
	wolfeEnergy          0.0001 \
	wolfeGradient        0.9 \
	fdTest               no
electronic-scf  \
	nIterations	10000 \
	energyDiffThreshold	1e-08 \
	residualThreshold	1e-07 \
	mixFraction	0.5 \
	qMetric	0.8 \
	history	10 \
	nEigSteps	2 \
	eigDiffThreshold	1e-08 \
	mixedVariable	Density \
	qKerker	0.8 \
	qKappa	-1 \
	verbose	no \
	mixFractionMag	1.5
exchange-regularization WignerSeitzTruncated
fluid None
fluid-ex-corr (null) lda-PZ
fluid-gummel-loop 10 1.000000e-05
fluid-minimize  \
	dirUpdateScheme      PolakRibiere \
	linminMethod         DirUpdateRecommended \
	nIterations          100 \
	history              15 \
	knormThreshold       0 \
	energyDiffThreshold  0 \
	nEnergyDiff          2 \
	alphaTstart          1 \
	alphaTmin            1e-10 \
	updateTestStepSize   yes \
	alphaTreduceFactor   0.1 \
	alphaTincreaseFactor 3 \
	nAlphaAdjustMax      3 \
	wolfeEnergy          0.0001 \
	wolfeGradient        0.9 \
	fdTest               no
fluid-solvent H2O 55.338 ScalarEOS \
	epsBulk 78.4 \
	pMol 0.92466 \
	epsInf 1.77 \
	Pvap 1.06736e-10 \
	sigmaBulk 4.62e-05 \
	Rvdw 2.61727 \
	Res 1.42 \
	tauNuc 343133 \
	poleEl 15 7 1
forces-output-coords Positions
ion Cs   0.000000000000000   0.000000000000000   0.000000000000000 0
ion-species SG15/$ID_ONCV_PBE.upf
ion-width 0
ionic-minimize  \
	dirUpdateScheme      L-BFGS \
	linminMethod         DirUpdateRecommended \
	nIterations          0 \
	history              15 \
	knormThreshold       0.0001 \
	energyDiffThreshold  1e-06 \
	nEnergyDiff          2 \
	alphaTstart          1 \
	alphaTmin            1e-10 \
	updateTestStepSize   yes \
	alphaTreduceFactor   0.1 \
	alphaTincreaseFactor 3 \
	nAlphaAdjustMax      3 \
	wolfeEnergy          0.0001 \
	wolfeGradient        0.9 \
	fdTest               no
kpoint   0.000000000000   0.000000000000   0.000000000000  1.00000000000000
kpoint-folding 12 12 1 
latt-move-scale 1 1 1
latt-scale 3 3 1 
lattice  \
	   4.727486978767153   -2.363743489383575    0.000000000000000  \
	  -0.000000000000000    4.094123819672498    0.000000000000000  \
	   0.000000000000000    0.000000000000000   40.000000000000000 
lattice-minimize  \
	dirUpdateScheme      L-BFGS \
	linminMethod         DirUpdateRecommended \
	nIterations          0 \
	history              15 \
	knormThreshold       0 \
	energyDiffThreshold  1e-06 \
	nEnergyDiff          2 \
	alphaTstart          1 \
	alphaTmin            1e-10 \
	updateTestStepSize   yes \
	alphaTreduceFactor   0.1 \
	alphaTincreaseFactor 3 \
	nAlphaAdjustMax      3 \
	wolfeEnergy          0.0001 \
	wolfeGradient        0.9 \
	fdTest               no
lcao-params -1 1e-06 1e-05
pcm-variant GLSSA13
spintype z-spin
subspace-rotation-factor 1 yes
symmetries automatic
symmetry-threshold 0.0001



---------- Setting up symmetries ----------

Found 24 point-group symmetries of the bravais lattice
Found 24 space-group symmetries with basis
Applied RMS atom displacement 0 bohrs to make symmetries exact.

---------- Initializing the Grid ----------
R = 
[      14.1825     -7.09123            0  ]
[            0      12.2824            0  ]
[            0            0           40  ]
unit cell volume = 6967.77
G =
[   0.443025   0.255781         -0  ]
[          0   0.511561         -0  ]
[         -0         -0    0.15708  ]
Minimum fftbox size, Smin = [  60  60  164  ]
Chosen fftbox size, S = [  60  60  168  ]

---------- Exchange Correlation functional ----------
Initalized PBE GGA exchange.
Initalized PBE GGA correlation.

---------- Setting up pseudopotentials ----------
Width of ionic core gaussian charges (only for fluid interactions / plotting) set to 0

Reading pseudopotential file '/home/gridsan/aligho/DFT/build-Nov24/pseudopotentials/SG15/Cs_ONCV_PBE.upf':
  'Cs' pseudopotential, 'PBE' functional
  Generated using ONCVPSP code by D. R. Hamann
  Author: Martin Schlipf and Francois Gygi  Date: 150915.
  9 valence electrons, 3 orbitals, 6 projectors, 2414 radial grid points, with lMax = 2
  Transforming local potential to a uniform radial grid of dG=0.02 with 1489 points.
  Transforming nonlocal projectors to a uniform radial grid of dG=0.02 with 432 points.
    5S    l: 0   occupation:  2.0   eigenvalue: -0.982388
    5P    l: 1   occupation:  6.0   eigenvalue: -0.496786
    6S    l: 0   occupation:  1.0   eigenvalue: -0.076670
  Transforming atomic orbitals to a uniform radial grid of dG=0.02 with 432 points.
  Core radius for overlap checks: 2.06 bohrs.
  Reading pulay file /home/gridsan/aligho/DFT/build-Nov24/pseudopotentials/SG15/Cs_ONCV_PBE.pulay ... using dE_dnG = -1.008762e-04 computed for Ecut = 20.

Initialized 1 species with 1 total atoms.

Folded 1 k-points by 12x12x1 to 144 k-points.

---------- Setting up k-points, bands, fillings ----------
Reduced to 19 k-points under symmetry. 
Computing the number of bands and number of electrons
Calculating initial fillings.
nElectrons:   9.000000   nBands: 6   nStates: 38

----- Setting up reduced wavefunction bases (one per k-point) -----
average nbasis = 29766.104 , ideal nbasis = 29766.845

---------- Setting up coulomb interaction ----------
Initialized slab truncation along lattice direction 001

---------- Setting up 2D ewald sum ----------
Optimum gaussian width for ewald sums = 7.873530 bohr.
Real space sums over 289 unit cells with max indices [  8  8  0  ]
Reciprocal space sums over 81 terms with max indices [  4  4  0  ]

---------- Allocating electronic variables ----------
Initializing wave functions:  linear combination of atomic orbitals
Note: number of bands (6) exceeds available atomic orbitals (5)
Cs pseudo-atom occupations:   s ( 2 1 )  p ( 6 )
	FillingsUpdate:  mu: -0.078531513  nElectrons: 9.000000  magneticMoment: [ Abs: 0.04000  Tot: +0.04000 ]
LCAOMinimize: Iter:   0  F: -20.1753614730657915  |grad|_K:  2.567e-05  alpha:  1.000e+00
	FillingsUpdate:  mu: -0.078525638  nElectrons: 9.000000  magneticMoment: [ Abs: 0.04000  Tot: +0.04000 ]
LCAOMinimize: Iter:   1  F: -20.1753619170524665  |grad|_K:  1.824e-07  alpha:  9.849e-01  linmin: -3.473e-02  cgtest:  6.572e-01  t[s]:      8.76
LCAOMinimize: Encountered beta<0, resetting CG.
	FillingsUpdate:  mu: -0.078525625  nElectrons: 9.000000  magneticMoment: [ Abs: 0.04000  Tot: +0.04000 ]
LCAOMinimize: Iter:   2  F: -20.1753619170749374  |grad|_K:  1.391e-09  alpha:  9.931e-01  linmin: -4.892e-02  cgtest:  8.881e-01  t[s]:     11.12
LCAOMinimize: Encountered beta<0, resetting CG.
LCAOMinimize: Converged (|Delta F|<1.000000e-06 for 2 iters).


---- Citations for features of the code used in this run ----

   Software package:
      R. Sundararaman, K. Letchworth-Weaver, K.A. Schwarz, D. Gunceler, Y. Ozhabes and T.A. Arias, 'JDFTx: software for joint density-functional theory', SoftwareX 6, 278 (2017)

   gga-PBE exchange-correlation functional:
      J.P. Perdew, K. Burke and M. Ernzerhof, Phys. Rev. Lett. 77, 3865 (1996)

   Pseudopotentials:
      M Schlipf and F Gygi, Comput. Phys. Commun. 196, 36 (2015)

   Truncated Coulomb potentials:
      R. Sundararaman and T.A. Arias, Phys. Rev. B 87, 165122 (2013)

This list may not be complete. Please suggest additional citations or
report any other bugs at https://github.com/shankar1729/jdftx/issues

Initialization completed successfully at t[s]:     11.28


-------- Electronic minimization -----------
Will mix electronic density at each iteration.
	FillingsUpdate:  mu: -0.078525625  nElectrons: 9.000000  magneticMoment: [ Abs: 0.04000  Tot: +0.04000 ]
	FillingsUpdate:  mu: -0.082247707  nElectrons: 9.000000  magneticMoment: [ Abs: 0.04000  Tot: +0.04000 ]
SCF: Cycle:  0   F: -20.177736735526892   dF: -2.375e-03   |Residual|: 4.317e-03   |deigs|: 1.729e-01  t[s]:     16.08
	FillingsUpdate:  mu: -0.082542037  nElectrons: 9.000000  magneticMoment: [ Abs: 0.04000  Tot: +0.04000 ]
SCF: Cycle:  1   F: -20.177808769576028   dF: -7.203e-05   |Residual|: 3.864e-03   |deigs|: 4.733e-03  t[s]:     19.80
	FillingsUpdate:  mu: -0.083088631  nElectrons: 9.000000  magneticMoment: [ Abs: 0.04192  Tot: +0.04000 ]
SCF: Cycle:  2   F: -20.177874654801158   dF: -6.589e-05   |Residual|: 1.675e-03   |deigs|: 3.474e-03  t[s]:     23.56
	FillingsUpdate:  mu: -0.082902059  nElectrons: 9.000000  magneticMoment: [ Abs: 0.04025  Tot: +0.04000 ]
SCF: Cycle:  3   F: -20.177895912159890   dF: -2.126e-05   |Residual|: 1.129e-03   |deigs|: 1.410e-03  t[s]:     27.35
	FillingsUpdate:  mu: -0.082652934  nElectrons: 9.000000  magneticMoment: [ Abs: 0.04008  Tot: +0.04000 ]
SCF: Cycle:  4   F: -20.177903308376361   dF: -7.396e-06   |Residual|: 6.961e-04   |deigs|: 8.173e-04  t[s]:     31.19
	FillingsUpdate:  mu: -0.082293984  nElectrons: 9.000000  magneticMoment: [ Abs: 0.04034  Tot: +0.04000 ]
SCF: Cycle:  5   F: -20.177908245136717   dF: -4.937e-06   |Residual|: 5.866e-04   |deigs|: 7.213e-04  t[s]:     35.12
	FillingsUpdate:  mu: -0.081651767  nElectrons: 9.000000  magneticMoment: [ Abs: 0.04101  Tot: +0.04000 ]
SCF: Cycle:  6   F: -20.177909055470607   dF: -8.103e-07   |Residual|: 5.015e-04   |deigs|: 1.091e-03  t[s]:     39.12
	FillingsUpdate:  mu: -0.081339494  nElectrons: 9.000000  magneticMoment: [ Abs: 0.04083  Tot: +0.04000 ]
SCF: Cycle:  7   F: -20.177908233207528   dF: +8.223e-07   |Residual|: 4.338e-04   |deigs|: 1.125e-03  t[s]:     43.22
	FillingsUpdate:  mu: -0.080751171  nElectrons: 9.000000  magneticMoment: [ Abs: 0.04039  Tot: +0.04000 ]
SCF: Cycle:  8   F: -20.177909863877794   dF: -1.631e-06   |Residual|: 3.555e-04   |deigs|: 1.017e-03  t[s]:     47.36
	FillingsUpdate:  mu: -0.080610030  nElectrons: 9.000000  magneticMoment: [ Abs: 0.04037  Tot: +0.04000 ]
SCF: Cycle:  9   F: -20.177911749863654   dF: -1.886e-06   |Residual|: 2.727e-04   |deigs|: 2.607e-04  t[s]:     51.58
	FillingsUpdate:  mu: -0.080084070  nElectrons: 9.000000  magneticMoment: [ Abs: 0.04097  Tot: +0.04000 ]
SCF: Cycle: 10   F: -20.177911610222040   dF: +1.396e-07   |Residual|: 2.455e-04   |deigs|: 5.023e-04  t[s]:     55.84
	FillingsUpdate:  mu: -0.079559718  nElectrons: 9.000000  magneticMoment: [ Abs: 0.04055  Tot: +0.04000 ]
SCF: Cycle: 11   F: -20.177909168708734   dF: +2.442e-06   |Residual|: 2.475e-04   |deigs|: 6.085e-04  t[s]:     60.11
	FillingsUpdate:  mu: -0.079092002  nElectrons: 9.000000  magneticMoment: [ Abs: 0.04038  Tot: +0.04000 ]
SCF: Cycle: 12   F: -20.177909926030690   dF: -7.573e-07   |Residual|: 2.364e-04   |deigs|: 8.166e-04  t[s]:     64.38
	FillingsUpdate:  mu: -0.078938521  nElectrons: 9.000000  magneticMoment: [ Abs: 0.04064  Tot: +0.04000 ]
SCF: Cycle: 13   F: -20.177912619732414   dF: -2.694e-06   |Residual|: 2.165e-04   |deigs|: 9.944e-04  t[s]:     68.70
	FillingsUpdate:  mu: -0.078822840  nElectrons: 9.000000  magneticMoment: [ Abs: 0.04055  Tot: +0.04000 ]
SCF: Cycle: 14   F: -20.177915618119457   dF: -2.998e-06   |Residual|: 1.516e-04   |deigs|: 2.559e-04  t[s]:     72.86
	FillingsUpdate:  mu: -0.078342529  nElectrons: 9.000000  magneticMoment: [ Abs: 0.04027  Tot: +0.04000 ]
SCF: Cycle: 15   F: -20.177916246492444   dF: -6.284e-07   |Residual|: 9.439e-05   |deigs|: 5.580e-04  t[s]:     77.01
	FillingsUpdate:  mu: -0.078366295  nElectrons: 9.000000  magneticMoment: [ Abs: 0.04017  Tot: +0.04000 ]
SCF: Cycle: 16   F: -20.177916537088706   dF: -2.906e-07   |Residual|: 6.590e-05   |deigs|: 8.139e-05  t[s]:     81.18
	FillingsUpdate:  mu: -0.078416556  nElectrons: 9.000000  magneticMoment: [ Abs: 0.04006  Tot: +0.04000 ]
SCF: Cycle: 17   F: -20.177916657325159   dF: -1.202e-07   |Residual|: 4.373e-05   |deigs|: 8.346e-05  t[s]:     85.40
	FillingsUpdate:  mu: -0.078407678  nElectrons: 9.000000  magneticMoment: [ Abs: 0.04008  Tot: +0.04000 ]
SCF: Cycle: 18   F: -20.177916746736429   dF: -8.941e-08   |Residual|: 2.304e-05   |deigs|: 4.311e-05  t[s]:     89.69
	FillingsUpdate:  mu: -0.078407092  nElectrons: 9.000000  magneticMoment: [ Abs: 0.04009  Tot: +0.04000 ]
SCF: Cycle: 19   F: -20.177916780709843   dF: -3.397e-08   |Residual|: 1.275e-05   |deigs|: 2.982e-05  t[s]:     93.95
	FillingsUpdate:  mu: -0.078407492  nElectrons: 9.000000  magneticMoment: [ Abs: 0.04007  Tot: +0.04000 ]
SCF: Cycle: 20   F: -20.177916793878524   dF: -1.317e-08   |Residual|: 8.248e-06   |deigs|: 2.169e-05  t[s]:     98.17
	FillingsUpdate:  mu: -0.078418234  nElectrons: 9.000000  magneticMoment: [ Abs: 0.04006  Tot: +0.04000 ]
SCF: Cycle: 21   F: -20.177916798358186   dF: -4.480e-09   |Residual|: 5.222e-06   |deigs|: 2.361e-05  t[s]:    102.40
	FillingsUpdate:  mu: -0.078418894  nElectrons: 9.000000  magneticMoment: [ Abs: 0.04005  Tot: +0.04000 ]
SCF: Cycle: 22   F: -20.177916800637789   dF: -2.280e-09   |Residual|: 4.124e-06   |deigs|: 2.723e-05  t[s]:    106.61
SCF: Converged (|Delta E|<1.000000e-08 for 2 iters).


# Ionic positions in lattice coordinates:
ion Cs   0.000000000000000   0.000000000000000   0.000000000000000 0

# Forces in Lattice coordinates:
force Cs   0.000000000000000   0.000000000000000   0.000000000000000 0

# Energy components:
   Eewald =      -12.0320174002217755
       EH =        4.0100950820436863
     Eloc =      -17.5791102995891073
      Enl =        3.4316649212614347
   Epulay =       -0.0000000107257212
      Exc =       -3.1080222771352872
       KE =        5.0994740699434997
-------------------------------------
     Etot =      -20.1779159144232665
       TS =        0.0000008862145228
-------------------------------------
        F =      -20.1779168006377887

IonicMinimize: Iter:   0  F: -20.177916800637789  |grad|_K:  0.000e+00  t[s]:    106.86
IonicMinimize: Converged (|grad|_K<1.000000e-04).

#--- Lowdin population analysis ---
# oxidation-state Cs +0.041
# magnetic-moments Cs +0.036

End date and time: Sun Feb  6 13:25:11 2022  (Duration: 0-0:01:46.90)
Done!
