
*************** JDFTx 1.6.0 (git hash 42ebbcc2) ***************

Start date and time: Sun Feb  6 13:24:33 2022
Executable jdftx with command-line: -i Alkali.in
Running on hosts (process indices):  d-4-3-3 (0-18)
Divided in process groups (process indices):  0 (0)  1 (1)  2 (2)  3 (3)  4 (4)  5 (5)  6 (6)  7 (7)  8 (8)  9 (9)  10 (10)  11 (11)  12 (12)  13 (13)  14 (14)  15 (15)  16 (16)  17 (17)  18 (18)
Resource initialization completed at t[s]:      0.00
Run totals: 19 processes, 48 threads, 0 GPUs


Input parsed successfully to the following command list (including defaults):

basis kpoint-dependent
coords-type Lattice
core-overlap-check vector
coulomb-interaction Slab 001
davidson-band-ratio 1.1
dump End None
dump-name $INPUT.$VAR
elec-cutoff 20
elec-eigen-algo Davidson
elec-ex-corr gga-PBE
elec-initial-magnetization 0.340000 yes
elec-smearing Fermi 1e-05
electronic-minimize  \
	dirUpdateScheme      FletcherReeves \
	linminMethod         DirUpdateRecommended \
	nIterations          100 \
	history              15 \
	knormThreshold       0 \
	energyDiffThreshold  1e-08 \
	nEnergyDiff          2 \
	alphaTstart          1 \
	alphaTmin            1e-10 \
	updateTestStepSize   yes \
	alphaTreduceFactor   0.1 \
	alphaTincreaseFactor 3 \
	nAlphaAdjustMax      3 \
	wolfeEnergy          0.0001 \
	wolfeGradient        0.9 \
	fdTest               no
electronic-scf  \
	nIterations	10000 \
	energyDiffThreshold	1e-08 \
	residualThreshold	1e-07 \
	mixFraction	0.5 \
	qMetric	0.8 \
	history	10 \
	nEigSteps	2 \
	eigDiffThreshold	1e-08 \
	mixedVariable	Density \
	qKerker	0.8 \
	qKappa	-1 \
	verbose	no \
	mixFractionMag	1.5
exchange-regularization WignerSeitzTruncated
fluid None
fluid-ex-corr (null) lda-PZ
fluid-gummel-loop 10 1.000000e-05
fluid-minimize  \
	dirUpdateScheme      PolakRibiere \
	linminMethod         DirUpdateRecommended \
	nIterations          100 \
	history              15 \
	knormThreshold       0 \
	energyDiffThreshold  0 \
	nEnergyDiff          2 \
	alphaTstart          1 \
	alphaTmin            1e-10 \
	updateTestStepSize   yes \
	alphaTreduceFactor   0.1 \
	alphaTincreaseFactor 3 \
	nAlphaAdjustMax      3 \
	wolfeEnergy          0.0001 \
	wolfeGradient        0.9 \
	fdTest               no
fluid-solvent H2O 55.338 ScalarEOS \
	epsBulk 78.4 \
	pMol 0.92466 \
	epsInf 1.77 \
	Pvap 1.06736e-10 \
	sigmaBulk 4.62e-05 \
	Rvdw 2.61727 \
	Res 1.42 \
	tauNuc 343133 \
	poleEl 15 7 1
forces-output-coords Positions
ion Cs   0.000000000000000   0.000000000000000   0.000000000000000 0
ion-species SG15/$ID_ONCV_PBE.upf
ion-width 0
ionic-minimize  \
	dirUpdateScheme      L-BFGS \
	linminMethod         DirUpdateRecommended \
	nIterations          0 \
	history              15 \
	knormThreshold       0.0001 \
	energyDiffThreshold  1e-06 \
	nEnergyDiff          2 \
	alphaTstart          1 \
	alphaTmin            1e-10 \
	updateTestStepSize   yes \
	alphaTreduceFactor   0.1 \
	alphaTincreaseFactor 3 \
	nAlphaAdjustMax      3 \
	wolfeEnergy          0.0001 \
	wolfeGradient        0.9 \
	fdTest               no
kpoint   0.000000000000   0.000000000000   0.000000000000  1.00000000000000
kpoint-folding 12 12 1 
latt-move-scale 1 1 1
latt-scale 3 3 1 
lattice  \
	   4.727486978767153   -2.363743489383575    0.000000000000000  \
	  -0.000000000000000    4.094123819672498    0.000000000000000  \
	   0.000000000000000    0.000000000000000   40.000000000000000 
lattice-minimize  \
	dirUpdateScheme      L-BFGS \
	linminMethod         DirUpdateRecommended \
	nIterations          0 \
	history              15 \
	knormThreshold       0 \
	energyDiffThreshold  1e-06 \
	nEnergyDiff          2 \
	alphaTstart          1 \
	alphaTmin            1e-10 \
	updateTestStepSize   yes \
	alphaTreduceFactor   0.1 \
	alphaTincreaseFactor 3 \
	nAlphaAdjustMax      3 \
	wolfeEnergy          0.0001 \
	wolfeGradient        0.9 \
	fdTest               no
lcao-params -1 1e-06 1e-05
pcm-variant GLSSA13
spintype z-spin
subspace-rotation-factor 1 yes
symmetries automatic
symmetry-threshold 0.0001



---------- Setting up symmetries ----------

Found 24 point-group symmetries of the bravais lattice
Found 24 space-group symmetries with basis
Applied RMS atom displacement 0 bohrs to make symmetries exact.

---------- Initializing the Grid ----------
R = 
[      14.1825     -7.09123            0  ]
[            0      12.2824            0  ]
[            0            0           40  ]
unit cell volume = 6967.77
G =
[   0.443025   0.255781         -0  ]
[          0   0.511561         -0  ]
[         -0         -0    0.15708  ]
Minimum fftbox size, Smin = [  60  60  164  ]
Chosen fftbox size, S = [  60  60  168  ]

---------- Exchange Correlation functional ----------
Initalized PBE GGA exchange.
Initalized PBE GGA correlation.

---------- Setting up pseudopotentials ----------
Width of ionic core gaussian charges (only for fluid interactions / plotting) set to 0

Reading pseudopotential file '/home/gridsan/aligho/DFT/build-Nov24/pseudopotentials/SG15/Cs_ONCV_PBE.upf':
  'Cs' pseudopotential, 'PBE' functional
  Generated using ONCVPSP code by D. R. Hamann
  Author: Martin Schlipf and Francois Gygi  Date: 150915.
  9 valence electrons, 3 orbitals, 6 projectors, 2414 radial grid points, with lMax = 2
  Transforming local potential to a uniform radial grid of dG=0.02 with 1489 points.
  Transforming nonlocal projectors to a uniform radial grid of dG=0.02 with 432 points.
    5S    l: 0   occupation:  2.0   eigenvalue: -0.982388
    5P    l: 1   occupation:  6.0   eigenvalue: -0.496786
    6S    l: 0   occupation:  1.0   eigenvalue: -0.076670
  Transforming atomic orbitals to a uniform radial grid of dG=0.02 with 432 points.
  Core radius for overlap checks: 2.06 bohrs.
  Reading pulay file /home/gridsan/aligho/DFT/build-Nov24/pseudopotentials/SG15/Cs_ONCV_PBE.pulay ... using dE_dnG = -1.008762e-04 computed for Ecut = 20.

Initialized 1 species with 1 total atoms.

Folded 1 k-points by 12x12x1 to 144 k-points.

---------- Setting up k-points, bands, fillings ----------
Reduced to 19 k-points under symmetry. 
Computing the number of bands and number of electrons
Calculating initial fillings.
nElectrons:   9.000000   nBands: 6   nStates: 38

----- Setting up reduced wavefunction bases (one per k-point) -----
average nbasis = 29766.104 , ideal nbasis = 29766.845

---------- Setting up coulomb interaction ----------
Initialized slab truncation along lattice direction 001

---------- Setting up 2D ewald sum ----------
Optimum gaussian width for ewald sums = 7.873530 bohr.
Real space sums over 289 unit cells with max indices [  8  8  0  ]
Reciprocal space sums over 81 terms with max indices [  4  4  0  ]

---------- Allocating electronic variables ----------
Initializing wave functions:  linear combination of atomic orbitals
Note: number of bands (6) exceeds available atomic orbitals (5)
Cs pseudo-atom occupations:   s ( 2 1 )  p ( 6 )
	FillingsUpdate:  mu: -0.078815340  nElectrons: 9.000000  magneticMoment: [ Abs: 0.34000  Tot: +0.34000 ]
LCAOMinimize: Iter:   0  F: -20.1746345672815401  |grad|_K:  2.237e-05  alpha:  1.000e+00
	FillingsUpdate:  mu: -0.078810543  nElectrons: 9.000000  magneticMoment: [ Abs: 0.34000  Tot: +0.34000 ]
LCAOMinimize: Iter:   1  F: -20.1746349047301194  |grad|_K:  1.497e-07  alpha:  9.862e-01  linmin: -3.255e-02  cgtest:  5.838e-01  t[s]:      8.82
LCAOMinimize: Encountered beta<0, resetting CG.
	FillingsUpdate:  mu: -0.078810540  nElectrons: 9.000000  magneticMoment: [ Abs: 0.34000  Tot: +0.34000 ]
LCAOMinimize: Iter:   2  F: -20.1746349047450693  |grad|_K:  5.545e-09  alpha:  9.634e-01  linmin: -6.401e-02  cgtest:  9.987e-01  t[s]:     11.31
LCAOMinimize: Encountered beta<0, resetting CG.
LCAOMinimize: Converged (|Delta F|<1.000000e-06 for 2 iters).


---- Citations for features of the code used in this run ----

   Software package:
      R. Sundararaman, K. Letchworth-Weaver, K.A. Schwarz, D. Gunceler, Y. Ozhabes and T.A. Arias, 'JDFTx: software for joint density-functional theory', SoftwareX 6, 278 (2017)

   gga-PBE exchange-correlation functional:
      J.P. Perdew, K. Burke and M. Ernzerhof, Phys. Rev. Lett. 77, 3865 (1996)

   Pseudopotentials:
      M Schlipf and F Gygi, Comput. Phys. Commun. 196, 36 (2015)

   Truncated Coulomb potentials:
      R. Sundararaman and T.A. Arias, Phys. Rev. B 87, 165122 (2013)

This list may not be complete. Please suggest additional citations or
report any other bugs at https://github.com/shankar1729/jdftx/issues

Initialization completed successfully at t[s]:     11.48


-------- Electronic minimization -----------
Will mix electronic density at each iteration.
	FillingsUpdate:  mu: -0.078810540  nElectrons: 9.000000  magneticMoment: [ Abs: 0.34000  Tot: +0.34000 ]
	FillingsUpdate:  mu: -0.082131659  nElectrons: 9.000000  magneticMoment: [ Abs: 0.34000  Tot: +0.34000 ]
SCF: Cycle:  0   F: -20.177057430608219   dF: -2.423e-03   |Residual|: 4.746e-03   |deigs|: 1.731e-01  t[s]:     16.35
	FillingsUpdate:  mu: -0.082355660  nElectrons: 9.000000  magneticMoment: [ Abs: 0.34000  Tot: +0.34000 ]
SCF: Cycle:  1   F: -20.177181699001689   dF: -1.243e-04   |Residual|: 4.185e-03   |deigs|: 5.005e-03  t[s]:     20.13
	FillingsUpdate:  mu: -0.082585084  nElectrons: 9.000000  magneticMoment: [ Abs: 0.34251  Tot: +0.34000 ]
SCF: Cycle:  2   F: -20.177257490177329   dF: -7.579e-05   |Residual|: 2.455e-03   |deigs|: 2.454e-03  t[s]:     23.94
	FillingsUpdate:  mu: -0.082625053  nElectrons: 9.000000  magneticMoment: [ Abs: 0.34210  Tot: +0.34000 ]
SCF: Cycle:  3   F: -20.177283583890826   dF: -2.609e-05   |Residual|: 1.661e-03   |deigs|: 1.460e-03  t[s]:     27.88
	FillingsUpdate:  mu: -0.082467694  nElectrons: 9.000000  magneticMoment: [ Abs: 0.34022  Tot: +0.34000 ]
SCF: Cycle:  4   F: -20.177299568260555   dF: -1.598e-05   |Residual|: 9.613e-04   |deigs|: 1.080e-03  t[s]:     31.95
	FillingsUpdate:  mu: -0.082325526  nElectrons: 9.000000  magneticMoment: [ Abs: 0.34024  Tot: +0.34000 ]
SCF: Cycle:  5   F: -20.177307462898408   dF: -7.895e-06   |Residual|: 6.917e-04   |deigs|: 7.275e-04  t[s]:     36.02
	FillingsUpdate:  mu: -0.082006709  nElectrons: 9.000000  magneticMoment: [ Abs: 0.34067  Tot: +0.34000 ]
SCF: Cycle:  6   F: -20.177311197342529   dF: -3.734e-06   |Residual|: 5.458e-04   |deigs|: 1.001e-03  t[s]:     40.18
	FillingsUpdate:  mu: -0.081616748  nElectrons: 9.000000  magneticMoment: [ Abs: 0.34180  Tot: +0.34000 ]
SCF: Cycle:  7   F: -20.177311642104030   dF: -4.448e-07   |Residual|: 4.665e-04   |deigs|: 7.516e-04  t[s]:     44.35
	FillingsUpdate:  mu: -0.080940574  nElectrons: 9.000000  magneticMoment: [ Abs: 0.34289  Tot: +0.34000 ]
SCF: Cycle:  8   F: -20.177308795403384   dF: +2.847e-06   |Residual|: 3.683e-04   |deigs|: 8.384e-04  t[s]:     48.59
	FillingsUpdate:  mu: -0.080397835  nElectrons: 9.000000  magneticMoment: [ Abs: 0.34219  Tot: +0.34000 ]
SCF: Cycle:  9   F: -20.177310696975752   dF: -1.902e-06   |Residual|: 3.317e-04   |deigs|: 7.479e-04  t[s]:     52.91
	FillingsUpdate:  mu: -0.080402165  nElectrons: 9.000000  magneticMoment: [ Abs: 0.34154  Tot: +0.34000 ]
SCF: Cycle: 10   F: -20.177313530229416   dF: -2.833e-06   |Residual|: 2.789e-04   |deigs|: 4.080e-04  t[s]:     57.30
	FillingsUpdate:  mu: -0.079936616  nElectrons: 9.000000  magneticMoment: [ Abs: 0.34254  Tot: +0.34000 ]
SCF: Cycle: 11   F: -20.177314669319738   dF: -1.139e-06   |Residual|: 2.409e-04   |deigs|: 1.153e-03  t[s]:     61.69
	FillingsUpdate:  mu: -0.079361085  nElectrons: 9.000000  magneticMoment: [ Abs: 0.34230  Tot: +0.34000 ]
SCF: Cycle: 12   F: -20.177313812016028   dF: +8.573e-07   |Residual|: 2.395e-04   |deigs|: 7.571e-04  t[s]:     66.07
	FillingsUpdate:  mu: -0.078971234  nElectrons: 9.000000  magneticMoment: [ Abs: 0.34096  Tot: +0.34000 ]
SCF: Cycle: 13   F: -20.177313586093653   dF: +2.259e-07   |Residual|: 2.272e-04   |deigs|: 4.470e-04  t[s]:     70.44
	FillingsUpdate:  mu: -0.078704187  nElectrons: 9.000000  magneticMoment: [ Abs: 0.34172  Tot: +0.34000 ]
SCF: Cycle: 14   F: -20.177315554664489   dF: -1.969e-06   |Residual|: 1.951e-04   |deigs|: 3.415e-04  t[s]:     74.87
	FillingsUpdate:  mu: -0.078368008  nElectrons: 9.000000  magneticMoment: [ Abs: 0.34122  Tot: +0.34000 ]
SCF: Cycle: 15   F: -20.177317658723219   dF: -2.104e-06   |Residual|: 1.501e-04   |deigs|: 3.811e-04  t[s]:     79.25
	FillingsUpdate:  mu: -0.078141259  nElectrons: 9.000000  magneticMoment: [ Abs: 0.34059  Tot: +0.34000 ]
SCF: Cycle: 16   F: -20.177318921636505   dF: -1.263e-06   |Residual|: 1.003e-04   |deigs|: 2.256e-04  t[s]:     83.54
	FillingsUpdate:  mu: -0.078097326  nElectrons: 9.000000  magneticMoment: [ Abs: 0.34046  Tot: +0.34000 ]
SCF: Cycle: 17   F: -20.177319227824849   dF: -3.062e-07   |Residual|: 6.547e-05   |deigs|: 1.011e-04  t[s]:     87.81
	FillingsUpdate:  mu: -0.078116646  nElectrons: 9.000000  magneticMoment: [ Abs: 0.34042  Tot: +0.34000 ]
SCF: Cycle: 18   F: -20.177319429985044   dF: -2.022e-07   |Residual|: 3.643e-05   |deigs|: 9.270e-05  t[s]:     92.20
	FillingsUpdate:  mu: -0.078135949  nElectrons: 9.000000  magneticMoment: [ Abs: 0.34045  Tot: +0.34000 ]
SCF: Cycle: 19   F: -20.177319491337837   dF: -6.135e-08   |Residual|: 2.375e-05   |deigs|: 9.997e-05  t[s]:     96.58
	FillingsUpdate:  mu: -0.078138517  nElectrons: 9.000000  magneticMoment: [ Abs: 0.34044  Tot: +0.34000 ]
SCF: Cycle: 20   F: -20.177319527025492   dF: -3.569e-08   |Residual|: 1.590e-05   |deigs|: 1.088e-04  t[s]:    100.95
	FillingsUpdate:  mu: -0.078147789  nElectrons: 9.000000  magneticMoment: [ Abs: 0.34045  Tot: +0.34000 ]
SCF: Cycle: 21   F: -20.177319542238958   dF: -1.521e-08   |Residual|: 1.118e-05   |deigs|: 1.438e-04  t[s]:    105.31
	FillingsUpdate:  mu: -0.078145483  nElectrons: 9.000000  magneticMoment: [ Abs: 0.34044  Tot: +0.34000 ]
SCF: Cycle: 22   F: -20.177319550005247   dF: -7.766e-09   |Residual|: 7.625e-06   |deigs|: 1.164e-04  t[s]:    109.66
	FillingsUpdate:  mu: -0.078148415  nElectrons: 9.000000  magneticMoment: [ Abs: 0.34044  Tot: +0.34000 ]
SCF: Cycle: 23   F: -20.177319555022926   dF: -5.018e-09   |Residual|: 5.790e-06   |deigs|: 9.498e-05  t[s]:    114.01
SCF: Converged (|Delta E|<1.000000e-08 for 2 iters).


# Ionic positions in lattice coordinates:
ion Cs   0.000000000000000   0.000000000000000   0.000000000000000 0

# Forces in Lattice coordinates:
force Cs   0.000000000000000   0.000000000000000   0.000000000000000 0

# Energy components:
   Eewald =      -12.0320174002217755
       EH =        4.0131504235260662
     Eloc =      -17.5824422577090900
      Enl =        3.4317381845337049
   Epulay =       -0.0000000107257212
      Exc =       -3.1086982991375107
       KE =        5.1009504795341067
-------------------------------------
     Etot =      -20.1773188802002217
       TS =        0.0000006748227032
-------------------------------------
        F =      -20.1773195550229261

IonicMinimize: Iter:   0  F: -20.177319555022926  |grad|_K:  0.000e+00  t[s]:    114.27
IonicMinimize: Converged (|grad|_K<1.000000e-04).

#--- Lowdin population analysis ---
# oxidation-state Cs +0.050
# magnetic-moments Cs +0.305

End date and time: Sun Feb  6 13:26:27 2022  (Duration: 0-0:01:54.32)
Done!
