
*************** JDFTx 1.6.0 (git hash 42ebbcc2) ***************

Start date and time: Sun Feb  6 13:10:18 2022
Executable jdftx with command-line: -i Alkali.in
Running on hosts (process indices):  d-16-5-2 (0-18)
Divided in process groups (process indices):  0 (0)  1 (1)  2 (2)  3 (3)  4 (4)  5 (5)  6 (6)  7 (7)  8 (8)  9 (9)  10 (10)  11 (11)  12 (12)  13 (13)  14 (14)  15 (15)  16 (16)  17 (17)  18 (18)
Resource initialization completed at t[s]:      0.00
Run totals: 19 processes, 48 threads, 0 GPUs


Input parsed successfully to the following command list (including defaults):

basis kpoint-dependent
coords-type Lattice
core-overlap-check vector
coulomb-interaction Slab 001
davidson-band-ratio 1.1
dump End None
dump-name $INPUT.$VAR
elec-cutoff 20
elec-eigen-algo Davidson
elec-ex-corr gga-PBE
elec-initial-magnetization -0.680000 yes
elec-smearing Fermi 1e-05
electronic-minimize  \
	dirUpdateScheme      FletcherReeves \
	linminMethod         DirUpdateRecommended \
	nIterations          100 \
	history              15 \
	knormThreshold       0 \
	energyDiffThreshold  1e-08 \
	nEnergyDiff          2 \
	alphaTstart          1 \
	alphaTmin            1e-10 \
	updateTestStepSize   yes \
	alphaTreduceFactor   0.1 \
	alphaTincreaseFactor 3 \
	nAlphaAdjustMax      3 \
	wolfeEnergy          0.0001 \
	wolfeGradient        0.9 \
	fdTest               no
electronic-scf  \
	nIterations	10000 \
	energyDiffThreshold	1e-08 \
	residualThreshold	1e-07 \
	mixFraction	0.5 \
	qMetric	0.8 \
	history	10 \
	nEigSteps	2 \
	eigDiffThreshold	1e-08 \
	mixedVariable	Density \
	qKerker	0.8 \
	qKappa	-1 \
	verbose	no \
	mixFractionMag	1.5
exchange-regularization WignerSeitzTruncated
fluid None
fluid-ex-corr (null) lda-PZ
fluid-gummel-loop 10 1.000000e-05
fluid-minimize  \
	dirUpdateScheme      PolakRibiere \
	linminMethod         DirUpdateRecommended \
	nIterations          100 \
	history              15 \
	knormThreshold       0 \
	energyDiffThreshold  0 \
	nEnergyDiff          2 \
	alphaTstart          1 \
	alphaTmin            1e-10 \
	updateTestStepSize   yes \
	alphaTreduceFactor   0.1 \
	alphaTincreaseFactor 3 \
	nAlphaAdjustMax      3 \
	wolfeEnergy          0.0001 \
	wolfeGradient        0.9 \
	fdTest               no
fluid-solvent H2O 55.338 ScalarEOS \
	epsBulk 78.4 \
	pMol 0.92466 \
	epsInf 1.77 \
	Pvap 1.06736e-10 \
	sigmaBulk 4.62e-05 \
	Rvdw 2.61727 \
	Res 1.42 \
	tauNuc 343133 \
	poleEl 15 7 1
forces-output-coords Positions
ion Cs   0.000000000000000   0.000000000000000   0.000000000000000 0
ion-species SG15/$ID_ONCV_PBE.upf
ion-width 0
ionic-minimize  \
	dirUpdateScheme      L-BFGS \
	linminMethod         DirUpdateRecommended \
	nIterations          0 \
	history              15 \
	knormThreshold       0.0001 \
	energyDiffThreshold  1e-06 \
	nEnergyDiff          2 \
	alphaTstart          1 \
	alphaTmin            1e-10 \
	updateTestStepSize   yes \
	alphaTreduceFactor   0.1 \
	alphaTincreaseFactor 3 \
	nAlphaAdjustMax      3 \
	wolfeEnergy          0.0001 \
	wolfeGradient        0.9 \
	fdTest               no
kpoint   0.000000000000   0.000000000000   0.000000000000  1.00000000000000
kpoint-folding 12 12 1 
latt-move-scale 1 1 1
latt-scale 3 3 1 
lattice  \
	   4.727486978767153   -2.363743489383575    0.000000000000000  \
	  -0.000000000000000    4.094123819672498    0.000000000000000  \
	   0.000000000000000    0.000000000000000   40.000000000000000 
lattice-minimize  \
	dirUpdateScheme      L-BFGS \
	linminMethod         DirUpdateRecommended \
	nIterations          0 \
	history              15 \
	knormThreshold       0 \
	energyDiffThreshold  1e-06 \
	nEnergyDiff          2 \
	alphaTstart          1 \
	alphaTmin            1e-10 \
	updateTestStepSize   yes \
	alphaTreduceFactor   0.1 \
	alphaTincreaseFactor 3 \
	nAlphaAdjustMax      3 \
	wolfeEnergy          0.0001 \
	wolfeGradient        0.9 \
	fdTest               no
lcao-params -1 1e-06 1e-05
pcm-variant GLSSA13
spintype z-spin
subspace-rotation-factor 1 yes
symmetries automatic
symmetry-threshold 0.0001



---------- Setting up symmetries ----------

Found 24 point-group symmetries of the bravais lattice
Found 24 space-group symmetries with basis
Applied RMS atom displacement 0 bohrs to make symmetries exact.

---------- Initializing the Grid ----------
R = 
[      14.1825     -7.09123            0  ]
[            0      12.2824            0  ]
[            0            0           40  ]
unit cell volume = 6967.77
G =
[   0.443025   0.255781         -0  ]
[          0   0.511561         -0  ]
[         -0         -0    0.15708  ]
Minimum fftbox size, Smin = [  60  60  164  ]
Chosen fftbox size, S = [  60  60  168  ]

---------- Exchange Correlation functional ----------
Initalized PBE GGA exchange.
Initalized PBE GGA correlation.

---------- Setting up pseudopotentials ----------
Width of ionic core gaussian charges (only for fluid interactions / plotting) set to 0

Reading pseudopotential file '/home/gridsan/aligho/DFT/build-Nov24/pseudopotentials/SG15/Cs_ONCV_PBE.upf':
  'Cs' pseudopotential, 'PBE' functional
  Generated using ONCVPSP code by D. R. Hamann
  Author: Martin Schlipf and Francois Gygi  Date: 150915.
  9 valence electrons, 3 orbitals, 6 projectors, 2414 radial grid points, with lMax = 2
  Transforming local potential to a uniform radial grid of dG=0.02 with 1489 points.
  Transforming nonlocal projectors to a uniform radial grid of dG=0.02 with 432 points.
    5S    l: 0   occupation:  2.0   eigenvalue: -0.982388
    5P    l: 1   occupation:  6.0   eigenvalue: -0.496786
    6S    l: 0   occupation:  1.0   eigenvalue: -0.076670
  Transforming atomic orbitals to a uniform radial grid of dG=0.02 with 432 points.
  Core radius for overlap checks: 2.06 bohrs.
  Reading pulay file /home/gridsan/aligho/DFT/build-Nov24/pseudopotentials/SG15/Cs_ONCV_PBE.pulay ... using dE_dnG = -1.008762e-04 computed for Ecut = 20.

Initialized 1 species with 1 total atoms.

Folded 1 k-points by 12x12x1 to 144 k-points.

---------- Setting up k-points, bands, fillings ----------
Reduced to 19 k-points under symmetry. 
Computing the number of bands and number of electrons
Calculating initial fillings.
nElectrons:   9.000000   nBands: 6   nStates: 38

----- Setting up reduced wavefunction bases (one per k-point) -----
average nbasis = 29766.104 , ideal nbasis = 29766.845

---------- Setting up coulomb interaction ----------
Initialized slab truncation along lattice direction 001

---------- Setting up 2D ewald sum ----------
Optimum gaussian width for ewald sums = 7.873530 bohr.
Real space sums over 289 unit cells with max indices [  8  8  0  ]
Reciprocal space sums over 81 terms with max indices [  4  4  0  ]

---------- Allocating electronic variables ----------
Initializing wave functions:  linear combination of atomic orbitals
Note: number of bands (6) exceeds available atomic orbitals (5)
Cs pseudo-atom occupations:   s ( 2 1 )  p ( 6 )
	FillingsUpdate:  mu: -0.081617276  nElectrons: 9.000000  magneticMoment: [ Abs: 0.68000  Tot: -0.68000 ]
LCAOMinimize: Iter:   0  F: -20.1726653668038871  |grad|_K:  1.398e-05  alpha:  1.000e+00
	FillingsUpdate:  mu: -0.081615224  nElectrons: 9.000000  magneticMoment: [ Abs: 0.68000  Tot: -0.68000 ]
LCAOMinimize: Iter:   1  F: -20.1726654993648431  |grad|_K:  9.107e-08  alpha:  9.919e-01  linmin: -1.510e-02  cgtest:  2.666e-01  t[s]:      8.90
LCAOMinimize: Encountered beta<0, resetting CG.
	FillingsUpdate:  mu: -0.081615237  nElectrons: 9.000000  magneticMoment: [ Abs: 0.68000  Tot: -0.68000 ]
LCAOMinimize: Iter:   2  F: -20.1726654993699661  |grad|_K:  6.674e-09  alpha:  9.259e-01  linmin: -1.422e-01  cgtest:  9.981e-01  t[s]:     11.37
LCAOMinimize: Encountered beta<0, resetting CG.
LCAOMinimize: Converged (|Delta F|<1.000000e-06 for 2 iters).


---- Citations for features of the code used in this run ----

   Software package:
      R. Sundararaman, K. Letchworth-Weaver, K.A. Schwarz, D. Gunceler, Y. Ozhabes and T.A. Arias, 'JDFTx: software for joint density-functional theory', SoftwareX 6, 278 (2017)

   gga-PBE exchange-correlation functional:
      J.P. Perdew, K. Burke and M. Ernzerhof, Phys. Rev. Lett. 77, 3865 (1996)

   Pseudopotentials:
      M Schlipf and F Gygi, Comput. Phys. Commun. 196, 36 (2015)

   Truncated Coulomb potentials:
      R. Sundararaman and T.A. Arias, Phys. Rev. B 87, 165122 (2013)

This list may not be complete. Please suggest additional citations or
report any other bugs at https://github.com/shankar1729/jdftx/issues

Initialization completed successfully at t[s]:     11.53


-------- Electronic minimization -----------
Will mix electronic density at each iteration.
	FillingsUpdate:  mu: -0.081615237  nElectrons: 9.000000  magneticMoment: [ Abs: 0.68000  Tot: -0.68000 ]
	FillingsUpdate:  mu: -0.083642861  nElectrons: 9.000000  magneticMoment: [ Abs: 0.68000  Tot: -0.68000 ]
SCF: Cycle:  0   F: -20.175184691378782   dF: -2.519e-03   |Residual|: 5.319e-03   |deigs|: 1.735e-01  t[s]:     16.37
	FillingsUpdate:  mu: -0.084031230  nElectrons: 9.000000  magneticMoment: [ Abs: 0.68009  Tot: -0.68000 ]
SCF: Cycle:  1   F: -20.175379298672130   dF: -1.946e-04   |Residual|: 4.637e-03   |deigs|: 4.834e-03  t[s]:     20.14
	FillingsUpdate:  mu: -0.084408238  nElectrons: 9.000000  magneticMoment: [ Abs: 0.68166  Tot: -0.68000 ]
SCF: Cycle:  2   F: -20.175478760633052   dF: -9.946e-05   |Residual|: 3.495e-03   |deigs|: 2.795e-03  t[s]:     23.94
	FillingsUpdate:  mu: -0.084558439  nElectrons: 9.000000  magneticMoment: [ Abs: 0.68322  Tot: -0.68000 ]
SCF: Cycle:  3   F: -20.175547810386288   dF: -6.905e-05   |Residual|: 2.669e-03   |deigs|: 1.589e-03  t[s]:     27.83
	FillingsUpdate:  mu: -0.084159945  nElectrons: 9.000000  magneticMoment: [ Abs: 0.68058  Tot: -0.68000 ]
SCF: Cycle:  4   F: -20.175576243854913   dF: -2.843e-05   |Residual|: 1.253e-03   |deigs|: 1.470e-03  t[s]:     31.76
	FillingsUpdate:  mu: -0.084058034  nElectrons: 9.000000  magneticMoment: [ Abs: 0.68099  Tot: -0.68000 ]
SCF: Cycle:  5   F: -20.175591418475904   dF: -1.517e-05   |Residual|: 8.442e-04   |deigs|: 8.020e-04  t[s]:     35.83
	FillingsUpdate:  mu: -0.083919439  nElectrons: 9.000000  magneticMoment: [ Abs: 0.68123  Tot: -0.68000 ]
SCF: Cycle:  6   F: -20.175600621908902   dF: -9.203e-06   |Residual|: 6.558e-04   |deigs|: 5.000e-04  t[s]:     39.85
	FillingsUpdate:  mu: -0.083525483  nElectrons: 9.000000  magneticMoment: [ Abs: 0.68156  Tot: -0.68000 ]
SCF: Cycle:  7   F: -20.175602364683474   dF: -1.743e-06   |Residual|: 5.587e-04   |deigs|: 4.762e-04  t[s]:     43.97
	FillingsUpdate:  mu: -0.082682850  nElectrons: 9.000000  magneticMoment: [ Abs: 0.68388  Tot: -0.68000 ]
SCF: Cycle:  8   F: -20.175598074521911   dF: +4.290e-06   |Residual|: 4.251e-04   |deigs|: 8.851e-04  t[s]:     48.19
	FillingsUpdate:  mu: -0.081983740  nElectrons: 9.000000  magneticMoment: [ Abs: 0.68353  Tot: -0.68000 ]
SCF: Cycle:  9   F: -20.175597828000075   dF: +2.465e-07   |Residual|: 4.126e-04   |deigs|: 9.036e-04  t[s]:     52.49
	FillingsUpdate:  mu: -0.081963805  nElectrons: 9.000000  magneticMoment: [ Abs: 0.68186  Tot: -0.68000 ]
SCF: Cycle: 10   F: -20.175604861342176   dF: -7.033e-06   |Residual|: 2.947e-04   |deigs|: 3.320e-04  t[s]:     56.81
	FillingsUpdate:  mu: -0.081563874  nElectrons: 9.000000  magneticMoment: [ Abs: 0.68469  Tot: -0.68000 ]
SCF: Cycle: 11   F: -20.175606716691973   dF: -1.855e-06   |Residual|: 2.639e-04   |deigs|: 6.820e-04  t[s]:     61.15
	FillingsUpdate:  mu: -0.081034667  nElectrons: 9.000000  magneticMoment: [ Abs: 0.68459  Tot: -0.68000 ]
SCF: Cycle: 12   F: -20.175606403748898   dF: +3.129e-07   |Residual|: 2.592e-04   |deigs|: 5.568e-04  t[s]:     65.46
	FillingsUpdate:  mu: -0.080595205  nElectrons: 9.000000  magneticMoment: [ Abs: 0.68315  Tot: -0.68000 ]
SCF: Cycle: 13   F: -20.175605826994865   dF: +5.768e-07   |Residual|: 2.396e-04   |deigs|: 5.233e-04  t[s]:     69.79
	FillingsUpdate:  mu: -0.080468970  nElectrons: 9.000000  magneticMoment: [ Abs: 0.68324  Tot: -0.68000 ]
SCF: Cycle: 14   F: -20.175608518521091   dF: -2.692e-06   |Residual|: 2.156e-04   |deigs|: 4.297e-04  t[s]:     74.15
	FillingsUpdate:  mu: -0.079981958  nElectrons: 9.000000  magneticMoment: [ Abs: 0.68227  Tot: -0.68000 ]
SCF: Cycle: 15   F: -20.175611036555221   dF: -2.518e-06   |Residual|: 1.643e-04   |deigs|: 5.594e-04  t[s]:     78.47
	FillingsUpdate:  mu: -0.079589701  nElectrons: 9.000000  magneticMoment: [ Abs: 0.68159  Tot: -0.68000 ]
SCF: Cycle: 16   F: -20.175612075380212   dF: -1.039e-06   |Residual|: 1.150e-04   |deigs|: 4.244e-04  t[s]:     82.74
	FillingsUpdate:  mu: -0.079553489  nElectrons: 9.000000  magneticMoment: [ Abs: 0.68121  Tot: -0.68000 ]
SCF: Cycle: 17   F: -20.175612480494966   dF: -4.051e-07   |Residual|: 8.710e-05   |deigs|: 1.180e-04  t[s]:     87.11
	FillingsUpdate:  mu: -0.079595983  nElectrons: 9.000000  magneticMoment: [ Abs: 0.68114  Tot: -0.68000 ]
SCF: Cycle: 18   F: -20.175612783853037   dF: -3.034e-07   |Residual|: 6.066e-05   |deigs|: 1.439e-04  t[s]:     91.42
	FillingsUpdate:  mu: -0.079594034  nElectrons: 9.000000  magneticMoment: [ Abs: 0.68117  Tot: -0.68000 ]
SCF: Cycle: 19   F: -20.175612904530915   dF: -1.207e-07   |Residual|: 3.960e-05   |deigs|: 2.620e-04  t[s]:     95.79
	FillingsUpdate:  mu: -0.079592006  nElectrons: 9.000000  magneticMoment: [ Abs: 0.68128  Tot: -0.68000 ]
SCF: Cycle: 20   F: -20.175612974868404   dF: -7.034e-08   |Residual|: 2.355e-05   |deigs|: 2.863e-04  t[s]:    100.12
	FillingsUpdate:  mu: -0.079590598  nElectrons: 9.000000  magneticMoment: [ Abs: 0.68128  Tot: -0.68000 ]
SCF: Cycle: 21   F: -20.175613011879296   dF: -3.701e-08   |Residual|: 1.908e-05   |deigs|: 3.289e-04  t[s]:    104.51
	FillingsUpdate:  mu: -0.079597036  nElectrons: 9.000000  magneticMoment: [ Abs: 0.68128  Tot: -0.68000 ]
SCF: Cycle: 22   F: -20.175613039198282   dF: -2.732e-08   |Residual|: 1.289e-05   |deigs|: 1.143e-04  t[s]:    108.82
	FillingsUpdate:  mu: -0.079605131  nElectrons: 9.000000  magneticMoment: [ Abs: 0.68127  Tot: -0.68000 ]
SCF: Cycle: 23   F: -20.175613046131932   dF: -6.934e-09   |Residual|: 8.434e-06   |deigs|: 3.406e-05  t[s]:    113.14
	FillingsUpdate:  mu: -0.079602556  nElectrons: 9.000000  magneticMoment: [ Abs: 0.68128  Tot: -0.68000 ]
SCF: Cycle: 24   F: -20.175613053171180   dF: -7.039e-09   |Residual|: 6.956e-06   |deigs|: 4.884e-05  t[s]:    117.45
SCF: Converged (|Delta E|<1.000000e-08 for 2 iters).


# Ionic positions in lattice coordinates:
ion Cs   0.000000000000000   0.000000000000000   0.000000000000000 0

# Forces in Lattice coordinates:
force Cs   0.000000000000000  -0.000000000000000   0.000000000000000 0

# Energy components:
   Eewald =      -12.0320174002217755
       EH =        4.0235053405194527
     Eloc =      -17.5939450225572358
      Enl =        3.4321400273916467
   Epulay =       -0.0000000107257212
      Exc =       -3.1107810731713785
       KE =        5.1054856365438965
-------------------------------------
     Etot =      -20.1756125022211137
       TS =        0.0000005509500667
-------------------------------------
        F =      -20.1756130531711797

IonicMinimize: Iter:   0  F: -20.175613053171180  |grad|_K:  0.000e+00  t[s]:    117.71
IonicMinimize: Converged (|grad|_K<1.000000e-04).

#--- Lowdin population analysis ---
# oxidation-state Cs +0.068
# magnetic-moments Cs -0.616

End date and time: Sun Feb  6 13:12:16 2022  (Duration: 0-0:01:57.75)
Done!
