
*************** JDFTx 1.6.0 (git hash 42ebbcc2) ***************

Start date and time: Sun Feb  6 13:16:53 2022
Executable jdftx with command-line: -i Alkali.in
Running on hosts (process indices):  d-16-7-1 (0-18)
Divided in process groups (process indices):  0 (0)  1 (1)  2 (2)  3 (3)  4 (4)  5 (5)  6 (6)  7 (7)  8 (8)  9 (9)  10 (10)  11 (11)  12 (12)  13 (13)  14 (14)  15 (15)  16 (16)  17 (17)  18 (18)
Resource initialization completed at t[s]:      0.00
Run totals: 19 processes, 48 threads, 0 GPUs


Input parsed successfully to the following command list (including defaults):

basis kpoint-dependent
coords-type Lattice
core-overlap-check vector
coulomb-interaction Slab 001
davidson-band-ratio 1.1
dump End None
dump-name $INPUT.$VAR
elec-cutoff 20
elec-eigen-algo Davidson
elec-ex-corr gga-PBE
elec-initial-magnetization -0.440000 yes
elec-smearing Fermi 1e-05
electronic-minimize  \
	dirUpdateScheme      FletcherReeves \
	linminMethod         DirUpdateRecommended \
	nIterations          100 \
	history              15 \
	knormThreshold       0 \
	energyDiffThreshold  1e-08 \
	nEnergyDiff          2 \
	alphaTstart          1 \
	alphaTmin            1e-10 \
	updateTestStepSize   yes \
	alphaTreduceFactor   0.1 \
	alphaTincreaseFactor 3 \
	nAlphaAdjustMax      3 \
	wolfeEnergy          0.0001 \
	wolfeGradient        0.9 \
	fdTest               no
electronic-scf  \
	nIterations	10000 \
	energyDiffThreshold	1e-08 \
	residualThreshold	1e-07 \
	mixFraction	0.5 \
	qMetric	0.8 \
	history	10 \
	nEigSteps	2 \
	eigDiffThreshold	1e-08 \
	mixedVariable	Density \
	qKerker	0.8 \
	qKappa	-1 \
	verbose	no \
	mixFractionMag	1.5
exchange-regularization WignerSeitzTruncated
fluid None
fluid-ex-corr (null) lda-PZ
fluid-gummel-loop 10 1.000000e-05
fluid-minimize  \
	dirUpdateScheme      PolakRibiere \
	linminMethod         DirUpdateRecommended \
	nIterations          100 \
	history              15 \
	knormThreshold       0 \
	energyDiffThreshold  0 \
	nEnergyDiff          2 \
	alphaTstart          1 \
	alphaTmin            1e-10 \
	updateTestStepSize   yes \
	alphaTreduceFactor   0.1 \
	alphaTincreaseFactor 3 \
	nAlphaAdjustMax      3 \
	wolfeEnergy          0.0001 \
	wolfeGradient        0.9 \
	fdTest               no
fluid-solvent H2O 55.338 ScalarEOS \
	epsBulk 78.4 \
	pMol 0.92466 \
	epsInf 1.77 \
	Pvap 1.06736e-10 \
	sigmaBulk 4.62e-05 \
	Rvdw 2.61727 \
	Res 1.42 \
	tauNuc 343133 \
	poleEl 15 7 1
forces-output-coords Positions
ion Cs   0.000000000000000   0.000000000000000   0.000000000000000 0
ion-species SG15/$ID_ONCV_PBE.upf
ion-width 0
ionic-minimize  \
	dirUpdateScheme      L-BFGS \
	linminMethod         DirUpdateRecommended \
	nIterations          0 \
	history              15 \
	knormThreshold       0.0001 \
	energyDiffThreshold  1e-06 \
	nEnergyDiff          2 \
	alphaTstart          1 \
	alphaTmin            1e-10 \
	updateTestStepSize   yes \
	alphaTreduceFactor   0.1 \
	alphaTincreaseFactor 3 \
	nAlphaAdjustMax      3 \
	wolfeEnergy          0.0001 \
	wolfeGradient        0.9 \
	fdTest               no
kpoint   0.000000000000   0.000000000000   0.000000000000  1.00000000000000
kpoint-folding 12 12 1 
latt-move-scale 1 1 1
latt-scale 3 3 1 
lattice  \
	   4.727486978767153   -2.363743489383575    0.000000000000000  \
	  -0.000000000000000    4.094123819672498    0.000000000000000  \
	   0.000000000000000    0.000000000000000   40.000000000000000 
lattice-minimize  \
	dirUpdateScheme      L-BFGS \
	linminMethod         DirUpdateRecommended \
	nIterations          0 \
	history              15 \
	knormThreshold       0 \
	energyDiffThreshold  1e-06 \
	nEnergyDiff          2 \
	alphaTstart          1 \
	alphaTmin            1e-10 \
	updateTestStepSize   yes \
	alphaTreduceFactor   0.1 \
	alphaTincreaseFactor 3 \
	nAlphaAdjustMax      3 \
	wolfeEnergy          0.0001 \
	wolfeGradient        0.9 \
	fdTest               no
lcao-params -1 1e-06 1e-05
pcm-variant GLSSA13
spintype z-spin
subspace-rotation-factor 1 yes
symmetries automatic
symmetry-threshold 0.0001



---------- Setting up symmetries ----------

Found 24 point-group symmetries of the bravais lattice
Found 24 space-group symmetries with basis
Applied RMS atom displacement 0 bohrs to make symmetries exact.

---------- Initializing the Grid ----------
R = 
[      14.1825     -7.09123            0  ]
[            0      12.2824            0  ]
[            0            0           40  ]
unit cell volume = 6967.77
G =
[   0.443025   0.255781         -0  ]
[          0   0.511561         -0  ]
[         -0         -0    0.15708  ]
Minimum fftbox size, Smin = [  60  60  164  ]
Chosen fftbox size, S = [  60  60  168  ]

---------- Exchange Correlation functional ----------
Initalized PBE GGA exchange.
Initalized PBE GGA correlation.

---------- Setting up pseudopotentials ----------
Width of ionic core gaussian charges (only for fluid interactions / plotting) set to 0

Reading pseudopotential file '/home/gridsan/aligho/DFT/build-Nov24/pseudopotentials/SG15/Cs_ONCV_PBE.upf':
  'Cs' pseudopotential, 'PBE' functional
  Generated using ONCVPSP code by D. R. Hamann
  Author: Martin Schlipf and Francois Gygi  Date: 150915.
  9 valence electrons, 3 orbitals, 6 projectors, 2414 radial grid points, with lMax = 2
  Transforming local potential to a uniform radial grid of dG=0.02 with 1489 points.
  Transforming nonlocal projectors to a uniform radial grid of dG=0.02 with 432 points.
    5S    l: 0   occupation:  2.0   eigenvalue: -0.982388
    5P    l: 1   occupation:  6.0   eigenvalue: -0.496786
    6S    l: 0   occupation:  1.0   eigenvalue: -0.076670
  Transforming atomic orbitals to a uniform radial grid of dG=0.02 with 432 points.
  Core radius for overlap checks: 2.06 bohrs.
  Reading pulay file /home/gridsan/aligho/DFT/build-Nov24/pseudopotentials/SG15/Cs_ONCV_PBE.pulay ... using dE_dnG = -1.008762e-04 computed for Ecut = 20.

Initialized 1 species with 1 total atoms.

Folded 1 k-points by 12x12x1 to 144 k-points.

---------- Setting up k-points, bands, fillings ----------
Reduced to 19 k-points under symmetry. 
Computing the number of bands and number of electrons
Calculating initial fillings.
nElectrons:   9.000000   nBands: 6   nStates: 38

----- Setting up reduced wavefunction bases (one per k-point) -----
average nbasis = 29766.104 , ideal nbasis = 29766.845

---------- Setting up coulomb interaction ----------
Initialized slab truncation along lattice direction 001

---------- Setting up 2D ewald sum ----------
Optimum gaussian width for ewald sums = 7.873530 bohr.
Real space sums over 289 unit cells with max indices [  8  8  0  ]
Reciprocal space sums over 81 terms with max indices [  4  4  0  ]

---------- Allocating electronic variables ----------
Initializing wave functions:  linear combination of atomic orbitals
Note: number of bands (6) exceeds available atomic orbitals (5)
Cs pseudo-atom occupations:   s ( 2 1 )  p ( 6 )
	FillingsUpdate:  mu: -0.079222612  nElectrons: 9.000000  magneticMoment: [ Abs: 0.44000  Tot: -0.44000 ]
LCAOMinimize: Iter:   0  F: -20.1741428371011722  |grad|_K:  2.059e-05  alpha:  1.000e+00
	FillingsUpdate:  mu: -0.079218240  nElectrons: 9.000000  magneticMoment: [ Abs: 0.44000  Tot: -0.44000 ]
LCAOMinimize: Iter:   1  F: -20.1741431234529145  |grad|_K:  1.391e-07  alpha:  9.879e-01  linmin: -2.662e-02  cgtest:  4.838e-01  t[s]:      8.85
LCAOMinimize: Encountered beta<0, resetting CG.
	FillingsUpdate:  mu: -0.079218240  nElectrons: 9.000000  magneticMoment: [ Abs: 0.44000  Tot: -0.44000 ]
LCAOMinimize: Iter:   2  F: -20.1741431234662656  |grad|_K:  1.953e-09  alpha:  1.015e+00  linmin:  8.257e-02  cgtest: -9.976e-01  t[s]:     11.23
LCAOMinimize: Converged (|Delta F|<1.000000e-06 for 2 iters).


---- Citations for features of the code used in this run ----

   Software package:
      R. Sundararaman, K. Letchworth-Weaver, K.A. Schwarz, D. Gunceler, Y. Ozhabes and T.A. Arias, 'JDFTx: software for joint density-functional theory', SoftwareX 6, 278 (2017)

   gga-PBE exchange-correlation functional:
      J.P. Perdew, K. Burke and M. Ernzerhof, Phys. Rev. Lett. 77, 3865 (1996)

   Pseudopotentials:
      M Schlipf and F Gygi, Comput. Phys. Commun. 196, 36 (2015)

   Truncated Coulomb potentials:
      R. Sundararaman and T.A. Arias, Phys. Rev. B 87, 165122 (2013)

This list may not be complete. Please suggest additional citations or
report any other bugs at https://github.com/shankar1729/jdftx/issues

Initialization completed successfully at t[s]:     11.40


-------- Electronic minimization -----------
Will mix electronic density at each iteration.
	FillingsUpdate:  mu: -0.079218240  nElectrons: 9.000000  magneticMoment: [ Abs: 0.44000  Tot: -0.44000 ]
	FillingsUpdate:  mu: -0.082198828  nElectrons: 9.000000  magneticMoment: [ Abs: 0.44000  Tot: -0.44000 ]
SCF: Cycle:  0   F: -20.176607060722311   dF: -2.464e-03   |Residual|: 5.024e-03   |deigs|: 1.732e-01  t[s]:     16.20
	FillingsUpdate:  mu: -0.082466691  nElectrons: 9.000000  magneticMoment: [ Abs: 0.44000  Tot: -0.44000 ]
SCF: Cycle:  1   F: -20.176748939128252   dF: -1.419e-04   |Residual|: 4.361e-03   |deigs|: 4.897e-03  t[s]:     19.95
	FillingsUpdate:  mu: -0.082630564  nElectrons: 9.000000  magneticMoment: [ Abs: 0.44198  Tot: -0.44000 ]
SCF: Cycle:  2   F: -20.176830219204149   dF: -8.128e-05   |Residual|: 2.878e-03   |deigs|: 2.232e-03  t[s]:     23.80
	FillingsUpdate:  mu: -0.082713066  nElectrons: 9.000000  magneticMoment: [ Abs: 0.44221  Tot: -0.44000 ]
SCF: Cycle:  3   F: -20.176863798310080   dF: -3.358e-05   |Residual|: 1.988e-03   |deigs|: 1.727e-03  t[s]:     27.71
	FillingsUpdate:  mu: -0.082554154  nElectrons: 9.000000  magneticMoment: [ Abs: 0.44021  Tot: -0.44000 ]
SCF: Cycle:  4   F: -20.176882147144159   dF: -1.835e-05   |Residual|: 1.035e-03   |deigs|: 1.131e-03  t[s]:     31.67
	FillingsUpdate:  mu: -0.082455271  nElectrons: 9.000000  magneticMoment: [ Abs: 0.44038  Tot: -0.44000 ]
SCF: Cycle:  5   F: -20.176892940325068   dF: -1.079e-05   |Residual|: 7.449e-04   |deigs|: 8.193e-04  t[s]:     35.71
	FillingsUpdate:  mu: -0.082209575  nElectrons: 9.000000  magneticMoment: [ Abs: 0.44060  Tot: -0.44000 ]
SCF: Cycle:  6   F: -20.176898702241463   dF: -5.762e-06   |Residual|: 5.789e-04   |deigs|: 1.111e-03  t[s]:     39.79
	FillingsUpdate:  mu: -0.081820612  nElectrons: 9.000000  magneticMoment: [ Abs: 0.44154  Tot: -0.44000 ]
SCF: Cycle:  7   F: -20.176899536377384   dF: -8.341e-07   |Residual|: 4.938e-04   |deigs|: 5.585e-04  t[s]:     43.87
	FillingsUpdate:  mu: -0.081166869  nElectrons: 9.000000  magneticMoment: [ Abs: 0.44313  Tot: -0.44000 ]
SCF: Cycle:  8   F: -20.176896394795637   dF: +3.142e-06   |Residual|: 3.877e-04   |deigs|: 7.751e-04  t[s]:     48.03
	FillingsUpdate:  mu: -0.080479992  nElectrons: 9.000000  magneticMoment: [ Abs: 0.44268  Tot: -0.44000 ]
SCF: Cycle:  9   F: -20.176897334530899   dF: -9.397e-07   |Residual|: 3.673e-04   |deigs|: 8.899e-04  t[s]:     52.36
	FillingsUpdate:  mu: -0.080396915  nElectrons: 9.000000  magneticMoment: [ Abs: 0.44202  Tot: -0.44000 ]
SCF: Cycle: 10   F: -20.176900960807203   dF: -3.626e-06   |Residual|: 2.817e-04   |deigs|: 5.987e-04  t[s]:     56.69
	FillingsUpdate:  mu: -0.080120012  nElectrons: 9.000000  magneticMoment: [ Abs: 0.44318  Tot: -0.44000 ]
SCF: Cycle: 11   F: -20.176902556809836   dF: -1.596e-06   |Residual|: 2.499e-04   |deigs|: 7.654e-04  t[s]:     60.99
	FillingsUpdate:  mu: -0.079603057  nElectrons: 9.000000  magneticMoment: [ Abs: 0.44291  Tot: -0.44000 ]
SCF: Cycle: 12   F: -20.176901751250334   dF: +8.056e-07   |Residual|: 2.406e-04   |deigs|: 6.659e-04  t[s]:     65.27
	FillingsUpdate:  mu: -0.079031036  nElectrons: 9.000000  magneticMoment: [ Abs: 0.44142  Tot: -0.44000 ]
SCF: Cycle: 13   F: -20.176900837368770   dF: +9.139e-07   |Residual|: 2.318e-04   |deigs|: 6.615e-04  t[s]:     69.63
	FillingsUpdate:  mu: -0.078796108  nElectrons: 9.000000  magneticMoment: [ Abs: 0.44176  Tot: -0.44000 ]
SCF: Cycle: 14   F: -20.176902408870767   dF: -1.572e-06   |Residual|: 2.107e-04   |deigs|: 3.196e-04  t[s]:     73.94
	FillingsUpdate:  mu: -0.078527588  nElectrons: 9.000000  magneticMoment: [ Abs: 0.44182  Tot: -0.44000 ]
SCF: Cycle: 15   F: -20.176905020989082   dF: -2.612e-06   |Residual|: 1.659e-04   |deigs|: 3.236e-04  t[s]:     78.25
	FillingsUpdate:  mu: -0.078262791  nElectrons: 9.000000  magneticMoment: [ Abs: 0.44111  Tot: -0.44000 ]
SCF: Cycle: 16   F: -20.176906693870144   dF: -1.673e-06   |Residual|: 1.024e-04   |deigs|: 3.066e-04  t[s]:     82.54
	FillingsUpdate:  mu: -0.078177058  nElectrons: 9.000000  magneticMoment: [ Abs: 0.44063  Tot: -0.44000 ]
SCF: Cycle: 17   F: -20.176907035341706   dF: -3.415e-07   |Residual|: 7.296e-05   |deigs|: 1.204e-04  t[s]:     86.86
	FillingsUpdate:  mu: -0.078166712  nElectrons: 9.000000  magneticMoment: [ Abs: 0.44057  Tot: -0.44000 ]
SCF: Cycle: 18   F: -20.176907299723862   dF: -2.644e-07   |Residual|: 5.010e-05   |deigs|: 1.134e-04  t[s]:     91.15
	FillingsUpdate:  mu: -0.078201013  nElectrons: 9.000000  magneticMoment: [ Abs: 0.44061  Tot: -0.44000 ]
SCF: Cycle: 19   F: -20.176907423066840   dF: -1.233e-07   |Residual|: 2.833e-05   |deigs|: 1.268e-04  t[s]:     95.48
	FillingsUpdate:  mu: -0.078204241  nElectrons: 9.000000  magneticMoment: [ Abs: 0.44060  Tot: -0.44000 ]
SCF: Cycle: 20   F: -20.176907475410271   dF: -5.234e-08   |Residual|: 2.119e-05   |deigs|: 5.760e-05  t[s]:     99.86
	FillingsUpdate:  mu: -0.078215606  nElectrons: 9.000000  magneticMoment: [ Abs: 0.44061  Tot: -0.44000 ]
SCF: Cycle: 21   F: -20.176907495136991   dF: -1.973e-08   |Residual|: 1.439e-05   |deigs|: 7.689e-05  t[s]:    104.21
	FillingsUpdate:  mu: -0.078213930  nElectrons: 9.000000  magneticMoment: [ Abs: 0.44063  Tot: -0.44000 ]
SCF: Cycle: 22   F: -20.176907500735801   dF: -5.599e-09   |Residual|: 1.020e-05   |deigs|: 5.443e-05  t[s]:    108.54
	FillingsUpdate:  mu: -0.078217134  nElectrons: 9.000000  magneticMoment: [ Abs: 0.44064  Tot: -0.44000 ]
SCF: Cycle: 23   F: -20.176907505375993   dF: -4.640e-09   |Residual|: 5.285e-06   |deigs|: 4.396e-05  t[s]:    112.99
SCF: Converged (|Delta E|<1.000000e-08 for 2 iters).


# Ionic positions in lattice coordinates:
ion Cs   0.000000000000000   0.000000000000000   0.000000000000000 0

# Forces in Lattice coordinates:
force Cs   0.000000000000000   0.000000000000000   0.000000000000000 0

# Energy components:
   Eewald =      -12.0320174002217755
       EH =        4.0151152003713380
     Eloc =      -17.5846110242153202
      Enl =        3.4317980072387559
   Epulay =       -0.0000000107257212
      Exc =       -3.1091498439775842
       KE =        5.1019584248500340
-------------------------------------
     Etot =      -20.1769066466802727
       TS =        0.0000008586957218
-------------------------------------
        F =      -20.1769075053759934

IonicMinimize: Iter:   0  F: -20.176907505375993  |grad|_K:  0.000e+00  t[s]:    113.25
IonicMinimize: Converged (|grad|_K<1.000000e-04).

#--- Lowdin population analysis ---
# oxidation-state Cs +0.056
# magnetic-moments Cs -0.395

End date and time: Sun Feb  6 13:18:46 2022  (Duration: 0-0:01:53.30)
Done!
