
*************** JDFTx 1.6.0 (git hash 42ebbcc2) ***************

Start date and time: Sun Feb  6 13:10:14 2022
Executable jdftx with command-line: -i Alkali.in
Running on hosts (process indices):  d-6-13-4 (0-18)
Divided in process groups (process indices):  0 (0)  1 (1)  2 (2)  3 (3)  4 (4)  5 (5)  6 (6)  7 (7)  8 (8)  9 (9)  10 (10)  11 (11)  12 (12)  13 (13)  14 (14)  15 (15)  16 (16)  17 (17)  18 (18)
Resource initialization completed at t[s]:      0.00
Run totals: 19 processes, 48 threads, 0 GPUs


Input parsed successfully to the following command list (including defaults):

basis kpoint-dependent
coords-type Lattice
core-overlap-check vector
coulomb-interaction Slab 001
davidson-band-ratio 1.1
dump End None
dump-name $INPUT.$VAR
elec-cutoff 20
elec-eigen-algo Davidson
elec-ex-corr gga-PBE
elec-initial-magnetization -0.700000 yes
elec-smearing Fermi 1e-05
electronic-minimize  \
	dirUpdateScheme      FletcherReeves \
	linminMethod         DirUpdateRecommended \
	nIterations          100 \
	history              15 \
	knormThreshold       0 \
	energyDiffThreshold  1e-08 \
	nEnergyDiff          2 \
	alphaTstart          1 \
	alphaTmin            1e-10 \
	updateTestStepSize   yes \
	alphaTreduceFactor   0.1 \
	alphaTincreaseFactor 3 \
	nAlphaAdjustMax      3 \
	wolfeEnergy          0.0001 \
	wolfeGradient        0.9 \
	fdTest               no
electronic-scf  \
	nIterations	10000 \
	energyDiffThreshold	1e-08 \
	residualThreshold	1e-07 \
	mixFraction	0.5 \
	qMetric	0.8 \
	history	10 \
	nEigSteps	2 \
	eigDiffThreshold	1e-08 \
	mixedVariable	Density \
	qKerker	0.8 \
	qKappa	-1 \
	verbose	no \
	mixFractionMag	1.5
exchange-regularization WignerSeitzTruncated
fluid None
fluid-ex-corr (null) lda-PZ
fluid-gummel-loop 10 1.000000e-05
fluid-minimize  \
	dirUpdateScheme      PolakRibiere \
	linminMethod         DirUpdateRecommended \
	nIterations          100 \
	history              15 \
	knormThreshold       0 \
	energyDiffThreshold  0 \
	nEnergyDiff          2 \
	alphaTstart          1 \
	alphaTmin            1e-10 \
	updateTestStepSize   yes \
	alphaTreduceFactor   0.1 \
	alphaTincreaseFactor 3 \
	nAlphaAdjustMax      3 \
	wolfeEnergy          0.0001 \
	wolfeGradient        0.9 \
	fdTest               no
fluid-solvent H2O 55.338 ScalarEOS \
	epsBulk 78.4 \
	pMol 0.92466 \
	epsInf 1.77 \
	Pvap 1.06736e-10 \
	sigmaBulk 4.62e-05 \
	Rvdw 2.61727 \
	Res 1.42 \
	tauNuc 343133 \
	poleEl 15 7 1
forces-output-coords Positions
ion Cs   0.000000000000000   0.000000000000000   0.000000000000000 0
ion-species SG15/$ID_ONCV_PBE.upf
ion-width 0
ionic-minimize  \
	dirUpdateScheme      L-BFGS \
	linminMethod         DirUpdateRecommended \
	nIterations          0 \
	history              15 \
	knormThreshold       0.0001 \
	energyDiffThreshold  1e-06 \
	nEnergyDiff          2 \
	alphaTstart          1 \
	alphaTmin            1e-10 \
	updateTestStepSize   yes \
	alphaTreduceFactor   0.1 \
	alphaTincreaseFactor 3 \
	nAlphaAdjustMax      3 \
	wolfeEnergy          0.0001 \
	wolfeGradient        0.9 \
	fdTest               no
kpoint   0.000000000000   0.000000000000   0.000000000000  1.00000000000000
kpoint-folding 12 12 1 
latt-move-scale 1 1 1
latt-scale 3 3 1 
lattice  \
	   4.727486978767153   -2.363743489383575    0.000000000000000  \
	  -0.000000000000000    4.094123819672498    0.000000000000000  \
	   0.000000000000000    0.000000000000000   40.000000000000000 
lattice-minimize  \
	dirUpdateScheme      L-BFGS \
	linminMethod         DirUpdateRecommended \
	nIterations          0 \
	history              15 \
	knormThreshold       0 \
	energyDiffThreshold  1e-06 \
	nEnergyDiff          2 \
	alphaTstart          1 \
	alphaTmin            1e-10 \
	updateTestStepSize   yes \
	alphaTreduceFactor   0.1 \
	alphaTincreaseFactor 3 \
	nAlphaAdjustMax      3 \
	wolfeEnergy          0.0001 \
	wolfeGradient        0.9 \
	fdTest               no
lcao-params -1 1e-06 1e-05
pcm-variant GLSSA13
spintype z-spin
subspace-rotation-factor 1 yes
symmetries automatic
symmetry-threshold 0.0001



---------- Setting up symmetries ----------

Found 24 point-group symmetries of the bravais lattice
Found 24 space-group symmetries with basis
Applied RMS atom displacement 0 bohrs to make symmetries exact.

---------- Initializing the Grid ----------
R = 
[      14.1825     -7.09123            0  ]
[            0      12.2824            0  ]
[            0            0           40  ]
unit cell volume = 6967.77
G =
[   0.443025   0.255781         -0  ]
[          0   0.511561         -0  ]
[         -0         -0    0.15708  ]
Minimum fftbox size, Smin = [  60  60  164  ]
Chosen fftbox size, S = [  60  60  168  ]

---------- Exchange Correlation functional ----------
Initalized PBE GGA exchange.
Initalized PBE GGA correlation.

---------- Setting up pseudopotentials ----------
Width of ionic core gaussian charges (only for fluid interactions / plotting) set to 0

Reading pseudopotential file '/home/gridsan/aligho/DFT/build-Nov24/pseudopotentials/SG15/Cs_ONCV_PBE.upf':
  'Cs' pseudopotential, 'PBE' functional
  Generated using ONCVPSP code by D. R. Hamann
  Author: Martin Schlipf and Francois Gygi  Date: 150915.
  9 valence electrons, 3 orbitals, 6 projectors, 2414 radial grid points, with lMax = 2
  Transforming local potential to a uniform radial grid of dG=0.02 with 1489 points.
  Transforming nonlocal projectors to a uniform radial grid of dG=0.02 with 432 points.
    5S    l: 0   occupation:  2.0   eigenvalue: -0.982388
    5P    l: 1   occupation:  6.0   eigenvalue: -0.496786
    6S    l: 0   occupation:  1.0   eigenvalue: -0.076670
  Transforming atomic orbitals to a uniform radial grid of dG=0.02 with 432 points.
  Core radius for overlap checks: 2.06 bohrs.
  Reading pulay file /home/gridsan/aligho/DFT/build-Nov24/pseudopotentials/SG15/Cs_ONCV_PBE.pulay ... using dE_dnG = -1.008762e-04 computed for Ecut = 20.

Initialized 1 species with 1 total atoms.

Folded 1 k-points by 12x12x1 to 144 k-points.

---------- Setting up k-points, bands, fillings ----------
Reduced to 19 k-points under symmetry. 
Computing the number of bands and number of electrons
Calculating initial fillings.
nElectrons:   9.000000   nBands: 6   nStates: 38

----- Setting up reduced wavefunction bases (one per k-point) -----
average nbasis = 29766.104 , ideal nbasis = 29766.845

---------- Setting up coulomb interaction ----------
Initialized slab truncation along lattice direction 001

---------- Setting up 2D ewald sum ----------
Optimum gaussian width for ewald sums = 7.873530 bohr.
Real space sums over 289 unit cells with max indices [  8  8  0  ]
Reciprocal space sums over 81 terms with max indices [  4  4  0  ]

---------- Allocating electronic variables ----------
Initializing wave functions:  linear combination of atomic orbitals
Note: number of bands (6) exceeds available atomic orbitals (5)
Cs pseudo-atom occupations:   s ( 2 1 )  p ( 6 )
	FillingsUpdate:  mu: -0.081517936  nElectrons: 9.000000  magneticMoment: [ Abs: 0.70000  Tot: -0.70000 ]
LCAOMinimize: Iter:   0  F: -20.1725395295442134  |grad|_K:  1.333e-05  alpha:  1.000e+00
	FillingsUpdate:  mu: -0.081516010  nElectrons: 9.000000  magneticMoment: [ Abs: 0.70000  Tot: -0.70000 ]
LCAOMinimize: Iter:   1  F: -20.1725396502240635  |grad|_K:  8.631e-08  alpha:  9.923e-01  linmin: -1.423e-02  cgtest:  2.521e-01  t[s]:      8.80
LCAOMinimize: Encountered beta<0, resetting CG.
	FillingsUpdate:  mu: -0.081516025  nElectrons: 9.000000  magneticMoment: [ Abs: 0.70000  Tot: -0.70000 ]
LCAOMinimize: Iter:   2  F: -20.1725396502293144  |grad|_K:  1.727e-09  alpha:  1.018e+00  linmin:  1.509e-01  cgtest: -9.659e-01  t[s]:     11.16
LCAOMinimize: Converged (|Delta F|<1.000000e-06 for 2 iters).


---- Citations for features of the code used in this run ----

   Software package:
      R. Sundararaman, K. Letchworth-Weaver, K.A. Schwarz, D. Gunceler, Y. Ozhabes and T.A. Arias, 'JDFTx: software for joint density-functional theory', SoftwareX 6, 278 (2017)

   gga-PBE exchange-correlation functional:
      J.P. Perdew, K. Burke and M. Ernzerhof, Phys. Rev. Lett. 77, 3865 (1996)

   Pseudopotentials:
      M Schlipf and F Gygi, Comput. Phys. Commun. 196, 36 (2015)

   Truncated Coulomb potentials:
      R. Sundararaman and T.A. Arias, Phys. Rev. B 87, 165122 (2013)

This list may not be complete. Please suggest additional citations or
report any other bugs at https://github.com/shankar1729/jdftx/issues

Initialization completed successfully at t[s]:     11.32


-------- Electronic minimization -----------
Will mix electronic density at each iteration.
	FillingsUpdate:  mu: -0.081516025  nElectrons: 9.000000  magneticMoment: [ Abs: 0.70000  Tot: -0.70000 ]
	FillingsUpdate:  mu: -0.083340036  nElectrons: 9.000000  magneticMoment: [ Abs: 0.70000  Tot: -0.70000 ]
SCF: Cycle:  0   F: -20.175052511283614   dF: -2.513e-03   |Residual|: 5.317e-03   |deigs|: 1.735e-01  t[s]:     16.20
	FillingsUpdate:  mu: -0.083705922  nElectrons: 9.000000  magneticMoment: [ Abs: 0.70011  Tot: -0.70000 ]
SCF: Cycle:  1   F: -20.175249882454924   dF: -1.974e-04   |Residual|: 4.625e-03   |deigs|: 4.829e-03  t[s]:     19.93
	FillingsUpdate:  mu: -0.084118310  nElectrons: 9.000000  magneticMoment: [ Abs: 0.70177  Tot: -0.70000 ]
SCF: Cycle:  2   F: -20.175350718238171   dF: -1.008e-04   |Residual|: 3.512e-03   |deigs|: 2.821e-03  t[s]:     23.78
	FillingsUpdate:  mu: -0.084230419  nElectrons: 9.000000  magneticMoment: [ Abs: 0.70331  Tot: -0.70000 ]
SCF: Cycle:  3   F: -20.175422825214202   dF: -7.211e-05   |Residual|: 2.697e-03   |deigs|: 1.585e-03  t[s]:     27.64
	FillingsUpdate:  mu: -0.083750397  nElectrons: 9.000000  magneticMoment: [ Abs: 0.70066  Tot: -0.70000 ]
SCF: Cycle:  4   F: -20.175454305983102   dF: -3.148e-05   |Residual|: 1.267e-03   |deigs|: 1.376e-03  t[s]:     31.58
	FillingsUpdate:  mu: -0.083646352  nElectrons: 9.000000  magneticMoment: [ Abs: 0.70109  Tot: -0.70000 ]
SCF: Cycle:  5   F: -20.175470649257910   dF: -1.634e-05   |Residual|: 8.508e-04   |deigs|: 8.219e-04  t[s]:     35.64
	FillingsUpdate:  mu: -0.083518856  nElectrons: 9.000000  magneticMoment: [ Abs: 0.70128  Tot: -0.70000 ]
SCF: Cycle:  6   F: -20.175479708307897   dF: -9.059e-06   |Residual|: 6.592e-04   |deigs|: 4.560e-04  t[s]:     39.64
	FillingsUpdate:  mu: -0.083097764  nElectrons: 9.000000  magneticMoment: [ Abs: 0.70167  Tot: -0.70000 ]
SCF: Cycle:  7   F: -20.175481520855524   dF: -1.813e-06   |Residual|: 5.609e-04   |deigs|: 4.260e-04  t[s]:     43.79
	FillingsUpdate:  mu: -0.082226577  nElectrons: 9.000000  magneticMoment: [ Abs: 0.70403  Tot: -0.70000 ]
SCF: Cycle:  8   F: -20.175476931322368   dF: +4.590e-06   |Residual|: 4.268e-04   |deigs|: 9.078e-04  t[s]:     48.05
	FillingsUpdate:  mu: -0.081526407  nElectrons: 9.000000  magneticMoment: [ Abs: 0.70351  Tot: -0.70000 ]
SCF: Cycle:  9   F: -20.175476737671115   dF: +1.937e-07   |Residual|: 4.116e-04   |deigs|: 8.880e-04  t[s]:     52.30
	FillingsUpdate:  mu: -0.081565568  nElectrons: 9.000000  magneticMoment: [ Abs: 0.70184  Tot: -0.70000 ]
SCF: Cycle: 10   F: -20.175484341356821   dF: -7.604e-06   |Residual|: 2.899e-04   |deigs|: 3.840e-04  t[s]:     56.65
	FillingsUpdate:  mu: -0.081125605  nElectrons: 9.000000  magneticMoment: [ Abs: 0.70481  Tot: -0.70000 ]
SCF: Cycle: 11   F: -20.175485985262675   dF: -1.644e-06   |Residual|: 2.637e-04   |deigs|: 6.973e-04  t[s]:     60.95
	FillingsUpdate:  mu: -0.080615850  nElectrons: 9.000000  magneticMoment: [ Abs: 0.70466  Tot: -0.70000 ]
SCF: Cycle: 12   F: -20.175485842083990   dF: +1.432e-07   |Residual|: 2.607e-04   |deigs|: 5.348e-04  t[s]:     65.38
	FillingsUpdate:  mu: -0.080201656  nElectrons: 9.000000  magneticMoment: [ Abs: 0.70328  Tot: -0.70000 ]
SCF: Cycle: 13   F: -20.175485432896597   dF: +4.092e-07   |Residual|: 2.382e-04   |deigs|: 5.055e-04  t[s]:     69.77
	FillingsUpdate:  mu: -0.080032611  nElectrons: 9.000000  magneticMoment: [ Abs: 0.70324  Tot: -0.70000 ]
SCF: Cycle: 14   F: -20.175488035659757   dF: -2.603e-06   |Residual|: 2.163e-04   |deigs|: 4.352e-04  t[s]:     74.08
	FillingsUpdate:  mu: -0.079516382  nElectrons: 9.000000  magneticMoment: [ Abs: 0.70233  Tot: -0.70000 ]
SCF: Cycle: 15   F: -20.175490483830576   dF: -2.448e-06   |Residual|: 1.634e-04   |deigs|: 5.872e-04  t[s]:     78.37
	FillingsUpdate:  mu: -0.079160266  nElectrons: 9.000000  magneticMoment: [ Abs: 0.70165  Tot: -0.70000 ]
SCF: Cycle: 16   F: -20.175491531290280   dF: -1.047e-06   |Residual|: 1.174e-04   |deigs|: 3.897e-04  t[s]:     82.65
	FillingsUpdate:  mu: -0.079127715  nElectrons: 9.000000  magneticMoment: [ Abs: 0.70128  Tot: -0.70000 ]
SCF: Cycle: 17   F: -20.175491951367849   dF: -4.201e-07   |Residual|: 8.826e-05   |deigs|: 7.512e-05  t[s]:     86.91
	FillingsUpdate:  mu: -0.079156998  nElectrons: 9.000000  magneticMoment: [ Abs: 0.70123  Tot: -0.70000 ]
SCF: Cycle: 18   F: -20.175492256946391   dF: -3.056e-07   |Residual|: 6.378e-05   |deigs|: 8.051e-05  t[s]:     91.20
	FillingsUpdate:  mu: -0.079170858  nElectrons: 9.000000  magneticMoment: [ Abs: 0.70127  Tot: -0.70000 ]
SCF: Cycle: 19   F: -20.175492383339474   dF: -1.264e-07   |Residual|: 3.833e-05   |deigs|: 1.594e-04  t[s]:     95.49
	FillingsUpdate:  mu: -0.079161812  nElectrons: 9.000000  magneticMoment: [ Abs: 0.70135  Tot: -0.70000 ]
SCF: Cycle: 20   F: -20.175492444693187   dF: -6.135e-08   |Residual|: 2.306e-05   |deigs|: 2.829e-04  t[s]:     99.81
	FillingsUpdate:  mu: -0.079158206  nElectrons: 9.000000  magneticMoment: [ Abs: 0.70130  Tot: -0.70000 ]
SCF: Cycle: 21   F: -20.175492475215233   dF: -3.052e-08   |Residual|: 1.942e-05   |deigs|: 4.303e-04  t[s]:    104.18
	FillingsUpdate:  mu: -0.079162860  nElectrons: 9.000000  magneticMoment: [ Abs: 0.70135  Tot: -0.70000 ]
SCF: Cycle: 22   F: -20.175492523971108   dF: -4.876e-08   |Residual|: 9.882e-06   |deigs|: 1.764e-04  t[s]:    108.52
	FillingsUpdate:  mu: -0.079165842  nElectrons: 9.000000  magneticMoment: [ Abs: 0.70136  Tot: -0.70000 ]
SCF: Cycle: 23   F: -20.175492528386474   dF: -4.415e-09   |Residual|: 7.163e-06   |deigs|: 3.948e-05  t[s]:    112.80
	FillingsUpdate:  mu: -0.079165563  nElectrons: 9.000000  magneticMoment: [ Abs: 0.70137  Tot: -0.70000 ]
SCF: Cycle: 24   F: -20.175492531997829   dF: -3.611e-09   |Residual|: 6.568e-06   |deigs|: 4.767e-05  t[s]:    117.25
SCF: Converged (|Delta E|<1.000000e-08 for 2 iters).


# Ionic positions in lattice coordinates:
ion Cs   0.000000000000000   0.000000000000000   0.000000000000000 0

# Forces in Lattice coordinates:
force Cs   0.000000000000000   0.000000000000000   0.000000000000000 0

# Energy components:
   Eewald =      -12.0320174002217755
       EH =        4.0245963415873298
     Eloc =      -17.5951705977102044
      Enl =        3.4321977068218352
   Epulay =       -0.0000000107257212
      Exc =       -3.1109599414634337
       KE =        5.1058619492036446
-------------------------------------
     Etot =      -20.1754919525083238
       TS =        0.0000005794895062
-------------------------------------
        F =      -20.1754925319978291

IonicMinimize: Iter:   0  F: -20.175492531997829  |grad|_K:  0.000e+00  t[s]:    117.51
IonicMinimize: Converged (|grad|_K<1.000000e-04).

#--- Lowdin population analysis ---
# oxidation-state Cs +0.069
# magnetic-moments Cs -0.635

End date and time: Sun Feb  6 13:12:11 2022  (Duration: 0-0:01:57.55)
Done!
