
*************** JDFTx 1.6.0 (git hash 42ebbcc2) ***************

Start date and time: Sun Feb  6 13:16:49 2022
Executable jdftx with command-line: -i Alkali.in
Running on hosts (process indices):  d-16-8-3 (0-18)
Divided in process groups (process indices):  0 (0)  1 (1)  2 (2)  3 (3)  4 (4)  5 (5)  6 (6)  7 (7)  8 (8)  9 (9)  10 (10)  11 (11)  12 (12)  13 (13)  14 (14)  15 (15)  16 (16)  17 (17)  18 (18)
Resource initialization completed at t[s]:      0.00
Run totals: 19 processes, 48 threads, 0 GPUs


Input parsed successfully to the following command list (including defaults):

basis kpoint-dependent
coords-type Lattice
core-overlap-check vector
coulomb-interaction Slab 001
davidson-band-ratio 1.1
dump End None
dump-name $INPUT.$VAR
elec-cutoff 20
elec-eigen-algo Davidson
elec-ex-corr gga-PBE
elec-initial-magnetization -0.420000 yes
elec-smearing Fermi 1e-05
electronic-minimize  \
	dirUpdateScheme      FletcherReeves \
	linminMethod         DirUpdateRecommended \
	nIterations          100 \
	history              15 \
	knormThreshold       0 \
	energyDiffThreshold  1e-08 \
	nEnergyDiff          2 \
	alphaTstart          1 \
	alphaTmin            1e-10 \
	updateTestStepSize   yes \
	alphaTreduceFactor   0.1 \
	alphaTincreaseFactor 3 \
	nAlphaAdjustMax      3 \
	wolfeEnergy          0.0001 \
	wolfeGradient        0.9 \
	fdTest               no
electronic-scf  \
	nIterations	10000 \
	energyDiffThreshold	1e-08 \
	residualThreshold	1e-07 \
	mixFraction	0.5 \
	qMetric	0.8 \
	history	10 \
	nEigSteps	2 \
	eigDiffThreshold	1e-08 \
	mixedVariable	Density \
	qKerker	0.8 \
	qKappa	-1 \
	verbose	no \
	mixFractionMag	1.5
exchange-regularization WignerSeitzTruncated
fluid None
fluid-ex-corr (null) lda-PZ
fluid-gummel-loop 10 1.000000e-05
fluid-minimize  \
	dirUpdateScheme      PolakRibiere \
	linminMethod         DirUpdateRecommended \
	nIterations          100 \
	history              15 \
	knormThreshold       0 \
	energyDiffThreshold  0 \
	nEnergyDiff          2 \
	alphaTstart          1 \
	alphaTmin            1e-10 \
	updateTestStepSize   yes \
	alphaTreduceFactor   0.1 \
	alphaTincreaseFactor 3 \
	nAlphaAdjustMax      3 \
	wolfeEnergy          0.0001 \
	wolfeGradient        0.9 \
	fdTest               no
fluid-solvent H2O 55.338 ScalarEOS \
	epsBulk 78.4 \
	pMol 0.92466 \
	epsInf 1.77 \
	Pvap 1.06736e-10 \
	sigmaBulk 4.62e-05 \
	Rvdw 2.61727 \
	Res 1.42 \
	tauNuc 343133 \
	poleEl 15 7 1
forces-output-coords Positions
ion Cs   0.000000000000000   0.000000000000000   0.000000000000000 0
ion-species SG15/$ID_ONCV_PBE.upf
ion-width 0
ionic-minimize  \
	dirUpdateScheme      L-BFGS \
	linminMethod         DirUpdateRecommended \
	nIterations          0 \
	history              15 \
	knormThreshold       0.0001 \
	energyDiffThreshold  1e-06 \
	nEnergyDiff          2 \
	alphaTstart          1 \
	alphaTmin            1e-10 \
	updateTestStepSize   yes \
	alphaTreduceFactor   0.1 \
	alphaTincreaseFactor 3 \
	nAlphaAdjustMax      3 \
	wolfeEnergy          0.0001 \
	wolfeGradient        0.9 \
	fdTest               no
kpoint   0.000000000000   0.000000000000   0.000000000000  1.00000000000000
kpoint-folding 12 12 1 
latt-move-scale 1 1 1
latt-scale 3 3 1 
lattice  \
	   4.727486978767153   -2.363743489383575    0.000000000000000  \
	  -0.000000000000000    4.094123819672498    0.000000000000000  \
	   0.000000000000000    0.000000000000000   40.000000000000000 
lattice-minimize  \
	dirUpdateScheme      L-BFGS \
	linminMethod         DirUpdateRecommended \
	nIterations          0 \
	history              15 \
	knormThreshold       0 \
	energyDiffThreshold  1e-06 \
	nEnergyDiff          2 \
	alphaTstart          1 \
	alphaTmin            1e-10 \
	updateTestStepSize   yes \
	alphaTreduceFactor   0.1 \
	alphaTincreaseFactor 3 \
	nAlphaAdjustMax      3 \
	wolfeEnergy          0.0001 \
	wolfeGradient        0.9 \
	fdTest               no
lcao-params -1 1e-06 1e-05
pcm-variant GLSSA13
spintype z-spin
subspace-rotation-factor 1 yes
symmetries automatic
symmetry-threshold 0.0001



---------- Setting up symmetries ----------

Found 24 point-group symmetries of the bravais lattice
Found 24 space-group symmetries with basis
Applied RMS atom displacement 0 bohrs to make symmetries exact.

---------- Initializing the Grid ----------
R = 
[      14.1825     -7.09123            0  ]
[            0      12.2824            0  ]
[            0            0           40  ]
unit cell volume = 6967.77
G =
[   0.443025   0.255781         -0  ]
[          0   0.511561         -0  ]
[         -0         -0    0.15708  ]
Minimum fftbox size, Smin = [  60  60  164  ]
Chosen fftbox size, S = [  60  60  168  ]

---------- Exchange Correlation functional ----------
Initalized PBE GGA exchange.
Initalized PBE GGA correlation.

---------- Setting up pseudopotentials ----------
Width of ionic core gaussian charges (only for fluid interactions / plotting) set to 0

Reading pseudopotential file '/home/gridsan/aligho/DFT/build-Nov24/pseudopotentials/SG15/Cs_ONCV_PBE.upf':
  'Cs' pseudopotential, 'PBE' functional
  Generated using ONCVPSP code by D. R. Hamann
  Author: Martin Schlipf and Francois Gygi  Date: 150915.
  9 valence electrons, 3 orbitals, 6 projectors, 2414 radial grid points, with lMax = 2
  Transforming local potential to a uniform radial grid of dG=0.02 with 1489 points.
  Transforming nonlocal projectors to a uniform radial grid of dG=0.02 with 432 points.
    5S    l: 0   occupation:  2.0   eigenvalue: -0.982388
    5P    l: 1   occupation:  6.0   eigenvalue: -0.496786
    6S    l: 0   occupation:  1.0   eigenvalue: -0.076670
  Transforming atomic orbitals to a uniform radial grid of dG=0.02 with 432 points.
  Core radius for overlap checks: 2.06 bohrs.
  Reading pulay file /home/gridsan/aligho/DFT/build-Nov24/pseudopotentials/SG15/Cs_ONCV_PBE.pulay ... using dE_dnG = -1.008762e-04 computed for Ecut = 20.

Initialized 1 species with 1 total atoms.

Folded 1 k-points by 12x12x1 to 144 k-points.

---------- Setting up k-points, bands, fillings ----------
Reduced to 19 k-points under symmetry. 
Computing the number of bands and number of electrons
Calculating initial fillings.
nElectrons:   9.000000   nBands: 6   nStates: 38

----- Setting up reduced wavefunction bases (one per k-point) -----
average nbasis = 29766.104 , ideal nbasis = 29766.845

---------- Setting up coulomb interaction ----------
Initialized slab truncation along lattice direction 001

---------- Setting up 2D ewald sum ----------
Optimum gaussian width for ewald sums = 7.873530 bohr.
Real space sums over 289 unit cells with max indices [  8  8  0  ]
Reciprocal space sums over 81 terms with max indices [  4  4  0  ]

---------- Allocating electronic variables ----------
Initializing wave functions:  linear combination of atomic orbitals
Note: number of bands (6) exceeds available atomic orbitals (5)
Cs pseudo-atom occupations:   s ( 2 1 )  p ( 6 )
	FillingsUpdate:  mu: -0.079234561  nElectrons: 9.000000  magneticMoment: [ Abs: 0.42000  Tot: -0.42000 ]
LCAOMinimize: Iter:   0  F: -20.1742427871062837  |grad|_K:  2.107e-05  alpha:  1.000e+00
	FillingsUpdate:  mu: -0.079230057  nElectrons: 9.000000  magneticMoment: [ Abs: 0.42000  Tot: -0.42000 ]
LCAOMinimize: Iter:   1  F: -20.1742430870515825  |grad|_K:  1.432e-07  alpha:  9.877e-01  linmin: -2.725e-02  cgtest:  4.958e-01  t[s]:      8.66
LCAOMinimize: Encountered beta<0, resetting CG.
	FillingsUpdate:  mu: -0.079230057  nElectrons: 9.000000  magneticMoment: [ Abs: 0.42000  Tot: -0.42000 ]
LCAOMinimize: Iter:   2  F: -20.1742430870658751  |grad|_K:  1.766e-09  alpha:  1.013e+00  linmin:  8.066e-02  cgtest: -9.978e-01  t[s]:     10.98
LCAOMinimize: Converged (|Delta F|<1.000000e-06 for 2 iters).


---- Citations for features of the code used in this run ----

   Software package:
      R. Sundararaman, K. Letchworth-Weaver, K.A. Schwarz, D. Gunceler, Y. Ozhabes and T.A. Arias, 'JDFTx: software for joint density-functional theory', SoftwareX 6, 278 (2017)

   gga-PBE exchange-correlation functional:
      J.P. Perdew, K. Burke and M. Ernzerhof, Phys. Rev. Lett. 77, 3865 (1996)

   Pseudopotentials:
      M Schlipf and F Gygi, Comput. Phys. Commun. 196, 36 (2015)

   Truncated Coulomb potentials:
      R. Sundararaman and T.A. Arias, Phys. Rev. B 87, 165122 (2013)

This list may not be complete. Please suggest additional citations or
report any other bugs at https://github.com/shankar1729/jdftx/issues

Initialization completed successfully at t[s]:     11.14


-------- Electronic minimization -----------
Will mix electronic density at each iteration.
	FillingsUpdate:  mu: -0.079230057  nElectrons: 9.000000  magneticMoment: [ Abs: 0.42000  Tot: -0.42000 ]
	FillingsUpdate:  mu: -0.082221997  nElectrons: 9.000000  magneticMoment: [ Abs: 0.42000  Tot: -0.42000 ]
SCF: Cycle:  0   F: -20.176697466603354   dF: -2.454e-03   |Residual|: 4.971e-03   |deigs|: 1.731e-01  t[s]:     15.88
	FillingsUpdate:  mu: -0.082488527  nElectrons: 9.000000  magneticMoment: [ Abs: 0.42000  Tot: -0.42000 ]
SCF: Cycle:  1   F: -20.176836352971122   dF: -1.389e-04   |Residual|: 4.325e-03   |deigs|: 4.903e-03  t[s]:     19.56
	FillingsUpdate:  mu: -0.082655521  nElectrons: 9.000000  magneticMoment: [ Abs: 0.42210  Tot: -0.42000 ]
SCF: Cycle:  2   F: -20.176916591475301   dF: -8.024e-05   |Residual|: 2.802e-03   |deigs|: 2.188e-03  t[s]:     23.27
	FillingsUpdate:  mu: -0.082729998  nElectrons: 9.000000  magneticMoment: [ Abs: 0.42217  Tot: -0.42000 ]
SCF: Cycle:  3   F: -20.176948152775456   dF: -3.156e-05   |Residual|: 1.929e-03   |deigs|: 1.674e-03  t[s]:     27.04
	FillingsUpdate:  mu: -0.082571785  nElectrons: 9.000000  magneticMoment: [ Abs: 0.42019  Tot: -0.42000 ]
SCF: Cycle:  4   F: -20.176966169707274   dF: -1.802e-05   |Residual|: 1.016e-03   |deigs|: 1.203e-03  t[s]:     30.93
	FillingsUpdate:  mu: -0.082465087  nElectrons: 9.000000  magneticMoment: [ Abs: 0.42036  Tot: -0.42000 ]
SCF: Cycle:  5   F: -20.176976287516407   dF: -1.012e-05   |Residual|: 7.345e-04   |deigs|: 1.025e-03  t[s]:     34.88
	FillingsUpdate:  mu: -0.082209728  nElectrons: 9.000000  magneticMoment: [ Abs: 0.42060  Tot: -0.42000 ]
SCF: Cycle:  6   F: -20.176981700336679   dF: -5.413e-06   |Residual|: 5.721e-04   |deigs|: 9.826e-04  t[s]:     38.84
	FillingsUpdate:  mu: -0.081820481  nElectrons: 9.000000  magneticMoment: [ Abs: 0.42158  Tot: -0.42000 ]
SCF: Cycle:  7   F: -20.176982508857986   dF: -8.085e-07   |Residual|: 4.902e-04   |deigs|: 5.856e-04  t[s]:     42.81
	FillingsUpdate:  mu: -0.081160603  nElectrons: 9.000000  magneticMoment: [ Abs: 0.42310  Tot: -0.42000 ]
SCF: Cycle:  8   F: -20.176979243948725   dF: +3.265e-06   |Residual|: 3.871e-04   |deigs|: 7.751e-04  t[s]:     46.98
	FillingsUpdate:  mu: -0.080503012  nElectrons: 9.000000  magneticMoment: [ Abs: 0.42262  Tot: -0.42000 ]
SCF: Cycle:  9   F: -20.176980430674167   dF: -1.187e-06   |Residual|: 3.611e-04   |deigs|: 8.547e-04  t[s]:     51.21
	FillingsUpdate:  mu: -0.080427178  nElectrons: 9.000000  magneticMoment: [ Abs: 0.42198  Tot: -0.42000 ]
SCF: Cycle: 10   F: -20.176983896178850   dF: -3.466e-06   |Residual|: 2.786e-04   |deigs|: 5.733e-04  t[s]:     55.43
	FillingsUpdate:  mu: -0.080148959  nElectrons: 9.000000  magneticMoment: [ Abs: 0.42298  Tot: -0.42000 ]
SCF: Cycle: 11   F: -20.176985486529194   dF: -1.590e-06   |Residual|: 2.484e-04   |deigs|: 7.345e-04  t[s]:     59.71
	FillingsUpdate:  mu: -0.079646728  nElectrons: 9.000000  magneticMoment: [ Abs: 0.42275  Tot: -0.42000 ]
SCF: Cycle: 12   F: -20.176984712435598   dF: +7.741e-07   |Residual|: 2.400e-04   |deigs|: 6.865e-04  t[s]:     63.95
	FillingsUpdate:  mu: -0.079053663  nElectrons: 9.000000  magneticMoment: [ Abs: 0.42130  Tot: -0.42000 ]
SCF: Cycle: 13   F: -20.176983768037207   dF: +9.444e-07   |Residual|: 2.308e-04   |deigs|: 6.920e-04  t[s]:     68.19
	FillingsUpdate:  mu: -0.078793777  nElectrons: 9.000000  magneticMoment: [ Abs: 0.42160  Tot: -0.42000 ]
SCF: Cycle: 14   F: -20.176985236404438   dF: -1.468e-06   |Residual|: 2.103e-04   |deigs|: 3.442e-04  t[s]:     72.47
	FillingsUpdate:  mu: -0.078545605  nElectrons: 9.000000  magneticMoment: [ Abs: 0.42170  Tot: -0.42000 ]
SCF: Cycle: 15   F: -20.176987745699719   dF: -2.509e-06   |Residual|: 1.687e-04   |deigs|: 2.976e-04  t[s]:     76.73
	FillingsUpdate:  mu: -0.078310488  nElectrons: 9.000000  magneticMoment: [ Abs: 0.42111  Tot: -0.42000 ]
SCF: Cycle: 16   F: -20.176989493010492   dF: -1.747e-06   |Residual|: 1.049e-04   |deigs|: 2.660e-04  t[s]:     80.92
	FillingsUpdate:  mu: -0.078209651  nElectrons: 9.000000  magneticMoment: [ Abs: 0.42060  Tot: -0.42000 ]
SCF: Cycle: 17   F: -20.176989832141512   dF: -3.391e-07   |Residual|: 7.716e-05   |deigs|: 1.228e-04  t[s]:     85.13
	FillingsUpdate:  mu: -0.078178714  nElectrons: 9.000000  magneticMoment: [ Abs: 0.42054  Tot: -0.42000 ]
SCF: Cycle: 18   F: -20.176990149420025   dF: -3.173e-07   |Residual|: 5.134e-05   |deigs|: 7.013e-05  t[s]:     89.28
	FillingsUpdate:  mu: -0.078216053  nElectrons: 9.000000  magneticMoment: [ Abs: 0.42058  Tot: -0.42000 ]
SCF: Cycle: 19   F: -20.176990259485496   dF: -1.101e-07   |Residual|: 2.960e-05   |deigs|: 7.214e-05  t[s]:     93.53
	FillingsUpdate:  mu: -0.078226798  nElectrons: 9.000000  magneticMoment: [ Abs: 0.42057  Tot: -0.42000 ]
SCF: Cycle: 20   F: -20.176990301620879   dF: -4.214e-08   |Residual|: 2.331e-05   |deigs|: 6.022e-05  t[s]:     97.85
	FillingsUpdate:  mu: -0.078242609  nElectrons: 9.000000  magneticMoment: [ Abs: 0.42059  Tot: -0.42000 ]
SCF: Cycle: 21   F: -20.176990322498394   dF: -2.088e-08   |Residual|: 1.419e-05   |deigs|: 1.028e-04  t[s]:    102.06
	FillingsUpdate:  mu: -0.078241271  nElectrons: 9.000000  magneticMoment: [ Abs: 0.42059  Tot: -0.42000 ]
SCF: Cycle: 22   F: -20.176990328985081   dF: -6.487e-09   |Residual|: 1.056e-05   |deigs|: 7.400e-05  t[s]:    106.31
	FillingsUpdate:  mu: -0.078244315  nElectrons: 9.000000  magneticMoment: [ Abs: 0.42060  Tot: -0.42000 ]
SCF: Cycle: 23   F: -20.176990332349988   dF: -3.365e-09   |Residual|: 6.487e-06   |deigs|: 4.470e-05  t[s]:    110.51
SCF: Converged (|Delta E|<1.000000e-08 for 2 iters).


# Ionic positions in lattice coordinates:
ion Cs   0.000000000000000   0.000000000000000   0.000000000000000 0

# Forces in Lattice coordinates:
force Cs   0.000000000000000   0.000000000000000   0.000000000000000 0

# Energy components:
   Eewald =      -12.0320174002217755
       EH =        4.0146763088892801
     Eloc =      -17.5841261388293368
      Enl =        3.4317828987679118
   Epulay =       -0.0000000107257212
      Exc =       -3.1090503469662867
       KE =        5.1017451399498377
-------------------------------------
     Etot =      -20.1769895491360849
       TS =        0.0000007832139037
-------------------------------------
        F =      -20.1769903323499875

IonicMinimize: Iter:   0  F: -20.176990332349988  |grad|_K:  0.000e+00  t[s]:    110.76
IonicMinimize: Converged (|grad|_K<1.000000e-04).

#--- Lowdin population analysis ---
# oxidation-state Cs +0.054
# magnetic-moments Cs -0.377

End date and time: Sun Feb  6 13:18:40 2022  (Duration: 0-0:01:50.81)
Done!
