
*************** JDFTx 1.6.0 (git hash 42ebbcc2) ***************

Start date and time: Sun Feb  6 13:30:13 2022
Executable jdftx with command-line: -i Alkali.in
Running on hosts (process indices):  d-17-2-2 (0-18)
Divided in process groups (process indices):  0 (0)  1 (1)  2 (2)  3 (3)  4 (4)  5 (5)  6 (6)  7 (7)  8 (8)  9 (9)  10 (10)  11 (11)  12 (12)  13 (13)  14 (14)  15 (15)  16 (16)  17 (17)  18 (18)
Resource initialization completed at t[s]:      0.00
Run totals: 19 processes, 48 threads, 0 GPUs


Input parsed successfully to the following command list (including defaults):

basis kpoint-dependent
coords-type Lattice
core-overlap-check vector
coulomb-interaction Slab 001
davidson-band-ratio 1.1
dump End None
dump-name $INPUT.$VAR
elec-cutoff 20
elec-eigen-algo Davidson
elec-ex-corr gga-PBE
elec-initial-magnetization 0.600000 yes
elec-smearing Fermi 1e-05
electronic-minimize  \
	dirUpdateScheme      FletcherReeves \
	linminMethod         DirUpdateRecommended \
	nIterations          100 \
	history              15 \
	knormThreshold       0 \
	energyDiffThreshold  1e-08 \
	nEnergyDiff          2 \
	alphaTstart          1 \
	alphaTmin            1e-10 \
	updateTestStepSize   yes \
	alphaTreduceFactor   0.1 \
	alphaTincreaseFactor 3 \
	nAlphaAdjustMax      3 \
	wolfeEnergy          0.0001 \
	wolfeGradient        0.9 \
	fdTest               no
electronic-scf  \
	nIterations	10000 \
	energyDiffThreshold	1e-08 \
	residualThreshold	1e-07 \
	mixFraction	0.5 \
	qMetric	0.8 \
	history	10 \
	nEigSteps	2 \
	eigDiffThreshold	1e-08 \
	mixedVariable	Density \
	qKerker	0.8 \
	qKappa	-1 \
	verbose	no \
	mixFractionMag	1.5
exchange-regularization WignerSeitzTruncated
fluid None
fluid-ex-corr (null) lda-PZ
fluid-gummel-loop 10 1.000000e-05
fluid-minimize  \
	dirUpdateScheme      PolakRibiere \
	linminMethod         DirUpdateRecommended \
	nIterations          100 \
	history              15 \
	knormThreshold       0 \
	energyDiffThreshold  0 \
	nEnergyDiff          2 \
	alphaTstart          1 \
	alphaTmin            1e-10 \
	updateTestStepSize   yes \
	alphaTreduceFactor   0.1 \
	alphaTincreaseFactor 3 \
	nAlphaAdjustMax      3 \
	wolfeEnergy          0.0001 \
	wolfeGradient        0.9 \
	fdTest               no
fluid-solvent H2O 55.338 ScalarEOS \
	epsBulk 78.4 \
	pMol 0.92466 \
	epsInf 1.77 \
	Pvap 1.06736e-10 \
	sigmaBulk 4.62e-05 \
	Rvdw 2.61727 \
	Res 1.42 \
	tauNuc 343133 \
	poleEl 15 7 1
forces-output-coords Positions
ion Cs   0.000000000000000   0.000000000000000   0.000000000000000 0
ion-species SG15/$ID_ONCV_PBE.upf
ion-width 0
ionic-minimize  \
	dirUpdateScheme      L-BFGS \
	linminMethod         DirUpdateRecommended \
	nIterations          0 \
	history              15 \
	knormThreshold       0.0001 \
	energyDiffThreshold  1e-06 \
	nEnergyDiff          2 \
	alphaTstart          1 \
	alphaTmin            1e-10 \
	updateTestStepSize   yes \
	alphaTreduceFactor   0.1 \
	alphaTincreaseFactor 3 \
	nAlphaAdjustMax      3 \
	wolfeEnergy          0.0001 \
	wolfeGradient        0.9 \
	fdTest               no
kpoint   0.000000000000   0.000000000000   0.000000000000  1.00000000000000
kpoint-folding 12 12 1 
latt-move-scale 1 1 1
latt-scale 3 3 1 
lattice  \
	   4.727486978767153   -2.363743489383575    0.000000000000000  \
	  -0.000000000000000    4.094123819672498    0.000000000000000  \
	   0.000000000000000    0.000000000000000   40.000000000000000 
lattice-minimize  \
	dirUpdateScheme      L-BFGS \
	linminMethod         DirUpdateRecommended \
	nIterations          0 \
	history              15 \
	knormThreshold       0 \
	energyDiffThreshold  1e-06 \
	nEnergyDiff          2 \
	alphaTstart          1 \
	alphaTmin            1e-10 \
	updateTestStepSize   yes \
	alphaTreduceFactor   0.1 \
	alphaTincreaseFactor 3 \
	nAlphaAdjustMax      3 \
	wolfeEnergy          0.0001 \
	wolfeGradient        0.9 \
	fdTest               no
lcao-params -1 1e-06 1e-05
pcm-variant GLSSA13
spintype z-spin
subspace-rotation-factor 1 yes
symmetries automatic
symmetry-threshold 0.0001



---------- Setting up symmetries ----------

Found 24 point-group symmetries of the bravais lattice
Found 24 space-group symmetries with basis
Applied RMS atom displacement 0 bohrs to make symmetries exact.

---------- Initializing the Grid ----------
R = 
[      14.1825     -7.09123            0  ]
[            0      12.2824            0  ]
[            0            0           40  ]
unit cell volume = 6967.77
G =
[   0.443025   0.255781         -0  ]
[          0   0.511561         -0  ]
[         -0         -0    0.15708  ]
Minimum fftbox size, Smin = [  60  60  164  ]
Chosen fftbox size, S = [  60  60  168  ]

---------- Exchange Correlation functional ----------
Initalized PBE GGA exchange.
Initalized PBE GGA correlation.

---------- Setting up pseudopotentials ----------
Width of ionic core gaussian charges (only for fluid interactions / plotting) set to 0

Reading pseudopotential file '/home/gridsan/aligho/DFT/build-Nov24/pseudopotentials/SG15/Cs_ONCV_PBE.upf':
  'Cs' pseudopotential, 'PBE' functional
  Generated using ONCVPSP code by D. R. Hamann
  Author: Martin Schlipf and Francois Gygi  Date: 150915.
  9 valence electrons, 3 orbitals, 6 projectors, 2414 radial grid points, with lMax = 2
  Transforming local potential to a uniform radial grid of dG=0.02 with 1489 points.
  Transforming nonlocal projectors to a uniform radial grid of dG=0.02 with 432 points.
    5S    l: 0   occupation:  2.0   eigenvalue: -0.982388
    5P    l: 1   occupation:  6.0   eigenvalue: -0.496786
    6S    l: 0   occupation:  1.0   eigenvalue: -0.076670
  Transforming atomic orbitals to a uniform radial grid of dG=0.02 with 432 points.
  Core radius for overlap checks: 2.06 bohrs.
  Reading pulay file /home/gridsan/aligho/DFT/build-Nov24/pseudopotentials/SG15/Cs_ONCV_PBE.pulay ... using dE_dnG = -1.008762e-04 computed for Ecut = 20.

Initialized 1 species with 1 total atoms.

Folded 1 k-points by 12x12x1 to 144 k-points.

---------- Setting up k-points, bands, fillings ----------
Reduced to 19 k-points under symmetry. 
Computing the number of bands and number of electrons
Calculating initial fillings.
nElectrons:   9.000000   nBands: 6   nStates: 38

----- Setting up reduced wavefunction bases (one per k-point) -----
average nbasis = 29766.104 , ideal nbasis = 29766.845

---------- Setting up coulomb interaction ----------
Initialized slab truncation along lattice direction 001

---------- Setting up 2D ewald sum ----------
Optimum gaussian width for ewald sums = 7.873530 bohr.
Real space sums over 289 unit cells with max indices [  8  8  0  ]
Reciprocal space sums over 81 terms with max indices [  4  4  0  ]

---------- Allocating electronic variables ----------
Initializing wave functions:  linear combination of atomic orbitals
Note: number of bands (6) exceeds available atomic orbitals (5)
Cs pseudo-atom occupations:   s ( 2 1 )  p ( 6 )
	FillingsUpdate:  mu: -0.081774355  nElectrons: 9.000000  magneticMoment: [ Abs: 0.60000  Tot: +0.60000 ]
LCAOMinimize: Iter:   0  F: -20.1731921900850466  |grad|_K:  1.546e-05  alpha:  1.000e+00
	FillingsUpdate:  mu: -0.081771291  nElectrons: 9.000000  magneticMoment: [ Abs: 0.60000  Tot: +0.60000 ]
LCAOMinimize: Iter:   1  F: -20.1731923516763771  |grad|_K:  9.311e-08  alpha:  9.887e-01  linmin: -2.250e-02  cgtest:  4.193e-01  t[s]:      8.83
LCAOMinimize: Encountered beta<0, resetting CG.
	FillingsUpdate:  mu: -0.081771295  nElectrons: 9.000000  magneticMoment: [ Abs: 0.60000  Tot: +0.60000 ]
LCAOMinimize: Iter:   2  F: -20.1731923516821468  |grad|_K:  3.269e-10  alpha:  1.004e+00  linmin:  7.401e-02  cgtest: -9.384e-01  t[s]:     11.23
LCAOMinimize: Converged (|Delta F|<1.000000e-06 for 2 iters).


---- Citations for features of the code used in this run ----

   Software package:
      R. Sundararaman, K. Letchworth-Weaver, K.A. Schwarz, D. Gunceler, Y. Ozhabes and T.A. Arias, 'JDFTx: software for joint density-functional theory', SoftwareX 6, 278 (2017)

   gga-PBE exchange-correlation functional:
      J.P. Perdew, K. Burke and M. Ernzerhof, Phys. Rev. Lett. 77, 3865 (1996)

   Pseudopotentials:
      M Schlipf and F Gygi, Comput. Phys. Commun. 196, 36 (2015)

   Truncated Coulomb potentials:
      R. Sundararaman and T.A. Arias, Phys. Rev. B 87, 165122 (2013)

This list may not be complete. Please suggest additional citations or
report any other bugs at https://github.com/shankar1729/jdftx/issues

Initialization completed successfully at t[s]:     11.40


-------- Electronic minimization -----------
Will mix electronic density at each iteration.
	FillingsUpdate:  mu: -0.081771295  nElectrons: 9.000000  magneticMoment: [ Abs: 0.60000  Tot: +0.60000 ]
	FillingsUpdate:  mu: -0.083860195  nElectrons: 9.000000  magneticMoment: [ Abs: 0.60000  Tot: +0.60000 ]
SCF: Cycle:  0   F: -20.175710772963427   dF: -2.518e-03   |Residual|: 5.275e-03   |deigs|: 1.734e-01  t[s]:     16.21
	FillingsUpdate:  mu: -0.084143560  nElectrons: 9.000000  magneticMoment: [ Abs: 0.60004  Tot: +0.60000 ]
SCF: Cycle:  1   F: -20.175883513552296   dF: -1.727e-04   |Residual|: 4.574e-03   |deigs|: 5.036e-03  t[s]:     19.95
	FillingsUpdate:  mu: -0.084314283  nElectrons: 9.000000  magneticMoment: [ Abs: 0.60160  Tot: +0.60000 ]
SCF: Cycle:  2   F: -20.175976283655960   dF: -9.277e-05   |Residual|: 3.319e-03   |deigs|: 2.194e-03  t[s]:     23.79
	FillingsUpdate:  mu: -0.084411204  nElectrons: 9.000000  magneticMoment: [ Abs: 0.60287  Tot: +0.60000 ]
SCF: Cycle:  3   F: -20.176028547620263   dF: -5.226e-05   |Residual|: 2.428e-03   |deigs|: 1.460e-03  t[s]:     27.63
	FillingsUpdate:  mu: -0.084150054  nElectrons: 9.000000  magneticMoment: [ Abs: 0.60043  Tot: +0.60000 ]
SCF: Cycle:  4   F: -20.176050484600893   dF: -2.194e-05   |Residual|: 1.186e-03   |deigs|: 1.175e-03  t[s]:     31.51
	FillingsUpdate:  mu: -0.084109100  nElectrons: 9.000000  magneticMoment: [ Abs: 0.60071  Tot: +0.60000 ]
SCF: Cycle:  5   F: -20.176065874083658   dF: -1.539e-05   |Residual|: 8.145e-04   |deigs|: 5.427e-04  t[s]:     35.53
	FillingsUpdate:  mu: -0.083965843  nElectrons: 9.000000  magneticMoment: [ Abs: 0.60097  Tot: +0.60000 ]
SCF: Cycle:  6   F: -20.176074633793068   dF: -8.760e-06   |Residual|: 6.248e-04   |deigs|: 6.460e-04  t[s]:     39.73
	FillingsUpdate:  mu: -0.083590159  nElectrons: 9.000000  magneticMoment: [ Abs: 0.60143  Tot: +0.60000 ]
SCF: Cycle:  7   F: -20.176076160052620   dF: -1.526e-06   |Residual|: 5.382e-04   |deigs|: 4.194e-04  t[s]:     43.86
	FillingsUpdate:  mu: -0.082873807  nElectrons: 9.000000  magneticMoment: [ Abs: 0.60347  Tot: +0.60000 ]
SCF: Cycle:  8   F: -20.176072793191420   dF: +3.367e-06   |Residual|: 4.083e-04   |deigs|: 8.132e-04  t[s]:     48.11
	FillingsUpdate:  mu: -0.082098731  nElectrons: 9.000000  magneticMoment: [ Abs: 0.60349  Tot: +0.60000 ]
SCF: Cycle:  9   F: -20.176072249711297   dF: +5.435e-07   |Residual|: 3.914e-04   |deigs|: 1.227e-03  t[s]:     52.35
	FillingsUpdate:  mu: -0.082061166  nElectrons: 9.000000  magneticMoment: [ Abs: 0.60190  Tot: +0.60000 ]
SCF: Cycle: 10   F: -20.176078007196491   dF: -5.757e-06   |Residual|: 2.882e-04   |deigs|: 3.185e-04  t[s]:     56.64
	FillingsUpdate:  mu: -0.081725833  nElectrons: 9.000000  magneticMoment: [ Abs: 0.60423  Tot: +0.60000 ]
SCF: Cycle: 11   F: -20.176079957636222   dF: -1.950e-06   |Residual|: 2.564e-04   |deigs|: 7.296e-04  t[s]:     60.96
	FillingsUpdate:  mu: -0.081159532  nElectrons: 9.000000  magneticMoment: [ Abs: 0.60412  Tot: +0.60000 ]
SCF: Cycle: 12   F: -20.176079232071690   dF: +7.256e-07   |Residual|: 2.508e-04   |deigs|: 6.434e-04  t[s]:     65.25
	FillingsUpdate:  mu: -0.080661649  nElectrons: 9.000000  magneticMoment: [ Abs: 0.60242  Tot: +0.60000 ]
SCF: Cycle: 13   F: -20.176078495165935   dF: +7.369e-07   |Residual|: 2.367e-04   |deigs|: 5.535e-04  t[s]:     69.55
	FillingsUpdate:  mu: -0.080554074  nElectrons: 9.000000  magneticMoment: [ Abs: 0.60288  Tot: +0.60000 ]
SCF: Cycle: 14   F: -20.176080938026651   dF: -2.443e-06   |Residual|: 2.148e-04   |deigs|: 3.153e-04  t[s]:     73.95
	FillingsUpdate:  mu: -0.080153885  nElectrons: 9.000000  magneticMoment: [ Abs: 0.60222  Tot: +0.60000 ]
SCF: Cycle: 15   F: -20.176083689180622   dF: -2.751e-06   |Residual|: 1.563e-04   |deigs|: 5.544e-04  t[s]:     78.21
	FillingsUpdate:  mu: -0.079708804  nElectrons: 9.000000  magneticMoment: [ Abs: 0.60126  Tot: +0.60000 ]
SCF: Cycle: 16   F: -20.176084798667976   dF: -1.109e-06   |Residual|: 1.078e-04   |deigs|: 5.173e-04  t[s]:     82.50
	FillingsUpdate:  mu: -0.079692031  nElectrons: 9.000000  magneticMoment: [ Abs: 0.60093  Tot: +0.60000 ]
SCF: Cycle: 17   F: -20.176085132788479   dF: -3.341e-07   |Residual|: 8.435e-05   |deigs|: 2.399e-04  t[s]:     86.75
	FillingsUpdate:  mu: -0.079749283  nElectrons: 9.000000  magneticMoment: [ Abs: 0.60092  Tot: +0.60000 ]
SCF: Cycle: 18   F: -20.176085395577690   dF: -2.628e-07   |Residual|: 5.628e-05   |deigs|: 2.352e-04  t[s]:     91.02
	FillingsUpdate:  mu: -0.079740699  nElectrons: 9.000000  magneticMoment: [ Abs: 0.60097  Tot: +0.60000 ]
SCF: Cycle: 19   F: -20.176085540845932   dF: -1.453e-07   |Residual|: 3.540e-05   |deigs|: 4.130e-04  t[s]:     95.36
	FillingsUpdate:  mu: -0.079746334  nElectrons: 9.000000  magneticMoment: [ Abs: 0.60100  Tot: +0.60000 ]
SCF: Cycle: 20   F: -20.176085615514996   dF: -7.467e-08   |Residual|: 2.007e-05   |deigs|: 4.706e-04  t[s]:     99.61
	FillingsUpdate:  mu: -0.079740226  nElectrons: 9.000000  magneticMoment: [ Abs: 0.60101  Tot: +0.60000 ]
SCF: Cycle: 21   F: -20.176085630997548   dF: -1.548e-08   |Residual|: 1.618e-05   |deigs|: 2.115e-04  t[s]:    103.89
	FillingsUpdate:  mu: -0.079746228  nElectrons: 9.000000  magneticMoment: [ Abs: 0.60104  Tot: +0.60000 ]
SCF: Cycle: 22   F: -20.176085649828220   dF: -1.883e-08   |Residual|: 1.074e-05   |deigs|: 9.260e-05  t[s]:    108.26
	FillingsUpdate:  mu: -0.079751811  nElectrons: 9.000000  magneticMoment: [ Abs: 0.60101  Tot: +0.60000 ]
SCF: Cycle: 23   F: -20.176085655102121   dF: -5.274e-09   |Residual|: 6.953e-06   |deigs|: 3.350e-05  t[s]:    112.56
	FillingsUpdate:  mu: -0.079750421  nElectrons: 9.000000  magneticMoment: [ Abs: 0.60103  Tot: +0.60000 ]
SCF: Cycle: 24   F: -20.176085662088806   dF: -6.987e-09   |Residual|: 5.635e-06   |deigs|: 2.392e-05  t[s]:    116.91
SCF: Converged (|Delta E|<1.000000e-08 for 2 iters).


# Ionic positions in lattice coordinates:
ion Cs   0.000000000000000   0.000000000000000   0.000000000000000 0

# Forces in Lattice coordinates:
force Cs  -0.000000000000000   0.000000000000000   0.000000000000000 0

# Energy components:
   Eewald =      -12.0320174002217755
       EH =        4.0201153923054704
     Eloc =      -17.5901685127499618
      Enl =        3.4319926443942617
   Epulay =       -0.0000000107257212
      Exc =       -3.1101547621052319
       KE =        5.1041479611825196
-------------------------------------
     Etot =      -20.1760846879204365
       TS =        0.0000009741683674
-------------------------------------
        F =      -20.1760856620888056

IonicMinimize: Iter:   0  F: -20.176085662088806  |grad|_K:  0.000e+00  t[s]:    117.17
IonicMinimize: Converged (|grad|_K<1.000000e-04).

#--- Lowdin population analysis ---
# oxidation-state Cs +0.065
# magnetic-moments Cs +0.541

End date and time: Sun Feb  6 13:32:11 2022  (Duration: 0-0:01:57.21)
Done!
