
*************** JDFTx 1.6.0 (git hash 42ebbcc2) ***************

Start date and time: Sun Feb  6 13:29:38 2022
Executable jdftx with command-line: -i Alkali.in
Running on hosts (process indices):  d-4-5-2 (0-18)
Divided in process groups (process indices):  0 (0)  1 (1)  2 (2)  3 (3)  4 (4)  5 (5)  6 (6)  7 (7)  8 (8)  9 (9)  10 (10)  11 (11)  12 (12)  13 (13)  14 (14)  15 (15)  16 (16)  17 (17)  18 (18)
Resource initialization completed at t[s]:      0.00
Run totals: 19 processes, 48 threads, 0 GPUs


Input parsed successfully to the following command list (including defaults):

basis kpoint-dependent
coords-type Lattice
core-overlap-check vector
coulomb-interaction Slab 001
davidson-band-ratio 1.1
dump End None
dump-name $INPUT.$VAR
elec-cutoff 20
elec-eigen-algo Davidson
elec-ex-corr gga-PBE
elec-initial-magnetization 0.460000 yes
elec-smearing Fermi 1e-05
electronic-minimize  \
	dirUpdateScheme      FletcherReeves \
	linminMethod         DirUpdateRecommended \
	nIterations          100 \
	history              15 \
	knormThreshold       0 \
	energyDiffThreshold  1e-08 \
	nEnergyDiff          2 \
	alphaTstart          1 \
	alphaTmin            1e-10 \
	updateTestStepSize   yes \
	alphaTreduceFactor   0.1 \
	alphaTincreaseFactor 3 \
	nAlphaAdjustMax      3 \
	wolfeEnergy          0.0001 \
	wolfeGradient        0.9 \
	fdTest               no
electronic-scf  \
	nIterations	10000 \
	energyDiffThreshold	1e-08 \
	residualThreshold	1e-07 \
	mixFraction	0.5 \
	qMetric	0.8 \
	history	10 \
	nEigSteps	2 \
	eigDiffThreshold	1e-08 \
	mixedVariable	Density \
	qKerker	0.8 \
	qKappa	-1 \
	verbose	no \
	mixFractionMag	1.5
exchange-regularization WignerSeitzTruncated
fluid None
fluid-ex-corr (null) lda-PZ
fluid-gummel-loop 10 1.000000e-05
fluid-minimize  \
	dirUpdateScheme      PolakRibiere \
	linminMethod         DirUpdateRecommended \
	nIterations          100 \
	history              15 \
	knormThreshold       0 \
	energyDiffThreshold  0 \
	nEnergyDiff          2 \
	alphaTstart          1 \
	alphaTmin            1e-10 \
	updateTestStepSize   yes \
	alphaTreduceFactor   0.1 \
	alphaTincreaseFactor 3 \
	nAlphaAdjustMax      3 \
	wolfeEnergy          0.0001 \
	wolfeGradient        0.9 \
	fdTest               no
fluid-solvent H2O 55.338 ScalarEOS \
	epsBulk 78.4 \
	pMol 0.92466 \
	epsInf 1.77 \
	Pvap 1.06736e-10 \
	sigmaBulk 4.62e-05 \
	Rvdw 2.61727 \
	Res 1.42 \
	tauNuc 343133 \
	poleEl 15 7 1
forces-output-coords Positions
ion Cs   0.000000000000000   0.000000000000000   0.000000000000000 0
ion-species SG15/$ID_ONCV_PBE.upf
ion-width 0
ionic-minimize  \
	dirUpdateScheme      L-BFGS \
	linminMethod         DirUpdateRecommended \
	nIterations          0 \
	history              15 \
	knormThreshold       0.0001 \
	energyDiffThreshold  1e-06 \
	nEnergyDiff          2 \
	alphaTstart          1 \
	alphaTmin            1e-10 \
	updateTestStepSize   yes \
	alphaTreduceFactor   0.1 \
	alphaTincreaseFactor 3 \
	nAlphaAdjustMax      3 \
	wolfeEnergy          0.0001 \
	wolfeGradient        0.9 \
	fdTest               no
kpoint   0.000000000000   0.000000000000   0.000000000000  1.00000000000000
kpoint-folding 12 12 1 
latt-move-scale 1 1 1
latt-scale 3 3 1 
lattice  \
	   4.727486978767153   -2.363743489383575    0.000000000000000  \
	  -0.000000000000000    4.094123819672498    0.000000000000000  \
	   0.000000000000000    0.000000000000000   40.000000000000000 
lattice-minimize  \
	dirUpdateScheme      L-BFGS \
	linminMethod         DirUpdateRecommended \
	nIterations          0 \
	history              15 \
	knormThreshold       0 \
	energyDiffThreshold  1e-06 \
	nEnergyDiff          2 \
	alphaTstart          1 \
	alphaTmin            1e-10 \
	updateTestStepSize   yes \
	alphaTreduceFactor   0.1 \
	alphaTincreaseFactor 3 \
	nAlphaAdjustMax      3 \
	wolfeEnergy          0.0001 \
	wolfeGradient        0.9 \
	fdTest               no
lcao-params -1 1e-06 1e-05
pcm-variant GLSSA13
spintype z-spin
subspace-rotation-factor 1 yes
symmetries automatic
symmetry-threshold 0.0001



---------- Setting up symmetries ----------

Found 24 point-group symmetries of the bravais lattice
Found 24 space-group symmetries with basis
Applied RMS atom displacement 0 bohrs to make symmetries exact.

---------- Initializing the Grid ----------
R = 
[      14.1825     -7.09123            0  ]
[            0      12.2824            0  ]
[            0            0           40  ]
unit cell volume = 6967.77
G =
[   0.443025   0.255781         -0  ]
[          0   0.511561         -0  ]
[         -0         -0    0.15708  ]
Minimum fftbox size, Smin = [  60  60  164  ]
Chosen fftbox size, S = [  60  60  168  ]

---------- Exchange Correlation functional ----------
Initalized PBE GGA exchange.
Initalized PBE GGA correlation.

---------- Setting up pseudopotentials ----------
Width of ionic core gaussian charges (only for fluid interactions / plotting) set to 0

Reading pseudopotential file '/home/gridsan/aligho/DFT/build-Nov24/pseudopotentials/SG15/Cs_ONCV_PBE.upf':
  'Cs' pseudopotential, 'PBE' functional
  Generated using ONCVPSP code by D. R. Hamann
  Author: Martin Schlipf and Francois Gygi  Date: 150915.
  9 valence electrons, 3 orbitals, 6 projectors, 2414 radial grid points, with lMax = 2
  Transforming local potential to a uniform radial grid of dG=0.02 with 1489 points.
  Transforming nonlocal projectors to a uniform radial grid of dG=0.02 with 432 points.
    5S    l: 0   occupation:  2.0   eigenvalue: -0.982388
    5P    l: 1   occupation:  6.0   eigenvalue: -0.496786
    6S    l: 0   occupation:  1.0   eigenvalue: -0.076670
  Transforming atomic orbitals to a uniform radial grid of dG=0.02 with 432 points.
  Core radius for overlap checks: 2.06 bohrs.
  Reading pulay file /home/gridsan/aligho/DFT/build-Nov24/pseudopotentials/SG15/Cs_ONCV_PBE.pulay ... using dE_dnG = -1.008762e-04 computed for Ecut = 20.

Initialized 1 species with 1 total atoms.

Folded 1 k-points by 12x12x1 to 144 k-points.

---------- Setting up k-points, bands, fillings ----------
Reduced to 19 k-points under symmetry. 
Computing the number of bands and number of electrons
Calculating initial fillings.
nElectrons:   9.000000   nBands: 6   nStates: 38

----- Setting up reduced wavefunction bases (one per k-point) -----
average nbasis = 29766.104 , ideal nbasis = 29766.845

---------- Setting up coulomb interaction ----------
Initialized slab truncation along lattice direction 001

---------- Setting up 2D ewald sum ----------
Optimum gaussian width for ewald sums = 7.873530 bohr.
Real space sums over 289 unit cells with max indices [  8  8  0  ]
Reciprocal space sums over 81 terms with max indices [  4  4  0  ]

---------- Allocating electronic variables ----------
Initializing wave functions:  linear combination of atomic orbitals
Note: number of bands (6) exceeds available atomic orbitals (5)
Cs pseudo-atom occupations:   s ( 2 1 )  p ( 6 )
	FillingsUpdate:  mu: -0.079204490  nElectrons: 9.000000  magneticMoment: [ Abs: 0.46000  Tot: +0.46000 ]
LCAOMinimize: Iter:   0  F: -20.1740453747288235  |grad|_K:  1.954e-05  alpha:  1.000e+00
	FillingsUpdate:  mu: -0.079200471  nElectrons: 9.000000  magneticMoment: [ Abs: 0.46000  Tot: +0.46000 ]
LCAOMinimize: Iter:   1  F: -20.1740456324145683  |grad|_K:  1.248e-07  alpha:  9.872e-01  linmin: -2.818e-02  cgtest:  5.214e-01  t[s]:      8.71
LCAOMinimize: Encountered beta<0, resetting CG.
	FillingsUpdate:  mu: -0.079200472  nElectrons: 9.000000  magneticMoment: [ Abs: 0.46000  Tot: +0.46000 ]
LCAOMinimize: Iter:   2  F: -20.1740456324251056  |grad|_K:  1.694e-09  alpha:  9.872e-01  linmin: -6.718e-02  cgtest:  9.979e-01  t[s]:     11.09
LCAOMinimize: Encountered beta<0, resetting CG.
LCAOMinimize: Converged (|Delta F|<1.000000e-06 for 2 iters).


---- Citations for features of the code used in this run ----

   Software package:
      R. Sundararaman, K. Letchworth-Weaver, K.A. Schwarz, D. Gunceler, Y. Ozhabes and T.A. Arias, 'JDFTx: software for joint density-functional theory', SoftwareX 6, 278 (2017)

   gga-PBE exchange-correlation functional:
      J.P. Perdew, K. Burke and M. Ernzerhof, Phys. Rev. Lett. 77, 3865 (1996)

   Pseudopotentials:
      M Schlipf and F Gygi, Comput. Phys. Commun. 196, 36 (2015)

   Truncated Coulomb potentials:
      R. Sundararaman and T.A. Arias, Phys. Rev. B 87, 165122 (2013)

This list may not be complete. Please suggest additional citations or
report any other bugs at https://github.com/shankar1729/jdftx/issues

Initialization completed successfully at t[s]:     11.25


-------- Electronic minimization -----------
Will mix electronic density at each iteration.
	FillingsUpdate:  mu: -0.079200472  nElectrons: 9.000000  magneticMoment: [ Abs: 0.46000  Tot: +0.46000 ]
	FillingsUpdate:  mu: -0.082180222  nElectrons: 9.000000  magneticMoment: [ Abs: 0.46000  Tot: +0.46000 ]
SCF: Cycle:  0   F: -20.176520615526165   dF: -2.475e-03   |Residual|: 5.080e-03   |deigs|: 1.732e-01  t[s]:     16.01
	FillingsUpdate:  mu: -0.082448742  nElectrons: 9.000000  magneticMoment: [ Abs: 0.46001  Tot: +0.46000 ]
SCF: Cycle:  1   F: -20.176664559530540   dF: -1.439e-04   |Residual|: 4.394e-03   |deigs|: 5.048e-03  t[s]:     19.74
	FillingsUpdate:  mu: -0.082608416  nElectrons: 9.000000  magneticMoment: [ Abs: 0.46193  Tot: +0.46000 ]
SCF: Cycle:  2   F: -20.176747083213442   dF: -8.252e-05   |Residual|: 2.951e-03   |deigs|: 2.242e-03  t[s]:     23.61
	FillingsUpdate:  mu: -0.082698453  nElectrons: 9.000000  magneticMoment: [ Abs: 0.46226  Tot: +0.46000 ]
SCF: Cycle:  3   F: -20.176782188505609   dF: -3.511e-05   |Residual|: 2.042e-03   |deigs|: 1.529e-03  t[s]:     27.46
	FillingsUpdate:  mu: -0.082532905  nElectrons: 9.000000  magneticMoment: [ Abs: 0.46023  Tot: +0.46000 ]
SCF: Cycle:  4   F: -20.176800296674262   dF: -1.811e-05   |Residual|: 1.049e-03   |deigs|: 9.948e-04  t[s]:     31.41
	FillingsUpdate:  mu: -0.082446180  nElectrons: 9.000000  magneticMoment: [ Abs: 0.46041  Tot: +0.46000 ]
SCF: Cycle:  5   F: -20.176812347904065   dF: -1.205e-05   |Residual|: 7.549e-04   |deigs|: 8.851e-04  t[s]:     35.37
	FillingsUpdate:  mu: -0.082215413  nElectrons: 9.000000  magneticMoment: [ Abs: 0.46063  Tot: +0.46000 ]
SCF: Cycle:  6   F: -20.176818461731067   dF: -6.114e-06   |Residual|: 5.838e-04   |deigs|: 5.588e-04  t[s]:     39.42
	FillingsUpdate:  mu: -0.081830774  nElectrons: 9.000000  magneticMoment: [ Abs: 0.46144  Tot: +0.46000 ]
SCF: Cycle:  7   F: -20.176819281819270   dF: -8.201e-07   |Residual|: 5.014e-04   |deigs|: 8.149e-04  t[s]:     43.45
	FillingsUpdate:  mu: -0.081178831  nElectrons: 9.000000  magneticMoment: [ Abs: 0.46320  Tot: +0.46000 ]
SCF: Cycle:  8   F: -20.176816197203255   dF: +3.085e-06   |Residual|: 3.872e-04   |deigs|: 9.158e-04  t[s]:     47.60
	FillingsUpdate:  mu: -0.080479905  nElectrons: 9.000000  magneticMoment: [ Abs: 0.46281  Tot: +0.46000 ]
SCF: Cycle:  9   F: -20.176816787975532   dF: -5.908e-07   |Residual|: 3.617e-04   |deigs|: 8.824e-04  t[s]:     51.74
	FillingsUpdate:  mu: -0.080405479  nElectrons: 9.000000  magneticMoment: [ Abs: 0.46199  Tot: +0.46000 ]
SCF: Cycle: 10   F: -20.176820791316317   dF: -4.003e-06   |Residual|: 2.788e-04   |deigs|: 1.132e-03  t[s]:     56.07
	FillingsUpdate:  mu: -0.080102261  nElectrons: 9.000000  magneticMoment: [ Abs: 0.46335  Tot: +0.46000 ]
SCF: Cycle: 11   F: -20.176822378083244   dF: -1.587e-06   |Residual|: 2.495e-04   |deigs|: 6.753e-04  t[s]:     60.31
	FillingsUpdate:  mu: -0.079538657  nElectrons: 9.000000  magneticMoment: [ Abs: 0.46310  Tot: +0.46000 ]
SCF: Cycle: 12   F: -20.176821407723022   dF: +9.704e-07   |Residual|: 2.412e-04   |deigs|: 8.323e-04  t[s]:     64.58
	FillingsUpdate:  mu: -0.079011567  nElectrons: 9.000000  magneticMoment: [ Abs: 0.46154  Tot: +0.46000 ]
SCF: Cycle: 13   F: -20.176820626420266   dF: +7.813e-07   |Residual|: 2.326e-04   |deigs|: 5.734e-04  t[s]:     68.89
	FillingsUpdate:  mu: -0.078807259  nElectrons: 9.000000  magneticMoment: [ Abs: 0.46199  Tot: +0.46000 ]
SCF: Cycle: 14   F: -20.176822512314889   dF: -1.886e-06   |Residual|: 2.088e-04   |deigs|: 2.574e-04  t[s]:     73.18
	FillingsUpdate:  mu: -0.078506794  nElectrons: 9.000000  magneticMoment: [ Abs: 0.46191  Tot: +0.46000 ]
SCF: Cycle: 15   F: -20.176825132304966   dF: -2.620e-06   |Residual|: 1.587e-04   |deigs|: 3.384e-04  t[s]:     77.46
	FillingsUpdate:  mu: -0.078195275  nElectrons: 9.000000  magneticMoment: [ Abs: 0.46105  Tot: +0.46000 ]
SCF: Cycle: 16   F: -20.176826614151764   dF: -1.482e-06   |Residual|: 1.034e-04   |deigs|: 3.484e-04  t[s]:     81.68
	FillingsUpdate:  mu: -0.078146444  nElectrons: 9.000000  magneticMoment: [ Abs: 0.46065  Tot: +0.46000 ]
SCF: Cycle: 17   F: -20.176826934054873   dF: -3.199e-07   |Residual|: 7.570e-05   |deigs|: 1.948e-04  t[s]:     85.93
	FillingsUpdate:  mu: -0.078158191  nElectrons: 9.000000  magneticMoment: [ Abs: 0.46060  Tot: +0.46000 ]
SCF: Cycle: 18   F: -20.176827193788601   dF: -2.597e-07   |Residual|: 4.840e-05   |deigs|: 1.811e-04  t[s]:     90.17
	FillingsUpdate:  mu: -0.078177621  nElectrons: 9.000000  magneticMoment: [ Abs: 0.46067  Tot: +0.46000 ]
SCF: Cycle: 19   F: -20.176827323974695   dF: -1.302e-07   |Residual|: 2.895e-05   |deigs|: 1.029e-04  t[s]:     94.38
	FillingsUpdate:  mu: -0.078179562  nElectrons: 9.000000  magneticMoment: [ Abs: 0.46064  Tot: +0.46000 ]
SCF: Cycle: 20   F: -20.176827372787944   dF: -4.881e-08   |Residual|: 1.877e-05   |deigs|: 6.947e-05  t[s]:     98.71
	FillingsUpdate:  mu: -0.078183046  nElectrons: 9.000000  magneticMoment: [ Abs: 0.46067  Tot: +0.46000 ]
SCF: Cycle: 21   F: -20.176827393075147   dF: -2.029e-08   |Residual|: 1.317e-05   |deigs|: 6.845e-05  t[s]:    103.09
	FillingsUpdate:  mu: -0.078181965  nElectrons: 9.000000  magneticMoment: [ Abs: 0.46069  Tot: +0.46000 ]
SCF: Cycle: 22   F: -20.176827400582887   dF: -7.508e-09   |Residual|: 1.154e-05   |deigs|: 4.128e-05  t[s]:    107.40
	FillingsUpdate:  mu: -0.078182673  nElectrons: 9.000000  magneticMoment: [ Abs: 0.46068  Tot: +0.46000 ]
SCF: Cycle: 23   F: -20.176827405571306   dF: -4.988e-09   |Residual|: 6.088e-06   |deigs|: 2.989e-05  t[s]:    111.73
SCF: Converged (|Delta E|<1.000000e-08 for 2 iters).


# Ionic positions in lattice coordinates:
ion Cs   0.000000000000000   0.000000000000000   0.000000000000000 0

# Forces in Lattice coordinates:
force Cs  -0.000000000000000  -0.000000000000000   0.000000000000000 0

# Energy components:
   Eewald =      -12.0320174002217755
       EH =        4.0155604707980332
     Eloc =      -17.5851009052666782
      Enl =        3.4318095927638352
   Epulay =       -0.0000000107257212
      Exc =       -3.1092526120797785
       KE =        5.1021742426836543
-------------------------------------
     Etot =      -20.1768266220484307
       TS =        0.0000007835228744
-------------------------------------
        F =      -20.1768274055713057

IonicMinimize: Iter:   0  F: -20.176827405571306  |grad|_K:  0.000e+00  t[s]:    111.99
IonicMinimize: Converged (|grad|_K<1.000000e-04).

#--- Lowdin population analysis ---
# oxidation-state Cs +0.057
# magnetic-moments Cs +0.413

End date and time: Sun Feb  6 13:31:30 2022  (Duration: 0-0:01:52.03)
Done!
