
*************** JDFTx 1.6.0 (git hash 42ebbcc2) ***************

Start date and time: Sun Feb  6 13:10:13 2022
Executable jdftx with command-line: -i Alkali.in
Running on hosts (process indices):  d-6-7-4 (0-18)
Divided in process groups (process indices):  0 (0)  1 (1)  2 (2)  3 (3)  4 (4)  5 (5)  6 (6)  7 (7)  8 (8)  9 (9)  10 (10)  11 (11)  12 (12)  13 (13)  14 (14)  15 (15)  16 (16)  17 (17)  18 (18)
Resource initialization completed at t[s]:      0.00
Run totals: 19 processes, 48 threads, 0 GPUs


Input parsed successfully to the following command list (including defaults):

basis kpoint-dependent
coords-type Lattice
core-overlap-check vector
coulomb-interaction Slab 001
davidson-band-ratio 1.1
dump End None
dump-name $INPUT.$VAR
elec-cutoff 20
elec-eigen-algo Davidson
elec-ex-corr gga-PBE
elec-initial-magnetization -0.760000 yes
elec-smearing Fermi 1e-05
electronic-minimize  \
	dirUpdateScheme      FletcherReeves \
	linminMethod         DirUpdateRecommended \
	nIterations          100 \
	history              15 \
	knormThreshold       0 \
	energyDiffThreshold  1e-08 \
	nEnergyDiff          2 \
	alphaTstart          1 \
	alphaTmin            1e-10 \
	updateTestStepSize   yes \
	alphaTreduceFactor   0.1 \
	alphaTincreaseFactor 3 \
	nAlphaAdjustMax      3 \
	wolfeEnergy          0.0001 \
	wolfeGradient        0.9 \
	fdTest               no
electronic-scf  \
	nIterations	10000 \
	energyDiffThreshold	1e-08 \
	residualThreshold	1e-07 \
	mixFraction	0.5 \
	qMetric	0.8 \
	history	10 \
	nEigSteps	2 \
	eigDiffThreshold	1e-08 \
	mixedVariable	Density \
	qKerker	0.8 \
	qKappa	-1 \
	verbose	no \
	mixFractionMag	1.5
exchange-regularization WignerSeitzTruncated
fluid None
fluid-ex-corr (null) lda-PZ
fluid-gummel-loop 10 1.000000e-05
fluid-minimize  \
	dirUpdateScheme      PolakRibiere \
	linminMethod         DirUpdateRecommended \
	nIterations          100 \
	history              15 \
	knormThreshold       0 \
	energyDiffThreshold  0 \
	nEnergyDiff          2 \
	alphaTstart          1 \
	alphaTmin            1e-10 \
	updateTestStepSize   yes \
	alphaTreduceFactor   0.1 \
	alphaTincreaseFactor 3 \
	nAlphaAdjustMax      3 \
	wolfeEnergy          0.0001 \
	wolfeGradient        0.9 \
	fdTest               no
fluid-solvent H2O 55.338 ScalarEOS \
	epsBulk 78.4 \
	pMol 0.92466 \
	epsInf 1.77 \
	Pvap 1.06736e-10 \
	sigmaBulk 4.62e-05 \
	Rvdw 2.61727 \
	Res 1.42 \
	tauNuc 343133 \
	poleEl 15 7 1
forces-output-coords Positions
ion Cs   0.000000000000000   0.000000000000000   0.000000000000000 0
ion-species SG15/$ID_ONCV_PBE.upf
ion-width 0
ionic-minimize  \
	dirUpdateScheme      L-BFGS \
	linminMethod         DirUpdateRecommended \
	nIterations          0 \
	history              15 \
	knormThreshold       0.0001 \
	energyDiffThreshold  1e-06 \
	nEnergyDiff          2 \
	alphaTstart          1 \
	alphaTmin            1e-10 \
	updateTestStepSize   yes \
	alphaTreduceFactor   0.1 \
	alphaTincreaseFactor 3 \
	nAlphaAdjustMax      3 \
	wolfeEnergy          0.0001 \
	wolfeGradient        0.9 \
	fdTest               no
kpoint   0.000000000000   0.000000000000   0.000000000000  1.00000000000000
kpoint-folding 12 12 1 
latt-move-scale 1 1 1
latt-scale 3 3 1 
lattice  \
	   4.727486978767153   -2.363743489383575    0.000000000000000  \
	  -0.000000000000000    4.094123819672498    0.000000000000000  \
	   0.000000000000000    0.000000000000000   40.000000000000000 
lattice-minimize  \
	dirUpdateScheme      L-BFGS \
	linminMethod         DirUpdateRecommended \
	nIterations          0 \
	history              15 \
	knormThreshold       0 \
	energyDiffThreshold  1e-06 \
	nEnergyDiff          2 \
	alphaTstart          1 \
	alphaTmin            1e-10 \
	updateTestStepSize   yes \
	alphaTreduceFactor   0.1 \
	alphaTincreaseFactor 3 \
	nAlphaAdjustMax      3 \
	wolfeEnergy          0.0001 \
	wolfeGradient        0.9 \
	fdTest               no
lcao-params -1 1e-06 1e-05
pcm-variant GLSSA13
spintype z-spin
subspace-rotation-factor 1 yes
symmetries automatic
symmetry-threshold 0.0001



---------- Setting up symmetries ----------

Found 24 point-group symmetries of the bravais lattice
Found 24 space-group symmetries with basis
Applied RMS atom displacement 0 bohrs to make symmetries exact.

---------- Initializing the Grid ----------
R = 
[      14.1825     -7.09123            0  ]
[            0      12.2824            0  ]
[            0            0           40  ]
unit cell volume = 6967.77
G =
[   0.443025   0.255781         -0  ]
[          0   0.511561         -0  ]
[         -0         -0    0.15708  ]
Minimum fftbox size, Smin = [  60  60  164  ]
Chosen fftbox size, S = [  60  60  168  ]

---------- Exchange Correlation functional ----------
Initalized PBE GGA exchange.
Initalized PBE GGA correlation.

---------- Setting up pseudopotentials ----------
Width of ionic core gaussian charges (only for fluid interactions / plotting) set to 0

Reading pseudopotential file '/home/gridsan/aligho/DFT/build-Nov24/pseudopotentials/SG15/Cs_ONCV_PBE.upf':
  'Cs' pseudopotential, 'PBE' functional
  Generated using ONCVPSP code by D. R. Hamann
  Author: Martin Schlipf and Francois Gygi  Date: 150915.
  9 valence electrons, 3 orbitals, 6 projectors, 2414 radial grid points, with lMax = 2
  Transforming local potential to a uniform radial grid of dG=0.02 with 1489 points.
  Transforming nonlocal projectors to a uniform radial grid of dG=0.02 with 432 points.
    5S    l: 0   occupation:  2.0   eigenvalue: -0.982388
    5P    l: 1   occupation:  6.0   eigenvalue: -0.496786
    6S    l: 0   occupation:  1.0   eigenvalue: -0.076670
  Transforming atomic orbitals to a uniform radial grid of dG=0.02 with 432 points.
  Core radius for overlap checks: 2.06 bohrs.
  Reading pulay file /home/gridsan/aligho/DFT/build-Nov24/pseudopotentials/SG15/Cs_ONCV_PBE.pulay ... using dE_dnG = -1.008762e-04 computed for Ecut = 20.

Initialized 1 species with 1 total atoms.

Folded 1 k-points by 12x12x1 to 144 k-points.

---------- Setting up k-points, bands, fillings ----------
Reduced to 19 k-points under symmetry. 
Computing the number of bands and number of electrons
Calculating initial fillings.
nElectrons:   9.000000   nBands: 6   nStates: 38

----- Setting up reduced wavefunction bases (one per k-point) -----
average nbasis = 29766.104 , ideal nbasis = 29766.845

---------- Setting up coulomb interaction ----------
Initialized slab truncation along lattice direction 001

---------- Setting up 2D ewald sum ----------
Optimum gaussian width for ewald sums = 7.873530 bohr.
Real space sums over 289 unit cells with max indices [  8  8  0  ]
Reciprocal space sums over 81 terms with max indices [  4  4  0  ]

---------- Allocating electronic variables ----------
Initializing wave functions:  linear combination of atomic orbitals
Note: number of bands (6) exceeds available atomic orbitals (5)
Cs pseudo-atom occupations:   s ( 2 1 )  p ( 6 )
	FillingsUpdate:  mu: -0.081586451  nElectrons: 9.000000  magneticMoment: [ Abs: 0.76000  Tot: -0.76000 ]
LCAOMinimize: Iter:   0  F: -20.1720849511664326  |grad|_K:  1.116e-05  alpha:  1.000e+00
	FillingsUpdate:  mu: -0.081584926  nElectrons: 9.000000  magneticMoment: [ Abs: 0.76000  Tot: -0.76000 ]
LCAOMinimize: Iter:   1  F: -20.1720850357874077  |grad|_K:  7.030e-08  alpha:  9.934e-01  linmin: -1.105e-02  cgtest:  1.986e-01  t[s]:      8.51
LCAOMinimize: Encountered beta<0, resetting CG.
	FillingsUpdate:  mu: -0.081584939  nElectrons: 9.000000  magneticMoment: [ Abs: 0.76000  Tot: -0.76000 ]
LCAOMinimize: Iter:   2  F: -20.1720850357903849  |grad|_K:  3.765e-09  alpha:  9.446e-01  linmin: -1.439e-01  cgtest:  9.951e-01  t[s]:     10.89
LCAOMinimize: Encountered beta<0, resetting CG.
LCAOMinimize: Converged (|Delta F|<1.000000e-06 for 2 iters).


---- Citations for features of the code used in this run ----

   Software package:
      R. Sundararaman, K. Letchworth-Weaver, K.A. Schwarz, D. Gunceler, Y. Ozhabes and T.A. Arias, 'JDFTx: software for joint density-functional theory', SoftwareX 6, 278 (2017)

   gga-PBE exchange-correlation functional:
      J.P. Perdew, K. Burke and M. Ernzerhof, Phys. Rev. Lett. 77, 3865 (1996)

   Pseudopotentials:
      M Schlipf and F Gygi, Comput. Phys. Commun. 196, 36 (2015)

   Truncated Coulomb potentials:
      R. Sundararaman and T.A. Arias, Phys. Rev. B 87, 165122 (2013)

This list may not be complete. Please suggest additional citations or
report any other bugs at https://github.com/shankar1729/jdftx/issues

Initialization completed successfully at t[s]:     11.04


-------- Electronic minimization -----------
Will mix electronic density at each iteration.
	FillingsUpdate:  mu: -0.081584939  nElectrons: 9.000000  magneticMoment: [ Abs: 0.76000  Tot: -0.76000 ]
	FillingsUpdate:  mu: -0.083158076  nElectrons: 9.000000  magneticMoment: [ Abs: 0.76000  Tot: -0.76000 ]
SCF: Cycle:  0   F: -20.174567697239585   dF: -2.483e-03   |Residual|: 5.278e-03   |deigs|: 1.735e-01  t[s]:     15.77
	FillingsUpdate:  mu: -0.083659683  nElectrons: 9.000000  magneticMoment: [ Abs: 0.76022  Tot: -0.76000 ]
SCF: Cycle:  1   F: -20.174772461310251   dF: -2.048e-04   |Residual|: 4.567e-03   |deigs|: 4.894e-03  t[s]:     19.47
	FillingsUpdate:  mu: -0.084453766  nElectrons: 9.000000  magneticMoment: [ Abs: 0.76208  Tot: -0.76000 ]
SCF: Cycle:  2   F: -20.174873959973592   dF: -1.015e-04   |Residual|: 3.567e-03   |deigs|: 2.914e-03  t[s]:     23.18
	FillingsUpdate:  mu: -0.084301477  nElectrons: 9.000000  magneticMoment: [ Abs: 0.76359  Tot: -0.76000 ]
SCF: Cycle:  3   F: -20.174956055755331   dF: -8.210e-05   |Residual|: 2.775e-03   |deigs|: 1.467e-03  t[s]:     26.97
	FillingsUpdate:  mu: -0.083679582  nElectrons: 9.000000  magneticMoment: [ Abs: 0.76090  Tot: -0.76000 ]
SCF: Cycle:  4   F: -20.174997725297725   dF: -4.167e-05   |Residual|: 1.320e-03   |deigs|: 1.430e-03  t[s]:     30.77
	FillingsUpdate:  mu: -0.083377301  nElectrons: 9.000000  magneticMoment: [ Abs: 0.76144  Tot: -0.76000 ]
SCF: Cycle:  5   F: -20.175016664893466   dF: -1.894e-05   |Residual|: 8.685e-04   |deigs|: 6.658e-04  t[s]:     34.70
	FillingsUpdate:  mu: -0.083244895  nElectrons: 9.000000  magneticMoment: [ Abs: 0.76148  Tot: -0.76000 ]
SCF: Cycle:  6   F: -20.175026448885589   dF: -9.784e-06   |Residual|: 6.821e-04   |deigs|: 4.836e-04  t[s]:     38.66
	FillingsUpdate:  mu: -0.082855688  nElectrons: 9.000000  magneticMoment: [ Abs: 0.76176  Tot: -0.76000 ]
SCF: Cycle:  7   F: -20.175028536184140   dF: -2.087e-06   |Residual|: 5.733e-04   |deigs|: 3.537e-04  t[s]:     42.64
	FillingsUpdate:  mu: -0.081927034  nElectrons: 9.000000  magneticMoment: [ Abs: 0.76396  Tot: -0.76000 ]
SCF: Cycle:  8   F: -20.175024414560852   dF: +4.122e-06   |Residual|: 4.488e-04   |deigs|: 9.326e-04  t[s]:     46.75
	FillingsUpdate:  mu: -0.081255786  nElectrons: 9.000000  magneticMoment: [ Abs: 0.76334  Tot: -0.76000 ]
SCF: Cycle:  9   F: -20.175024090727614   dF: +3.238e-07   |Residual|: 4.343e-04   |deigs|: 8.663e-04  t[s]:     50.93
	FillingsUpdate:  mu: -0.081201606  nElectrons: 9.000000  magneticMoment: [ Abs: 0.76170  Tot: -0.76000 ]
SCF: Cycle: 10   F: -20.175031615792886   dF: -7.525e-06   |Residual|: 3.048e-04   |deigs|: 3.670e-04  t[s]:     55.17
	FillingsUpdate:  mu: -0.080800516  nElectrons: 9.000000  magneticMoment: [ Abs: 0.76493  Tot: -0.76000 ]
SCF: Cycle: 11   F: -20.175034150357952   dF: -2.535e-06   |Residual|: 2.702e-04   |deigs|: 6.707e-04  t[s]:     59.36
	FillingsUpdate:  mu: -0.080336108  nElectrons: 9.000000  magneticMoment: [ Abs: 0.76494  Tot: -0.76000 ]
SCF: Cycle: 12   F: -20.175034172200544   dF: -2.184e-08   |Residual|: 2.609e-04   |deigs|: 5.010e-04  t[s]:     63.50
	FillingsUpdate:  mu: -0.079928422  nElectrons: 9.000000  magneticMoment: [ Abs: 0.76378  Tot: -0.76000 ]
SCF: Cycle: 13   F: -20.175033949088121   dF: +2.231e-07   |Residual|: 2.428e-04   |deigs|: 4.573e-04  t[s]:     67.71
	FillingsUpdate:  mu: -0.079733190  nElectrons: 9.000000  magneticMoment: [ Abs: 0.76386  Tot: -0.76000 ]
SCF: Cycle: 14   F: -20.175035897443784   dF: -1.948e-06   |Residual|: 2.263e-04   |deigs|: 2.490e-04  t[s]:     71.92
	FillingsUpdate:  mu: -0.079240207  nElectrons: 9.000000  magneticMoment: [ Abs: 0.76246  Tot: -0.76000 ]
SCF: Cycle: 15   F: -20.175038801833818   dF: -2.904e-06   |Residual|: 1.767e-04   |deigs|: 5.772e-04  t[s]:     76.15
	FillingsUpdate:  mu: -0.078885068  nElectrons: 9.000000  magneticMoment: [ Abs: 0.76188  Tot: -0.76000 ]
SCF: Cycle: 16   F: -20.175039875406018   dF: -1.074e-06   |Residual|: 1.296e-04   |deigs|: 5.507e-04  t[s]:     80.37
	FillingsUpdate:  mu: -0.078850753  nElectrons: 9.000000  magneticMoment: [ Abs: 0.76154  Tot: -0.76000 ]
SCF: Cycle: 17   F: -20.175040283675592   dF: -4.083e-07   |Residual|: 9.080e-05   |deigs|: 2.306e-04  t[s]:     84.52
	FillingsUpdate:  mu: -0.078845993  nElectrons: 9.000000  magneticMoment: [ Abs: 0.76154  Tot: -0.76000 ]
SCF: Cycle: 18   F: -20.175040771915846   dF: -4.882e-07   |Residual|: 6.324e-05   |deigs|: 7.596e-05  t[s]:     88.75
	FillingsUpdate:  mu: -0.078874006  nElectrons: 9.000000  magneticMoment: [ Abs: 0.76151  Tot: -0.76000 ]
SCF: Cycle: 19   F: -20.175040890086770   dF: -1.182e-07   |Residual|: 4.593e-05   |deigs|: 1.876e-04  t[s]:     92.86
	FillingsUpdate:  mu: -0.078880032  nElectrons: 9.000000  magneticMoment: [ Abs: 0.76162  Tot: -0.76000 ]
SCF: Cycle: 20   F: -20.175040915628802   dF: -2.554e-08   |Residual|: 2.705e-05   |deigs|: 3.144e-04  t[s]:     97.10
	FillingsUpdate:  mu: -0.078860905  nElectrons: 9.000000  magneticMoment: [ Abs: 0.76159  Tot: -0.76000 ]
SCF: Cycle: 21   F: -20.175040991611699   dF: -7.598e-08   |Residual|: 2.300e-05   |deigs|: 4.039e-04  t[s]:    101.30
	FillingsUpdate:  mu: -0.078856591  nElectrons: 9.000000  magneticMoment: [ Abs: 0.76165  Tot: -0.76000 ]
SCF: Cycle: 22   F: -20.175041046964484   dF: -5.535e-08   |Residual|: 1.252e-05   |deigs|: 1.598e-04  t[s]:    105.47
	FillingsUpdate:  mu: -0.078863290  nElectrons: 9.000000  magneticMoment: [ Abs: 0.76165  Tot: -0.76000 ]
SCF: Cycle: 23   F: -20.175041050118420   dF: -3.154e-09   |Residual|: 8.897e-06   |deigs|: 4.327e-05  t[s]:    109.61
	FillingsUpdate:  mu: -0.078869931  nElectrons: 9.000000  magneticMoment: [ Abs: 0.76162  Tot: -0.76000 ]
SCF: Cycle: 24   F: -20.175041059286674   dF: -9.168e-09   |Residual|: 7.802e-06   |deigs|: 4.550e-05  t[s]:    113.81
SCF: Converged (|Delta E|<1.000000e-08 for 2 iters).


# Ionic positions in lattice coordinates:
ion Cs   0.000000000000000   0.000000000000000   0.000000000000000 0

# Forces in Lattice coordinates:
force Cs   0.000000000000000   0.000000000000000   0.000000000000000 0

# Energy components:
   Eewald =      -12.0320174002217755
       EH =        4.0279491368689309
     Eloc =      -17.5990181756854014
      Enl =        3.4324140426089018
   Epulay =       -0.0000000107257212
      Exc =       -3.1115277390879790
       KE =        5.1071596235919152
-------------------------------------
     Etot =      -20.1750405226511305
       TS =        0.0000005366355437
-------------------------------------
        F =      -20.1750410592866736

IonicMinimize: Iter:   0  F: -20.175041059286674  |grad|_K:  0.000e+00  t[s]:    114.06
IonicMinimize: Converged (|grad|_K<1.000000e-04).

#--- Lowdin population analysis ---
# oxidation-state Cs +0.070
# magnetic-moments Cs -0.693

End date and time: Sun Feb  6 13:12:07 2022  (Duration: 0-0:01:54.11)
Done!
