
*************** JDFTx 1.6.0 (git hash 42ebbcc2) ***************

Start date and time: Sun Feb  6 13:36:40 2022
Executable jdftx with command-line: -i Alkali.in
Running on hosts (process indices):  d-6-13-4 (0-18)
Divided in process groups (process indices):  0 (0)  1 (1)  2 (2)  3 (3)  4 (4)  5 (5)  6 (6)  7 (7)  8 (8)  9 (9)  10 (10)  11 (11)  12 (12)  13 (13)  14 (14)  15 (15)  16 (16)  17 (17)  18 (18)
Resource initialization completed at t[s]:      0.00
Run totals: 19 processes, 48 threads, 0 GPUs


Input parsed successfully to the following command list (including defaults):

basis kpoint-dependent
coords-type Lattice
core-overlap-check vector
coulomb-interaction Slab 001
davidson-band-ratio 1.1
dump End None
dump-name $INPUT.$VAR
elec-cutoff 20
elec-eigen-algo Davidson
elec-ex-corr gga-PBE
elec-initial-magnetization 0.840000 yes
elec-smearing Fermi 1e-05
electronic-minimize  \
	dirUpdateScheme      FletcherReeves \
	linminMethod         DirUpdateRecommended \
	nIterations          100 \
	history              15 \
	knormThreshold       0 \
	energyDiffThreshold  1e-08 \
	nEnergyDiff          2 \
	alphaTstart          1 \
	alphaTmin            1e-10 \
	updateTestStepSize   yes \
	alphaTreduceFactor   0.1 \
	alphaTincreaseFactor 3 \
	nAlphaAdjustMax      3 \
	wolfeEnergy          0.0001 \
	wolfeGradient        0.9 \
	fdTest               no
electronic-scf  \
	nIterations	10000 \
	energyDiffThreshold	1e-08 \
	residualThreshold	1e-07 \
	mixFraction	0.5 \
	qMetric	0.8 \
	history	10 \
	nEigSteps	2 \
	eigDiffThreshold	1e-08 \
	mixedVariable	Density \
	qKerker	0.8 \
	qKappa	-1 \
	verbose	no \
	mixFractionMag	1.5
exchange-regularization WignerSeitzTruncated
fluid None
fluid-ex-corr (null) lda-PZ
fluid-gummel-loop 10 1.000000e-05
fluid-minimize  \
	dirUpdateScheme      PolakRibiere \
	linminMethod         DirUpdateRecommended \
	nIterations          100 \
	history              15 \
	knormThreshold       0 \
	energyDiffThreshold  0 \
	nEnergyDiff          2 \
	alphaTstart          1 \
	alphaTmin            1e-10 \
	updateTestStepSize   yes \
	alphaTreduceFactor   0.1 \
	alphaTincreaseFactor 3 \
	nAlphaAdjustMax      3 \
	wolfeEnergy          0.0001 \
	wolfeGradient        0.9 \
	fdTest               no
fluid-solvent H2O 55.338 ScalarEOS \
	epsBulk 78.4 \
	pMol 0.92466 \
	epsInf 1.77 \
	Pvap 1.06736e-10 \
	sigmaBulk 4.62e-05 \
	Rvdw 2.61727 \
	Res 1.42 \
	tauNuc 343133 \
	poleEl 15 7 1
forces-output-coords Positions
ion Cs   0.000000000000000   0.000000000000000   0.000000000000000 0
ion-species SG15/$ID_ONCV_PBE.upf
ion-width 0
ionic-minimize  \
	dirUpdateScheme      L-BFGS \
	linminMethod         DirUpdateRecommended \
	nIterations          0 \
	history              15 \
	knormThreshold       0.0001 \
	energyDiffThreshold  1e-06 \
	nEnergyDiff          2 \
	alphaTstart          1 \
	alphaTmin            1e-10 \
	updateTestStepSize   yes \
	alphaTreduceFactor   0.1 \
	alphaTincreaseFactor 3 \
	nAlphaAdjustMax      3 \
	wolfeEnergy          0.0001 \
	wolfeGradient        0.9 \
	fdTest               no
kpoint   0.000000000000   0.000000000000   0.000000000000  1.00000000000000
kpoint-folding 12 12 1 
latt-move-scale 1 1 1
latt-scale 4 4 1 
lattice  \
	   4.727486978767153   -2.363743489383575    0.000000000000000  \
	  -0.000000000000000    4.094123819672498    0.000000000000000  \
	   0.000000000000000    0.000000000000000   40.000000000000000 
lattice-minimize  \
	dirUpdateScheme      L-BFGS \
	linminMethod         DirUpdateRecommended \
	nIterations          0 \
	history              15 \
	knormThreshold       0 \
	energyDiffThreshold  1e-06 \
	nEnergyDiff          2 \
	alphaTstart          1 \
	alphaTmin            1e-10 \
	updateTestStepSize   yes \
	alphaTreduceFactor   0.1 \
	alphaTincreaseFactor 3 \
	nAlphaAdjustMax      3 \
	wolfeEnergy          0.0001 \
	wolfeGradient        0.9 \
	fdTest               no
lcao-params -1 1e-06 1e-05
pcm-variant GLSSA13
spintype z-spin
subspace-rotation-factor 1 yes
symmetries automatic
symmetry-threshold 0.0001



---------- Setting up symmetries ----------

Found 24 point-group symmetries of the bravais lattice
Found 24 space-group symmetries with basis
Applied RMS atom displacement 0 bohrs to make symmetries exact.

---------- Initializing the Grid ----------
R = 
[      18.9099     -9.45497            0  ]
[            0      16.3765            0  ]
[            0            0           40  ]
unit cell volume = 12387.1
G =
[   0.332269   0.191835         -0  ]
[          0   0.383671         -0  ]
[         -0         -0    0.15708  ]
Minimum fftbox size, Smin = [  80  80  164  ]
Chosen fftbox size, S = [  80  80  168  ]

---------- Exchange Correlation functional ----------
Initalized PBE GGA exchange.
Initalized PBE GGA correlation.

---------- Setting up pseudopotentials ----------
Width of ionic core gaussian charges (only for fluid interactions / plotting) set to 0

Reading pseudopotential file '/home/gridsan/aligho/DFT/build-Nov24/pseudopotentials/SG15/Cs_ONCV_PBE.upf':
  'Cs' pseudopotential, 'PBE' functional
  Generated using ONCVPSP code by D. R. Hamann
  Author: Martin Schlipf and Francois Gygi  Date: 150915.
  9 valence electrons, 3 orbitals, 6 projectors, 2414 radial grid points, with lMax = 2
  Transforming local potential to a uniform radial grid of dG=0.02 with 1489 points.
  Transforming nonlocal projectors to a uniform radial grid of dG=0.02 with 432 points.
    5S    l: 0   occupation:  2.0   eigenvalue: -0.982388
    5P    l: 1   occupation:  6.0   eigenvalue: -0.496786
    6S    l: 0   occupation:  1.0   eigenvalue: -0.076670
  Transforming atomic orbitals to a uniform radial grid of dG=0.02 with 432 points.
  Core radius for overlap checks: 2.06 bohrs.
  Reading pulay file /home/gridsan/aligho/DFT/build-Nov24/pseudopotentials/SG15/Cs_ONCV_PBE.pulay ... using dE_dnG = -1.008762e-04 computed for Ecut = 20.

Initialized 1 species with 1 total atoms.

Folded 1 k-points by 12x12x1 to 144 k-points.

---------- Setting up k-points, bands, fillings ----------
Reduced to 19 k-points under symmetry. 
Computing the number of bands and number of electrons
Calculating initial fillings.
nElectrons:   9.000000   nBands: 6   nStates: 38

----- Setting up reduced wavefunction bases (one per k-point) -----
average nbasis = 52924.021 , ideal nbasis = 52918.836

---------- Setting up coulomb interaction ----------
Initialized slab truncation along lattice direction 001

---------- Setting up 2D ewald sum ----------
Optimum gaussian width for ewald sums = 10.498040 bohr.
Real space sums over 289 unit cells with max indices [  8  8  0  ]
Reciprocal space sums over 81 terms with max indices [  4  4  0  ]

---------- Allocating electronic variables ----------
Initializing wave functions:  linear combination of atomic orbitals
Note: number of bands (6) exceeds available atomic orbitals (5)
Cs pseudo-atom occupations:   s ( 2 1 )  p ( 6 )
	FillingsUpdate:  mu: -0.077294080  nElectrons: 9.000000  magneticMoment: [ Abs: 0.84000  Tot: +0.84000 ]
LCAOMinimize: Iter:   0  F: -20.1692495443247104  |grad|_K:  2.421e-06  alpha:  1.000e+00
	FillingsUpdate:  mu: -0.077293584  nElectrons: 9.000000  magneticMoment: [ Abs: 0.84000  Tot: +0.84000 ]
LCAOMinimize: Iter:   1  F: -20.1692495483090788  |grad|_K:  1.119e-08  alpha:  9.937e-01  linmin: -2.596e-03  cgtest:  5.569e-02  t[s]:     15.18
LCAOMinimize: Encountered beta<0, resetting CG.
	FillingsUpdate:  mu: -0.077293584  nElectrons: 9.000000  magneticMoment: [ Abs: 0.84000  Tot: +0.84000 ]
LCAOMinimize: Iter:   2  F: -20.1692495483093950  |grad|_K:  2.846e-09  alpha:  7.439e-01  linmin: -1.046e-01  cgtest:  9.999e-01  t[s]:     19.31
LCAOMinimize: Encountered beta<0, resetting CG.
LCAOMinimize: Converged (|Delta F|<1.000000e-06 for 2 iters).


---- Citations for features of the code used in this run ----

   Software package:
      R. Sundararaman, K. Letchworth-Weaver, K.A. Schwarz, D. Gunceler, Y. Ozhabes and T.A. Arias, 'JDFTx: software for joint density-functional theory', SoftwareX 6, 278 (2017)

   gga-PBE exchange-correlation functional:
      J.P. Perdew, K. Burke and M. Ernzerhof, Phys. Rev. Lett. 77, 3865 (1996)

   Pseudopotentials:
      M Schlipf and F Gygi, Comput. Phys. Commun. 196, 36 (2015)

   Truncated Coulomb potentials:
      R. Sundararaman and T.A. Arias, Phys. Rev. B 87, 165122 (2013)

This list may not be complete. Please suggest additional citations or
report any other bugs at https://github.com/shankar1729/jdftx/issues

Initialization completed successfully at t[s]:     19.58


-------- Electronic minimization -----------
Will mix electronic density at each iteration.
	FillingsUpdate:  mu: -0.077293584  nElectrons: 9.000000  magneticMoment: [ Abs: 0.84000  Tot: +0.84000 ]
	FillingsUpdate:  mu: -0.077432194  nElectrons: 9.000000  magneticMoment: [ Abs: 0.84000  Tot: +0.84000 ]
SCF: Cycle:  0   F: -20.169424790576503   dF: -1.752e-04   |Residual|: 1.720e-03   |deigs|: 1.705e-01  t[s]:     27.81
	FillingsUpdate:  mu: -0.077423814  nElectrons: 9.000000  magneticMoment: [ Abs: 0.84509  Tot: +0.84000 ]
SCF: Cycle:  1   F: -20.169431544902171   dF: -6.754e-06   |Residual|: 4.929e-04   |deigs|: 8.388e-03  t[s]:     34.33
	FillingsUpdate:  mu: -0.077401613  nElectrons: 9.000000  magneticMoment: [ Abs: 0.84511  Tot: +0.84000 ]
SCF: Cycle:  2   F: -20.169433581718099   dF: -2.037e-06   |Residual|: 2.916e-04   |deigs|: 1.245e-03  t[s]:     40.98
	FillingsUpdate:  mu: -0.077380903  nElectrons: 9.000000  magneticMoment: [ Abs: 0.84596  Tot: +0.84000 ]
SCF: Cycle:  3   F: -20.169434622618457   dF: -1.041e-06   |Residual|: 2.252e-04   |deigs|: 6.839e-04  t[s]:     47.66
	FillingsUpdate:  mu: -0.077338513  nElectrons: 9.000000  magneticMoment: [ Abs: 0.84604  Tot: +0.84000 ]
SCF: Cycle:  4   F: -20.169435439494567   dF: -8.169e-07   |Residual|: 1.763e-04   |deigs|: 6.264e-04  t[s]:     54.49
	FillingsUpdate:  mu: -0.077295203  nElectrons: 9.000000  magneticMoment: [ Abs: 0.84603  Tot: +0.84000 ]
SCF: Cycle:  5   F: -20.169435926506107   dF: -4.870e-07   |Residual|: 1.413e-04   |deigs|: 4.997e-04  t[s]:     61.40
	FillingsUpdate:  mu: -0.077219191  nElectrons: 9.000000  magneticMoment: [ Abs: 0.84600  Tot: +0.84000 ]
SCF: Cycle:  6   F: -20.169436139587454   dF: -2.131e-07   |Residual|: 1.013e-04   |deigs|: 3.513e-04  t[s]:     68.36
	FillingsUpdate:  mu: -0.077163741  nElectrons: 9.000000  magneticMoment: [ Abs: 0.84592  Tot: +0.84000 ]
SCF: Cycle:  7   F: -20.169436364270325   dF: -2.247e-07   |Residual|: 8.264e-05   |deigs|: 3.593e-04  t[s]:     75.62
	FillingsUpdate:  mu: -0.077137262  nElectrons: 9.000000  magneticMoment: [ Abs: 0.84596  Tot: +0.84000 ]
SCF: Cycle:  8   F: -20.169436494490419   dF: -1.302e-07   |Residual|: 7.013e-05   |deigs|: 2.456e-04  t[s]:     82.95
	FillingsUpdate:  mu: -0.077097031  nElectrons: 9.000000  magneticMoment: [ Abs: 0.84597  Tot: +0.84000 ]
SCF: Cycle:  9   F: -20.169436595729341   dF: -1.012e-07   |Residual|: 5.853e-05   |deigs|: 2.099e-04  t[s]:     90.30
	FillingsUpdate:  mu: -0.077053320  nElectrons: 9.000000  magneticMoment: [ Abs: 0.84595  Tot: +0.84000 ]
SCF: Cycle: 10   F: -20.169436568311269   dF: +2.742e-08   |Residual|: 4.850e-05   |deigs|: 1.235e-04  t[s]:     97.81
	FillingsUpdate:  mu: -0.077018696  nElectrons: 9.000000  magneticMoment: [ Abs: 0.84608  Tot: +0.84000 ]
SCF: Cycle: 11   F: -20.169436510167021   dF: +5.814e-08   |Residual|: 4.271e-05   |deigs|: 1.024e-04  t[s]:    105.35
	FillingsUpdate:  mu: -0.077000581  nElectrons: 9.000000  magneticMoment: [ Abs: 0.84623  Tot: +0.84000 ]
SCF: Cycle: 12   F: -20.169436147061898   dF: +3.631e-07   |Residual|: 3.961e-05   |deigs|: 9.271e-05  t[s]:    112.81
	FillingsUpdate:  mu: -0.076993272  nElectrons: 9.000000  magneticMoment: [ Abs: 0.84632  Tot: +0.84000 ]
SCF: Cycle: 13   F: -20.169436587742087   dF: -4.407e-07   |Residual|: 3.755e-05   |deigs|: 5.890e-05  t[s]:    120.36
	FillingsUpdate:  mu: -0.076927332  nElectrons: 9.000000  magneticMoment: [ Abs: 0.84647  Tot: +0.84000 ]
SCF: Cycle: 14   F: -20.169436679844281   dF: -9.210e-08   |Residual|: 3.170e-05   |deigs|: 8.259e-05  t[s]:    127.81
	FillingsUpdate:  mu: -0.076822938  nElectrons: 9.000000  magneticMoment: [ Abs: 0.84648  Tot: +0.84000 ]
SCF: Cycle: 15   F: -20.169436429650133   dF: +2.502e-07   |Residual|: 3.143e-05   |deigs|: 1.332e-04  t[s]:    135.33
	FillingsUpdate:  mu: -0.076799192  nElectrons: 9.000000  magneticMoment: [ Abs: 0.84617  Tot: +0.84000 ]
SCF: Cycle: 16   F: -20.169436724673407   dF: -2.950e-07   |Residual|: 2.305e-05   |deigs|: 6.955e-05  t[s]:    142.78
	FillingsUpdate:  mu: -0.076790752  nElectrons: 9.000000  magneticMoment: [ Abs: 0.84604  Tot: +0.84000 ]
SCF: Cycle: 17   F: -20.169436776876335   dF: -5.220e-08   |Residual|: 1.587e-05   |deigs|: 5.998e-05  t[s]:    150.22
	FillingsUpdate:  mu: -0.076776866  nElectrons: 9.000000  magneticMoment: [ Abs: 0.84601  Tot: +0.84000 ]
SCF: Cycle: 18   F: -20.169436845496090   dF: -6.862e-08   |Residual|: 1.129e-05   |deigs|: 5.002e-05  t[s]:    157.66
	FillingsUpdate:  mu: -0.076771120  nElectrons: 9.000000  magneticMoment: [ Abs: 0.84599  Tot: +0.84000 ]
SCF: Cycle: 19   F: -20.169436876181223   dF: -3.069e-08   |Residual|: 6.834e-06   |deigs|: 3.878e-05  t[s]:    165.14
	FillingsUpdate:  mu: -0.076773147  nElectrons: 9.000000  magneticMoment: [ Abs: 0.84600  Tot: +0.84000 ]
SCF: Cycle: 20   F: -20.169436898771451   dF: -2.259e-08   |Residual|: 5.026e-06   |deigs|: 2.524e-05  t[s]:    172.59
	FillingsUpdate:  mu: -0.076780228  nElectrons: 9.000000  magneticMoment: [ Abs: 0.84599  Tot: +0.84000 ]
SCF: Cycle: 21   F: -20.169436909353731   dF: -1.058e-08   |Residual|: 4.326e-06   |deigs|: 1.817e-05  t[s]:    180.09
	FillingsUpdate:  mu: -0.076787207  nElectrons: 9.000000  magneticMoment: [ Abs: 0.84597  Tot: +0.84000 ]
SCF: Cycle: 22   F: -20.169436914741116   dF: -5.387e-09   |Residual|: 3.428e-06   |deigs|: 1.410e-05  t[s]:    187.51
	FillingsUpdate:  mu: -0.076787637  nElectrons: 9.000000  magneticMoment: [ Abs: 0.84596  Tot: +0.84000 ]
SCF: Cycle: 23   F: -20.169436897623203   dF: +1.712e-08   |Residual|: 2.839e-06   |deigs|: 7.173e-06  t[s]:    195.02
	FillingsUpdate:  mu: -0.076787171  nElectrons: 9.000000  magneticMoment: [ Abs: 0.84597  Tot: +0.84000 ]
SCF: Cycle: 24   F: -20.169436915440688   dF: -1.782e-08   |Residual|: 1.929e-06   |deigs|: 5.291e-06  t[s]:    202.34
	FillingsUpdate:  mu: -0.076787270  nElectrons: 9.000000  magneticMoment: [ Abs: 0.84596  Tot: +0.84000 ]
SCF: Cycle: 25   F: -20.169436913563221   dF: +1.877e-09   |Residual|: 1.585e-06   |deigs|: 5.355e-06  t[s]:    209.38
	FillingsUpdate:  mu: -0.076787451  nElectrons: 9.000000  magneticMoment: [ Abs: 0.84596  Tot: +0.84000 ]
SCF: Cycle: 26   F: -20.169436914751291   dF: -1.188e-09   |Residual|: 1.234e-06   |deigs|: 6.113e-06  t[s]:    216.83
	FillingsUpdate:  mu: -0.076787966  nElectrons: 9.000000  magneticMoment: [ Abs: 0.84595  Tot: +0.84000 ]
SCF: Cycle: 27   F: -20.169436915875128   dF: -1.124e-09   |Residual|: 8.560e-07   |deigs|: 7.568e-06  t[s]:    224.18
SCF: Converged (|Delta E|<1.000000e-08 for 2 iters).


# Ionic positions in lattice coordinates:
ion Cs   0.000000000000000   0.000000000000000   0.000000000000000 0

# Forces in Lattice coordinates:
force Cs  -0.000000000000000   0.000000000000000   0.000000000000000 0

# Energy components:
   Eewald =       -9.0240130501663280
       EH =        7.0343401312839431
     Eloc =      -23.6221885807210690
      Enl =        3.4383594192826026
   Epulay =        0.0000000422266766
      Exc =       -3.1111776650154397
       KE =        5.1152434445914263
-------------------------------------
     Etot =      -20.1694362585181892
       TS =        0.0000006573569390
-------------------------------------
        F =      -20.1694369158751279

IonicMinimize: Iter:   0  F: -20.169436915875128  |grad|_K:  0.000e+00  t[s]:    224.60
IonicMinimize: Converged (|grad|_K<1.000000e-04).

#--- Lowdin population analysis ---
# oxidation-state Cs +0.002
# magnetic-moments Cs +0.838

End date and time: Sun Feb  6 13:40:25 2022  (Duration: 0-0:03:44.67)
Done!
