
*************** JDFTx 1.6.0 (git hash 42ebbcc2) ***************

Start date and time: Sun Feb  6 13:25:17 2022
Executable jdftx with command-line: -i Alkali.in
Running on hosts (process indices):  d-16-6-2 (0-18)
Divided in process groups (process indices):  0 (0)  1 (1)  2 (2)  3 (3)  4 (4)  5 (5)  6 (6)  7 (7)  8 (8)  9 (9)  10 (10)  11 (11)  12 (12)  13 (13)  14 (14)  15 (15)  16 (16)  17 (17)  18 (18)
Resource initialization completed at t[s]:      0.00
Run totals: 19 processes, 48 threads, 0 GPUs


Input parsed successfully to the following command list (including defaults):

basis kpoint-dependent
coords-type Lattice
core-overlap-check vector
coulomb-interaction Slab 001
davidson-band-ratio 1.1
dump End None
dump-name $INPUT.$VAR
elec-cutoff 20
elec-eigen-algo Davidson
elec-ex-corr gga-PBE
elec-initial-magnetization 0.060000 yes
elec-smearing Fermi 1e-05
electronic-minimize  \
	dirUpdateScheme      FletcherReeves \
	linminMethod         DirUpdateRecommended \
	nIterations          100 \
	history              15 \
	knormThreshold       0 \
	energyDiffThreshold  1e-08 \
	nEnergyDiff          2 \
	alphaTstart          1 \
	alphaTmin            1e-10 \
	updateTestStepSize   yes \
	alphaTreduceFactor   0.1 \
	alphaTincreaseFactor 3 \
	nAlphaAdjustMax      3 \
	wolfeEnergy          0.0001 \
	wolfeGradient        0.9 \
	fdTest               no
electronic-scf  \
	nIterations	10000 \
	energyDiffThreshold	1e-08 \
	residualThreshold	1e-07 \
	mixFraction	0.5 \
	qMetric	0.8 \
	history	10 \
	nEigSteps	2 \
	eigDiffThreshold	1e-08 \
	mixedVariable	Density \
	qKerker	0.8 \
	qKappa	-1 \
	verbose	no \
	mixFractionMag	1.5
exchange-regularization WignerSeitzTruncated
fluid None
fluid-ex-corr (null) lda-PZ
fluid-gummel-loop 10 1.000000e-05
fluid-minimize  \
	dirUpdateScheme      PolakRibiere \
	linminMethod         DirUpdateRecommended \
	nIterations          100 \
	history              15 \
	knormThreshold       0 \
	energyDiffThreshold  0 \
	nEnergyDiff          2 \
	alphaTstart          1 \
	alphaTmin            1e-10 \
	updateTestStepSize   yes \
	alphaTreduceFactor   0.1 \
	alphaTincreaseFactor 3 \
	nAlphaAdjustMax      3 \
	wolfeEnergy          0.0001 \
	wolfeGradient        0.9 \
	fdTest               no
fluid-solvent H2O 55.338 ScalarEOS \
	epsBulk 78.4 \
	pMol 0.92466 \
	epsInf 1.77 \
	Pvap 1.06736e-10 \
	sigmaBulk 4.62e-05 \
	Rvdw 2.61727 \
	Res 1.42 \
	tauNuc 343133 \
	poleEl 15 7 1
forces-output-coords Positions
ion Cs   0.000000000000000   0.000000000000000   0.000000000000000 0
ion-species SG15/$ID_ONCV_PBE.upf
ion-width 0
ionic-minimize  \
	dirUpdateScheme      L-BFGS \
	linminMethod         DirUpdateRecommended \
	nIterations          0 \
	history              15 \
	knormThreshold       0.0001 \
	energyDiffThreshold  1e-06 \
	nEnergyDiff          2 \
	alphaTstart          1 \
	alphaTmin            1e-10 \
	updateTestStepSize   yes \
	alphaTreduceFactor   0.1 \
	alphaTincreaseFactor 3 \
	nAlphaAdjustMax      3 \
	wolfeEnergy          0.0001 \
	wolfeGradient        0.9 \
	fdTest               no
kpoint   0.000000000000   0.000000000000   0.000000000000  1.00000000000000
kpoint-folding 12 12 1 
latt-move-scale 1 1 1
latt-scale 4 4 1 
lattice  \
	   4.727486978767153   -2.363743489383575    0.000000000000000  \
	  -0.000000000000000    4.094123819672498    0.000000000000000  \
	   0.000000000000000    0.000000000000000   40.000000000000000 
lattice-minimize  \
	dirUpdateScheme      L-BFGS \
	linminMethod         DirUpdateRecommended \
	nIterations          0 \
	history              15 \
	knormThreshold       0 \
	energyDiffThreshold  1e-06 \
	nEnergyDiff          2 \
	alphaTstart          1 \
	alphaTmin            1e-10 \
	updateTestStepSize   yes \
	alphaTreduceFactor   0.1 \
	alphaTincreaseFactor 3 \
	nAlphaAdjustMax      3 \
	wolfeEnergy          0.0001 \
	wolfeGradient        0.9 \
	fdTest               no
lcao-params -1 1e-06 1e-05
pcm-variant GLSSA13
spintype z-spin
subspace-rotation-factor 1 yes
symmetries automatic
symmetry-threshold 0.0001



---------- Setting up symmetries ----------

Found 24 point-group symmetries of the bravais lattice
Found 24 space-group symmetries with basis
Applied RMS atom displacement 0 bohrs to make symmetries exact.

---------- Initializing the Grid ----------
R = 
[      18.9099     -9.45497            0  ]
[            0      16.3765            0  ]
[            0            0           40  ]
unit cell volume = 12387.1
G =
[   0.332269   0.191835         -0  ]
[          0   0.383671         -0  ]
[         -0         -0    0.15708  ]
Minimum fftbox size, Smin = [  80  80  164  ]
Chosen fftbox size, S = [  80  80  168  ]

---------- Exchange Correlation functional ----------
Initalized PBE GGA exchange.
Initalized PBE GGA correlation.

---------- Setting up pseudopotentials ----------
Width of ionic core gaussian charges (only for fluid interactions / plotting) set to 0

Reading pseudopotential file '/home/gridsan/aligho/DFT/build-Nov24/pseudopotentials/SG15/Cs_ONCV_PBE.upf':
  'Cs' pseudopotential, 'PBE' functional
  Generated using ONCVPSP code by D. R. Hamann
  Author: Martin Schlipf and Francois Gygi  Date: 150915.
  9 valence electrons, 3 orbitals, 6 projectors, 2414 radial grid points, with lMax = 2
  Transforming local potential to a uniform radial grid of dG=0.02 with 1489 points.
  Transforming nonlocal projectors to a uniform radial grid of dG=0.02 with 432 points.
    5S    l: 0   occupation:  2.0   eigenvalue: -0.982388
    5P    l: 1   occupation:  6.0   eigenvalue: -0.496786
    6S    l: 0   occupation:  1.0   eigenvalue: -0.076670
  Transforming atomic orbitals to a uniform radial grid of dG=0.02 with 432 points.
  Core radius for overlap checks: 2.06 bohrs.
  Reading pulay file /home/gridsan/aligho/DFT/build-Nov24/pseudopotentials/SG15/Cs_ONCV_PBE.pulay ... using dE_dnG = -1.008762e-04 computed for Ecut = 20.

Initialized 1 species with 1 total atoms.

Folded 1 k-points by 12x12x1 to 144 k-points.

---------- Setting up k-points, bands, fillings ----------
Reduced to 19 k-points under symmetry. 
Computing the number of bands and number of electrons
Calculating initial fillings.
nElectrons:   9.000000   nBands: 6   nStates: 38

----- Setting up reduced wavefunction bases (one per k-point) -----
average nbasis = 52924.021 , ideal nbasis = 52918.836

---------- Setting up coulomb interaction ----------
Initialized slab truncation along lattice direction 001

---------- Setting up 2D ewald sum ----------
Optimum gaussian width for ewald sums = 10.498040 bohr.
Real space sums over 289 unit cells with max indices [  8  8  0  ]
Reciprocal space sums over 81 terms with max indices [  4  4  0  ]

---------- Allocating electronic variables ----------
Initializing wave functions:  linear combination of atomic orbitals
Note: number of bands (6) exceeds available atomic orbitals (5)
Cs pseudo-atom occupations:   s ( 2 1 )  p ( 6 )
	FillingsUpdate:  mu: -0.077218274  nElectrons: 9.000000  magneticMoment: [ Abs: 0.06000  Tot: +0.06000 ]
LCAOMinimize: Iter:   0  F: -20.1678197890016264  |grad|_K:  7.770e-06  alpha:  1.000e+00
	FillingsUpdate:  mu: -0.077216654  nElectrons: 9.000000  magneticMoment: [ Abs: 0.06000  Tot: +0.06000 ]
LCAOMinimize: Iter:   1  F: -20.1678198298348370  |grad|_K:  3.833e-08  alpha:  9.888e-01  linmin: -1.438e-02  cgtest:  3.924e-01  t[s]:     14.91
LCAOMinimize: Encountered beta<0, resetting CG.
	FillingsUpdate:  mu: -0.077216653  nElectrons: 9.000000  magneticMoment: [ Abs: 0.06000  Tot: +0.06000 ]
LCAOMinimize: Iter:   2  F: -20.1678198298357003  |grad|_K:  5.724e-09  alpha:  8.511e-01  linmin: -3.119e-02  cgtest:  1.000e+00  t[s]:     18.90
LCAOMinimize: Encountered beta<0, resetting CG.
LCAOMinimize: Converged (|Delta F|<1.000000e-06 for 2 iters).


---- Citations for features of the code used in this run ----

   Software package:
      R. Sundararaman, K. Letchworth-Weaver, K.A. Schwarz, D. Gunceler, Y. Ozhabes and T.A. Arias, 'JDFTx: software for joint density-functional theory', SoftwareX 6, 278 (2017)

   gga-PBE exchange-correlation functional:
      J.P. Perdew, K. Burke and M. Ernzerhof, Phys. Rev. Lett. 77, 3865 (1996)

   Pseudopotentials:
      M Schlipf and F Gygi, Comput. Phys. Commun. 196, 36 (2015)

   Truncated Coulomb potentials:
      R. Sundararaman and T.A. Arias, Phys. Rev. B 87, 165122 (2013)

This list may not be complete. Please suggest additional citations or
report any other bugs at https://github.com/shankar1729/jdftx/issues

Initialization completed successfully at t[s]:     19.15


-------- Electronic minimization -----------
Will mix electronic density at each iteration.
	FillingsUpdate:  mu: -0.077216653  nElectrons: 9.000000  magneticMoment: [ Abs: 0.06000  Tot: +0.06000 ]
	FillingsUpdate:  mu: -0.077452712  nElectrons: 9.000000  magneticMoment: [ Abs: 0.06000  Tot: +0.06000 ]
SCF: Cycle:  0   F: -20.168082013769006   dF: -2.622e-04   |Residual|: 9.890e-04   |deigs|: 1.755e-01  t[s]:     27.25
	FillingsUpdate:  mu: -0.077516467  nElectrons: 9.000000  magneticMoment: [ Abs: 0.06031  Tot: +0.06000 ]
SCF: Cycle:  1   F: -20.168088931081918   dF: -6.917e-06   |Residual|: 8.910e-04   |deigs|: 3.546e-03  t[s]:     33.67
	FillingsUpdate:  mu: -0.077662607  nElectrons: 9.000000  magneticMoment: [ Abs: 0.06023  Tot: +0.06000 ]
SCF: Cycle:  2   F: -20.168093432075402   dF: -4.501e-06   |Residual|: 6.557e-04   |deigs|: 7.674e-04  t[s]:     40.17
	FillingsUpdate:  mu: -0.077871992  nElectrons: 9.000000  magneticMoment: [ Abs: 0.06122  Tot: +0.06000 ]
SCF: Cycle:  3   F: -20.168099381564776   dF: -5.949e-06   |Residual|: 4.265e-04   |deigs|: 7.567e-04  t[s]:     46.78
	FillingsUpdate:  mu: -0.077975347  nElectrons: 9.000000  magneticMoment: [ Abs: 0.06039  Tot: +0.06000 ]
SCF: Cycle:  4   F: -20.168102232221031   dF: -2.851e-06   |Residual|: 2.705e-04   |deigs|: 5.481e-04  t[s]:     53.43
	FillingsUpdate:  mu: -0.078051360  nElectrons: 9.000000  magneticMoment: [ Abs: 0.06062  Tot: +0.06000 ]
SCF: Cycle:  5   F: -20.168104265353804   dF: -2.033e-06   |Residual|: 2.106e-04   |deigs|: 5.301e-04  t[s]:     60.27
	FillingsUpdate:  mu: -0.078009008  nElectrons: 9.000000  magneticMoment: [ Abs: 0.06060  Tot: +0.06000 ]
SCF: Cycle:  6   F: -20.168105160449695   dF: -8.951e-07   |Residual|: 1.285e-04   |deigs|: 5.504e-04  t[s]:     67.18
	FillingsUpdate:  mu: -0.077972204  nElectrons: 9.000000  magneticMoment: [ Abs: 0.06045  Tot: +0.06000 ]
SCF: Cycle:  7   F: -20.168105480775871   dF: -3.203e-07   |Residual|: 1.089e-04   |deigs|: 5.911e-04  t[s]:     74.26
	FillingsUpdate:  mu: -0.077926461  nElectrons: 9.000000  magneticMoment: [ Abs: 0.06041  Tot: +0.06000 ]
SCF: Cycle:  8   F: -20.168105668805687   dF: -1.880e-07   |Residual|: 7.619e-05   |deigs|: 4.239e-04  t[s]:     81.35
	FillingsUpdate:  mu: -0.077865777  nElectrons: 9.000000  magneticMoment: [ Abs: 0.06050  Tot: +0.06000 ]
SCF: Cycle:  9   F: -20.168105705408184   dF: -3.660e-08   |Residual|: 6.912e-05   |deigs|: 2.366e-04  t[s]:     88.63
	FillingsUpdate:  mu: -0.077819813  nElectrons: 9.000000  magneticMoment: [ Abs: 0.06050  Tot: +0.06000 ]
SCF: Cycle: 10   F: -20.168105739151247   dF: -3.374e-08   |Residual|: 6.189e-05   |deigs|: 3.773e-04  t[s]:     96.02
	FillingsUpdate:  mu: -0.077740478  nElectrons: 9.000000  magneticMoment: [ Abs: 0.06055  Tot: +0.06000 ]
SCF: Cycle: 11   F: -20.168105654000428   dF: +8.515e-08   |Residual|: 5.776e-05   |deigs|: 1.354e-04  t[s]:    103.38
	FillingsUpdate:  mu: -0.077679309  nElectrons: 9.000000  magneticMoment: [ Abs: 0.06055  Tot: +0.06000 ]
SCF: Cycle: 12   F: -20.168105658703947   dF: -4.704e-09   |Residual|: 5.224e-05   |deigs|: 1.965e-04  t[s]:    110.71
	FillingsUpdate:  mu: -0.077621772  nElectrons: 9.000000  magneticMoment: [ Abs: 0.06047  Tot: +0.06000 ]
SCF: Cycle: 13   F: -20.168105628620470   dF: +3.008e-08   |Residual|: 4.799e-05   |deigs|: 2.294e-04  t[s]:    118.00
	FillingsUpdate:  mu: -0.077562125  nElectrons: 9.000000  magneticMoment: [ Abs: 0.06049  Tot: +0.06000 ]
SCF: Cycle: 14   F: -20.168105695239891   dF: -6.662e-08   |Residual|: 4.377e-05   |deigs|: 1.705e-04  t[s]:    125.35
	FillingsUpdate:  mu: -0.077518100  nElectrons: 9.000000  magneticMoment: [ Abs: 0.06049  Tot: +0.06000 ]
SCF: Cycle: 15   F: -20.168105720076682   dF: -2.484e-08   |Residual|: 3.797e-05   |deigs|: 3.046e-04  t[s]:    132.70
	FillingsUpdate:  mu: -0.077486296  nElectrons: 9.000000  magneticMoment: [ Abs: 0.06041  Tot: +0.06000 ]
SCF: Cycle: 16   F: -20.168105760147075   dF: -4.007e-08   |Residual|: 3.073e-05   |deigs|: 1.989e-04  t[s]:    140.07
	FillingsUpdate:  mu: -0.077466007  nElectrons: 9.000000  magneticMoment: [ Abs: 0.06040  Tot: +0.06000 ]
SCF: Cycle: 17   F: -20.168105810805553   dF: -5.066e-08   |Residual|: 2.555e-05   |deigs|: 5.135e-05  t[s]:    147.41
	FillingsUpdate:  mu: -0.077454754  nElectrons: 9.000000  magneticMoment: [ Abs: 0.06038  Tot: +0.06000 ]
SCF: Cycle: 18   F: -20.168105799132203   dF: +1.167e-08   |Residual|: 2.112e-05   |deigs|: 2.820e-05  t[s]:    154.73
	FillingsUpdate:  mu: -0.077451014  nElectrons: 9.000000  magneticMoment: [ Abs: 0.06039  Tot: +0.06000 ]
SCF: Cycle: 19   F: -20.168105839387668   dF: -4.026e-08   |Residual|: 1.586e-05   |deigs|: 1.735e-05  t[s]:    162.05
	FillingsUpdate:  mu: -0.077450288  nElectrons: 9.000000  magneticMoment: [ Abs: 0.06043  Tot: +0.06000 ]
SCF: Cycle: 20   F: -20.168105897675890   dF: -5.829e-08   |Residual|: 1.129e-05   |deigs|: 1.080e-05  t[s]:    169.40
	FillingsUpdate:  mu: -0.077445575  nElectrons: 9.000000  magneticMoment: [ Abs: 0.06041  Tot: +0.06000 ]
SCF: Cycle: 21   F: -20.168105916381020   dF: -1.871e-08   |Residual|: 7.987e-06   |deigs|: 1.150e-05  t[s]:    176.56
	FillingsUpdate:  mu: -0.077443773  nElectrons: 9.000000  magneticMoment: [ Abs: 0.06041  Tot: +0.06000 ]
SCF: Cycle: 22   F: -20.168105921659876   dF: -5.279e-09   |Residual|: 6.059e-06   |deigs|: 1.355e-05  t[s]:    183.65
	FillingsUpdate:  mu: -0.077442054  nElectrons: 9.000000  magneticMoment: [ Abs: 0.06041  Tot: +0.06000 ]
SCF: Cycle: 23   F: -20.168105919421528   dF: +2.238e-09   |Residual|: 4.776e-06   |deigs|: 1.606e-05  t[s]:    190.97
	FillingsUpdate:  mu: -0.077441534  nElectrons: 9.000000  magneticMoment: [ Abs: 0.06039  Tot: +0.06000 ]
SCF: Cycle: 24   F: -20.168105927170647   dF: -7.749e-09   |Residual|: 2.664e-06   |deigs|: 1.907e-05  t[s]:    198.27
	FillingsUpdate:  mu: -0.077441813  nElectrons: 9.000000  magneticMoment: [ Abs: 0.06039  Tot: +0.06000 ]
SCF: Cycle: 25   F: -20.168105928007197   dF: -8.366e-10   |Residual|: 1.700e-06   |deigs|: 2.192e-05  t[s]:    205.09
SCF: Converged (|Delta E|<1.000000e-08 for 2 iters).


# Ionic positions in lattice coordinates:
ion Cs   0.000000000000000   0.000000000000000   0.000000000000000 0

# Forces in Lattice coordinates:
force Cs  -0.000000000000000  -0.000000000000000   0.000000000000000 0

# Energy components:
   Eewald =       -9.0240130501663280
       EH =        7.0003326137783404
     Eloc =      -23.5838181695550979
      Enl =        3.4362446208083783
   Epulay =        0.0000000422266766
      Exc =       -3.1047211702356252
       KE =        5.1078702488769805
-------------------------------------
     Etot =      -20.1681048642666738
       TS =        0.0000010637405219
-------------------------------------
        F =      -20.1681059280071970

IonicMinimize: Iter:   0  F: -20.168105928007197  |grad|_K:  0.000e+00  t[s]:    205.50
IonicMinimize: Converged (|grad|_K<1.000000e-04).

#--- Lowdin population analysis ---
# oxidation-state Cs +0.006
# magnetic-moments Cs +0.060

End date and time: Sun Feb  6 13:28:42 2022  (Duration: 0-0:03:25.57)
Done!
