
*************** JDFTx 1.6.0 (git hash 42ebbcc2) ***************

Start date and time: Sun Feb  6 13:12:35 2022
Executable jdftx with command-line: -i Alkali.in
Running on hosts (process indices):  d-4-3-3 (0-18)
Divided in process groups (process indices):  0 (0)  1 (1)  2 (2)  3 (3)  4 (4)  5 (5)  6 (6)  7 (7)  8 (8)  9 (9)  10 (10)  11 (11)  12 (12)  13 (13)  14 (14)  15 (15)  16 (16)  17 (17)  18 (18)
Resource initialization completed at t[s]:      0.00
Run totals: 19 processes, 48 threads, 0 GPUs


Input parsed successfully to the following command list (including defaults):

basis kpoint-dependent
coords-type Lattice
core-overlap-check vector
coulomb-interaction Slab 001
davidson-band-ratio 1.1
dump End None
dump-name $INPUT.$VAR
elec-cutoff 20
elec-eigen-algo Davidson
elec-ex-corr gga-PBE
elec-initial-magnetization -0.880000 yes
elec-smearing Fermi 1e-05
electronic-minimize  \
	dirUpdateScheme      FletcherReeves \
	linminMethod         DirUpdateRecommended \
	nIterations          100 \
	history              15 \
	knormThreshold       0 \
	energyDiffThreshold  1e-08 \
	nEnergyDiff          2 \
	alphaTstart          1 \
	alphaTmin            1e-10 \
	updateTestStepSize   yes \
	alphaTreduceFactor   0.1 \
	alphaTincreaseFactor 3 \
	nAlphaAdjustMax      3 \
	wolfeEnergy          0.0001 \
	wolfeGradient        0.9 \
	fdTest               no
electronic-scf  \
	nIterations	10000 \
	energyDiffThreshold	1e-08 \
	residualThreshold	1e-07 \
	mixFraction	0.5 \
	qMetric	0.8 \
	history	10 \
	nEigSteps	2 \
	eigDiffThreshold	1e-08 \
	mixedVariable	Density \
	qKerker	0.8 \
	qKappa	-1 \
	verbose	no \
	mixFractionMag	1.5
exchange-regularization WignerSeitzTruncated
fluid None
fluid-ex-corr (null) lda-PZ
fluid-gummel-loop 10 1.000000e-05
fluid-minimize  \
	dirUpdateScheme      PolakRibiere \
	linminMethod         DirUpdateRecommended \
	nIterations          100 \
	history              15 \
	knormThreshold       0 \
	energyDiffThreshold  0 \
	nEnergyDiff          2 \
	alphaTstart          1 \
	alphaTmin            1e-10 \
	updateTestStepSize   yes \
	alphaTreduceFactor   0.1 \
	alphaTincreaseFactor 3 \
	nAlphaAdjustMax      3 \
	wolfeEnergy          0.0001 \
	wolfeGradient        0.9 \
	fdTest               no
fluid-solvent H2O 55.338 ScalarEOS \
	epsBulk 78.4 \
	pMol 0.92466 \
	epsInf 1.77 \
	Pvap 1.06736e-10 \
	sigmaBulk 4.62e-05 \
	Rvdw 2.61727 \
	Res 1.42 \
	tauNuc 343133 \
	poleEl 15 7 1
forces-output-coords Positions
ion Cs   0.000000000000000   0.000000000000000   0.000000000000000 0
ion-species SG15/$ID_ONCV_PBE.upf
ion-width 0
ionic-minimize  \
	dirUpdateScheme      L-BFGS \
	linminMethod         DirUpdateRecommended \
	nIterations          0 \
	history              15 \
	knormThreshold       0.0001 \
	energyDiffThreshold  1e-06 \
	nEnergyDiff          2 \
	alphaTstart          1 \
	alphaTmin            1e-10 \
	updateTestStepSize   yes \
	alphaTreduceFactor   0.1 \
	alphaTincreaseFactor 3 \
	nAlphaAdjustMax      3 \
	wolfeEnergy          0.0001 \
	wolfeGradient        0.9 \
	fdTest               no
kpoint   0.000000000000   0.000000000000   0.000000000000  1.00000000000000
kpoint-folding 12 12 1 
latt-move-scale 1 1 1
latt-scale 4 4 1 
lattice  \
	   4.727486978767153   -2.363743489383575    0.000000000000000  \
	  -0.000000000000000    4.094123819672498    0.000000000000000  \
	   0.000000000000000    0.000000000000000   40.000000000000000 
lattice-minimize  \
	dirUpdateScheme      L-BFGS \
	linminMethod         DirUpdateRecommended \
	nIterations          0 \
	history              15 \
	knormThreshold       0 \
	energyDiffThreshold  1e-06 \
	nEnergyDiff          2 \
	alphaTstart          1 \
	alphaTmin            1e-10 \
	updateTestStepSize   yes \
	alphaTreduceFactor   0.1 \
	alphaTincreaseFactor 3 \
	nAlphaAdjustMax      3 \
	wolfeEnergy          0.0001 \
	wolfeGradient        0.9 \
	fdTest               no
lcao-params -1 1e-06 1e-05
pcm-variant GLSSA13
spintype z-spin
subspace-rotation-factor 1 yes
symmetries automatic
symmetry-threshold 0.0001



---------- Setting up symmetries ----------

Found 24 point-group symmetries of the bravais lattice
Found 24 space-group symmetries with basis
Applied RMS atom displacement 0 bohrs to make symmetries exact.

---------- Initializing the Grid ----------
R = 
[      18.9099     -9.45497            0  ]
[            0      16.3765            0  ]
[            0            0           40  ]
unit cell volume = 12387.1
G =
[   0.332269   0.191835         -0  ]
[          0   0.383671         -0  ]
[         -0         -0    0.15708  ]
Minimum fftbox size, Smin = [  80  80  164  ]
Chosen fftbox size, S = [  80  80  168  ]

---------- Exchange Correlation functional ----------
Initalized PBE GGA exchange.
Initalized PBE GGA correlation.

---------- Setting up pseudopotentials ----------
Width of ionic core gaussian charges (only for fluid interactions / plotting) set to 0

Reading pseudopotential file '/home/gridsan/aligho/DFT/build-Nov24/pseudopotentials/SG15/Cs_ONCV_PBE.upf':
  'Cs' pseudopotential, 'PBE' functional
  Generated using ONCVPSP code by D. R. Hamann
  Author: Martin Schlipf and Francois Gygi  Date: 150915.
  9 valence electrons, 3 orbitals, 6 projectors, 2414 radial grid points, with lMax = 2
  Transforming local potential to a uniform radial grid of dG=0.02 with 1489 points.
  Transforming nonlocal projectors to a uniform radial grid of dG=0.02 with 432 points.
    5S    l: 0   occupation:  2.0   eigenvalue: -0.982388
    5P    l: 1   occupation:  6.0   eigenvalue: -0.496786
    6S    l: 0   occupation:  1.0   eigenvalue: -0.076670
  Transforming atomic orbitals to a uniform radial grid of dG=0.02 with 432 points.
  Core radius for overlap checks: 2.06 bohrs.
  Reading pulay file /home/gridsan/aligho/DFT/build-Nov24/pseudopotentials/SG15/Cs_ONCV_PBE.pulay ... using dE_dnG = -1.008762e-04 computed for Ecut = 20.

Initialized 1 species with 1 total atoms.

Folded 1 k-points by 12x12x1 to 144 k-points.

---------- Setting up k-points, bands, fillings ----------
Reduced to 19 k-points under symmetry. 
Computing the number of bands and number of electrons
Calculating initial fillings.
nElectrons:   9.000000   nBands: 6   nStates: 38

----- Setting up reduced wavefunction bases (one per k-point) -----
average nbasis = 52924.021 , ideal nbasis = 52918.836

---------- Setting up coulomb interaction ----------
Initialized slab truncation along lattice direction 001

---------- Setting up 2D ewald sum ----------
Optimum gaussian width for ewald sums = 10.498040 bohr.
Real space sums over 289 unit cells with max indices [  8  8  0  ]
Reciprocal space sums over 81 terms with max indices [  4  4  0  ]

---------- Allocating electronic variables ----------
Initializing wave functions:  linear combination of atomic orbitals
Note: number of bands (6) exceeds available atomic orbitals (5)
Cs pseudo-atom occupations:   s ( 2 1 )  p ( 6 )
	FillingsUpdate:  mu: -0.076851953  nElectrons: 9.000000  magneticMoment: [ Abs: 0.88000  Tot: -0.88000 ]
LCAOMinimize: Iter:   0  F: -20.1694067006458262  |grad|_K:  1.846e-06  alpha:  1.000e+00
	FillingsUpdate:  mu: -0.076851613  nElectrons: 9.000000  magneticMoment: [ Abs: 0.88000  Tot: -0.88000 ]
LCAOMinimize: Iter:   1  F: -20.1694067029616591  |grad|_K:  8.414e-09  alpha:  9.940e-01  linmin: -3.329e-03  cgtest:  6.567e-02  t[s]:     15.36
LCAOMinimize: Encountered beta<0, resetting CG.
LCAOMinimize: 	Wrong curvature in test step, increasing alphaT to 2.982049e+00.
	FillingsUpdate:  mu: -0.076851614  nElectrons: 9.000000  magneticMoment: [ Abs: 0.88000  Tot: -0.88000 ]
LCAOMinimize: Iter:   2  F: -20.1694067029617692  |grad|_K:  4.665e-11  alpha: -3.367e+00  linmin: -5.307e-02  cgtest:  6.174e-01  t[s]:     19.47
LCAOMinimize: Encountered beta<0, resetting CG.
LCAOMinimize: Converged (|Delta F|<1.000000e-06 for 2 iters).


---- Citations for features of the code used in this run ----

   Software package:
      R. Sundararaman, K. Letchworth-Weaver, K.A. Schwarz, D. Gunceler, Y. Ozhabes and T.A. Arias, 'JDFTx: software for joint density-functional theory', SoftwareX 6, 278 (2017)

   gga-PBE exchange-correlation functional:
      J.P. Perdew, K. Burke and M. Ernzerhof, Phys. Rev. Lett. 77, 3865 (1996)

   Pseudopotentials:
      M Schlipf and F Gygi, Comput. Phys. Commun. 196, 36 (2015)

   Truncated Coulomb potentials:
      R. Sundararaman and T.A. Arias, Phys. Rev. B 87, 165122 (2013)

This list may not be complete. Please suggest additional citations or
report any other bugs at https://github.com/shankar1729/jdftx/issues

Initialization completed successfully at t[s]:     19.73


-------- Electronic minimization -----------
Will mix electronic density at each iteration.
	FillingsUpdate:  mu: -0.076851614  nElectrons: 9.000000  magneticMoment: [ Abs: 0.88000  Tot: -0.88000 ]
	FillingsUpdate:  mu: -0.077006506  nElectrons: 9.000000  magneticMoment: [ Abs: 0.88000  Tot: -0.88000 ]
SCF: Cycle:  0   F: -20.169585574915232   dF: -1.789e-04   |Residual|: 1.812e-03   |deigs|: 1.696e-01  t[s]:     27.95
	FillingsUpdate:  mu: -0.077000427  nElectrons: 9.000000  magneticMoment: [ Abs: 0.88550  Tot: -0.88000 ]
SCF: Cycle:  1   F: -20.169592307571683   dF: -6.733e-06   |Residual|: 5.012e-04   |deigs|: 8.869e-03  t[s]:     34.41
	FillingsUpdate:  mu: -0.076962434  nElectrons: 9.000000  magneticMoment: [ Abs: 0.88547  Tot: -0.88000 ]
SCF: Cycle:  2   F: -20.169594284647381   dF: -1.977e-06   |Residual|: 2.890e-04   |deigs|: 1.575e-03  t[s]:     41.05
	FillingsUpdate:  mu: -0.076923647  nElectrons: 9.000000  magneticMoment: [ Abs: 0.88633  Tot: -0.88000 ]
SCF: Cycle:  3   F: -20.169595296801106   dF: -1.012e-06   |Residual|: 2.241e-04   |deigs|: 8.163e-04  t[s]:     47.86
	FillingsUpdate:  mu: -0.076859632  nElectrons: 9.000000  magneticMoment: [ Abs: 0.88641  Tot: -0.88000 ]
SCF: Cycle:  4   F: -20.169596076766723   dF: -7.800e-07   |Residual|: 1.745e-04   |deigs|: 5.002e-04  t[s]:     54.68
	FillingsUpdate:  mu: -0.076791616  nElectrons: 9.000000  magneticMoment: [ Abs: 0.88639  Tot: -0.88000 ]
SCF: Cycle:  5   F: -20.169596543570417   dF: -4.668e-07   |Residual|: 1.345e-04   |deigs|: 4.591e-04  t[s]:     61.61
	FillingsUpdate:  mu: -0.076705557  nElectrons: 9.000000  magneticMoment: [ Abs: 0.88635  Tot: -0.88000 ]
SCF: Cycle:  6   F: -20.169596722867666   dF: -1.793e-07   |Residual|: 1.005e-04   |deigs|: 2.950e-04  t[s]:     68.63
	FillingsUpdate:  mu: -0.076651824  nElectrons: 9.000000  magneticMoment: [ Abs: 0.88627  Tot: -0.88000 ]
SCF: Cycle:  7   F: -20.169596936154086   dF: -2.133e-07   |Residual|: 8.170e-05   |deigs|: 4.730e-04  t[s]:     75.82
	FillingsUpdate:  mu: -0.076617276  nElectrons: 9.000000  magneticMoment: [ Abs: 0.88631  Tot: -0.88000 ]
SCF: Cycle:  8   F: -20.169597042763503   dF: -1.066e-07   |Residual|: 7.047e-05   |deigs|: 4.997e-04  t[s]:     83.09
	FillingsUpdate:  mu: -0.076586454  nElectrons: 9.000000  magneticMoment: [ Abs: 0.88632  Tot: -0.88000 ]
SCF: Cycle:  9   F: -20.169597080468975   dF: -3.771e-08   |Residual|: 6.114e-05   |deigs|: 1.244e-04  t[s]:     90.44
	FillingsUpdate:  mu: -0.076541020  nElectrons: 9.000000  magneticMoment: [ Abs: 0.88631  Tot: -0.88000 ]
SCF: Cycle: 10   F: -20.169597077046259   dF: +3.423e-09   |Residual|: 5.103e-05   |deigs|: 8.887e-05  t[s]:     97.95
	FillingsUpdate:  mu: -0.076501488  nElectrons: 9.000000  magneticMoment: [ Abs: 0.88648  Tot: -0.88000 ]
SCF: Cycle: 11   F: -20.169597017968616   dF: +5.908e-08   |Residual|: 4.278e-05   |deigs|: 5.199e-05  t[s]:    105.46
	FillingsUpdate:  mu: -0.076492010  nElectrons: 9.000000  magneticMoment: [ Abs: 0.88662  Tot: -0.88000 ]
SCF: Cycle: 12   F: -20.169596567194407   dF: +4.508e-07   |Residual|: 3.891e-05   |deigs|: 5.646e-05  t[s]:    112.99
	FillingsUpdate:  mu: -0.076488692  nElectrons: 9.000000  magneticMoment: [ Abs: 0.88664  Tot: -0.88000 ]
SCF: Cycle: 13   F: -20.169596997720195   dF: -4.305e-07   |Residual|: 3.704e-05   |deigs|: 9.939e-05  t[s]:    120.53
	FillingsUpdate:  mu: -0.076428190  nElectrons: 9.000000  magneticMoment: [ Abs: 0.88673  Tot: -0.88000 ]
SCF: Cycle: 14   F: -20.169596999552454   dF: -1.832e-09   |Residual|: 3.251e-05   |deigs|: 1.545e-04  t[s]:    127.96
	FillingsUpdate:  mu: -0.076334195  nElectrons: 9.000000  magneticMoment: [ Abs: 0.88671  Tot: -0.88000 ]
SCF: Cycle: 15   F: -20.169596965705409   dF: +3.385e-08   |Residual|: 3.171e-05   |deigs|: 1.204e-04  t[s]:    135.51
	FillingsUpdate:  mu: -0.076302948  nElectrons: 9.000000  magneticMoment: [ Abs: 0.88642  Tot: -0.88000 ]
SCF: Cycle: 16   F: -20.169597178351317   dF: -2.126e-07   |Residual|: 2.435e-05   |deigs|: 5.358e-05  t[s]:    142.96
	FillingsUpdate:  mu: -0.076296045  nElectrons: 9.000000  magneticMoment: [ Abs: 0.88636  Tot: -0.88000 ]
SCF: Cycle: 17   F: -20.169597304984642   dF: -1.266e-07   |Residual|: 1.624e-05   |deigs|: 2.632e-05  t[s]:    150.44
	FillingsUpdate:  mu: -0.076281692  nElectrons: 9.000000  magneticMoment: [ Abs: 0.88633  Tot: -0.88000 ]
SCF: Cycle: 18   F: -20.169597339416740   dF: -3.443e-08   |Residual|: 1.173e-05   |deigs|: 2.264e-05  t[s]:    157.80
	FillingsUpdate:  mu: -0.076273987  nElectrons: 9.000000  magneticMoment: [ Abs: 0.88633  Tot: -0.88000 ]
SCF: Cycle: 19   F: -20.169597404004307   dF: -6.459e-08   |Residual|: 5.883e-06   |deigs|: 1.871e-05  t[s]:    165.35
	FillingsUpdate:  mu: -0.076277096  nElectrons: 9.000000  magneticMoment: [ Abs: 0.88634  Tot: -0.88000 ]
SCF: Cycle: 20   F: -20.169597436232003   dF: -3.223e-08   |Residual|: 4.193e-06   |deigs|: 1.447e-05  t[s]:    172.70
	FillingsUpdate:  mu: -0.076281937  nElectrons: 9.000000  magneticMoment: [ Abs: 0.88633  Tot: -0.88000 ]
SCF: Cycle: 21   F: -20.169597448137907   dF: -1.191e-08   |Residual|: 3.416e-06   |deigs|: 1.570e-05  t[s]:    179.96
	FillingsUpdate:  mu: -0.076284320  nElectrons: 9.000000  magneticMoment: [ Abs: 0.88632  Tot: -0.88000 ]
SCF: Cycle: 22   F: -20.169597451945272   dF: -3.807e-09   |Residual|: 2.668e-06   |deigs|: 1.432e-05  t[s]:    187.41
	FillingsUpdate:  mu: -0.076284983  nElectrons: 9.000000  magneticMoment: [ Abs: 0.88631  Tot: -0.88000 ]
SCF: Cycle: 23   F: -20.169597447480456   dF: +4.465e-09   |Residual|: 1.852e-06   |deigs|: 1.447e-05  t[s]:    194.91
	FillingsUpdate:  mu: -0.076284699  nElectrons: 9.000000  magneticMoment: [ Abs: 0.88631  Tot: -0.88000 ]
SCF: Cycle: 24   F: -20.169597452812134   dF: -5.332e-09   |Residual|: 1.280e-06   |deigs|: 1.426e-05  t[s]:    202.45
	FillingsUpdate:  mu: -0.076284123  nElectrons: 9.000000  magneticMoment: [ Abs: 0.88631  Tot: -0.88000 ]
SCF: Cycle: 25   F: -20.169597453867990   dF: -1.056e-09   |Residual|: 9.630e-07   |deigs|: 1.384e-05  t[s]:    209.84
SCF: Converged (|Delta E|<1.000000e-08 for 2 iters).


# Ionic positions in lattice coordinates:
ion Cs   0.000000000000000   0.000000000000000   0.000000000000000 0

# Forces in Lattice coordinates:
force Cs   0.000000000000000  -0.000000000000000   0.000000000000000 0

# Energy components:
   Eewald =       -9.0240130501663280
       EH =        7.0372663873054666
     Eloc =      -23.6254937338373701
      Enl =        3.4385484290951558
   Epulay =        0.0000000422266766
      Exc =       -3.1118132017480038
       KE =        5.1159084905235117
-------------------------------------
     Etot =      -20.1695966366008896
       TS =        0.0000008172671016
-------------------------------------
        F =      -20.1695974538679899

IonicMinimize: Iter:   0  F: -20.169597453867990  |grad|_K:  0.000e+00  t[s]:    210.25
IonicMinimize: Converged (|grad|_K<1.000000e-04).

#--- Lowdin population analysis ---
# oxidation-state Cs +0.002
# magnetic-moments Cs -0.878

End date and time: Sun Feb  6 13:16:06 2022  (Duration: 0-0:03:30.32)
Done!
