
*************** JDFTx 1.6.0 (git hash 42ebbcc2) ***************

Start date and time: Sun Feb  6 13:12:28 2022
Executable jdftx with command-line: -i Alkali.in
Running on hosts (process indices):  d-3-15-4 (0-18)
Divided in process groups (process indices):  0 (0)  1 (1)  2 (2)  3 (3)  4 (4)  5 (5)  6 (6)  7 (7)  8 (8)  9 (9)  10 (10)  11 (11)  12 (12)  13 (13)  14 (14)  15 (15)  16 (16)  17 (17)  18 (18)
Resource initialization completed at t[s]:      0.00
Run totals: 19 processes, 48 threads, 0 GPUs


Input parsed successfully to the following command list (including defaults):

basis kpoint-dependent
coords-type Lattice
core-overlap-check vector
coulomb-interaction Slab 001
davidson-band-ratio 1.1
dump End None
dump-name $INPUT.$VAR
elec-cutoff 20
elec-eigen-algo Davidson
elec-ex-corr gga-PBE
elec-initial-magnetization -0.920000 yes
elec-smearing Fermi 1e-05
electronic-minimize  \
	dirUpdateScheme      FletcherReeves \
	linminMethod         DirUpdateRecommended \
	nIterations          100 \
	history              15 \
	knormThreshold       0 \
	energyDiffThreshold  1e-08 \
	nEnergyDiff          2 \
	alphaTstart          1 \
	alphaTmin            1e-10 \
	updateTestStepSize   yes \
	alphaTreduceFactor   0.1 \
	alphaTincreaseFactor 3 \
	nAlphaAdjustMax      3 \
	wolfeEnergy          0.0001 \
	wolfeGradient        0.9 \
	fdTest               no
electronic-scf  \
	nIterations	10000 \
	energyDiffThreshold	1e-08 \
	residualThreshold	1e-07 \
	mixFraction	0.5 \
	qMetric	0.8 \
	history	10 \
	nEigSteps	2 \
	eigDiffThreshold	1e-08 \
	mixedVariable	Density \
	qKerker	0.8 \
	qKappa	-1 \
	verbose	no \
	mixFractionMag	1.5
exchange-regularization WignerSeitzTruncated
fluid None
fluid-ex-corr (null) lda-PZ
fluid-gummel-loop 10 1.000000e-05
fluid-minimize  \
	dirUpdateScheme      PolakRibiere \
	linminMethod         DirUpdateRecommended \
	nIterations          100 \
	history              15 \
	knormThreshold       0 \
	energyDiffThreshold  0 \
	nEnergyDiff          2 \
	alphaTstart          1 \
	alphaTmin            1e-10 \
	updateTestStepSize   yes \
	alphaTreduceFactor   0.1 \
	alphaTincreaseFactor 3 \
	nAlphaAdjustMax      3 \
	wolfeEnergy          0.0001 \
	wolfeGradient        0.9 \
	fdTest               no
fluid-solvent H2O 55.338 ScalarEOS \
	epsBulk 78.4 \
	pMol 0.92466 \
	epsInf 1.77 \
	Pvap 1.06736e-10 \
	sigmaBulk 4.62e-05 \
	Rvdw 2.61727 \
	Res 1.42 \
	tauNuc 343133 \
	poleEl 15 7 1
forces-output-coords Positions
ion Cs   0.000000000000000   0.000000000000000   0.000000000000000 0
ion-species SG15/$ID_ONCV_PBE.upf
ion-width 0
ionic-minimize  \
	dirUpdateScheme      L-BFGS \
	linminMethod         DirUpdateRecommended \
	nIterations          0 \
	history              15 \
	knormThreshold       0.0001 \
	energyDiffThreshold  1e-06 \
	nEnergyDiff          2 \
	alphaTstart          1 \
	alphaTmin            1e-10 \
	updateTestStepSize   yes \
	alphaTreduceFactor   0.1 \
	alphaTincreaseFactor 3 \
	nAlphaAdjustMax      3 \
	wolfeEnergy          0.0001 \
	wolfeGradient        0.9 \
	fdTest               no
kpoint   0.000000000000   0.000000000000   0.000000000000  1.00000000000000
kpoint-folding 12 12 1 
latt-move-scale 1 1 1
latt-scale 4 4 1 
lattice  \
	   4.727486978767153   -2.363743489383575    0.000000000000000  \
	  -0.000000000000000    4.094123819672498    0.000000000000000  \
	   0.000000000000000    0.000000000000000   40.000000000000000 
lattice-minimize  \
	dirUpdateScheme      L-BFGS \
	linminMethod         DirUpdateRecommended \
	nIterations          0 \
	history              15 \
	knormThreshold       0 \
	energyDiffThreshold  1e-06 \
	nEnergyDiff          2 \
	alphaTstart          1 \
	alphaTmin            1e-10 \
	updateTestStepSize   yes \
	alphaTreduceFactor   0.1 \
	alphaTincreaseFactor 3 \
	nAlphaAdjustMax      3 \
	wolfeEnergy          0.0001 \
	wolfeGradient        0.9 \
	fdTest               no
lcao-params -1 1e-06 1e-05
pcm-variant GLSSA13
spintype z-spin
subspace-rotation-factor 1 yes
symmetries automatic
symmetry-threshold 0.0001



---------- Setting up symmetries ----------

Found 24 point-group symmetries of the bravais lattice
Found 24 space-group symmetries with basis
Applied RMS atom displacement 0 bohrs to make symmetries exact.

---------- Initializing the Grid ----------
R = 
[      18.9099     -9.45497            0  ]
[            0      16.3765            0  ]
[            0            0           40  ]
unit cell volume = 12387.1
G =
[   0.332269   0.191835         -0  ]
[          0   0.383671         -0  ]
[         -0         -0    0.15708  ]
Minimum fftbox size, Smin = [  80  80  164  ]
Chosen fftbox size, S = [  80  80  168  ]

---------- Exchange Correlation functional ----------
Initalized PBE GGA exchange.
Initalized PBE GGA correlation.

---------- Setting up pseudopotentials ----------
Width of ionic core gaussian charges (only for fluid interactions / plotting) set to 0

Reading pseudopotential file '/home/gridsan/aligho/DFT/build-Nov24/pseudopotentials/SG15/Cs_ONCV_PBE.upf':
  'Cs' pseudopotential, 'PBE' functional
  Generated using ONCVPSP code by D. R. Hamann
  Author: Martin Schlipf and Francois Gygi  Date: 150915.
  9 valence electrons, 3 orbitals, 6 projectors, 2414 radial grid points, with lMax = 2
  Transforming local potential to a uniform radial grid of dG=0.02 with 1489 points.
  Transforming nonlocal projectors to a uniform radial grid of dG=0.02 with 432 points.
    5S    l: 0   occupation:  2.0   eigenvalue: -0.982388
    5P    l: 1   occupation:  6.0   eigenvalue: -0.496786
    6S    l: 0   occupation:  1.0   eigenvalue: -0.076670
  Transforming atomic orbitals to a uniform radial grid of dG=0.02 with 432 points.
  Core radius for overlap checks: 2.06 bohrs.
  Reading pulay file /home/gridsan/aligho/DFT/build-Nov24/pseudopotentials/SG15/Cs_ONCV_PBE.pulay ... using dE_dnG = -1.008762e-04 computed for Ecut = 20.

Initialized 1 species with 1 total atoms.

Folded 1 k-points by 12x12x1 to 144 k-points.

---------- Setting up k-points, bands, fillings ----------
Reduced to 19 k-points under symmetry. 
Computing the number of bands and number of electrons
Calculating initial fillings.
nElectrons:   9.000000   nBands: 6   nStates: 38

----- Setting up reduced wavefunction bases (one per k-point) -----
average nbasis = 52924.021 , ideal nbasis = 52918.836

---------- Setting up coulomb interaction ----------
Initialized slab truncation along lattice direction 001

---------- Setting up 2D ewald sum ----------
Optimum gaussian width for ewald sums = 10.498040 bohr.
Real space sums over 289 unit cells with max indices [  8  8  0  ]
Reciprocal space sums over 81 terms with max indices [  4  4  0  ]

---------- Allocating electronic variables ----------
Initializing wave functions:  linear combination of atomic orbitals
Note: number of bands (6) exceeds available atomic orbitals (5)
Cs pseudo-atom occupations:   s ( 2 1 )  p ( 6 )
	FillingsUpdate:  mu: -0.076456452  nElectrons: 9.000000  magneticMoment: [ Abs: 0.92000  Tot: -0.92000 ]
LCAOMinimize: Iter:   0  F: -20.1695883008484458  |grad|_K:  1.300e-06  alpha:  1.000e+00
	FillingsUpdate:  mu: -0.076456218  nElectrons: 9.000000  magneticMoment: [ Abs: 0.92000  Tot: -0.92000 ]
LCAOMinimize: Iter:   1  F: -20.1695883019992515  |grad|_K:  5.906e-09  alpha:  9.955e-01  linmin:  4.935e-03  cgtest: -8.405e-02  t[s]:     15.16
LCAOMinimize: 	Wrong curvature in test step, increasing alphaT to 2.986481e+00.
	FillingsUpdate:  mu: -0.076456219  nElectrons: 9.000000  magneticMoment: [ Abs: 0.92000  Tot: -0.92000 ]
LCAOMinimize: Iter:   2  F: -20.1695883019995357  |grad|_K:  4.966e-10  alpha: -9.858e-02  linmin: -3.011e-04  cgtest:  9.309e-02  t[s]:     19.19
LCAOMinimize: Encountered beta<0, resetting CG.
LCAOMinimize: Converged (|Delta F|<1.000000e-06 for 2 iters).


---- Citations for features of the code used in this run ----

   Software package:
      R. Sundararaman, K. Letchworth-Weaver, K.A. Schwarz, D. Gunceler, Y. Ozhabes and T.A. Arias, 'JDFTx: software for joint density-functional theory', SoftwareX 6, 278 (2017)

   gga-PBE exchange-correlation functional:
      J.P. Perdew, K. Burke and M. Ernzerhof, Phys. Rev. Lett. 77, 3865 (1996)

   Pseudopotentials:
      M Schlipf and F Gygi, Comput. Phys. Commun. 196, 36 (2015)

   Truncated Coulomb potentials:
      R. Sundararaman and T.A. Arias, Phys. Rev. B 87, 165122 (2013)

This list may not be complete. Please suggest additional citations or
report any other bugs at https://github.com/shankar1729/jdftx/issues

Initialization completed successfully at t[s]:     19.45


-------- Electronic minimization -----------
Will mix electronic density at each iteration.
	FillingsUpdate:  mu: -0.076456219  nElectrons: 9.000000  magneticMoment: [ Abs: 0.92000  Tot: -0.92000 ]
	FillingsUpdate:  mu: -0.076626013  nElectrons: 9.000000  magneticMoment: [ Abs: 0.92000  Tot: -0.92000 ]
SCF: Cycle:  0   F: -20.169772736196464   dF: -1.844e-04   |Residual|: 1.915e-03   |deigs|: 1.684e-01  t[s]:     27.64
	FillingsUpdate:  mu: -0.076645946  nElectrons: 9.000000  magneticMoment: [ Abs: 0.92595  Tot: -0.92000 ]
SCF: Cycle:  1   F: -20.169779477683246   dF: -6.741e-06   |Residual|: 5.197e-04   |deigs|: 1.001e-02  t[s]:     34.05
	FillingsUpdate:  mu: -0.076578697  nElectrons: 9.000000  magneticMoment: [ Abs: 0.92586  Tot: -0.92000 ]
SCF: Cycle:  2   F: -20.169781449219290   dF: -1.972e-06   |Residual|: 2.978e-04   |deigs|: 1.522e-03  t[s]:     40.59
	FillingsUpdate:  mu: -0.076508864  nElectrons: 9.000000  magneticMoment: [ Abs: 0.92675  Tot: -0.92000 ]
SCF: Cycle:  3   F: -20.169782414285283   dF: -9.651e-07   |Residual|: 2.318e-04   |deigs|: 8.026e-04  t[s]:     47.19
	FillingsUpdate:  mu: -0.076402854  nElectrons: 9.000000  magneticMoment: [ Abs: 0.92682  Tot: -0.92000 ]
SCF: Cycle:  4   F: -20.169783125571868   dF: -7.113e-07   |Residual|: 1.771e-04   |deigs|: 5.125e-04  t[s]:     54.00
	FillingsUpdate:  mu: -0.076293977  nElectrons: 9.000000  magneticMoment: [ Abs: 0.92678  Tot: -0.92000 ]
SCF: Cycle:  5   F: -20.169783535648957   dF: -4.101e-07   |Residual|: 1.293e-04   |deigs|: 4.222e-04  t[s]:     60.91
	FillingsUpdate:  mu: -0.076203557  nElectrons: 9.000000  magneticMoment: [ Abs: 0.92673  Tot: -0.92000 ]
SCF: Cycle:  6   F: -20.169783708306586   dF: -1.727e-07   |Residual|: 1.007e-04   |deigs|: 2.818e-04  t[s]:     67.86
	FillingsUpdate:  mu: -0.076163232  nElectrons: 9.000000  magneticMoment: [ Abs: 0.92664  Tot: -0.92000 ]
SCF: Cycle:  7   F: -20.169783946964547   dF: -2.387e-07   |Residual|: 8.058e-05   |deigs|: 2.903e-04  t[s]:     74.96
	FillingsUpdate:  mu: -0.076134693  nElectrons: 9.000000  magneticMoment: [ Abs: 0.92668  Tot: -0.92000 ]
SCF: Cycle:  8   F: -20.169783991120521   dF: -4.416e-08   |Residual|: 7.012e-05   |deigs|: 2.718e-04  t[s]:     82.19
	FillingsUpdate:  mu: -0.076065868  nElectrons: 9.000000  magneticMoment: [ Abs: 0.92671  Tot: -0.92000 ]
SCF: Cycle:  9   F: -20.169783914878256   dF: +7.624e-08   |Residual|: 6.395e-05   |deigs|: 3.332e-04  t[s]:     89.52
	FillingsUpdate:  mu: -0.076037935  nElectrons: 9.000000  magneticMoment: [ Abs: 0.92676  Tot: -0.92000 ]
SCF: Cycle: 10   F: -20.169783881420482   dF: +3.346e-08   |Residual|: 5.317e-05   |deigs|: 1.933e-04  t[s]:     96.89
	FillingsUpdate:  mu: -0.075995611  nElectrons: 9.000000  magneticMoment: [ Abs: 0.92700  Tot: -0.92000 ]
SCF: Cycle: 11   F: -20.169783754844261   dF: +1.266e-07   |Residual|: 4.282e-05   |deigs|: 1.084e-04  t[s]:    104.37
	FillingsUpdate:  mu: -0.075995057  nElectrons: 9.000000  magneticMoment: [ Abs: 0.92709  Tot: -0.92000 ]
SCF: Cycle: 12   F: -20.169783340406585   dF: +4.144e-07   |Residual|: 3.686e-05   |deigs|: 1.009e-04  t[s]:    111.84
	FillingsUpdate:  mu: -0.075968564  nElectrons: 9.000000  magneticMoment: [ Abs: 0.92699  Tot: -0.92000 ]
SCF: Cycle: 13   F: -20.169783246509720   dF: +9.390e-08   |Residual|: 3.582e-05   |deigs|: 7.136e-05  t[s]:    119.30
	FillingsUpdate:  mu: -0.075921248  nElectrons: 9.000000  magneticMoment: [ Abs: 0.92704  Tot: -0.92000 ]
SCF: Cycle: 14   F: -20.169783865538857   dF: -6.190e-07   |Residual|: 3.368e-05   |deigs|: 7.806e-05  t[s]:    126.81
	FillingsUpdate:  mu: -0.075863441  nElectrons: 9.000000  magneticMoment: [ Abs: 0.92694  Tot: -0.92000 ]
SCF: Cycle: 15   F: -20.169783824424176   dF: +4.111e-08   |Residual|: 3.233e-05   |deigs|: 9.164e-05  t[s]:    134.17
	FillingsUpdate:  mu: -0.075841164  nElectrons: 9.000000  magneticMoment: [ Abs: 0.92673  Tot: -0.92000 ]
SCF: Cycle: 16   F: -20.169783840029503   dF: -1.561e-08   |Residual|: 2.694e-05   |deigs|: 7.054e-05  t[s]:    141.62
	FillingsUpdate:  mu: -0.075827361  nElectrons: 9.000000  magneticMoment: [ Abs: 0.92671  Tot: -0.92000 ]
SCF: Cycle: 17   F: -20.169784092296691   dF: -2.523e-07   |Residual|: 1.875e-05   |deigs|: 5.770e-05  t[s]:    149.04
	FillingsUpdate:  mu: -0.075822706  nElectrons: 9.000000  magneticMoment: [ Abs: 0.92670  Tot: -0.92000 ]
SCF: Cycle: 18   F: -20.169784210798653   dF: -1.185e-07   |Residual|: 1.292e-05   |deigs|: 4.603e-05  t[s]:    156.36
	FillingsUpdate:  mu: -0.075816006  nElectrons: 9.000000  magneticMoment: [ Abs: 0.92670  Tot: -0.92000 ]
SCF: Cycle: 19   F: -20.169784311245252   dF: -1.004e-07   |Residual|: 6.999e-06   |deigs|: 3.649e-05  t[s]:    163.67
	FillingsUpdate:  mu: -0.075813237  nElectrons: 9.000000  magneticMoment: [ Abs: 0.92670  Tot: -0.92000 ]
SCF: Cycle: 20   F: -20.169784388765088   dF: -7.752e-08   |Residual|: 5.191e-06   |deigs|: 2.473e-05  t[s]:    170.85
	FillingsUpdate:  mu: -0.075814124  nElectrons: 9.000000  magneticMoment: [ Abs: 0.92670  Tot: -0.92000 ]
SCF: Cycle: 21   F: -20.169784408203537   dF: -1.944e-08   |Residual|: 4.308e-06   |deigs|: 1.916e-05  t[s]:    177.86
	FillingsUpdate:  mu: -0.075815655  nElectrons: 9.000000  magneticMoment: [ Abs: 0.92670  Tot: -0.92000 ]
SCF: Cycle: 22   F: -20.169784416569673   dF: -8.366e-09   |Residual|: 3.084e-06   |deigs|: 1.646e-05  t[s]:    185.06
	FillingsUpdate:  mu: -0.075815629  nElectrons: 9.000000  magneticMoment: [ Abs: 0.92669  Tot: -0.92000 ]
SCF: Cycle: 23   F: -20.169784418684795   dF: -2.115e-09   |Residual|: 2.441e-06   |deigs|: 1.439e-05  t[s]:    192.40
SCF: Converged (|Delta E|<1.000000e-08 for 2 iters).


# Ionic positions in lattice coordinates:
ion Cs   0.000000000000000   0.000000000000000   0.000000000000000 0

# Forces in Lattice coordinates:
force Cs  -0.000000000000000  -0.000000000000000   0.000000000000000 0

# Energy components:
   Eewald =       -9.0240130501663280
       EH =        7.0402644331202158
     Eloc =      -23.6288896256576031
      Enl =        3.4387434084728135
   Epulay =        0.0000000422266766
      Exc =       -3.1124939298871017
       KE =        5.1166050336191375
-------------------------------------
     Etot =      -20.1697836882721901
       TS =        0.0000007304126033
-------------------------------------
        F =      -20.1697844186847952

IonicMinimize: Iter:   0  F: -20.169784418684795  |grad|_K:  0.000e+00  t[s]:    192.81
IonicMinimize: Converged (|grad|_K<1.000000e-04).

#--- Lowdin population analysis ---
# oxidation-state Cs +0.002
# magnetic-moments Cs -0.918

End date and time: Sun Feb  6 13:15:41 2022  (Duration: 0-0:03:12.89)
Done!
