
*************** JDFTx 1.6.0 (git hash 42ebbcc2) ***************

Start date and time: Sun Feb  6 13:19:11 2022
Executable jdftx with command-line: -i Alkali.in
Running on hosts (process indices):  d-6-8-2 (0-18)
Divided in process groups (process indices):  0 (0)  1 (1)  2 (2)  3 (3)  4 (4)  5 (5)  6 (6)  7 (7)  8 (8)  9 (9)  10 (10)  11 (11)  12 (12)  13 (13)  14 (14)  15 (15)  16 (16)  17 (17)  18 (18)
Resource initialization completed at t[s]:      0.00
Run totals: 19 processes, 48 threads, 0 GPUs


Input parsed successfully to the following command list (including defaults):

basis kpoint-dependent
coords-type Lattice
core-overlap-check vector
coulomb-interaction Slab 001
davidson-band-ratio 1.1
dump End None
dump-name $INPUT.$VAR
elec-cutoff 20
elec-eigen-algo Davidson
elec-ex-corr gga-PBE
elec-initial-magnetization -0.200000 yes
elec-smearing Fermi 1e-05
electronic-minimize  \
	dirUpdateScheme      FletcherReeves \
	linminMethod         DirUpdateRecommended \
	nIterations          100 \
	history              15 \
	knormThreshold       0 \
	energyDiffThreshold  1e-08 \
	nEnergyDiff          2 \
	alphaTstart          1 \
	alphaTmin            1e-10 \
	updateTestStepSize   yes \
	alphaTreduceFactor   0.1 \
	alphaTincreaseFactor 3 \
	nAlphaAdjustMax      3 \
	wolfeEnergy          0.0001 \
	wolfeGradient        0.9 \
	fdTest               no
electronic-scf  \
	nIterations	10000 \
	energyDiffThreshold	1e-08 \
	residualThreshold	1e-07 \
	mixFraction	0.5 \
	qMetric	0.8 \
	history	10 \
	nEigSteps	2 \
	eigDiffThreshold	1e-08 \
	mixedVariable	Density \
	qKerker	0.8 \
	qKappa	-1 \
	verbose	no \
	mixFractionMag	1.5
exchange-regularization WignerSeitzTruncated
fluid None
fluid-ex-corr (null) lda-PZ
fluid-gummel-loop 10 1.000000e-05
fluid-minimize  \
	dirUpdateScheme      PolakRibiere \
	linminMethod         DirUpdateRecommended \
	nIterations          100 \
	history              15 \
	knormThreshold       0 \
	energyDiffThreshold  0 \
	nEnergyDiff          2 \
	alphaTstart          1 \
	alphaTmin            1e-10 \
	updateTestStepSize   yes \
	alphaTreduceFactor   0.1 \
	alphaTincreaseFactor 3 \
	nAlphaAdjustMax      3 \
	wolfeEnergy          0.0001 \
	wolfeGradient        0.9 \
	fdTest               no
fluid-solvent H2O 55.338 ScalarEOS \
	epsBulk 78.4 \
	pMol 0.92466 \
	epsInf 1.77 \
	Pvap 1.06736e-10 \
	sigmaBulk 4.62e-05 \
	Rvdw 2.61727 \
	Res 1.42 \
	tauNuc 343133 \
	poleEl 15 7 1
forces-output-coords Positions
ion Cs   0.000000000000000   0.000000000000000   0.000000000000000 0
ion-species SG15/$ID_ONCV_PBE.upf
ion-width 0
ionic-minimize  \
	dirUpdateScheme      L-BFGS \
	linminMethod         DirUpdateRecommended \
	nIterations          0 \
	history              15 \
	knormThreshold       0.0001 \
	energyDiffThreshold  1e-06 \
	nEnergyDiff          2 \
	alphaTstart          1 \
	alphaTmin            1e-10 \
	updateTestStepSize   yes \
	alphaTreduceFactor   0.1 \
	alphaTincreaseFactor 3 \
	nAlphaAdjustMax      3 \
	wolfeEnergy          0.0001 \
	wolfeGradient        0.9 \
	fdTest               no
kpoint   0.000000000000   0.000000000000   0.000000000000  1.00000000000000
kpoint-folding 12 12 1 
latt-move-scale 1 1 1
latt-scale 4 4 1 
lattice  \
	   4.727486978767153   -2.363743489383575    0.000000000000000  \
	  -0.000000000000000    4.094123819672498    0.000000000000000  \
	   0.000000000000000    0.000000000000000   40.000000000000000 
lattice-minimize  \
	dirUpdateScheme      L-BFGS \
	linminMethod         DirUpdateRecommended \
	nIterations          0 \
	history              15 \
	knormThreshold       0 \
	energyDiffThreshold  1e-06 \
	nEnergyDiff          2 \
	alphaTstart          1 \
	alphaTmin            1e-10 \
	updateTestStepSize   yes \
	alphaTreduceFactor   0.1 \
	alphaTincreaseFactor 3 \
	nAlphaAdjustMax      3 \
	wolfeEnergy          0.0001 \
	wolfeGradient        0.9 \
	fdTest               no
lcao-params -1 1e-06 1e-05
pcm-variant GLSSA13
spintype z-spin
subspace-rotation-factor 1 yes
symmetries automatic
symmetry-threshold 0.0001



---------- Setting up symmetries ----------

Found 24 point-group symmetries of the bravais lattice
Found 24 space-group symmetries with basis
Applied RMS atom displacement 0 bohrs to make symmetries exact.

---------- Initializing the Grid ----------
R = 
[      18.9099     -9.45497            0  ]
[            0      16.3765            0  ]
[            0            0           40  ]
unit cell volume = 12387.1
G =
[   0.332269   0.191835         -0  ]
[          0   0.383671         -0  ]
[         -0         -0    0.15708  ]
Minimum fftbox size, Smin = [  80  80  164  ]
Chosen fftbox size, S = [  80  80  168  ]

---------- Exchange Correlation functional ----------
Initalized PBE GGA exchange.
Initalized PBE GGA correlation.

---------- Setting up pseudopotentials ----------
Width of ionic core gaussian charges (only for fluid interactions / plotting) set to 0

Reading pseudopotential file '/home/gridsan/aligho/DFT/build-Nov24/pseudopotentials/SG15/Cs_ONCV_PBE.upf':
  'Cs' pseudopotential, 'PBE' functional
  Generated using ONCVPSP code by D. R. Hamann
  Author: Martin Schlipf and Francois Gygi  Date: 150915.
  9 valence electrons, 3 orbitals, 6 projectors, 2414 radial grid points, with lMax = 2
  Transforming local potential to a uniform radial grid of dG=0.02 with 1489 points.
  Transforming nonlocal projectors to a uniform radial grid of dG=0.02 with 432 points.
    5S    l: 0   occupation:  2.0   eigenvalue: -0.982388
    5P    l: 1   occupation:  6.0   eigenvalue: -0.496786
    6S    l: 0   occupation:  1.0   eigenvalue: -0.076670
  Transforming atomic orbitals to a uniform radial grid of dG=0.02 with 432 points.
  Core radius for overlap checks: 2.06 bohrs.
  Reading pulay file /home/gridsan/aligho/DFT/build-Nov24/pseudopotentials/SG15/Cs_ONCV_PBE.pulay ... using dE_dnG = -1.008762e-04 computed for Ecut = 20.

Initialized 1 species with 1 total atoms.

Folded 1 k-points by 12x12x1 to 144 k-points.

---------- Setting up k-points, bands, fillings ----------
Reduced to 19 k-points under symmetry. 
Computing the number of bands and number of electrons
Calculating initial fillings.
nElectrons:   9.000000   nBands: 6   nStates: 38

----- Setting up reduced wavefunction bases (one per k-point) -----
average nbasis = 52924.021 , ideal nbasis = 52918.836

---------- Setting up coulomb interaction ----------
Initialized slab truncation along lattice direction 001

---------- Setting up 2D ewald sum ----------
Optimum gaussian width for ewald sums = 10.498040 bohr.
Real space sums over 289 unit cells with max indices [  8  8  0  ]
Reciprocal space sums over 81 terms with max indices [  4  4  0  ]

---------- Allocating electronic variables ----------
Initializing wave functions:  linear combination of atomic orbitals
Note: number of bands (6) exceeds available atomic orbitals (5)
Cs pseudo-atom occupations:   s ( 2 1 )  p ( 6 )
	FillingsUpdate:  mu: -0.077325035  nElectrons: 9.000000  magneticMoment: [ Abs: 0.20000  Tot: -0.20000 ]
LCAOMinimize: Iter:   0  F: -20.1679160724327780  |grad|_K:  7.575e-06  alpha:  1.000e+00
	FillingsUpdate:  mu: -0.077323480  nElectrons: 9.000000  magneticMoment: [ Abs: 0.20000  Tot: -0.20000 ]
LCAOMinimize: Iter:   1  F: -20.1679161112480188  |grad|_K:  3.744e-08  alpha:  9.890e-01  linmin: -1.363e-02  cgtest:  3.802e-01  t[s]:     14.88
LCAOMinimize: Encountered beta<0, resetting CG.
	FillingsUpdate:  mu: -0.077323479  nElectrons: 9.000000  magneticMoment: [ Abs: 0.20000  Tot: -0.20000 ]
LCAOMinimize: Iter:   2  F: -20.1679161112489496  |grad|_K:  8.530e-10  alpha:  9.777e-01  linmin: -3.132e-02  cgtest:  9.995e-01  t[s]:     18.85
LCAOMinimize: Encountered beta<0, resetting CG.
LCAOMinimize: Converged (|Delta F|<1.000000e-06 for 2 iters).


---- Citations for features of the code used in this run ----

   Software package:
      R. Sundararaman, K. Letchworth-Weaver, K.A. Schwarz, D. Gunceler, Y. Ozhabes and T.A. Arias, 'JDFTx: software for joint density-functional theory', SoftwareX 6, 278 (2017)

   gga-PBE exchange-correlation functional:
      J.P. Perdew, K. Burke and M. Ernzerhof, Phys. Rev. Lett. 77, 3865 (1996)

   Pseudopotentials:
      M Schlipf and F Gygi, Comput. Phys. Commun. 196, 36 (2015)

   Truncated Coulomb potentials:
      R. Sundararaman and T.A. Arias, Phys. Rev. B 87, 165122 (2013)

This list may not be complete. Please suggest additional citations or
report any other bugs at https://github.com/shankar1729/jdftx/issues

Initialization completed successfully at t[s]:     19.10


-------- Electronic minimization -----------
Will mix electronic density at each iteration.
	FillingsUpdate:  mu: -0.077323479  nElectrons: 9.000000  magneticMoment: [ Abs: 0.20000  Tot: -0.20000 ]
	FillingsUpdate:  mu: -0.077535714  nElectrons: 9.000000  magneticMoment: [ Abs: 0.20000  Tot: -0.20000 ]
SCF: Cycle:  0   F: -20.168166117532017   dF: -2.500e-04   |Residual|: 1.020e-03   |deigs|: 1.751e-01  t[s]:     27.20
	FillingsUpdate:  mu: -0.077595538  nElectrons: 9.000000  magneticMoment: [ Abs: 0.20103  Tot: -0.20000 ]
SCF: Cycle:  1   F: -20.168174847868869   dF: -8.730e-06   |Residual|: 8.705e-04   |deigs|: 4.213e-03  t[s]:     33.56
	FillingsUpdate:  mu: -0.077670888  nElectrons: 9.000000  magneticMoment: [ Abs: 0.20092  Tot: -0.20000 ]
SCF: Cycle:  2   F: -20.168177834039440   dF: -2.986e-06   |Residual|: 7.315e-04   |deigs|: 7.700e-04  t[s]:     39.98
	FillingsUpdate:  mu: -0.077872819  nElectrons: 9.000000  magneticMoment: [ Abs: 0.20236  Tot: -0.20000 ]
SCF: Cycle:  3   F: -20.168182842750355   dF: -5.009e-06   |Residual|: 4.749e-04   |deigs|: 7.853e-04  t[s]:     46.54
	FillingsUpdate:  mu: -0.077984533  nElectrons: 9.000000  magneticMoment: [ Abs: 0.20163  Tot: -0.20000 ]
SCF: Cycle:  4   F: -20.168186070524346   dF: -3.228e-06   |Residual|: 3.170e-04   |deigs|: 7.169e-04  t[s]:     53.23
	FillingsUpdate:  mu: -0.078088394  nElectrons: 9.000000  magneticMoment: [ Abs: 0.20165  Tot: -0.20000 ]
SCF: Cycle:  5   F: -20.168188637694939   dF: -2.567e-06   |Residual|: 2.124e-04   |deigs|: 5.295e-04  t[s]:     60.09
	FillingsUpdate:  mu: -0.078063959  nElectrons: 9.000000  magneticMoment: [ Abs: 0.20169  Tot: -0.20000 ]
SCF: Cycle:  6   F: -20.168189564932902   dF: -9.272e-07   |Residual|: 1.437e-04   |deigs|: 3.596e-04  t[s]:     66.98
	FillingsUpdate:  mu: -0.078035247  nElectrons: 9.000000  magneticMoment: [ Abs: 0.20147  Tot: -0.20000 ]
SCF: Cycle:  7   F: -20.168190082936100   dF: -5.180e-07   |Residual|: 1.072e-04   |deigs|: 5.120e-04  t[s]:     73.97
	FillingsUpdate:  mu: -0.077998144  nElectrons: 9.000000  magneticMoment: [ Abs: 0.20134  Tot: -0.20000 ]
SCF: Cycle:  8   F: -20.168190365334169   dF: -2.824e-07   |Residual|: 8.556e-05   |deigs|: 4.388e-04  t[s]:     81.11
	FillingsUpdate:  mu: -0.077935600  nElectrons: 9.000000  magneticMoment: [ Abs: 0.20138  Tot: -0.20000 ]
SCF: Cycle:  9   F: -20.168190427776860   dF: -6.244e-08   |Residual|: 6.978e-05   |deigs|: 4.804e-04  t[s]:     88.40
	FillingsUpdate:  mu: -0.077889040  nElectrons: 9.000000  magneticMoment: [ Abs: 0.20153  Tot: -0.20000 ]
SCF: Cycle: 10   F: -20.168190457669116   dF: -2.989e-08   |Residual|: 6.504e-05   |deigs|: 4.064e-04  t[s]:     95.74
	FillingsUpdate:  mu: -0.077834943  nElectrons: 9.000000  magneticMoment: [ Abs: 0.20155  Tot: -0.20000 ]
SCF: Cycle: 11   F: -20.168190426068492   dF: +3.160e-08   |Residual|: 5.862e-05   |deigs|: 1.447e-04  t[s]:    103.10
	FillingsUpdate:  mu: -0.077758464  nElectrons: 9.000000  magneticMoment: [ Abs: 0.20164  Tot: -0.20000 ]
SCF: Cycle: 12   F: -20.168190271444903   dF: +1.546e-07   |Residual|: 5.094e-05   |deigs|: 1.390e-04  t[s]:    110.41
	FillingsUpdate:  mu: -0.077698925  nElectrons: 9.000000  magneticMoment: [ Abs: 0.20162  Tot: -0.20000 ]
SCF: Cycle: 13   F: -20.168190202807338   dF: +6.864e-08   |Residual|: 4.920e-05   |deigs|: 9.511e-05  t[s]:    117.76
	FillingsUpdate:  mu: -0.077651152  nElectrons: 9.000000  magneticMoment: [ Abs: 0.20156  Tot: -0.20000 ]
SCF: Cycle: 14   F: -20.168190357026731   dF: -1.542e-07   |Residual|: 4.260e-05   |deigs|: 7.589e-05  t[s]:    125.08
	FillingsUpdate:  mu: -0.077592813  nElectrons: 9.000000  magneticMoment: [ Abs: 0.20144  Tot: -0.20000 ]
SCF: Cycle: 15   F: -20.168190385125467   dF: -2.810e-08   |Residual|: 3.894e-05   |deigs|: 8.920e-05  t[s]:    132.38
	FillingsUpdate:  mu: -0.077547810  nElectrons: 9.000000  magneticMoment: [ Abs: 0.20139  Tot: -0.20000 ]
SCF: Cycle: 16   F: -20.168190350229956   dF: +3.490e-08   |Residual|: 3.568e-05   |deigs|: 9.585e-05  t[s]:    139.77
	FillingsUpdate:  mu: -0.077533293  nElectrons: 9.000000  magneticMoment: [ Abs: 0.20132  Tot: -0.20000 ]
SCF: Cycle: 17   F: -20.168190480539359   dF: -1.303e-07   |Residual|: 2.686e-05   |deigs|: 7.992e-05  t[s]:    147.10
	FillingsUpdate:  mu: -0.077518709  nElectrons: 9.000000  magneticMoment: [ Abs: 0.20131  Tot: -0.20000 ]
SCF: Cycle: 18   F: -20.168190518496885   dF: -3.796e-08   |Residual|: 2.135e-05   |deigs|: 6.020e-05  t[s]:    154.42
	FillingsUpdate:  mu: -0.077508147  nElectrons: 9.000000  magneticMoment: [ Abs: 0.20130  Tot: -0.20000 ]
SCF: Cycle: 19   F: -20.168190603424470   dF: -8.493e-08   |Residual|: 1.655e-05   |deigs|: 3.935e-05  t[s]:    161.74
	FillingsUpdate:  mu: -0.077506019  nElectrons: 9.000000  magneticMoment: [ Abs: 0.20131  Tot: -0.20000 ]
SCF: Cycle: 20   F: -20.168190644785025   dF: -4.136e-08   |Residual|: 1.219e-05   |deigs|: 2.621e-05  t[s]:    169.07
	FillingsUpdate:  mu: -0.077505885  nElectrons: 9.000000  magneticMoment: [ Abs: 0.20133  Tot: -0.20000 ]
SCF: Cycle: 21   F: -20.168190663850453   dF: -1.907e-08   |Residual|: 9.074e-06   |deigs|: 1.634e-05  t[s]:    176.36
	FillingsUpdate:  mu: -0.077504381  nElectrons: 9.000000  magneticMoment: [ Abs: 0.20134  Tot: -0.20000 ]
SCF: Cycle: 22   F: -20.168190673916840   dF: -1.007e-08   |Residual|: 5.616e-06   |deigs|: 1.160e-05  t[s]:    183.79
	FillingsUpdate:  mu: -0.077503364  nElectrons: 9.000000  magneticMoment: [ Abs: 0.20134  Tot: -0.20000 ]
SCF: Cycle: 23   F: -20.168190677562542   dF: -3.646e-09   |Residual|: 4.116e-06   |deigs|: 7.728e-06  t[s]:    190.96
	FillingsUpdate:  mu: -0.077502969  nElectrons: 9.000000  magneticMoment: [ Abs: 0.20134  Tot: -0.20000 ]
SCF: Cycle: 24   F: -20.168190678762560   dF: -1.200e-09   |Residual|: 3.291e-06   |deigs|: 7.410e-06  t[s]:    198.17
SCF: Converged (|Delta E|<1.000000e-08 for 2 iters).


# Ionic positions in lattice coordinates:
ion Cs   0.000000000000000   0.000000000000000   0.000000000000000 0

# Forces in Lattice coordinates:
force Cs   0.000000000000000  -0.000000000000000   0.000000000000000 0

# Energy components:
   Eewald =       -9.0240130501663280
       EH =        7.0020118691111328
     Eloc =      -23.5857130884906461
      Enl =        3.4363461788758674
   Epulay =        0.0000000422266766
      Exc =       -3.1050281970194504
       KE =        5.1082060781604133
-------------------------------------
     Etot =      -20.1681901673023312
       TS =        0.0000005114602277
-------------------------------------
        F =      -20.1681906787625600

IonicMinimize: Iter:   0  F: -20.168190678762560  |grad|_K:  0.000e+00  t[s]:    198.57
IonicMinimize: Converged (|grad|_K<1.000000e-04).

#--- Lowdin population analysis ---
# oxidation-state Cs +0.006
# magnetic-moments Cs -0.199

End date and time: Sun Feb  6 13:22:30 2022  (Duration: 0-0:03:18.63)
Done!
