
*************** JDFTx 1.6.0 (git hash 42ebbcc2) ***************

Start date and time: Sun Feb  6 13:18:41 2022
Executable jdftx with command-line: -i Alkali.in
Running on hosts (process indices):  d-16-8-3 (0-18)
Divided in process groups (process indices):  0 (0)  1 (1)  2 (2)  3 (3)  4 (4)  5 (5)  6 (6)  7 (7)  8 (8)  9 (9)  10 (10)  11 (11)  12 (12)  13 (13)  14 (14)  15 (15)  16 (16)  17 (17)  18 (18)
Resource initialization completed at t[s]:      0.00
Run totals: 19 processes, 48 threads, 0 GPUs


Input parsed successfully to the following command list (including defaults):

basis kpoint-dependent
coords-type Lattice
core-overlap-check vector
coulomb-interaction Slab 001
davidson-band-ratio 1.1
dump End None
dump-name $INPUT.$VAR
elec-cutoff 20
elec-eigen-algo Davidson
elec-ex-corr gga-PBE
elec-initial-magnetization -0.420000 yes
elec-smearing Fermi 1e-05
electronic-minimize  \
	dirUpdateScheme      FletcherReeves \
	linminMethod         DirUpdateRecommended \
	nIterations          100 \
	history              15 \
	knormThreshold       0 \
	energyDiffThreshold  1e-08 \
	nEnergyDiff          2 \
	alphaTstart          1 \
	alphaTmin            1e-10 \
	updateTestStepSize   yes \
	alphaTreduceFactor   0.1 \
	alphaTincreaseFactor 3 \
	nAlphaAdjustMax      3 \
	wolfeEnergy          0.0001 \
	wolfeGradient        0.9 \
	fdTest               no
electronic-scf  \
	nIterations	10000 \
	energyDiffThreshold	1e-08 \
	residualThreshold	1e-07 \
	mixFraction	0.5 \
	qMetric	0.8 \
	history	10 \
	nEigSteps	2 \
	eigDiffThreshold	1e-08 \
	mixedVariable	Density \
	qKerker	0.8 \
	qKappa	-1 \
	verbose	no \
	mixFractionMag	1.5
exchange-regularization WignerSeitzTruncated
fluid None
fluid-ex-corr (null) lda-PZ
fluid-gummel-loop 10 1.000000e-05
fluid-minimize  \
	dirUpdateScheme      PolakRibiere \
	linminMethod         DirUpdateRecommended \
	nIterations          100 \
	history              15 \
	knormThreshold       0 \
	energyDiffThreshold  0 \
	nEnergyDiff          2 \
	alphaTstart          1 \
	alphaTmin            1e-10 \
	updateTestStepSize   yes \
	alphaTreduceFactor   0.1 \
	alphaTincreaseFactor 3 \
	nAlphaAdjustMax      3 \
	wolfeEnergy          0.0001 \
	wolfeGradient        0.9 \
	fdTest               no
fluid-solvent H2O 55.338 ScalarEOS \
	epsBulk 78.4 \
	pMol 0.92466 \
	epsInf 1.77 \
	Pvap 1.06736e-10 \
	sigmaBulk 4.62e-05 \
	Rvdw 2.61727 \
	Res 1.42 \
	tauNuc 343133 \
	poleEl 15 7 1
forces-output-coords Positions
ion Cs   0.000000000000000   0.000000000000000   0.000000000000000 0
ion-species SG15/$ID_ONCV_PBE.upf
ion-width 0
ionic-minimize  \
	dirUpdateScheme      L-BFGS \
	linminMethod         DirUpdateRecommended \
	nIterations          0 \
	history              15 \
	knormThreshold       0.0001 \
	energyDiffThreshold  1e-06 \
	nEnergyDiff          2 \
	alphaTstart          1 \
	alphaTmin            1e-10 \
	updateTestStepSize   yes \
	alphaTreduceFactor   0.1 \
	alphaTincreaseFactor 3 \
	nAlphaAdjustMax      3 \
	wolfeEnergy          0.0001 \
	wolfeGradient        0.9 \
	fdTest               no
kpoint   0.000000000000   0.000000000000   0.000000000000  1.00000000000000
kpoint-folding 12 12 1 
latt-move-scale 1 1 1
latt-scale 4 4 1 
lattice  \
	   4.727486978767153   -2.363743489383575    0.000000000000000  \
	  -0.000000000000000    4.094123819672498    0.000000000000000  \
	   0.000000000000000    0.000000000000000   40.000000000000000 
lattice-minimize  \
	dirUpdateScheme      L-BFGS \
	linminMethod         DirUpdateRecommended \
	nIterations          0 \
	history              15 \
	knormThreshold       0 \
	energyDiffThreshold  1e-06 \
	nEnergyDiff          2 \
	alphaTstart          1 \
	alphaTmin            1e-10 \
	updateTestStepSize   yes \
	alphaTreduceFactor   0.1 \
	alphaTincreaseFactor 3 \
	nAlphaAdjustMax      3 \
	wolfeEnergy          0.0001 \
	wolfeGradient        0.9 \
	fdTest               no
lcao-params -1 1e-06 1e-05
pcm-variant GLSSA13
spintype z-spin
subspace-rotation-factor 1 yes
symmetries automatic
symmetry-threshold 0.0001



---------- Setting up symmetries ----------

Found 24 point-group symmetries of the bravais lattice
Found 24 space-group symmetries with basis
Applied RMS atom displacement 0 bohrs to make symmetries exact.

---------- Initializing the Grid ----------
R = 
[      18.9099     -9.45497            0  ]
[            0      16.3765            0  ]
[            0            0           40  ]
unit cell volume = 12387.1
G =
[   0.332269   0.191835         -0  ]
[          0   0.383671         -0  ]
[         -0         -0    0.15708  ]
Minimum fftbox size, Smin = [  80  80  164  ]
Chosen fftbox size, S = [  80  80  168  ]

---------- Exchange Correlation functional ----------
Initalized PBE GGA exchange.
Initalized PBE GGA correlation.

---------- Setting up pseudopotentials ----------
Width of ionic core gaussian charges (only for fluid interactions / plotting) set to 0

Reading pseudopotential file '/home/gridsan/aligho/DFT/build-Nov24/pseudopotentials/SG15/Cs_ONCV_PBE.upf':
  'Cs' pseudopotential, 'PBE' functional
  Generated using ONCVPSP code by D. R. Hamann
  Author: Martin Schlipf and Francois Gygi  Date: 150915.
  9 valence electrons, 3 orbitals, 6 projectors, 2414 radial grid points, with lMax = 2
  Transforming local potential to a uniform radial grid of dG=0.02 with 1489 points.
  Transforming nonlocal projectors to a uniform radial grid of dG=0.02 with 432 points.
    5S    l: 0   occupation:  2.0   eigenvalue: -0.982388
    5P    l: 1   occupation:  6.0   eigenvalue: -0.496786
    6S    l: 0   occupation:  1.0   eigenvalue: -0.076670
  Transforming atomic orbitals to a uniform radial grid of dG=0.02 with 432 points.
  Core radius for overlap checks: 2.06 bohrs.
  Reading pulay file /home/gridsan/aligho/DFT/build-Nov24/pseudopotentials/SG15/Cs_ONCV_PBE.pulay ... using dE_dnG = -1.008762e-04 computed for Ecut = 20.

Initialized 1 species with 1 total atoms.

Folded 1 k-points by 12x12x1 to 144 k-points.

---------- Setting up k-points, bands, fillings ----------
Reduced to 19 k-points under symmetry. 
Computing the number of bands and number of electrons
Calculating initial fillings.
nElectrons:   9.000000   nBands: 6   nStates: 38

----- Setting up reduced wavefunction bases (one per k-point) -----
average nbasis = 52924.021 , ideal nbasis = 52918.836

---------- Setting up coulomb interaction ----------
Initialized slab truncation along lattice direction 001

---------- Setting up 2D ewald sum ----------
Optimum gaussian width for ewald sums = 10.498040 bohr.
Real space sums over 289 unit cells with max indices [  8  8  0  ]
Reciprocal space sums over 81 terms with max indices [  4  4  0  ]

---------- Allocating electronic variables ----------
Initializing wave functions:  linear combination of atomic orbitals
Note: number of bands (6) exceeds available atomic orbitals (5)
Cs pseudo-atom occupations:   s ( 2 1 )  p ( 6 )
	FillingsUpdate:  mu: -0.077397166  nElectrons: 9.000000  magneticMoment: [ Abs: 0.42000  Tot: -0.42000 ]
LCAOMinimize: Iter:   0  F: -20.1681616762291185  |grad|_K:  6.401e-06  alpha:  1.000e+00
	FillingsUpdate:  mu: -0.077395854  nElectrons: 9.000000  magneticMoment: [ Abs: 0.42000  Tot: -0.42000 ]
LCAOMinimize: Iter:   1  F: -20.1681617039684866  |grad|_K:  3.129e-08  alpha:  9.898e-01  linmin: -9.394e-04  cgtest:  3.259e-01  t[s]:     14.84
LCAOMinimize: Encountered beta<0, resetting CG.
	FillingsUpdate:  mu: -0.077395854  nElectrons: 9.000000  magneticMoment: [ Abs: 0.42000  Tot: -0.42000 ]
LCAOMinimize: Iter:   2  F: -20.1681617039687389  |grad|_K:  1.937e-08  alpha:  1.620e+00  linmin:  2.904e-03  cgtest: -1.000e+00  t[s]:     18.72
LCAOMinimize: Converged (|Delta F|<1.000000e-06 for 2 iters).


---- Citations for features of the code used in this run ----

   Software package:
      R. Sundararaman, K. Letchworth-Weaver, K.A. Schwarz, D. Gunceler, Y. Ozhabes and T.A. Arias, 'JDFTx: software for joint density-functional theory', SoftwareX 6, 278 (2017)

   gga-PBE exchange-correlation functional:
      J.P. Perdew, K. Burke and M. Ernzerhof, Phys. Rev. Lett. 77, 3865 (1996)

   Pseudopotentials:
      M Schlipf and F Gygi, Comput. Phys. Commun. 196, 36 (2015)

   Truncated Coulomb potentials:
      R. Sundararaman and T.A. Arias, Phys. Rev. B 87, 165122 (2013)

This list may not be complete. Please suggest additional citations or
report any other bugs at https://github.com/shankar1729/jdftx/issues

Initialization completed successfully at t[s]:     18.98


-------- Electronic minimization -----------
Will mix electronic density at each iteration.
	FillingsUpdate:  mu: -0.077395854  nElectrons: 9.000000  magneticMoment: [ Abs: 0.42000  Tot: -0.42000 ]
	FillingsUpdate:  mu: -0.077592079  nElectrons: 9.000000  magneticMoment: [ Abs: 0.42000  Tot: -0.42000 ]
SCF: Cycle:  0   F: -20.168372716922107   dF: -2.110e-04   |Residual|: 1.137e-03   |deigs|: 1.748e-01  t[s]:     27.04
	FillingsUpdate:  mu: -0.077634181  nElectrons: 9.000000  magneticMoment: [ Abs: 0.42208  Tot: -0.42000 ]
SCF: Cycle:  1   F: -20.168380386268804   dF: -7.669e-06   |Residual|: 7.224e-04   |deigs|: 4.466e-03  t[s]:     33.39
	FillingsUpdate:  mu: -0.077681517  nElectrons: 9.000000  magneticMoment: [ Abs: 0.42219  Tot: -0.42000 ]
SCF: Cycle:  2   F: -20.168382978527273   dF: -2.592e-06   |Residual|: 5.926e-04   |deigs|: 1.004e-03  t[s]:     39.80
	FillingsUpdate:  mu: -0.077772236  nElectrons: 9.000000  magneticMoment: [ Abs: 0.42328  Tot: -0.42000 ]
SCF: Cycle:  3   F: -20.168385313773808   dF: -2.335e-06   |Residual|: 4.399e-04   |deigs|: 8.834e-04  t[s]:     46.35
	FillingsUpdate:  mu: -0.077869363  nElectrons: 9.000000  magneticMoment: [ Abs: 0.42310  Tot: -0.42000 ]
SCF: Cycle:  4   F: -20.168388037387889   dF: -2.724e-06   |Residual|: 3.001e-04   |deigs|: 5.835e-04  t[s]:     53.00
	FillingsUpdate:  mu: -0.077951995  nElectrons: 9.000000  magneticMoment: [ Abs: 0.42313  Tot: -0.42000 ]
SCF: Cycle:  5   F: -20.168389831633505   dF: -1.794e-06   |Residual|: 1.918e-04   |deigs|: 3.754e-04  t[s]:     59.82
	FillingsUpdate:  mu: -0.077956983  nElectrons: 9.000000  magneticMoment: [ Abs: 0.42319  Tot: -0.42000 ]
SCF: Cycle:  6   F: -20.168390770006649   dF: -9.384e-07   |Residual|: 1.338e-04   |deigs|: 3.209e-04  t[s]:     66.69
	FillingsUpdate:  mu: -0.077947182  nElectrons: 9.000000  magneticMoment: [ Abs: 0.42297  Tot: -0.42000 ]
SCF: Cycle:  7   F: -20.168391288563917   dF: -5.186e-07   |Residual|: 1.010e-04   |deigs|: 3.476e-04  t[s]:     73.76
	FillingsUpdate:  mu: -0.077914244  nElectrons: 9.000000  magneticMoment: [ Abs: 0.42289  Tot: -0.42000 ]
SCF: Cycle:  8   F: -20.168391645914955   dF: -3.574e-07   |Residual|: 7.820e-05   |deigs|: 3.163e-04  t[s]:     80.87
	FillingsUpdate:  mu: -0.077863249  nElectrons: 9.000000  magneticMoment: [ Abs: 0.42280  Tot: -0.42000 ]
SCF: Cycle:  9   F: -20.168391733868411   dF: -8.795e-08   |Residual|: 6.581e-05   |deigs|: 3.125e-04  t[s]:     88.08
	FillingsUpdate:  mu: -0.077817130  nElectrons: 9.000000  magneticMoment: [ Abs: 0.42294  Tot: -0.42000 ]
SCF: Cycle: 10   F: -20.168391734921780   dF: -1.053e-09   |Residual|: 5.708e-05   |deigs|: 3.284e-04  t[s]:     95.42
	FillingsUpdate:  mu: -0.077766289  nElectrons: 9.000000  magneticMoment: [ Abs: 0.42314  Tot: -0.42000 ]
SCF: Cycle: 11   F: -20.168391725313821   dF: +9.608e-09   |Residual|: 5.540e-05   |deigs|: 2.034e-04  t[s]:    102.66
	FillingsUpdate:  mu: -0.077702635  nElectrons: 9.000000  magneticMoment: [ Abs: 0.42311  Tot: -0.42000 ]
SCF: Cycle: 12   F: -20.168391384511800   dF: +3.408e-07   |Residual|: 5.110e-05   |deigs|: 2.028e-04  t[s]:    110.06
	FillingsUpdate:  mu: -0.077633722  nElectrons: 9.000000  magneticMoment: [ Abs: 0.42325  Tot: -0.42000 ]
SCF: Cycle: 13   F: -20.168391577240968   dF: -1.927e-07   |Residual|: 4.429e-05   |deigs|: 2.350e-04  t[s]:    117.30
	FillingsUpdate:  mu: -0.077594603  nElectrons: 9.000000  magneticMoment: [ Abs: 0.42330  Tot: -0.42000 ]
SCF: Cycle: 14   F: -20.168391762442010   dF: -1.852e-07   |Residual|: 3.894e-05   |deigs|: 1.730e-04  t[s]:    124.62
	FillingsUpdate:  mu: -0.077547427  nElectrons: 9.000000  magneticMoment: [ Abs: 0.42312  Tot: -0.42000 ]
SCF: Cycle: 15   F: -20.168391752156975   dF: +1.029e-08   |Residual|: 3.640e-05   |deigs|: 1.335e-04  t[s]:    131.95
	FillingsUpdate:  mu: -0.077486831  nElectrons: 9.000000  magneticMoment: [ Abs: 0.42295  Tot: -0.42000 ]
SCF: Cycle: 16   F: -20.168391660132286   dF: +9.202e-08   |Residual|: 3.392e-05   |deigs|: 1.120e-04  t[s]:    139.22
	FillingsUpdate:  mu: -0.077470286  nElectrons: 9.000000  magneticMoment: [ Abs: 0.42290  Tot: -0.42000 ]
SCF: Cycle: 17   F: -20.168391890151568   dF: -2.300e-07   |Residual|: 2.496e-05   |deigs|: 5.690e-05  t[s]:    146.53
	FillingsUpdate:  mu: -0.077466640  nElectrons: 9.000000  magneticMoment: [ Abs: 0.42278  Tot: -0.42000 ]
SCF: Cycle: 18   F: -20.168391878047156   dF: +1.210e-08   |Residual|: 2.031e-05   |deigs|: 3.693e-05  t[s]:    153.82
	FillingsUpdate:  mu: -0.077455988  nElectrons: 9.000000  magneticMoment: [ Abs: 0.42278  Tot: -0.42000 ]
SCF: Cycle: 19   F: -20.168391949861860   dF: -7.181e-08   |Residual|: 1.676e-05   |deigs|: 2.418e-05  t[s]:    161.09
	FillingsUpdate:  mu: -0.077449363  nElectrons: 9.000000  magneticMoment: [ Abs: 0.42278  Tot: -0.42000 ]
SCF: Cycle: 20   F: -20.168391972774181   dF: -2.291e-08   |Residual|: 1.224e-05   |deigs|: 1.805e-05  t[s]:    168.34
	FillingsUpdate:  mu: -0.077451538  nElectrons: 9.000000  magneticMoment: [ Abs: 0.42279  Tot: -0.42000 ]
SCF: Cycle: 21   F: -20.168392004188544   dF: -3.141e-08   |Residual|: 8.547e-06   |deigs|: 1.816e-05  t[s]:    175.69
	FillingsUpdate:  mu: -0.077452021  nElectrons: 9.000000  magneticMoment: [ Abs: 0.42281  Tot: -0.42000 ]
SCF: Cycle: 22   F: -20.168392007817651   dF: -3.629e-09   |Residual|: 5.623e-06   |deigs|: 1.735e-05  t[s]:    182.95
	FillingsUpdate:  mu: -0.077453076  nElectrons: 9.000000  magneticMoment: [ Abs: 0.42281  Tot: -0.42000 ]
SCF: Cycle: 23   F: -20.168392014173996   dF: -6.356e-09   |Residual|: 3.709e-06   |deigs|: 2.094e-05  t[s]:    190.21
SCF: Converged (|Delta E|<1.000000e-08 for 2 iters).


# Ionic positions in lattice coordinates:
ion Cs   0.000000000000000   0.000000000000000   0.000000000000000 0

# Forces in Lattice coordinates:
force Cs  -0.000000000000000   0.000000000000000   0.000000000000000 0

# Energy components:
   Eewald =       -9.0240130501663280
       EH =        7.0098123714353209
     Eloc =      -23.5945295588167028
      Enl =        3.4368269705854910
   Epulay =        0.0000000422266766
      Exc =       -3.1063712916592117
       KE =        5.1098835272734640
-------------------------------------
     Etot =      -20.1683909891212885
       TS =        0.0000010250527070
-------------------------------------
        F =      -20.1683920141739961

IonicMinimize: Iter:   0  F: -20.168392014173996  |grad|_K:  0.000e+00  t[s]:    190.62
IonicMinimize: Converged (|grad|_K<1.000000e-04).

#--- Lowdin population analysis ---
# oxidation-state Cs +0.005
# magnetic-moments Cs -0.418

End date and time: Sun Feb  6 13:21:51 2022  (Duration: 0-0:03:10.68)
Done!
