
*************** JDFTx 1.6.0 (git hash 42ebbcc2) ***************

Start date and time: Sun Feb  6 13:25:45 2022
Executable jdftx with command-line: -i Alkali.in
Running on hosts (process indices):  d-4-7-2 (0-18)
Divided in process groups (process indices):  0 (0)  1 (1)  2 (2)  3 (3)  4 (4)  5 (5)  6 (6)  7 (7)  8 (8)  9 (9)  10 (10)  11 (11)  12 (12)  13 (13)  14 (14)  15 (15)  16 (16)  17 (17)  18 (18)
Resource initialization completed at t[s]:      0.00
Run totals: 19 processes, 48 threads, 0 GPUs


Input parsed successfully to the following command list (including defaults):

basis kpoint-dependent
coords-type Lattice
core-overlap-check vector
coulomb-interaction Slab 001
davidson-band-ratio 1.1
dump End None
dump-name $INPUT.$VAR
elec-cutoff 20
elec-eigen-algo Davidson
elec-ex-corr gga-PBE
elec-initial-magnetization 0.180000 yes
elec-smearing Fermi 1e-05
electronic-minimize  \
	dirUpdateScheme      FletcherReeves \
	linminMethod         DirUpdateRecommended \
	nIterations          100 \
	history              15 \
	knormThreshold       0 \
	energyDiffThreshold  1e-08 \
	nEnergyDiff          2 \
	alphaTstart          1 \
	alphaTmin            1e-10 \
	updateTestStepSize   yes \
	alphaTreduceFactor   0.1 \
	alphaTincreaseFactor 3 \
	nAlphaAdjustMax      3 \
	wolfeEnergy          0.0001 \
	wolfeGradient        0.9 \
	fdTest               no
electronic-scf  \
	nIterations	10000 \
	energyDiffThreshold	1e-08 \
	residualThreshold	1e-07 \
	mixFraction	0.5 \
	qMetric	0.8 \
	history	10 \
	nEigSteps	2 \
	eigDiffThreshold	1e-08 \
	mixedVariable	Density \
	qKerker	0.8 \
	qKappa	-1 \
	verbose	no \
	mixFractionMag	1.5
exchange-regularization WignerSeitzTruncated
fluid None
fluid-ex-corr (null) lda-PZ
fluid-gummel-loop 10 1.000000e-05
fluid-minimize  \
	dirUpdateScheme      PolakRibiere \
	linminMethod         DirUpdateRecommended \
	nIterations          100 \
	history              15 \
	knormThreshold       0 \
	energyDiffThreshold  0 \
	nEnergyDiff          2 \
	alphaTstart          1 \
	alphaTmin            1e-10 \
	updateTestStepSize   yes \
	alphaTreduceFactor   0.1 \
	alphaTincreaseFactor 3 \
	nAlphaAdjustMax      3 \
	wolfeEnergy          0.0001 \
	wolfeGradient        0.9 \
	fdTest               no
fluid-solvent H2O 55.338 ScalarEOS \
	epsBulk 78.4 \
	pMol 0.92466 \
	epsInf 1.77 \
	Pvap 1.06736e-10 \
	sigmaBulk 4.62e-05 \
	Rvdw 2.61727 \
	Res 1.42 \
	tauNuc 343133 \
	poleEl 15 7 1
forces-output-coords Positions
ion Cs   0.000000000000000   0.000000000000000   0.000000000000000 0
ion-species SG15/$ID_ONCV_PBE.upf
ion-width 0
ionic-minimize  \
	dirUpdateScheme      L-BFGS \
	linminMethod         DirUpdateRecommended \
	nIterations          0 \
	history              15 \
	knormThreshold       0.0001 \
	energyDiffThreshold  1e-06 \
	nEnergyDiff          2 \
	alphaTstart          1 \
	alphaTmin            1e-10 \
	updateTestStepSize   yes \
	alphaTreduceFactor   0.1 \
	alphaTincreaseFactor 3 \
	nAlphaAdjustMax      3 \
	wolfeEnergy          0.0001 \
	wolfeGradient        0.9 \
	fdTest               no
kpoint   0.000000000000   0.000000000000   0.000000000000  1.00000000000000
kpoint-folding 12 12 1 
latt-move-scale 1 1 1
latt-scale 4 4 1 
lattice  \
	   4.727486978767153   -2.363743489383575    0.000000000000000  \
	  -0.000000000000000    4.094123819672498    0.000000000000000  \
	   0.000000000000000    0.000000000000000   40.000000000000000 
lattice-minimize  \
	dirUpdateScheme      L-BFGS \
	linminMethod         DirUpdateRecommended \
	nIterations          0 \
	history              15 \
	knormThreshold       0 \
	energyDiffThreshold  1e-06 \
	nEnergyDiff          2 \
	alphaTstart          1 \
	alphaTmin            1e-10 \
	updateTestStepSize   yes \
	alphaTreduceFactor   0.1 \
	alphaTincreaseFactor 3 \
	nAlphaAdjustMax      3 \
	wolfeEnergy          0.0001 \
	wolfeGradient        0.9 \
	fdTest               no
lcao-params -1 1e-06 1e-05
pcm-variant GLSSA13
spintype z-spin
subspace-rotation-factor 1 yes
symmetries automatic
symmetry-threshold 0.0001



---------- Setting up symmetries ----------

Found 24 point-group symmetries of the bravais lattice
Found 24 space-group symmetries with basis
Applied RMS atom displacement 0 bohrs to make symmetries exact.

---------- Initializing the Grid ----------
R = 
[      18.9099     -9.45497            0  ]
[            0      16.3765            0  ]
[            0            0           40  ]
unit cell volume = 12387.1
G =
[   0.332269   0.191835         -0  ]
[          0   0.383671         -0  ]
[         -0         -0    0.15708  ]
Minimum fftbox size, Smin = [  80  80  164  ]
Chosen fftbox size, S = [  80  80  168  ]

---------- Exchange Correlation functional ----------
Initalized PBE GGA exchange.
Initalized PBE GGA correlation.

---------- Setting up pseudopotentials ----------
Width of ionic core gaussian charges (only for fluid interactions / plotting) set to 0

Reading pseudopotential file '/home/gridsan/aligho/DFT/build-Nov24/pseudopotentials/SG15/Cs_ONCV_PBE.upf':
  'Cs' pseudopotential, 'PBE' functional
  Generated using ONCVPSP code by D. R. Hamann
  Author: Martin Schlipf and Francois Gygi  Date: 150915.
  9 valence electrons, 3 orbitals, 6 projectors, 2414 radial grid points, with lMax = 2
  Transforming local potential to a uniform radial grid of dG=0.02 with 1489 points.
  Transforming nonlocal projectors to a uniform radial grid of dG=0.02 with 432 points.
    5S    l: 0   occupation:  2.0   eigenvalue: -0.982388
    5P    l: 1   occupation:  6.0   eigenvalue: -0.496786
    6S    l: 0   occupation:  1.0   eigenvalue: -0.076670
  Transforming atomic orbitals to a uniform radial grid of dG=0.02 with 432 points.
  Core radius for overlap checks: 2.06 bohrs.
  Reading pulay file /home/gridsan/aligho/DFT/build-Nov24/pseudopotentials/SG15/Cs_ONCV_PBE.pulay ... using dE_dnG = -1.008762e-04 computed for Ecut = 20.

Initialized 1 species with 1 total atoms.

Folded 1 k-points by 12x12x1 to 144 k-points.

---------- Setting up k-points, bands, fillings ----------
Reduced to 19 k-points under symmetry. 
Computing the number of bands and number of electrons
Calculating initial fillings.
nElectrons:   9.000000   nBands: 6   nStates: 38

----- Setting up reduced wavefunction bases (one per k-point) -----
average nbasis = 52924.021 , ideal nbasis = 52918.836

---------- Setting up coulomb interaction ----------
Initialized slab truncation along lattice direction 001

---------- Setting up 2D ewald sum ----------
Optimum gaussian width for ewald sums = 10.498040 bohr.
Real space sums over 289 unit cells with max indices [  8  8  0  ]
Reciprocal space sums over 81 terms with max indices [  4  4  0  ]

---------- Allocating electronic variables ----------
Initializing wave functions:  linear combination of atomic orbitals
Note: number of bands (6) exceeds available atomic orbitals (5)
Cs pseudo-atom occupations:   s ( 2 1 )  p ( 6 )
	FillingsUpdate:  mu: -0.077535922  nElectrons: 9.000000  magneticMoment: [ Abs: 0.18000  Tot: +0.18000 ]
LCAOMinimize: Iter:   0  F: -20.1679017314149007  |grad|_K:  7.667e-06  alpha:  1.000e+00
	FillingsUpdate:  mu: -0.077534351  nElectrons: 9.000000  magneticMoment: [ Abs: 0.18000  Tot: +0.18000 ]
LCAOMinimize: Iter:   1  F: -20.1679017711835726  |grad|_K:  3.811e-08  alpha:  9.891e-01  linmin: -1.386e-02  cgtest:  3.777e-01  t[s]:     15.19
LCAOMinimize: Encountered beta<0, resetting CG.
	FillingsUpdate:  mu: -0.077534350  nElectrons: 9.000000  magneticMoment: [ Abs: 0.18000  Tot: +0.18000 ]
LCAOMinimize: Iter:   2  F: -20.1679017711848338  |grad|_K:  6.611e-09  alpha:  1.174e+00  linmin:  3.291e-02  cgtest: -1.000e+00  t[s]:     19.22
LCAOMinimize: Converged (|Delta F|<1.000000e-06 for 2 iters).


---- Citations for features of the code used in this run ----

   Software package:
      R. Sundararaman, K. Letchworth-Weaver, K.A. Schwarz, D. Gunceler, Y. Ozhabes and T.A. Arias, 'JDFTx: software for joint density-functional theory', SoftwareX 6, 278 (2017)

   gga-PBE exchange-correlation functional:
      J.P. Perdew, K. Burke and M. Ernzerhof, Phys. Rev. Lett. 77, 3865 (1996)

   Pseudopotentials:
      M Schlipf and F Gygi, Comput. Phys. Commun. 196, 36 (2015)

   Truncated Coulomb potentials:
      R. Sundararaman and T.A. Arias, Phys. Rev. B 87, 165122 (2013)

This list may not be complete. Please suggest additional citations or
report any other bugs at https://github.com/shankar1729/jdftx/issues

Initialization completed successfully at t[s]:     19.48


-------- Electronic minimization -----------
Will mix electronic density at each iteration.
	FillingsUpdate:  mu: -0.077534350  nElectrons: 9.000000  magneticMoment: [ Abs: 0.18000  Tot: +0.18000 ]
	FillingsUpdate:  mu: -0.077771853  nElectrons: 9.000000  magneticMoment: [ Abs: 0.18000  Tot: +0.18000 ]
SCF: Cycle:  0   F: -20.168154635911879   dF: -2.529e-04   |Residual|: 1.014e-03   |deigs|: 1.751e-01  t[s]:     27.69
	FillingsUpdate:  mu: -0.077832840  nElectrons: 9.000000  magneticMoment: [ Abs: 0.18094  Tot: +0.18000 ]
SCF: Cycle:  1   F: -20.168163297951914   dF: -8.662e-06   |Residual|: 8.779e-04   |deigs|: 4.181e-03  t[s]:     34.14
	FillingsUpdate:  mu: -0.077912830  nElectrons: 9.000000  magneticMoment: [ Abs: 0.18081  Tot: +0.18000 ]
SCF: Cycle:  2   F: -20.168166270985971   dF: -2.973e-06   |Residual|: 7.331e-04   |deigs|: 1.130e-03  t[s]:     40.70
	FillingsUpdate:  mu: -0.078130556  nElectrons: 9.000000  magneticMoment: [ Abs: 0.18226  Tot: +0.18000 ]
SCF: Cycle:  3   F: -20.168171631367898   dF: -5.360e-06   |Residual|: 4.731e-04   |deigs|: 8.220e-04  t[s]:     47.40
	FillingsUpdate:  mu: -0.078241018  nElectrons: 9.000000  magneticMoment: [ Abs: 0.18148  Tot: +0.18000 ]
SCF: Cycle:  4   F: -20.168174825787862   dF: -3.194e-06   |Residual|: 3.139e-04   |deigs|: 5.299e-04  t[s]:     54.17
	FillingsUpdate:  mu: -0.078346006  nElectrons: 9.000000  magneticMoment: [ Abs: 0.18149  Tot: +0.18000 ]
SCF: Cycle:  5   F: -20.168177363352228   dF: -2.538e-06   |Residual|: 2.133e-04   |deigs|: 5.161e-04  t[s]:     61.03
	FillingsUpdate:  mu: -0.078323211  nElectrons: 9.000000  magneticMoment: [ Abs: 0.18155  Tot: +0.18000 ]
SCF: Cycle:  6   F: -20.168178324189594   dF: -9.608e-07   |Residual|: 1.442e-04   |deigs|: 5.872e-04  t[s]:     68.06
	FillingsUpdate:  mu: -0.078292534  nElectrons: 9.000000  magneticMoment: [ Abs: 0.18133  Tot: +0.18000 ]
SCF: Cycle:  7   F: -20.168178817466146   dF: -4.933e-07   |Residual|: 1.075e-04   |deigs|: 6.935e-04  t[s]:     75.13
	FillingsUpdate:  mu: -0.078256320  nElectrons: 9.000000  magneticMoment: [ Abs: 0.18120  Tot: +0.18000 ]
SCF: Cycle:  8   F: -20.168179083423890   dF: -2.660e-07   |Residual|: 8.555e-05   |deigs|: 4.102e-04  t[s]:     82.36
	FillingsUpdate:  mu: -0.078195420  nElectrons: 9.000000  magneticMoment: [ Abs: 0.18124  Tot: +0.18000 ]
SCF: Cycle:  9   F: -20.168179141198415   dF: -5.777e-08   |Residual|: 6.947e-05   |deigs|: 1.563e-04  t[s]:     89.73
	FillingsUpdate:  mu: -0.078148547  nElectrons: 9.000000  magneticMoment: [ Abs: 0.18137  Tot: +0.18000 ]
SCF: Cycle: 10   F: -20.168179165866320   dF: -2.467e-08   |Residual|: 6.549e-05   |deigs|: 1.751e-04  t[s]:     97.15
	FillingsUpdate:  mu: -0.078092245  nElectrons: 9.000000  magneticMoment: [ Abs: 0.18140  Tot: +0.18000 ]
SCF: Cycle: 11   F: -20.168179124695314   dF: +4.117e-08   |Residual|: 5.826e-05   |deigs|: 2.332e-04  t[s]:    104.64
	FillingsUpdate:  mu: -0.078019442  nElectrons: 9.000000  magneticMoment: [ Abs: 0.18148  Tot: +0.18000 ]
SCF: Cycle: 12   F: -20.168179026769280   dF: +9.793e-08   |Residual|: 5.107e-05   |deigs|: 2.451e-04  t[s]:    112.09
	FillingsUpdate:  mu: -0.077958979  nElectrons: 9.000000  magneticMoment: [ Abs: 0.18145  Tot: +0.18000 ]
SCF: Cycle: 13   F: -20.168178935102063   dF: +9.167e-08   |Residual|: 4.957e-05   |deigs|: 1.470e-04  t[s]:    119.56
	FillingsUpdate:  mu: -0.077910285  nElectrons: 9.000000  magneticMoment: [ Abs: 0.18140  Tot: +0.18000 ]
SCF: Cycle: 14   F: -20.168179068396292   dF: -1.333e-07   |Residual|: 4.288e-05   |deigs|: 8.826e-05  t[s]:    126.96
	FillingsUpdate:  mu: -0.077852319  nElectrons: 9.000000  magneticMoment: [ Abs: 0.18130  Tot: +0.18000 ]
SCF: Cycle: 15   F: -20.168179093135322   dF: -2.474e-08   |Residual|: 3.921e-05   |deigs|: 7.666e-05  t[s]:    134.41
	FillingsUpdate:  mu: -0.077807777  nElectrons: 9.000000  magneticMoment: [ Abs: 0.18124  Tot: +0.18000 ]
SCF: Cycle: 16   F: -20.168179053116535   dF: +4.002e-08   |Residual|: 3.600e-05   |deigs|: 5.220e-05  t[s]:    141.89
	FillingsUpdate:  mu: -0.077791964  nElectrons: 9.000000  magneticMoment: [ Abs: 0.18119  Tot: +0.18000 ]
SCF: Cycle: 17   F: -20.168179183646231   dF: -1.305e-07   |Residual|: 2.690e-05   |deigs|: 2.827e-05  t[s]:    149.47
	FillingsUpdate:  mu: -0.077776895  nElectrons: 9.000000  magneticMoment: [ Abs: 0.18118  Tot: +0.18000 ]
SCF: Cycle: 18   F: -20.168179228418577   dF: -4.477e-08   |Residual|: 2.147e-05   |deigs|: 2.284e-05  t[s]:    156.89
	FillingsUpdate:  mu: -0.077766099  nElectrons: 9.000000  magneticMoment: [ Abs: 0.18117  Tot: +0.18000 ]
SCF: Cycle: 19   F: -20.168179304969165   dF: -7.655e-08   |Residual|: 1.651e-05   |deigs|: 1.624e-05  t[s]:    164.40
	FillingsUpdate:  mu: -0.077764909  nElectrons: 9.000000  magneticMoment: [ Abs: 0.18118  Tot: +0.18000 ]
SCF: Cycle: 20   F: -20.168179352885275   dF: -4.792e-08   |Residual|: 1.226e-05   |deigs|: 1.170e-05  t[s]:    171.80
	FillingsUpdate:  mu: -0.077764623  nElectrons: 9.000000  magneticMoment: [ Abs: 0.18119  Tot: +0.18000 ]
SCF: Cycle: 21   F: -20.168179369193943   dF: -1.631e-08   |Residual|: 9.281e-06   |deigs|: 1.159e-05  t[s]:    179.08
	FillingsUpdate:  mu: -0.077763014  nElectrons: 9.000000  magneticMoment: [ Abs: 0.18121  Tot: +0.18000 ]
SCF: Cycle: 22   F: -20.168179381669049   dF: -1.248e-08   |Residual|: 5.647e-06   |deigs|: 1.326e-05  t[s]:    186.54
	FillingsUpdate:  mu: -0.077761966  nElectrons: 9.000000  magneticMoment: [ Abs: 0.18121  Tot: +0.18000 ]
SCF: Cycle: 23   F: -20.168179384942587   dF: -3.274e-09   |Residual|: 4.091e-06   |deigs|: 1.658e-05  t[s]:    193.90
	FillingsUpdate:  mu: -0.077761363  nElectrons: 9.000000  magneticMoment: [ Abs: 0.18120  Tot: +0.18000 ]
SCF: Cycle: 24   F: -20.168179386222477   dF: -1.280e-09   |Residual|: 3.241e-06   |deigs|: 1.975e-05  t[s]:    201.40
SCF: Converged (|Delta E|<1.000000e-08 for 2 iters).


# Ionic positions in lattice coordinates:
ion Cs   0.000000000000000   0.000000000000000   0.000000000000000 0

# Forces in Lattice coordinates:
force Cs  -0.000000000000000   0.000000000000000   0.000000000000000 0

# Energy components:
   Eewald =       -9.0240130501663280
       EH =        7.0015637813842453
     Eloc =      -23.5852075127448195
      Enl =        3.4363190358074305
   Epulay =        0.0000000422266766
      Exc =       -3.1049531376425161
       KE =        5.1081117367768405
-------------------------------------
     Etot =      -20.1681791043584724
       TS =        0.0000002818640035
-------------------------------------
        F =      -20.1681793862224765

IonicMinimize: Iter:   0  F: -20.168179386222477  |grad|_K:  0.000e+00  t[s]:    201.81
IonicMinimize: Converged (|grad|_K<1.000000e-04).

#--- Lowdin population analysis ---
# oxidation-state Cs +0.006
# magnetic-moments Cs +0.179

End date and time: Sun Feb  6 13:29:07 2022  (Duration: 0-0:03:21.88)
Done!
