
*************** JDFTx 1.6.0 (git hash 42ebbcc2) ***************

Start date and time: Sun Feb  6 13:32:47 2022
Executable jdftx with command-line: -i Alkali.in
Running on hosts (process indices):  d-6-2-2 (0-18)
Divided in process groups (process indices):  0 (0)  1 (1)  2 (2)  3 (3)  4 (4)  5 (5)  6 (6)  7 (7)  8 (8)  9 (9)  10 (10)  11 (11)  12 (12)  13 (13)  14 (14)  15 (15)  16 (16)  17 (17)  18 (18)
Resource initialization completed at t[s]:      0.00
Run totals: 19 processes, 48 threads, 0 GPUs


Input parsed successfully to the following command list (including defaults):

basis kpoint-dependent
coords-type Lattice
core-overlap-check vector
coulomb-interaction Slab 001
davidson-band-ratio 1.1
dump End None
dump-name $INPUT.$VAR
elec-cutoff 20
elec-eigen-algo Davidson
elec-ex-corr gga-PBE
elec-initial-magnetization 0.700000 yes
elec-smearing Fermi 1e-05
electronic-minimize  \
	dirUpdateScheme      FletcherReeves \
	linminMethod         DirUpdateRecommended \
	nIterations          100 \
	history              15 \
	knormThreshold       0 \
	energyDiffThreshold  1e-08 \
	nEnergyDiff          2 \
	alphaTstart          1 \
	alphaTmin            1e-10 \
	updateTestStepSize   yes \
	alphaTreduceFactor   0.1 \
	alphaTincreaseFactor 3 \
	nAlphaAdjustMax      3 \
	wolfeEnergy          0.0001 \
	wolfeGradient        0.9 \
	fdTest               no
electronic-scf  \
	nIterations	10000 \
	energyDiffThreshold	1e-08 \
	residualThreshold	1e-07 \
	mixFraction	0.5 \
	qMetric	0.8 \
	history	10 \
	nEigSteps	2 \
	eigDiffThreshold	1e-08 \
	mixedVariable	Density \
	qKerker	0.8 \
	qKappa	-1 \
	verbose	no \
	mixFractionMag	1.5
exchange-regularization WignerSeitzTruncated
fluid None
fluid-ex-corr (null) lda-PZ
fluid-gummel-loop 10 1.000000e-05
fluid-minimize  \
	dirUpdateScheme      PolakRibiere \
	linminMethod         DirUpdateRecommended \
	nIterations          100 \
	history              15 \
	knormThreshold       0 \
	energyDiffThreshold  0 \
	nEnergyDiff          2 \
	alphaTstart          1 \
	alphaTmin            1e-10 \
	updateTestStepSize   yes \
	alphaTreduceFactor   0.1 \
	alphaTincreaseFactor 3 \
	nAlphaAdjustMax      3 \
	wolfeEnergy          0.0001 \
	wolfeGradient        0.9 \
	fdTest               no
fluid-solvent H2O 55.338 ScalarEOS \
	epsBulk 78.4 \
	pMol 0.92466 \
	epsInf 1.77 \
	Pvap 1.06736e-10 \
	sigmaBulk 4.62e-05 \
	Rvdw 2.61727 \
	Res 1.42 \
	tauNuc 343133 \
	poleEl 15 7 1
forces-output-coords Positions
ion Cs   0.000000000000000   0.000000000000000   0.000000000000000 0
ion-species SG15/$ID_ONCV_PBE.upf
ion-width 0
ionic-minimize  \
	dirUpdateScheme      L-BFGS \
	linminMethod         DirUpdateRecommended \
	nIterations          0 \
	history              15 \
	knormThreshold       0.0001 \
	energyDiffThreshold  1e-06 \
	nEnergyDiff          2 \
	alphaTstart          1 \
	alphaTmin            1e-10 \
	updateTestStepSize   yes \
	alphaTreduceFactor   0.1 \
	alphaTincreaseFactor 3 \
	nAlphaAdjustMax      3 \
	wolfeEnergy          0.0001 \
	wolfeGradient        0.9 \
	fdTest               no
kpoint   0.000000000000   0.000000000000   0.000000000000  1.00000000000000
kpoint-folding 12 12 1 
latt-move-scale 1 1 1
latt-scale 4 4 1 
lattice  \
	   4.727486978767153   -2.363743489383575    0.000000000000000  \
	  -0.000000000000000    4.094123819672498    0.000000000000000  \
	   0.000000000000000    0.000000000000000   40.000000000000000 
lattice-minimize  \
	dirUpdateScheme      L-BFGS \
	linminMethod         DirUpdateRecommended \
	nIterations          0 \
	history              15 \
	knormThreshold       0 \
	energyDiffThreshold  1e-06 \
	nEnergyDiff          2 \
	alphaTstart          1 \
	alphaTmin            1e-10 \
	updateTestStepSize   yes \
	alphaTreduceFactor   0.1 \
	alphaTincreaseFactor 3 \
	nAlphaAdjustMax      3 \
	wolfeEnergy          0.0001 \
	wolfeGradient        0.9 \
	fdTest               no
lcao-params -1 1e-06 1e-05
pcm-variant GLSSA13
spintype z-spin
subspace-rotation-factor 1 yes
symmetries automatic
symmetry-threshold 0.0001



---------- Setting up symmetries ----------

Found 24 point-group symmetries of the bravais lattice
Found 24 space-group symmetries with basis
Applied RMS atom displacement 0 bohrs to make symmetries exact.

---------- Initializing the Grid ----------
R = 
[      18.9099     -9.45497            0  ]
[            0      16.3765            0  ]
[            0            0           40  ]
unit cell volume = 12387.1
G =
[   0.332269   0.191835         -0  ]
[          0   0.383671         -0  ]
[         -0         -0    0.15708  ]
Minimum fftbox size, Smin = [  80  80  164  ]
Chosen fftbox size, S = [  80  80  168  ]

---------- Exchange Correlation functional ----------
Initalized PBE GGA exchange.
Initalized PBE GGA correlation.

---------- Setting up pseudopotentials ----------
Width of ionic core gaussian charges (only for fluid interactions / plotting) set to 0

Reading pseudopotential file '/home/gridsan/aligho/DFT/build-Nov24/pseudopotentials/SG15/Cs_ONCV_PBE.upf':
  'Cs' pseudopotential, 'PBE' functional
  Generated using ONCVPSP code by D. R. Hamann
  Author: Martin Schlipf and Francois Gygi  Date: 150915.
  9 valence electrons, 3 orbitals, 6 projectors, 2414 radial grid points, with lMax = 2
  Transforming local potential to a uniform radial grid of dG=0.02 with 1489 points.
  Transforming nonlocal projectors to a uniform radial grid of dG=0.02 with 432 points.
    5S    l: 0   occupation:  2.0   eigenvalue: -0.982388
    5P    l: 1   occupation:  6.0   eigenvalue: -0.496786
    6S    l: 0   occupation:  1.0   eigenvalue: -0.076670
  Transforming atomic orbitals to a uniform radial grid of dG=0.02 with 432 points.
  Core radius for overlap checks: 2.06 bohrs.
  Reading pulay file /home/gridsan/aligho/DFT/build-Nov24/pseudopotentials/SG15/Cs_ONCV_PBE.pulay ... using dE_dnG = -1.008762e-04 computed for Ecut = 20.

Initialized 1 species with 1 total atoms.

Folded 1 k-points by 12x12x1 to 144 k-points.

---------- Setting up k-points, bands, fillings ----------
Reduced to 19 k-points under symmetry. 
Computing the number of bands and number of electrons
Calculating initial fillings.
nElectrons:   9.000000   nBands: 6   nStates: 38

----- Setting up reduced wavefunction bases (one per k-point) -----
average nbasis = 52924.021 , ideal nbasis = 52918.836

---------- Setting up coulomb interaction ----------
Initialized slab truncation along lattice direction 001

---------- Setting up 2D ewald sum ----------
Optimum gaussian width for ewald sums = 10.498040 bohr.
Real space sums over 289 unit cells with max indices [  8  8  0  ]
Reciprocal space sums over 81 terms with max indices [  4  4  0  ]

---------- Allocating electronic variables ----------
Initializing wave functions:  linear combination of atomic orbitals
Note: number of bands (6) exceeds available atomic orbitals (5)
Cs pseudo-atom occupations:   s ( 2 1 )  p ( 6 )
	FillingsUpdate:  mu: -0.077726498  nElectrons: 9.000000  magneticMoment: [ Abs: 0.70000  Tot: +0.70000 ]
LCAOMinimize: Iter:   0  F: -20.1688008555338421  |grad|_K:  4.089e-06  alpha:  1.000e+00
	FillingsUpdate:  mu: -0.077725650  nElectrons: 9.000000  magneticMoment: [ Abs: 0.70000  Tot: +0.70000 ]
LCAOMinimize: Iter:   1  F: -20.1688008668778878  |grad|_K:  1.925e-08  alpha:  9.921e-01  linmin: -2.553e-03  cgtest:  1.564e-01  t[s]:     15.26
LCAOMinimize: Encountered beta<0, resetting CG.
	FillingsUpdate:  mu: -0.077725651  nElectrons: 9.000000  magneticMoment: [ Abs: 0.70000  Tot: +0.70000 ]
LCAOMinimize: Iter:   2  F: -20.1688008668780228  |grad|_K:  1.674e-09  alpha:  9.121e-01  linmin: -2.711e-02  cgtest:  9.992e-01  t[s]:     19.28
LCAOMinimize: Encountered beta<0, resetting CG.
LCAOMinimize: Converged (|Delta F|<1.000000e-06 for 2 iters).


---- Citations for features of the code used in this run ----

   Software package:
      R. Sundararaman, K. Letchworth-Weaver, K.A. Schwarz, D. Gunceler, Y. Ozhabes and T.A. Arias, 'JDFTx: software for joint density-functional theory', SoftwareX 6, 278 (2017)

   gga-PBE exchange-correlation functional:
      J.P. Perdew, K. Burke and M. Ernzerhof, Phys. Rev. Lett. 77, 3865 (1996)

   Pseudopotentials:
      M Schlipf and F Gygi, Comput. Phys. Commun. 196, 36 (2015)

   Truncated Coulomb potentials:
      R. Sundararaman and T.A. Arias, Phys. Rev. B 87, 165122 (2013)

This list may not be complete. Please suggest additional citations or
report any other bugs at https://github.com/shankar1729/jdftx/issues

Initialization completed successfully at t[s]:     19.55


-------- Electronic minimization -----------
Will mix electronic density at each iteration.
	FillingsUpdate:  mu: -0.077725651  nElectrons: 9.000000  magneticMoment: [ Abs: 0.70000  Tot: +0.70000 ]
	FillingsUpdate:  mu: -0.077882429  nElectrons: 9.000000  magneticMoment: [ Abs: 0.70000  Tot: +0.70000 ]
SCF: Cycle:  0   F: -20.168975314555176   dF: -1.744e-04   |Residual|: 1.462e-03   |deigs|: 1.730e-01  t[s]:     27.74
	FillingsUpdate:  mu: -0.077893882  nElectrons: 9.000000  magneticMoment: [ Abs: 0.70387  Tot: +0.70000 ]
SCF: Cycle:  1   F: -20.168982098075087   dF: -6.784e-06   |Residual|: 5.273e-04   |deigs|: 6.153e-03  t[s]:     34.16
	FillingsUpdate:  mu: -0.077901612  nElectrons: 9.000000  magneticMoment: [ Abs: 0.70401  Tot: +0.70000 ]
SCF: Cycle:  2   F: -20.168984323591140   dF: -2.226e-06   |Residual|: 3.637e-04   |deigs|: 1.163e-03  t[s]:     40.73
	FillingsUpdate:  mu: -0.077917102  nElectrons: 9.000000  magneticMoment: [ Abs: 0.70489  Tot: +0.70000 ]
SCF: Cycle:  3   F: -20.168985545607750   dF: -1.222e-06   |Residual|: 2.851e-04   |deigs|: 7.210e-04  t[s]:     47.45
	FillingsUpdate:  mu: -0.077916854  nElectrons: 9.000000  magneticMoment: [ Abs: 0.70490  Tot: +0.70000 ]
SCF: Cycle:  4   F: -20.168986622681963   dF: -1.077e-06   |Residual|: 2.171e-04   |deigs|: 2.512e-04  t[s]:     54.24
	FillingsUpdate:  mu: -0.077916193  nElectrons: 9.000000  magneticMoment: [ Abs: 0.70485  Tot: +0.70000 ]
SCF: Cycle:  5   F: -20.168987337675940   dF: -7.150e-07   |Residual|: 1.646e-04   |deigs|: 3.118e-04  t[s]:     61.15
	FillingsUpdate:  mu: -0.077901943  nElectrons: 9.000000  magneticMoment: [ Abs: 0.70489  Tot: +0.70000 ]
SCF: Cycle:  6   F: -20.168987872103212   dF: -5.344e-07   |Residual|: 1.096e-04   |deigs|: 5.070e-04  t[s]:     68.19
	FillingsUpdate:  mu: -0.077881897  nElectrons: 9.000000  magneticMoment: [ Abs: 0.70479  Tot: +0.70000 ]
SCF: Cycle:  7   F: -20.168988195476519   dF: -3.234e-07   |Residual|: 8.678e-05   |deigs|: 2.109e-04  t[s]:     75.31
	FillingsUpdate:  mu: -0.077859035  nElectrons: 9.000000  magneticMoment: [ Abs: 0.70485  Tot: +0.70000 ]
SCF: Cycle:  8   F: -20.168988402317471   dF: -2.068e-07   |Residual|: 6.971e-05   |deigs|: 5.161e-04  t[s]:     82.51
	FillingsUpdate:  mu: -0.077812153  nElectrons: 9.000000  magneticMoment: [ Abs: 0.70484  Tot: +0.70000 ]
SCF: Cycle:  9   F: -20.168988548946821   dF: -1.466e-07   |Residual|: 5.725e-05   |deigs|: 1.870e-04  t[s]:     89.91
	FillingsUpdate:  mu: -0.077775967  nElectrons: 9.000000  magneticMoment: [ Abs: 0.70481  Tot: +0.70000 ]
SCF: Cycle: 10   F: -20.168988533108855   dF: +1.584e-08   |Residual|: 4.962e-05   |deigs|: 4.385e-04  t[s]:     97.35
	FillingsUpdate:  mu: -0.077716923  nElectrons: 9.000000  magneticMoment: [ Abs: 0.70507  Tot: +0.70000 ]
SCF: Cycle: 11   F: -20.168988377746100   dF: +1.554e-07   |Residual|: 4.892e-05   |deigs|: 4.362e-04  t[s]:    104.82
	FillingsUpdate:  mu: -0.077685503  nElectrons: 9.000000  magneticMoment: [ Abs: 0.70515  Tot: +0.70000 ]
SCF: Cycle: 12   F: -20.168988242549631   dF: +1.352e-07   |Residual|: 4.634e-05   |deigs|: 1.302e-04  t[s]:    112.31
	FillingsUpdate:  mu: -0.077660764  nElectrons: 9.000000  magneticMoment: [ Abs: 0.70520  Tot: +0.70000 ]
SCF: Cycle: 13   F: -20.168988280976031   dF: -3.843e-08   |Residual|: 3.814e-05   |deigs|: 1.205e-04  t[s]:    119.78
	FillingsUpdate:  mu: -0.077616448  nElectrons: 9.000000  magneticMoment: [ Abs: 0.70534  Tot: +0.70000 ]
SCF: Cycle: 14   F: -20.168988589788810   dF: -3.088e-07   |Residual|: 3.000e-05   |deigs|: 8.839e-05  t[s]:    127.23
	FillingsUpdate:  mu: -0.077516172  nElectrons: 9.000000  magneticMoment: [ Abs: 0.70543  Tot: +0.70000 ]
SCF: Cycle: 15   F: -20.168988420291679   dF: +1.695e-07   |Residual|: 3.248e-05   |deigs|: 1.257e-04  t[s]:    134.60
	FillingsUpdate:  mu: -0.077456382  nElectrons: 9.000000  magneticMoment: [ Abs: 0.70519  Tot: +0.70000 ]
SCF: Cycle: 16   F: -20.168988525334946   dF: -1.050e-07   |Residual|: 2.845e-05   |deigs|: 9.558e-05  t[s]:    141.98
	FillingsUpdate:  mu: -0.077447221  nElectrons: 9.000000  magneticMoment: [ Abs: 0.70502  Tot: +0.70000 ]
SCF: Cycle: 17   F: -20.168988706821306   dF: -1.815e-07   |Residual|: 2.288e-05   |deigs|: 5.901e-05  t[s]:    149.47
	FillingsUpdate:  mu: -0.077443715  nElectrons: 9.000000  magneticMoment: [ Abs: 0.70489  Tot: +0.70000 ]
SCF: Cycle: 18   F: -20.168988709892666   dF: -3.071e-09   |Residual|: 1.615e-05   |deigs|: 5.540e-05  t[s]:    156.93
	FillingsUpdate:  mu: -0.077447256  nElectrons: 9.000000  magneticMoment: [ Abs: 0.70484  Tot: +0.70000 ]
SCF: Cycle: 19   F: -20.168988797275265   dF: -8.738e-08   |Residual|: 1.133e-05   |deigs|: 4.015e-05  t[s]:    164.36
	FillingsUpdate:  mu: -0.077442121  nElectrons: 9.000000  magneticMoment: [ Abs: 0.70481  Tot: +0.70000 ]
SCF: Cycle: 20   F: -20.168988766296827   dF: +3.098e-08   |Residual|: 1.007e-05   |deigs|: 2.912e-05  t[s]:    171.69
	FillingsUpdate:  mu: -0.077444635  nElectrons: 9.000000  magneticMoment: [ Abs: 0.70481  Tot: +0.70000 ]
SCF: Cycle: 21   F: -20.168988821256942   dF: -5.496e-08   |Residual|: 7.575e-06   |deigs|: 2.214e-05  t[s]:    179.15
	FillingsUpdate:  mu: -0.077457606  nElectrons: 9.000000  magneticMoment: [ Abs: 0.70481  Tot: +0.70000 ]
SCF: Cycle: 22   F: -20.168988792091795   dF: +2.917e-08   |Residual|: 5.635e-06   |deigs|: 2.467e-05  t[s]:    186.46
	FillingsUpdate:  mu: -0.077454580  nElectrons: 9.000000  magneticMoment: [ Abs: 0.70482  Tot: +0.70000 ]
SCF: Cycle: 23   F: -20.168988824464193   dF: -3.237e-08   |Residual|: 3.939e-06   |deigs|: 9.709e-06  t[s]:    193.82
	FillingsUpdate:  mu: -0.077455391  nElectrons: 9.000000  magneticMoment: [ Abs: 0.70482  Tot: +0.70000 ]
SCF: Cycle: 24   F: -20.168988826991487   dF: -2.527e-09   |Residual|: 2.749e-06   |deigs|: 7.753e-06  t[s]:    200.91
	FillingsUpdate:  mu: -0.077454657  nElectrons: 9.000000  magneticMoment: [ Abs: 0.70482  Tot: +0.70000 ]
SCF: Cycle: 25   F: -20.168988828940059   dF: -1.949e-09   |Residual|: 2.138e-06   |deigs|: 5.837e-06  t[s]:    208.33
SCF: Converged (|Delta E|<1.000000e-08 for 2 iters).


# Ionic positions in lattice coordinates:
ion Cs   0.000000000000000   0.000000000000000   0.000000000000000 0

# Forces in Lattice coordinates:
force Cs  -0.000000000000000   0.000000000000000   0.000000000000000 0

# Energy components:
   Eewald =       -9.0240130501663280
       EH =        7.0248485842166319
     Eloc =      -23.6114837489255791
      Enl =        3.4377558316820185
   Epulay =        0.0000000422266766
      Exc =       -3.1092267515182690
       KE =        5.1131310375955215
-------------------------------------
     Etot =      -20.1689880548893257
       TS =        0.0000007740507320
-------------------------------------
        F =      -20.1689888289400585

IonicMinimize: Iter:   0  F: -20.168988828940059  |grad|_K:  0.000e+00  t[s]:    208.74
IonicMinimize: Converged (|grad|_K<1.000000e-04).

#--- Lowdin population analysis ---
# oxidation-state Cs +0.003
# magnetic-moments Cs +0.698

End date and time: Sun Feb  6 13:36:16 2022  (Duration: 0-0:03:28.82)
Done!
