
*************** JDFTx 1.6.0 (git hash 42ebbcc2) ***************

Start date and time: Sun Feb  6 13:32:01 2022
Executable jdftx with command-line: -i Alkali.in
Running on hosts (process indices):  d-4-9-2 (0-18)
Divided in process groups (process indices):  0 (0)  1 (1)  2 (2)  3 (3)  4 (4)  5 (5)  6 (6)  7 (7)  8 (8)  9 (9)  10 (10)  11 (11)  12 (12)  13 (13)  14 (14)  15 (15)  16 (16)  17 (17)  18 (18)
Resource initialization completed at t[s]:      0.00
Run totals: 19 processes, 48 threads, 0 GPUs


Input parsed successfully to the following command list (including defaults):

basis kpoint-dependent
coords-type Lattice
core-overlap-check vector
coulomb-interaction Slab 001
davidson-band-ratio 1.1
dump End None
dump-name $INPUT.$VAR
elec-cutoff 20
elec-eigen-algo Davidson
elec-ex-corr gga-PBE
elec-initial-magnetization 0.500000 yes
elec-smearing Fermi 1e-05
electronic-minimize  \
	dirUpdateScheme      FletcherReeves \
	linminMethod         DirUpdateRecommended \
	nIterations          100 \
	history              15 \
	knormThreshold       0 \
	energyDiffThreshold  1e-08 \
	nEnergyDiff          2 \
	alphaTstart          1 \
	alphaTmin            1e-10 \
	updateTestStepSize   yes \
	alphaTreduceFactor   0.1 \
	alphaTincreaseFactor 3 \
	nAlphaAdjustMax      3 \
	wolfeEnergy          0.0001 \
	wolfeGradient        0.9 \
	fdTest               no
electronic-scf  \
	nIterations	10000 \
	energyDiffThreshold	1e-08 \
	residualThreshold	1e-07 \
	mixFraction	0.5 \
	qMetric	0.8 \
	history	10 \
	nEigSteps	2 \
	eigDiffThreshold	1e-08 \
	mixedVariable	Density \
	qKerker	0.8 \
	qKappa	-1 \
	verbose	no \
	mixFractionMag	1.5
exchange-regularization WignerSeitzTruncated
fluid None
fluid-ex-corr (null) lda-PZ
fluid-gummel-loop 10 1.000000e-05
fluid-minimize  \
	dirUpdateScheme      PolakRibiere \
	linminMethod         DirUpdateRecommended \
	nIterations          100 \
	history              15 \
	knormThreshold       0 \
	energyDiffThreshold  0 \
	nEnergyDiff          2 \
	alphaTstart          1 \
	alphaTmin            1e-10 \
	updateTestStepSize   yes \
	alphaTreduceFactor   0.1 \
	alphaTincreaseFactor 3 \
	nAlphaAdjustMax      3 \
	wolfeEnergy          0.0001 \
	wolfeGradient        0.9 \
	fdTest               no
fluid-solvent H2O 55.338 ScalarEOS \
	epsBulk 78.4 \
	pMol 0.92466 \
	epsInf 1.77 \
	Pvap 1.06736e-10 \
	sigmaBulk 4.62e-05 \
	Rvdw 2.61727 \
	Res 1.42 \
	tauNuc 343133 \
	poleEl 15 7 1
forces-output-coords Positions
ion Cs   0.000000000000000   0.000000000000000   0.000000000000000 0
ion-species SG15/$ID_ONCV_PBE.upf
ion-width 0
ionic-minimize  \
	dirUpdateScheme      L-BFGS \
	linminMethod         DirUpdateRecommended \
	nIterations          0 \
	history              15 \
	knormThreshold       0.0001 \
	energyDiffThreshold  1e-06 \
	nEnergyDiff          2 \
	alphaTstart          1 \
	alphaTmin            1e-10 \
	updateTestStepSize   yes \
	alphaTreduceFactor   0.1 \
	alphaTincreaseFactor 3 \
	nAlphaAdjustMax      3 \
	wolfeEnergy          0.0001 \
	wolfeGradient        0.9 \
	fdTest               no
kpoint   0.000000000000   0.000000000000   0.000000000000  1.00000000000000
kpoint-folding 12 12 1 
latt-move-scale 1 1 1
latt-scale 4 4 1 
lattice  \
	   4.727486978767153   -2.363743489383575    0.000000000000000  \
	  -0.000000000000000    4.094123819672498    0.000000000000000  \
	   0.000000000000000    0.000000000000000   40.000000000000000 
lattice-minimize  \
	dirUpdateScheme      L-BFGS \
	linminMethod         DirUpdateRecommended \
	nIterations          0 \
	history              15 \
	knormThreshold       0 \
	energyDiffThreshold  1e-06 \
	nEnergyDiff          2 \
	alphaTstart          1 \
	alphaTmin            1e-10 \
	updateTestStepSize   yes \
	alphaTreduceFactor   0.1 \
	alphaTincreaseFactor 3 \
	nAlphaAdjustMax      3 \
	wolfeEnergy          0.0001 \
	wolfeGradient        0.9 \
	fdTest               no
lcao-params -1 1e-06 1e-05
pcm-variant GLSSA13
spintype z-spin
subspace-rotation-factor 1 yes
symmetries automatic
symmetry-threshold 0.0001



---------- Setting up symmetries ----------

Found 24 point-group symmetries of the bravais lattice
Found 24 space-group symmetries with basis
Applied RMS atom displacement 0 bohrs to make symmetries exact.

---------- Initializing the Grid ----------
R = 
[      18.9099     -9.45497            0  ]
[            0      16.3765            0  ]
[            0            0           40  ]
unit cell volume = 12387.1
G =
[   0.332269   0.191835         -0  ]
[          0   0.383671         -0  ]
[         -0         -0    0.15708  ]
Minimum fftbox size, Smin = [  80  80  164  ]
Chosen fftbox size, S = [  80  80  168  ]

---------- Exchange Correlation functional ----------
Initalized PBE GGA exchange.
Initalized PBE GGA correlation.

---------- Setting up pseudopotentials ----------
Width of ionic core gaussian charges (only for fluid interactions / plotting) set to 0

Reading pseudopotential file '/home/gridsan/aligho/DFT/build-Nov24/pseudopotentials/SG15/Cs_ONCV_PBE.upf':
  'Cs' pseudopotential, 'PBE' functional
  Generated using ONCVPSP code by D. R. Hamann
  Author: Martin Schlipf and Francois Gygi  Date: 150915.
  9 valence electrons, 3 orbitals, 6 projectors, 2414 radial grid points, with lMax = 2
  Transforming local potential to a uniform radial grid of dG=0.02 with 1489 points.
  Transforming nonlocal projectors to a uniform radial grid of dG=0.02 with 432 points.
    5S    l: 0   occupation:  2.0   eigenvalue: -0.982388
    5P    l: 1   occupation:  6.0   eigenvalue: -0.496786
    6S    l: 0   occupation:  1.0   eigenvalue: -0.076670
  Transforming atomic orbitals to a uniform radial grid of dG=0.02 with 432 points.
  Core radius for overlap checks: 2.06 bohrs.
  Reading pulay file /home/gridsan/aligho/DFT/build-Nov24/pseudopotentials/SG15/Cs_ONCV_PBE.pulay ... using dE_dnG = -1.008762e-04 computed for Ecut = 20.

Initialized 1 species with 1 total atoms.

Folded 1 k-points by 12x12x1 to 144 k-points.

---------- Setting up k-points, bands, fillings ----------
Reduced to 19 k-points under symmetry. 
Computing the number of bands and number of electrons
Calculating initial fillings.
nElectrons:   9.000000   nBands: 6   nStates: 38

----- Setting up reduced wavefunction bases (one per k-point) -----
average nbasis = 52924.021 , ideal nbasis = 52918.836

---------- Setting up coulomb interaction ----------
Initialized slab truncation along lattice direction 001

---------- Setting up 2D ewald sum ----------
Optimum gaussian width for ewald sums = 10.498040 bohr.
Real space sums over 289 unit cells with max indices [  8  8  0  ]
Reciprocal space sums over 81 terms with max indices [  4  4  0  ]

---------- Allocating electronic variables ----------
Initializing wave functions:  linear combination of atomic orbitals
Note: number of bands (6) exceeds available atomic orbitals (5)
Cs pseudo-atom occupations:   s ( 2 1 )  p ( 6 )
	FillingsUpdate:  mu: -0.077766427  nElectrons: 9.000000  magneticMoment: [ Abs: 0.50000  Tot: +0.50000 ]
LCAOMinimize: Iter:   0  F: -20.1683151384216259  |grad|_K:  5.938e-06  alpha:  1.000e+00
	FillingsUpdate:  mu: -0.077765212  nElectrons: 9.000000  magneticMoment: [ Abs: 0.50000  Tot: +0.50000 ]
LCAOMinimize: Iter:   1  F: -20.1683151623094901  |grad|_K:  2.911e-08  alpha:  9.905e-01  linmin: -6.674e-04  cgtest:  2.750e-01  t[s]:     14.93
LCAOMinimize: Encountered beta<0, resetting CG.
LCAOMinimize: 	Step increased F by 1.456613e-13, reducing alpha to 2.134363e-01.
	FillingsUpdate:  mu: -0.077765213  nElectrons: 9.000000  magneticMoment: [ Abs: 0.50000  Tot: +0.50000 ]
LCAOMinimize: Iter:   2  F: -20.1683151623097565  |grad|_K:  2.290e-08  alpha:  2.134e-01  linmin: -2.880e-03  cgtest:  1.000e+00  t[s]:     21.26
LCAOMinimize: Encountered beta<0, resetting CG.
LCAOMinimize: Converged (|Delta F|<1.000000e-06 for 2 iters).


---- Citations for features of the code used in this run ----

   Software package:
      R. Sundararaman, K. Letchworth-Weaver, K.A. Schwarz, D. Gunceler, Y. Ozhabes and T.A. Arias, 'JDFTx: software for joint density-functional theory', SoftwareX 6, 278 (2017)

   gga-PBE exchange-correlation functional:
      J.P. Perdew, K. Burke and M. Ernzerhof, Phys. Rev. Lett. 77, 3865 (1996)

   Pseudopotentials:
      M Schlipf and F Gygi, Comput. Phys. Commun. 196, 36 (2015)

   Truncated Coulomb potentials:
      R. Sundararaman and T.A. Arias, Phys. Rev. B 87, 165122 (2013)

This list may not be complete. Please suggest additional citations or
report any other bugs at https://github.com/shankar1729/jdftx/issues

Initialization completed successfully at t[s]:     21.52


-------- Electronic minimization -----------
Will mix electronic density at each iteration.
	FillingsUpdate:  mu: -0.077765213  nElectrons: 9.000000  magneticMoment: [ Abs: 0.50000  Tot: +0.50000 ]
	FillingsUpdate:  mu: -0.077942644  nElectrons: 9.000000  magneticMoment: [ Abs: 0.50000  Tot: +0.50000 ]
SCF: Cycle:  0   F: -20.168512354209732   dF: -1.972e-04   |Residual|: 1.210e-03   |deigs|: 1.746e-01  t[s]:     29.60
	FillingsUpdate:  mu: -0.077977459  nElectrons: 9.000000  magneticMoment: [ Abs: 0.50252  Tot: +0.50000 ]
SCF: Cycle:  1   F: -20.168519625638361   dF: -7.271e-06   |Residual|: 6.618e-04   |deigs|: 4.635e-03  t[s]:     35.91
	FillingsUpdate:  mu: -0.078015018  nElectrons: 9.000000  magneticMoment: [ Abs: 0.50268  Tot: +0.50000 ]
SCF: Cycle:  2   F: -20.168522058227428   dF: -2.433e-06   |Residual|: 5.279e-04   |deigs|: 1.225e-03  t[s]:     42.34
	FillingsUpdate:  mu: -0.078080379  nElectrons: 9.000000  magneticMoment: [ Abs: 0.50367  Tot: +0.50000 ]
SCF: Cycle:  3   F: -20.168523885911725   dF: -1.828e-06   |Residual|: 4.046e-04   |deigs|: 4.069e-04  t[s]:     49.00
	FillingsUpdate:  mu: -0.078151187  nElectrons: 9.000000  magneticMoment: [ Abs: 0.50356  Tot: +0.50000 ]
SCF: Cycle:  4   F: -20.168526071529680   dF: -2.186e-06   |Residual|: 2.840e-04   |deigs|: 7.462e-04  t[s]:     55.69
	FillingsUpdate:  mu: -0.078217958  nElectrons: 9.000000  magneticMoment: [ Abs: 0.50352  Tot: +0.50000 ]
SCF: Cycle:  5   F: -20.168527511540496   dF: -1.440e-06   |Residual|: 1.857e-04   |deigs|: 2.851e-04  t[s]:     62.55
	FillingsUpdate:  mu: -0.078230197  nElectrons: 9.000000  magneticMoment: [ Abs: 0.50364  Tot: +0.50000 ]
SCF: Cycle:  6   F: -20.168528377267918   dF: -8.657e-07   |Residual|: 1.260e-04   |deigs|: 3.809e-04  t[s]:     69.46
	FillingsUpdate:  mu: -0.078224811  nElectrons: 9.000000  magneticMoment: [ Abs: 0.50345  Tot: +0.50000 ]
SCF: Cycle:  7   F: -20.168528886826902   dF: -5.096e-07   |Residual|: 9.753e-05   |deigs|: 3.390e-04  t[s]:     76.52
	FillingsUpdate:  mu: -0.078195663  nElectrons: 9.000000  magneticMoment: [ Abs: 0.50341  Tot: +0.50000 ]
SCF: Cycle:  8   F: -20.168529222365123   dF: -3.355e-07   |Residual|: 7.459e-05   |deigs|: 2.751e-04  t[s]:     83.71
	FillingsUpdate:  mu: -0.078149848  nElectrons: 9.000000  magneticMoment: [ Abs: 0.50336  Tot: +0.50000 ]
SCF: Cycle:  9   F: -20.168529330064079   dF: -1.077e-07   |Residual|: 6.280e-05   |deigs|: 4.442e-04  t[s]:     90.91
	FillingsUpdate:  mu: -0.078107847  nElectrons: 9.000000  magneticMoment: [ Abs: 0.50343  Tot: +0.50000 ]
SCF: Cycle: 10   F: -20.168529315375270   dF: +1.469e-08   |Residual|: 5.415e-05   |deigs|: 3.261e-04  t[s]:     98.29
	FillingsUpdate:  mu: -0.078050031  nElectrons: 9.000000  magneticMoment: [ Abs: 0.50369  Tot: +0.50000 ]
SCF: Cycle: 11   F: -20.168529280598001   dF: +3.478e-08   |Residual|: 5.361e-05   |deigs|: 1.808e-04  t[s]:    105.72
	FillingsUpdate:  mu: -0.077992134  nElectrons: 9.000000  magneticMoment: [ Abs: 0.50367  Tot: +0.50000 ]
SCF: Cycle: 12   F: -20.168528999446441   dF: +2.812e-07   |Residual|: 5.022e-05   |deigs|: 1.636e-04  t[s]:    113.09
	FillingsUpdate:  mu: -0.077923229  nElectrons: 9.000000  magneticMoment: [ Abs: 0.50382  Tot: +0.50000 ]
SCF: Cycle: 13   F: -20.168529164158414   dF: -1.647e-07   |Residual|: 4.361e-05   |deigs|: 1.216e-04  t[s]:    120.43
	FillingsUpdate:  mu: -0.077889023  nElectrons: 9.000000  magneticMoment: [ Abs: 0.50389  Tot: +0.50000 ]
SCF: Cycle: 14   F: -20.168529391203158   dF: -2.270e-07   |Residual|: 3.692e-05   |deigs|: 1.675e-04  t[s]:    127.83
	FillingsUpdate:  mu: -0.077840634  nElectrons: 9.000000  magneticMoment: [ Abs: 0.50375  Tot: +0.50000 ]
SCF: Cycle: 15   F: -20.168529308273801   dF: +8.293e-08   |Residual|: 3.563e-05   |deigs|: 2.075e-04  t[s]:    135.20
	FillingsUpdate:  mu: -0.077772694  nElectrons: 9.000000  magneticMoment: [ Abs: 0.50354  Tot: +0.50000 ]
SCF: Cycle: 16   F: -20.168529278270114   dF: +3.000e-08   |Residual|: 3.260e-05   |deigs|: 2.084e-04  t[s]:    142.60
	FillingsUpdate:  mu: -0.077762466  nElectrons: 9.000000  magneticMoment: [ Abs: 0.50350  Tot: +0.50000 ]
SCF: Cycle: 17   F: -20.168529487172652   dF: -2.089e-07   |Residual|: 2.408e-05   |deigs|: 1.128e-04  t[s]:    149.94
	FillingsUpdate:  mu: -0.077761259  nElectrons: 9.000000  magneticMoment: [ Abs: 0.50335  Tot: +0.50000 ]
SCF: Cycle: 18   F: -20.168529484010381   dF: +3.162e-09   |Residual|: 1.999e-05   |deigs|: 6.039e-05  t[s]:    157.29
	FillingsUpdate:  mu: -0.077747641  nElectrons: 9.000000  magneticMoment: [ Abs: 0.50334  Tot: +0.50000 ]
SCF: Cycle: 19   F: -20.168529512059735   dF: -2.805e-08   |Residual|: 1.698e-05   |deigs|: 3.942e-05  t[s]:    164.61
	FillingsUpdate:  mu: -0.077743090  nElectrons: 9.000000  magneticMoment: [ Abs: 0.50334  Tot: +0.50000 ]
SCF: Cycle: 20   F: -20.168529567847209   dF: -5.579e-08   |Residual|: 1.196e-05   |deigs|: 2.999e-05  t[s]:    171.98
	FillingsUpdate:  mu: -0.077749127  nElectrons: 9.000000  magneticMoment: [ Abs: 0.50334  Tot: +0.50000 ]
SCF: Cycle: 21   F: -20.168529589889829   dF: -2.204e-08   |Residual|: 8.480e-06   |deigs|: 3.137e-05  t[s]:    179.30
	FillingsUpdate:  mu: -0.077751880  nElectrons: 9.000000  magneticMoment: [ Abs: 0.50335  Tot: +0.50000 ]
SCF: Cycle: 22   F: -20.168529598398873   dF: -8.509e-09   |Residual|: 5.556e-06   |deigs|: 3.008e-05  t[s]:    186.64
	FillingsUpdate:  mu: -0.077753142  nElectrons: 9.000000  magneticMoment: [ Abs: 0.50336  Tot: +0.50000 ]
SCF: Cycle: 23   F: -20.168529604261138   dF: -5.862e-09   |Residual|: 3.998e-06   |deigs|: 3.277e-05  t[s]:    193.99
SCF: Converged (|Delta E|<1.000000e-08 for 2 iters).


# Ionic positions in lattice coordinates:
ion Cs   0.000000000000000   0.000000000000000   0.000000000000000 0

# Forces in Lattice coordinates:
force Cs   0.000000000000000  -0.000000000000000   0.000000000000000 0

# Energy components:
   Eewald =       -9.0240130501663280
       EH =        7.0134960603874124
     Eloc =      -23.5986862017773191
      Enl =        3.4370533625800794
   Epulay =        0.0000000422266766
      Exc =       -3.1070482594319317
       KE =        5.1106693564052073
-------------------------------------
     Etot =      -20.1685286897761991
       TS =        0.0000009144849384
-------------------------------------
        F =      -20.1685296042611384

IonicMinimize: Iter:   0  F: -20.168529604261138  |grad|_K:  0.000e+00  t[s]:    194.40
IonicMinimize: Converged (|grad|_K<1.000000e-04).

#--- Lowdin population analysis ---
# oxidation-state Cs +0.004
# magnetic-moments Cs +0.498

End date and time: Sun Feb  6 13:35:16 2022  (Duration: 0-0:03:14.46)
Done!
