
*************** JDFTx 1.6.0 (git hash 42ebbcc2) ***************

Start date and time: Sun Feb  6 13:25:55 2022
Executable jdftx with command-line: -i Alkali.in
Running on hosts (process indices):  d-6-13-4 (0-18)
Divided in process groups (process indices):  0 (0)  1 (1)  2 (2)  3 (3)  4 (4)  5 (5)  6 (6)  7 (7)  8 (8)  9 (9)  10 (10)  11 (11)  12 (12)  13 (13)  14 (14)  15 (15)  16 (16)  17 (17)  18 (18)
Resource initialization completed at t[s]:      0.00
Run totals: 19 processes, 48 threads, 0 GPUs


Input parsed successfully to the following command list (including defaults):

basis kpoint-dependent
coords-type Lattice
core-overlap-check vector
coulomb-interaction Slab 001
davidson-band-ratio 1.1
dump End None
dump-name $INPUT.$VAR
elec-cutoff 20
elec-eigen-algo Davidson
elec-ex-corr gga-PBE
elec-initial-magnetization 0.260000 yes
elec-smearing Fermi 1e-05
electronic-minimize  \
	dirUpdateScheme      FletcherReeves \
	linminMethod         DirUpdateRecommended \
	nIterations          100 \
	history              15 \
	knormThreshold       0 \
	energyDiffThreshold  1e-08 \
	nEnergyDiff          2 \
	alphaTstart          1 \
	alphaTmin            1e-10 \
	updateTestStepSize   yes \
	alphaTreduceFactor   0.1 \
	alphaTincreaseFactor 3 \
	nAlphaAdjustMax      3 \
	wolfeEnergy          0.0001 \
	wolfeGradient        0.9 \
	fdTest               no
electronic-scf  \
	nIterations	10000 \
	energyDiffThreshold	1e-08 \
	residualThreshold	1e-07 \
	mixFraction	0.5 \
	qMetric	0.8 \
	history	10 \
	nEigSteps	2 \
	eigDiffThreshold	1e-08 \
	mixedVariable	Density \
	qKerker	0.8 \
	qKappa	-1 \
	verbose	no \
	mixFractionMag	1.5
exchange-regularization WignerSeitzTruncated
fluid None
fluid-ex-corr (null) lda-PZ
fluid-gummel-loop 10 1.000000e-05
fluid-minimize  \
	dirUpdateScheme      PolakRibiere \
	linminMethod         DirUpdateRecommended \
	nIterations          100 \
	history              15 \
	knormThreshold       0 \
	energyDiffThreshold  0 \
	nEnergyDiff          2 \
	alphaTstart          1 \
	alphaTmin            1e-10 \
	updateTestStepSize   yes \
	alphaTreduceFactor   0.1 \
	alphaTincreaseFactor 3 \
	nAlphaAdjustMax      3 \
	wolfeEnergy          0.0001 \
	wolfeGradient        0.9 \
	fdTest               no
fluid-solvent H2O 55.338 ScalarEOS \
	epsBulk 78.4 \
	pMol 0.92466 \
	epsInf 1.77 \
	Pvap 1.06736e-10 \
	sigmaBulk 4.62e-05 \
	Rvdw 2.61727 \
	Res 1.42 \
	tauNuc 343133 \
	poleEl 15 7 1
forces-output-coords Positions
ion Cs   0.000000000000000   0.000000000000000   0.000000000000000 0
ion-species SG15/$ID_ONCV_PBE.upf
ion-width 0
ionic-minimize  \
	dirUpdateScheme      L-BFGS \
	linminMethod         DirUpdateRecommended \
	nIterations          0 \
	history              15 \
	knormThreshold       0.0001 \
	energyDiffThreshold  1e-06 \
	nEnergyDiff          2 \
	alphaTstart          1 \
	alphaTmin            1e-10 \
	updateTestStepSize   yes \
	alphaTreduceFactor   0.1 \
	alphaTincreaseFactor 3 \
	nAlphaAdjustMax      3 \
	wolfeEnergy          0.0001 \
	wolfeGradient        0.9 \
	fdTest               no
kpoint   0.000000000000   0.000000000000   0.000000000000  1.00000000000000
kpoint-folding 12 12 1 
latt-move-scale 1 1 1
latt-scale 4 4 1 
lattice  \
	   4.727486978767153   -2.363743489383575    0.000000000000000  \
	  -0.000000000000000    4.094123819672498    0.000000000000000  \
	   0.000000000000000    0.000000000000000   40.000000000000000 
lattice-minimize  \
	dirUpdateScheme      L-BFGS \
	linminMethod         DirUpdateRecommended \
	nIterations          0 \
	history              15 \
	knormThreshold       0 \
	energyDiffThreshold  1e-06 \
	nEnergyDiff          2 \
	alphaTstart          1 \
	alphaTmin            1e-10 \
	updateTestStepSize   yes \
	alphaTreduceFactor   0.1 \
	alphaTincreaseFactor 3 \
	nAlphaAdjustMax      3 \
	wolfeEnergy          0.0001 \
	wolfeGradient        0.9 \
	fdTest               no
lcao-params -1 1e-06 1e-05
pcm-variant GLSSA13
spintype z-spin
subspace-rotation-factor 1 yes
symmetries automatic
symmetry-threshold 0.0001



---------- Setting up symmetries ----------

Found 24 point-group symmetries of the bravais lattice
Found 24 space-group symmetries with basis
Applied RMS atom displacement 0 bohrs to make symmetries exact.

---------- Initializing the Grid ----------
R = 
[      18.9099     -9.45497            0  ]
[            0      16.3765            0  ]
[            0            0           40  ]
unit cell volume = 12387.1
G =
[   0.332269   0.191835         -0  ]
[          0   0.383671         -0  ]
[         -0         -0    0.15708  ]
Minimum fftbox size, Smin = [  80  80  164  ]
Chosen fftbox size, S = [  80  80  168  ]

---------- Exchange Correlation functional ----------
Initalized PBE GGA exchange.
Initalized PBE GGA correlation.

---------- Setting up pseudopotentials ----------
Width of ionic core gaussian charges (only for fluid interactions / plotting) set to 0

Reading pseudopotential file '/home/gridsan/aligho/DFT/build-Nov24/pseudopotentials/SG15/Cs_ONCV_PBE.upf':
  'Cs' pseudopotential, 'PBE' functional
  Generated using ONCVPSP code by D. R. Hamann
  Author: Martin Schlipf and Francois Gygi  Date: 150915.
  9 valence electrons, 3 orbitals, 6 projectors, 2414 radial grid points, with lMax = 2
  Transforming local potential to a uniform radial grid of dG=0.02 with 1489 points.
  Transforming nonlocal projectors to a uniform radial grid of dG=0.02 with 432 points.
    5S    l: 0   occupation:  2.0   eigenvalue: -0.982388
    5P    l: 1   occupation:  6.0   eigenvalue: -0.496786
    6S    l: 0   occupation:  1.0   eigenvalue: -0.076670
  Transforming atomic orbitals to a uniform radial grid of dG=0.02 with 432 points.
  Core radius for overlap checks: 2.06 bohrs.
  Reading pulay file /home/gridsan/aligho/DFT/build-Nov24/pseudopotentials/SG15/Cs_ONCV_PBE.pulay ... using dE_dnG = -1.008762e-04 computed for Ecut = 20.

Initialized 1 species with 1 total atoms.

Folded 1 k-points by 12x12x1 to 144 k-points.

---------- Setting up k-points, bands, fillings ----------
Reduced to 19 k-points under symmetry. 
Computing the number of bands and number of electrons
Calculating initial fillings.
nElectrons:   9.000000   nBands: 6   nStates: 38

----- Setting up reduced wavefunction bases (one per k-point) -----
average nbasis = 52924.021 , ideal nbasis = 52918.836

---------- Setting up coulomb interaction ----------
Initialized slab truncation along lattice direction 001

---------- Setting up 2D ewald sum ----------
Optimum gaussian width for ewald sums = 10.498040 bohr.
Real space sums over 289 unit cells with max indices [  8  8  0  ]
Reciprocal space sums over 81 terms with max indices [  4  4  0  ]

---------- Allocating electronic variables ----------
Initializing wave functions:  linear combination of atomic orbitals
Note: number of bands (6) exceeds available atomic orbitals (5)
Cs pseudo-atom occupations:   s ( 2 1 )  p ( 6 )
	FillingsUpdate:  mu: -0.077624258  nElectrons: 9.000000  magneticMoment: [ Abs: 0.26000  Tot: +0.26000 ]
LCAOMinimize: Iter:   0  F: -20.1679676561059722  |grad|_K:  7.397e-06  alpha:  1.000e+00
	FillingsUpdate:  mu: -0.077622746  nElectrons: 9.000000  magneticMoment: [ Abs: 0.26000  Tot: +0.26000 ]
LCAOMinimize: Iter:   1  F: -20.1679676931331713  |grad|_K:  3.688e-08  alpha:  9.894e-01  linmin: -1.322e-02  cgtest:  3.531e-01  t[s]:     15.23
LCAOMinimize: Encountered beta<0, resetting CG.
	FillingsUpdate:  mu: -0.077622746  nElectrons: 9.000000  magneticMoment: [ Abs: 0.26000  Tot: +0.26000 ]
LCAOMinimize: Iter:   2  F: -20.1679676931341589  |grad|_K:  3.376e-09  alpha:  9.089e-01  linmin: -3.551e-02  cgtest:  9.999e-01  t[s]:     19.28
LCAOMinimize: Encountered beta<0, resetting CG.
LCAOMinimize: Converged (|Delta F|<1.000000e-06 for 2 iters).


---- Citations for features of the code used in this run ----

   Software package:
      R. Sundararaman, K. Letchworth-Weaver, K.A. Schwarz, D. Gunceler, Y. Ozhabes and T.A. Arias, 'JDFTx: software for joint density-functional theory', SoftwareX 6, 278 (2017)

   gga-PBE exchange-correlation functional:
      J.P. Perdew, K. Burke and M. Ernzerhof, Phys. Rev. Lett. 77, 3865 (1996)

   Pseudopotentials:
      M Schlipf and F Gygi, Comput. Phys. Commun. 196, 36 (2015)

   Truncated Coulomb potentials:
      R. Sundararaman and T.A. Arias, Phys. Rev. B 87, 165122 (2013)

This list may not be complete. Please suggest additional citations or
report any other bugs at https://github.com/shankar1729/jdftx/issues

Initialization completed successfully at t[s]:     19.55


-------- Electronic minimization -----------
Will mix electronic density at each iteration.
	FillingsUpdate:  mu: -0.077622746  nElectrons: 9.000000  magneticMoment: [ Abs: 0.26000  Tot: +0.26000 ]
	FillingsUpdate:  mu: -0.077839407  nElectrons: 9.000000  magneticMoment: [ Abs: 0.26000  Tot: +0.26000 ]
SCF: Cycle:  0   F: -20.168208350573551   dF: -2.407e-04   |Residual|: 1.044e-03   |deigs|: 1.750e-01  t[s]:     27.81
	FillingsUpdate:  mu: -0.077896807  nElectrons: 9.000000  magneticMoment: [ Abs: 0.26130  Tot: +0.26000 ]
SCF: Cycle:  1   F: -20.168217131570998   dF: -8.781e-06   |Residual|: 8.409e-04   |deigs|: 4.309e-03  t[s]:     34.32
	FillingsUpdate:  mu: -0.077965088  nElectrons: 9.000000  magneticMoment: [ Abs: 0.26125  Tot: +0.26000 ]
SCF: Cycle:  2   F: -20.168219954828288   dF: -2.823e-06   |Residual|: 7.045e-04   |deigs|: 1.238e-03  t[s]:     40.91
	FillingsUpdate:  mu: -0.078136122  nElectrons: 9.000000  magneticMoment: [ Abs: 0.26264  Tot: +0.26000 ]
SCF: Cycle:  3   F: -20.168224123011910   dF: -4.168e-06   |Residual|: 4.752e-04   |deigs|: 6.836e-04  t[s]:     47.58
	FillingsUpdate:  mu: -0.078258266  nElectrons: 9.000000  magneticMoment: [ Abs: 0.26208  Tot: +0.26000 ]
SCF: Cycle:  4   F: -20.168227515718378   dF: -3.393e-06   |Residual|: 3.185e-04   |deigs|: 5.455e-04  t[s]:     54.38
	FillingsUpdate:  mu: -0.078365162  nElectrons: 9.000000  magneticMoment: [ Abs: 0.26206  Tot: +0.26000 ]
SCF: Cycle:  5   F: -20.168229922986985   dF: -2.407e-06   |Residual|: 2.082e-04   |deigs|: 4.317e-04  t[s]:     61.26
	FillingsUpdate:  mu: -0.078344934  nElectrons: 9.000000  magneticMoment: [ Abs: 0.26213  Tot: +0.26000 ]
SCF: Cycle:  6   F: -20.168230854010950   dF: -9.310e-07   |Residual|: 1.426e-04   |deigs|: 3.219e-04  t[s]:     68.34
	FillingsUpdate:  mu: -0.078324358  nElectrons: 9.000000  magneticMoment: [ Abs: 0.26189  Tot: +0.26000 ]
SCF: Cycle:  7   F: -20.168231409744667   dF: -5.557e-07   |Residual|: 1.064e-04   |deigs|: 6.647e-04  t[s]:     75.47
	FillingsUpdate:  mu: -0.078293591  nElectrons: 9.000000  magneticMoment: [ Abs: 0.26179  Tot: +0.26000 ]
SCF: Cycle:  8   F: -20.168231717002399   dF: -3.073e-07   |Residual|: 8.634e-05   |deigs|: 4.392e-04  t[s]:     82.78
	FillingsUpdate:  mu: -0.078230503  nElectrons: 9.000000  magneticMoment: [ Abs: 0.26176  Tot: +0.26000 ]
SCF: Cycle:  9   F: -20.168231788938655   dF: -7.194e-08   |Residual|: 7.027e-05   |deigs|: 2.779e-04  t[s]:     90.21
	FillingsUpdate:  mu: -0.078184663  nElectrons: 9.000000  magneticMoment: [ Abs: 0.26195  Tot: +0.26000 ]
SCF: Cycle: 10   F: -20.168231835326747   dF: -4.639e-08   |Residual|: 6.365e-05   |deigs|: 3.639e-04  t[s]:     97.70
	FillingsUpdate:  mu: -0.078138312  nElectrons: 9.000000  magneticMoment: [ Abs: 0.26199  Tot: +0.26000 ]
SCF: Cycle: 11   F: -20.168231807595514   dF: +2.773e-08   |Residual|: 5.951e-05   |deigs|: 3.053e-04  t[s]:    105.23
	FillingsUpdate:  mu: -0.078063497  nElectrons: 9.000000  magneticMoment: [ Abs: 0.26204  Tot: +0.26000 ]
SCF: Cycle: 12   F: -20.168231603303482   dF: +2.043e-07   |Residual|: 5.075e-05   |deigs|: 2.172e-04  t[s]:    112.69
	FillingsUpdate:  mu: -0.077999029  nElectrons: 9.000000  magneticMoment: [ Abs: 0.26207  Tot: +0.26000 ]
SCF: Cycle: 13   F: -20.168231600379869   dF: +2.924e-09   |Residual|: 4.800e-05   |deigs|: 1.312e-04  t[s]:    120.28
	FillingsUpdate:  mu: -0.077949728  nElectrons: 9.000000  magneticMoment: [ Abs: 0.26203  Tot: +0.26000 ]
SCF: Cycle: 14   F: -20.168231757206229   dF: -1.568e-07   |Residual|: 4.246e-05   |deigs|: 7.580e-05  t[s]:    127.77
	FillingsUpdate:  mu: -0.077893301  nElectrons: 9.000000  magneticMoment: [ Abs: 0.26186  Tot: +0.26000 ]
SCF: Cycle: 15   F: -20.168231781413912   dF: -2.421e-08   |Residual|: 3.868e-05   |deigs|: 7.153e-05  t[s]:    135.29
	FillingsUpdate:  mu: -0.077848067  nElectrons: 9.000000  magneticMoment: [ Abs: 0.26181  Tot: +0.26000 ]
SCF: Cycle: 16   F: -20.168231744610093   dF: +3.680e-08   |Residual|: 3.506e-05   |deigs|: 5.392e-05  t[s]:    142.85
	FillingsUpdate:  mu: -0.077834311  nElectrons: 9.000000  magneticMoment: [ Abs: 0.26173  Tot: +0.26000 ]
SCF: Cycle: 17   F: -20.168231887032793   dF: -1.424e-07   |Residual|: 2.685e-05   |deigs|: 2.528e-05  t[s]:    150.28
	FillingsUpdate:  mu: -0.077818942  nElectrons: 9.000000  magneticMoment: [ Abs: 0.26170  Tot: +0.26000 ]
SCF: Cycle: 18   F: -20.168231905043090   dF: -1.801e-08   |Residual|: 2.113e-05   |deigs|: 2.325e-05  t[s]:    157.78
	FillingsUpdate:  mu: -0.077808301  nElectrons: 9.000000  magneticMoment: [ Abs: 0.26170  Tot: +0.26000 ]
SCF: Cycle: 19   F: -20.168231983471237   dF: -7.843e-08   |Residual|: 1.688e-05   |deigs|: 1.449e-05  t[s]:    165.23
	FillingsUpdate:  mu: -0.077802313  nElectrons: 9.000000  magneticMoment: [ Abs: 0.26171  Tot: +0.26000 ]
SCF: Cycle: 20   F: -20.168232022545482   dF: -3.907e-08   |Residual|: 1.218e-05   |deigs|: 1.257e-05  t[s]:    172.67
	FillingsUpdate:  mu: -0.077803178  nElectrons: 9.000000  magneticMoment: [ Abs: 0.26172  Tot: +0.26000 ]
SCF: Cycle: 21   F: -20.168232057070572   dF: -3.453e-08   |Residual|: 8.775e-06   |deigs|: 1.169e-05  t[s]:    180.24
	FillingsUpdate:  mu: -0.077801438  nElectrons: 9.000000  magneticMoment: [ Abs: 0.26173  Tot: +0.26000 ]
SCF: Cycle: 22   F: -20.168232057400772   dF: -3.302e-10   |Residual|: 6.049e-06   |deigs|: 1.224e-05  t[s]:    187.70
	FillingsUpdate:  mu: -0.077800983  nElectrons: 9.000000  magneticMoment: [ Abs: 0.26174  Tot: +0.26000 ]
SCF: Cycle: 23   F: -20.168232064190942   dF: -6.790e-09   |Residual|: 4.355e-06   |deigs|: 1.491e-05  t[s]:    195.20
SCF: Converged (|Delta E|<1.000000e-08 for 2 iters).


# Ionic positions in lattice coordinates:
ion Cs   0.000000000000000   0.000000000000000   0.000000000000000 0

# Forces in Lattice coordinates:
force Cs   0.000000000000000   0.000000000000000   0.000000000000000 0

# Energy components:
   Eewald =       -9.0240130501663280
       EH =        7.0036046653857440
     Eloc =      -23.5875114093239411
      Enl =        3.4364431041536281
   Epulay =        0.0000000422266766
      Exc =       -3.1052973923365066
       KE =        5.1085423969190202
-------------------------------------
     Etot =      -20.1682316431417057
       TS =        0.0000004210492349
-------------------------------------
        F =      -20.1682320641909421

IonicMinimize: Iter:   0  F: -20.168232064190942  |grad|_K:  0.000e+00  t[s]:    195.61
IonicMinimize: Converged (|grad|_K<1.000000e-04).

#--- Lowdin population analysis ---
# oxidation-state Cs +0.006
# magnetic-moments Cs +0.259

End date and time: Sun Feb  6 13:29:10 2022  (Duration: 0-0:03:15.68)
Done!
