
*************** JDFTx 1.6.0 (git hash 42ebbcc2) ***************

Start date and time: Sun Feb  6 13:25:57 2022
Executable jdftx with command-line: -i Alkali.in
Running on hosts (process indices):  d-16-5-2 (0-18)
Divided in process groups (process indices):  0 (0)  1 (1)  2 (2)  3 (3)  4 (4)  5 (5)  6 (6)  7 (7)  8 (8)  9 (9)  10 (10)  11 (11)  12 (12)  13 (13)  14 (14)  15 (15)  16 (16)  17 (17)  18 (18)
Resource initialization completed at t[s]:      0.00
Run totals: 19 processes, 48 threads, 0 GPUs


Input parsed successfully to the following command list (including defaults):

basis kpoint-dependent
coords-type Lattice
core-overlap-check vector
coulomb-interaction Slab 001
davidson-band-ratio 1.1
dump End None
dump-name $INPUT.$VAR
elec-cutoff 20
elec-eigen-algo Davidson
elec-ex-corr gga-PBE
elec-initial-magnetization 0.280000 yes
elec-smearing Fermi 1e-05
electronic-minimize  \
	dirUpdateScheme      FletcherReeves \
	linminMethod         DirUpdateRecommended \
	nIterations          100 \
	history              15 \
	knormThreshold       0 \
	energyDiffThreshold  1e-08 \
	nEnergyDiff          2 \
	alphaTstart          1 \
	alphaTmin            1e-10 \
	updateTestStepSize   yes \
	alphaTreduceFactor   0.1 \
	alphaTincreaseFactor 3 \
	nAlphaAdjustMax      3 \
	wolfeEnergy          0.0001 \
	wolfeGradient        0.9 \
	fdTest               no
electronic-scf  \
	nIterations	10000 \
	energyDiffThreshold	1e-08 \
	residualThreshold	1e-07 \
	mixFraction	0.5 \
	qMetric	0.8 \
	history	10 \
	nEigSteps	2 \
	eigDiffThreshold	1e-08 \
	mixedVariable	Density \
	qKerker	0.8 \
	qKappa	-1 \
	verbose	no \
	mixFractionMag	1.5
exchange-regularization WignerSeitzTruncated
fluid None
fluid-ex-corr (null) lda-PZ
fluid-gummel-loop 10 1.000000e-05
fluid-minimize  \
	dirUpdateScheme      PolakRibiere \
	linminMethod         DirUpdateRecommended \
	nIterations          100 \
	history              15 \
	knormThreshold       0 \
	energyDiffThreshold  0 \
	nEnergyDiff          2 \
	alphaTstart          1 \
	alphaTmin            1e-10 \
	updateTestStepSize   yes \
	alphaTreduceFactor   0.1 \
	alphaTincreaseFactor 3 \
	nAlphaAdjustMax      3 \
	wolfeEnergy          0.0001 \
	wolfeGradient        0.9 \
	fdTest               no
fluid-solvent H2O 55.338 ScalarEOS \
	epsBulk 78.4 \
	pMol 0.92466 \
	epsInf 1.77 \
	Pvap 1.06736e-10 \
	sigmaBulk 4.62e-05 \
	Rvdw 2.61727 \
	Res 1.42 \
	tauNuc 343133 \
	poleEl 15 7 1
forces-output-coords Positions
ion Cs   0.000000000000000   0.000000000000000   0.000000000000000 0
ion-species SG15/$ID_ONCV_PBE.upf
ion-width 0
ionic-minimize  \
	dirUpdateScheme      L-BFGS \
	linminMethod         DirUpdateRecommended \
	nIterations          0 \
	history              15 \
	knormThreshold       0.0001 \
	energyDiffThreshold  1e-06 \
	nEnergyDiff          2 \
	alphaTstart          1 \
	alphaTmin            1e-10 \
	updateTestStepSize   yes \
	alphaTreduceFactor   0.1 \
	alphaTincreaseFactor 3 \
	nAlphaAdjustMax      3 \
	wolfeEnergy          0.0001 \
	wolfeGradient        0.9 \
	fdTest               no
kpoint   0.000000000000   0.000000000000   0.000000000000  1.00000000000000
kpoint-folding 12 12 1 
latt-move-scale 1 1 1
latt-scale 4 4 1 
lattice  \
	   4.727486978767153   -2.363743489383575    0.000000000000000  \
	  -0.000000000000000    4.094123819672498    0.000000000000000  \
	   0.000000000000000    0.000000000000000   40.000000000000000 
lattice-minimize  \
	dirUpdateScheme      L-BFGS \
	linminMethod         DirUpdateRecommended \
	nIterations          0 \
	history              15 \
	knormThreshold       0 \
	energyDiffThreshold  1e-06 \
	nEnergyDiff          2 \
	alphaTstart          1 \
	alphaTmin            1e-10 \
	updateTestStepSize   yes \
	alphaTreduceFactor   0.1 \
	alphaTincreaseFactor 3 \
	nAlphaAdjustMax      3 \
	wolfeEnergy          0.0001 \
	wolfeGradient        0.9 \
	fdTest               no
lcao-params -1 1e-06 1e-05
pcm-variant GLSSA13
spintype z-spin
subspace-rotation-factor 1 yes
symmetries automatic
symmetry-threshold 0.0001



---------- Setting up symmetries ----------

Found 24 point-group symmetries of the bravais lattice
Found 24 space-group symmetries with basis
Applied RMS atom displacement 0 bohrs to make symmetries exact.

---------- Initializing the Grid ----------
R = 
[      18.9099     -9.45497            0  ]
[            0      16.3765            0  ]
[            0            0           40  ]
unit cell volume = 12387.1
G =
[   0.332269   0.191835         -0  ]
[          0   0.383671         -0  ]
[         -0         -0    0.15708  ]
Minimum fftbox size, Smin = [  80  80  164  ]
Chosen fftbox size, S = [  80  80  168  ]

---------- Exchange Correlation functional ----------
Initalized PBE GGA exchange.
Initalized PBE GGA correlation.

---------- Setting up pseudopotentials ----------
Width of ionic core gaussian charges (only for fluid interactions / plotting) set to 0

Reading pseudopotential file '/home/gridsan/aligho/DFT/build-Nov24/pseudopotentials/SG15/Cs_ONCV_PBE.upf':
  'Cs' pseudopotential, 'PBE' functional
  Generated using ONCVPSP code by D. R. Hamann
  Author: Martin Schlipf and Francois Gygi  Date: 150915.
  9 valence electrons, 3 orbitals, 6 projectors, 2414 radial grid points, with lMax = 2
  Transforming local potential to a uniform radial grid of dG=0.02 with 1489 points.
  Transforming nonlocal projectors to a uniform radial grid of dG=0.02 with 432 points.
    5S    l: 0   occupation:  2.0   eigenvalue: -0.982388
    5P    l: 1   occupation:  6.0   eigenvalue: -0.496786
    6S    l: 0   occupation:  1.0   eigenvalue: -0.076670
  Transforming atomic orbitals to a uniform radial grid of dG=0.02 with 432 points.
  Core radius for overlap checks: 2.06 bohrs.
  Reading pulay file /home/gridsan/aligho/DFT/build-Nov24/pseudopotentials/SG15/Cs_ONCV_PBE.pulay ... using dE_dnG = -1.008762e-04 computed for Ecut = 20.

Initialized 1 species with 1 total atoms.

Folded 1 k-points by 12x12x1 to 144 k-points.

---------- Setting up k-points, bands, fillings ----------
Reduced to 19 k-points under symmetry. 
Computing the number of bands and number of electrons
Calculating initial fillings.
nElectrons:   9.000000   nBands: 6   nStates: 38

----- Setting up reduced wavefunction bases (one per k-point) -----
average nbasis = 52924.021 , ideal nbasis = 52918.836

---------- Setting up coulomb interaction ----------
Initialized slab truncation along lattice direction 001

---------- Setting up 2D ewald sum ----------
Optimum gaussian width for ewald sums = 10.498040 bohr.
Real space sums over 289 unit cells with max indices [  8  8  0  ]
Reciprocal space sums over 81 terms with max indices [  4  4  0  ]

---------- Allocating electronic variables ----------
Initializing wave functions:  linear combination of atomic orbitals
Note: number of bands (6) exceeds available atomic orbitals (5)
Cs pseudo-atom occupations:   s ( 2 1 )  p ( 6 )
	FillingsUpdate:  mu: -0.077373744  nElectrons: 9.000000  magneticMoment: [ Abs: 0.28000  Tot: +0.28000 ]
LCAOMinimize: Iter:   0  F: -20.1679827182771838  |grad|_K:  7.288e-06  alpha:  1.000e+00
	FillingsUpdate:  mu: -0.077372242  nElectrons: 9.000000  magneticMoment: [ Abs: 0.28000  Tot: +0.28000 ]
LCAOMinimize: Iter:   1  F: -20.1679827542203718  |grad|_K:  3.629e-08  alpha:  9.894e-01  linmin: -6.093e-03  cgtest:  3.470e-01  t[s]:     15.17
LCAOMinimize: Encountered beta<0, resetting CG.
	FillingsUpdate:  mu: -0.077372242  nElectrons: 9.000000  magneticMoment: [ Abs: 0.28000  Tot: +0.28000 ]
LCAOMinimize: Iter:   2  F: -20.1679827542209473  |grad|_K:  2.714e-08  alpha:  1.748e+00  linmin:  1.678e-02  cgtest: -1.000e+00  t[s]:     19.19
LCAOMinimize: Converged (|Delta F|<1.000000e-06 for 2 iters).


---- Citations for features of the code used in this run ----

   Software package:
      R. Sundararaman, K. Letchworth-Weaver, K.A. Schwarz, D. Gunceler, Y. Ozhabes and T.A. Arias, 'JDFTx: software for joint density-functional theory', SoftwareX 6, 278 (2017)

   gga-PBE exchange-correlation functional:
      J.P. Perdew, K. Burke and M. Ernzerhof, Phys. Rev. Lett. 77, 3865 (1996)

   Pseudopotentials:
      M Schlipf and F Gygi, Comput. Phys. Commun. 196, 36 (2015)

   Truncated Coulomb potentials:
      R. Sundararaman and T.A. Arias, Phys. Rev. B 87, 165122 (2013)

This list may not be complete. Please suggest additional citations or
report any other bugs at https://github.com/shankar1729/jdftx/issues

Initialization completed successfully at t[s]:     19.45


-------- Electronic minimization -----------
Will mix electronic density at each iteration.
	FillingsUpdate:  mu: -0.077372242  nElectrons: 9.000000  magneticMoment: [ Abs: 0.28000  Tot: +0.28000 ]
	FillingsUpdate:  mu: -0.077580407  nElectrons: 9.000000  magneticMoment: [ Abs: 0.28000  Tot: +0.28000 ]
SCF: Cycle:  0   F: -20.168219695313656   dF: -2.369e-04   |Residual|: 1.052e-03   |deigs|: 1.750e-01  t[s]:     27.64
	FillingsUpdate:  mu: -0.077634047  nElectrons: 9.000000  magneticMoment: [ Abs: 0.28139  Tot: +0.28000 ]
SCF: Cycle:  1   F: -20.168228372703222   dF: -8.677e-06   |Residual|: 8.269e-04   |deigs|: 4.324e-03  t[s]:     34.08
	FillingsUpdate:  mu: -0.077698169  nElectrons: 9.000000  magneticMoment: [ Abs: 0.28137  Tot: +0.28000 ]
SCF: Cycle:  2   F: -20.168231180239964   dF: -2.808e-06   |Residual|: 6.921e-04   |deigs|: 1.232e-03  t[s]:     40.70
	FillingsUpdate:  mu: -0.077854325  nElectrons: 9.000000  magneticMoment: [ Abs: 0.28271  Tot: +0.28000 ]
SCF: Cycle:  3   F: -20.168235052712355   dF: -3.872e-06   |Residual|: 4.735e-04   |deigs|: 7.305e-04  t[s]:     47.40
	FillingsUpdate:  mu: -0.077974367  nElectrons: 9.000000  magneticMoment: [ Abs: 0.28222  Tot: +0.28000 ]
SCF: Cycle:  4   F: -20.168238420843903   dF: -3.368e-06   |Residual|: 3.173e-04   |deigs|: 4.792e-04  t[s]:     54.22
	FillingsUpdate:  mu: -0.078076345  nElectrons: 9.000000  magneticMoment: [ Abs: 0.28221  Tot: +0.28000 ]
SCF: Cycle:  5   F: -20.168240758945345   dF: -2.338e-06   |Residual|: 2.057e-04   |deigs|: 4.186e-04  t[s]:     61.11
	FillingsUpdate:  mu: -0.078058328  nElectrons: 9.000000  magneticMoment: [ Abs: 0.28227  Tot: +0.28000 ]
SCF: Cycle:  6   F: -20.168241686541709   dF: -9.276e-07   |Residual|: 1.423e-04   |deigs|: 4.509e-04  t[s]:     68.11
	FillingsUpdate:  mu: -0.078038368  nElectrons: 9.000000  magneticMoment: [ Abs: 0.28203  Tot: +0.28000 ]
SCF: Cycle:  7   F: -20.168242240483707   dF: -5.539e-07   |Residual|: 1.057e-04   |deigs|: 5.452e-04  t[s]:     75.32
	FillingsUpdate:  mu: -0.078006249  nElectrons: 9.000000  magneticMoment: [ Abs: 0.28193  Tot: +0.28000 ]
SCF: Cycle:  8   F: -20.168242557276230   dF: -3.168e-07   |Residual|: 8.540e-05   |deigs|: 5.000e-04  t[s]:     82.60
	FillingsUpdate:  mu: -0.077943593  nElectrons: 9.000000  magneticMoment: [ Abs: 0.28188  Tot: +0.28000 ]
SCF: Cycle:  9   F: -20.168242629870779   dF: -7.259e-08   |Residual|: 6.997e-05   |deigs|: 4.097e-04  t[s]:     89.96
	FillingsUpdate:  mu: -0.077897296  nElectrons: 9.000000  magneticMoment: [ Abs: 0.28208  Tot: +0.28000 ]
SCF: Cycle: 10   F: -20.168242673703833   dF: -4.383e-08   |Residual|: 6.286e-05   |deigs|: 3.221e-04  t[s]:     97.47
	FillingsUpdate:  mu: -0.077851586  nElectrons: 9.000000  magneticMoment: [ Abs: 0.28214  Tot: +0.28000 ]
SCF: Cycle: 11   F: -20.168242646644497   dF: +2.706e-08   |Residual|: 5.911e-05   |deigs|: 2.583e-04  t[s]:    105.07
	FillingsUpdate:  mu: -0.077777876  nElectrons: 9.000000  magneticMoment: [ Abs: 0.28217  Tot: +0.28000 ]
SCF: Cycle: 12   F: -20.168242413866189   dF: +2.328e-07   |Residual|: 5.085e-05   |deigs|: 2.445e-04  t[s]:    112.62
	FillingsUpdate:  mu: -0.077713519  nElectrons: 9.000000  magneticMoment: [ Abs: 0.28222  Tot: +0.28000 ]
SCF: Cycle: 13   F: -20.168242458662295   dF: -4.480e-08   |Residual|: 4.745e-05   |deigs|: 1.463e-04  t[s]:    120.11
	FillingsUpdate:  mu: -0.077664416  nElectrons: 9.000000  magneticMoment: [ Abs: 0.28219  Tot: +0.28000 ]
SCF: Cycle: 14   F: -20.168242611885965   dF: -1.532e-07   |Residual|: 4.199e-05   |deigs|: 8.199e-05  t[s]:    127.62
	FillingsUpdate:  mu: -0.077607956  nElectrons: 9.000000  magneticMoment: [ Abs: 0.28201  Tot: +0.28000 ]
SCF: Cycle: 15   F: -20.168242633310697   dF: -2.142e-08   |Residual|: 3.844e-05   |deigs|: 7.300e-05  t[s]:    135.09
	FillingsUpdate:  mu: -0.077561504  nElectrons: 9.000000  magneticMoment: [ Abs: 0.28195  Tot: +0.28000 ]
SCF: Cycle: 16   F: -20.168242593220540   dF: +4.009e-08   |Residual|: 3.479e-05   |deigs|: 5.594e-05  t[s]:    142.55
	FillingsUpdate:  mu: -0.077548508  nElectrons: 9.000000  magneticMoment: [ Abs: 0.28187  Tot: +0.28000 ]
SCF: Cycle: 17   F: -20.168242738608956   dF: -1.454e-07   |Residual|: 2.663e-05   |deigs|: 2.578e-05  t[s]:    150.10
	FillingsUpdate:  mu: -0.077534005  nElectrons: 9.000000  magneticMoment: [ Abs: 0.28183  Tot: +0.28000 ]
SCF: Cycle: 18   F: -20.168242751873994   dF: -1.327e-08   |Residual|: 2.097e-05   |deigs|: 2.320e-05  t[s]:    157.55
	FillingsUpdate:  mu: -0.077522353  nElectrons: 9.000000  magneticMoment: [ Abs: 0.28183  Tot: +0.28000 ]
SCF: Cycle: 19   F: -20.168242822502034   dF: -7.063e-08   |Residual|: 1.688e-05   |deigs|: 1.536e-05  t[s]:    165.03
	FillingsUpdate:  mu: -0.077515274  nElectrons: 9.000000  magneticMoment: [ Abs: 0.28184  Tot: +0.28000 ]
SCF: Cycle: 20   F: -20.168242864782677   dF: -4.228e-08   |Residual|: 1.218e-05   |deigs|: 1.307e-05  t[s]:    172.54
	FillingsUpdate:  mu: -0.077516907  nElectrons: 9.000000  magneticMoment: [ Abs: 0.28185  Tot: +0.28000 ]
SCF: Cycle: 21   F: -20.168242901325758   dF: -3.654e-08   |Residual|: 8.824e-06   |deigs|: 1.278e-05  t[s]:    179.83
	FillingsUpdate:  mu: -0.077515725  nElectrons: 9.000000  magneticMoment: [ Abs: 0.28186  Tot: +0.28000 ]
SCF: Cycle: 22   F: -20.168242898381468   dF: +2.944e-09   |Residual|: 6.172e-06   |deigs|: 1.317e-05  t[s]:    187.29
	FillingsUpdate:  mu: -0.077515869  nElectrons: 9.000000  magneticMoment: [ Abs: 0.28187  Tot: +0.28000 ]
SCF: Cycle: 23   F: -20.168242907227544   dF: -8.846e-09   |Residual|: 4.318e-06   |deigs|: 1.594e-05  t[s]:    194.72
	FillingsUpdate:  mu: -0.077517044  nElectrons: 9.000000  magneticMoment: [ Abs: 0.28187  Tot: +0.28000 ]
SCF: Cycle: 24   F: -20.168242906192244   dF: +1.035e-09   |Residual|: 3.334e-06   |deigs|: 1.958e-05  t[s]:    201.91
	FillingsUpdate:  mu: -0.077517935  nElectrons: 9.000000  magneticMoment: [ Abs: 0.28186  Tot: +0.28000 ]
SCF: Cycle: 25   F: -20.168242906946023   dF: -7.538e-10   |Residual|: 1.923e-06   |deigs|: 2.286e-05  t[s]:    209.31
	FillingsUpdate:  mu: -0.077519172  nElectrons: 9.000000  magneticMoment: [ Abs: 0.28185  Tot: +0.28000 ]
SCF: Cycle: 26   F: -20.168242910409948   dF: -3.464e-09   |Residual|: 9.876e-07   |deigs|: 2.558e-05  t[s]:    216.48
SCF: Converged (|Delta E|<1.000000e-08 for 2 iters).


# Ionic positions in lattice coordinates:
ion Cs   0.000000000000000   0.000000000000000   0.000000000000000 0

# Forces in Lattice coordinates:
force Cs   0.000000000000000   0.000000000000000   0.000000000000000 0

# Energy components:
   Eewald =       -9.0240130501663280
       EH =        7.0043087569337281
     Eloc =      -23.5883091319138067
      Enl =        3.4364867300968611
   Epulay =        0.0000000422266766
      Exc =       -3.1054134715263881
       KE =        5.1086979574037752
-------------------------------------
     Etot =      -20.1682421669454826
       TS =        0.0000007434644666
-------------------------------------
        F =      -20.1682429104099477

IonicMinimize: Iter:   0  F: -20.168242910409948  |grad|_K:  0.000e+00  t[s]:    216.90
IonicMinimize: Converged (|grad|_K<1.000000e-04).

#--- Lowdin population analysis ---
# oxidation-state Cs +0.006
# magnetic-moments Cs +0.279

End date and time: Sun Feb  6 13:29:34 2022  (Duration: 0-0:03:36.95)
Done!
