
*************** JDFTx 1.6.0 (git hash 42ebbcc2) ***************

Start date and time: Sun Feb  6 13:19:07 2022
Executable jdftx with command-line: -i Alkali.in
Running on hosts (process indices):  d-6-13-4 (0-18)
Divided in process groups (process indices):  0 (0)  1 (1)  2 (2)  3 (3)  4 (4)  5 (5)  6 (6)  7 (7)  8 (8)  9 (9)  10 (10)  11 (11)  12 (12)  13 (13)  14 (14)  15 (15)  16 (16)  17 (17)  18 (18)
Resource initialization completed at t[s]:      0.00
Run totals: 19 processes, 48 threads, 0 GPUs


Input parsed successfully to the following command list (including defaults):

basis kpoint-dependent
coords-type Lattice
core-overlap-check vector
coulomb-interaction Slab 001
davidson-band-ratio 1.1
dump End None
dump-name $INPUT.$VAR
elec-cutoff 20
elec-eigen-algo Davidson
elec-ex-corr gga-PBE
elec-initial-magnetization -0.160000 yes
elec-smearing Fermi 1e-05
electronic-minimize  \
	dirUpdateScheme      FletcherReeves \
	linminMethod         DirUpdateRecommended \
	nIterations          100 \
	history              15 \
	knormThreshold       0 \
	energyDiffThreshold  1e-08 \
	nEnergyDiff          2 \
	alphaTstart          1 \
	alphaTmin            1e-10 \
	updateTestStepSize   yes \
	alphaTreduceFactor   0.1 \
	alphaTincreaseFactor 3 \
	nAlphaAdjustMax      3 \
	wolfeEnergy          0.0001 \
	wolfeGradient        0.9 \
	fdTest               no
electronic-scf  \
	nIterations	10000 \
	energyDiffThreshold	1e-08 \
	residualThreshold	1e-07 \
	mixFraction	0.5 \
	qMetric	0.8 \
	history	10 \
	nEigSteps	2 \
	eigDiffThreshold	1e-08 \
	mixedVariable	Density \
	qKerker	0.8 \
	qKappa	-1 \
	verbose	no \
	mixFractionMag	1.5
exchange-regularization WignerSeitzTruncated
fluid None
fluid-ex-corr (null) lda-PZ
fluid-gummel-loop 10 1.000000e-05
fluid-minimize  \
	dirUpdateScheme      PolakRibiere \
	linminMethod         DirUpdateRecommended \
	nIterations          100 \
	history              15 \
	knormThreshold       0 \
	energyDiffThreshold  0 \
	nEnergyDiff          2 \
	alphaTstart          1 \
	alphaTmin            1e-10 \
	updateTestStepSize   yes \
	alphaTreduceFactor   0.1 \
	alphaTincreaseFactor 3 \
	nAlphaAdjustMax      3 \
	wolfeEnergy          0.0001 \
	wolfeGradient        0.9 \
	fdTest               no
fluid-solvent H2O 55.338 ScalarEOS \
	epsBulk 78.4 \
	pMol 0.92466 \
	epsInf 1.77 \
	Pvap 1.06736e-10 \
	sigmaBulk 4.62e-05 \
	Rvdw 2.61727 \
	Res 1.42 \
	tauNuc 343133 \
	poleEl 15 7 1
forces-output-coords Positions
ion Cs   0.000000000000000   0.000000000000000   0.000000000000000 0
ion-species SG15/$ID_ONCV_PBE.upf
ion-width 0
ionic-minimize  \
	dirUpdateScheme      L-BFGS \
	linminMethod         DirUpdateRecommended \
	nIterations          0 \
	history              15 \
	knormThreshold       0.0001 \
	energyDiffThreshold  1e-06 \
	nEnergyDiff          2 \
	alphaTstart          1 \
	alphaTmin            1e-10 \
	updateTestStepSize   yes \
	alphaTreduceFactor   0.1 \
	alphaTincreaseFactor 3 \
	nAlphaAdjustMax      3 \
	wolfeEnergy          0.0001 \
	wolfeGradient        0.9 \
	fdTest               no
kpoint   0.000000000000   0.000000000000   0.000000000000  1.00000000000000
kpoint-folding 12 12 1 
latt-move-scale 1 1 1
latt-scale 4 4 1 
lattice  \
	   4.727486978767153   -2.363743489383575    0.000000000000000  \
	  -0.000000000000000    4.094123819672498    0.000000000000000  \
	   0.000000000000000    0.000000000000000   40.000000000000000 
lattice-minimize  \
	dirUpdateScheme      L-BFGS \
	linminMethod         DirUpdateRecommended \
	nIterations          0 \
	history              15 \
	knormThreshold       0 \
	energyDiffThreshold  1e-06 \
	nEnergyDiff          2 \
	alphaTstart          1 \
	alphaTmin            1e-10 \
	updateTestStepSize   yes \
	alphaTreduceFactor   0.1 \
	alphaTincreaseFactor 3 \
	nAlphaAdjustMax      3 \
	wolfeEnergy          0.0001 \
	wolfeGradient        0.9 \
	fdTest               no
lcao-params -1 1e-06 1e-05
pcm-variant GLSSA13
spintype z-spin
subspace-rotation-factor 1 yes
symmetries automatic
symmetry-threshold 0.0001



---------- Setting up symmetries ----------

Found 24 point-group symmetries of the bravais lattice
Found 24 space-group symmetries with basis
Applied RMS atom displacement 0 bohrs to make symmetries exact.

---------- Initializing the Grid ----------
R = 
[      18.9099     -9.45497            0  ]
[            0      16.3765            0  ]
[            0            0           40  ]
unit cell volume = 12387.1
G =
[   0.332269   0.191835         -0  ]
[          0   0.383671         -0  ]
[         -0         -0    0.15708  ]
Minimum fftbox size, Smin = [  80  80  164  ]
Chosen fftbox size, S = [  80  80  168  ]

---------- Exchange Correlation functional ----------
Initalized PBE GGA exchange.
Initalized PBE GGA correlation.

---------- Setting up pseudopotentials ----------
Width of ionic core gaussian charges (only for fluid interactions / plotting) set to 0

Reading pseudopotential file '/home/gridsan/aligho/DFT/build-Nov24/pseudopotentials/SG15/Cs_ONCV_PBE.upf':
  'Cs' pseudopotential, 'PBE' functional
  Generated using ONCVPSP code by D. R. Hamann
  Author: Martin Schlipf and Francois Gygi  Date: 150915.
  9 valence electrons, 3 orbitals, 6 projectors, 2414 radial grid points, with lMax = 2
  Transforming local potential to a uniform radial grid of dG=0.02 with 1489 points.
  Transforming nonlocal projectors to a uniform radial grid of dG=0.02 with 432 points.
    5S    l: 0   occupation:  2.0   eigenvalue: -0.982388
    5P    l: 1   occupation:  6.0   eigenvalue: -0.496786
    6S    l: 0   occupation:  1.0   eigenvalue: -0.076670
  Transforming atomic orbitals to a uniform radial grid of dG=0.02 with 432 points.
  Core radius for overlap checks: 2.06 bohrs.
  Reading pulay file /home/gridsan/aligho/DFT/build-Nov24/pseudopotentials/SG15/Cs_ONCV_PBE.pulay ... using dE_dnG = -1.008762e-04 computed for Ecut = 20.

Initialized 1 species with 1 total atoms.

Folded 1 k-points by 12x12x1 to 144 k-points.

---------- Setting up k-points, bands, fillings ----------
Reduced to 19 k-points under symmetry. 
Computing the number of bands and number of electrons
Calculating initial fillings.
nElectrons:   9.000000   nBands: 6   nStates: 38

----- Setting up reduced wavefunction bases (one per k-point) -----
average nbasis = 52924.021 , ideal nbasis = 52918.836

---------- Setting up coulomb interaction ----------
Initialized slab truncation along lattice direction 001

---------- Setting up 2D ewald sum ----------
Optimum gaussian width for ewald sums = 10.498040 bohr.
Real space sums over 289 unit cells with max indices [  8  8  0  ]
Reciprocal space sums over 81 terms with max indices [  4  4  0  ]

---------- Allocating electronic variables ----------
Initializing wave functions:  linear combination of atomic orbitals
Note: number of bands (6) exceeds available atomic orbitals (5)
Cs pseudo-atom occupations:   s ( 2 1 )  p ( 6 )
	FillingsUpdate:  mu: -0.077550131  nElectrons: 9.000000  magneticMoment: [ Abs: 0.16000  Tot: -0.16000 ]
LCAOMinimize: Iter:   0  F: -20.1678860738257875  |grad|_K:  7.682e-06  alpha:  1.000e+00
	FillingsUpdate:  mu: -0.077548560  nElectrons: 9.000000  magneticMoment: [ Abs: 0.16000  Tot: -0.16000 ]
LCAOMinimize: Iter:   1  F: -20.1678861137378753  |grad|_K:  3.792e-08  alpha:  9.889e-01  linmin: -1.388e-02  cgtest:  3.850e-01  t[s]:     15.26
LCAOMinimize: Encountered beta<0, resetting CG.
	FillingsUpdate:  mu: -0.077548560  nElectrons: 9.000000  magneticMoment: [ Abs: 0.16000  Tot: -0.16000 ]
LCAOMinimize: Iter:   2  F: -20.1678861137390335  |grad|_K:  3.382e-10  alpha:  9.916e-01  linmin: -3.100e-02  cgtest:  9.973e-01  t[s]:     19.30
LCAOMinimize: Encountered beta<0, resetting CG.
LCAOMinimize: Converged (|Delta F|<1.000000e-06 for 2 iters).


---- Citations for features of the code used in this run ----

   Software package:
      R. Sundararaman, K. Letchworth-Weaver, K.A. Schwarz, D. Gunceler, Y. Ozhabes and T.A. Arias, 'JDFTx: software for joint density-functional theory', SoftwareX 6, 278 (2017)

   gga-PBE exchange-correlation functional:
      J.P. Perdew, K. Burke and M. Ernzerhof, Phys. Rev. Lett. 77, 3865 (1996)

   Pseudopotentials:
      M Schlipf and F Gygi, Comput. Phys. Commun. 196, 36 (2015)

   Truncated Coulomb potentials:
      R. Sundararaman and T.A. Arias, Phys. Rev. B 87, 165122 (2013)

This list may not be complete. Please suggest additional citations or
report any other bugs at https://github.com/shankar1729/jdftx/issues

Initialization completed successfully at t[s]:     19.57


-------- Electronic minimization -----------
Will mix electronic density at each iteration.
	FillingsUpdate:  mu: -0.077548560  nElectrons: 9.000000  magneticMoment: [ Abs: 0.16000  Tot: -0.16000 ]
	FillingsUpdate:  mu: -0.077787104  nElectrons: 9.000000  magneticMoment: [ Abs: 0.16000  Tot: -0.16000 ]
SCF: Cycle:  0   F: -20.168141129945365   dF: -2.550e-04   |Residual|: 1.008e-03   |deigs|: 1.752e-01  t[s]:     27.79
	FillingsUpdate:  mu: -0.077848836  nElectrons: 9.000000  magneticMoment: [ Abs: 0.16084  Tot: -0.16000 ]
SCF: Cycle:  1   F: -20.168149518514053   dF: -8.389e-06   |Residual|: 8.818e-04   |deigs|: 4.031e-03  t[s]:     34.29
	FillingsUpdate:  mu: -0.077935222  nElectrons: 9.000000  magneticMoment: [ Abs: 0.16070  Tot: -0.16000 ]
SCF: Cycle:  2   F: -20.168152743074483   dF: -3.225e-06   |Residual|: 7.323e-04   |deigs|: 7.713e-04  t[s]:     40.99
	FillingsUpdate:  mu: -0.078159159  nElectrons: 9.000000  magneticMoment: [ Abs: 0.16214  Tot: -0.16000 ]
SCF: Cycle:  3   F: -20.168158228894750   dF: -5.486e-06   |Residual|: 4.699e-04   |deigs|: 8.988e-04  t[s]:     47.73
	FillingsUpdate:  mu: -0.078267497  nElectrons: 9.000000  magneticMoment: [ Abs: 0.16133  Tot: -0.16000 ]
SCF: Cycle:  4   F: -20.168161356859830   dF: -3.128e-06   |Residual|: 3.103e-04   |deigs|: 6.030e-04  t[s]:     54.56
	FillingsUpdate:  mu: -0.078371158  nElectrons: 9.000000  magneticMoment: [ Abs: 0.16137  Tot: -0.16000 ]
SCF: Cycle:  5   F: -20.168163896369606   dF: -2.540e-06   |Residual|: 2.143e-04   |deigs|: 5.761e-04  t[s]:     61.47
	FillingsUpdate:  mu: -0.078348761  nElectrons: 9.000000  magneticMoment: [ Abs: 0.16140  Tot: -0.16000 ]
SCF: Cycle:  6   F: -20.168164838122696   dF: -9.418e-07   |Residual|: 1.449e-04   |deigs|: 6.198e-04  t[s]:     68.55
	FillingsUpdate:  mu: -0.078316911  nElectrons: 9.000000  magneticMoment: [ Abs: 0.16118  Tot: -0.16000 ]
SCF: Cycle:  7   F: -20.168165328758452   dF: -4.906e-07   |Residual|: 1.078e-04   |deigs|: 5.076e-04  t[s]:     75.61
	FillingsUpdate:  mu: -0.078276346  nElectrons: 9.000000  magneticMoment: [ Abs: 0.16105  Tot: -0.16000 ]
SCF: Cycle:  8   F: -20.168165592830800   dF: -2.641e-07   |Residual|: 8.410e-05   |deigs|: 4.643e-04  t[s]:     82.83
	FillingsUpdate:  mu: -0.078217948  nElectrons: 9.000000  magneticMoment: [ Abs: 0.16111  Tot: -0.16000 ]
SCF: Cycle:  9   F: -20.168165644953891   dF: -5.212e-08   |Residual|: 6.851e-05   |deigs|: 3.337e-04  t[s]:     90.23
	FillingsUpdate:  mu: -0.078171303  nElectrons: 9.000000  magneticMoment: [ Abs: 0.16123  Tot: -0.16000 ]
SCF: Cycle: 10   F: -20.168165663374243   dF: -1.842e-08   |Residual|: 6.595e-05   |deigs|: 3.970e-04  t[s]:     97.67
	FillingsUpdate:  mu: -0.078111288  nElectrons: 9.000000  magneticMoment: [ Abs: 0.16124  Tot: -0.16000 ]
SCF: Cycle: 11   F: -20.168165617761748   dF: +4.561e-08   |Residual|: 5.737e-05   |deigs|: 1.420e-04  t[s]:    105.13
	FillingsUpdate:  mu: -0.078039393  nElectrons: 9.000000  magneticMoment: [ Abs: 0.16133  Tot: -0.16000 ]
SCF: Cycle: 12   F: -20.168165548728982   dF: +6.903e-08   |Residual|: 5.102e-05   |deigs|: 1.260e-04  t[s]:    112.67
	FillingsUpdate:  mu: -0.077980209  nElectrons: 9.000000  magneticMoment: [ Abs: 0.16129  Tot: -0.16000 ]
SCF: Cycle: 13   F: -20.168165449242689   dF: +9.949e-08   |Residual|: 4.988e-05   |deigs|: 8.624e-05  t[s]:    120.17
	FillingsUpdate:  mu: -0.077929532  nElectrons: 9.000000  magneticMoment: [ Abs: 0.16124  Tot: -0.16000 ]
SCF: Cycle: 14   F: -20.168165577440892   dF: -1.282e-07   |Residual|: 4.269e-05   |deigs|: 6.943e-05  t[s]:    127.66
	FillingsUpdate:  mu: -0.077871112  nElectrons: 9.000000  magneticMoment: [ Abs: 0.16116  Tot: -0.16000 ]
SCF: Cycle: 15   F: -20.168165595250716   dF: -1.781e-08   |Residual|: 3.952e-05   |deigs|: 8.717e-05  t[s]:    135.21
	FillingsUpdate:  mu: -0.077827079  nElectrons: 9.000000  magneticMoment: [ Abs: 0.16110  Tot: -0.16000 ]
SCF: Cycle: 16   F: -20.168165565455883   dF: +2.979e-08   |Residual|: 3.589e-05   |deigs|: 9.008e-05  t[s]:    142.68
	FillingsUpdate:  mu: -0.077812157  nElectrons: 9.000000  magneticMoment: [ Abs: 0.16106  Tot: -0.16000 ]
SCF: Cycle: 17   F: -20.168165673199294   dF: -1.077e-07   |Residual|: 2.680e-05   |deigs|: 8.457e-05  t[s]:    150.17
	FillingsUpdate:  mu: -0.077798522  nElectrons: 9.000000  magneticMoment: [ Abs: 0.16104  Tot: -0.16000 ]
SCF: Cycle: 18   F: -20.168165729637682   dF: -5.644e-08   |Residual|: 2.158e-05   |deigs|: 6.225e-05  t[s]:    157.64
	FillingsUpdate:  mu: -0.077786672  nElectrons: 9.000000  magneticMoment: [ Abs: 0.16104  Tot: -0.16000 ]
SCF: Cycle: 19   F: -20.168165789089503   dF: -5.945e-08   |Residual|: 1.646e-05   |deigs|: 4.427e-05  t[s]:    165.08
	FillingsUpdate:  mu: -0.077786118  nElectrons: 9.000000  magneticMoment: [ Abs: 0.16105  Tot: -0.16000 ]
SCF: Cycle: 20   F: -20.168165856643693   dF: -6.755e-08   |Residual|: 1.214e-05   |deigs|: 2.747e-05  t[s]:    172.60
	FillingsUpdate:  mu: -0.077785527  nElectrons: 9.000000  magneticMoment: [ Abs: 0.16106  Tot: -0.16000 ]
SCF: Cycle: 21   F: -20.168165861421215   dF: -4.778e-09   |Residual|: 9.467e-06   |deigs|: 1.759e-05  t[s]:    179.87
	FillingsUpdate:  mu: -0.077783622  nElectrons: 9.000000  magneticMoment: [ Abs: 0.16108  Tot: -0.16000 ]
SCF: Cycle: 22   F: -20.168165879320235   dF: -1.790e-08   |Residual|: 5.671e-06   |deigs|: 1.252e-05  t[s]:    187.27
	FillingsUpdate:  mu: -0.077782420  nElectrons: 9.000000  magneticMoment: [ Abs: 0.16108  Tot: -0.16000 ]
SCF: Cycle: 23   F: -20.168165882260709   dF: -2.940e-09   |Residual|: 4.158e-06   |deigs|: 8.665e-06  t[s]:    194.47
	FillingsUpdate:  mu: -0.077781810  nElectrons: 9.000000  magneticMoment: [ Abs: 0.16107  Tot: -0.16000 ]
SCF: Cycle: 24   F: -20.168165882918604   dF: -6.579e-10   |Residual|: 3.317e-06   |deigs|: 8.175e-06  t[s]:    201.92
SCF: Converged (|Delta E|<1.000000e-08 for 2 iters).


# Ionic positions in lattice coordinates:
ion Cs   0.000000000000000   0.000000000000000   0.000000000000000 0

# Forces in Lattice coordinates:
force Cs   0.000000000000000  -0.000000000000000   0.000000000000000 0

# Energy components:
   Eewald =       -9.0240130501663280
       EH =        7.0012269983159738
     Eloc =      -23.5848265954469483
      Enl =        3.4362983690641751
   Epulay =        0.0000000422266766
      Exc =       -3.1048931921115450
       KE =        5.1080419792767042
-------------------------------------
     Etot =      -20.1681654488412860
       TS =        0.0000004340773189
-------------------------------------
        F =      -20.1681658829186041

IonicMinimize: Iter:   0  F: -20.168165882918604  |grad|_K:  0.000e+00  t[s]:    202.34
IonicMinimize: Converged (|grad|_K<1.000000e-04).

#--- Lowdin population analysis ---
# oxidation-state Cs +0.006
# magnetic-moments Cs -0.159

End date and time: Sun Feb  6 13:22:30 2022  (Duration: 0-0:03:22.40)
Done!
