
*************** JDFTx 1.6.0 (git hash 42ebbcc2) ***************

Start date and time: Sun Feb  6 13:24:45 2022
Executable jdftx with command-line: -i Alkali.in
Running on hosts (process indices):  c-16-3-4 (0-18)
Divided in process groups (process indices):  0 (0)  1 (1)  2 (2)  3 (3)  4 (4)  5 (5)  6 (6)  7 (7)  8 (8)  9 (9)  10 (10)  11 (11)  12 (12)  13 (13)  14 (14)  15 (15)  16 (16)  17 (17)  18 (18)
Resource initialization completed at t[s]:      0.00
Run totals: 19 processes, 48 threads, 0 GPUs


Input parsed successfully to the following command list (including defaults):

basis kpoint-dependent
coords-type Lattice
core-overlap-check vector
coulomb-interaction Slab 001
davidson-band-ratio 1.1
dump End None
dump-name $INPUT.$VAR
elec-cutoff 20
elec-eigen-algo Davidson
elec-ex-corr gga-PBE
elec-initial-magnetization -0.080000 yes
elec-smearing Fermi 1e-05
electronic-minimize  \
	dirUpdateScheme      FletcherReeves \
	linminMethod         DirUpdateRecommended \
	nIterations          100 \
	history              15 \
	knormThreshold       0 \
	energyDiffThreshold  1e-08 \
	nEnergyDiff          2 \
	alphaTstart          1 \
	alphaTmin            1e-10 \
	updateTestStepSize   yes \
	alphaTreduceFactor   0.1 \
	alphaTincreaseFactor 3 \
	nAlphaAdjustMax      3 \
	wolfeEnergy          0.0001 \
	wolfeGradient        0.9 \
	fdTest               no
electronic-scf  \
	nIterations	10000 \
	energyDiffThreshold	1e-08 \
	residualThreshold	1e-07 \
	mixFraction	0.5 \
	qMetric	0.8 \
	history	10 \
	nEigSteps	2 \
	eigDiffThreshold	1e-08 \
	mixedVariable	Density \
	qKerker	0.8 \
	qKappa	-1 \
	verbose	no \
	mixFractionMag	1.5
exchange-regularization WignerSeitzTruncated
fluid None
fluid-ex-corr (null) lda-PZ
fluid-gummel-loop 10 1.000000e-05
fluid-minimize  \
	dirUpdateScheme      PolakRibiere \
	linminMethod         DirUpdateRecommended \
	nIterations          100 \
	history              15 \
	knormThreshold       0 \
	energyDiffThreshold  0 \
	nEnergyDiff          2 \
	alphaTstart          1 \
	alphaTmin            1e-10 \
	updateTestStepSize   yes \
	alphaTreduceFactor   0.1 \
	alphaTincreaseFactor 3 \
	nAlphaAdjustMax      3 \
	wolfeEnergy          0.0001 \
	wolfeGradient        0.9 \
	fdTest               no
fluid-solvent H2O 55.338 ScalarEOS \
	epsBulk 78.4 \
	pMol 0.92466 \
	epsInf 1.77 \
	Pvap 1.06736e-10 \
	sigmaBulk 4.62e-05 \
	Rvdw 2.61727 \
	Res 1.42 \
	tauNuc 343133 \
	poleEl 15 7 1
forces-output-coords Positions
ion Cs   0.000000000000000   0.000000000000000   0.000000000000000 0
ion-species SG15/$ID_ONCV_PBE.upf
ion-width 0
ionic-minimize  \
	dirUpdateScheme      L-BFGS \
	linminMethod         DirUpdateRecommended \
	nIterations          0 \
	history              15 \
	knormThreshold       0.0001 \
	energyDiffThreshold  1e-06 \
	nEnergyDiff          2 \
	alphaTstart          1 \
	alphaTmin            1e-10 \
	updateTestStepSize   yes \
	alphaTreduceFactor   0.1 \
	alphaTincreaseFactor 3 \
	nAlphaAdjustMax      3 \
	wolfeEnergy          0.0001 \
	wolfeGradient        0.9 \
	fdTest               no
kpoint   0.000000000000   0.000000000000   0.000000000000  1.00000000000000
kpoint-folding 12 12 1 
latt-move-scale 1 1 1
latt-scale 4 4 1 
lattice  \
	   4.727486978767153   -2.363743489383575    0.000000000000000  \
	  -0.000000000000000    4.094123819672498    0.000000000000000  \
	   0.000000000000000    0.000000000000000   40.000000000000000 
lattice-minimize  \
	dirUpdateScheme      L-BFGS \
	linminMethod         DirUpdateRecommended \
	nIterations          0 \
	history              15 \
	knormThreshold       0 \
	energyDiffThreshold  1e-06 \
	nEnergyDiff          2 \
	alphaTstart          1 \
	alphaTmin            1e-10 \
	updateTestStepSize   yes \
	alphaTreduceFactor   0.1 \
	alphaTincreaseFactor 3 \
	nAlphaAdjustMax      3 \
	wolfeEnergy          0.0001 \
	wolfeGradient        0.9 \
	fdTest               no
lcao-params -1 1e-06 1e-05
pcm-variant GLSSA13
spintype z-spin
subspace-rotation-factor 1 yes
symmetries automatic
symmetry-threshold 0.0001



---------- Setting up symmetries ----------

Found 24 point-group symmetries of the bravais lattice
Found 24 space-group symmetries with basis
Applied RMS atom displacement 0 bohrs to make symmetries exact.

---------- Initializing the Grid ----------
R = 
[      18.9099     -9.45497            0  ]
[            0      16.3765            0  ]
[            0            0           40  ]
unit cell volume = 12387.1
G =
[   0.332269   0.191835         -0  ]
[          0   0.383671         -0  ]
[         -0         -0    0.15708  ]
Minimum fftbox size, Smin = [  80  80  164  ]
Chosen fftbox size, S = [  80  80  168  ]

---------- Exchange Correlation functional ----------
Initalized PBE GGA exchange.
Initalized PBE GGA correlation.

---------- Setting up pseudopotentials ----------
Width of ionic core gaussian charges (only for fluid interactions / plotting) set to 0

Reading pseudopotential file '/home/gridsan/aligho/DFT/build-Nov24/pseudopotentials/SG15/Cs_ONCV_PBE.upf':
  'Cs' pseudopotential, 'PBE' functional
  Generated using ONCVPSP code by D. R. Hamann
  Author: Martin Schlipf and Francois Gygi  Date: 150915.
  9 valence electrons, 3 orbitals, 6 projectors, 2414 radial grid points, with lMax = 2
  Transforming local potential to a uniform radial grid of dG=0.02 with 1489 points.
  Transforming nonlocal projectors to a uniform radial grid of dG=0.02 with 432 points.
    5S    l: 0   occupation:  2.0   eigenvalue: -0.982388
    5P    l: 1   occupation:  6.0   eigenvalue: -0.496786
    6S    l: 0   occupation:  1.0   eigenvalue: -0.076670
  Transforming atomic orbitals to a uniform radial grid of dG=0.02 with 432 points.
  Core radius for overlap checks: 2.06 bohrs.
  Reading pulay file /home/gridsan/aligho/DFT/build-Nov24/pseudopotentials/SG15/Cs_ONCV_PBE.pulay ... using dE_dnG = -1.008762e-04 computed for Ecut = 20.

Initialized 1 species with 1 total atoms.

Folded 1 k-points by 12x12x1 to 144 k-points.

---------- Setting up k-points, bands, fillings ----------
Reduced to 19 k-points under symmetry. 
Computing the number of bands and number of electrons
Calculating initial fillings.
nElectrons:   9.000000   nBands: 6   nStates: 38

----- Setting up reduced wavefunction bases (one per k-point) -----
average nbasis = 52924.021 , ideal nbasis = 52918.836

---------- Setting up coulomb interaction ----------
Initialized slab truncation along lattice direction 001

---------- Setting up 2D ewald sum ----------
Optimum gaussian width for ewald sums = 10.498040 bohr.
Real space sums over 289 unit cells with max indices [  8  8  0  ]
Reciprocal space sums over 81 terms with max indices [  4  4  0  ]

---------- Allocating electronic variables ----------
Initializing wave functions:  linear combination of atomic orbitals
Note: number of bands (6) exceeds available atomic orbitals (5)
Cs pseudo-atom occupations:   s ( 2 1 )  p ( 6 )
	FillingsUpdate:  mu: -0.077217446  nElectrons: 9.000000  magneticMoment: [ Abs: 0.08000  Tot: -0.08000 ]
LCAOMinimize: Iter:   0  F: -20.1678276796956766  |grad|_K:  7.749e-06  alpha:  1.000e+00
	FillingsUpdate:  mu: -0.077215829  nElectrons: 9.000000  magneticMoment: [ Abs: 0.08000  Tot: -0.08000 ]
LCAOMinimize: Iter:   1  F: -20.1678277203111236  |grad|_K:  3.816e-08  alpha:  9.888e-01  linmin: -1.422e-02  cgtest:  3.927e-01  t[s]:     15.21
LCAOMinimize: Encountered beta<0, resetting CG.
	FillingsUpdate:  mu: -0.077215828  nElectrons: 9.000000  magneticMoment: [ Abs: 0.08000  Tot: -0.08000 ]
LCAOMinimize: Iter:   2  F: -20.1678277203120899  |grad|_K:  1.082e-09  alpha:  9.721e-01  linmin: -3.063e-02  cgtest:  9.998e-01  t[s]:     19.32
LCAOMinimize: Encountered beta<0, resetting CG.
LCAOMinimize: Converged (|Delta F|<1.000000e-06 for 2 iters).


---- Citations for features of the code used in this run ----

   Software package:
      R. Sundararaman, K. Letchworth-Weaver, K.A. Schwarz, D. Gunceler, Y. Ozhabes and T.A. Arias, 'JDFTx: software for joint density-functional theory', SoftwareX 6, 278 (2017)

   gga-PBE exchange-correlation functional:
      J.P. Perdew, K. Burke and M. Ernzerhof, Phys. Rev. Lett. 77, 3865 (1996)

   Pseudopotentials:
      M Schlipf and F Gygi, Comput. Phys. Commun. 196, 36 (2015)

   Truncated Coulomb potentials:
      R. Sundararaman and T.A. Arias, Phys. Rev. B 87, 165122 (2013)

This list may not be complete. Please suggest additional citations or
report any other bugs at https://github.com/shankar1729/jdftx/issues

Initialization completed successfully at t[s]:     19.59


-------- Electronic minimization -----------
Will mix electronic density at each iteration.
	FillingsUpdate:  mu: -0.077215828  nElectrons: 9.000000  magneticMoment: [ Abs: 0.08000  Tot: -0.08000 ]
	FillingsUpdate:  mu: -0.077451351  nElectrons: 9.000000  magneticMoment: [ Abs: 0.08000  Tot: -0.08000 ]
SCF: Cycle:  0   F: -20.168088809472710   dF: -2.611e-04   |Residual|: 9.904e-04   |deigs|: 1.755e-01  t[s]:     27.74
	FillingsUpdate:  mu: -0.077514428  nElectrons: 9.000000  magneticMoment: [ Abs: 0.08042  Tot: -0.08000 ]
SCF: Cycle:  1   F: -20.168095905492599   dF: -7.096e-06   |Residual|: 8.892e-04   |deigs|: 3.676e-03  t[s]:     34.21
	FillingsUpdate:  mu: -0.077644815  nElectrons: 9.000000  magneticMoment: [ Abs: 0.08031  Tot: -0.08000 ]
SCF: Cycle:  2   F: -20.168100100432046   dF: -4.195e-06   |Residual|: 6.754e-04   |deigs|: 1.251e-03  t[s]:     40.76
	FillingsUpdate:  mu: -0.077863409  nElectrons: 9.000000  magneticMoment: [ Abs: 0.08148  Tot: -0.08000 ]
SCF: Cycle:  3   F: -20.168106018786112   dF: -5.918e-06   |Residual|: 4.417e-04   |deigs|: 7.487e-04  t[s]:     47.45
	FillingsUpdate:  mu: -0.077963881  nElectrons: 9.000000  magneticMoment: [ Abs: 0.08057  Tot: -0.08000 ]
SCF: Cycle:  4   F: -20.168108952735082   dF: -2.934e-06   |Residual|: 2.786e-04   |deigs|: 7.162e-04  t[s]:     54.19
	FillingsUpdate:  mu: -0.078045281  nElectrons: 9.000000  magneticMoment: [ Abs: 0.08077  Tot: -0.08000 ]
SCF: Cycle:  5   F: -20.168111086466205   dF: -2.134e-06   |Residual|: 2.125e-04   |deigs|: 6.020e-04  t[s]:     61.09
	FillingsUpdate:  mu: -0.078007535  nElectrons: 9.000000  magneticMoment: [ Abs: 0.08077  Tot: -0.08000 ]
SCF: Cycle:  6   F: -20.168112000838683   dF: -9.144e-07   |Residual|: 1.318e-04   |deigs|: 6.260e-04  t[s]:     68.00
	FillingsUpdate:  mu: -0.077971427  nElectrons: 9.000000  magneticMoment: [ Abs: 0.08060  Tot: -0.08000 ]
SCF: Cycle:  7   F: -20.168112373834738   dF: -3.730e-07   |Residual|: 1.084e-04   |deigs|: 4.966e-04  t[s]:     75.21
	FillingsUpdate:  mu: -0.077928887  nElectrons: 9.000000  magneticMoment: [ Abs: 0.08052  Tot: -0.08000 ]
SCF: Cycle:  8   F: -20.168112579927872   dF: -2.061e-07   |Residual|: 7.728e-05   |deigs|: 2.538e-04  t[s]:     82.47
	FillingsUpdate:  mu: -0.077865227  nElectrons: 9.000000  magneticMoment: [ Abs: 0.08063  Tot: -0.08000 ]
SCF: Cycle:  9   F: -20.168112621037793   dF: -4.111e-08   |Residual|: 6.913e-05   |deigs|: 2.551e-04  t[s]:     89.80
	FillingsUpdate:  mu: -0.077821850  nElectrons: 9.000000  magneticMoment: [ Abs: 0.08065  Tot: -0.08000 ]
SCF: Cycle: 10   F: -20.168112652258451   dF: -3.122e-08   |Residual|: 6.395e-05   |deigs|: 1.614e-04  t[s]:     97.19
	FillingsUpdate:  mu: -0.077747623  nElectrons: 9.000000  magneticMoment: [ Abs: 0.08068  Tot: -0.08000 ]
SCF: Cycle: 11   F: -20.168112540241779   dF: +1.120e-07   |Residual|: 5.740e-05   |deigs|: 1.784e-04  t[s]:    104.75
	FillingsUpdate:  mu: -0.077682463  nElectrons: 9.000000  magneticMoment: [ Abs: 0.08073  Tot: -0.08000 ]
SCF: Cycle: 12   F: -20.168112576943741   dF: -3.670e-08   |Residual|: 5.181e-05   |deigs|: 2.234e-04  t[s]:    112.25
	FillingsUpdate:  mu: -0.077626959  nElectrons: 9.000000  magneticMoment: [ Abs: 0.08065  Tot: -0.08000 ]
SCF: Cycle: 13   F: -20.168112539289691   dF: +3.765e-08   |Residual|: 4.884e-05   |deigs|: 1.621e-04  t[s]:    119.73
	FillingsUpdate:  mu: -0.077563822  nElectrons: 9.000000  magneticMoment: [ Abs: 0.08062  Tot: -0.08000 ]
SCF: Cycle: 14   F: -20.168112599720256   dF: -6.043e-08   |Residual|: 4.270e-05   |deigs|: 1.259e-04  t[s]:    127.21
	FillingsUpdate:  mu: -0.077516512  nElectrons: 9.000000  magneticMoment: [ Abs: 0.08063  Tot: -0.08000 ]
SCF: Cycle: 15   F: -20.168112644642946   dF: -4.492e-08   |Residual|: 3.940e-05   |deigs|: 9.266e-05  t[s]:    134.69
	FillingsUpdate:  mu: -0.077485761  nElectrons: 9.000000  magneticMoment: [ Abs: 0.08054  Tot: -0.08000 ]
SCF: Cycle: 16   F: -20.168112665557999   dF: -2.092e-08   |Residual|: 3.285e-05   |deigs|: 5.615e-05  t[s]:    142.17
	FillingsUpdate:  mu: -0.077464427  nElectrons: 9.000000  magneticMoment: [ Abs: 0.08053  Tot: -0.08000 ]
SCF: Cycle: 17   F: -20.168112718968800   dF: -5.341e-08   |Residual|: 2.540e-05   |deigs|: 3.708e-05  t[s]:    149.69
	FillingsUpdate:  mu: -0.077453444  nElectrons: 9.000000  magneticMoment: [ Abs: 0.08052  Tot: -0.08000 ]
SCF: Cycle: 18   F: -20.168112712197253   dF: +6.772e-09   |Residual|: 2.155e-05   |deigs|: 2.412e-05  t[s]:    157.22
	FillingsUpdate:  mu: -0.077445208  nElectrons: 9.000000  magneticMoment: [ Abs: 0.08052  Tot: -0.08000 ]
SCF: Cycle: 19   F: -20.168112732649817   dF: -2.045e-08   |Residual|: 1.586e-05   |deigs|: 2.164e-05  t[s]:    164.72
	FillingsUpdate:  mu: -0.077445140  nElectrons: 9.000000  magneticMoment: [ Abs: 0.08055  Tot: -0.08000 ]
SCF: Cycle: 20   F: -20.168112827085967   dF: -9.444e-08   |Residual|: 1.160e-05   |deigs|: 1.715e-05  t[s]:    172.20
	FillingsUpdate:  mu: -0.077441450  nElectrons: 9.000000  magneticMoment: [ Abs: 0.08054  Tot: -0.08000 ]
SCF: Cycle: 21   F: -20.168112831612138   dF: -4.526e-09   |Residual|: 8.527e-06   |deigs|: 1.719e-05  t[s]:    179.31
	FillingsUpdate:  mu: -0.077438396  nElectrons: 9.000000  magneticMoment: [ Abs: 0.08054  Tot: -0.08000 ]
SCF: Cycle: 22   F: -20.168112844224062   dF: -1.261e-08   |Residual|: 5.743e-06   |deigs|: 1.942e-05  t[s]:    186.77
	FillingsUpdate:  mu: -0.077437083  nElectrons: 9.000000  magneticMoment: [ Abs: 0.08054  Tot: -0.08000 ]
SCF: Cycle: 23   F: -20.168112843781213   dF: +4.428e-10   |Residual|: 4.616e-06   |deigs|: 2.047e-05  t[s]:    193.96
	FillingsUpdate:  mu: -0.077436486  nElectrons: 9.000000  magneticMoment: [ Abs: 0.08053  Tot: -0.08000 ]
SCF: Cycle: 24   F: -20.168112847989157   dF: -4.208e-09   |Residual|: 3.152e-06   |deigs|: 2.170e-05  t[s]:    201.45
	FillingsUpdate:  mu: -0.077437512  nElectrons: 9.000000  magneticMoment: [ Abs: 0.08052  Tot: -0.08000 ]
SCF: Cycle: 25   F: -20.168112848958117   dF: -9.690e-10   |Residual|: 1.531e-06   |deigs|: 2.289e-05  t[s]:    208.90
SCF: Converged (|Delta E|<1.000000e-08 for 2 iters).


# Ionic positions in lattice coordinates:
ion Cs   0.000000000000000   0.000000000000000   0.000000000000000 0

# Forces in Lattice coordinates:
force Cs   0.000000000000000   0.000000000000000   0.000000000000000 0

# Energy components:
   Eewald =       -9.0240130501663280
       EH =        7.0004594459383291
     Eloc =      -23.5839604661870759
      Enl =        3.4362522084671658
   Epulay =        0.0000000422266766
      Exc =       -3.1047442979627169
       KE =        5.1078943993427632
-------------------------------------
     Etot =      -20.1681117183411871
       TS =        0.0000011306169286
-------------------------------------
        F =      -20.1681128489581170

IonicMinimize: Iter:   0  F: -20.168112848958117  |grad|_K:  0.000e+00  t[s]:    209.31
IonicMinimize: Converged (|grad|_K<1.000000e-04).

#--- Lowdin population analysis ---
# oxidation-state Cs +0.006
# magnetic-moments Cs -0.080

End date and time: Sun Feb  6 13:28:14 2022  (Duration: 0-0:03:29.38)
Done!
