
*************** JDFTx 1.6.0 (git hash 42ebbcc2) ***************

Start date and time: Sun Feb  6 13:38:37 2022
Executable jdftx with command-line: -i Alkali.in
Running on hosts (process indices):  d-4-5-2 (0-18)
Divided in process groups (process indices):  0 (0)  1 (1)  2 (2)  3 (3)  4 (4)  5 (5)  6 (6)  7 (7)  8 (8)  9 (9)  10 (10)  11 (11)  12 (12)  13 (13)  14 (14)  15 (15)  16 (16)  17 (17)  18 (18)
Resource initialization completed at t[s]:      0.00
Run totals: 19 processes, 48 threads, 0 GPUs


Input parsed successfully to the following command list (including defaults):

basis kpoint-dependent
coords-type Lattice
core-overlap-check vector
coulomb-interaction Slab 001
davidson-band-ratio 1.1
dump End None
dump-name $INPUT.$VAR
elec-cutoff 20
elec-eigen-algo Davidson
elec-ex-corr gga-PBE
elec-initial-magnetization 0.980000 yes
elec-smearing Fermi 1e-05
electronic-minimize  \
	dirUpdateScheme      FletcherReeves \
	linminMethod         DirUpdateRecommended \
	nIterations          100 \
	history              15 \
	knormThreshold       0 \
	energyDiffThreshold  1e-08 \
	nEnergyDiff          2 \
	alphaTstart          1 \
	alphaTmin            1e-10 \
	updateTestStepSize   yes \
	alphaTreduceFactor   0.1 \
	alphaTincreaseFactor 3 \
	nAlphaAdjustMax      3 \
	wolfeEnergy          0.0001 \
	wolfeGradient        0.9 \
	fdTest               no
electronic-scf  \
	nIterations	10000 \
	energyDiffThreshold	1e-08 \
	residualThreshold	1e-07 \
	mixFraction	0.5 \
	qMetric	0.8 \
	history	10 \
	nEigSteps	2 \
	eigDiffThreshold	1e-08 \
	mixedVariable	Density \
	qKerker	0.8 \
	qKappa	-1 \
	verbose	no \
	mixFractionMag	1.5
exchange-regularization WignerSeitzTruncated
fluid None
fluid-ex-corr (null) lda-PZ
fluid-gummel-loop 10 1.000000e-05
fluid-minimize  \
	dirUpdateScheme      PolakRibiere \
	linminMethod         DirUpdateRecommended \
	nIterations          100 \
	history              15 \
	knormThreshold       0 \
	energyDiffThreshold  0 \
	nEnergyDiff          2 \
	alphaTstart          1 \
	alphaTmin            1e-10 \
	updateTestStepSize   yes \
	alphaTreduceFactor   0.1 \
	alphaTincreaseFactor 3 \
	nAlphaAdjustMax      3 \
	wolfeEnergy          0.0001 \
	wolfeGradient        0.9 \
	fdTest               no
fluid-solvent H2O 55.338 ScalarEOS \
	epsBulk 78.4 \
	pMol 0.92466 \
	epsInf 1.77 \
	Pvap 1.06736e-10 \
	sigmaBulk 4.62e-05 \
	Rvdw 2.61727 \
	Res 1.42 \
	tauNuc 343133 \
	poleEl 15 7 1
forces-output-coords Positions
ion Cs   0.000000000000000   0.000000000000000   0.000000000000000 0
ion-species SG15/$ID_ONCV_PBE.upf
ion-width 0
ionic-minimize  \
	dirUpdateScheme      L-BFGS \
	linminMethod         DirUpdateRecommended \
	nIterations          0 \
	history              15 \
	knormThreshold       0.0001 \
	energyDiffThreshold  1e-06 \
	nEnergyDiff          2 \
	alphaTstart          1 \
	alphaTmin            1e-10 \
	updateTestStepSize   yes \
	alphaTreduceFactor   0.1 \
	alphaTincreaseFactor 3 \
	nAlphaAdjustMax      3 \
	wolfeEnergy          0.0001 \
	wolfeGradient        0.9 \
	fdTest               no
kpoint   0.000000000000   0.000000000000   0.000000000000  1.00000000000000
kpoint-folding 12 12 1 
latt-move-scale 1 1 1
latt-scale 4 4 1 
lattice  \
	   4.727486978767153   -2.363743489383575    0.000000000000000  \
	  -0.000000000000000    4.094123819672498    0.000000000000000  \
	   0.000000000000000    0.000000000000000   40.000000000000000 
lattice-minimize  \
	dirUpdateScheme      L-BFGS \
	linminMethod         DirUpdateRecommended \
	nIterations          0 \
	history              15 \
	knormThreshold       0 \
	energyDiffThreshold  1e-06 \
	nEnergyDiff          2 \
	alphaTstart          1 \
	alphaTmin            1e-10 \
	updateTestStepSize   yes \
	alphaTreduceFactor   0.1 \
	alphaTincreaseFactor 3 \
	nAlphaAdjustMax      3 \
	wolfeEnergy          0.0001 \
	wolfeGradient        0.9 \
	fdTest               no
lcao-params -1 1e-06 1e-05
pcm-variant GLSSA13
spintype z-spin
subspace-rotation-factor 1 yes
symmetries automatic
symmetry-threshold 0.0001



---------- Setting up symmetries ----------

Found 24 point-group symmetries of the bravais lattice
Found 24 space-group symmetries with basis
Applied RMS atom displacement 0 bohrs to make symmetries exact.

---------- Initializing the Grid ----------
R = 
[      18.9099     -9.45497            0  ]
[            0      16.3765            0  ]
[            0            0           40  ]
unit cell volume = 12387.1
G =
[   0.332269   0.191835         -0  ]
[          0   0.383671         -0  ]
[         -0         -0    0.15708  ]
Minimum fftbox size, Smin = [  80  80  164  ]
Chosen fftbox size, S = [  80  80  168  ]

---------- Exchange Correlation functional ----------
Initalized PBE GGA exchange.
Initalized PBE GGA correlation.

---------- Setting up pseudopotentials ----------
Width of ionic core gaussian charges (only for fluid interactions / plotting) set to 0

Reading pseudopotential file '/home/gridsan/aligho/DFT/build-Nov24/pseudopotentials/SG15/Cs_ONCV_PBE.upf':
  'Cs' pseudopotential, 'PBE' functional
  Generated using ONCVPSP code by D. R. Hamann
  Author: Martin Schlipf and Francois Gygi  Date: 150915.
  9 valence electrons, 3 orbitals, 6 projectors, 2414 radial grid points, with lMax = 2
  Transforming local potential to a uniform radial grid of dG=0.02 with 1489 points.
  Transforming nonlocal projectors to a uniform radial grid of dG=0.02 with 432 points.
    5S    l: 0   occupation:  2.0   eigenvalue: -0.982388
    5P    l: 1   occupation:  6.0   eigenvalue: -0.496786
    6S    l: 0   occupation:  1.0   eigenvalue: -0.076670
  Transforming atomic orbitals to a uniform radial grid of dG=0.02 with 432 points.
  Core radius for overlap checks: 2.06 bohrs.
  Reading pulay file /home/gridsan/aligho/DFT/build-Nov24/pseudopotentials/SG15/Cs_ONCV_PBE.pulay ... using dE_dnG = -1.008762e-04 computed for Ecut = 20.

Initialized 1 species with 1 total atoms.

Folded 1 k-points by 12x12x1 to 144 k-points.

---------- Setting up k-points, bands, fillings ----------
Reduced to 19 k-points under symmetry. 
Computing the number of bands and number of electrons
Calculating initial fillings.
nElectrons:   9.000000   nBands: 6   nStates: 38

----- Setting up reduced wavefunction bases (one per k-point) -----
average nbasis = 52924.021 , ideal nbasis = 52918.836

---------- Setting up coulomb interaction ----------
Initialized slab truncation along lattice direction 001

---------- Setting up 2D ewald sum ----------
Optimum gaussian width for ewald sums = 10.498040 bohr.
Real space sums over 289 unit cells with max indices [  8  8  0  ]
Reciprocal space sums over 81 terms with max indices [  4  4  0  ]

---------- Allocating electronic variables ----------
Initializing wave functions:  linear combination of atomic orbitals
Note: number of bands (6) exceeds available atomic orbitals (5)
Cs pseudo-atom occupations:   s ( 2 1 )  p ( 6 )
	FillingsUpdate:  mu: -0.073910082  nElectrons: 9.000000  magneticMoment: [ Abs: 0.98000  Tot: +0.98000 ]
LCAOMinimize: Iter:   0  F: -20.1699441817145697  |grad|_K:  2.594e-07  alpha:  1.000e+00
	FillingsUpdate:  mu: -0.073910034  nElectrons: 9.000000  magneticMoment: [ Abs: 0.98000  Tot: +0.98000 ]
LCAOMinimize: Iter:   1  F: -20.1699441817606839  |grad|_K:  2.522e-09  alpha:  1.006e+00  linmin:  1.194e-02  cgtest: -9.123e-01  t[s]:     15.02
LCAOMinimize: 	Wrong curvature in test step, increasing alphaT to 3.018962e+00.
	FillingsUpdate:  mu: -0.073910035  nElectrons: 9.000000  magneticMoment: [ Abs: 0.98000  Tot: +0.98000 ]
LCAOMinimize: Iter:   2  F: -20.1699441817606981  |grad|_K:  2.322e-09  alpha: -4.909e-02  linmin:  4.424e-04  cgtest:  9.104e-01  t[s]:     19.06
LCAOMinimize: Converged (|Delta F|<1.000000e-06 for 2 iters).


---- Citations for features of the code used in this run ----

   Software package:
      R. Sundararaman, K. Letchworth-Weaver, K.A. Schwarz, D. Gunceler, Y. Ozhabes and T.A. Arias, 'JDFTx: software for joint density-functional theory', SoftwareX 6, 278 (2017)

   gga-PBE exchange-correlation functional:
      J.P. Perdew, K. Burke and M. Ernzerhof, Phys. Rev. Lett. 77, 3865 (1996)

   Pseudopotentials:
      M Schlipf and F Gygi, Comput. Phys. Commun. 196, 36 (2015)

   Truncated Coulomb potentials:
      R. Sundararaman and T.A. Arias, Phys. Rev. B 87, 165122 (2013)

This list may not be complete. Please suggest additional citations or
report any other bugs at https://github.com/shankar1729/jdftx/issues

Initialization completed successfully at t[s]:     19.32


-------- Electronic minimization -----------
Will mix electronic density at each iteration.
	FillingsUpdate:  mu: -0.073910035  nElectrons: 9.000000  magneticMoment: [ Abs: 0.98000  Tot: +0.98000 ]
	FillingsUpdate:  mu: -0.074227452  nElectrons: 9.000000  magneticMoment: [ Abs: 0.98000  Tot: +0.98000 ]
SCF: Cycle:  0   F: -20.170140526848392   dF: -1.963e-04   |Residual|: 2.098e-03   |deigs|: 1.652e-01  t[s]:     27.52
	FillingsUpdate:  mu: -0.074545781  nElectrons: 9.000000  magneticMoment: [ Abs: 0.98679  Tot: +0.98000 ]
SCF: Cycle:  1   F: -20.170147189667844   dF: -6.663e-06   |Residual|: 5.652e-04   |deigs|: 1.272e-02  t[s]:     34.02
	FillingsUpdate:  mu: -0.074405703  nElectrons: 9.000000  magneticMoment: [ Abs: 0.98656  Tot: +0.98000 ]
SCF: Cycle:  2   F: -20.170149131659898   dF: -1.942e-06   |Residual|: 3.278e-04   |deigs|: 1.994e-03  t[s]:     40.58
	FillingsUpdate:  mu: -0.074215653  nElectrons: 9.000000  magneticMoment: [ Abs: 0.98753  Tot: +0.98000 ]
SCF: Cycle:  3   F: -20.170149989236037   dF: -8.576e-07   |Residual|: 2.536e-04   |deigs|: 1.049e-03  t[s]:     47.25
	FillingsUpdate:  mu: -0.073861062  nElectrons: 9.000000  magneticMoment: [ Abs: 0.98758  Tot: +0.98000 ]
SCF: Cycle:  4   F: -20.170149859900938   dF: +1.293e-07   |Residual|: 1.829e-04   |deigs|: 6.797e-04  t[s]:     54.01
	FillingsUpdate:  mu: -0.072939079  nElectrons: 9.000000  magneticMoment: [ Abs: 0.98743  Tot: +0.98000 ]
SCF: Cycle:  5   F: -20.170149815831191   dF: +4.407e-08   |Residual|: 1.265e-04   |deigs|: 9.509e-04  t[s]:     60.85
	FillingsUpdate:  mu: -0.072967911  nElectrons: 9.000000  magneticMoment: [ Abs: 0.98740  Tot: +0.98000 ]
SCF: Cycle:  6   F: -20.170150494509592   dF: -6.787e-07   |Residual|: 1.031e-04   |deigs|: 2.608e-04  t[s]:     67.83
	FillingsUpdate:  mu: -0.073186837  nElectrons: 9.000000  magneticMoment: [ Abs: 0.98735  Tot: +0.98000 ]
SCF: Cycle:  7   F: -20.170151062659926   dF: -5.682e-07   |Residual|: 7.615e-05   |deigs|: 3.033e-04  t[s]:     74.98
	FillingsUpdate:  mu: -0.073124873  nElectrons: 9.000000  magneticMoment: [ Abs: 0.98737  Tot: +0.98000 ]
SCF: Cycle:  8   F: -20.170151408025532   dF: -3.454e-07   |Residual|: 7.199e-05   |deigs|: 1.797e-04  t[s]:     82.21
	FillingsUpdate:  mu: -0.073099782  nElectrons: 9.000000  magneticMoment: [ Abs: 0.98739  Tot: +0.98000 ]
SCF: Cycle:  9   F: -20.170151427062503   dF: -1.904e-08   |Residual|: 6.215e-05   |deigs|: 1.742e-04  t[s]:     89.45
	FillingsUpdate:  mu: -0.073209146  nElectrons: 9.000000  magneticMoment: [ Abs: 0.98762  Tot: +0.98000 ]
SCF: Cycle: 10   F: -20.170151526267610   dF: -9.921e-08   |Residual|: 5.093e-05   |deigs|: 1.737e-04  t[s]:     96.93
	FillingsUpdate:  mu: -0.073232676  nElectrons: 9.000000  magneticMoment: [ Abs: 0.98776  Tot: +0.98000 ]
SCF: Cycle: 11   F: -20.170151463917627   dF: +6.235e-08   |Residual|: 4.146e-05   |deigs|: 1.115e-04  t[s]:    104.36
	FillingsUpdate:  mu: -0.073288689  nElectrons: 9.000000  magneticMoment: [ Abs: 0.98784  Tot: +0.98000 ]
SCF: Cycle: 12   F: -20.170151415040372   dF: +4.888e-08   |Residual|: 3.668e-05   |deigs|: 2.101e-04  t[s]:    111.84
	FillingsUpdate:  mu: -0.073288559  nElectrons: 9.000000  magneticMoment: [ Abs: 0.98765  Tot: +0.98000 ]
SCF: Cycle: 13   F: -20.170151750858615   dF: -3.358e-07   |Residual|: 3.088e-05   |deigs|: 1.006e-04  t[s]:    119.28
	FillingsUpdate:  mu: -0.073225693  nElectrons: 9.000000  magneticMoment: [ Abs: 0.98762  Tot: +0.98000 ]
SCF: Cycle: 14   F: -20.170151826107631   dF: -7.525e-08   |Residual|: 3.001e-05   |deigs|: 1.006e-04  t[s]:    126.47
	FillingsUpdate:  mu: -0.073167176  nElectrons: 9.000000  magneticMoment: [ Abs: 0.98742  Tot: +0.98000 ]
SCF: Cycle: 15   F: -20.170151796853190   dF: +2.925e-08   |Residual|: 2.976e-05   |deigs|: 8.218e-05  t[s]:    133.87
	FillingsUpdate:  mu: -0.073159800  nElectrons: 9.000000  magneticMoment: [ Abs: 0.98741  Tot: +0.98000 ]
SCF: Cycle: 16   F: -20.170151828726816   dF: -3.187e-08   |Residual|: 2.476e-05   |deigs|: 8.932e-05  t[s]:    141.28
	FillingsUpdate:  mu: -0.073140754  nElectrons: 9.000000  magneticMoment: [ Abs: 0.98738  Tot: +0.98000 ]
SCF: Cycle: 17   F: -20.170151871981304   dF: -4.325e-08   |Residual|: 1.789e-05   |deigs|: 5.043e-05  t[s]:    148.68
	FillingsUpdate:  mu: -0.073176877  nElectrons: 9.000000  magneticMoment: [ Abs: 0.98739  Tot: +0.98000 ]
SCF: Cycle: 18   F: -20.170151920125473   dF: -4.814e-08   |Residual|: 1.330e-05   |deigs|: 5.331e-05  t[s]:    156.08
	FillingsUpdate:  mu: -0.073188076  nElectrons: 9.000000  magneticMoment: [ Abs: 0.98743  Tot: +0.98000 ]
SCF: Cycle: 19   F: -20.170151983110557   dF: -6.299e-08   |Residual|: 8.816e-06   |deigs|: 3.686e-05  t[s]:    163.49
	FillingsUpdate:  mu: -0.073199393  nElectrons: 9.000000  magneticMoment: [ Abs: 0.98742  Tot: +0.98000 ]
SCF: Cycle: 20   F: -20.170151990538230   dF: -7.428e-09   |Residual|: 6.564e-06   |deigs|: 2.742e-05  t[s]:    170.71
	FillingsUpdate:  mu: -0.073206204  nElectrons: 9.000000  magneticMoment: [ Abs: 0.98739  Tot: +0.98000 ]
SCF: Cycle: 21   F: -20.170151989915041   dF: +6.232e-10   |Residual|: 4.848e-06   |deigs|: 1.896e-05  t[s]:    178.04
	FillingsUpdate:  mu: -0.073208465  nElectrons: 9.000000  magneticMoment: [ Abs: 0.98739  Tot: +0.98000 ]
SCF: Cycle: 22   F: -20.170151975498680   dF: +1.442e-08   |Residual|: 3.712e-06   |deigs|: 1.071e-05  t[s]:    185.41
	FillingsUpdate:  mu: -0.073206360  nElectrons: 9.000000  magneticMoment: [ Abs: 0.98738  Tot: +0.98000 ]
SCF: Cycle: 23   F: -20.170151999945197   dF: -2.445e-08   |Residual|: 2.397e-06   |deigs|: 9.987e-06  t[s]:    192.75
	FillingsUpdate:  mu: -0.073205233  nElectrons: 9.000000  magneticMoment: [ Abs: 0.98737  Tot: +0.98000 ]
SCF: Cycle: 24   F: -20.170151997861822   dF: +2.083e-09   |Residual|: 1.760e-06   |deigs|: 9.057e-06  t[s]:    199.93
	FillingsUpdate:  mu: -0.073203309  nElectrons: 9.000000  magneticMoment: [ Abs: 0.98736  Tot: +0.98000 ]
SCF: Cycle: 25   F: -20.170152005852714   dF: -7.991e-09   |Residual|: 9.466e-07   |deigs|: 9.783e-06  t[s]:    207.32
	FillingsUpdate:  mu: -0.073202945  nElectrons: 9.000000  magneticMoment: [ Abs: 0.98736  Tot: +0.98000 ]
SCF: Cycle: 26   F: -20.170152007977325   dF: -2.125e-09   |Residual|: 6.948e-07   |deigs|: 8.271e-06  t[s]:    214.45
SCF: Converged (|Delta E|<1.000000e-08 for 2 iters).


# Ionic positions in lattice coordinates:
ion Cs   0.000000000000000   0.000000000000000   0.000000000000000 0

# Forces in Lattice coordinates:
force Cs  -0.000000000000000   0.000000000000000   0.000000000000000 0

# Energy components:
   Eewald =       -9.0240130501663280
       EH =        7.0447510794486625
     Eloc =      -23.6340152424480117
      Enl =        3.4390360594339047
   Epulay =        0.0000000422266766
      Exc =       -3.1136365797457910
       KE =        5.1177258748686576
-------------------------------------
     Etot =      -20.1701518163822264
       TS =        0.0000001915950981
-------------------------------------
        F =      -20.1701520079773253

IonicMinimize: Iter:   0  F: -20.170152007977325  |grad|_K:  0.000e+00  t[s]:    214.86
IonicMinimize: Converged (|grad|_K<1.000000e-04).

#--- Lowdin population analysis ---
# oxidation-state Cs +0.002
# magnetic-moments Cs +0.978

End date and time: Sun Feb  6 13:42:12 2022  (Duration: 0-0:03:34.93)
Done!
