
*************** JDFTx 1.6.0 (git hash 42ebbcc2) ***************

Start date and time: Sun Feb  6 13:12:38 2022
Executable jdftx with command-line: -i Alkali.in
Running on hosts (process indices):  d-3-5-3 (0-18)
Divided in process groups (process indices):  0 (0)  1 (1)  2 (2)  3 (3)  4 (4)  5 (5)  6 (6)  7 (7)  8 (8)  9 (9)  10 (10)  11 (11)  12 (12)  13 (13)  14 (14)  15 (15)  16 (16)  17 (17)  18 (18)
Resource initialization completed at t[s]:      0.00
Run totals: 19 processes, 48 threads, 0 GPUs


Input parsed successfully to the following command list (including defaults):

basis kpoint-dependent
coords-type Lattice
core-overlap-check vector
coulomb-interaction Slab 001
davidson-band-ratio 1.1
dump End None
dump-name $INPUT.$VAR
elec-cutoff 20
elec-eigen-algo Davidson
elec-ex-corr gga-PBE
elec-initial-magnetization -0.960000 yes
elec-smearing Fermi 1e-05
electronic-minimize  \
	dirUpdateScheme      FletcherReeves \
	linminMethod         DirUpdateRecommended \
	nIterations          100 \
	history              15 \
	knormThreshold       0 \
	energyDiffThreshold  1e-08 \
	nEnergyDiff          2 \
	alphaTstart          1 \
	alphaTmin            1e-10 \
	updateTestStepSize   yes \
	alphaTreduceFactor   0.1 \
	alphaTincreaseFactor 3 \
	nAlphaAdjustMax      3 \
	wolfeEnergy          0.0001 \
	wolfeGradient        0.9 \
	fdTest               no
electronic-scf  \
	nIterations	10000 \
	energyDiffThreshold	1e-08 \
	residualThreshold	1e-07 \
	mixFraction	0.5 \
	qMetric	0.8 \
	history	10 \
	nEigSteps	2 \
	eigDiffThreshold	1e-08 \
	mixedVariable	Density \
	qKerker	0.8 \
	qKappa	-1 \
	verbose	no \
	mixFractionMag	1.5
exchange-regularization WignerSeitzTruncated
fluid None
fluid-ex-corr (null) lda-PZ
fluid-gummel-loop 10 1.000000e-05
fluid-minimize  \
	dirUpdateScheme      PolakRibiere \
	linminMethod         DirUpdateRecommended \
	nIterations          100 \
	history              15 \
	knormThreshold       0 \
	energyDiffThreshold  0 \
	nEnergyDiff          2 \
	alphaTstart          1 \
	alphaTmin            1e-10 \
	updateTestStepSize   yes \
	alphaTreduceFactor   0.1 \
	alphaTincreaseFactor 3 \
	nAlphaAdjustMax      3 \
	wolfeEnergy          0.0001 \
	wolfeGradient        0.9 \
	fdTest               no
fluid-solvent H2O 55.338 ScalarEOS \
	epsBulk 78.4 \
	pMol 0.92466 \
	epsInf 1.77 \
	Pvap 1.06736e-10 \
	sigmaBulk 4.62e-05 \
	Rvdw 2.61727 \
	Res 1.42 \
	tauNuc 343133 \
	poleEl 15 7 1
forces-output-coords Positions
ion Cs   0.000000000000000   0.000000000000000   0.000000000000000 0
ion-species SG15/$ID_ONCV_PBE.upf
ion-width 0
ionic-minimize  \
	dirUpdateScheme      L-BFGS \
	linminMethod         DirUpdateRecommended \
	nIterations          0 \
	history              15 \
	knormThreshold       0.0001 \
	energyDiffThreshold  1e-06 \
	nEnergyDiff          2 \
	alphaTstart          1 \
	alphaTmin            1e-10 \
	updateTestStepSize   yes \
	alphaTreduceFactor   0.1 \
	alphaTincreaseFactor 3 \
	nAlphaAdjustMax      3 \
	wolfeEnergy          0.0001 \
	wolfeGradient        0.9 \
	fdTest               no
kpoint   0.000000000000   0.000000000000   0.000000000000  1.00000000000000
kpoint-folding 12 12 1 
latt-move-scale 1 1 1
latt-scale 4 4 1 
lattice  \
	   4.727486978767153   -2.363743489383575    0.000000000000000  \
	  -0.000000000000000    4.094123819672498    0.000000000000000  \
	   0.000000000000000    0.000000000000000   40.000000000000000 
lattice-minimize  \
	dirUpdateScheme      L-BFGS \
	linminMethod         DirUpdateRecommended \
	nIterations          0 \
	history              15 \
	knormThreshold       0 \
	energyDiffThreshold  1e-06 \
	nEnergyDiff          2 \
	alphaTstart          1 \
	alphaTmin            1e-10 \
	updateTestStepSize   yes \
	alphaTreduceFactor   0.1 \
	alphaTincreaseFactor 3 \
	nAlphaAdjustMax      3 \
	wolfeEnergy          0.0001 \
	wolfeGradient        0.9 \
	fdTest               no
lcao-params -1 1e-06 1e-05
pcm-variant GLSSA13
spintype z-spin
subspace-rotation-factor 1 yes
symmetries automatic
symmetry-threshold 0.0001



---------- Setting up symmetries ----------

Found 24 point-group symmetries of the bravais lattice
Found 24 space-group symmetries with basis
Applied RMS atom displacement 0 bohrs to make symmetries exact.

---------- Initializing the Grid ----------
R = 
[      18.9099     -9.45497            0  ]
[            0      16.3765            0  ]
[            0            0           40  ]
unit cell volume = 12387.1
G =
[   0.332269   0.191835         -0  ]
[          0   0.383671         -0  ]
[         -0         -0    0.15708  ]
Minimum fftbox size, Smin = [  80  80  164  ]
Chosen fftbox size, S = [  80  80  168  ]

---------- Exchange Correlation functional ----------
Initalized PBE GGA exchange.
Initalized PBE GGA correlation.

---------- Setting up pseudopotentials ----------
Width of ionic core gaussian charges (only for fluid interactions / plotting) set to 0

Reading pseudopotential file '/home/gridsan/aligho/DFT/build-Nov24/pseudopotentials/SG15/Cs_ONCV_PBE.upf':
  'Cs' pseudopotential, 'PBE' functional
  Generated using ONCVPSP code by D. R. Hamann
  Author: Martin Schlipf and Francois Gygi  Date: 150915.
  9 valence electrons, 3 orbitals, 6 projectors, 2414 radial grid points, with lMax = 2
  Transforming local potential to a uniform radial grid of dG=0.02 with 1489 points.
  Transforming nonlocal projectors to a uniform radial grid of dG=0.02 with 432 points.
    5S    l: 0   occupation:  2.0   eigenvalue: -0.982388
    5P    l: 1   occupation:  6.0   eigenvalue: -0.496786
    6S    l: 0   occupation:  1.0   eigenvalue: -0.076670
  Transforming atomic orbitals to a uniform radial grid of dG=0.02 with 432 points.
  Core radius for overlap checks: 2.06 bohrs.
  Reading pulay file /home/gridsan/aligho/DFT/build-Nov24/pseudopotentials/SG15/Cs_ONCV_PBE.pulay ... using dE_dnG = -1.008762e-04 computed for Ecut = 20.

Initialized 1 species with 1 total atoms.

Folded 1 k-points by 12x12x1 to 144 k-points.

---------- Setting up k-points, bands, fillings ----------
Reduced to 19 k-points under symmetry. 
Computing the number of bands and number of electrons
Calculating initial fillings.
nElectrons:   9.000000   nBands: 6   nStates: 38

----- Setting up reduced wavefunction bases (one per k-point) -----
average nbasis = 52924.021 , ideal nbasis = 52918.836

---------- Setting up coulomb interaction ----------
Initialized slab truncation along lattice direction 001

---------- Setting up 2D ewald sum ----------
Optimum gaussian width for ewald sums = 10.498040 bohr.
Real space sums over 289 unit cells with max indices [  8  8  0  ]
Reciprocal space sums over 81 terms with max indices [  4  4  0  ]

---------- Allocating electronic variables ----------
Initializing wave functions:  linear combination of atomic orbitals
Note: number of bands (6) exceeds available atomic orbitals (5)
Cs pseudo-atom occupations:   s ( 2 1 )  p ( 6 )
	FillingsUpdate:  mu: -0.075175095  nElectrons: 9.000000  magneticMoment: [ Abs: 0.96000  Tot: -0.96000 ]
LCAOMinimize: Iter:   0  F: -20.1698079225004179  |grad|_K:  6.594e-07  alpha:  1.000e+00
	FillingsUpdate:  mu: -0.075174982  nElectrons: 9.000000  magneticMoment: [ Abs: 0.96000  Tot: -0.96000 ]
LCAOMinimize: Iter:   1  F: -20.1698079227971547  |grad|_K:  2.943e-09  alpha:  9.975e-01  linmin:  1.138e-02  cgtest: -2.554e-01  t[s]:     15.14
LCAOMinimize: 	Wrong curvature in test step, increasing alphaT to 2.992385e+00.
	FillingsUpdate:  mu: -0.075174982  nElectrons: 9.000000  magneticMoment: [ Abs: 0.96000  Tot: -0.96000 ]
LCAOMinimize: Iter:   2  F: -20.1698079227972258  |grad|_K:  7.529e-10  alpha: -9.114e-02  linmin:  4.773e-04  cgtest:  2.472e-01  t[s]:     19.10
LCAOMinimize: Converged (|Delta F|<1.000000e-06 for 2 iters).


---- Citations for features of the code used in this run ----

   Software package:
      R. Sundararaman, K. Letchworth-Weaver, K.A. Schwarz, D. Gunceler, Y. Ozhabes and T.A. Arias, 'JDFTx: software for joint density-functional theory', SoftwareX 6, 278 (2017)

   gga-PBE exchange-correlation functional:
      J.P. Perdew, K. Burke and M. Ernzerhof, Phys. Rev. Lett. 77, 3865 (1996)

   Pseudopotentials:
      M Schlipf and F Gygi, Comput. Phys. Commun. 196, 36 (2015)

   Truncated Coulomb potentials:
      R. Sundararaman and T.A. Arias, Phys. Rev. B 87, 165122 (2013)

This list may not be complete. Please suggest additional citations or
report any other bugs at https://github.com/shankar1729/jdftx/issues

Initialization completed successfully at t[s]:     19.36


-------- Electronic minimization -----------
Will mix electronic density at each iteration.
	FillingsUpdate:  mu: -0.075174982  nElectrons: 9.000000  magneticMoment: [ Abs: 0.96000  Tot: -0.96000 ]
	FillingsUpdate:  mu: -0.075412263  nElectrons: 9.000000  magneticMoment: [ Abs: 0.96000  Tot: -0.96000 ]
SCF: Cycle:  0   F: -20.170000054802891   dF: -1.921e-04   |Residual|: 2.031e-03   |deigs|: 1.665e-01  t[s]:     27.52
	FillingsUpdate:  mu: -0.075546839  nElectrons: 9.000000  magneticMoment: [ Abs: 0.96647  Tot: -0.96000 ]
SCF: Cycle:  1   F: -20.170006768306088   dF: -6.714e-06   |Residual|: 5.480e-04   |deigs|: 1.171e-02  t[s]:     33.94
	FillingsUpdate:  mu: -0.075429454  nElectrons: 9.000000  magneticMoment: [ Abs: 0.96630  Tot: -0.96000 ]
SCF: Cycle:  2   F: -20.170008720423215   dF: -1.952e-06   |Residual|: 3.161e-04   |deigs|: 1.422e-03  t[s]:     40.51
	FillingsUpdate:  mu: -0.075299456  nElectrons: 9.000000  magneticMoment: [ Abs: 0.96724  Tot: -0.96000 ]
SCF: Cycle:  3   F: -20.170009623830786   dF: -9.034e-07   |Residual|: 2.459e-04   |deigs|: 9.285e-04  t[s]:     47.10
	FillingsUpdate:  mu: -0.075099369  nElectrons: 9.000000  magneticMoment: [ Abs: 0.96730  Tot: -0.96000 ]
SCF: Cycle:  4   F: -20.170010172377086   dF: -5.485e-07   |Residual|: 1.819e-04   |deigs|: 5.557e-04  t[s]:     53.86
	FillingsUpdate:  mu: -0.074882760  nElectrons: 9.000000  magneticMoment: [ Abs: 0.96719  Tot: -0.96000 ]
SCF: Cycle:  5   F: -20.170010236426140   dF: -6.405e-08   |Residual|: 1.266e-04   |deigs|: 3.911e-04  t[s]:     60.75
	FillingsUpdate:  mu: -0.074762082  nElectrons: 9.000000  magneticMoment: [ Abs: 0.96716  Tot: -0.96000 ]
SCF: Cycle:  6   F: -20.170010576577454   dF: -3.402e-07   |Residual|: 1.021e-04   |deigs|: 3.850e-04  t[s]:     67.68
	FillingsUpdate:  mu: -0.074770213  nElectrons: 9.000000  magneticMoment: [ Abs: 0.96707  Tot: -0.96000 ]
SCF: Cycle:  7   F: -20.170011000030712   dF: -4.235e-07   |Residual|: 7.821e-05   |deigs|: 4.612e-04  t[s]:     74.77
	FillingsUpdate:  mu: -0.074667811  nElectrons: 9.000000  magneticMoment: [ Abs: 0.96712  Tot: -0.96000 ]
SCF: Cycle:  8   F: -20.170010929459927   dF: +7.057e-08   |Residual|: 7.153e-05   |deigs|: 1.971e-04  t[s]:     82.01
	FillingsUpdate:  mu: -0.074632158  nElectrons: 9.000000  magneticMoment: [ Abs: 0.96713  Tot: -0.96000 ]
SCF: Cycle:  9   F: -20.170011225231683   dF: -2.958e-07   |Residual|: 6.231e-05   |deigs|: 9.013e-05  t[s]:     89.33
	FillingsUpdate:  mu: -0.074612606  nElectrons: 9.000000  magneticMoment: [ Abs: 0.96728  Tot: -0.96000 ]
SCF: Cycle: 10   F: -20.170011026979065   dF: +1.983e-07   |Residual|: 5.133e-05   |deigs|: 1.534e-04  t[s]:     96.72
	FillingsUpdate:  mu: -0.074597729  nElectrons: 9.000000  magneticMoment: [ Abs: 0.96750  Tot: -0.96000 ]
SCF: Cycle: 11   F: -20.170010922333070   dF: +1.046e-07   |Residual|: 4.203e-05   |deigs|: 5.416e-05  t[s]:    104.15
	FillingsUpdate:  mu: -0.074596648  nElectrons: 9.000000  magneticMoment: [ Abs: 0.96758  Tot: -0.96000 ]
SCF: Cycle: 12   F: -20.170010726672920   dF: +1.957e-07   |Residual|: 3.671e-05   |deigs|: 1.198e-04  t[s]:    111.62
	FillingsUpdate:  mu: -0.074584493  nElectrons: 9.000000  magneticMoment: [ Abs: 0.96739  Tot: -0.96000 ]
SCF: Cycle: 13   F: -20.170011126259361   dF: -3.996e-07   |Residual|: 3.248e-05   |deigs|: 9.260e-05  t[s]:    119.02
	FillingsUpdate:  mu: -0.074542681  nElectrons: 9.000000  magneticMoment: [ Abs: 0.96740  Tot: -0.96000 ]
SCF: Cycle: 14   F: -20.170011236706642   dF: -1.104e-07   |Residual|: 3.101e-05   |deigs|: 8.601e-05  t[s]:    126.42
	FillingsUpdate:  mu: -0.074487437  nElectrons: 9.000000  magneticMoment: [ Abs: 0.96724  Tot: -0.96000 ]
SCF: Cycle: 15   F: -20.170011238758349   dF: -2.052e-09   |Residual|: 3.116e-05   |deigs|: 8.617e-05  t[s]:    133.85
	FillingsUpdate:  mu: -0.074470845  nElectrons: 9.000000  magneticMoment: [ Abs: 0.96714  Tot: -0.96000 ]
SCF: Cycle: 16   F: -20.170011216992318   dF: +2.177e-08   |Residual|: 2.730e-05   |deigs|: 7.383e-05  t[s]:    141.25
	FillingsUpdate:  mu: -0.074468446  nElectrons: 9.000000  magneticMoment: [ Abs: 0.96712  Tot: -0.96000 ]
SCF: Cycle: 17   F: -20.170011364082836   dF: -1.471e-07   |Residual|: 2.032e-05   |deigs|: 5.737e-05  t[s]:    148.73
	FillingsUpdate:  mu: -0.074474763  nElectrons: 9.000000  magneticMoment: [ Abs: 0.96713  Tot: -0.96000 ]
SCF: Cycle: 18   F: -20.170011432741532   dF: -6.866e-08   |Residual|: 1.457e-05   |deigs|: 4.958e-05  t[s]:    156.04
	FillingsUpdate:  mu: -0.074467005  nElectrons: 9.000000  magneticMoment: [ Abs: 0.96715  Tot: -0.96000 ]
SCF: Cycle: 19   F: -20.170011583213419   dF: -1.505e-07   |Residual|: 7.515e-06   |deigs|: 3.263e-05  t[s]:    163.47
	FillingsUpdate:  mu: -0.074470999  nElectrons: 9.000000  magneticMoment: [ Abs: 0.96715  Tot: -0.96000 ]
SCF: Cycle: 20   F: -20.170011592926755   dF: -9.713e-09   |Residual|: 5.674e-06   |deigs|: 2.254e-05  t[s]:    170.64
	FillingsUpdate:  mu: -0.074475335  nElectrons: 9.000000  magneticMoment: [ Abs: 0.96714  Tot: -0.96000 ]
SCF: Cycle: 21   F: -20.170011580546696   dF: +1.238e-08   |Residual|: 4.946e-06   |deigs|: 1.820e-05  t[s]:    178.08
	FillingsUpdate:  mu: -0.074478045  nElectrons: 9.000000  magneticMoment: [ Abs: 0.96714  Tot: -0.96000 ]
SCF: Cycle: 22   F: -20.170011596420480   dF: -1.587e-08   |Residual|: 3.639e-06   |deigs|: 1.628e-05  t[s]:    185.42
	FillingsUpdate:  mu: -0.074477266  nElectrons: 9.000000  magneticMoment: [ Abs: 0.96713  Tot: -0.96000 ]
SCF: Cycle: 23   F: -20.170011596913550   dF: -4.931e-10   |Residual|: 2.768e-06   |deigs|: 1.263e-05  t[s]:    192.79
	FillingsUpdate:  mu: -0.074475695  nElectrons: 9.000000  magneticMoment: [ Abs: 0.96712  Tot: -0.96000 ]
SCF: Cycle: 24   F: -20.170011589266203   dF: +7.647e-09   |Residual|: 2.023e-06   |deigs|: 1.149e-05  t[s]:    200.20
	FillingsUpdate:  mu: -0.074473110  nElectrons: 9.000000  magneticMoment: [ Abs: 0.96711  Tot: -0.96000 ]
SCF: Cycle: 25   F: -20.170011604769382   dF: -1.550e-08   |Residual|: 1.159e-06   |deigs|: 1.079e-05  t[s]:    207.69
	FillingsUpdate:  mu: -0.074472956  nElectrons: 9.000000  magneticMoment: [ Abs: 0.96711  Tot: -0.96000 ]
SCF: Cycle: 26   F: -20.170011605004134   dF: -2.348e-10   |Residual|: 9.876e-07   |deigs|: 9.941e-06  t[s]:    214.66
	FillingsUpdate:  mu: -0.074473336  nElectrons: 9.000000  magneticMoment: [ Abs: 0.96711  Tot: -0.96000 ]
SCF: Cycle: 27   F: -20.170011603288103   dF: +1.716e-09   |Residual|: 8.731e-07   |deigs|: 9.610e-06  t[s]:    222.03
	FillingsUpdate:  mu: -0.074473713  nElectrons: 9.000000  magneticMoment: [ Abs: 0.96711  Tot: -0.96000 ]
SCF: Cycle: 28   F: -20.170011606681847   dF: -3.394e-09   |Residual|: 5.833e-07   |deigs|: 8.711e-06  t[s]:    229.06
	FillingsUpdate:  mu: -0.074474470  nElectrons: 9.000000  magneticMoment: [ Abs: 0.96711  Tot: -0.96000 ]
SCF: Cycle: 29   F: -20.170011606645033   dF: +3.681e-11   |Residual|: 4.441e-07   |deigs|: 7.785e-06  t[s]:    236.18
	FillingsUpdate:  mu: -0.074474872  nElectrons: 9.000000  magneticMoment: [ Abs: 0.96711  Tot: -0.96000 ]
SCF: Cycle: 30   F: -20.170011606691663   dF: -4.663e-11   |Residual|: 3.735e-07   |deigs|: 7.126e-06  t[s]:    243.09
	FillingsUpdate:  mu: -0.074475121  nElectrons: 9.000000  magneticMoment: [ Abs: 0.96711  Tot: -0.96000 ]
SCF: Cycle: 31   F: -20.170011607316312   dF: -6.246e-10   |Residual|: 2.802e-07   |deigs|: 6.553e-06  t[s]:    250.10
SCF: Converged (|Delta E|<1.000000e-08 for 2 iters).


# Ionic positions in lattice coordinates:
ion Cs   0.000000000000000   0.000000000000000   0.000000000000000 0

# Forces in Lattice coordinates:
force Cs   0.000000000000000   0.000000000000000   0.000000000000000 0

# Energy components:
   Eewald =       -9.0240130501663280
       EH =        7.0432731943595872
     Eloc =      -23.6323152712473110
      Enl =        3.4389396271597210
   Epulay =        0.0000000422266766
      Exc =       -3.1132350986853292
       KE =        5.1173394265767023
-------------------------------------
     Etot =      -20.1700111297762845
       TS =        0.0000004775400274
-------------------------------------
        F =      -20.1700116073163116

IonicMinimize: Iter:   0  F: -20.170011607316312  |grad|_K:  0.000e+00  t[s]:    250.51
IonicMinimize: Converged (|grad|_K<1.000000e-04).

#--- Lowdin population analysis ---
# oxidation-state Cs +0.002
# magnetic-moments Cs -0.958

End date and time: Sun Feb  6 13:16:49 2022  (Duration: 0-0:04:10.58)
Done!
