
*************** JDFTx 1.6.0 (git hash 42ebbcc2) ***************

Start date and time: Sun Feb  6 13:12:19 2022
Executable jdftx with command-line: -i Alkali.in
Running on hosts (process indices):  d-6-8-2 (0-18)
Divided in process groups (process indices):  0 (0)  1 (1)  2 (2)  3 (3)  4 (4)  5 (5)  6 (6)  7 (7)  8 (8)  9 (9)  10 (10)  11 (11)  12 (12)  13 (13)  14 (14)  15 (15)  16 (16)  17 (17)  18 (18)
Resource initialization completed at t[s]:      0.00
Run totals: 19 processes, 48 threads, 0 GPUs


Input parsed successfully to the following command list (including defaults):

basis kpoint-dependent
coords-type Lattice
core-overlap-check vector
coulomb-interaction Slab 001
davidson-band-ratio 1.1
dump End None
dump-name $INPUT.$VAR
elec-cutoff 20
elec-eigen-algo Davidson
elec-ex-corr gga-PBE
elec-initial-magnetization -0.740000 yes
elec-smearing Fermi 1e-05
electronic-minimize  \
	dirUpdateScheme      FletcherReeves \
	linminMethod         DirUpdateRecommended \
	nIterations          100 \
	history              15 \
	knormThreshold       0 \
	energyDiffThreshold  1e-08 \
	nEnergyDiff          2 \
	alphaTstart          1 \
	alphaTmin            1e-10 \
	updateTestStepSize   yes \
	alphaTreduceFactor   0.1 \
	alphaTincreaseFactor 3 \
	nAlphaAdjustMax      3 \
	wolfeEnergy          0.0001 \
	wolfeGradient        0.9 \
	fdTest               no
electronic-scf  \
	nIterations	10000 \
	energyDiffThreshold	1e-08 \
	residualThreshold	1e-07 \
	mixFraction	0.5 \
	qMetric	0.8 \
	history	10 \
	nEigSteps	2 \
	eigDiffThreshold	1e-08 \
	mixedVariable	Density \
	qKerker	0.8 \
	qKappa	-1 \
	verbose	no \
	mixFractionMag	1.5
exchange-regularization WignerSeitzTruncated
fluid None
fluid-ex-corr (null) lda-PZ
fluid-gummel-loop 10 1.000000e-05
fluid-minimize  \
	dirUpdateScheme      PolakRibiere \
	linminMethod         DirUpdateRecommended \
	nIterations          100 \
	history              15 \
	knormThreshold       0 \
	energyDiffThreshold  0 \
	nEnergyDiff          2 \
	alphaTstart          1 \
	alphaTmin            1e-10 \
	updateTestStepSize   yes \
	alphaTreduceFactor   0.1 \
	alphaTincreaseFactor 3 \
	nAlphaAdjustMax      3 \
	wolfeEnergy          0.0001 \
	wolfeGradient        0.9 \
	fdTest               no
fluid-solvent H2O 55.338 ScalarEOS \
	epsBulk 78.4 \
	pMol 0.92466 \
	epsInf 1.77 \
	Pvap 1.06736e-10 \
	sigmaBulk 4.62e-05 \
	Rvdw 2.61727 \
	Res 1.42 \
	tauNuc 343133 \
	poleEl 15 7 1
forces-output-coords Positions
ion Cs   0.000000000000000   0.000000000000000   0.000000000000000 0
ion-species SG15/$ID_ONCV_PBE.upf
ion-width 0
ionic-minimize  \
	dirUpdateScheme      L-BFGS \
	linminMethod         DirUpdateRecommended \
	nIterations          0 \
	history              15 \
	knormThreshold       0.0001 \
	energyDiffThreshold  1e-06 \
	nEnergyDiff          2 \
	alphaTstart          1 \
	alphaTmin            1e-10 \
	updateTestStepSize   yes \
	alphaTreduceFactor   0.1 \
	alphaTincreaseFactor 3 \
	nAlphaAdjustMax      3 \
	wolfeEnergy          0.0001 \
	wolfeGradient        0.9 \
	fdTest               no
kpoint   0.000000000000   0.000000000000   0.000000000000  1.00000000000000
kpoint-folding 12 12 1 
latt-move-scale 1 1 1
latt-scale 4 4 1 
lattice  \
	   4.727486978767153   -2.363743489383575    0.000000000000000  \
	  -0.000000000000000    4.094123819672498    0.000000000000000  \
	   0.000000000000000    0.000000000000000   40.000000000000000 
lattice-minimize  \
	dirUpdateScheme      L-BFGS \
	linminMethod         DirUpdateRecommended \
	nIterations          0 \
	history              15 \
	knormThreshold       0 \
	energyDiffThreshold  1e-06 \
	nEnergyDiff          2 \
	alphaTstart          1 \
	alphaTmin            1e-10 \
	updateTestStepSize   yes \
	alphaTreduceFactor   0.1 \
	alphaTincreaseFactor 3 \
	nAlphaAdjustMax      3 \
	wolfeEnergy          0.0001 \
	wolfeGradient        0.9 \
	fdTest               no
lcao-params -1 1e-06 1e-05
pcm-variant GLSSA13
spintype z-spin
subspace-rotation-factor 1 yes
symmetries automatic
symmetry-threshold 0.0001



---------- Setting up symmetries ----------

Found 24 point-group symmetries of the bravais lattice
Found 24 space-group symmetries with basis
Applied RMS atom displacement 0 bohrs to make symmetries exact.

---------- Initializing the Grid ----------
R = 
[      18.9099     -9.45497            0  ]
[            0      16.3765            0  ]
[            0            0           40  ]
unit cell volume = 12387.1
G =
[   0.332269   0.191835         -0  ]
[          0   0.383671         -0  ]
[         -0         -0    0.15708  ]
Minimum fftbox size, Smin = [  80  80  164  ]
Chosen fftbox size, S = [  80  80  168  ]

---------- Exchange Correlation functional ----------
Initalized PBE GGA exchange.
Initalized PBE GGA correlation.

---------- Setting up pseudopotentials ----------
Width of ionic core gaussian charges (only for fluid interactions / plotting) set to 0

Reading pseudopotential file '/home/gridsan/aligho/DFT/build-Nov24/pseudopotentials/SG15/Cs_ONCV_PBE.upf':
  'Cs' pseudopotential, 'PBE' functional
  Generated using ONCVPSP code by D. R. Hamann
  Author: Martin Schlipf and Francois Gygi  Date: 150915.
  9 valence electrons, 3 orbitals, 6 projectors, 2414 radial grid points, with lMax = 2
  Transforming local potential to a uniform radial grid of dG=0.02 with 1489 points.
  Transforming nonlocal projectors to a uniform radial grid of dG=0.02 with 432 points.
    5S    l: 0   occupation:  2.0   eigenvalue: -0.982388
    5P    l: 1   occupation:  6.0   eigenvalue: -0.496786
    6S    l: 0   occupation:  1.0   eigenvalue: -0.076670
  Transforming atomic orbitals to a uniform radial grid of dG=0.02 with 432 points.
  Core radius for overlap checks: 2.06 bohrs.
  Reading pulay file /home/gridsan/aligho/DFT/build-Nov24/pseudopotentials/SG15/Cs_ONCV_PBE.pulay ... using dE_dnG = -1.008762e-04 computed for Ecut = 20.

Initialized 1 species with 1 total atoms.

Folded 1 k-points by 12x12x1 to 144 k-points.

---------- Setting up k-points, bands, fillings ----------
Reduced to 19 k-points under symmetry. 
Computing the number of bands and number of electrons
Calculating initial fillings.
nElectrons:   9.000000   nBands: 6   nStates: 38

----- Setting up reduced wavefunction bases (one per k-point) -----
average nbasis = 52924.021 , ideal nbasis = 52918.836

---------- Setting up coulomb interaction ----------
Initialized slab truncation along lattice direction 001

---------- Setting up 2D ewald sum ----------
Optimum gaussian width for ewald sums = 10.498040 bohr.
Real space sums over 289 unit cells with max indices [  8  8  0  ]
Reciprocal space sums over 81 terms with max indices [  4  4  0  ]

---------- Allocating electronic variables ----------
Initializing wave functions:  linear combination of atomic orbitals
Note: number of bands (6) exceeds available atomic orbitals (5)
Cs pseudo-atom occupations:   s ( 2 1 )  p ( 6 )
	FillingsUpdate:  mu: -0.077853003  nElectrons: 9.000000  magneticMoment: [ Abs: 0.74000  Tot: -0.74000 ]
LCAOMinimize: Iter:   0  F: -20.1689264909672765  |grad|_K:  3.654e-06  alpha:  1.000e+00
	FillingsUpdate:  mu: -0.077852285  nElectrons: 9.000000  magneticMoment: [ Abs: 0.74000  Tot: -0.74000 ]
LCAOMinimize: Iter:   1  F: -20.1689265000294959  |grad|_K:  1.699e-08  alpha:  9.924e-01  linmin: -5.271e-03  cgtest:  1.265e-01  t[s]:     14.92
LCAOMinimize: Encountered beta<0, resetting CG.
LCAOMinimize: 	Step increased F by 1.953993e-13, reducing alpha to 2.644879e-02.
LCAOMinimize: 	Step increased F by 2.629008e-13, reducing alpha to 2.644879e-03.
LCAOMinimize: 	Step increased F by 4.973799e-14, reducing alpha to 2.644879e-04.
LCAOMinimize: 	Step failed to reduce F after 3 attempts. Quitting step.
LCAOMinimize: 	Undoing step.
LCAOMinimize: 	Step failed along negative gradient direction.
LCAOMinimize: Probably at roundoff error limit. (Stopping)


---- Citations for features of the code used in this run ----

   Software package:
      R. Sundararaman, K. Letchworth-Weaver, K.A. Schwarz, D. Gunceler, Y. Ozhabes and T.A. Arias, 'JDFTx: software for joint density-functional theory', SoftwareX 6, 278 (2017)

   gga-PBE exchange-correlation functional:
      J.P. Perdew, K. Burke and M. Ernzerhof, Phys. Rev. Lett. 77, 3865 (1996)

   Pseudopotentials:
      M Schlipf and F Gygi, Comput. Phys. Commun. 196, 36 (2015)

   Truncated Coulomb potentials:
      R. Sundararaman and T.A. Arias, Phys. Rev. B 87, 165122 (2013)

This list may not be complete. Please suggest additional citations or
report any other bugs at https://github.com/shankar1729/jdftx/issues

Initialization completed successfully at t[s]:     25.99


-------- Electronic minimization -----------
Will mix electronic density at each iteration.
	FillingsUpdate:  mu: -0.077852285  nElectrons: 9.000000  magneticMoment: [ Abs: 0.74000  Tot: -0.74000 ]
	FillingsUpdate:  mu: -0.077982355  nElectrons: 9.000000  magneticMoment: [ Abs: 0.74000  Tot: -0.74000 ]
SCF: Cycle:  0   F: -20.169099416486770   dF: -1.729e-04   |Residual|: 1.528e-03   |deigs|: 1.725e-01  t[s]:     34.05
	FillingsUpdate:  mu: -0.077987562  nElectrons: 9.000000  magneticMoment: [ Abs: 0.74419  Tot: -0.74000 ]
SCF: Cycle:  1   F: -20.169106164519352   dF: -6.748e-06   |Residual|: 5.103e-04   |deigs|: 6.450e-03  t[s]:     40.37
	FillingsUpdate:  mu: -0.077987901  nElectrons: 9.000000  magneticMoment: [ Abs: 0.74431  Tot: -0.74000 ]
SCF: Cycle:  2   F: -20.169108316891982   dF: -2.152e-06   |Residual|: 3.346e-04   |deigs|: 1.222e-03  t[s]:     46.78
	FillingsUpdate:  mu: -0.077994247  nElectrons: 9.000000  magneticMoment: [ Abs: 0.74518  Tot: -0.74000 ]
SCF: Cycle:  3   F: -20.169109493978617   dF: -1.177e-06   |Residual|: 2.620e-04   |deigs|: 6.176e-04  t[s]:     53.31
	FillingsUpdate:  mu: -0.077983349  nElectrons: 9.000000  magneticMoment: [ Abs: 0.74520  Tot: -0.74000 ]
SCF: Cycle:  4   F: -20.169110503148769   dF: -1.009e-06   |Residual|: 2.032e-04   |deigs|: 5.697e-04  t[s]:     59.95
	FillingsUpdate:  mu: -0.077970644  nElectrons: 9.000000  magneticMoment: [ Abs: 0.74518  Tot: -0.74000 ]
SCF: Cycle:  5   F: -20.169111146290792   dF: -6.431e-07   |Residual|: 1.596e-04   |deigs|: 3.912e-04  t[s]:     66.72
	FillingsUpdate:  mu: -0.077939112  nElectrons: 9.000000  magneticMoment: [ Abs: 0.74519  Tot: -0.74000 ]
SCF: Cycle:  6   F: -20.169111596047546   dF: -4.498e-07   |Residual|: 1.070e-04   |deigs|: 3.638e-04  t[s]:     73.61
	FillingsUpdate:  mu: -0.077911084  nElectrons: 9.000000  magneticMoment: [ Abs: 0.74510  Tot: -0.74000 ]
SCF: Cycle:  7   F: -20.169111889122984   dF: -2.931e-07   |Residual|: 8.609e-05   |deigs|: 4.442e-04  t[s]:     80.60
	FillingsUpdate:  mu: -0.077888075  nElectrons: 9.000000  magneticMoment: [ Abs: 0.74516  Tot: -0.74000 ]
SCF: Cycle:  8   F: -20.169112074384305   dF: -1.853e-07   |Residual|: 6.948e-05   |deigs|: 2.427e-04  t[s]:     87.64
	FillingsUpdate:  mu: -0.077845485  nElectrons: 9.000000  magneticMoment: [ Abs: 0.74514  Tot: -0.74000 ]
SCF: Cycle:  9   F: -20.169112216728710   dF: -1.423e-07   |Residual|: 5.755e-05   |deigs|: 2.531e-04  t[s]:     94.78
	FillingsUpdate:  mu: -0.077809337  nElectrons: 9.000000  magneticMoment: [ Abs: 0.74513  Tot: -0.74000 ]
SCF: Cycle: 10   F: -20.169112220460459   dF: -3.732e-09   |Residual|: 4.898e-05   |deigs|: 3.332e-04  t[s]:    102.06
	FillingsUpdate:  mu: -0.077755783  nElectrons: 9.000000  magneticMoment: [ Abs: 0.74532  Tot: -0.74000 ]
SCF: Cycle: 11   F: -20.169112023496826   dF: +1.970e-07   |Residual|: 4.732e-05   |deigs|: 1.388e-04  t[s]:    109.37
	FillingsUpdate:  mu: -0.077728657  nElectrons: 9.000000  magneticMoment: [ Abs: 0.74540  Tot: -0.74000 ]
SCF: Cycle: 12   F: -20.169111988425062   dF: +3.507e-08   |Residual|: 4.492e-05   |deigs|: 1.042e-04  t[s]:    116.61
	FillingsUpdate:  mu: -0.077706399  nElectrons: 9.000000  magneticMoment: [ Abs: 0.74551  Tot: -0.74000 ]
SCF: Cycle: 13   F: -20.169112032732667   dF: -4.431e-08   |Residual|: 3.670e-05   |deigs|: 1.315e-04  t[s]:    123.96
	FillingsUpdate:  mu: -0.077654077  nElectrons: 9.000000  magneticMoment: [ Abs: 0.74568  Tot: -0.74000 ]
SCF: Cycle: 14   F: -20.169112283142873   dF: -2.504e-07   |Residual|: 3.045e-05   |deigs|: 1.121e-04  t[s]:    131.29
	FillingsUpdate:  mu: -0.077554130  nElectrons: 9.000000  magneticMoment: [ Abs: 0.74574  Tot: -0.74000 ]
SCF: Cycle: 15   F: -20.169112110540642   dF: +1.726e-07   |Residual|: 3.173e-05   |deigs|: 1.303e-04  t[s]:    138.60
	FillingsUpdate:  mu: -0.077496511  nElectrons: 9.000000  magneticMoment: [ Abs: 0.74548  Tot: -0.74000 ]
SCF: Cycle: 16   F: -20.169112283453668   dF: -1.729e-07   |Residual|: 2.699e-05   |deigs|: 9.265e-05  t[s]:    145.95
	FillingsUpdate:  mu: -0.077490065  nElectrons: 9.000000  magneticMoment: [ Abs: 0.74533  Tot: -0.74000 ]
SCF: Cycle: 17   F: -20.169112315242494   dF: -3.179e-08   |Residual|: 2.221e-05   |deigs|: 8.025e-05  t[s]:    153.24
	FillingsUpdate:  mu: -0.077486894  nElectrons: 9.000000  magneticMoment: [ Abs: 0.74519  Tot: -0.74000 ]
SCF: Cycle: 18   F: -20.169112404416953   dF: -8.917e-08   |Residual|: 1.414e-05   |deigs|: 5.818e-05  t[s]:    160.57
	FillingsUpdate:  mu: -0.077486761  nElectrons: 9.000000  magneticMoment: [ Abs: 0.74516  Tot: -0.74000 ]
SCF: Cycle: 19   F: -20.169112480982648   dF: -7.657e-08   |Residual|: 1.021e-05   |deigs|: 4.137e-05  t[s]:    167.77
	FillingsUpdate:  mu: -0.077481783  nElectrons: 9.000000  magneticMoment: [ Abs: 0.74513  Tot: -0.74000 ]
SCF: Cycle: 20   F: -20.169112438458232   dF: +4.252e-08   |Residual|: 8.953e-06   |deigs|: 3.058e-05  t[s]:    175.06
	FillingsUpdate:  mu: -0.077487035  nElectrons: 9.000000  magneticMoment: [ Abs: 0.74513  Tot: -0.74000 ]
SCF: Cycle: 21   F: -20.169112499950348   dF: -6.149e-08   |Residual|: 6.255e-06   |deigs|: 2.337e-05  t[s]:    182.33
	FillingsUpdate:  mu: -0.077497038  nElectrons: 9.000000  magneticMoment: [ Abs: 0.74512  Tot: -0.74000 ]
SCF: Cycle: 22   F: -20.169112490615493   dF: +9.335e-09   |Residual|: 5.046e-06   |deigs|: 2.016e-05  t[s]:    189.23
	FillingsUpdate:  mu: -0.077497385  nElectrons: 9.000000  magneticMoment: [ Abs: 0.74513  Tot: -0.74000 ]
SCF: Cycle: 23   F: -20.169112501837706   dF: -1.122e-08   |Residual|: 3.797e-06   |deigs|: 1.234e-05  t[s]:    196.41
	FillingsUpdate:  mu: -0.077498173  nElectrons: 9.000000  magneticMoment: [ Abs: 0.74513  Tot: -0.74000 ]
SCF: Cycle: 24   F: -20.169112507007885   dF: -5.170e-09   |Residual|: 2.757e-06   |deigs|: 1.126e-05  t[s]:    203.60
	FillingsUpdate:  mu: -0.077496724  nElectrons: 9.000000  magneticMoment: [ Abs: 0.74513  Tot: -0.74000 ]
SCF: Cycle: 25   F: -20.169112508516019   dF: -1.508e-09   |Residual|: 2.233e-06   |deigs|: 1.223e-05  t[s]:    210.86
SCF: Converged (|Delta E|<1.000000e-08 for 2 iters).


# Ionic positions in lattice coordinates:
ion Cs   0.000000000000000   0.000000000000000   0.000000000000000 0

# Forces in Lattice coordinates:
force Cs   0.000000000000000   0.000000000000000   0.000000000000000 0

# Energy components:
   Eewald =       -9.0240130501663280
       EH =        7.0273321833510547
     Eloc =      -23.6142812955578805
      Enl =        3.4379109508490178
   Epulay =        0.0000000422266766
      Exc =       -3.1097321694504716
       KE =        5.1136711247821953
-------------------------------------
     Etot =      -20.1691122139657395
       TS =        0.0000002945502791
-------------------------------------
        F =      -20.1691125085160188

IonicMinimize: Iter:   0  F: -20.169112508516019  |grad|_K:  0.000e+00  t[s]:    211.26
IonicMinimize: Converged (|grad|_K<1.000000e-04).

#--- Lowdin population analysis ---
# oxidation-state Cs +0.003
# magnetic-moments Cs -0.738

End date and time: Sun Feb  6 13:15:51 2022  (Duration: 0-0:03:31.31)
Done!
