
*************** JDFTx 1.6.0 (git hash 42ebbcc2) ***************

Start date and time: Sun Feb  6 13:26:53 2022
Executable jdftx with command-line: -i Alkali.in
Running on hosts (process indices):  d-3-5-3 (0-18)
Divided in process groups (process indices):  0 (0)  1 (1)  2 (2)  3 (3)  4 (4)  5 (5)  6 (6)  7 (7)  8 (8)  9 (9)  10 (10)  11 (11)  12 (12)  13 (13)  14 (14)  15 (15)  16 (16)  17 (17)  18 (18)
Resource initialization completed at t[s]:      0.00
Run totals: 19 processes, 48 threads, 0 GPUs


Input parsed successfully to the following command list (including defaults):

basis kpoint-dependent
coords-type Lattice
core-overlap-check vector
coulomb-interaction Slab 001
davidson-band-ratio 1.1
dump End None
dump-name $INPUT.$VAR
elec-cutoff 20
elec-eigen-algo Davidson
elec-ex-corr gga-PBE
elec-initial-magnetization 0.360000 yes
elec-smearing Fermi 1e-05
electronic-minimize  \
	dirUpdateScheme      FletcherReeves \
	linminMethod         DirUpdateRecommended \
	nIterations          100 \
	history              15 \
	knormThreshold       0 \
	energyDiffThreshold  1e-08 \
	nEnergyDiff          2 \
	alphaTstart          1 \
	alphaTmin            1e-10 \
	updateTestStepSize   yes \
	alphaTreduceFactor   0.1 \
	alphaTincreaseFactor 3 \
	nAlphaAdjustMax      3 \
	wolfeEnergy          0.0001 \
	wolfeGradient        0.9 \
	fdTest               no
electronic-scf  \
	nIterations	10000 \
	energyDiffThreshold	1e-08 \
	residualThreshold	1e-07 \
	mixFraction	0.5 \
	qMetric	0.8 \
	history	10 \
	nEigSteps	2 \
	eigDiffThreshold	1e-08 \
	mixedVariable	Density \
	qKerker	0.8 \
	qKappa	-1 \
	verbose	no \
	mixFractionMag	1.5
exchange-regularization WignerSeitzTruncated
fluid None
fluid-ex-corr (null) lda-PZ
fluid-gummel-loop 10 1.000000e-05
fluid-minimize  \
	dirUpdateScheme      PolakRibiere \
	linminMethod         DirUpdateRecommended \
	nIterations          100 \
	history              15 \
	knormThreshold       0 \
	energyDiffThreshold  0 \
	nEnergyDiff          2 \
	alphaTstart          1 \
	alphaTmin            1e-10 \
	updateTestStepSize   yes \
	alphaTreduceFactor   0.1 \
	alphaTincreaseFactor 3 \
	nAlphaAdjustMax      3 \
	wolfeEnergy          0.0001 \
	wolfeGradient        0.9 \
	fdTest               no
fluid-solvent H2O 55.338 ScalarEOS \
	epsBulk 78.4 \
	pMol 0.92466 \
	epsInf 1.77 \
	Pvap 1.06736e-10 \
	sigmaBulk 4.62e-05 \
	Rvdw 2.61727 \
	Res 1.42 \
	tauNuc 343133 \
	poleEl 15 7 1
forces-output-coords Positions
ion Cs   0.000000000000000   0.000000000000000   0.000000000000000 0
ion-species SG15/$ID_ONCV_PBE.upf
ion-width 0
ionic-minimize  \
	dirUpdateScheme      L-BFGS \
	linminMethod         DirUpdateRecommended \
	nIterations          0 \
	history              15 \
	knormThreshold       0.0001 \
	energyDiffThreshold  1e-06 \
	nEnergyDiff          2 \
	alphaTstart          1 \
	alphaTmin            1e-10 \
	updateTestStepSize   yes \
	alphaTreduceFactor   0.1 \
	alphaTincreaseFactor 3 \
	nAlphaAdjustMax      3 \
	wolfeEnergy          0.0001 \
	wolfeGradient        0.9 \
	fdTest               no
kpoint   0.000000000000   0.000000000000   0.000000000000  1.00000000000000
kpoint-folding 12 12 1 
latt-move-scale 1 1 1
latt-scale 4 4 1 
lattice  \
	   4.727486978767153   -2.363743489383575    0.000000000000000  \
	  -0.000000000000000    4.094123819672498    0.000000000000000  \
	   0.000000000000000    0.000000000000000   40.000000000000000 
lattice-minimize  \
	dirUpdateScheme      L-BFGS \
	linminMethod         DirUpdateRecommended \
	nIterations          0 \
	history              15 \
	knormThreshold       0 \
	energyDiffThreshold  1e-06 \
	nEnergyDiff          2 \
	alphaTstart          1 \
	alphaTmin            1e-10 \
	updateTestStepSize   yes \
	alphaTreduceFactor   0.1 \
	alphaTincreaseFactor 3 \
	nAlphaAdjustMax      3 \
	wolfeEnergy          0.0001 \
	wolfeGradient        0.9 \
	fdTest               no
lcao-params -1 1e-06 1e-05
pcm-variant GLSSA13
spintype z-spin
subspace-rotation-factor 1 yes
symmetries automatic
symmetry-threshold 0.0001



---------- Setting up symmetries ----------

Found 24 point-group symmetries of the bravais lattice
Found 24 space-group symmetries with basis
Applied RMS atom displacement 0 bohrs to make symmetries exact.

---------- Initializing the Grid ----------
R = 
[      18.9099     -9.45497            0  ]
[            0      16.3765            0  ]
[            0            0           40  ]
unit cell volume = 12387.1
G =
[   0.332269   0.191835         -0  ]
[          0   0.383671         -0  ]
[         -0         -0    0.15708  ]
Minimum fftbox size, Smin = [  80  80  164  ]
Chosen fftbox size, S = [  80  80  168  ]

---------- Exchange Correlation functional ----------
Initalized PBE GGA exchange.
Initalized PBE GGA correlation.

---------- Setting up pseudopotentials ----------
Width of ionic core gaussian charges (only for fluid interactions / plotting) set to 0

Reading pseudopotential file '/home/gridsan/aligho/DFT/build-Nov24/pseudopotentials/SG15/Cs_ONCV_PBE.upf':
  'Cs' pseudopotential, 'PBE' functional
  Generated using ONCVPSP code by D. R. Hamann
  Author: Martin Schlipf and Francois Gygi  Date: 150915.
  9 valence electrons, 3 orbitals, 6 projectors, 2414 radial grid points, with lMax = 2
  Transforming local potential to a uniform radial grid of dG=0.02 with 1489 points.
  Transforming nonlocal projectors to a uniform radial grid of dG=0.02 with 432 points.
    5S    l: 0   occupation:  2.0   eigenvalue: -0.982388
    5P    l: 1   occupation:  6.0   eigenvalue: -0.496786
    6S    l: 0   occupation:  1.0   eigenvalue: -0.076670
  Transforming atomic orbitals to a uniform radial grid of dG=0.02 with 432 points.
  Core radius for overlap checks: 2.06 bohrs.
  Reading pulay file /home/gridsan/aligho/DFT/build-Nov24/pseudopotentials/SG15/Cs_ONCV_PBE.pulay ... using dE_dnG = -1.008762e-04 computed for Ecut = 20.

Initialized 1 species with 1 total atoms.

Folded 1 k-points by 12x12x1 to 144 k-points.

---------- Setting up k-points, bands, fillings ----------
Reduced to 19 k-points under symmetry. 
Computing the number of bands and number of electrons
Calculating initial fillings.
nElectrons:   9.000000   nBands: 6   nStates: 38

----- Setting up reduced wavefunction bases (one per k-point) -----
average nbasis = 52924.021 , ideal nbasis = 52918.836

---------- Setting up coulomb interaction ----------
Initialized slab truncation along lattice direction 001

---------- Setting up 2D ewald sum ----------
Optimum gaussian width for ewald sums = 10.498040 bohr.
Real space sums over 289 unit cells with max indices [  8  8  0  ]
Reciprocal space sums over 81 terms with max indices [  4  4  0  ]

---------- Allocating electronic variables ----------
Initializing wave functions:  linear combination of atomic orbitals
Note: number of bands (6) exceeds available atomic orbitals (5)
Cs pseudo-atom occupations:   s ( 2 1 )  p ( 6 )
	FillingsUpdate:  mu: -0.077325819  nElectrons: 9.000000  magneticMoment: [ Abs: 0.36000  Tot: +0.36000 ]
LCAOMinimize: Iter:   0  F: -20.1680683563757697  |grad|_K:  6.836e-06  alpha:  1.000e+00
	FillingsUpdate:  mu: -0.077324402  nElectrons: 9.000000  magneticMoment: [ Abs: 0.36000  Tot: +0.36000 ]
LCAOMinimize: Iter:   1  F: -20.1680683880122054  |grad|_K:  3.389e-08  alpha:  9.898e-01  linmin: -1.337e-03  cgtest:  3.170e-01  t[s]:     15.08
LCAOMinimize: Encountered beta<0, resetting CG.
LCAOMinimize: 	Step increased F by 1.104894e-12, reducing alpha to 2.708710e-01.
	FillingsUpdate:  mu: -0.077324402  nElectrons: 9.000000  magneticMoment: [ Abs: 0.36000  Tot: +0.36000 ]
LCAOMinimize: Iter:   2  F: -20.1680683880127987  |grad|_K:  2.472e-08  alpha:  2.709e-01  linmin: -4.337e-03  cgtest:  1.000e+00  t[s]:     21.38
LCAOMinimize: Encountered beta<0, resetting CG.
LCAOMinimize: Converged (|Delta F|<1.000000e-06 for 2 iters).


---- Citations for features of the code used in this run ----

   Software package:
      R. Sundararaman, K. Letchworth-Weaver, K.A. Schwarz, D. Gunceler, Y. Ozhabes and T.A. Arias, 'JDFTx: software for joint density-functional theory', SoftwareX 6, 278 (2017)

   gga-PBE exchange-correlation functional:
      J.P. Perdew, K. Burke and M. Ernzerhof, Phys. Rev. Lett. 77, 3865 (1996)

   Pseudopotentials:
      M Schlipf and F Gygi, Comput. Phys. Commun. 196, 36 (2015)

   Truncated Coulomb potentials:
      R. Sundararaman and T.A. Arias, Phys. Rev. B 87, 165122 (2013)

This list may not be complete. Please suggest additional citations or
report any other bugs at https://github.com/shankar1729/jdftx/issues

Initialization completed successfully at t[s]:     21.65


-------- Electronic minimization -----------
Will mix electronic density at each iteration.
	FillingsUpdate:  mu: -0.077324402  nElectrons: 9.000000  magneticMoment: [ Abs: 0.36000  Tot: +0.36000 ]
	FillingsUpdate:  mu: -0.077525226  nElectrons: 9.000000  magneticMoment: [ Abs: 0.36000  Tot: +0.36000 ]
SCF: Cycle:  0   F: -20.168290296725285   dF: -2.219e-04   |Residual|: 1.093e-03   |deigs|: 1.749e-01  t[s]:     29.86
	FillingsUpdate:  mu: -0.077572975  nElectrons: 9.000000  magneticMoment: [ Abs: 0.36177  Tot: +0.36000 ]
SCF: Cycle:  1   F: -20.168298455508481   dF: -8.159e-06   |Residual|: 7.678e-04   |deigs|: 4.374e-03  t[s]:     36.27
	FillingsUpdate:  mu: -0.077627172  nElectrons: 9.000000  magneticMoment: [ Abs: 0.36183  Tot: +0.36000 ]
SCF: Cycle:  2   F: -20.168301140532321   dF: -2.685e-06   |Residual|: 6.380e-04   |deigs|: 1.231e-03  t[s]:     42.83
	FillingsUpdate:  mu: -0.077742178  nElectrons: 9.000000  magneticMoment: [ Abs: 0.36302  Tot: +0.36000 ]
SCF: Cycle:  3   F: -20.168304031655801   dF: -2.891e-06   |Residual|: 4.593e-04   |deigs|: 5.961e-04  t[s]:     49.50
	FillingsUpdate:  mu: -0.077854501  nElectrons: 9.000000  magneticMoment: [ Abs: 0.36275  Tot: +0.36000 ]
SCF: Cycle:  4   F: -20.168307096994194   dF: -3.065e-06   |Residual|: 3.093e-04   |deigs|: 4.989e-04  t[s]:     56.27
	FillingsUpdate:  mu: -0.077946458  nElectrons: 9.000000  magneticMoment: [ Abs: 0.36276  Tot: +0.36000 ]
SCF: Cycle:  5   F: -20.168309121778389   dF: -2.025e-06   |Residual|: 1.969e-04   |deigs|: 3.894e-04  t[s]:     63.12
	FillingsUpdate:  mu: -0.077943189  nElectrons: 9.000000  magneticMoment: [ Abs: 0.36282  Tot: +0.36000 ]
SCF: Cycle:  6   F: -20.168310070287177   dF: -9.485e-07   |Residual|: 1.386e-04   |deigs|: 3.148e-04  t[s]:     70.09
	FillingsUpdate:  mu: -0.077929304  nElectrons: 9.000000  magneticMoment: [ Abs: 0.36258  Tot: +0.36000 ]
SCF: Cycle:  7   F: -20.168310594313326   dF: -5.240e-07   |Residual|: 1.032e-04   |deigs|: 6.184e-04  t[s]:     77.19
	FillingsUpdate:  mu: -0.077895170  nElectrons: 9.000000  magneticMoment: [ Abs: 0.36248  Tot: +0.36000 ]
SCF: Cycle:  8   F: -20.168310947102473   dF: -3.528e-07   |Residual|: 8.137e-05   |deigs|: 3.673e-04  t[s]:     84.49
	FillingsUpdate:  mu: -0.077838684  nElectrons: 9.000000  magneticMoment: [ Abs: 0.36239  Tot: +0.36000 ]
SCF: Cycle:  9   F: -20.168311032300597   dF: -8.520e-08   |Residual|: 6.792e-05   |deigs|: 3.665e-04  t[s]:     91.79
	FillingsUpdate:  mu: -0.077792839  nElectrons: 9.000000  magneticMoment: [ Abs: 0.36257  Tot: +0.36000 ]
SCF: Cycle: 10   F: -20.168311048552365   dF: -1.625e-08   |Residual|: 5.925e-05   |deigs|: 3.687e-04  t[s]:     99.24
	FillingsUpdate:  mu: -0.077746365  nElectrons: 9.000000  magneticMoment: [ Abs: 0.36271  Tot: +0.36000 ]
SCF: Cycle: 11   F: -20.168311036393437   dF: +1.216e-08   |Residual|: 5.710e-05   |deigs|: 1.629e-04  t[s]:    106.69
	FillingsUpdate:  mu: -0.077678250  nElectrons: 9.000000  magneticMoment: [ Abs: 0.36269  Tot: +0.36000 ]
SCF: Cycle: 12   F: -20.168310688854739   dF: +3.475e-07   |Residual|: 5.137e-05   |deigs|: 1.516e-04  t[s]:    114.16
	FillingsUpdate:  mu: -0.077609755  nElectrons: 9.000000  magneticMoment: [ Abs: 0.36281  Tot: +0.36000 ]
SCF: Cycle: 13   F: -20.168310885291646   dF: -1.964e-07   |Residual|: 4.535e-05   |deigs|: 4.624e-04  t[s]:    121.49
	FillingsUpdate:  mu: -0.077566811  nElectrons: 9.000000  magneticMoment: [ Abs: 0.36283  Tot: +0.36000 ]
SCF: Cycle: 14   F: -20.168311035088514   dF: -1.498e-07   |Residual|: 4.034e-05   |deigs|: 1.421e-04  t[s]:    128.96
	FillingsUpdate:  mu: -0.077517723  nElectrons: 9.000000  magneticMoment: [ Abs: 0.36263  Tot: +0.36000 ]
SCF: Cycle: 15   F: -20.168311042834777   dF: -7.746e-09   |Residual|: 3.717e-05   |deigs|: 8.310e-05  t[s]:    136.43
	FillingsUpdate:  mu: -0.077462857  nElectrons: 9.000000  magneticMoment: [ Abs: 0.36253  Tot: +0.36000 ]
SCF: Cycle: 16   F: -20.168310978297278   dF: +6.454e-08   |Residual|: 3.405e-05   |deigs|: 7.280e-05  t[s]:    143.87
	FillingsUpdate:  mu: -0.077445628  nElectrons: 9.000000  magneticMoment: [ Abs: 0.36246  Tot: +0.36000 ]
SCF: Cycle: 17   F: -20.168311173427934   dF: -1.951e-07   |Residual|: 2.567e-05   |deigs|: 3.483e-05  t[s]:    151.39
	FillingsUpdate:  mu: -0.077437717  nElectrons: 9.000000  magneticMoment: [ Abs: 0.36237  Tot: +0.36000 ]
SCF: Cycle: 18   F: -20.168311151826053   dF: +2.160e-08   |Residual|: 2.055e-05   |deigs|: 2.394e-05  t[s]:    158.83
	FillingsUpdate:  mu: -0.077426385  nElectrons: 9.000000  magneticMoment: [ Abs: 0.36237  Tot: +0.36000 ]
SCF: Cycle: 19   F: -20.168311241693875   dF: -8.987e-08   |Residual|: 1.637e-05   |deigs|: 1.836e-05  t[s]:    166.32
	FillingsUpdate:  mu: -0.077418879  nElectrons: 9.000000  magneticMoment: [ Abs: 0.36237  Tot: +0.36000 ]
SCF: Cycle: 20   F: -20.168311263558156   dF: -2.186e-08   |Residual|: 1.208e-05   |deigs|: 1.505e-05  t[s]:    173.64
	FillingsUpdate:  mu: -0.077420566  nElectrons: 9.000000  magneticMoment: [ Abs: 0.36239  Tot: +0.36000 ]
SCF: Cycle: 21   F: -20.168311297815986   dF: -3.426e-08   |Residual|: 8.532e-06   |deigs|: 1.650e-05  t[s]:    181.04
	FillingsUpdate:  mu: -0.077420386  nElectrons: 9.000000  magneticMoment: [ Abs: 0.36240  Tot: +0.36000 ]
SCF: Cycle: 22   F: -20.168311293973634   dF: +3.842e-09   |Residual|: 5.830e-06   |deigs|: 1.772e-05  t[s]:    188.42
	FillingsUpdate:  mu: -0.077420951  nElectrons: 9.000000  magneticMoment: [ Abs: 0.36240  Tot: +0.36000 ]
SCF: Cycle: 23   F: -20.168311304751860   dF: -1.078e-08   |Residual|: 3.924e-06   |deigs|: 2.090e-05  t[s]:    195.80
	FillingsUpdate:  mu: -0.077421282  nElectrons: 9.000000  magneticMoment: [ Abs: 0.36241  Tot: +0.36000 ]
SCF: Cycle: 24   F: -20.168311304813120   dF: -6.126e-11   |Residual|: 3.105e-06   |deigs|: 2.427e-05  t[s]:    202.70
	FillingsUpdate:  mu: -0.077421490  nElectrons: 9.000000  magneticMoment: [ Abs: 0.36240  Tot: +0.36000 ]
SCF: Cycle: 25   F: -20.168311304616161   dF: +1.970e-10   |Residual|: 2.112e-06   |deigs|: 2.730e-05  t[s]:    210.07
	FillingsUpdate:  mu: -0.077422277  nElectrons: 9.000000  magneticMoment: [ Abs: 0.36239  Tot: +0.36000 ]
SCF: Cycle: 26   F: -20.168311307371773   dF: -2.756e-09   |Residual|: 1.108e-06   |deigs|: 2.835e-05  t[s]:    217.42
	FillingsUpdate:  mu: -0.077422635  nElectrons: 9.000000  magneticMoment: [ Abs: 0.36238  Tot: +0.36000 ]
SCF: Cycle: 27   F: -20.168311307745981   dF: -3.742e-10   |Residual|: 7.724e-07   |deigs|: 2.694e-05  t[s]:    224.22
SCF: Converged (|Delta E|<1.000000e-08 for 2 iters).


# Ionic positions in lattice coordinates:
ion Cs   0.000000000000000   0.000000000000000   0.000000000000000 0

# Forces in Lattice coordinates:
force Cs   0.000000000000000   0.000000000000000   0.000000000000000 0

# Energy components:
   Eewald =       -9.0240130501663280
       EH =        7.0073394259182100
     Eloc =      -23.5917366776991813
      Enl =        3.4366747897659140
   Epulay =        0.0000000422266766
      Exc =       -3.1059296179690925
       KE =        5.1093549818901431
-------------------------------------
     Etot =      -20.1683101060336583
       TS =        0.0000012017123224
-------------------------------------
        F =      -20.1683113077459808

IonicMinimize: Iter:   0  F: -20.168311307745981  |grad|_K:  0.000e+00  t[s]:    224.63
IonicMinimize: Converged (|grad|_K<1.000000e-04).

#--- Lowdin population analysis ---
# oxidation-state Cs +0.005
# magnetic-moments Cs +0.358

End date and time: Sun Feb  6 13:30:37 2022  (Duration: 0-0:03:44.69)
Done!
