CRYSTAL
PRIMVEC
  7.505056   0.000000   0.000000
 -3.752517   6.499566   0.000000
  0.000000   0.000000  21.167088
PRIMCOORD
18 1
 6   0.000000   0.000000   0.000000
 7   0.000002   1.444348   0.000000
 7  -1.250837   3.610870   0.000000
 7  -2.501676   5.777392   0.000000
 7   2.501688   1.444348   0.000000
 7   1.250848   3.610870   0.000000
 7   0.000009   5.777392   0.000000
 7   5.003373   1.444348   0.000000
 7   3.752534   3.610870   0.000000
 7   2.501695   5.777392   0.000000
 5  -1.250839   2.166522   0.000000
 5  -2.501678   4.333044   0.000000
 5   2.501685   0.000000   0.000000
 5   1.250846   2.166522   0.000000
 5   0.000007   4.333044   0.000000
 5   5.003370   0.000000   0.000000
 5   3.752531   2.166522   0.000000
 5   2.501692   4.333044   0.000000
