charge=0.0
--------------------------------------------------------------------------
The library attempted to open the following supporting CUDA libraries,
but each of them failed.  CUDA-aware support is disabled.
libcuda.so.1: cannot open shared object file: No such file or directory
libcuda.dylib: cannot open shared object file: No such file or directory
/usr/lib64/libcuda.so.1: cannot open shared object file: No such file or directory
/usr/lib64/libcuda.dylib: cannot open shared object file: No such file or directory
If you are not interested in CUDA-aware support, then run with
--mca opal_warn_on_missing_libcuda 0 to suppress this message.  If you are interested
in CUDA-aware support, then try setting LD_LIBRARY_PATH to the location
of libcuda.so.1 to get passed this issue.
--------------------------------------------------------------------------
--------------------------------------------------------------------------
No OpenFabrics connection schemes reported that they were able to be
used on a specific port.  As such, the openib BTL (OpenFabrics
support) will be disabled for this port.

  Local host:           d-17-5-1
  Local device:         mlx5_1
  Local port:           1
  CPCs attempted:       rdmacm, udcm
--------------------------------------------------------------------------

*************** JDFTx 1.6.0 (git hash 42ebbcc2) ***************

Start date and time: Tue Feb  1 17:43:29 2022
Executable jdftx with command-line: -i BN33BC.in
Running on hosts (process indices):  d-17-5-1 (0-37)
Divided in process groups (process indices):  0 (0)  1 (1)  2 (2)  3 (3)  4 (4)  5 (5)  6 (6)  7 (7)  8 (8)  9 (9)  10 (10)  11 (11)  12 (12)  13 (13)  14 (14)  15 (15)  16 (16)  17 (17)  18 (18)  19 (19)  20 (20)  21 (21)  22 (22)  23 (23)  24 (24)  25 (25)  26 (26)  27 (27)  28 (28)  29 (29)  30 (30)  31 (31)  32 (32)  33 (33)  34 (34)  35 (35)  36 (36)  37 (37)
Resource initialization completed at t[s]:      0.00
Run totals: 38 processes, 48 threads, 0 GPUs


Input parsed successfully to the following command list (including defaults):

basis kpoint-dependent
coords-type Lattice
core-overlap-check vector
coulomb-interaction Slab 001
davidson-band-ratio 1.1
dump End State ElecDensity BandEigs
dump-name BN33BC.0.0.$VAR
elec-cutoff 20
elec-eigen-algo Davidson
elec-ex-corr gga-PBE
elec-initial-charge 0.000000
elec-initial-magnetization 1.000000 no
elec-smearing Fermi 1e-05
electronic-minimize  \
	dirUpdateScheme      FletcherReeves \
	linminMethod         DirUpdateRecommended \
	nIterations          100 \
	history              15 \
	knormThreshold       0 \
	energyDiffThreshold  1e-08 \
	nEnergyDiff          2 \
	alphaTstart          1 \
	alphaTmin            1e-10 \
	updateTestStepSize   yes \
	alphaTreduceFactor   0.1 \
	alphaTincreaseFactor 3 \
	nAlphaAdjustMax      3 \
	wolfeEnergy          0.0001 \
	wolfeGradient        0.9 \
	fdTest               no
electronic-scf  \
	nIterations	1000 \
	energyDiffThreshold	1e-08 \
	residualThreshold	1e-07 \
	mixFraction	0.5 \
	qMetric	0.8 \
	history	10 \
	nEigSteps	2 \
	eigDiffThreshold	1e-08 \
	mixedVariable	Density \
	qKerker	0.8 \
	qKappa	-1 \
	verbose	no \
	mixFractionMag	1.5
exchange-regularization WignerSeitzTruncated
fluid None
fluid-ex-corr (null) lda-PZ
fluid-gummel-loop 10 1.000000e-05
fluid-minimize  \
	dirUpdateScheme      PolakRibiere \
	linminMethod         DirUpdateRecommended \
	nIterations          100 \
	history              15 \
	knormThreshold       0 \
	energyDiffThreshold  0 \
	nEnergyDiff          2 \
	alphaTstart          1 \
	alphaTmin            1e-10 \
	updateTestStepSize   yes \
	alphaTreduceFactor   0.1 \
	alphaTincreaseFactor 3 \
	nAlphaAdjustMax      3 \
	wolfeEnergy          0.0001 \
	wolfeGradient        0.9 \
	fdTest               no
fluid-solvent H2O 55.338 ScalarEOS \
	epsBulk 78.4 \
	pMol 0.92466 \
	epsInf 1.77 \
	Pvap 1.06736e-10 \
	sigmaBulk 4.62e-05 \
	Rvdw 2.61727 \
	Res 1.42 \
	tauNuc 343133 \
	poleEl 15 7 1
forces-output-coords Positions
ion C   0.000000000000000  -0.000000000000000   0.000000000000000 1
ion N   0.108900118656067   0.217800237312134   0.000000000000000 1
ion N   0.111440932313158   0.555720466156579   0.000000000000000 1
ion N   0.108900118656067   0.891099881343933   0.000000000000000 1
ion N   0.444600551142632   0.222300275571316   0.000000000000000 1
ion N   0.444279533843421   0.555720466156579   0.000000000000000 1
ion N   0.444279533843421   0.888559067686842   0.000000000000000 1
ion N   0.777699724428684   0.222300275571316   0.000000000000000 1
ion N   0.777699724428684   0.555399448857368   0.000000000000000 1
ion N   0.782199762687866   0.891099881343933   0.000000000000000 1
ion B  -0.000409163333578   0.332352225367090  -0.000000000000000 1
ion B  -0.000409163333578   0.667238611299332  -0.000000000000000 1
ion B   0.332761388700668   0.000409163333578   0.000000000000000 1
ion B   0.332761388700668   0.332352225367090  -0.000000000000000 1
ion B   0.333333333333333   0.666666666666667   0.000000000000000 1
ion B   0.667647774632910   0.000409163333578   0.000000000000000 1
ion B   0.666666666666667   0.333333333333333   0.000000000000000 1
ion B   0.667647774632910   0.667238611299332   0.000000000000000 1
ion-species SG15/$ID_ONCV_PBE.upf
ion-width 0
ionic-minimize  \
	dirUpdateScheme      L-BFGS \
	linminMethod         DirUpdateRecommended \
	nIterations          0 \
	history              15 \
	knormThreshold       0.0001 \
	energyDiffThreshold  1e-06 \
	nEnergyDiff          2 \
	alphaTstart          1 \
	alphaTmin            1e-10 \
	updateTestStepSize   yes \
	alphaTreduceFactor   0.1 \
	alphaTincreaseFactor 3 \
	nAlphaAdjustMax      3 \
	wolfeEnergy          0.0001 \
	wolfeGradient        0.9 \
	fdTest               no
kpoint   0.000000000000   0.000000000000   0.000000000000  1.00000000000000
kpoint-folding 12 12 1 
latt-move-scale 1 1 1
latt-scale 1 1 1 
lattice  \
	  14.116397090998559   -7.058198545499275    0.000000000000000  \
	  -0.000000000000000   12.225158490713497    0.000000000000000  \
	   0.000000000000000    0.000000000000000   40.000000000000000 
lattice-minimize  \
	dirUpdateScheme      L-BFGS \
	linminMethod         DirUpdateRecommended \
	nIterations          0 \
	history              15 \
	knormThreshold       0 \
	energyDiffThreshold  1e-06 \
	nEnergyDiff          2 \
	alphaTstart          1 \
	alphaTmin            1e-10 \
	updateTestStepSize   yes \
	alphaTreduceFactor   0.1 \
	alphaTincreaseFactor 3 \
	nAlphaAdjustMax      3 \
	wolfeEnergy          0.0001 \
	wolfeGradient        0.9 \
	fdTest               no
lcao-params -1 1e-06 1e-05
pcm-variant GLSSA13
spintype z-spin
subspace-rotation-factor 1 yes
symmetries automatic
symmetry-threshold 0.0001



---------- Setting up symmetries ----------

Found 24 point-group symmetries of the bravais lattice
Found 12 space-group symmetries with basis
Applied RMS atom displacement 2.54347e-15 bohrs to make symmetries exact.

---------- Initializing the Grid ----------
R = 
[      14.1164      -7.0582            0  ]
[            0      12.2252            0  ]
[            0            0           40  ]
unit cell volume = 6903.01
G =
[   0.445098   0.256978         -0  ]
[          0   0.513955         -0  ]
[         -0         -0    0.15708  ]
Minimum fftbox size, Smin = [  60  60  164  ]
Chosen fftbox size, S = [  60  60  168  ]

---------- Exchange Correlation functional ----------
Initalized PBE GGA exchange.
Initalized PBE GGA correlation.

---------- Setting up pseudopotentials ----------
Width of ionic core gaussian charges (only for fluid interactions / plotting) set to 0

Reading pseudopotential file '/home/gridsan/aligho/DFT/build-Nov24/pseudopotentials/SG15/C_ONCV_PBE.upf':
  'C' pseudopotential, 'PBE' functional
  Generated using ONCVPSP code by D. R. Hamann
  Author: Martin Schlipf and Francois Gygi  Date: 150915.
  4 valence electrons, 2 orbitals, 4 projectors, 1248 radial grid points, with lMax = 1
  Transforming local potential to a uniform radial grid of dG=0.02 with 1495 points.
  Transforming nonlocal projectors to a uniform radial grid of dG=0.02 with 432 points.
    2S    l: 0   occupation:  2.0   eigenvalue: -0.505335
    2P    l: 1   occupation:  2.0   eigenvalue: -0.194238
  Transforming atomic orbitals to a uniform radial grid of dG=0.02 with 432 points.
  Core radius for overlap checks: 1.23 bohrs.
  Reading pulay file /home/gridsan/aligho/DFT/build-Nov24/pseudopotentials/SG15/C_ONCV_PBE.pulay ... using dE_dnG = -9.239532e-03 computed for Ecut = 20.

Reading pseudopotential file '/home/gridsan/aligho/DFT/build-Nov24/pseudopotentials/SG15/N_ONCV_PBE.upf':
  'N' pseudopotential, 'PBE' functional
  Generated using ONCVPSP code by D. R. Hamann
  Author: Martin Schlipf and Francois Gygi  Date: 150915.
  5 valence electrons, 2 orbitals, 4 projectors, 1058 radial grid points, with lMax = 1
  Transforming local potential to a uniform radial grid of dG=0.02 with 1495 points.
  Transforming nonlocal projectors to a uniform radial grid of dG=0.02 with 432 points.
    2S    l: 0   occupation:  2.0   eigenvalue: -0.682907
    2P    l: 1   occupation:  3.0   eigenvalue: -0.260548
  Transforming atomic orbitals to a uniform radial grid of dG=0.02 with 432 points.
  Core radius for overlap checks: 1.35 bohrs.
  Reading pulay file /home/gridsan/aligho/DFT/build-Nov24/pseudopotentials/SG15/N_ONCV_PBE.pulay ... using dE_dnG = -2.956256e-02 computed for Ecut = 20.

Reading pseudopotential file '/home/gridsan/aligho/DFT/build-Nov24/pseudopotentials/SG15/B_ONCV_PBE.upf':
  'B' pseudopotential, 'PBE' functional
  Generated using ONCVPSP code by D. R. Hamann
  Author: Martin Schlipf and Francois Gygi  Date: 150915.
  3 valence electrons, 2 orbitals, 4 projectors, 1534 radial grid points, with lMax = 1
  Transforming local potential to a uniform radial grid of dG=0.02 with 1495 points.
  Transforming nonlocal projectors to a uniform radial grid of dG=0.02 with 432 points.
    2S    l: 0   occupation:  2.0   eigenvalue: -0.347027
    2P    l: 1   occupation:  1.0   eigenvalue: -0.132548
  Transforming atomic orbitals to a uniform radial grid of dG=0.02 with 432 points.
  Core radius for overlap checks: 1.60 bohrs.
  Reading pulay file /home/gridsan/aligho/DFT/build-Nov24/pseudopotentials/SG15/B_ONCV_PBE.pulay ... using dE_dnG = -3.748568e-04 computed for Ecut = 20.

Initialized 3 species with 18 total atoms.

Folded 1 k-points by 12x12x1 to 144 k-points.

---------- Setting up k-points, bands, fillings ----------
Adding inversion symmetry to k-mesh for non-inversion-symmetric unit cell.
Reduced to 19 k-points under symmetry. 
Computing the number of bands and number of electrons
Calculating initial fillings.
nElectrons:  73.000000   nBands: 72   nStates: 38

----- Setting up reduced wavefunction bases (one per k-point) -----
average nbasis = 29490.146 , ideal nbasis = 29490.175

---------- Setting up coulomb interaction ----------
Initialized slab truncation along lattice direction 001

---------- Setting up 2D ewald sum ----------
Optimum gaussian width for ewald sums = 7.836854 bohr.
Real space sums over 289 unit cells with max indices [  8  8  0  ]
Reciprocal space sums over 81 terms with max indices [  4  4  0  ]

---------- Allocating electronic variables ----------
Initializing wave functions:  linear combination of atomic orbitals
C pseudo-atom occupations:   s ( 2 )  p ( 2 )
N pseudo-atom occupations:   s ( 2 )  p ( 3 )
B pseudo-atom occupations:   s ( 2 )  p ( 1 )
[d-17-5-1:71488] 37 more processes have sent help message help-mpi-common-cuda.txt / dlopen failed
[d-17-5-1:71488] Set MCA parameter "orte_base_help_aggregate" to 0 to see all help / error messages
[d-17-5-1:71488] 37 more processes have sent help message help-mpi-btl-openib-cpc-base.txt / no cpcs for port
	FillingsUpdate:  mu: -0.192547639  nElectrons: 73.000000  magneticMoment: [ Abs: 0.94891  Tot: +0.90278 ]
LCAOMinimize: Iter:   0  F: -116.5388013006813139  |grad|_K:  4.423e-03  alpha:  1.000e+00
	FillingsUpdate:  mu: -0.200000000  nElectrons: 73.000000  magneticMoment: [ Abs: 1.05376  Tot: +1.00000 ]
LCAOMinimize: Iter:   1  F: -117.1971562268157072  |grad|_K:  9.052e-04  alpha:  4.014e-01  linmin:  1.867e-01  cgtest: -6.062e-01  t[s]:     24.78
	FillingsUpdate:  mu: -0.193238058  nElectrons: 73.000000  magneticMoment: [ Abs: 1.05824  Tot: +1.00000 ]
LCAOMinimize: Iter:   2  F: -117.2098690167438519  |grad|_K:  5.478e-04  alpha:  2.621e-01  linmin:  5.723e-04  cgtest:  7.407e-01  t[s]:     32.19
LCAOMinimize: Encountered beta<0, resetting CG.
	FillingsUpdate:  mu: -0.180600664  nElectrons: 73.000000  magneticMoment: [ Abs: 1.06345  Tot: +1.00000 ]
LCAOMinimize: Iter:   3  F: -117.2206356609817277  |grad|_K:  9.334e-05  alpha:  3.555e-01  linmin:  1.502e-02  cgtest: -6.749e-02  t[s]:     39.61
	FillingsUpdate:  mu: -0.184981249  nElectrons: 73.000000  magneticMoment: [ Abs: 1.06709  Tot: +1.00000 ]
LCAOMinimize: Iter:   4  F: -117.2209471250218940  |grad|_K:  1.338e-05  alpha:  3.580e-01  linmin:  1.078e-02  cgtest:  1.013e-01  t[s]:     47.00
	FillingsUpdate:  mu: -0.185413722  nElectrons: 73.000000  magneticMoment: [ Abs: 1.07205  Tot: +1.00000 ]
LCAOMinimize: Iter:   5  F: -117.2209598922036378  |grad|_K:  9.301e-06  alpha:  7.045e-01  linmin: -7.891e-04  cgtest:  7.438e-03  t[s]:     54.43
	FillingsUpdate:  mu: -0.185128373  nElectrons: 73.000000  magneticMoment: [ Abs: 1.07604  Tot: +1.00000 ]
LCAOMinimize: Iter:   6  F: -117.2209649178987547  |grad|_K:  3.323e-06  alpha:  5.734e-01  linmin: -6.188e-04  cgtest: -1.327e-02  t[s]:     61.89
	FillingsUpdate:  mu: -0.185270753  nElectrons: 73.000000  magneticMoment: [ Abs: 1.07677  Tot: +1.00000 ]
LCAOMinimize: Iter:   7  F: -117.2209654136254642  |grad|_K:  7.354e-07  alpha:  4.427e-01  linmin:  1.865e-04  cgtest: -6.929e-03  t[s]:     69.34
	FillingsUpdate:  mu: -0.185275236  nElectrons: 73.000000  magneticMoment: [ Abs: 1.07702  Tot: +1.00000 ]
LCAOMinimize: Iter:   8  F: -117.2209654619700672  |grad|_K:  2.680e-07  alpha:  8.799e-01  linmin: -4.700e-03  cgtest:  1.584e-02  t[s]:     76.72
LCAOMinimize: Converged (|Delta F|<1.000000e-06 for 2 iters).


---- Citations for features of the code used in this run ----

   Software package:
      R. Sundararaman, K. Letchworth-Weaver, K.A. Schwarz, D. Gunceler, Y. Ozhabes and T.A. Arias, 'JDFTx: software for joint density-functional theory', SoftwareX 6, 278 (2017)

   gga-PBE exchange-correlation functional:
      J.P. Perdew, K. Burke and M. Ernzerhof, Phys. Rev. Lett. 77, 3865 (1996)

   Pseudopotentials:
      M Schlipf and F Gygi, Comput. Phys. Commun. 196, 36 (2015)

   Truncated Coulomb potentials:
      R. Sundararaman and T.A. Arias, Phys. Rev. B 87, 165122 (2013)

This list may not be complete. Please suggest additional citations or
report any other bugs at https://github.com/shankar1729/jdftx/issues

Initialization completed successfully at t[s]:     77.44


-------- Electronic minimization -----------
Will mix electronic density at each iteration.
	FillingsUpdate:  mu: -0.185275236  nElectrons: 73.000000  magneticMoment: [ Abs: 1.07702  Tot: +1.00000 ]
	FillingsUpdate:  mu: -0.200000000  nElectrons: 73.000000  magneticMoment: [ Abs: 1.07702  Tot: +1.00000 ]
SCF: Cycle:  0   F: -118.149209190409422   dF: -9.282e-01   |Residual|: 3.373e-01   |deigs|: 1.139e-01  t[s]:     97.87
	FillingsUpdate:  mu: -0.183559591  nElectrons: 73.000000  magneticMoment: [ Abs: 1.12571  Tot: +1.00000 ]
SCF: Cycle:  1   F: -118.187980503912542   dF: -3.877e-02   |Residual|: 1.881e-01   |deigs|: 2.524e-02  t[s]:    113.09
	FillingsUpdate:  mu: -0.154739113  nElectrons: 73.000000  magneticMoment: [ Abs: 1.14181  Tot: +1.00000 ]
SCF: Cycle:  2   F: -118.213631947078255   dF: -2.565e-02   |Residual|: 4.111e-02   |deigs|: 2.995e-02  t[s]:    128.48
	FillingsUpdate:  mu: -0.151805589  nElectrons: 73.000000  magneticMoment: [ Abs: 1.14401  Tot: +1.00000 ]
SCF: Cycle:  3   F: -118.214441414511612   dF: -8.095e-04   |Residual|: 2.314e-02   |deigs|: 7.948e-03  t[s]:    143.97
	FillingsUpdate:  mu: -0.141039856  nElectrons: 73.000000  magneticMoment: [ Abs: 1.12471  Tot: +1.00000 ]
SCF: Cycle:  4   F: -118.215775561307140   dF: -1.334e-03   |Residual|: 1.260e-02   |deigs|: 9.707e-03  t[s]:    159.56
	FillingsUpdate:  mu: -0.135626407  nElectrons: 73.000000  magneticMoment: [ Abs: 1.12994  Tot: +1.00000 ]
SCF: Cycle:  5   F: -118.216162235472737   dF: -3.867e-04   |Residual|: 9.698e-03   |deigs|: 4.535e-03  t[s]:    175.31
	FillingsUpdate:  mu: -0.129513729  nElectrons: 73.000000  magneticMoment: [ Abs: 1.12820  Tot: +1.00000 ]
SCF: Cycle:  6   F: -118.216286394315205   dF: -1.242e-04   |Residual|: 6.156e-03   |deigs|: 5.227e-03  t[s]:    191.06
	FillingsUpdate:  mu: -0.100000000  nElectrons: 73.000000  magneticMoment: [ Abs: 1.12599  Tot: +1.00000 ]
SCF: Cycle:  7   F: -118.216264775323097   dF: +2.162e-05   |Residual|: 4.893e-03   |deigs|: 6.128e-03  t[s]:    206.88
	FillingsUpdate:  mu: -0.100000000  nElectrons: 73.000000  magneticMoment: [ Abs: 1.12748  Tot: +1.00000 ]
SCF: Cycle:  8   F: -118.216318596950515   dF: -5.382e-05   |Residual|: 4.069e-03   |deigs|: 3.963e-03  t[s]:    222.80
	FillingsUpdate:  mu: -0.100000000  nElectrons: 73.000000  magneticMoment: [ Abs: 1.12426  Tot: +1.00000 ]
SCF: Cycle:  9   F: -118.216372140189208   dF: -5.354e-05   |Residual|: 3.071e-03   |deigs|: 3.574e-03  t[s]:    238.67
	FillingsUpdate:  mu: -0.100000000  nElectrons: 73.000000  magneticMoment: [ Abs: 1.12433  Tot: +1.00000 ]
SCF: Cycle: 10   F: -118.216396097630593   dF: -2.396e-05   |Residual|: 2.655e-03   |deigs|: 2.136e-03  t[s]:    254.68
	FillingsUpdate:  mu: -0.100000000  nElectrons: 73.000000  magneticMoment: [ Abs: 1.12574  Tot: +1.00000 ]
SCF: Cycle: 11   F: -118.216414593445293   dF: -1.850e-05   |Residual|: 2.117e-03   |deigs|: 2.837e-03  t[s]:    270.77
	FillingsUpdate:  mu: -0.100000000  nElectrons: 73.000000  magneticMoment: [ Abs: 1.12506  Tot: +1.00000 ]
SCF: Cycle: 12   F: -118.216423153563085   dF: -8.560e-06   |Residual|: 1.976e-03   |deigs|: 2.427e-03  t[s]:    286.78
	FillingsUpdate:  mu: -0.100000000  nElectrons: 73.000000  magneticMoment: [ Abs: 1.12478  Tot: +1.00000 ]
SCF: Cycle: 13   F: -118.216426673170247   dF: -3.520e-06   |Residual|: 1.715e-03   |deigs|: 2.867e-03  t[s]:    302.80
	FillingsUpdate:  mu: -0.100000000  nElectrons: 73.000000  magneticMoment: [ Abs: 1.12400  Tot: +1.00000 ]
SCF: Cycle: 14   F: -118.216426160727195   dF: +5.124e-07   |Residual|: 1.645e-03   |deigs|: 3.618e-03  t[s]:    318.83
	FillingsUpdate:  mu: -0.099265286  nElectrons: 73.000000  magneticMoment: [ Abs: 1.12472  Tot: +1.00000 ]
SCF: Cycle: 15   F: -118.216426934988107   dF: -7.743e-07   |Residual|: 1.529e-03   |deigs|: 2.954e-03  t[s]:    334.89
	FillingsUpdate:  mu: -0.095119698  nElectrons: 73.000000  magneticMoment: [ Abs: 1.12572  Tot: +1.00000 ]
SCF: Cycle: 16   F: -118.216429223759462   dF: -2.289e-06   |Residual|: 1.231e-03   |deigs|: 3.877e-03  t[s]:    350.95
	FillingsUpdate:  mu: -0.092958095  nElectrons: 73.000000  magneticMoment: [ Abs: 1.12407  Tot: +1.00000 ]
SCF: Cycle: 17   F: -118.216433592232619   dF: -4.368e-06   |Residual|: 9.660e-04   |deigs|: 1.897e-03  t[s]:    367.03
	FillingsUpdate:  mu: -0.091517778  nElectrons: 73.000000  magneticMoment: [ Abs: 1.12331  Tot: +1.00000 ]
SCF: Cycle: 18   F: -118.216437271256723   dF: -3.679e-06   |Residual|: 5.898e-04   |deigs|: 1.343e-03  t[s]:    383.04
	FillingsUpdate:  mu: -0.090969521  nElectrons: 73.000000  magneticMoment: [ Abs: 1.12287  Tot: +1.00000 ]
SCF: Cycle: 19   F: -118.216438188870029   dF: -9.176e-07   |Residual|: 3.867e-04   |deigs|: 5.357e-04  t[s]:    398.98
	FillingsUpdate:  mu: -0.090558208  nElectrons: 73.000000  magneticMoment: [ Abs: 1.12288  Tot: +1.00000 ]
SCF: Cycle: 20   F: -118.216438659399770   dF: -4.705e-07   |Residual|: 2.297e-04   |deigs|: 7.026e-04  t[s]:    415.03
	FillingsUpdate:  mu: -0.090359489  nElectrons: 73.000000  magneticMoment: [ Abs: 1.12273  Tot: +1.00000 ]
SCF: Cycle: 21   F: -118.216438826425545   dF: -1.670e-07   |Residual|: 1.376e-04   |deigs|: 4.038e-04  t[s]:    431.09
	FillingsUpdate:  mu: -0.090211873  nElectrons: 73.000000  magneticMoment: [ Abs: 1.12248  Tot: +1.00000 ]
SCF: Cycle: 22   F: -118.216438902664663   dF: -7.624e-08   |Residual|: 6.848e-05   |deigs|: 6.722e-04  t[s]:    447.19
	FillingsUpdate:  mu: -0.090154041  nElectrons: 73.000000  magneticMoment: [ Abs: 1.12245  Tot: +1.00000 ]
SCF: Cycle: 23   F: -118.216438929869895   dF: -2.721e-08   |Residual|: 4.837e-05   |deigs|: 1.978e-04  t[s]:    463.23
	FillingsUpdate:  mu: -0.090106071  nElectrons: 73.000000  magneticMoment: [ Abs: 1.12235  Tot: +1.00000 ]
SCF: Cycle: 24   F: -118.216438944424880   dF: -1.455e-08   |Residual|: 2.972e-05   |deigs|: 1.969e-04  t[s]:    479.34
	FillingsUpdate:  mu: -0.090080897  nElectrons: 73.000000  magneticMoment: [ Abs: 1.12234  Tot: +1.00000 ]
SCF: Cycle: 25   F: -118.216438951110291   dF: -6.685e-09   |Residual|: 1.717e-05   |deigs|: 3.140e-04  t[s]:    495.43
	FillingsUpdate:  mu: -0.090070538  nElectrons: 73.000000  magneticMoment: [ Abs: 1.12231  Tot: +1.00000 ]
SCF: Cycle: 26   F: -118.216438953347165   dF: -2.237e-09   |Residual|: 9.687e-06   |deigs|: 1.783e-04  t[s]:    511.42
SCF: Converged (|Delta E|<1.000000e-08 for 2 iters).


# Ionic positions in lattice coordinates:
ion C  -0.000000000000000   0.000000000000000   0.000000000000000 1
ion N   0.108900118656067   0.217800237312134   0.000000000000000 1
ion N   0.111440932313158   0.555720466156579   0.000000000000000 1
ion N   0.108900118656067   0.891099881343933   0.000000000000000 1
ion N   0.444600551142632   0.222300275571316   0.000000000000000 1
ion N   0.444279533843421   0.555720466156579   0.000000000000000 1
ion N   0.444279533843421   0.888559067686842   0.000000000000000 1
ion N   0.777699724428684   0.222300275571316   0.000000000000000 1
ion N   0.777699724428684   0.555399448857368   0.000000000000000 1
ion N   0.782199762687866   0.891099881343933   0.000000000000000 1
ion B  -0.000409163333578   0.332352225367090   0.000000000000000 1
ion B  -0.000409163333578   0.667238611299332   0.000000000000000 1
ion B   0.332761388700668   0.000409163333578   0.000000000000000 1
ion B   0.332761388700668   0.332352225367090   0.000000000000000 1
ion B   0.333333333333333   0.666666666666667   0.000000000000000 1
ion B   0.667647774632910   0.000409163333578   0.000000000000000 1
ion B   0.666666666666667   0.333333333333333   0.000000000000000 1
ion B   0.667647774632910   0.667238611299332   0.000000000000000 1

# Forces in Lattice coordinates:
force C   0.000000000000000   0.000000000000000   0.000000000000000 1
force N   0.000000000000000   0.000018762816498   0.000000000000000 1
force N  -0.000261655605976  -0.000000000000000   0.000000000000000 1
force N   0.000018762816498  -0.000018762816500   0.000000000000000 1
force N   0.000418653803176  -0.000000000000000  -0.000000000000000 1
force N   0.000261655605976  -0.000261655605976   0.000000000000000 1
force N   0.000000000000000   0.000261655605976   0.000000000000000 1
force N  -0.000418653803176   0.000418653803176   0.000000000000000 1
force N  -0.000000000000000  -0.000418653803176   0.000000000000000 1
force N  -0.000018762816500   0.000000000000000   0.000000000000000 1
force B  -0.000091791853275  -0.000006750174769  -0.000000000000000 1
force B  -0.000098542028045   0.000006750174769   0.000000000000000 1
force B  -0.000006750174769   0.000098542028044  -0.000000000000000 1
force B   0.000091791853275  -0.000098542028044   0.000000000000000 1
force B   0.000000000000000   0.000000000000000   0.000000000000000 1
force B   0.000006750174769   0.000091791853275  -0.000000000000000 1
force B  -0.000000000000000   0.000000000000000   0.000000000000000 1
force B   0.000098542028044  -0.000091791853275   0.000000000000000 1

# Energy components:
   Eewald =     -185.5884594997991428
       EH =      -92.9936418107768930
     Eloc =      115.4157675594663459
      Enl =       -5.2841943983812820
   Epulay =       -0.0000011688465181
      Exc =      -33.7640794897250771
       KE =       83.9981698547153997
-------------------------------------
     Etot =     -118.2164389533471649
       TS =        0.0000000000000000
-------------------------------------
        F =     -118.2164389533471649

IonicMinimize: Iter:   0  F: -118.216438953347165  |grad|_K:  9.874e-06  t[s]:    512.82
IonicMinimize: Converged (|grad|_K<1.000000e-04).

#--- Lowdin population analysis ---
# oxidation-state C +0.275
# magnetic-moments C +0.570
# oxidation-state N -0.270 -0.373 -0.270 -0.380 -0.373 -0.373 -0.380 -0.380 -0.270
# magnetic-moments N +0.002 -0.006 +0.002 +0.021 -0.006 -0.006 +0.021 +0.021 +0.002
# oxidation-state B +0.432 +0.432 +0.432 +0.432 +0.439 +0.432 +0.436 +0.432
# magnetic-moments B +0.048 +0.048 +0.048 +0.048 +0.030 +0.048 +0.037 +0.048


Dumping 'BN33BC.0.0.fillings' ... done
Dumping 'BN33BC.0.0.wfns' ... done
Dumping 'BN33BC.0.0.n_up' ... done
Dumping 'BN33BC.0.0.n_dn' ... done
Dumping 'BN33BC.0.0.eigenvals' ... done
End date and time: Tue Feb  1 17:52:10 2022  (Duration: 0-0:08:41.12)
Done!
