charge=0.8
--------------------------------------------------------------------------
The library attempted to open the following supporting CUDA libraries,
but each of them failed.  CUDA-aware support is disabled.
libcuda.so.1: cannot open shared object file: No such file or directory
libcuda.dylib: cannot open shared object file: No such file or directory
/usr/lib64/libcuda.so.1: cannot open shared object file: No such file or directory
/usr/lib64/libcuda.dylib: cannot open shared object file: No such file or directory
If you are not interested in CUDA-aware support, then run with
--mca opal_warn_on_missing_libcuda 0 to suppress this message.  If you are interested
in CUDA-aware support, then try setting LD_LIBRARY_PATH to the location
of libcuda.so.1 to get passed this issue.
--------------------------------------------------------------------------
--------------------------------------------------------------------------
No OpenFabrics connection schemes reported that they were able to be
used on a specific port.  As such, the openib BTL (OpenFabrics
support) will be disabled for this port.

  Local host:           d-18-6-3
  Local device:         mlx5_1
  Local port:           1
  CPCs attempted:       rdmacm, udcm
--------------------------------------------------------------------------

*************** JDFTx 1.6.0 (git hash 42ebbcc2) ***************

Start date and time: Tue Feb  1 17:43:29 2022
Executable jdftx with command-line: -i BN33BC.in
Running on hosts (process indices):  d-18-6-3 (0-37)
Divided in process groups (process indices):  0 (0)  1 (1)  2 (2)  3 (3)  4 (4)  5 (5)  6 (6)  7 (7)  8 (8)  9 (9)  10 (10)  11 (11)  12 (12)  13 (13)  14 (14)  15 (15)  16 (16)  17 (17)  18 (18)  19 (19)  20 (20)  21 (21)  22 (22)  23 (23)  24 (24)  25 (25)  26 (26)  27 (27)  28 (28)  29 (29)  30 (30)  31 (31)  32 (32)  33 (33)  34 (34)  35 (35)  36 (36)  37 (37)
Resource initialization completed at t[s]:      0.00
Run totals: 38 processes, 48 threads, 0 GPUs


Input parsed successfully to the following command list (including defaults):

basis kpoint-dependent
coords-type Lattice
core-overlap-check vector
coulomb-interaction Slab 001
davidson-band-ratio 1.1
dump End State ElecDensity BandEigs
dump-name BN33BC.0.8.$VAR
elec-cutoff 20
elec-eigen-algo Davidson
elec-ex-corr gga-PBE
elec-initial-charge 0.800000
elec-initial-magnetization 1.000000 no
elec-smearing Fermi 1e-05
electronic-minimize  \
	dirUpdateScheme      FletcherReeves \
	linminMethod         DirUpdateRecommended \
	nIterations          100 \
	history              15 \
	knormThreshold       0 \
	energyDiffThreshold  1e-08 \
	nEnergyDiff          2 \
	alphaTstart          1 \
	alphaTmin            1e-10 \
	updateTestStepSize   yes \
	alphaTreduceFactor   0.1 \
	alphaTincreaseFactor 3 \
	nAlphaAdjustMax      3 \
	wolfeEnergy          0.0001 \
	wolfeGradient        0.9 \
	fdTest               no
electronic-scf  \
	nIterations	1000 \
	energyDiffThreshold	1e-08 \
	residualThreshold	1e-07 \
	mixFraction	0.5 \
	qMetric	0.8 \
	history	10 \
	nEigSteps	2 \
	eigDiffThreshold	1e-08 \
	mixedVariable	Density \
	qKerker	0.8 \
	qKappa	-1 \
	verbose	no \
	mixFractionMag	1.5
exchange-regularization WignerSeitzTruncated
fluid None
fluid-ex-corr (null) lda-PZ
fluid-gummel-loop 10 1.000000e-05
fluid-minimize  \
	dirUpdateScheme      PolakRibiere \
	linminMethod         DirUpdateRecommended \
	nIterations          100 \
	history              15 \
	knormThreshold       0 \
	energyDiffThreshold  0 \
	nEnergyDiff          2 \
	alphaTstart          1 \
	alphaTmin            1e-10 \
	updateTestStepSize   yes \
	alphaTreduceFactor   0.1 \
	alphaTincreaseFactor 3 \
	nAlphaAdjustMax      3 \
	wolfeEnergy          0.0001 \
	wolfeGradient        0.9 \
	fdTest               no
fluid-solvent H2O 55.338 ScalarEOS \
	epsBulk 78.4 \
	pMol 0.92466 \
	epsInf 1.77 \
	Pvap 1.06736e-10 \
	sigmaBulk 4.62e-05 \
	Rvdw 2.61727 \
	Res 1.42 \
	tauNuc 343133 \
	poleEl 15 7 1
forces-output-coords Positions
ion C   0.000000000000000  -0.000000000000000   0.000000000000000 1
ion N   0.108900118656067   0.217800237312134   0.000000000000000 1
ion N   0.111440932313158   0.555720466156579   0.000000000000000 1
ion N   0.108900118656067   0.891099881343933   0.000000000000000 1
ion N   0.444600551142632   0.222300275571316   0.000000000000000 1
ion N   0.444279533843421   0.555720466156579   0.000000000000000 1
ion N   0.444279533843421   0.888559067686842   0.000000000000000 1
ion N   0.777699724428684   0.222300275571316   0.000000000000000 1
ion N   0.777699724428684   0.555399448857368   0.000000000000000 1
ion N   0.782199762687866   0.891099881343933   0.000000000000000 1
ion B  -0.000409163333578   0.332352225367090  -0.000000000000000 1
ion B  -0.000409163333578   0.667238611299332  -0.000000000000000 1
ion B   0.332761388700668   0.000409163333578   0.000000000000000 1
ion B   0.332761388700668   0.332352225367090  -0.000000000000000 1
ion B   0.333333333333333   0.666666666666667   0.000000000000000 1
ion B   0.667647774632910   0.000409163333578   0.000000000000000 1
ion B   0.666666666666667   0.333333333333333   0.000000000000000 1
ion B   0.667647774632910   0.667238611299332   0.000000000000000 1
ion-species SG15/$ID_ONCV_PBE.upf
ion-width 0
ionic-minimize  \
	dirUpdateScheme      L-BFGS \
	linminMethod         DirUpdateRecommended \
	nIterations          0 \
	history              15 \
	knormThreshold       0.0001 \
	energyDiffThreshold  1e-06 \
	nEnergyDiff          2 \
	alphaTstart          1 \
	alphaTmin            1e-10 \
	updateTestStepSize   yes \
	alphaTreduceFactor   0.1 \
	alphaTincreaseFactor 3 \
	nAlphaAdjustMax      3 \
	wolfeEnergy          0.0001 \
	wolfeGradient        0.9 \
	fdTest               no
kpoint   0.000000000000   0.000000000000   0.000000000000  1.00000000000000
kpoint-folding 12 12 1 
latt-move-scale 1 1 1
latt-scale 1 1 1 
lattice  \
	  14.116397090998559   -7.058198545499275    0.000000000000000  \
	  -0.000000000000000   12.225158490713497    0.000000000000000  \
	   0.000000000000000    0.000000000000000   40.000000000000000 
lattice-minimize  \
	dirUpdateScheme      L-BFGS \
	linminMethod         DirUpdateRecommended \
	nIterations          0 \
	history              15 \
	knormThreshold       0 \
	energyDiffThreshold  1e-06 \
	nEnergyDiff          2 \
	alphaTstart          1 \
	alphaTmin            1e-10 \
	updateTestStepSize   yes \
	alphaTreduceFactor   0.1 \
	alphaTincreaseFactor 3 \
	nAlphaAdjustMax      3 \
	wolfeEnergy          0.0001 \
	wolfeGradient        0.9 \
	fdTest               no
lcao-params -1 1e-06 1e-05
pcm-variant GLSSA13
spintype z-spin
subspace-rotation-factor 1 yes
symmetries automatic
symmetry-threshold 0.0001



---------- Setting up symmetries ----------

Found 24 point-group symmetries of the bravais lattice
Found 12 space-group symmetries with basis
Applied RMS atom displacement 2.54347e-15 bohrs to make symmetries exact.

---------- Initializing the Grid ----------
R = 
[      14.1164      -7.0582            0  ]
[            0      12.2252            0  ]
[            0            0           40  ]
unit cell volume = 6903.01
G =
[   0.445098   0.256978         -0  ]
[          0   0.513955         -0  ]
[         -0         -0    0.15708  ]
Minimum fftbox size, Smin = [  60  60  164  ]
Chosen fftbox size, S = [  60  60  168  ]

---------- Exchange Correlation functional ----------
Initalized PBE GGA exchange.
Initalized PBE GGA correlation.

---------- Setting up pseudopotentials ----------
Width of ionic core gaussian charges (only for fluid interactions / plotting) set to 0

Reading pseudopotential file '/home/gridsan/aligho/DFT/build-Nov24/pseudopotentials/SG15/C_ONCV_PBE.upf':
  'C' pseudopotential, 'PBE' functional
  Generated using ONCVPSP code by D. R. Hamann
  Author: Martin Schlipf and Francois Gygi  Date: 150915.
  4 valence electrons, 2 orbitals, 4 projectors, 1248 radial grid points, with lMax = 1
  Transforming local potential to a uniform radial grid of dG=0.02 with 1495 points.
  Transforming nonlocal projectors to a uniform radial grid of dG=0.02 with 432 points.
    2S    l: 0   occupation:  2.0   eigenvalue: -0.505335
    2P    l: 1   occupation:  2.0   eigenvalue: -0.194238
  Transforming atomic orbitals to a uniform radial grid of dG=0.02 with 432 points.
  Core radius for overlap checks: 1.23 bohrs.
  Reading pulay file /home/gridsan/aligho/DFT/build-Nov24/pseudopotentials/SG15/C_ONCV_PBE.pulay ... using dE_dnG = -9.239532e-03 computed for Ecut = 20.

Reading pseudopotential file '/home/gridsan/aligho/DFT/build-Nov24/pseudopotentials/SG15/N_ONCV_PBE.upf':
  'N' pseudopotential, 'PBE' functional
  Generated using ONCVPSP code by D. R. Hamann
  Author: Martin Schlipf and Francois Gygi  Date: 150915.
  5 valence electrons, 2 orbitals, 4 projectors, 1058 radial grid points, with lMax = 1
  Transforming local potential to a uniform radial grid of dG=0.02 with 1495 points.
  Transforming nonlocal projectors to a uniform radial grid of dG=0.02 with 432 points.
    2S    l: 0   occupation:  2.0   eigenvalue: -0.682907
    2P    l: 1   occupation:  3.0   eigenvalue: -0.260548
  Transforming atomic orbitals to a uniform radial grid of dG=0.02 with 432 points.
  Core radius for overlap checks: 1.35 bohrs.
  Reading pulay file /home/gridsan/aligho/DFT/build-Nov24/pseudopotentials/SG15/N_ONCV_PBE.pulay ... using dE_dnG = -2.956256e-02 computed for Ecut = 20.

Reading pseudopotential file '/home/gridsan/aligho/DFT/build-Nov24/pseudopotentials/SG15/B_ONCV_PBE.upf':
  'B' pseudopotential, 'PBE' functional
  Generated using ONCVPSP code by D. R. Hamann
  Author: Martin Schlipf and Francois Gygi  Date: 150915.
  3 valence electrons, 2 orbitals, 4 projectors, 1534 radial grid points, with lMax = 1
  Transforming local potential to a uniform radial grid of dG=0.02 with 1495 points.
  Transforming nonlocal projectors to a uniform radial grid of dG=0.02 with 432 points.
    2S    l: 0   occupation:  2.0   eigenvalue: -0.347027
    2P    l: 1   occupation:  1.0   eigenvalue: -0.132548
  Transforming atomic orbitals to a uniform radial grid of dG=0.02 with 432 points.
  Core radius for overlap checks: 1.60 bohrs.
  Reading pulay file /home/gridsan/aligho/DFT/build-Nov24/pseudopotentials/SG15/B_ONCV_PBE.pulay ... using dE_dnG = -3.748568e-04 computed for Ecut = 20.

Initialized 3 species with 18 total atoms.

Folded 1 k-points by 12x12x1 to 144 k-points.

---------- Setting up k-points, bands, fillings ----------
Adding inversion symmetry to k-mesh for non-inversion-symmetric unit cell.
Reduced to 19 k-points under symmetry. 
Computing the number of bands and number of electrons
Calculating initial fillings.
nElectrons:  73.800000   nBands: 72   nStates: 38

----- Setting up reduced wavefunction bases (one per k-point) -----
average nbasis = 29490.146 , ideal nbasis = 29490.175

---------- Setting up coulomb interaction ----------
Initialized slab truncation along lattice direction 001

---------- Setting up 2D ewald sum ----------
Optimum gaussian width for ewald sums = 7.836854 bohr.
Real space sums over 289 unit cells with max indices [  8  8  0  ]
Reciprocal space sums over 81 terms with max indices [  4  4  0  ]

---------- Allocating electronic variables ----------
Initializing wave functions:  linear combination of atomic orbitals
C pseudo-atom occupations:   s ( 2 )  p ( 2 )
N pseudo-atom occupations:   s ( 2 )  p ( 3 )
B pseudo-atom occupations:   s ( 2 )  p ( 1 )
[d-18-6-3:14498] 37 more processes have sent help message help-mpi-common-cuda.txt / dlopen failed
[d-18-6-3:14498] Set MCA parameter "orte_base_help_aggregate" to 0 to see all help / error messages
[d-18-6-3:14498] 37 more processes have sent help message help-mpi-btl-openib-cpc-base.txt / no cpcs for port
	FillingsUpdate:  mu: -0.232246441  nElectrons: 73.800000  magneticMoment: [ Abs: 0.81201  Tot: +0.71390 ]
LCAOMinimize: Iter:   0  F: -116.7224132811884374  |grad|_K:  4.165e-03  alpha:  1.000e+00
	FillingsUpdate:  mu: -0.223015780  nElectrons: 73.800000  magneticMoment: [ Abs: 0.80386  Tot: +0.71389 ]
LCAOMinimize: Iter:   1  F: -117.3555063290700531  |grad|_K:  6.630e-04  alpha:  4.197e-01  linmin:  2.160e-01  cgtest: -6.427e-01  t[s]:     25.13
	FillingsUpdate:  mu: -0.202433090  nElectrons: 73.800000  magneticMoment: [ Abs: 0.61357  Tot: +0.50833 ]
LCAOMinimize: Iter:   2  F: -117.3613654397404815  |grad|_K:  4.188e-04  alpha:  1.974e-01  linmin:  3.787e-03  cgtest:  6.895e-01  t[s]:     32.70
LCAOMinimize: Encountered beta<0, resetting CG.
	FillingsUpdate:  mu: -0.206048944  nElectrons: 73.800000  magneticMoment: [ Abs: 0.70783  Tot: +0.61293 ]
LCAOMinimize: Iter:   3  F: -117.3682819638441401  |grad|_K:  7.600e-05  alpha:  3.947e-01  linmin:  2.825e-03  cgtest: -1.477e-01  t[s]:     40.31
	FillingsUpdate:  mu: -0.205731645  nElectrons: 73.800000  magneticMoment: [ Abs: 0.61573  Tot: +0.50833 ]
LCAOMinimize: Iter:   4  F: -117.3683694102951023  |grad|_K:  5.288e-05  alpha:  2.615e-01  linmin: -6.469e-02  cgtest: -1.082e-01  t[s]:     47.86
	FillingsUpdate:  mu: -0.205999195  nElectrons: 73.800000  magneticMoment: [ Abs: 0.61719  Tot: +0.50833 ]
LCAOMinimize: Iter:   5  F: -117.3684362728690047  |grad|_K:  1.771e-05  alpha:  2.057e-01  linmin:  9.660e-04  cgtest:  2.646e-01  t[s]:     55.37
LCAOMinimize: 	Wrong curvature in test step, increasing alphaT to 6.171108e-01.
	FillingsUpdate:  mu: -0.206120763  nElectrons: 73.800000  magneticMoment: [ Abs: 0.61258  Tot: +0.50463 ]
LCAOMinimize: Iter:   6  F: -117.3684499937191674  |grad|_K:  4.651e-05  alpha: -2.064e+00  linmin: -2.428e-02  cgtest:  2.314e-01  t[s]:     62.81
LCAOMinimize: 	Step increased F by 1.007366e-04, reducing alpha to 2.701755e-02.
	FillingsUpdate:  mu: -0.206264256  nElectrons: 73.800000  magneticMoment: [ Abs: 0.60190  Tot: +0.49444 ]
LCAOMinimize: Iter:   7  F: -117.3684653966367080  |grad|_K:  8.278e-06  alpha:  2.702e-02  linmin: -1.403e-01  cgtest:  5.378e+00  t[s]:     75.53
LCAOMinimize: Encountered beta<0, resetting CG.
LCAOMinimize: 	Predicted alpha/alphaT>3.000000, increasing alphaT to 8.105266e-02.
LCAOMinimize: 	Predicted alpha/alphaT>3.000000, increasing alphaT to 2.431580e-01.
LCAOMinimize: 	Predicted alpha/alphaT>3.000000, increasing alphaT to 7.294739e-01.
	FillingsUpdate:  mu: -0.206513127  nElectrons: 73.800000  magneticMoment: [ Abs: 0.56899  Tot: +0.46389 ]
LCAOMinimize: Iter:   8  F: -117.3684799206799738  |grad|_K:  2.202e-05  alpha:  9.147e-01  linmin:  1.158e-02  cgtest: -1.137e-01  t[s]:     87.88
	FillingsUpdate:  mu: -0.206536047  nElectrons: 73.800000  magneticMoment: [ Abs: 0.56697  Tot: +0.46389 ]
LCAOMinimize: Iter:   9  F: -117.3684822160961261  |grad|_K:  2.146e-05  alpha:  4.145e-02  linmin: -1.510e-02  cgtest:  9.953e-01  t[s]:     95.45
LCAOMinimize: Encountered beta<0, resetting CG.
LCAOMinimize: 	Predicted alpha/alphaT>3.000000, increasing alphaT to 1.243616e-01.
	FillingsUpdate:  mu: -0.207035716  nElectrons: 73.800000  magneticMoment: [ Abs: 0.56394  Tot: +0.46389 ]
LCAOMinimize: Iter:  10  F: -117.3684917725886265  |grad|_K:  1.603e-05  alpha:  2.514e-01  linmin:  1.538e-01  cgtest: -8.854e-01  t[s]:    105.39
LCAOMinimize: 	Bad step direction: g.d > 0.
LCAOMinimize: 	Undoing step.
LCAOMinimize: 	Step failed: resetting search direction.
	FillingsUpdate:  mu: -0.207035716  nElectrons: 73.800000  magneticMoment: [ Abs: 0.56394  Tot: +0.46389 ]
LCAOMinimize: Iter:  11  F: -117.3684917725886265  |grad|_K:  1.603e-05  alpha:  0.000e+00
	FillingsUpdate:  mu: -0.206738798  nElectrons: 73.800000  magneticMoment: [ Abs: 0.56334  Tot: +0.46389 ]
LCAOMinimize: Iter:  12  F: -117.3684961582689681  |grad|_K:  1.013e-05  alpha:  1.036e-01  linmin: -1.448e-01  cgtest:  9.606e-01  t[s]:    118.25
LCAOMinimize: Encountered beta<0, resetting CG.
LCAOMinimize: 	Step increased F by 4.658349e-06, reducing alpha to 2.602670e-02.
	FillingsUpdate:  mu: -0.206690064  nElectrons: 73.800000  magneticMoment: [ Abs: 0.56321  Tot: +0.46389 ]
LCAOMinimize: Iter:  13  F: -117.3684966804532195  |grad|_K:  9.242e-06  alpha:  2.603e-02  linmin: -9.905e-02  cgtest:  9.838e-01  t[s]:    131.01
LCAOMinimize: Encountered beta<0, resetting CG.
LCAOMinimize: 	Predicted alpha/alphaT>3.000000, increasing alphaT to 7.808010e-02.
LCAOMinimize: 	Predicted alpha/alphaT>3.000000, increasing alphaT to 2.342403e-01.
	FillingsUpdate:  mu: -0.206555351  nElectrons: 73.800000  magneticMoment: [ Abs: 0.56290  Tot: +0.46389 ]
LCAOMinimize: Iter:  14  F: -117.3684979196074636  |grad|_K:  5.787e-06  alpha:  8.688e-02  linmin: -1.125e-01  cgtest:  9.209e-01  t[s]:    143.35
LCAOMinimize: Encountered beta<0, resetting CG.
LCAOMinimize: 	Predicted alpha/alphaT>3.000000, increasing alphaT to 2.606321e-01.
	FillingsUpdate:  mu: -0.206671976  nElectrons: 73.800000  magneticMoment: [ Abs: 0.56015  Tot: +0.46389 ]
LCAOMinimize: Iter:  15  F: -117.3684998231575065  |grad|_K:  9.260e-06  alpha:  5.965e-01  linmin:  1.350e-03  cgtest:  5.135e-03  t[s]:    153.26
	FillingsUpdate:  mu: -0.206768011  nElectrons: 73.800000  magneticMoment: [ Abs: 0.55779  Tot: +0.46389 ]
LCAOMinimize: Iter:  16  F: -117.3684999178088049  |grad|_K:  8.020e-06  alpha:  1.796e-01  linmin:  3.488e-02  cgtest:  1.550e+00  t[s]:    160.81
LCAOMinimize: Encountered beta<0, resetting CG.
	FillingsUpdate:  mu: -0.206748570  nElectrons: 73.800000  magneticMoment: [ Abs: 0.55777  Tot: +0.46389 ]
LCAOMinimize: Iter:  17  F: -117.3685015866367536  |grad|_K:  1.685e-06  alpha:  2.563e-01  linmin:  1.223e-03  cgtest: -5.535e-03  t[s]:    168.41
LCAOMinimize: 	Predicted alpha/alphaT>3.000000, increasing alphaT to 7.689732e-01.
	FillingsUpdate:  mu: -0.206751966  nElectrons: 73.800000  magneticMoment: [ Abs: 0.55745  Tot: +0.46389 ]
LCAOMinimize: Iter:  18  F: -117.3685018299228773  |grad|_K:  1.291e-06  alpha:  8.480e-01  linmin:  6.516e-05  cgtest:  2.534e-03  t[s]:    178.34
	FillingsUpdate:  mu: -0.206783120  nElectrons: 73.800000  magneticMoment: [ Abs: 0.55726  Tot: +0.46389 ]
LCAOMinimize: Iter:  19  F: -117.3685019644165948  |grad|_K:  4.057e-07  alpha:  7.968e-01  linmin:  1.752e-04  cgtest: -1.256e-03  t[s]:    185.90
LCAOMinimize: Converged (|Delta F|<1.000000e-06 for 2 iters).


---- Citations for features of the code used in this run ----

   Software package:
      R. Sundararaman, K. Letchworth-Weaver, K.A. Schwarz, D. Gunceler, Y. Ozhabes and T.A. Arias, 'JDFTx: software for joint density-functional theory', SoftwareX 6, 278 (2017)

   gga-PBE exchange-correlation functional:
      J.P. Perdew, K. Burke and M. Ernzerhof, Phys. Rev. Lett. 77, 3865 (1996)

   Pseudopotentials:
      M Schlipf and F Gygi, Comput. Phys. Commun. 196, 36 (2015)

   Truncated Coulomb potentials:
      R. Sundararaman and T.A. Arias, Phys. Rev. B 87, 165122 (2013)

This list may not be complete. Please suggest additional citations or
report any other bugs at https://github.com/shankar1729/jdftx/issues

Initialization completed successfully at t[s]:    186.65


-------- Electronic minimization -----------
Will mix electronic density at each iteration.
	FillingsUpdate:  mu: -0.206783120  nElectrons: 73.800000  magneticMoment: [ Abs: 0.55726  Tot: +0.46389 ]
	FillingsUpdate:  mu: -0.225606921  nElectrons: 73.800000  magneticMoment: [ Abs: 0.55726  Tot: +0.46389 ]
SCF: Cycle:  0   F: -118.225939675521985   dF: -8.574e-01   |Residual|: 3.216e-01   |deigs|: 1.267e-01  t[s]:    207.80
	FillingsUpdate:  mu: -0.325029458  nElectrons: 73.800000  magneticMoment: [ Abs: 0.51792  Tot: +0.44919 ]
SCF: Cycle:  1   F: -117.562163072615348   dF: +6.638e-01   |Residual|: 2.511e-01   |deigs|: 6.340e-02  t[s]:    223.56
	FillingsUpdate:  mu: -0.378902843  nElectrons: 73.800000  magneticMoment: [ Abs: 0.51156  Tot: +0.43515 ]
SCF: Cycle:  2   F: -116.790729324990096   dF: +7.714e-01   |Residual|: 2.065e-01   |deigs|: 5.766e-02  t[s]:    239.28
	FillingsUpdate:  mu: -0.384685937  nElectrons: 73.800000  magneticMoment: [ Abs: 0.54994  Tot: +0.42626 ]
SCF: Cycle:  3   F: -116.842675984321218   dF: -5.195e-02   |Residual|: 1.929e-01   |deigs|: 1.891e-02  t[s]:    255.05
	FillingsUpdate:  mu: -0.386924584  nElectrons: 73.800000  magneticMoment: [ Abs: 1.18747  Tot: +0.36850 ]
SCF: Cycle:  4   F: -117.547404011203312   dF: -7.047e-01   |Residual|: 1.473e-01   |deigs|: 2.513e-02  t[s]:    270.85
	FillingsUpdate:  mu: -0.365296671  nElectrons: 73.800000  magneticMoment: [ Abs: 1.70241  Tot: +0.22450 ]
SCF: Cycle:  5   F: -117.585453375884839   dF: -3.805e-02   |Residual|: 9.304e-02   |deigs|: 2.525e-02  t[s]:    286.64
	FillingsUpdate:  mu: -0.352594048  nElectrons: 73.800000  magneticMoment: [ Abs: 1.92878  Tot: +0.01777 ]
SCF: Cycle:  6   F: -118.332501487944299   dF: -7.470e-01   |Residual|: 1.392e-01   |deigs|: 2.953e-02  t[s]:    302.64
	FillingsUpdate:  mu: -0.347319503  nElectrons: 73.800000  magneticMoment: [ Abs: 1.72313  Tot: +0.03960 ]
SCF: Cycle:  7   F: -118.307382167867033   dF: +2.512e-02   |Residual|: 8.655e-02   |deigs|: 6.932e-03  t[s]:    318.54
	FillingsUpdate:  mu: -0.345344970  nElectrons: 73.800000  magneticMoment: [ Abs: 1.74505  Tot: +0.05461 ]
SCF: Cycle:  8   F: -118.281030755589995   dF: +2.635e-02   |Residual|: 6.302e-02   |deigs|: 2.432e-03  t[s]:    334.55
	FillingsUpdate:  mu: -0.341362012  nElectrons: 73.800000  magneticMoment: [ Abs: 1.64445  Tot: +0.01828 ]
SCF: Cycle:  9   F: -118.334159194654021   dF: -5.313e-02   |Residual|: 3.899e-02   |deigs|: 4.881e-03  t[s]:    350.69
	FillingsUpdate:  mu: -0.341949522  nElectrons: 73.800000  magneticMoment: [ Abs: 1.67673  Tot: -0.00022 ]
SCF: Cycle: 10   F: -118.361887838300234   dF: -2.773e-02   |Residual|: 2.647e-02   |deigs|: 6.826e-03  t[s]:    366.91
	FillingsUpdate:  mu: -0.344195689  nElectrons: 73.800000  magneticMoment: [ Abs: 1.74872  Tot: -0.00681 ]
SCF: Cycle: 11   F: -118.367035740720837   dF: -5.148e-03   |Residual|: 2.089e-02   |deigs|: 7.668e-03  t[s]:    383.24
	FillingsUpdate:  mu: -0.345703301  nElectrons: 73.800000  magneticMoment: [ Abs: 1.66386  Tot: +0.00756 ]
SCF: Cycle: 12   F: -118.363761413693112   dF: +3.274e-03   |Residual|: 3.091e-02   |deigs|: 3.143e-03  t[s]:    399.62
	FillingsUpdate:  mu: -0.346518488  nElectrons: 73.800000  magneticMoment: [ Abs: 1.65497  Tot: +0.04349 ]
SCF: Cycle: 13   F: -118.369310095849912   dF: -5.549e-03   |Residual|: 1.635e-02   |deigs|: 3.358e-03  t[s]:    415.96
	FillingsUpdate:  mu: -0.348682435  nElectrons: 73.800000  magneticMoment: [ Abs: 1.70795  Tot: +0.07072 ]
SCF: Cycle: 14   F: -118.370045738512715   dF: -7.356e-04   |Residual|: 1.215e-02   |deigs|: 1.648e-03  t[s]:    432.18
	FillingsUpdate:  mu: -0.348837750  nElectrons: 73.800000  magneticMoment: [ Abs: 1.71572  Tot: +0.06080 ]
SCF: Cycle: 15   F: -118.369893168477759   dF: +1.526e-04   |Residual|: 1.265e-02   |deigs|: 1.322e-03  t[s]:    448.42
	FillingsUpdate:  mu: -0.348727177  nElectrons: 73.800000  magneticMoment: [ Abs: 1.73135  Tot: +0.06295 ]
SCF: Cycle: 16   F: -118.369979318183013   dF: -8.615e-05   |Residual|: 1.230e-02   |deigs|: 7.686e-04  t[s]:    464.72
	FillingsUpdate:  mu: -0.348452277  nElectrons: 73.800000  magneticMoment: [ Abs: 1.73202  Tot: +0.07063 ]
SCF: Cycle: 17   F: -118.369981794276313   dF: -2.476e-06   |Residual|: 1.326e-02   |deigs|: 2.266e-03  t[s]:    481.00
	FillingsUpdate:  mu: -0.345968217  nElectrons: 73.800000  magneticMoment: [ Abs: 1.75906  Tot: +0.08950 ]
SCF: Cycle: 18   F: -118.369118486717738   dF: +8.633e-04   |Residual|: 1.554e-02   |deigs|: 3.807e-03  t[s]:    497.35
	FillingsUpdate:  mu: -0.346753163  nElectrons: 73.800000  magneticMoment: [ Abs: 1.71341  Tot: +0.12559 ]
SCF: Cycle: 19   F: -118.369911965899817   dF: -7.935e-04   |Residual|: 1.202e-02   |deigs|: 1.645e-03  t[s]:    513.64
	FillingsUpdate:  mu: -0.346444957  nElectrons: 73.800000  magneticMoment: [ Abs: 1.70877  Tot: +0.14936 ]
SCF: Cycle: 20   F: -118.369850457769118   dF: +6.151e-05   |Residual|: 1.173e-02   |deigs|: 1.111e-03  t[s]:    529.90
	FillingsUpdate:  mu: -0.345941799  nElectrons: 73.800000  magneticMoment: [ Abs: 1.72815  Tot: +0.16466 ]
SCF: Cycle: 21   F: -118.370189755603278   dF: -3.393e-04   |Residual|: 9.891e-03   |deigs|: 1.159e-03  t[s]:    546.17
	FillingsUpdate:  mu: -0.346037930  nElectrons: 73.800000  magneticMoment: [ Abs: 1.73447  Tot: +0.17058 ]
SCF: Cycle: 22   F: -118.369396526439360   dF: +7.932e-04   |Residual|: 9.584e-03   |deigs|: 8.288e-04  t[s]:    562.46
	FillingsUpdate:  mu: -0.347550966  nElectrons: 73.800000  magneticMoment: [ Abs: 1.83529  Tot: +0.20060 ]
SCF: Cycle: 23   F: -118.370054086479016   dF: -6.576e-04   |Residual|: 3.919e-03   |deigs|: 5.829e-03  t[s]:    578.73
	FillingsUpdate:  mu: -0.347749934  nElectrons: 73.800000  magneticMoment: [ Abs: 1.85505  Tot: +0.19739 ]
SCF: Cycle: 24   F: -118.370333048757530   dF: -2.790e-04   |Residual|: 3.412e-03   |deigs|: 2.211e-03  t[s]:    594.98
	FillingsUpdate:  mu: -0.348751967  nElectrons: 73.800000  magneticMoment: [ Abs: 1.87125  Tot: +0.19600 ]
SCF: Cycle: 25   F: -118.370547564058825   dF: -2.145e-04   |Residual|: 3.779e-03   |deigs|: 8.017e-04  t[s]:    611.34
	FillingsUpdate:  mu: -0.348316796  nElectrons: 73.800000  magneticMoment: [ Abs: 1.87912  Tot: +0.20071 ]
SCF: Cycle: 26   F: -118.370531478799194   dF: +1.609e-05   |Residual|: 3.580e-03   |deigs|: 8.401e-04  t[s]:    627.54
	FillingsUpdate:  mu: -0.348285391  nElectrons: 73.800000  magneticMoment: [ Abs: 1.87965  Tot: +0.20165 ]
SCF: Cycle: 27   F: -118.370522567627546   dF: +8.911e-06   |Residual|: 3.590e-03   |deigs|: 3.452e-04  t[s]:    643.72
	FillingsUpdate:  mu: -0.348214738  nElectrons: 73.800000  magneticMoment: [ Abs: 1.87870  Tot: +0.20295 ]
SCF: Cycle: 28   F: -118.370386896781653   dF: +1.357e-04   |Residual|: 3.063e-03   |deigs|: 1.756e-04  t[s]:    660.04
	FillingsUpdate:  mu: -0.348294486  nElectrons: 73.800000  magneticMoment: [ Abs: 1.87841  Tot: +0.20506 ]
SCF: Cycle: 29   F: -118.370389598548698   dF: -2.702e-06   |Residual|: 2.861e-03   |deigs|: 4.178e-04  t[s]:    676.19
	FillingsUpdate:  mu: -0.348298077  nElectrons: 73.800000  magneticMoment: [ Abs: 1.87428  Tot: +0.21908 ]
SCF: Cycle: 30   F: -118.370393087968736   dF: -3.489e-06   |Residual|: 2.535e-03   |deigs|: 5.940e-04  t[s]:    692.37
	FillingsUpdate:  mu: -0.348679575  nElectrons: 73.800000  magneticMoment: [ Abs: 1.85813  Tot: +0.23797 ]
SCF: Cycle: 31   F: -118.370544286376983   dF: -1.512e-04   |Residual|: 2.866e-03   |deigs|: 8.863e-04  t[s]:    708.67
	FillingsUpdate:  mu: -0.349484755  nElectrons: 73.800000  magneticMoment: [ Abs: 1.83227  Tot: +0.25849 ]
SCF: Cycle: 32   F: -118.370598157545444   dF: -5.387e-05   |Residual|: 3.572e-03   |deigs|: 9.191e-04  t[s]:    724.96
	FillingsUpdate:  mu: -0.349484749  nElectrons: 73.800000  magneticMoment: [ Abs: 1.82275  Tot: +0.26409 ]
SCF: Cycle: 33   F: -118.370569317664675   dF: +2.884e-05   |Residual|: 3.491e-03   |deigs|: 1.214e-03  t[s]:    741.32
	FillingsUpdate:  mu: -0.349585871  nElectrons: 73.800000  magneticMoment: [ Abs: 1.78224  Tot: +0.29438 ]
SCF: Cycle: 34   F: -118.370565822103103   dF: +3.496e-06   |Residual|: 3.046e-03   |deigs|: 3.597e-04  t[s]:    757.64
	FillingsUpdate:  mu: -0.349612482  nElectrons: 73.800000  magneticMoment: [ Abs: 1.76234  Tot: +0.31733 ]
SCF: Cycle: 35   F: -118.370541709061655   dF: +2.411e-05   |Residual|: 2.745e-03   |deigs|: 1.047e-03  t[s]:    773.93
	FillingsUpdate:  mu: -0.349457151  nElectrons: 73.800000  magneticMoment: [ Abs: 1.75105  Tot: +0.32845 ]
SCF: Cycle: 36   F: -118.370522584059842   dF: +1.913e-05   |Residual|: 2.649e-03   |deigs|: 2.603e-04  t[s]:    790.22
	FillingsUpdate:  mu: -0.349435952  nElectrons: 73.800000  magneticMoment: [ Abs: 1.74958  Tot: +0.33013 ]
SCF: Cycle: 37   F: -118.370519622489141   dF: +2.962e-06   |Residual|: 2.637e-03   |deigs|: 3.953e-05  t[s]:    806.33
	FillingsUpdate:  mu: -0.349216092  nElectrons: 73.800000  magneticMoment: [ Abs: 1.71880  Tot: +0.37533 ]
SCF: Cycle: 38   F: -118.370581543666987   dF: -6.192e-05   |Residual|: 2.206e-03   |deigs|: 1.338e-03  t[s]:    822.54
	FillingsUpdate:  mu: -0.348947946  nElectrons: 73.800000  magneticMoment: [ Abs: 1.67165  Tot: +0.42689 ]
SCF: Cycle: 39   F: -118.370597593361694   dF: -1.605e-05   |Residual|: 1.691e-03   |deigs|: 7.029e-04  t[s]:    838.73
	FillingsUpdate:  mu: -0.348782676  nElectrons: 73.800000  magneticMoment: [ Abs: 1.68235  Tot: +0.41309 ]
SCF: Cycle: 40   F: -118.370613212903223   dF: -1.562e-05   |Residual|: 1.329e-03   |deigs|: 8.726e-04  t[s]:    854.92
	FillingsUpdate:  mu: -0.348481455  nElectrons: 73.800000  magneticMoment: [ Abs: 1.65674  Tot: +0.43803 ]
SCF: Cycle: 41   F: -118.370641673207629   dF: -2.846e-05   |Residual|: 8.160e-04   |deigs|: 1.174e-03  t[s]:    871.06
	FillingsUpdate:  mu: -0.348198904  nElectrons: 73.800000  magneticMoment: [ Abs: 1.62978  Tot: +0.46562 ]
SCF: Cycle: 42   F: -118.370647848702546   dF: -6.175e-06   |Residual|: 5.306e-04   |deigs|: 3.404e-04  t[s]:    887.26
	FillingsUpdate:  mu: -0.348131993  nElectrons: 73.800000  magneticMoment: [ Abs: 1.62904  Tot: +0.46520 ]
SCF: Cycle: 43   F: -118.370654226525133   dF: -6.378e-06   |Residual|: 5.531e-04   |deigs|: 1.345e-04  t[s]:    903.50
	FillingsUpdate:  mu: -0.348048880  nElectrons: 73.800000  magneticMoment: [ Abs: 1.63000  Tot: +0.46502 ]
SCF: Cycle: 44   F: -118.370658934691733   dF: -4.708e-06   |Residual|: 4.695e-04   |deigs|: 3.375e-04  t[s]:    919.75
	FillingsUpdate:  mu: -0.348089820  nElectrons: 73.800000  magneticMoment: [ Abs: 1.62960  Tot: +0.46470 ]
SCF: Cycle: 45   F: -118.370654651892139   dF: +4.283e-06   |Residual|: 4.998e-04   |deigs|: 8.048e-05  t[s]:    935.81
	FillingsUpdate:  mu: -0.348094994  nElectrons: 73.800000  magneticMoment: [ Abs: 1.63040  Tot: +0.46494 ]
SCF: Cycle: 46   F: -118.370659397851654   dF: -4.746e-06   |Residual|: 4.672e-04   |deigs|: 1.572e-04  t[s]:    951.93
	FillingsUpdate:  mu: -0.348107371  nElectrons: 73.800000  magneticMoment: [ Abs: 1.63193  Tot: +0.46484 ]
SCF: Cycle: 47   F: -118.370664128367665   dF: -4.731e-06   |Residual|: 4.136e-04   |deigs|: 3.574e-04  t[s]:    968.13
	FillingsUpdate:  mu: -0.348097689  nElectrons: 73.800000  magneticMoment: [ Abs: 1.63238  Tot: +0.46499 ]
SCF: Cycle: 48   F: -118.370674016813084   dF: -9.888e-06   |Residual|: 4.034e-04   |deigs|: 2.285e-04  t[s]:    984.22
	FillingsUpdate:  mu: -0.348149420  nElectrons: 73.800000  magneticMoment: [ Abs: 1.63246  Tot: +0.46453 ]
SCF: Cycle: 49   F: -118.370669124942822   dF: +4.892e-06   |Residual|: 4.419e-04   |deigs|: 1.298e-04  t[s]:   1000.34
	FillingsUpdate:  mu: -0.348193829  nElectrons: 73.800000  magneticMoment: [ Abs: 1.63156  Tot: +0.46557 ]
SCF: Cycle: 50   F: -118.370673440108064   dF: -4.315e-06   |Residual|: 4.221e-04   |deigs|: 1.516e-04  t[s]:   1016.70
	FillingsUpdate:  mu: -0.348178655  nElectrons: 73.800000  magneticMoment: [ Abs: 1.63192  Tot: +0.46548 ]
SCF: Cycle: 51   F: -118.370673704455214   dF: -2.643e-07   |Residual|: 4.341e-04   |deigs|: 5.616e-05  t[s]:   1032.68
	FillingsUpdate:  mu: -0.348225758  nElectrons: 73.800000  magneticMoment: [ Abs: 1.63315  Tot: +0.46328 ]
SCF: Cycle: 52   F: -118.370671596879774   dF: +2.108e-06   |Residual|: 4.217e-04   |deigs|: 1.729e-04  t[s]:   1048.88
	FillingsUpdate:  mu: -0.348256292  nElectrons: 73.800000  magneticMoment: [ Abs: 1.63568  Tot: +0.45967 ]
SCF: Cycle: 53   F: -118.370672885501094   dF: -1.289e-06   |Residual|: 5.201e-04   |deigs|: 1.047e-04  t[s]:   1065.17
	FillingsUpdate:  mu: -0.348253268  nElectrons: 73.800000  magneticMoment: [ Abs: 1.63035  Tot: +0.46470 ]
SCF: Cycle: 54   F: -118.370674002249743   dF: -1.117e-06   |Residual|: 5.078e-04   |deigs|: 1.229e-04  t[s]:   1081.37
	FillingsUpdate:  mu: -0.348189175  nElectrons: 73.800000  magneticMoment: [ Abs: 1.62987  Tot: +0.46478 ]
SCF: Cycle: 55   F: -118.370672914218986   dF: +1.088e-06   |Residual|: 4.912e-04   |deigs|: 1.023e-04  t[s]:   1097.68
	FillingsUpdate:  mu: -0.348234227  nElectrons: 73.800000  magneticMoment: [ Abs: 1.62866  Tot: +0.46277 ]
SCF: Cycle: 56   F: -118.370680277774724   dF: -7.364e-06   |Residual|: 5.210e-04   |deigs|: 2.638e-04  t[s]:   1113.91
	FillingsUpdate:  mu: -0.348265813  nElectrons: 73.800000  magneticMoment: [ Abs: 1.62918  Tot: +0.46393 ]
SCF: Cycle: 57   F: -118.370692339209114   dF: -1.206e-05   |Residual|: 6.170e-04   |deigs|: 2.112e-04  t[s]:   1129.98
	FillingsUpdate:  mu: -0.348286740  nElectrons: 73.800000  magneticMoment: [ Abs: 1.62949  Tot: +0.46351 ]
SCF: Cycle: 58   F: -118.370700776811120   dF: -8.438e-06   |Residual|: 6.836e-04   |deigs|: 2.116e-04  t[s]:   1146.14
	FillingsUpdate:  mu: -0.348330490  nElectrons: 73.800000  magneticMoment: [ Abs: 1.63002  Tot: +0.46352 ]
SCF: Cycle: 59   F: -118.370708977304389   dF: -8.200e-06   |Residual|: 8.286e-04   |deigs|: 3.095e-04  t[s]:   1162.34
	FillingsUpdate:  mu: -0.348294999  nElectrons: 73.800000  magneticMoment: [ Abs: 1.62907  Tot: +0.46392 ]
SCF: Cycle: 60   F: -118.370715545781835   dF: -6.568e-06   |Residual|: 8.623e-04   |deigs|: 2.078e-04  t[s]:   1178.52
	FillingsUpdate:  mu: -0.348320132  nElectrons: 73.800000  magneticMoment: [ Abs: 1.62882  Tot: +0.46381 ]
SCF: Cycle: 61   F: -118.370717525431516   dF: -1.980e-06   |Residual|: 9.634e-04   |deigs|: 2.380e-04  t[s]:   1194.86
	FillingsUpdate:  mu: -0.348304247  nElectrons: 73.800000  magneticMoment: [ Abs: 1.62963  Tot: +0.46341 ]
SCF: Cycle: 62   F: -118.370716368707591   dF: +1.157e-06   |Residual|: 8.498e-04   |deigs|: 2.354e-04  t[s]:   1210.92
	FillingsUpdate:  mu: -0.348299911  nElectrons: 73.800000  magneticMoment: [ Abs: 1.62968  Tot: +0.46339 ]
SCF: Cycle: 63   F: -118.370717658216762   dF: -1.290e-06   |Residual|: 8.225e-04   |deigs|: 1.036e-04  t[s]:   1226.94
	FillingsUpdate:  mu: -0.348291267  nElectrons: 73.800000  magneticMoment: [ Abs: 1.62916  Tot: +0.46386 ]
SCF: Cycle: 64   F: -118.370716739141301   dF: +9.191e-07   |Residual|: 8.036e-04   |deigs|: 1.085e-04  t[s]:   1243.01
	FillingsUpdate:  mu: -0.348297456  nElectrons: 73.800000  magneticMoment: [ Abs: 1.62762  Tot: +0.46497 ]
SCF: Cycle: 65   F: -118.370717458028750   dF: -7.189e-07   |Residual|: 8.197e-04   |deigs|: 6.951e-05  t[s]:   1259.03
	FillingsUpdate:  mu: -0.348298053  nElectrons: 73.800000  magneticMoment: [ Abs: 1.62756  Tot: +0.46525 ]
SCF: Cycle: 66   F: -118.370718861152838   dF: -1.403e-06   |Residual|: 8.296e-04   |deigs|: 7.191e-05  t[s]:   1275.15
	FillingsUpdate:  mu: -0.348291663  nElectrons: 73.800000  magneticMoment: [ Abs: 1.62790  Tot: +0.46496 ]
SCF: Cycle: 67   F: -118.370719990482741   dF: -1.129e-06   |Residual|: 8.307e-04   |deigs|: 1.619e-04  t[s]:   1291.13
	FillingsUpdate:  mu: -0.348275099  nElectrons: 73.800000  magneticMoment: [ Abs: 1.62901  Tot: +0.46379 ]
SCF: Cycle: 68   F: -118.370720817120301   dF: -8.266e-07   |Residual|: 7.957e-04   |deigs|: 1.586e-04  t[s]:   1307.16
	FillingsUpdate:  mu: -0.348274674  nElectrons: 73.800000  magneticMoment: [ Abs: 1.63245  Tot: +0.46199 ]
SCF: Cycle: 69   F: -118.370719355011587   dF: +1.462e-06   |Residual|: 8.043e-04   |deigs|: 1.926e-04  t[s]:   1323.25
	FillingsUpdate:  mu: -0.348275726  nElectrons: 73.800000  magneticMoment: [ Abs: 1.63092  Tot: +0.46273 ]
SCF: Cycle: 70   F: -118.370718825633034   dF: +5.294e-07   |Residual|: 8.148e-04   |deigs|: 1.017e-04  t[s]:   1339.37
	FillingsUpdate:  mu: -0.348282542  nElectrons: 73.800000  magneticMoment: [ Abs: 1.63075  Tot: +0.46257 ]
SCF: Cycle: 71   F: -118.370718013356324   dF: +8.123e-07   |Residual|: 8.377e-04   |deigs|: 1.531e-04  t[s]:   1355.47
	FillingsUpdate:  mu: -0.348271446  nElectrons: 73.800000  magneticMoment: [ Abs: 1.63154  Tot: +0.46252 ]
SCF: Cycle: 72   F: -118.370718971926550   dF: -9.586e-07   |Residual|: 8.229e-04   |deigs|: 2.258e-04  t[s]:   1371.50
	FillingsUpdate:  mu: -0.348264692  nElectrons: 73.800000  magneticMoment: [ Abs: 1.63011  Tot: +0.46129 ]
SCF: Cycle: 73   F: -118.370717206617471   dF: +1.765e-06   |Residual|: 9.175e-04   |deigs|: 2.005e-04  t[s]:   1387.39
	FillingsUpdate:  mu: -0.348271335  nElectrons: 73.800000  magneticMoment: [ Abs: 1.64002  Tot: +0.46041 ]
SCF: Cycle: 74   F: -118.370717099696620   dF: +1.069e-07   |Residual|: 5.757e-04   |deigs|: 1.526e-04  t[s]:   1403.21
	FillingsUpdate:  mu: -0.348284525  nElectrons: 73.800000  magneticMoment: [ Abs: 1.64556  Tot: +0.45956 ]
SCF: Cycle: 75   F: -118.370717515062722   dF: -4.154e-07   |Residual|: 3.777e-04   |deigs|: 1.453e-04  t[s]:   1419.39
	FillingsUpdate:  mu: -0.348274303  nElectrons: 73.800000  magneticMoment: [ Abs: 1.64852  Tot: +0.45859 ]
SCF: Cycle: 76   F: -118.370721030999150   dF: -3.516e-06   |Residual|: 2.855e-04   |deigs|: 5.479e-04  t[s]:   1435.46
	FillingsUpdate:  mu: -0.348273176  nElectrons: 73.800000  magneticMoment: [ Abs: 1.63957  Tot: +0.46276 ]
SCF: Cycle: 77   F: -118.370720975159983   dF: +5.584e-08   |Residual|: 1.673e-04   |deigs|: 8.095e-05  t[s]:   1450.75
	FillingsUpdate:  mu: -0.348274505  nElectrons: 73.800000  magneticMoment: [ Abs: 1.64003  Tot: +0.46418 ]
SCF: Cycle: 78   F: -118.370721135504425   dF: -1.603e-07   |Residual|: 6.409e-05   |deigs|: 6.654e-05  t[s]:   1467.16
	FillingsUpdate:  mu: -0.348277819  nElectrons: 73.800000  magneticMoment: [ Abs: 1.64107  Tot: +0.46410 ]
SCF: Cycle: 79   F: -118.370721174223902   dF: -3.872e-08   |Residual|: 4.103e-05   |deigs|: 4.869e-05  t[s]:   1483.46
	FillingsUpdate:  mu: -0.348282113  nElectrons: 73.800000  magneticMoment: [ Abs: 1.64136  Tot: +0.46413 ]
SCF: Cycle: 80   F: -118.370720810526848   dF: +3.637e-07   |Residual|: 2.498e-05   |deigs|: 1.189e-04  t[s]:   1499.56
	FillingsUpdate:  mu: -0.348283984  nElectrons: 73.800000  magneticMoment: [ Abs: 1.64173  Tot: +0.46407 ]
SCF: Cycle: 81   F: -118.370720808534131   dF: +1.993e-09   |Residual|: 1.863e-05   |deigs|: 4.940e-05  t[s]:   1515.68
	FillingsUpdate:  mu: -0.348283099  nElectrons: 73.800000  magneticMoment: [ Abs: 1.64162  Tot: +0.46394 ]
SCF: Cycle: 82   F: -118.370720708996075   dF: +9.954e-08   |Residual|: 1.495e-05   |deigs|: 9.925e-05  t[s]:   1531.81
	FillingsUpdate:  mu: -0.348280865  nElectrons: 73.800000  magneticMoment: [ Abs: 1.64153  Tot: +0.46394 ]
SCF: Cycle: 83   F: -118.370720609289990   dF: +9.971e-08   |Residual|: 1.318e-05   |deigs|: 7.727e-05  t[s]:   1548.01
	FillingsUpdate:  mu: -0.348282821  nElectrons: 73.800000  magneticMoment: [ Abs: 1.64149  Tot: +0.46394 ]
SCF: Cycle: 84   F: -118.370720758791506   dF: -1.495e-07   |Residual|: 1.152e-05   |deigs|: 3.962e-05  t[s]:   1564.20
	FillingsUpdate:  mu: -0.348280515  nElectrons: 73.800000  magneticMoment: [ Abs: 1.64149  Tot: +0.46395 ]
SCF: Cycle: 85   F: -118.370720818582114   dF: -5.979e-08   |Residual|: 1.027e-05   |deigs|: 3.879e-05  t[s]:   1580.36
	FillingsUpdate:  mu: -0.348285278  nElectrons: 73.800000  magneticMoment: [ Abs: 1.64142  Tot: +0.46393 ]
SCF: Cycle: 86   F: -118.370720726060156   dF: +9.252e-08   |Residual|: 2.560e-05   |deigs|: 8.482e-05  t[s]:   1596.59
	FillingsUpdate:  mu: -0.348288841  nElectrons: 73.800000  magneticMoment: [ Abs: 1.64147  Tot: +0.46395 ]
SCF: Cycle: 87   F: -118.370720894564414   dF: -1.685e-07   |Residual|: 2.610e-05   |deigs|: 6.113e-05  t[s]:   1612.66
	FillingsUpdate:  mu: -0.348283582  nElectrons: 73.800000  magneticMoment: [ Abs: 1.64147  Tot: +0.46393 ]
SCF: Cycle: 88   F: -118.370721252076478   dF: -3.575e-07   |Residual|: 2.559e-05   |deigs|: 1.142e-04  t[s]:   1628.67
	FillingsUpdate:  mu: -0.348283341  nElectrons: 73.800000  magneticMoment: [ Abs: 1.64151  Tot: +0.46394 ]
SCF: Cycle: 89   F: -118.370721201049619   dF: +5.103e-08   |Residual|: 3.456e-05   |deigs|: 1.297e-04  t[s]:   1644.70
	FillingsUpdate:  mu: -0.348278799  nElectrons: 73.800000  magneticMoment: [ Abs: 1.64152  Tot: +0.46394 ]
SCF: Cycle: 90   F: -118.370721450198999   dF: -2.491e-07   |Residual|: 3.729e-05   |deigs|: 5.181e-05  t[s]:   1660.81
	FillingsUpdate:  mu: -0.348274910  nElectrons: 73.800000  magneticMoment: [ Abs: 1.64151  Tot: +0.46394 ]
SCF: Cycle: 91   F: -118.370721066717110   dF: +3.835e-07   |Residual|: 3.443e-05   |deigs|: 7.975e-05  t[s]:   1677.06
	FillingsUpdate:  mu: -0.348272937  nElectrons: 73.800000  magneticMoment: [ Abs: 1.64150  Tot: +0.46395 ]
SCF: Cycle: 92   F: -118.370721607751051   dF: -5.410e-07   |Residual|: 3.277e-05   |deigs|: 8.169e-05  t[s]:   1693.28
	FillingsUpdate:  mu: -0.348260977  nElectrons: 73.800000  magneticMoment: [ Abs: 1.64149  Tot: +0.46394 ]
SCF: Cycle: 93   F: -118.370721380702548   dF: +2.270e-07   |Residual|: 3.973e-05   |deigs|: 5.295e-05  t[s]:   1709.54
	FillingsUpdate:  mu: -0.348249435  nElectrons: 73.800000  magneticMoment: [ Abs: 1.64150  Tot: +0.46394 ]
SCF: Cycle: 94   F: -118.370721998292552   dF: -6.176e-07   |Residual|: 5.566e-05   |deigs|: 1.401e-04  t[s]:   1725.73
	FillingsUpdate:  mu: -0.348245284  nElectrons: 73.800000  magneticMoment: [ Abs: 1.64151  Tot: +0.46394 ]
SCF: Cycle: 95   F: -118.370721947138463   dF: +5.115e-08   |Residual|: 6.182e-05   |deigs|: 2.885e-05  t[s]:   1741.63
	FillingsUpdate:  mu: -0.348238849  nElectrons: 73.800000  magneticMoment: [ Abs: 1.64147  Tot: +0.46392 ]
SCF: Cycle: 96   F: -118.370722049174091   dF: -1.020e-07   |Residual|: 7.229e-05   |deigs|: 5.322e-05  t[s]:   1757.87
	FillingsUpdate:  mu: -0.348237595  nElectrons: 73.800000  magneticMoment: [ Abs: 1.64142  Tot: +0.46390 ]
SCF: Cycle: 97   F: -118.370721723947256   dF: +3.252e-07   |Residual|: 8.062e-05   |deigs|: 4.605e-05  t[s]:   1774.01
	FillingsUpdate:  mu: -0.348241926  nElectrons: 73.800000  magneticMoment: [ Abs: 1.64133  Tot: +0.46388 ]
SCF: Cycle: 98   F: -118.370721435294712   dF: +2.887e-07   |Residual|: 6.688e-05   |deigs|: 9.361e-05  t[s]:   1789.95
	FillingsUpdate:  mu: -0.348244759  nElectrons: 73.800000  magneticMoment: [ Abs: 1.64126  Tot: +0.46391 ]
SCF: Cycle: 99   F: -118.370721906416080   dF: -4.711e-07   |Residual|: 6.532e-05   |deigs|: 5.094e-05  t[s]:   1806.26
	FillingsUpdate:  mu: -0.348244112  nElectrons: 73.800000  magneticMoment: [ Abs: 1.64126  Tot: +0.46393 ]
SCF: Cycle: 100   F: -118.370721925195923   dF: -1.878e-08   |Residual|: 6.960e-05   |deigs|: 1.319e-05  t[s]:   1822.22
	FillingsUpdate:  mu: -0.348242207  nElectrons: 73.800000  magneticMoment: [ Abs: 1.64129  Tot: +0.46394 ]
SCF: Cycle: 101   F: -118.370721989407556   dF: -6.421e-08   |Residual|: 7.308e-05   |deigs|: 2.006e-05  t[s]:   1838.31
	FillingsUpdate:  mu: -0.348243656  nElectrons: 73.800000  magneticMoment: [ Abs: 1.64129  Tot: +0.46396 ]
SCF: Cycle: 102   F: -118.370722063100132   dF: -7.369e-08   |Residual|: 7.488e-05   |deigs|: 1.479e-05  t[s]:   1854.52
	FillingsUpdate:  mu: -0.348244407  nElectrons: 73.800000  magneticMoment: [ Abs: 1.64132  Tot: +0.46397 ]
SCF: Cycle: 103   F: -118.370722040224095   dF: +2.288e-08   |Residual|: 7.825e-05   |deigs|: 9.561e-06  t[s]:   1870.66
	FillingsUpdate:  mu: -0.348243316  nElectrons: 73.800000  magneticMoment: [ Abs: 1.64135  Tot: +0.46395 ]
SCF: Cycle: 104   F: -118.370721742800768   dF: +2.974e-07   |Residual|: 7.476e-05   |deigs|: 5.208e-05  t[s]:   1886.81
	FillingsUpdate:  mu: -0.348241625  nElectrons: 73.800000  magneticMoment: [ Abs: 1.64135  Tot: +0.46393 ]
SCF: Cycle: 105   F: -118.370722029873917   dF: -2.871e-07   |Residual|: 7.208e-05   |deigs|: 4.634e-05  t[s]:   1902.94
	FillingsUpdate:  mu: -0.348239739  nElectrons: 73.800000  magneticMoment: [ Abs: 1.64119  Tot: +0.46390 ]
SCF: Cycle: 106   F: -118.370721948136108   dF: +8.174e-08   |Residual|: 6.462e-05   |deigs|: 3.823e-05  t[s]:   1918.84
	FillingsUpdate:  mu: -0.348239370  nElectrons: 73.800000  magneticMoment: [ Abs: 1.64086  Tot: +0.46382 ]
SCF: Cycle: 107   F: -118.370721699355968   dF: +2.488e-07   |Residual|: 5.170e-05   |deigs|: 4.592e-05  t[s]:   1935.08
	FillingsUpdate:  mu: -0.348236541  nElectrons: 73.800000  magneticMoment: [ Abs: 1.64062  Tot: +0.46379 ]
SCF: Cycle: 108   F: -118.370721963516729   dF: -2.642e-07   |Residual|: 4.863e-05   |deigs|: 5.465e-05  t[s]:   1951.05
	FillingsUpdate:  mu: -0.348235809  nElectrons: 73.800000  magneticMoment: [ Abs: 1.64035  Tot: +0.46379 ]
SCF: Cycle: 109   F: -118.370721988477655   dF: -2.496e-08   |Residual|: 4.423e-05   |deigs|: 2.080e-05  t[s]:   1966.96
	FillingsUpdate:  mu: -0.348235924  nElectrons: 73.800000  magneticMoment: [ Abs: 1.63998  Tot: +0.46380 ]
SCF: Cycle: 110   F: -118.370721936418548   dF: +5.206e-08   |Residual|: 3.313e-05   |deigs|: 2.464e-05  t[s]:   1983.04
	FillingsUpdate:  mu: -0.348237630  nElectrons: 73.800000  magneticMoment: [ Abs: 1.63976  Tot: +0.46379 ]
SCF: Cycle: 111   F: -118.370721925357799   dF: +1.106e-08   |Residual|: 2.159e-05   |deigs|: 4.596e-05  t[s]:   1999.26
	FillingsUpdate:  mu: -0.348236405  nElectrons: 73.800000  magneticMoment: [ Abs: 1.63979  Tot: +0.46382 ]
SCF: Cycle: 112   F: -118.370722137305123   dF: -2.119e-07   |Residual|: 1.028e-05   |deigs|: 3.530e-05  t[s]:   2015.37
	FillingsUpdate:  mu: -0.348236150  nElectrons: 73.800000  magneticMoment: [ Abs: 1.63984  Tot: +0.46384 ]
SCF: Cycle: 113   F: -118.370722140836619   dF: -3.531e-09   |Residual|: 8.209e-06   |deigs|: 1.849e-05  t[s]:   2031.40
	FillingsUpdate:  mu: -0.348236409  nElectrons: 73.800000  magneticMoment: [ Abs: 1.63978  Tot: +0.46385 ]
SCF: Cycle: 114   F: -118.370722108153032   dF: +3.268e-08   |Residual|: 6.292e-06   |deigs|: 2.902e-05  t[s]:   2047.64
	FillingsUpdate:  mu: -0.348237048  nElectrons: 73.800000  magneticMoment: [ Abs: 1.63982  Tot: +0.46386 ]
SCF: Cycle: 115   F: -118.370722175870597   dF: -6.772e-08   |Residual|: 5.757e-06   |deigs|: 2.774e-05  t[s]:   2063.85
	FillingsUpdate:  mu: -0.348236906  nElectrons: 73.800000  magneticMoment: [ Abs: 1.63989  Tot: +0.46387 ]
SCF: Cycle: 116   F: -118.370722209004199   dF: -3.313e-08   |Residual|: 3.853e-06   |deigs|: 1.701e-05  t[s]:   2080.12
	FillingsUpdate:  mu: -0.348237370  nElectrons: 73.800000  magneticMoment: [ Abs: 1.63994  Tot: +0.46388 ]
SCF: Cycle: 117   F: -118.370722213194739   dF: -4.191e-09   |Residual|: 2.702e-06   |deigs|: 8.324e-06  t[s]:   2096.27
	FillingsUpdate:  mu: -0.348237243  nElectrons: 73.800000  magneticMoment: [ Abs: 1.63995  Tot: +0.46388 ]
SCF: Cycle: 118   F: -118.370722221987037   dF: -8.792e-09   |Residual|: 3.795e-06   |deigs|: 1.002e-05  t[s]:   2112.58
SCF: Converged (|Delta E|<1.000000e-08 for 2 iters).


# Ionic positions in lattice coordinates:
ion C  -0.000000000000000   0.000000000000000   0.000000000000000 1
ion N   0.108900118656067   0.217800237312134   0.000000000000000 1
ion N   0.111440932313158   0.555720466156579   0.000000000000000 1
ion N   0.108900118656067   0.891099881343933   0.000000000000000 1
ion N   0.444600551142632   0.222300275571316   0.000000000000000 1
ion N   0.444279533843421   0.555720466156579   0.000000000000000 1
ion N   0.444279533843421   0.888559067686842   0.000000000000000 1
ion N   0.777699724428684   0.222300275571316   0.000000000000000 1
ion N   0.777699724428684   0.555399448857368   0.000000000000000 1
ion N   0.782199762687866   0.891099881343933   0.000000000000000 1
ion B  -0.000409163333578   0.332352225367090   0.000000000000000 1
ion B  -0.000409163333578   0.667238611299332   0.000000000000000 1
ion B   0.332761388700668   0.000409163333578   0.000000000000000 1
ion B   0.332761388700668   0.332352225367090   0.000000000000000 1
ion B   0.333333333333333   0.666666666666667   0.000000000000000 1
ion B   0.667647774632910   0.000409163333578   0.000000000000000 1
ion B   0.666666666666667   0.333333333333333   0.000000000000000 1
ion B   0.667647774632910   0.667238611299332   0.000000000000000 1

# Forces in Lattice coordinates:
force C  -0.000000000000000   0.000000000000000   0.000000000000000 1
force N   0.000000000000000  -0.004614520963769  -0.000000000000000 1
force N   0.000279571735941  -0.000000000000000   0.000000000000000 1
force N  -0.004614520963769   0.004614520963769  -0.000000000000000 1
force N   0.000924866338555   0.000000000000000   0.000000000000000 1
force N  -0.000279571735941   0.000279571735941   0.000000000000000 1
force N  -0.000000000000000  -0.000279571735941  -0.000000000000000 1
force N  -0.000924866338554   0.000924866338555   0.000000000000000 1
force N   0.000000000000000  -0.000924866338554   0.000000000000000 1
force N   0.004614520963767   0.000000000000000  -0.000000000000000 1
force B  -0.001362749862752   0.001245191545700   0.000000000000000 1
force B  -0.000117558317052  -0.001245191545700  -0.000000000000000 1
force B   0.001245191545701   0.000117558317051  -0.000000000000000 1
force B   0.001362749862752  -0.000117558317051  -0.000000000000000 1
force B   0.000000000000000  -0.000000000000000   0.000000000000000 1
force B  -0.001245191545700   0.001362749862752   0.000000000000000 1
force B   0.000000000000000   0.000000000000000   0.000000000000000 1
force B   0.000117558317052  -0.001362749862752   0.000000000000000 1

# Energy components:
   Eewald =     -185.5884594997991428
       EH =     -113.4406485799202642
     Eloc =      135.7500275833658918
      Enl =       -5.2779016238024186
   Epulay =       -0.0000011688465181
      Exc =      -33.8184702865532643
       KE =       84.0047316080955113
-------------------------------------
     Etot =     -118.3707219674602413
       TS =        0.0000002545267925
-------------------------------------
        F =     -118.3707222219870374

IonicMinimize: Iter:   0  F: -118.370722221987037  |grad|_K:  9.764e-05  t[s]:   2114.08
IonicMinimize: Converged (|grad|_K<1.000000e-04).

#--- Lowdin population analysis ---
# oxidation-state C +0.276
# magnetic-moments C +0.567
# oxidation-state N -0.271 -0.374 -0.271 -0.381 -0.374 -0.374 -0.381 -0.381 -0.271
# magnetic-moments N +0.002 -0.006 +0.002 +0.020 -0.006 -0.006 +0.020 +0.020 +0.002
# oxidation-state B +0.426 +0.426 +0.426 +0.426 +0.435 +0.426 +0.432 +0.426
# magnetic-moments B +0.047 +0.047 +0.047 +0.047 +0.029 +0.047 +0.036 +0.047


Dumping 'BN33BC.0.8.fillings' ... done
Dumping 'BN33BC.0.8.wfns' ... done
Dumping 'BN33BC.0.8.n_up' ... done
Dumping 'BN33BC.0.8.n_dn' ... done
Dumping 'BN33BC.0.8.eigenvals' ... done
End date and time: Tue Feb  1 18:18:48 2022  (Duration: 0-0:35:19.76)
Done!
