0.89
--------------------------------------------------------------------------
The library attempted to open the following supporting CUDA libraries,
but each of them failed.  CUDA-aware support is disabled.
libcuda.so.1: cannot open shared object file: No such file or directory
libcuda.dylib: cannot open shared object file: No such file or directory
/usr/lib64/libcuda.so.1: cannot open shared object file: No such file or directory
/usr/lib64/libcuda.dylib: cannot open shared object file: No such file or directory
If you are not interested in CUDA-aware support, then run with
--mca opal_warn_on_missing_libcuda 0 to suppress this message.  If you are interested
in CUDA-aware support, then try setting LD_LIBRARY_PATH to the location
of libcuda.so.1 to get passed this issue.
--------------------------------------------------------------------------
--------------------------------------------------------------------------
No OpenFabrics connection schemes reported that they were able to be
used on a specific port.  As such, the openib BTL (OpenFabrics
support) will be disabled for this port.

  Local host:           d-5-14-2
  Local device:         mlx5_1
  Local port:           1
  CPCs attempted:       rdmacm, udcm
--------------------------------------------------------------------------

*************** JDFTx 1.6.0 (git hash 42ebbcc2) ***************

Start date and time: Sun Jan 16 15:01:47 2022
Executable jdftx with command-line: -i Sodium.in
Running on hosts (process indices):  d-5-14-2 (0-18)
Divided in process groups (process indices):  0 (0)  1 (1)  2 (2)  3 (3)  4 (4)  5 (5)  6 (6)  7 (7)  8 (8)  9 (9)  10 (10)  11 (11)  12 (12)  13 (13)  14 (14)  15 (15)  16 (16)  17 (17)  18 (18)
Resource initialization completed at t[s]:      0.00
Run totals: 19 processes, 48 threads, 0 GPUs


Input parsed successfully to the following command list (including defaults):

basis kpoint-dependent
coords-type Lattice
core-overlap-check vector
coulomb-interaction Slab 001
davidson-band-ratio 1.1
dump End None
dump-name $INPUT.$VAR
elec-cutoff 20
elec-eigen-algo Davidson
elec-ex-corr gga-PBE
elec-smearing Fermi 0.01
electronic-minimize  \
	dirUpdateScheme      FletcherReeves \
	linminMethod         DirUpdateRecommended \
	nIterations          100 \
	history              15 \
	knormThreshold       0 \
	energyDiffThreshold  1e-08 \
	nEnergyDiff          2 \
	alphaTstart          1 \
	alphaTmin            1e-10 \
	updateTestStepSize   yes \
	alphaTreduceFactor   0.1 \
	alphaTincreaseFactor 3 \
	nAlphaAdjustMax      3 \
	wolfeEnergy          0.0001 \
	wolfeGradient        0.9 \
	fdTest               no
electronic-scf  \
	nIterations	10000 \
	energyDiffThreshold	1e-08 \
	residualThreshold	1e-07 \
	mixFraction	0.5 \
	qMetric	0.8 \
	history	10 \
	nEigSteps	2 \
	eigDiffThreshold	1e-08 \
	mixedVariable	Density \
	qKerker	0.8 \
	qKappa	-1 \
	verbose	no \
	mixFractionMag	1.5
exchange-regularization WignerSeitzTruncated
fluid None
fluid-ex-corr (null) lda-PZ
fluid-gummel-loop 10 1.000000e-05
fluid-minimize  \
	dirUpdateScheme      PolakRibiere \
	linminMethod         DirUpdateRecommended \
	nIterations          100 \
	history              15 \
	knormThreshold       0 \
	energyDiffThreshold  0 \
	nEnergyDiff          2 \
	alphaTstart          1 \
	alphaTmin            1e-10 \
	updateTestStepSize   yes \
	alphaTreduceFactor   0.1 \
	alphaTincreaseFactor 3 \
	nAlphaAdjustMax      3 \
	wolfeEnergy          0.0001 \
	wolfeGradient        0.9 \
	fdTest               no
fluid-solvent H2O 55.338 ScalarEOS \
	epsBulk 78.4 \
	pMol 0.92466 \
	epsInf 1.77 \
	Pvap 1.06736e-10 \
	sigmaBulk 4.62e-05 \
	Rvdw 2.61727 \
	Res 1.42 \
	tauNuc 343133 \
	poleEl 15 7 1
forces-output-coords Positions
ion Na   0.000000000000000   0.000000000000000   0.000000000000000 0
ion-species SG15/$ID_ONCV_PBE.upf
ion-width 0
ionic-minimize  \
	dirUpdateScheme      L-BFGS \
	linminMethod         DirUpdateRecommended \
	nIterations          0 \
	history              15 \
	knormThreshold       0.0001 \
	energyDiffThreshold  1e-06 \
	nEnergyDiff          2 \
	alphaTstart          1 \
	alphaTmin            1e-10 \
	updateTestStepSize   yes \
	alphaTreduceFactor   0.1 \
	alphaTincreaseFactor 3 \
	nAlphaAdjustMax      3 \
	wolfeEnergy          0.0001 \
	wolfeGradient        0.9 \
	fdTest               no
kpoint   0.000000000000   0.000000000000   0.000000000000  1.00000000000000
kpoint-folding 12 12 1 
latt-move-scale 1 1 1
latt-scale 0.89 0.89 1 
lattice  \
	   4.727486978767154   -2.363743489383575    0.000000000000000  \
	  -0.000000000000000    4.094123819672498    0.000000000000000  \
	   0.000000000000000    0.000000000000000   40.000000000000000 
lattice-minimize  \
	dirUpdateScheme      L-BFGS \
	linminMethod         DirUpdateRecommended \
	nIterations          0 \
	history              15 \
	knormThreshold       0 \
	energyDiffThreshold  1e-06 \
	nEnergyDiff          2 \
	alphaTstart          1 \
	alphaTmin            1e-10 \
	updateTestStepSize   yes \
	alphaTreduceFactor   0.1 \
	alphaTincreaseFactor 3 \
	nAlphaAdjustMax      3 \
	wolfeEnergy          0.0001 \
	wolfeGradient        0.9 \
	fdTest               no
lcao-params -1 1e-06 0.01
pcm-variant GLSSA13
spintype no-spin
subspace-rotation-factor 1 yes
symmetries automatic
symmetry-threshold 0.0001



---------- Setting up symmetries ----------

Found 24 point-group symmetries of the bravais lattice
Found 24 space-group symmetries with basis
Applied RMS atom displacement 0 bohrs to make symmetries exact.

---------- Initializing the Grid ----------
R = 
[      4.20746     -2.10373            0  ]
[            0      3.64377            0  ]
[            0            0           40  ]
unit cell volume = 613.241
G =
[    1.49334   0.862182         -0  ]
[          0    1.72436         -0  ]
[         -0         -0    0.15708  ]
Minimum fftbox size, Smin = [  20  20  164  ]
Chosen fftbox size, S = [  20  20  168  ]

---------- Exchange Correlation functional ----------
Initalized PBE GGA exchange.
Initalized PBE GGA correlation.

---------- Setting up pseudopotentials ----------
Width of ionic core gaussian charges (only for fluid interactions / plotting) set to 0

Reading pseudopotential file '/home/gridsan/aligho/DFT/build-Nov24/pseudopotentials/SG15/Na_ONCV_PBE.upf':
  'Na' pseudopotential, 'PBE' functional
  Generated using ONCVPSP code by D. R. Hamann
  Author: Martin Schlipf and Francois Gygi  Date: 150915.
  9 valence electrons, 3 orbitals, 4 projectors, 1992 radial grid points, with lMax = 1
  Transforming local potential to a uniform radial grid of dG=0.02 with 1638 points.
  Transforming nonlocal projectors to a uniform radial grid of dG=0.02 with 432 points.
    2S    l: 0   occupation:  2.0   eigenvalue: -2.085640
    2P    l: 1   occupation:  6.0   eigenvalue: -1.053708
    3S    l: 0   occupation:  1.0   eigenvalue: -0.100838
  Transforming atomic orbitals to a uniform radial grid of dG=0.02 with 432 points.
  Core radius for overlap checks: 2.01 bohrs.
  Reading pulay file /home/gridsan/aligho/DFT/build-Nov24/pseudopotentials/SG15/Na_ONCV_PBE.pulay ... using dE_dnG = -2.946487e-03 computed for Ecut = 20.

Initialized 1 species with 1 total atoms.

Folded 1 k-points by 12x12x1 to 144 k-points.

---------- Setting up k-points, bands, fillings ----------
Reduced to 19 k-points under symmetry. 
Computing the number of bands and number of electrons
Calculating initial fillings.
nElectrons:   9.000000   nBands: 6   nStates: 19

----- Setting up reduced wavefunction bases (one per k-point) -----
average nbasis = 2620.604 , ideal nbasis = 2619.813

---------- Setting up coulomb interaction ----------
Initialized slab truncation along lattice direction 001

---------- Setting up 2D ewald sum ----------
Optimum gaussian width for ewald sums = 2.335814 bohr.
Real space sums over 289 unit cells with max indices [  8  8  0  ]
Reciprocal space sums over 81 terms with max indices [  4  4  0  ]

---------- Allocating electronic variables ----------
Initializing wave functions:  linear combination of atomic orbitals
Note: number of bands (6) exceeds available atomic orbitals (5)
Na pseudo-atom occupations:   s ( 2 1 )  p ( 6 )
	FillingsUpdate:  mu: -0.137952474  nElectrons: 9.000000
LCAOMinimize: Iter:   0  F: -42.4627031524897021  |grad|_K:  1.189e-04  alpha:  1.000e+00
	FillingsUpdate:  mu: -0.137756838  nElectrons: 9.000000
LCAOMinimize: Iter:   1  F: -42.4627079328801997  |grad|_K:  1.330e-06  alpha:  9.881e-01  linmin: -5.816e-02  cgtest:  4.821e-01  t[s]:      1.06
LCAOMinimize: Encountered beta<0, resetting CG.
	FillingsUpdate:  mu: -0.137756272  nElectrons: 9.000000
LCAOMinimize: Iter:   2  F: -42.4627079334777804  |grad|_K:  2.007e-08  alpha:  9.887e-01  linmin: -1.003e-02  cgtest:  3.065e-01  t[s]:      1.28
LCAOMinimize: Encountered beta<0, resetting CG.
LCAOMinimize: 	Wrong curvature in test step, increasing alphaT to 2.966229e+00.
	FillingsUpdate:  mu: -0.137756242  nElectrons: 9.000000
LCAOMinimize: Iter:   3  F: -42.4627079334803383  |grad|_K:  3.355e-10  alpha: -5.889e-02  linmin: -6.218e-03  cgtest:  2.243e-01  t[s]:      1.49
LCAOMinimize: Encountered beta<0, resetting CG.
LCAOMinimize: Converged (|Delta F|<1.000000e-06 for 2 iters).


---- Citations for features of the code used in this run ----

   Software package:
      R. Sundararaman, K. Letchworth-Weaver, K.A. Schwarz, D. Gunceler, Y. Ozhabes and T.A. Arias, 'JDFTx: software for joint density-functional theory', SoftwareX 6, 278 (2017)

   gga-PBE exchange-correlation functional:
      J.P. Perdew, K. Burke and M. Ernzerhof, Phys. Rev. Lett. 77, 3865 (1996)

   Pseudopotentials:
      M Schlipf and F Gygi, Comput. Phys. Commun. 196, 36 (2015)

   Truncated Coulomb potentials:
      R. Sundararaman and T.A. Arias, Phys. Rev. B 87, 165122 (2013)

This list may not be complete. Please suggest additional citations or
report any other bugs at https://github.com/shankar1729/jdftx/issues

Initialization completed successfully at t[s]:      1.51


-------- Electronic minimization -----------
Will mix electronic density at each iteration.
	FillingsUpdate:  mu: -0.137756242  nElectrons: 9.000000
	FillingsUpdate:  mu: -0.154251337  nElectrons: 9.000000
SCF: Cycle:  0   F: -42.473613346969174   dF: -1.091e-02   |Residual|: 3.287e-02   |deigs|: 1.737e-01  t[s]:      1.86
	FillingsUpdate:  mu: -0.162277369  nElectrons: 9.000000
SCF: Cycle:  1   F: -42.481703564741281   dF: -8.090e-03   |Residual|: 1.618e-02   |deigs|: 2.600e-02  t[s]:      2.09
	FillingsUpdate:  mu: -0.169522941  nElectrons: 9.000000
SCF: Cycle:  2   F: -42.486091691618341   dF: -4.388e-03   |Residual|: 4.653e-03   |deigs|: 1.676e-02  t[s]:      2.33
	FillingsUpdate:  mu: -0.176198784  nElectrons: 9.000000
SCF: Cycle:  3   F: -42.487614035998533   dF: -1.522e-03   |Residual|: 4.497e-03   |deigs|: 1.967e-02  t[s]:      2.57
	FillingsUpdate:  mu: -0.177677709  nElectrons: 9.000000
SCF: Cycle:  4   F: -42.488353697666732   dF: -7.397e-04   |Residual|: 2.559e-03   |deigs|: 8.412e-03  t[s]:      2.81
	FillingsUpdate:  mu: -0.177716149  nElectrons: 9.000000
SCF: Cycle:  5   F: -42.488509456223824   dF: -1.558e-04   |Residual|: 1.525e-03   |deigs|: 3.700e-03  t[s]:      3.05
	FillingsUpdate:  mu: -0.173247096  nElectrons: 9.000000
SCF: Cycle:  6   F: -42.488530332972566   dF: -2.088e-05   |Residual|: 2.913e-03   |deigs|: 4.033e-03  t[s]:      3.29
	FillingsUpdate:  mu: -0.173814793  nElectrons: 9.000000
SCF: Cycle:  7   F: -42.488558443830435   dF: -2.811e-05   |Residual|: 2.827e-03   |deigs|: 4.566e-03  t[s]:      3.54
	FillingsUpdate:  mu: -0.171278531  nElectrons: 9.000000
SCF: Cycle:  8   F: -42.488561690642747   dF: -3.247e-06   |Residual|: 4.015e-03   |deigs|: 4.210e-03  t[s]:      3.79
	FillingsUpdate:  mu: -0.167434850  nElectrons: 9.000000
SCF: Cycle:  9   F: -42.488560557950045   dF: +1.133e-06   |Residual|: 1.986e-03   |deigs|: 2.582e-03  t[s]:      4.04
	FillingsUpdate:  mu: -0.167273243  nElectrons: 9.000000
SCF: Cycle: 10   F: -42.488560554103465   dF: +3.847e-09   |Residual|: 1.898e-03   |deigs|: 6.222e-04  t[s]:      4.29
	FillingsUpdate:  mu: -0.162344207  nElectrons: 9.000000
SCF: Cycle: 11   F: -42.488554774124779   dF: +5.780e-06   |Residual|: 1.847e-03   |deigs|: 4.674e-03  t[s]:      4.54
	FillingsUpdate:  mu: -0.162009094  nElectrons: 9.000000
SCF: Cycle: 12   F: -42.488556263445901   dF: -1.489e-06   |Residual|: 7.164e-04   |deigs|: 2.643e-04  t[s]:      4.79
[d-5-14-2:73356] 18 more processes have sent help message help-mpi-common-cuda.txt / dlopen failed
[d-5-14-2:73356] Set MCA parameter "orte_base_help_aggregate" to 0 to see all help / error messages
[d-5-14-2:73356] 18 more processes have sent help message help-mpi-btl-openib-cpc-base.txt / no cpcs for port
	FillingsUpdate:  mu: -0.154082693  nElectrons: 9.000000
SCF: Cycle: 13   F: -42.488567210114105   dF: -1.095e-05   |Residual|: 2.721e-03   |deigs|: 8.729e-03  t[s]:      5.03
	FillingsUpdate:  mu: -0.154709652  nElectrons: 9.000000
SCF: Cycle: 14   F: -42.488567155650827   dF: +5.446e-08   |Residual|: 6.530e-04   |deigs|: 8.438e-04  t[s]:      5.28
	FillingsUpdate:  mu: -0.153958061  nElectrons: 9.000000
SCF: Cycle: 15   F: -42.488568147011328   dF: -9.914e-07   |Residual|: 7.540e-04   |deigs|: 1.095e-03  t[s]:      5.53
	FillingsUpdate:  mu: -0.151762805  nElectrons: 9.000000
SCF: Cycle: 16   F: -42.488568468329646   dF: -3.213e-07   |Residual|: 4.075e-04   |deigs|: 2.290e-03  t[s]:      5.77
	FillingsUpdate:  mu: -0.152250557  nElectrons: 9.000000
SCF: Cycle: 17   F: -42.488568541804788   dF: -7.348e-08   |Residual|: 3.917e-04   |deigs|: 7.750e-04  t[s]:      6.01
	FillingsUpdate:  mu: -0.152233422  nElectrons: 9.000000
SCF: Cycle: 18   F: -42.488568567870885   dF: -2.607e-08   |Residual|: 1.009e-04   |deigs|: 1.139e-04  t[s]:      6.26
	FillingsUpdate:  mu: -0.152104619  nElectrons: 9.000000
SCF: Cycle: 19   F: -42.488568580475537   dF: -1.260e-08   |Residual|: 4.312e-05   |deigs|: 2.046e-04  t[s]:      6.51
	FillingsUpdate:  mu: -0.152200128  nElectrons: 9.000000
SCF: Cycle: 20   F: -42.488568583102939   dF: -2.627e-09   |Residual|: 1.415e-05   |deigs|: 1.483e-04  t[s]:      6.76
	FillingsUpdate:  mu: -0.152213327  nElectrons: 9.000000
SCF: Cycle: 21   F: -42.488568583412174   dF: -3.092e-10   |Residual|: 4.875e-06   |deigs|: 1.841e-04  t[s]:      7.00
SCF: Converged (|Delta E|<1.000000e-08 for 2 iters).


# Ionic positions in lattice coordinates:
ion Na   0.000000000000000   0.000000000000000   0.000000000000000 0

# Forces in Lattice coordinates:
force Na  -0.000000000000000   0.000000000000000   0.000000000000000 0

# Energy components:
   Eewald =      -40.5573620232194614
       EH =       -7.9087048917261109
     Eloc =        3.3253116734849155
      Enl =      -12.9594866616838331
   Epulay =        0.0000038008772936
      Exc =       -6.3348715250883281
       KE =       21.9498135173829034
-------------------------------------
     Etot =      -42.4852961099726087
       TS =        0.0032724734395690
-------------------------------------
        F =      -42.4885685834121745

IonicMinimize: Iter:   0  F: -42.488568583412174  |grad|_K:  0.000e+00  t[s]:      7.02
IonicMinimize: Converged (|grad|_K<1.000000e-04).

#--- Lowdin population analysis ---
# oxidation-state Na +0.256

End date and time: Sun Jan 16 15:01:54 2022  (Duration: 0-0:00:07.02)
Done!
