0.8
--------------------------------------------------------------------------
The library attempted to open the following supporting CUDA libraries,
but each of them failed.  CUDA-aware support is disabled.
libcuda.so.1: cannot open shared object file: No such file or directory
libcuda.dylib: cannot open shared object file: No such file or directory
/usr/lib64/libcuda.so.1: cannot open shared object file: No such file or directory
/usr/lib64/libcuda.dylib: cannot open shared object file: No such file or directory
If you are not interested in CUDA-aware support, then run with
--mca opal_warn_on_missing_libcuda 0 to suppress this message.  If you are interested
in CUDA-aware support, then try setting LD_LIBRARY_PATH to the location
of libcuda.so.1 to get passed this issue.
--------------------------------------------------------------------------
--------------------------------------------------------------------------
No OpenFabrics connection schemes reported that they were able to be
used on a specific port.  As such, the openib BTL (OpenFabrics
support) will be disabled for this port.

  Local host:           d-5-3-1
  Local device:         mlx5_1
  Local port:           1
  CPCs attempted:       rdmacm, udcm
--------------------------------------------------------------------------

*************** JDFTx 1.6.0 (git hash 42ebbcc2) ***************

Start date and time: Sun Jan 16 15:01:47 2022
Executable jdftx with command-line: -i Sodium.in
Running on hosts (process indices):  d-5-3-1 (0-18)
Divided in process groups (process indices):  0 (0)  1 (1)  2 (2)  3 (3)  4 (4)  5 (5)  6 (6)  7 (7)  8 (8)  9 (9)  10 (10)  11 (11)  12 (12)  13 (13)  14 (14)  15 (15)  16 (16)  17 (17)  18 (18)
Resource initialization completed at t[s]:      0.00
Run totals: 19 processes, 48 threads, 0 GPUs


Input parsed successfully to the following command list (including defaults):

basis kpoint-dependent
coords-type Lattice
core-overlap-check vector
coulomb-interaction Slab 001
davidson-band-ratio 1.1
dump End None
dump-name $INPUT.$VAR
elec-cutoff 20
elec-eigen-algo Davidson
elec-ex-corr gga-PBE
elec-smearing Fermi 0.01
electronic-minimize  \
	dirUpdateScheme      FletcherReeves \
	linminMethod         DirUpdateRecommended \
	nIterations          100 \
	history              15 \
	knormThreshold       0 \
	energyDiffThreshold  1e-08 \
	nEnergyDiff          2 \
	alphaTstart          1 \
	alphaTmin            1e-10 \
	updateTestStepSize   yes \
	alphaTreduceFactor   0.1 \
	alphaTincreaseFactor 3 \
	nAlphaAdjustMax      3 \
	wolfeEnergy          0.0001 \
	wolfeGradient        0.9 \
	fdTest               no
electronic-scf  \
	nIterations	10000 \
	energyDiffThreshold	1e-08 \
	residualThreshold	1e-07 \
	mixFraction	0.5 \
	qMetric	0.8 \
	history	10 \
	nEigSteps	2 \
	eigDiffThreshold	1e-08 \
	mixedVariable	Density \
	qKerker	0.8 \
	qKappa	-1 \
	verbose	no \
	mixFractionMag	1.5
exchange-regularization WignerSeitzTruncated
fluid None
fluid-ex-corr (null) lda-PZ
fluid-gummel-loop 10 1.000000e-05
fluid-minimize  \
	dirUpdateScheme      PolakRibiere \
	linminMethod         DirUpdateRecommended \
	nIterations          100 \
	history              15 \
	knormThreshold       0 \
	energyDiffThreshold  0 \
	nEnergyDiff          2 \
	alphaTstart          1 \
	alphaTmin            1e-10 \
	updateTestStepSize   yes \
	alphaTreduceFactor   0.1 \
	alphaTincreaseFactor 3 \
	nAlphaAdjustMax      3 \
	wolfeEnergy          0.0001 \
	wolfeGradient        0.9 \
	fdTest               no
fluid-solvent H2O 55.338 ScalarEOS \
	epsBulk 78.4 \
	pMol 0.92466 \
	epsInf 1.77 \
	Pvap 1.06736e-10 \
	sigmaBulk 4.62e-05 \
	Rvdw 2.61727 \
	Res 1.42 \
	tauNuc 343133 \
	poleEl 15 7 1
forces-output-coords Positions
ion Na   0.000000000000000   0.000000000000000   0.000000000000000 0
ion-species SG15/$ID_ONCV_PBE.upf
ion-width 0
ionic-minimize  \
	dirUpdateScheme      L-BFGS \
	linminMethod         DirUpdateRecommended \
	nIterations          0 \
	history              15 \
	knormThreshold       0.0001 \
	energyDiffThreshold  1e-06 \
	nEnergyDiff          2 \
	alphaTstart          1 \
	alphaTmin            1e-10 \
	updateTestStepSize   yes \
	alphaTreduceFactor   0.1 \
	alphaTincreaseFactor 3 \
	nAlphaAdjustMax      3 \
	wolfeEnergy          0.0001 \
	wolfeGradient        0.9 \
	fdTest               no
kpoint   0.000000000000   0.000000000000   0.000000000000  1.00000000000000
kpoint-folding 12 12 1 
latt-move-scale 1 1 1
latt-scale 0.8 0.8 1 
lattice  \
	   4.727486978767153   -2.363743489383575    0.000000000000000  \
	  -0.000000000000000    4.094123819672498    0.000000000000000  \
	   0.000000000000000    0.000000000000000   40.000000000000000 
lattice-minimize  \
	dirUpdateScheme      L-BFGS \
	linminMethod         DirUpdateRecommended \
	nIterations          0 \
	history              15 \
	knormThreshold       0 \
	energyDiffThreshold  1e-06 \
	nEnergyDiff          2 \
	alphaTstart          1 \
	alphaTmin            1e-10 \
	updateTestStepSize   yes \
	alphaTreduceFactor   0.1 \
	alphaTincreaseFactor 3 \
	nAlphaAdjustMax      3 \
	wolfeEnergy          0.0001 \
	wolfeGradient        0.9 \
	fdTest               no
lcao-params -1 1e-06 0.01
pcm-variant GLSSA13
spintype no-spin
subspace-rotation-factor 1 yes
symmetries automatic
symmetry-threshold 0.0001



---------- Setting up symmetries ----------

Found 24 point-group symmetries of the bravais lattice
Found 24 space-group symmetries with basis
Applied RMS atom displacement 0 bohrs to make symmetries exact.

---------- Initializing the Grid ----------
R = 
[      3.78199     -1.89099            0  ]
[            0       3.2753            0  ]
[            0            0           40  ]
unit cell volume = 495.486
G =
[    1.66134   0.959177         -0  ]
[          0    1.91835         -0  ]
[         -0         -0    0.15708  ]
Minimum fftbox size, Smin = [  16  16  164  ]
Chosen fftbox size, S = [  16  16  168  ]

---------- Exchange Correlation functional ----------
Initalized PBE GGA exchange.
Initalized PBE GGA correlation.

---------- Setting up pseudopotentials ----------
Width of ionic core gaussian charges (only for fluid interactions / plotting) set to 0

Reading pseudopotential file '/home/gridsan/aligho/DFT/build-Nov24/pseudopotentials/SG15/Na_ONCV_PBE.upf':
  'Na' pseudopotential, 'PBE' functional
  Generated using ONCVPSP code by D. R. Hamann
  Author: Martin Schlipf and Francois Gygi  Date: 150915.
  9 valence electrons, 3 orbitals, 4 projectors, 1992 radial grid points, with lMax = 1
  Transforming local potential to a uniform radial grid of dG=0.02 with 1489 points.
  Transforming nonlocal projectors to a uniform radial grid of dG=0.02 with 432 points.
    2S    l: 0   occupation:  2.0   eigenvalue: -2.085640
    2P    l: 1   occupation:  6.0   eigenvalue: -1.053708
    3S    l: 0   occupation:  1.0   eigenvalue: -0.100838
  Transforming atomic orbitals to a uniform radial grid of dG=0.02 with 432 points.
  Core radius for overlap checks: 2.01 bohrs.
  Reading pulay file /home/gridsan/aligho/DFT/build-Nov24/pseudopotentials/SG15/Na_ONCV_PBE.pulay ... using dE_dnG = -2.946487e-03 computed for Ecut = 20.

Initialized 1 species with 1 total atoms.

Folded 1 k-points by 12x12x1 to 144 k-points.

---------- Setting up k-points, bands, fillings ----------
Reduced to 19 k-points under symmetry. 
Computing the number of bands and number of electrons
Calculating initial fillings.
nElectrons:   9.000000   nBands: 6   nStates: 19

----- Setting up reduced wavefunction bases (one per k-point) -----
average nbasis = 2117.104 , ideal nbasis = 2116.753

---------- Setting up coulomb interaction ----------
Initialized slab truncation along lattice direction 001

---------- Setting up 2D ewald sum ----------
Optimum gaussian width for ewald sums = 2.099608 bohr.
Real space sums over 289 unit cells with max indices [  8  8  0  ]
Reciprocal space sums over 81 terms with max indices [  4  4  0  ]

---------- Allocating electronic variables ----------
Initializing wave functions:  linear combination of atomic orbitals
Note: number of bands (6) exceeds available atomic orbitals (5)
Na pseudo-atom occupations:   s ( 2 1 )  p ( 6 )
	FillingsUpdate:  mu: -0.136556518  nElectrons: 9.000000
LCAOMinimize: Iter:   0  F: -42.3745070600137552  |grad|_K:  2.465e-04  alpha:  1.000e+00
	FillingsUpdate:  mu: -0.136262551  nElectrons: 9.000000
LCAOMinimize: Iter:   1  F: -42.3745269655641863  |grad|_K:  7.083e-06  alpha:  9.602e-01  linmin: -6.636e-02  cgtest:  9.263e-01  t[s]:      0.82
LCAOMinimize: Encountered beta<0, resetting CG.
	FillingsUpdate:  mu: -0.136259616  nElectrons: 9.000000
LCAOMinimize: Iter:   2  F: -42.3745269826016013  |grad|_K:  3.351e-08  alpha:  9.931e-01  linmin:  8.065e-05  cgtest: -7.923e-03  t[s]:      0.99
LCAOMinimize: 	Wrong curvature in test step, increasing alphaT to 2.979306e+00.
	FillingsUpdate:  mu: -0.136259644  nElectrons: 9.000000
LCAOMinimize: Iter:   3  F: -42.3745269826045217  |grad|_K:  7.323e-10  alpha: -1.753e-01  linmin:  1.452e-02  cgtest: -5.737e-01  t[s]:      1.17
LCAOMinimize: Converged (|Delta F|<1.000000e-06 for 2 iters).


---- Citations for features of the code used in this run ----

   Software package:
      R. Sundararaman, K. Letchworth-Weaver, K.A. Schwarz, D. Gunceler, Y. Ozhabes and T.A. Arias, 'JDFTx: software for joint density-functional theory', SoftwareX 6, 278 (2017)

   gga-PBE exchange-correlation functional:
      J.P. Perdew, K. Burke and M. Ernzerhof, Phys. Rev. Lett. 77, 3865 (1996)

   Pseudopotentials:
      M Schlipf and F Gygi, Comput. Phys. Commun. 196, 36 (2015)

   Truncated Coulomb potentials:
      R. Sundararaman and T.A. Arias, Phys. Rev. B 87, 165122 (2013)

This list may not be complete. Please suggest additional citations or
report any other bugs at https://github.com/shankar1729/jdftx/issues

Initialization completed successfully at t[s]:      1.19


-------- Electronic minimization -----------
Will mix electronic density at each iteration.
	FillingsUpdate:  mu: -0.136259644  nElectrons: 9.000000
	FillingsUpdate:  mu: -0.159209159  nElectrons: 9.000000
SCF: Cycle:  0   F: -42.389111265816034   dF: -1.458e-02   |Residual|: 3.713e-02   |deigs|: 1.889e-01  t[s]:      1.46
	FillingsUpdate:  mu: -0.178031584  nElectrons: 9.000000
SCF: Cycle:  1   F: -42.403029713289946   dF: -1.392e-02   |Residual|: 1.968e-02   |deigs|: 4.497e-02  t[s]:      1.63
	FillingsUpdate:  mu: -0.190421493  nElectrons: 9.000000
SCF: Cycle:  2   F: -42.408778473697744   dF: -5.749e-03   |Residual|: 7.881e-03   |deigs|: 1.541e-02  t[s]:      1.79
	FillingsUpdate:  mu: -0.196532960  nElectrons: 9.000000
SCF: Cycle:  3   F: -42.410863201353493   dF: -2.085e-03   |Residual|: 4.957e-03   |deigs|: 2.211e-02  t[s]:      1.96
	FillingsUpdate:  mu: -0.206572608  nElectrons: 9.000000
SCF: Cycle:  4   F: -42.415179886272902   dF: -4.317e-03   |Residual|: 4.584e-03   |deigs|: 1.462e-02  t[s]:      2.13
	FillingsUpdate:  mu: -0.209237311  nElectrons: 9.000000
SCF: Cycle:  5   F: -42.416485724606019   dF: -1.306e-03   |Residual|: 7.119e-03   |deigs|: 1.612e-02  t[s]:      2.30
	FillingsUpdate:  mu: -0.209134105  nElectrons: 9.000000
SCF: Cycle:  6   F: -42.416722861601549   dF: -2.371e-04   |Residual|: 7.257e-03   |deigs|: 7.044e-03  t[s]:      2.47
	FillingsUpdate:  mu: -0.208572424  nElectrons: 9.000000
SCF: Cycle:  7   F: -42.416761083512213   dF: -3.822e-05   |Residual|: 6.867e-03   |deigs|: 3.177e-03  t[s]:      2.64
	FillingsUpdate:  mu: -0.206897952  nElectrons: 9.000000
SCF: Cycle:  8   F: -42.416769650465781   dF: -8.567e-06   |Residual|: 6.531e-03   |deigs|: 1.785e-03  t[s]:      2.82
	FillingsUpdate:  mu: -0.206692156  nElectrons: 9.000000
SCF: Cycle:  9   F: -42.416770819657430   dF: -1.169e-06   |Residual|: 6.605e-03   |deigs|: 6.269e-04  t[s]:      2.98
	FillingsUpdate:  mu: -0.207210856  nElectrons: 9.000000
SCF: Cycle: 10   F: -42.416771010894898   dF: -1.912e-07   |Residual|: 6.790e-03   |deigs|: 9.210e-04  t[s]:      3.16
	FillingsUpdate:  mu: -0.204486171  nElectrons: 9.000000
SCF: Cycle: 11   F: -42.416769848463524   dF: +1.162e-06   |Residual|: 6.365e-03   |deigs|: 2.887e-03  t[s]:      3.35
	FillingsUpdate:  mu: -0.196584635  nElectrons: 9.000000
SCF: Cycle: 12   F: -42.416778964560685   dF: -9.116e-06   |Residual|: 4.545e-03   |deigs|: 7.041e-03  t[s]:      3.53
	FillingsUpdate:  mu: -0.196872857  nElectrons: 9.000000
SCF: Cycle: 13   F: -42.416769739949110   dF: +9.225e-06   |Residual|: 4.758e-03   |deigs|: 1.527e-03  t[s]:      3.71
	FillingsUpdate:  mu: -0.192160283  nElectrons: 9.000000
SCF: Cycle: 14   F: -42.416768479967445   dF: +1.260e-06   |Residual|: 2.710e-03   |deigs|: 4.222e-03  t[s]:      3.89
	FillingsUpdate:  mu: -0.184449481  nElectrons: 9.000000
SCF: Cycle: 15   F: -42.416767085476472   dF: +1.394e-06   |Residual|: 1.634e-03   |deigs|: 7.183e-03  t[s]:      4.07
	FillingsUpdate:  mu: -0.186031055  nElectrons: 9.000000
SCF: Cycle: 16   F: -42.416763464331751   dF: +3.621e-06   |Residual|: 1.818e-03   |deigs|: 1.745e-03  t[s]:      4.24
	FillingsUpdate:  mu: -0.171662569  nElectrons: 9.000000
SCF: Cycle: 17   F: -42.416785861676850   dF: -2.240e-05   |Residual|: 7.553e-04   |deigs|: 1.590e-02  t[s]:      4.42
	FillingsUpdate:  mu: -0.172644742  nElectrons: 9.000000
SCF: Cycle: 18   F: -42.416786743834642   dF: -8.822e-07   |Residual|: 5.009e-04   |deigs|: 9.788e-04  t[s]:      4.61
	FillingsUpdate:  mu: -0.169127658  nElectrons: 9.000000
SCF: Cycle: 19   F: -42.416787548670911   dF: -8.048e-07   |Residual|: 2.222e-04   |deigs|: 3.512e-03  t[s]:      4.79
[d-5-3-1:74877] 18 more processes have sent help message help-mpi-common-cuda.txt / dlopen failed
[d-5-3-1:74877] Set MCA parameter "orte_base_help_aggregate" to 0 to see all help / error messages
[d-5-3-1:74877] 18 more processes have sent help message help-mpi-btl-openib-cpc-base.txt / no cpcs for port
	FillingsUpdate:  mu: -0.168759370  nElectrons: 9.000000
SCF: Cycle: 20   F: -42.416787892027152   dF: -3.434e-07   |Residual|: 1.199e-04   |deigs|: 3.603e-04  t[s]:      4.98
	FillingsUpdate:  mu: -0.168627518  nElectrons: 9.000000
SCF: Cycle: 21   F: -42.416788156863014   dF: -2.648e-07   |Residual|: 7.235e-05   |deigs|: 1.444e-04  t[s]:      5.16
	FillingsUpdate:  mu: -0.168681977  nElectrons: 9.000000
SCF: Cycle: 22   F: -42.416788213540407   dF: -5.668e-08   |Residual|: 3.174e-05   |deigs|: 1.466e-04  t[s]:      5.34
	FillingsUpdate:  mu: -0.168613485  nElectrons: 9.000000
SCF: Cycle: 23   F: -42.416788268511958   dF: -5.497e-08   |Residual|: 2.409e-05   |deigs|: 8.650e-05  t[s]:      5.52
	FillingsUpdate:  mu: -0.168899868  nElectrons: 9.000000
SCF: Cycle: 24   F: -42.416788274155238   dF: -5.643e-09   |Residual|: 1.490e-05   |deigs|: 3.175e-04  t[s]:      5.69
	FillingsUpdate:  mu: -0.168937302  nElectrons: 9.000000
SCF: Cycle: 25   F: -42.416788278511767   dF: -4.357e-09   |Residual|: 8.782e-06   |deigs|: 9.101e-05  t[s]:      5.87
SCF: Converged (|Delta E|<1.000000e-08 for 2 iters).


# Ionic positions in lattice coordinates:
ion Na   0.000000000000000   0.000000000000000   0.000000000000000 0

# Forces in Lattice coordinates:
force Na   0.000000000000000  -0.000000000000000   0.000000000000000 0

# Energy components:
   Eewald =      -45.1200652508316438
       EH =      -13.3566359596218280
     Eloc =       13.3346127130023540
      Enl =      -13.0157175459754946
   Epulay =        0.0000020857505249
      Exc =       -6.3703041681146448
       KE =       22.1145736134104851
-------------------------------------
     Etot =      -42.4135345123802381
       TS =        0.0032537661315299
-------------------------------------
        F =      -42.4167882785117669

IonicMinimize: Iter:   0  F: -42.416788278511767  |grad|_K:  0.000e+00  t[s]:      5.88
IonicMinimize: Converged (|grad|_K<1.000000e-04).

#--- Lowdin population analysis ---
# oxidation-state Na +0.328

End date and time: Sun Jan 16 15:01:53 2022  (Duration: 0-0:00:05.89)
Done!
