1.19
--------------------------------------------------------------------------
The library attempted to open the following supporting CUDA libraries,
but each of them failed.  CUDA-aware support is disabled.
libcuda.so.1: cannot open shared object file: No such file or directory
libcuda.dylib: cannot open shared object file: No such file or directory
/usr/lib64/libcuda.so.1: cannot open shared object file: No such file or directory
/usr/lib64/libcuda.dylib: cannot open shared object file: No such file or directory
If you are not interested in CUDA-aware support, then run with
--mca opal_warn_on_missing_libcuda 0 to suppress this message.  If you are interested
in CUDA-aware support, then try setting LD_LIBRARY_PATH to the location
of libcuda.so.1 to get passed this issue.
--------------------------------------------------------------------------
--------------------------------------------------------------------------
No OpenFabrics connection schemes reported that they were able to be
used on a specific port.  As such, the openib BTL (OpenFabrics
support) will be disabled for this port.

  Local host:           d-18-1-3
  Local device:         mlx5_1
  Local port:           1
  CPCs attempted:       rdmacm, udcm
--------------------------------------------------------------------------

*************** JDFTx 1.6.0 (git hash 42ebbcc2) ***************

Start date and time: Sun Jan 16 15:01:47 2022
Executable jdftx with command-line: -i Sodium.in
Running on hosts (process indices):  d-18-1-3 (0-18)
Divided in process groups (process indices):  0 (0)  1 (1)  2 (2)  3 (3)  4 (4)  5 (5)  6 (6)  7 (7)  8 (8)  9 (9)  10 (10)  11 (11)  12 (12)  13 (13)  14 (14)  15 (15)  16 (16)  17 (17)  18 (18)
Resource initialization completed at t[s]:      0.00
Run totals: 19 processes, 48 threads, 0 GPUs


Input parsed successfully to the following command list (including defaults):

basis kpoint-dependent
coords-type Lattice
core-overlap-check vector
coulomb-interaction Slab 001
davidson-band-ratio 1.1
dump End None
dump-name $INPUT.$VAR
elec-cutoff 20
elec-eigen-algo Davidson
elec-ex-corr gga-PBE
elec-smearing Fermi 0.01
electronic-minimize  \
	dirUpdateScheme      FletcherReeves \
	linminMethod         DirUpdateRecommended \
	nIterations          100 \
	history              15 \
	knormThreshold       0 \
	energyDiffThreshold  1e-08 \
	nEnergyDiff          2 \
	alphaTstart          1 \
	alphaTmin            1e-10 \
	updateTestStepSize   yes \
	alphaTreduceFactor   0.1 \
	alphaTincreaseFactor 3 \
	nAlphaAdjustMax      3 \
	wolfeEnergy          0.0001 \
	wolfeGradient        0.9 \
	fdTest               no
electronic-scf  \
	nIterations	10000 \
	energyDiffThreshold	1e-08 \
	residualThreshold	1e-07 \
	mixFraction	0.5 \
	qMetric	0.8 \
	history	10 \
	nEigSteps	2 \
	eigDiffThreshold	1e-08 \
	mixedVariable	Density \
	qKerker	0.8 \
	qKappa	-1 \
	verbose	no \
	mixFractionMag	1.5
exchange-regularization WignerSeitzTruncated
fluid None
fluid-ex-corr (null) lda-PZ
fluid-gummel-loop 10 1.000000e-05
fluid-minimize  \
	dirUpdateScheme      PolakRibiere \
	linminMethod         DirUpdateRecommended \
	nIterations          100 \
	history              15 \
	knormThreshold       0 \
	energyDiffThreshold  0 \
	nEnergyDiff          2 \
	alphaTstart          1 \
	alphaTmin            1e-10 \
	updateTestStepSize   yes \
	alphaTreduceFactor   0.1 \
	alphaTincreaseFactor 3 \
	nAlphaAdjustMax      3 \
	wolfeEnergy          0.0001 \
	wolfeGradient        0.9 \
	fdTest               no
fluid-solvent H2O 55.338 ScalarEOS \
	epsBulk 78.4 \
	pMol 0.92466 \
	epsInf 1.77 \
	Pvap 1.06736e-10 \
	sigmaBulk 4.62e-05 \
	Rvdw 2.61727 \
	Res 1.42 \
	tauNuc 343133 \
	poleEl 15 7 1
forces-output-coords Positions
ion Na   0.000000000000000   0.000000000000000   0.000000000000000 0
ion-species SG15/$ID_ONCV_PBE.upf
ion-width 0
ionic-minimize  \
	dirUpdateScheme      L-BFGS \
	linminMethod         DirUpdateRecommended \
	nIterations          0 \
	history              15 \
	knormThreshold       0.0001 \
	energyDiffThreshold  1e-06 \
	nEnergyDiff          2 \
	alphaTstart          1 \
	alphaTmin            1e-10 \
	updateTestStepSize   yes \
	alphaTreduceFactor   0.1 \
	alphaTincreaseFactor 3 \
	nAlphaAdjustMax      3 \
	wolfeEnergy          0.0001 \
	wolfeGradient        0.9 \
	fdTest               no
kpoint   0.000000000000   0.000000000000   0.000000000000  1.00000000000000
kpoint-folding 12 12 1 
latt-move-scale 1 1 1
latt-scale 1.19 1.19 1 
lattice  \
	   4.727486978767153   -2.363743489383575    0.000000000000000  \
	  -0.000000000000000    4.094123819672498    0.000000000000000  \
	   0.000000000000000    0.000000000000000   40.000000000000000 
lattice-minimize  \
	dirUpdateScheme      L-BFGS \
	linminMethod         DirUpdateRecommended \
	nIterations          0 \
	history              15 \
	knormThreshold       0 \
	energyDiffThreshold  1e-06 \
	nEnergyDiff          2 \
	alphaTstart          1 \
	alphaTmin            1e-10 \
	updateTestStepSize   yes \
	alphaTreduceFactor   0.1 \
	alphaTincreaseFactor 3 \
	nAlphaAdjustMax      3 \
	wolfeEnergy          0.0001 \
	wolfeGradient        0.9 \
	fdTest               no
lcao-params -1 1e-06 0.01
pcm-variant GLSSA13
spintype no-spin
subspace-rotation-factor 1 yes
symmetries automatic
symmetry-threshold 0.0001



---------- Setting up symmetries ----------

Found 24 point-group symmetries of the bravais lattice
Found 24 space-group symmetries with basis
Applied RMS atom displacement 0 bohrs to make symmetries exact.

---------- Initializing the Grid ----------
R = 
[      5.62571     -2.81285            0  ]
[            0      4.87201            0  ]
[            0            0           40  ]
unit cell volume = 1096.34
G =
[    1.11687   0.644825         -0  ]
[          0    1.28965         -0  ]
[         -0         -0    0.15708  ]
Minimum fftbox size, Smin = [  24  24  164  ]
Chosen fftbox size, S = [  24  24  168  ]

---------- Exchange Correlation functional ----------
Initalized PBE GGA exchange.
Initalized PBE GGA correlation.

---------- Setting up pseudopotentials ----------
Width of ionic core gaussian charges (only for fluid interactions / plotting) set to 0

Reading pseudopotential file '/home/gridsan/aligho/DFT/build-Nov24/pseudopotentials/SG15/Na_ONCV_PBE.upf':
  'Na' pseudopotential, 'PBE' functional
  Generated using ONCVPSP code by D. R. Hamann
  Author: Martin Schlipf and Francois Gygi  Date: 150915.
  9 valence electrons, 3 orbitals, 4 projectors, 1992 radial grid points, with lMax = 1
  Transforming local potential to a uniform radial grid of dG=0.02 with 1499 points.
  Transforming nonlocal projectors to a uniform radial grid of dG=0.02 with 432 points.
    2S    l: 0   occupation:  2.0   eigenvalue: -2.085640
    2P    l: 1   occupation:  6.0   eigenvalue: -1.053708
    3S    l: 0   occupation:  1.0   eigenvalue: -0.100838
  Transforming atomic orbitals to a uniform radial grid of dG=0.02 with 432 points.
  Core radius for overlap checks: 2.01 bohrs.
  Reading pulay file /home/gridsan/aligho/DFT/build-Nov24/pseudopotentials/SG15/Na_ONCV_PBE.pulay ... using dE_dnG = -2.946487e-03 computed for Ecut = 20.

Initialized 1 species with 1 total atoms.

Folded 1 k-points by 12x12x1 to 144 k-points.

---------- Setting up k-points, bands, fillings ----------
Reduced to 19 k-points under symmetry. 
Computing the number of bands and number of electrons
Calculating initial fillings.
nElectrons:   9.000000   nBands: 6   nStates: 19

----- Setting up reduced wavefunction bases (one per k-point) -----
average nbasis = 4682.438 , ideal nbasis = 4683.648

---------- Setting up coulomb interaction ----------
Initialized slab truncation along lattice direction 001

---------- Setting up 2D ewald sum ----------
Optimum gaussian width for ewald sums = 3.123167 bohr.
Real space sums over 289 unit cells with max indices [  8  8  0  ]
Reciprocal space sums over 81 terms with max indices [  4  4  0  ]

---------- Allocating electronic variables ----------
Initializing wave functions:  linear combination of atomic orbitals
Note: number of bands (6) exceeds available atomic orbitals (5)
Na pseudo-atom occupations:   s ( 2 1 )  p ( 6 )
	FillingsUpdate:  mu: -0.132653041  nElectrons: 9.000000
LCAOMinimize: Iter:   0  F: -42.5676137647884403  |grad|_K:  1.417e-05  alpha:  1.000e+00
	FillingsUpdate:  mu: -0.132649545  nElectrons: 9.000000
LCAOMinimize: Iter:   1  F: -42.5676138337806336  |grad|_K:  7.449e-08  alpha:  1.004e+00  linmin:  4.425e-02  cgtest: -8.532e-01  t[s]:      1.30
	FillingsUpdate:  mu: -0.132649570  nElectrons: 9.000000
LCAOMinimize: Iter:   2  F: -42.5676138337824739  |grad|_K:  6.717e-08  alpha:  4.592e-01  linmin: -4.592e-03  cgtest:  9.727e-01  t[s]:      1.59
LCAOMinimize: Encountered beta<0, resetting CG.
LCAOMinimize: Converged (|Delta F|<1.000000e-06 for 2 iters).


---- Citations for features of the code used in this run ----

   Software package:
      R. Sundararaman, K. Letchworth-Weaver, K.A. Schwarz, D. Gunceler, Y. Ozhabes and T.A. Arias, 'JDFTx: software for joint density-functional theory', SoftwareX 6, 278 (2017)

   gga-PBE exchange-correlation functional:
      J.P. Perdew, K. Burke and M. Ernzerhof, Phys. Rev. Lett. 77, 3865 (1996)

   Pseudopotentials:
      M Schlipf and F Gygi, Comput. Phys. Commun. 196, 36 (2015)

   Truncated Coulomb potentials:
      R. Sundararaman and T.A. Arias, Phys. Rev. B 87, 165122 (2013)

This list may not be complete. Please suggest additional citations or
report any other bugs at https://github.com/shankar1729/jdftx/issues

Initialization completed successfully at t[s]:      1.62


-------- Electronic minimization -----------
Will mix electronic density at each iteration.
	FillingsUpdate:  mu: -0.132649570  nElectrons: 9.000000
	FillingsUpdate:  mu: -0.148211240  nElectrons: 9.000000
SCF: Cycle:  0   F: -42.575973863397344   dF: -8.360e-03   |Residual|: 1.904e-02   |deigs|: 1.661e-01  t[s]:      2.10
	FillingsUpdate:  mu: -0.146587601  nElectrons: 9.000000
SCF: Cycle:  1   F: -42.576479137977216   dF: -5.053e-04   |Residual|: 1.246e-02   |deigs|: 1.787e-02  t[s]:      2.45
	FillingsUpdate:  mu: -0.140241147  nElectrons: 9.000000
SCF: Cycle:  2   F: -42.577027331747431   dF: -5.482e-04   |Residual|: 4.858e-03   |deigs|: 1.143e-02  t[s]:      2.79
	FillingsUpdate:  mu: -0.133031758  nElectrons: 9.000000
SCF: Cycle:  3   F: -42.577257225223043   dF: -2.299e-04   |Residual|: 6.750e-03   |deigs|: 1.595e-02  t[s]:      3.15
	FillingsUpdate:  mu: -0.133282949  nElectrons: 9.000000
SCF: Cycle:  4   F: -42.577294785741977   dF: -3.756e-05   |Residual|: 5.211e-03   |deigs|: 7.909e-03  t[s]:      3.50
	FillingsUpdate:  mu: -0.132415216  nElectrons: 9.000000
SCF: Cycle:  5   F: -42.577303491491975   dF: -8.706e-06   |Residual|: 3.000e-03   |deigs|: 2.404e-03  t[s]:      3.87
	FillingsUpdate:  mu: -0.133694934  nElectrons: 9.000000
SCF: Cycle:  6   F: -42.577291349476667   dF: +1.214e-05   |Residual|: 4.183e-03   |deigs|: 1.902e-03  t[s]:      4.24
	FillingsUpdate:  mu: -0.129363502  nElectrons: 9.000000
SCF: Cycle:  7   F: -42.577318739453723   dF: -2.739e-05   |Residual|: 2.523e-03   |deigs|: 5.047e-03  t[s]:      4.61
[d-18-1-3:88916] 18 more processes have sent help message help-mpi-common-cuda.txt / dlopen failed
[d-18-1-3:88916] Set MCA parameter "orte_base_help_aggregate" to 0 to see all help / error messages
[d-18-1-3:88916] 18 more processes have sent help message help-mpi-btl-openib-cpc-base.txt / no cpcs for port
	FillingsUpdate:  mu: -0.129251396  nElectrons: 9.000000
SCF: Cycle:  8   F: -42.577305731313373   dF: +1.301e-05   |Residual|: 1.973e-03   |deigs|: 9.049e-04  t[s]:      4.99
	FillingsUpdate:  mu: -0.126185277  nElectrons: 9.000000
SCF: Cycle:  9   F: -42.577312366028814   dF: -6.635e-06   |Residual|: 2.212e-03   |deigs|: 3.191e-03  t[s]:      5.35
	FillingsUpdate:  mu: -0.120887053  nElectrons: 9.000000
SCF: Cycle: 10   F: -42.577331356004031   dF: -1.899e-05   |Residual|: 1.541e-03   |deigs|: 6.286e-03  t[s]:      5.74
	FillingsUpdate:  mu: -0.119617978  nElectrons: 9.000000
SCF: Cycle: 11   F: -42.577331236251787   dF: +1.198e-07   |Residual|: 8.388e-04   |deigs|: 1.384e-03  t[s]:      6.11
	FillingsUpdate:  mu: -0.117647666  nElectrons: 9.000000
SCF: Cycle: 12   F: -42.577334079505569   dF: -2.843e-06   |Residual|: 9.156e-04   |deigs|: 1.511e-03  t[s]:      6.49
	FillingsUpdate:  mu: -0.115461878  nElectrons: 9.000000
SCF: Cycle: 13   F: -42.577339570368778   dF: -5.491e-06   |Residual|: 8.663e-04   |deigs|: 2.741e-03  t[s]:      6.87
	FillingsUpdate:  mu: -0.113959173  nElectrons: 9.000000
SCF: Cycle: 14   F: -42.577341401027397   dF: -1.831e-06   |Residual|: 2.485e-04   |deigs|: 1.623e-03  t[s]:      7.25
	FillingsUpdate:  mu: -0.113695647  nElectrons: 9.000000
SCF: Cycle: 15   F: -42.577341595139821   dF: -1.941e-07   |Residual|: 2.645e-04   |deigs|: 1.993e-04  t[s]:      7.62
	FillingsUpdate:  mu: -0.113636554  nElectrons: 9.000000
SCF: Cycle: 16   F: -42.577341670969766   dF: -7.583e-08   |Residual|: 1.713e-04   |deigs|: 2.087e-04  t[s]:      8.00
	FillingsUpdate:  mu: -0.113640448  nElectrons: 9.000000
SCF: Cycle: 17   F: -42.577341678121357   dF: -7.152e-09   |Residual|: 3.092e-05   |deigs|: 8.303e-05  t[s]:      8.38
	FillingsUpdate:  mu: -0.113694092  nElectrons: 9.000000
SCF: Cycle: 18   F: -42.577341680957545   dF: -2.836e-09   |Residual|: 2.542e-05   |deigs|: 6.546e-04  t[s]:      8.75
SCF: Converged (|Delta E|<1.000000e-08 for 2 iters).


# Ionic positions in lattice coordinates:
ion Na   0.000000000000000   0.000000000000000   0.000000000000000 0

# Forces in Lattice coordinates:
force Na  -0.000000000000000  -0.000000000000000   0.000000000000000 0

# Energy components:
   Eewald =      -30.3328169753490151
       EH =        3.5283513372232247
     Eloc =      -18.3097354287013587
      Enl =      -12.9209182584500333
   Epulay =       -0.0000032524725088
      Exc =       -6.2770220470891198
       KE =       21.7392628781411048
-------------------------------------
     Etot =      -42.5728817466977034
       TS =        0.0044599342598406
-------------------------------------
        F =      -42.5773416809575451

IonicMinimize: Iter:   0  F: -42.577341680957545  |grad|_K:  0.000e+00  t[s]:      8.78
IonicMinimize: Converged (|grad|_K<1.000000e-04).

#--- Lowdin population analysis ---
# oxidation-state Na +0.081

End date and time: Sun Jan 16 15:01:56 2022  (Duration: 0-0:00:08.78)
Done!
