3.14
--------------------------------------------------------------------------
The library attempted to open the following supporting CUDA libraries,
but each of them failed.  CUDA-aware support is disabled.
libcuda.so.1: cannot open shared object file: No such file or directory
libcuda.dylib: cannot open shared object file: No such file or directory
/usr/lib64/libcuda.so.1: cannot open shared object file: No such file or directory
/usr/lib64/libcuda.dylib: cannot open shared object file: No such file or directory
If you are not interested in CUDA-aware support, then run with
--mca opal_warn_on_missing_libcuda 0 to suppress this message.  If you are interested
in CUDA-aware support, then try setting LD_LIBRARY_PATH to the location
of libcuda.so.1 to get passed this issue.
--------------------------------------------------------------------------
--------------------------------------------------------------------------
No OpenFabrics connection schemes reported that they were able to be
used on a specific port.  As such, the openib BTL (OpenFabrics
support) will be disabled for this port.

  Local host:           d-18-15-1
  Local device:         mlx5_1
  Local port:           1
  CPCs attempted:       rdmacm, udcm
--------------------------------------------------------------------------

*************** JDFTx 1.6.0 (git hash 42ebbcc2) ***************

Start date and time: Sun Jan 16 15:03:41 2022
Executable jdftx with command-line: -i Sodium.in
Running on hosts (process indices):  d-18-15-1 (0-18)
Divided in process groups (process indices):  0 (0)  1 (1)  2 (2)  3 (3)  4 (4)  5 (5)  6 (6)  7 (7)  8 (8)  9 (9)  10 (10)  11 (11)  12 (12)  13 (13)  14 (14)  15 (15)  16 (16)  17 (17)  18 (18)
Resource initialization completed at t[s]:      0.00
Run totals: 19 processes, 48 threads, 0 GPUs


Input parsed successfully to the following command list (including defaults):

basis kpoint-dependent
coords-type Lattice
core-overlap-check vector
coulomb-interaction Slab 001
davidson-band-ratio 1.1
dump End None
dump-name $INPUT.$VAR
elec-cutoff 20
elec-eigen-algo Davidson
elec-ex-corr gga-PBE
elec-smearing Fermi 0.01
electronic-minimize  \
	dirUpdateScheme      FletcherReeves \
	linminMethod         DirUpdateRecommended \
	nIterations          100 \
	history              15 \
	knormThreshold       0 \
	energyDiffThreshold  1e-08 \
	nEnergyDiff          2 \
	alphaTstart          1 \
	alphaTmin            1e-10 \
	updateTestStepSize   yes \
	alphaTreduceFactor   0.1 \
	alphaTincreaseFactor 3 \
	nAlphaAdjustMax      3 \
	wolfeEnergy          0.0001 \
	wolfeGradient        0.9 \
	fdTest               no
electronic-scf  \
	nIterations	10000 \
	energyDiffThreshold	1e-08 \
	residualThreshold	1e-07 \
	mixFraction	0.5 \
	qMetric	0.8 \
	history	10 \
	nEigSteps	2 \
	eigDiffThreshold	1e-08 \
	mixedVariable	Density \
	qKerker	0.8 \
	qKappa	-1 \
	verbose	no \
	mixFractionMag	1.5
exchange-regularization WignerSeitzTruncated
fluid None
fluid-ex-corr (null) lda-PZ
fluid-gummel-loop 10 1.000000e-05
fluid-minimize  \
	dirUpdateScheme      PolakRibiere \
	linminMethod         DirUpdateRecommended \
	nIterations          100 \
	history              15 \
	knormThreshold       0 \
	energyDiffThreshold  0 \
	nEnergyDiff          2 \
	alphaTstart          1 \
	alphaTmin            1e-10 \
	updateTestStepSize   yes \
	alphaTreduceFactor   0.1 \
	alphaTincreaseFactor 3 \
	nAlphaAdjustMax      3 \
	wolfeEnergy          0.0001 \
	wolfeGradient        0.9 \
	fdTest               no
fluid-solvent H2O 55.338 ScalarEOS \
	epsBulk 78.4 \
	pMol 0.92466 \
	epsInf 1.77 \
	Pvap 1.06736e-10 \
	sigmaBulk 4.62e-05 \
	Rvdw 2.61727 \
	Res 1.42 \
	tauNuc 343133 \
	poleEl 15 7 1
forces-output-coords Positions
ion Na   0.000000000000000   0.000000000000000   0.000000000000000 0
ion-species SG15/$ID_ONCV_PBE.upf
ion-width 0
ionic-minimize  \
	dirUpdateScheme      L-BFGS \
	linminMethod         DirUpdateRecommended \
	nIterations          0 \
	history              15 \
	knormThreshold       0.0001 \
	energyDiffThreshold  1e-06 \
	nEnergyDiff          2 \
	alphaTstart          1 \
	alphaTmin            1e-10 \
	updateTestStepSize   yes \
	alphaTreduceFactor   0.1 \
	alphaTincreaseFactor 3 \
	nAlphaAdjustMax      3 \
	wolfeEnergy          0.0001 \
	wolfeGradient        0.9 \
	fdTest               no
kpoint   0.000000000000   0.000000000000   0.000000000000  1.00000000000000
kpoint-folding 12 12 1 
latt-move-scale 1 1 1
latt-scale 3.14 3.14 1 
lattice  \
	   4.727486978767153   -2.363743489383575    0.000000000000000  \
	  -0.000000000000000    4.094123819672498    0.000000000000000  \
	   0.000000000000000    0.000000000000000   40.000000000000000 
lattice-minimize  \
	dirUpdateScheme      L-BFGS \
	linminMethod         DirUpdateRecommended \
	nIterations          0 \
	history              15 \
	knormThreshold       0 \
	energyDiffThreshold  1e-06 \
	nEnergyDiff          2 \
	alphaTstart          1 \
	alphaTmin            1e-10 \
	updateTestStepSize   yes \
	alphaTreduceFactor   0.1 \
	alphaTincreaseFactor 3 \
	nAlphaAdjustMax      3 \
	wolfeEnergy          0.0001 \
	wolfeGradient        0.9 \
	fdTest               no
lcao-params -1 1e-06 0.01
pcm-variant GLSSA13
spintype no-spin
subspace-rotation-factor 1 yes
symmetries automatic
symmetry-threshold 0.0001



---------- Setting up symmetries ----------

Found 24 point-group symmetries of the bravais lattice
Found 24 space-group symmetries with basis
Applied RMS atom displacement 0 bohrs to make symmetries exact.

---------- Initializing the Grid ----------
R = 
[      14.8443     -7.42215            0  ]
[            0      12.8555            0  ]
[            0            0           40  ]
unit cell volume = 7633.27
G =
[   0.423272   0.244376         -0  ]
[          0   0.488753         -0  ]
[         -0         -0    0.15708  ]
Minimum fftbox size, Smin = [  60  60  164  ]
Chosen fftbox size, S = [  60  60  168  ]

---------- Exchange Correlation functional ----------
Initalized PBE GGA exchange.
Initalized PBE GGA correlation.

---------- Setting up pseudopotentials ----------
Width of ionic core gaussian charges (only for fluid interactions / plotting) set to 0

Reading pseudopotential file '/home/gridsan/aligho/DFT/build-Nov24/pseudopotentials/SG15/Na_ONCV_PBE.upf':
  'Na' pseudopotential, 'PBE' functional
  Generated using ONCVPSP code by D. R. Hamann
  Author: Martin Schlipf and Francois Gygi  Date: 150915.
  9 valence electrons, 3 orbitals, 4 projectors, 1992 radial grid points, with lMax = 1
  Transforming local potential to a uniform radial grid of dG=0.02 with 1436 points.
  Transforming nonlocal projectors to a uniform radial grid of dG=0.02 with 432 points.
    2S    l: 0   occupation:  2.0   eigenvalue: -2.085640
    2P    l: 1   occupation:  6.0   eigenvalue: -1.053708
    3S    l: 0   occupation:  1.0   eigenvalue: -0.100838
  Transforming atomic orbitals to a uniform radial grid of dG=0.02 with 432 points.
  Core radius for overlap checks: 2.01 bohrs.
  Reading pulay file /home/gridsan/aligho/DFT/build-Nov24/pseudopotentials/SG15/Na_ONCV_PBE.pulay ... using dE_dnG = -2.946487e-03 computed for Ecut = 20.

Initialized 1 species with 1 total atoms.

Folded 1 k-points by 12x12x1 to 144 k-points.

---------- Setting up k-points, bands, fillings ----------
Reduced to 19 k-points under symmetry. 
Computing the number of bands and number of electrons
Calculating initial fillings.
nElectrons:   9.000000   nBands: 6   nStates: 19

----- Setting up reduced wavefunction bases (one per k-point) -----
average nbasis = 32612.146 , ideal nbasis = 32609.909

---------- Setting up coulomb interaction ----------
Initialized slab truncation along lattice direction 001

---------- Setting up 2D ewald sum ----------
Optimum gaussian width for ewald sums = 8.240961 bohr.
Real space sums over 289 unit cells with max indices [  8  8  0  ]
Reciprocal space sums over 81 terms with max indices [  4  4  0  ]

---------- Allocating electronic variables ----------
Initializing wave functions:  linear combination of atomic orbitals
Note: number of bands (6) exceeds available atomic orbitals (5)
Na pseudo-atom occupations:   s ( 2 1 )  p ( 6 )
	FillingsUpdate:  mu: -0.101250486  nElectrons: 9.000000
LCAOMinimize: Iter:   0  F: -42.5635688282990046  |grad|_K:  4.778e-06  alpha:  1.000e+00
[d-18-15-1:87273] 18 more processes have sent help message help-mpi-common-cuda.txt / dlopen failed
[d-18-15-1:87273] Set MCA parameter "orte_base_help_aggregate" to 0 to see all help / error messages
[d-18-15-1:87273] 18 more processes have sent help message help-mpi-btl-openib-cpc-base.txt / no cpcs for port
	FillingsUpdate:  mu: -0.101249851  nElectrons: 9.000000
LCAOMinimize: Iter:   1  F: -42.5635688360358273  |grad|_K:  5.329e-09  alpha:  9.906e-01  linmin: -2.946e-03  cgtest:  2.046e-01  t[s]:      5.10
LCAOMinimize: Encountered beta<0, resetting CG.
LCAOMinimize: 	Wrong curvature in test step, increasing alphaT to 2.971912e+00.
	FillingsUpdate:  mu: -0.101249852  nElectrons: 9.000000
LCAOMinimize: Iter:   2  F: -42.5635688360358628  |grad|_K:  6.430e-11  alpha: -6.706e-01  linmin: -1.490e-02  cgtest:  9.903e-01  t[s]:      6.37
LCAOMinimize: Encountered beta<0, resetting CG.
LCAOMinimize: Converged (|Delta F|<1.000000e-06 for 2 iters).


---- Citations for features of the code used in this run ----

   Software package:
      R. Sundararaman, K. Letchworth-Weaver, K.A. Schwarz, D. Gunceler, Y. Ozhabes and T.A. Arias, 'JDFTx: software for joint density-functional theory', SoftwareX 6, 278 (2017)

   gga-PBE exchange-correlation functional:
      J.P. Perdew, K. Burke and M. Ernzerhof, Phys. Rev. Lett. 77, 3865 (1996)

   Pseudopotentials:
      M Schlipf and F Gygi, Comput. Phys. Commun. 196, 36 (2015)

   Truncated Coulomb potentials:
      R. Sundararaman and T.A. Arias, Phys. Rev. B 87, 165122 (2013)

This list may not be complete. Please suggest additional citations or
report any other bugs at https://github.com/shankar1729/jdftx/issues

Initialization completed successfully at t[s]:      6.43


-------- Electronic minimization -----------
Will mix electronic density at each iteration.
	FillingsUpdate:  mu: -0.101249852  nElectrons: 9.000000
	FillingsUpdate:  mu: -0.101421181  nElectrons: 9.000000
SCF: Cycle:  0   F: -42.563736475956446   dF: -1.676e-04   |Residual|: 2.131e-03   |deigs|: 1.727e-01  t[s]:      8.74
	FillingsUpdate:  mu: -0.101548865  nElectrons: 9.000000
SCF: Cycle:  1   F: -42.563749132293836   dF: -1.266e-05   |Residual|: 1.055e-03   |deigs|: 4.808e-03  t[s]:     10.50
	FillingsUpdate:  mu: -0.101716686  nElectrons: 9.000000
SCF: Cycle:  2   F: -42.563752296187126   dF: -3.164e-06   |Residual|: 4.487e-04   |deigs|: 2.869e-03  t[s]:     12.32
	FillingsUpdate:  mu: -0.101933760  nElectrons: 9.000000
SCF: Cycle:  3   F: -42.563754100751716   dF: -1.805e-06   |Residual|: 6.657e-04   |deigs|: 9.045e-04  t[s]:     14.15
	FillingsUpdate:  mu: -0.101995125  nElectrons: 9.000000
SCF: Cycle:  4   F: -42.563755446311774   dF: -1.346e-06   |Residual|: 2.808e-04   |deigs|: 1.199e-03  t[s]:     16.02
	FillingsUpdate:  mu: -0.102080996  nElectrons: 9.000000
SCF: Cycle:  5   F: -42.563757817601129   dF: -2.371e-06   |Residual|: 3.754e-04   |deigs|: 1.591e-03  t[s]:     17.93
	FillingsUpdate:  mu: -0.102066894  nElectrons: 9.000000
SCF: Cycle:  6   F: -42.563759482536810   dF: -1.665e-06   |Residual|: 5.234e-05   |deigs|: 2.036e-03  t[s]:     19.89
	FillingsUpdate:  mu: -0.102049851  nElectrons: 9.000000
SCF: Cycle:  7   F: -42.563759850549154   dF: -3.680e-07   |Residual|: 4.787e-05   |deigs|: 2.078e-04  t[s]:     21.78
	FillingsUpdate:  mu: -0.102047272  nElectrons: 9.000000
SCF: Cycle:  8   F: -42.563759961820907   dF: -1.113e-07   |Residual|: 3.608e-05   |deigs|: 1.110e-04  t[s]:     23.72
	FillingsUpdate:  mu: -0.102046016  nElectrons: 9.000000
SCF: Cycle:  9   F: -42.563760254356637   dF: -2.925e-07   |Residual|: 6.475e-06   |deigs|: 2.709e-04  t[s]:     25.78
	FillingsUpdate:  mu: -0.102052275  nElectrons: 9.000000
SCF: Cycle: 10   F: -42.563760485272134   dF: -2.309e-07   |Residual|: 3.900e-05   |deigs|: 2.285e-04  t[s]:     27.80
	FillingsUpdate:  mu: -0.102046379  nElectrons: 9.000000
SCF: Cycle: 11   F: -42.563760767274566   dF: -2.820e-07   |Residual|: 3.437e-05   |deigs|: 2.406e-04  t[s]:     29.70
	FillingsUpdate:  mu: -0.102042099  nElectrons: 9.000000
SCF: Cycle: 12   F: -42.563760972870242   dF: -2.056e-07   |Residual|: 1.024e-05   |deigs|: 1.494e-04  t[s]:     31.71
	FillingsUpdate:  mu: -0.102042191  nElectrons: 9.000000
SCF: Cycle: 13   F: -42.563761069127885   dF: -9.626e-08   |Residual|: 8.844e-06   |deigs|: 6.180e-05  t[s]:     33.55
	FillingsUpdate:  mu: -0.102041616  nElectrons: 9.000000
SCF: Cycle: 14   F: -42.563761120292646   dF: -5.116e-08   |Residual|: 2.050e-06   |deigs|: 3.062e-05  t[s]:     35.52
	FillingsUpdate:  mu: -0.102039125  nElectrons: 9.000000
SCF: Cycle: 15   F: -42.563761149140369   dF: -2.885e-08   |Residual|: 5.840e-06   |deigs|: 1.545e-05  t[s]:     37.54
	FillingsUpdate:  mu: -0.102037877  nElectrons: 9.000000
SCF: Cycle: 16   F: -42.563761163749575   dF: -1.461e-08   |Residual|: 3.402e-06   |deigs|: 8.364e-06  t[s]:     39.50
	FillingsUpdate:  mu: -0.102033003  nElectrons: 9.000000
SCF: Cycle: 17   F: -42.563761171356077   dF: -7.607e-09   |Residual|: 1.499e-06   |deigs|: 7.825e-06  t[s]:     41.51
	FillingsUpdate:  mu: -0.102031561  nElectrons: 9.000000
SCF: Cycle: 18   F: -42.563761175666023   dF: -4.310e-09   |Residual|: 1.145e-06   |deigs|: 2.582e-06  t[s]:     43.42
SCF: Converged (|Delta E|<1.000000e-08 for 2 iters).


# Ionic positions in lattice coordinates:
ion Na   0.000000000000000   0.000000000000000   0.000000000000000 0

# Forces in Lattice coordinates:
force Na  -0.000000000000000  -0.000000000000000   0.000000000000000 0

# Energy components:
   Eewald =      -11.4955580256895935
       EH =       22.2877564042701550
     Eloc =      -55.8590565511130492
      Enl =      -12.9029708502259428
   Epulay =        0.0000008632529485
      Exc =       -6.2092926583467527
       KE =       21.6292556944369991
-------------------------------------
     Etot =      -42.5498651234152376
       TS =        0.0138960522507873
-------------------------------------
        F =      -42.5637611756660235

IonicMinimize: Iter:   0  F: -42.563761175666023  |grad|_K:  0.000e+00  t[s]:     43.53
IonicMinimize: Converged (|grad|_K<1.000000e-04).

#--- Lowdin population analysis ---
# oxidation-state Na +0.006

End date and time: Sun Jan 16 15:04:24 2022  (Duration: 0-0:00:43.56)
Done!
