0.53
--------------------------------------------------------------------------
The library attempted to open the following supporting CUDA libraries,
but each of them failed.  CUDA-aware support is disabled.
libcuda.so.1: cannot open shared object file: No such file or directory
libcuda.dylib: cannot open shared object file: No such file or directory
/usr/lib64/libcuda.so.1: cannot open shared object file: No such file or directory
/usr/lib64/libcuda.dylib: cannot open shared object file: No such file or directory
If you are not interested in CUDA-aware support, then run with
--mca opal_warn_on_missing_libcuda 0 to suppress this message.  If you are interested
in CUDA-aware support, then try setting LD_LIBRARY_PATH to the location
of libcuda.so.1 to get passed this issue.
--------------------------------------------------------------------------
--------------------------------------------------------------------------
No OpenFabrics connection schemes reported that they were able to be
used on a specific port.  As such, the openib BTL (OpenFabrics
support) will be disabled for this port.

  Local host:           d-3-3-1
  Local device:         mlx5_1
  Local port:           1
  CPCs attempted:       rdmacm, udcm
--------------------------------------------------------------------------

*************** JDFTx 1.6.0 (git hash 42ebbcc2) ***************

Start date and time: Sun Jan 16 15:01:48 2022
Executable jdftx with command-line: -i Sodium.in
Running on hosts (process indices):  d-3-3-1 (0-18)
Divided in process groups (process indices):  0 (0)  1 (1)  2 (2)  3 (3)  4 (4)  5 (5)  6 (6)  7 (7)  8 (8)  9 (9)  10 (10)  11 (11)  12 (12)  13 (13)  14 (14)  15 (15)  16 (16)  17 (17)  18 (18)
Resource initialization completed at t[s]:      0.00
Run totals: 19 processes, 48 threads, 0 GPUs


Input parsed successfully to the following command list (including defaults):

basis kpoint-dependent
coords-type Lattice
core-overlap-check vector
coulomb-interaction Slab 001
davidson-band-ratio 1.1
dump End None
dump-name $INPUT.$VAR
elec-cutoff 20
elec-eigen-algo Davidson
elec-ex-corr gga-PBE
elec-smearing Fermi 0.01
electronic-minimize  \
	dirUpdateScheme      FletcherReeves \
	linminMethod         DirUpdateRecommended \
	nIterations          100 \
	history              15 \
	knormThreshold       0 \
	energyDiffThreshold  1e-08 \
	nEnergyDiff          2 \
	alphaTstart          1 \
	alphaTmin            1e-10 \
	updateTestStepSize   yes \
	alphaTreduceFactor   0.1 \
	alphaTincreaseFactor 3 \
	nAlphaAdjustMax      3 \
	wolfeEnergy          0.0001 \
	wolfeGradient        0.9 \
	fdTest               no
electronic-scf  \
	nIterations	10000 \
	energyDiffThreshold	1e-08 \
	residualThreshold	1e-07 \
	mixFraction	0.5 \
	qMetric	0.8 \
	history	10 \
	nEigSteps	2 \
	eigDiffThreshold	1e-08 \
	mixedVariable	Density \
	qKerker	0.8 \
	qKappa	-1 \
	verbose	no \
	mixFractionMag	1.5
exchange-regularization WignerSeitzTruncated
fluid None
fluid-ex-corr (null) lda-PZ
fluid-gummel-loop 10 1.000000e-05
fluid-minimize  \
	dirUpdateScheme      PolakRibiere \
	linminMethod         DirUpdateRecommended \
	nIterations          100 \
	history              15 \
	knormThreshold       0 \
	energyDiffThreshold  0 \
	nEnergyDiff          2 \
	alphaTstart          1 \
	alphaTmin            1e-10 \
	updateTestStepSize   yes \
	alphaTreduceFactor   0.1 \
	alphaTincreaseFactor 3 \
	nAlphaAdjustMax      3 \
	wolfeEnergy          0.0001 \
	wolfeGradient        0.9 \
	fdTest               no
fluid-solvent H2O 55.338 ScalarEOS \
	epsBulk 78.4 \
	pMol 0.92466 \
	epsInf 1.77 \
	Pvap 1.06736e-10 \
	sigmaBulk 4.62e-05 \
	Rvdw 2.61727 \
	Res 1.42 \
	tauNuc 343133 \
	poleEl 15 7 1
forces-output-coords Positions
ion Na   0.000000000000000   0.000000000000000   0.000000000000000 0
ion-species SG15/$ID_ONCV_PBE.upf
ion-width 0
ionic-minimize  \
	dirUpdateScheme      L-BFGS \
	linminMethod         DirUpdateRecommended \
	nIterations          0 \
	history              15 \
	knormThreshold       0.0001 \
	energyDiffThreshold  1e-06 \
	nEnergyDiff          2 \
	alphaTstart          1 \
	alphaTmin            1e-10 \
	updateTestStepSize   yes \
	alphaTreduceFactor   0.1 \
	alphaTincreaseFactor 3 \
	nAlphaAdjustMax      3 \
	wolfeEnergy          0.0001 \
	wolfeGradient        0.9 \
	fdTest               no
kpoint   0.000000000000   0.000000000000   0.000000000000  1.00000000000000
kpoint-folding 12 12 1 
latt-move-scale 1 1 1
latt-scale 0.53 0.53 1 
lattice  \
	   4.727486978767153   -2.363743489383574    0.000000000000000  \
	  -0.000000000000000    4.094123819672498    0.000000000000000  \
	   0.000000000000000    0.000000000000000   40.000000000000000 
lattice-minimize  \
	dirUpdateScheme      L-BFGS \
	linminMethod         DirUpdateRecommended \
	nIterations          0 \
	history              15 \
	knormThreshold       0 \
	energyDiffThreshold  1e-06 \
	nEnergyDiff          2 \
	alphaTstart          1 \
	alphaTmin            1e-10 \
	updateTestStepSize   yes \
	alphaTreduceFactor   0.1 \
	alphaTincreaseFactor 3 \
	nAlphaAdjustMax      3 \
	wolfeEnergy          0.0001 \
	wolfeGradient        0.9 \
	fdTest               no
lcao-params -1 1e-06 0.01
pcm-variant GLSSA13
spintype no-spin
subspace-rotation-factor 1 yes
symmetries automatic
symmetry-threshold 0.0001



---------- Setting up symmetries ----------

Found 24 point-group symmetries of the bravais lattice
Found 24 space-group symmetries with basis
Applied RMS atom displacement 0 bohrs to make symmetries exact.

---------- Initializing the Grid ----------
R = 
[      2.50557     -1.25278            0  ]
[            0      2.16989            0  ]
[            0            0           40  ]
unit cell volume = 217.472
G =
[    2.50769    1.44781         -0  ]
[          0    2.89563         -0  ]
[         -0         -0    0.15708  ]
Minimum fftbox size, Smin = [  12  12  164  ]
Chosen fftbox size, S = [  12  12  168  ]

---------- Exchange Correlation functional ----------
Initalized PBE GGA exchange.
Initalized PBE GGA correlation.

---------- Setting up pseudopotentials ----------
Width of ionic core gaussian charges (only for fluid interactions / plotting) set to 0

Reading pseudopotential file '/home/gridsan/aligho/DFT/build-Nov24/pseudopotentials/SG15/Na_ONCV_PBE.upf':
  'Na' pseudopotential, 'PBE' functional
  Generated using ONCVPSP code by D. R. Hamann
  Author: Martin Schlipf and Francois Gygi  Date: 150915.
  9 valence electrons, 3 orbitals, 4 projectors, 1992 radial grid points, with lMax = 1
  Transforming local potential to a uniform radial grid of dG=0.02 with 1648 points.
  Transforming nonlocal projectors to a uniform radial grid of dG=0.02 with 432 points.
    2S    l: 0   occupation:  2.0   eigenvalue: -2.085640
    2P    l: 1   occupation:  6.0   eigenvalue: -1.053708
    3S    l: 0   occupation:  1.0   eigenvalue: -0.100838
  Transforming atomic orbitals to a uniform radial grid of dG=0.02 with 432 points.
  Core radius for overlap checks: 2.01 bohrs.
  Reading pulay file /home/gridsan/aligho/DFT/build-Nov24/pseudopotentials/SG15/Na_ONCV_PBE.pulay ... using dE_dnG = -2.946487e-03 computed for Ecut = 20.

Initialized 1 species with 1 total atoms.

Folded 1 k-points by 12x12x1 to 144 k-points.

---------- Setting up k-points, bands, fillings ----------
Reduced to 19 k-points under symmetry. 
Computing the number of bands and number of electrons
Calculating initial fillings.
nElectrons:   9.000000   nBands: 6   nStates: 19

----- Setting up reduced wavefunction bases (one per k-point) -----
average nbasis = 929.521 , ideal nbasis = 929.056

---------- Setting up coulomb interaction ----------
Initialized slab truncation along lattice direction 001

---------- Setting up 2D ewald sum ----------
Optimum gaussian width for ewald sums = 1.390990 bohr.
Real space sums over 289 unit cells with max indices [  8  8  0  ]
Reciprocal space sums over 81 terms with max indices [  4  4  0  ]

---------- Allocating electronic variables ----------
Initializing wave functions:  linear combination of atomic orbitals
Note: number of bands (6) exceeds available atomic orbitals (5)
Na pseudo-atom occupations:   s ( 2 1 )  p ( 6 )
	FillingsUpdate:  mu: -0.340631357  nElectrons: 9.000000
LCAOMinimize: Iter:   0  F: -41.0740788778183585  |grad|_K:  8.284e-03  alpha:  1.000e+00
	FillingsUpdate:  mu: -0.187808567  nElectrons: 9.000000
LCAOMinimize: Iter:   1  F: -41.0891884130786877  |grad|_K:  8.172e-03  alpha:  5.201e-01  linmin: -5.472e-02  cgtest:  3.500e-01  t[s]:      0.72
LCAOMinimize: 	Step increased F by 4.124291e-03, reducing alpha to 2.172419e-02.
	FillingsUpdate:  mu: -0.092153564  nElectrons: 9.000000
LCAOMinimize: Iter:   2  F: -41.0932204464120971  |grad|_K:  8.539e-03  alpha:  2.172e-02  linmin: -5.316e-02  cgtest:  6.446e-01  t[s]:      0.93
LCAOMinimize: 	Predicted alpha/alphaT>3.000000, increasing alphaT to 6.517257e-02.
	FillingsUpdate:  mu: +0.102902460  nElectrons: 9.000000
LCAOMinimize: Iter:   3  F: -41.0968306171886155  |grad|_K:  4.797e-04  alpha:  5.381e-02  linmin:  3.897e-02  cgtest: -2.998e-01  t[s]:      1.14
LCAOMinimize: 	Predicted alpha/alphaT>3.000000, increasing alphaT to 1.614309e-01.
	FillingsUpdate:  mu: +0.111995697  nElectrons: 9.000000
LCAOMinimize: Iter:   4  F: -41.0968567823347328  |grad|_K:  5.833e-04  alpha:  3.896e-01  linmin: -6.908e-04  cgtest:  7.184e-01  t[s]:      1.35
	FillingsUpdate:  mu: +0.095842972  nElectrons: 9.000000
LCAOMinimize: Iter:   5  F: -41.0969005774186869  |grad|_K:  1.558e-04  alpha:  3.608e-01  linmin:  2.987e-03  cgtest: -5.271e-01  t[s]:      1.49
	FillingsUpdate:  mu: +0.098296115  nElectrons: 9.000000
LCAOMinimize: Iter:   6  F: -41.0969031852435052  |grad|_K:  4.186e-05  alpha:  4.002e-01  linmin: -1.464e-04  cgtest:  7.936e-01  t[s]:      1.64
LCAOMinimize: Encountered beta<0, resetting CG.
	FillingsUpdate:  mu: +0.099350015  nElectrons: 9.000000
LCAOMinimize: Iter:   7  F: -41.0969033130334083  |grad|_K:  8.625e-06  alpha:  2.154e-01  linmin:  3.440e-03  cgtest: -2.382e-02  t[s]:      1.79
LCAOMinimize: 	Predicted alpha/alphaT>3.000000, increasing alphaT to 6.461702e-01.
	FillingsUpdate:  mu: +0.099300078  nElectrons: 9.000000
LCAOMinimize: Iter:   8  F: -41.0969033364152168  |grad|_K:  2.832e-07  alpha:  9.231e-01  linmin: -1.378e-04  cgtest:  2.053e-01  t[s]:      2.00
LCAOMinimize: Encountered beta<0, resetting CG.
LCAOMinimize: Converged (|Delta F|<1.000000e-06 for 2 iters).


---- Citations for features of the code used in this run ----

   Software package:
      R. Sundararaman, K. Letchworth-Weaver, K.A. Schwarz, D. Gunceler, Y. Ozhabes and T.A. Arias, 'JDFTx: software for joint density-functional theory', SoftwareX 6, 278 (2017)

   gga-PBE exchange-correlation functional:
      J.P. Perdew, K. Burke and M. Ernzerhof, Phys. Rev. Lett. 77, 3865 (1996)

   Pseudopotentials:
      M Schlipf and F Gygi, Comput. Phys. Commun. 196, 36 (2015)

   Truncated Coulomb potentials:
      R. Sundararaman and T.A. Arias, Phys. Rev. B 87, 165122 (2013)

This list may not be complete. Please suggest additional citations or
report any other bugs at https://github.com/shankar1729/jdftx/issues

Initialization completed successfully at t[s]:      2.03


-------- Electronic minimization -----------
Will mix electronic density at each iteration.
	FillingsUpdate:  mu: +0.099300078  nElectrons: 9.000000
	FillingsUpdate:  mu: -0.936551294  nElectrons: 9.000000
SCF: Cycle:  0   F: -41.400128570145178   dF: -3.032e-01   |Residual|: 1.082e-01   |deigs|: 6.921e-01  t[s]:      2.28
	FillingsUpdate:  mu: -1.008649922  nElectrons: 9.000000
SCF: Cycle:  1   F: -41.426987600575721   dF: -2.686e-02   |Residual|: 7.129e-02   |deigs|: 9.822e-02  t[s]:      2.42
	FillingsUpdate:  mu: -0.953114660  nElectrons: 9.000000
SCF: Cycle:  2   F: -41.458915089607494   dF: -3.193e-02   |Residual|: 3.149e-02   |deigs|: 1.850e-01  t[s]:      2.56
	FillingsUpdate:  mu: -0.901788946  nElectrons: 9.000000
SCF: Cycle:  3   F: -41.486860764533503   dF: -2.795e-02   |Residual|: 1.940e-02   |deigs|: 9.709e-02  t[s]:      2.69
	FillingsUpdate:  mu: -0.875823941  nElectrons: 9.000000
SCF: Cycle:  4   F: -41.496433725684462   dF: -9.573e-03   |Residual|: 1.972e-02   |deigs|: 5.788e-02  t[s]:      2.84
	FillingsUpdate:  mu: -0.832054132  nElectrons: 9.000000
SCF: Cycle:  5   F: -41.500140401719634   dF: -3.707e-03   |Residual|: 1.509e-02   |deigs|: 6.529e-02  t[s]:      2.98
	FillingsUpdate:  mu: -0.769962842  nElectrons: 9.000000
SCF: Cycle:  6   F: -41.502713785029378   dF: -2.573e-03   |Residual|: 1.484e-02   |deigs|: 8.240e-02  t[s]:      3.12
	FillingsUpdate:  mu: -0.716707894  nElectrons: 9.000000
SCF: Cycle:  7   F: -41.503089500070104   dF: -3.757e-04   |Residual|: 1.134e-02   |deigs|: 4.194e-02  t[s]:      3.25
	FillingsUpdate:  mu: -0.642309937  nElectrons: 9.000000
SCF: Cycle:  8   F: -41.503238516039325   dF: -1.490e-04   |Residual|: 1.571e-02   |deigs|: 7.558e-02  t[s]:      3.40
	FillingsUpdate:  mu: -0.531159317  nElectrons: 9.000000
SCF: Cycle:  9   F: -41.503939593290866   dF: -7.011e-04   |Residual|: 1.158e-02   |deigs|: 1.235e-01  t[s]:      3.54
[d-3-3-1:02685] 18 more processes have sent help message help-mpi-common-cuda.txt / dlopen failed
[d-3-3-1:02685] Set MCA parameter "orte_base_help_aggregate" to 0 to see all help / error messages
[d-3-3-1:02685] 18 more processes have sent help message help-mpi-btl-openib-cpc-base.txt / no cpcs for port
	FillingsUpdate:  mu: -0.440702440  nElectrons: 9.000000
SCF: Cycle: 10   F: -41.504267634754896   dF: -3.280e-04   |Residual|: 2.358e-02   |deigs|: 1.090e-01  t[s]:      3.68
	FillingsUpdate:  mu: -0.407474648  nElectrons: 9.000000
SCF: Cycle: 11   F: -41.503800849037454   dF: +4.668e-04   |Residual|: 9.173e-03   |deigs|: 1.726e-02  t[s]:      3.83
	FillingsUpdate:  mu: -0.372739795  nElectrons: 9.000000
SCF: Cycle: 12   F: -41.503153801205087   dF: +6.470e-04   |Residual|: 1.858e-02   |deigs|: 2.549e-02  t[s]:      3.96
	FillingsUpdate:  mu: -0.239607747  nElectrons: 9.000000
SCF: Cycle: 13   F: -41.504329127500419   dF: -1.175e-03   |Residual|: 7.541e-03   |deigs|: 1.611e-01  t[s]:      4.10
	FillingsUpdate:  mu: -0.243177482  nElectrons: 9.000000
SCF: Cycle: 14   F: -41.504360841796959   dF: -3.171e-05   |Residual|: 6.009e-03   |deigs|: 4.778e-03  t[s]:      4.24
	FillingsUpdate:  mu: -0.217942817  nElectrons: 9.000000
SCF: Cycle: 15   F: -41.504341861976584   dF: +1.898e-05   |Residual|: 4.833e-03   |deigs|: 1.804e-02  t[s]:      4.38
	FillingsUpdate:  mu: -0.198042222  nElectrons: 9.000000
SCF: Cycle: 16   F: -41.504417081693838   dF: -7.522e-05   |Residual|: 1.578e-03   |deigs|: 2.561e-02  t[s]:      4.51
	FillingsUpdate:  mu: -0.200324513  nElectrons: 9.000000
SCF: Cycle: 17   F: -41.504418612022938   dF: -1.530e-06   |Residual|: 5.047e-04   |deigs|: 2.868e-03  t[s]:      4.65
	FillingsUpdate:  mu: -0.200470188  nElectrons: 9.000000
SCF: Cycle: 18   F: -41.504419604200301   dF: -9.922e-07   |Residual|: 3.193e-04   |deigs|: 7.502e-05  t[s]:      4.79
	FillingsUpdate:  mu: -0.199872985  nElectrons: 9.000000
SCF: Cycle: 19   F: -41.504420618818898   dF: -1.015e-06   |Residual|: 1.772e-04   |deigs|: 8.188e-04  t[s]:      4.93
	FillingsUpdate:  mu: -0.199899196  nElectrons: 9.000000
SCF: Cycle: 20   F: -41.504420819159506   dF: -2.003e-07   |Residual|: 5.525e-05   |deigs|: 2.064e-04  t[s]:      5.06
	FillingsUpdate:  mu: -0.200052101  nElectrons: 9.000000
SCF: Cycle: 21   F: -41.504420918365362   dF: -9.921e-08   |Residual|: 2.721e-05   |deigs|: 1.901e-04  t[s]:      5.19
	FillingsUpdate:  mu: -0.200187096  nElectrons: 9.000000
SCF: Cycle: 22   F: -41.504420960865296   dF: -4.250e-08   |Residual|: 2.473e-05   |deigs|: 1.064e-04  t[s]:      5.32
	FillingsUpdate:  mu: -0.200454439  nElectrons: 9.000000
SCF: Cycle: 23   F: -41.504420995145246   dF: -3.428e-08   |Residual|: 2.366e-05   |deigs|: 8.194e-03  t[s]:      5.46
	FillingsUpdate:  mu: -0.200670106  nElectrons: 9.000000
SCF: Cycle: 24   F: -41.504421005586302   dF: -1.044e-08   |Residual|: 5.326e-06   |deigs|: 2.401e-03  t[s]:      5.60
	FillingsUpdate:  mu: -0.200655453  nElectrons: 9.000000
SCF: Cycle: 25   F: -41.504421013453879   dF: -7.868e-09   |Residual|: 4.006e-06   |deigs|: 5.700e-04  t[s]:      5.74
	FillingsUpdate:  mu: -0.200670749  nElectrons: 9.000000
SCF: Cycle: 26   F: -41.504421016661674   dF: -3.208e-09   |Residual|: 2.498e-06   |deigs|: 4.403e-04  t[s]:      5.87
SCF: Converged (|Delta E|<1.000000e-08 for 2 iters).


# Ionic positions in lattice coordinates:
ion Na   0.000000000000000   0.000000000000000   0.000000000000000 0

# Forces in Lattice coordinates:
force Na   0.000000000000000   0.000000000000000   0.000000000000000 0

# Energy components:
   Eewald =      -68.1057588691798657
       EH =      -41.8431411066485097
     Eloc =       64.7534481431712408
      Enl =      -14.3738654171841898
   Epulay =        0.0000062937789600
      Exc =       -6.7766678645734677
       KE =       24.8426227682336211
-------------------------------------
     Etot =      -41.5033560524021965
       TS =        0.0010649642594763
-------------------------------------
        F =      -41.5044210166616736

IonicMinimize: Iter:   0  F: -41.504421016661674  |grad|_K:  0.000e+00  t[s]:      5.88
IonicMinimize: Converged (|grad|_K<1.000000e-04).

#--- Lowdin population analysis ---
# oxidation-state Na +0.547

End date and time: Sun Jan 16 15:01:54 2022  (Duration: 0-0:00:05.89)
Done!
