1.07
--------------------------------------------------------------------------
The library attempted to open the following supporting CUDA libraries,
but each of them failed.  CUDA-aware support is disabled.
libcuda.so.1: cannot open shared object file: No such file or directory
libcuda.dylib: cannot open shared object file: No such file or directory
/usr/lib64/libcuda.so.1: cannot open shared object file: No such file or directory
/usr/lib64/libcuda.dylib: cannot open shared object file: No such file or directory
If you are not interested in CUDA-aware support, then run with
--mca opal_warn_on_missing_libcuda 0 to suppress this message.  If you are interested
in CUDA-aware support, then try setting LD_LIBRARY_PATH to the location
of libcuda.so.1 to get passed this issue.
--------------------------------------------------------------------------
--------------------------------------------------------------------------
No OpenFabrics connection schemes reported that they were able to be
used on a specific port.  As such, the openib BTL (OpenFabrics
support) will be disabled for this port.

  Local host:           d-16-11-3
  Local device:         mlx5_1
  Local port:           1
  CPCs attempted:       rdmacm, udcm
--------------------------------------------------------------------------

*************** JDFTx 1.6.0 (git hash 42ebbcc2) ***************

Start date and time: Sun Jan 16 15:01:47 2022
Executable jdftx with command-line: -i Sodium.in
Running on hosts (process indices):  d-16-11-3 (0-18)
Divided in process groups (process indices):  0 (0)  1 (1)  2 (2)  3 (3)  4 (4)  5 (5)  6 (6)  7 (7)  8 (8)  9 (9)  10 (10)  11 (11)  12 (12)  13 (13)  14 (14)  15 (15)  16 (16)  17 (17)  18 (18)
Resource initialization completed at t[s]:      0.00
Run totals: 19 processes, 48 threads, 0 GPUs


Input parsed successfully to the following command list (including defaults):

basis kpoint-dependent
coords-type Lattice
core-overlap-check vector
coulomb-interaction Slab 001
davidson-band-ratio 1.1
dump End None
dump-name $INPUT.$VAR
elec-cutoff 20
elec-eigen-algo Davidson
elec-ex-corr gga-PBE
elec-smearing Fermi 0.01
electronic-minimize  \
	dirUpdateScheme      FletcherReeves \
	linminMethod         DirUpdateRecommended \
	nIterations          100 \
	history              15 \
	knormThreshold       0 \
	energyDiffThreshold  1e-08 \
	nEnergyDiff          2 \
	alphaTstart          1 \
	alphaTmin            1e-10 \
	updateTestStepSize   yes \
	alphaTreduceFactor   0.1 \
	alphaTincreaseFactor 3 \
	nAlphaAdjustMax      3 \
	wolfeEnergy          0.0001 \
	wolfeGradient        0.9 \
	fdTest               no
electronic-scf  \
	nIterations	10000 \
	energyDiffThreshold	1e-08 \
	residualThreshold	1e-07 \
	mixFraction	0.5 \
	qMetric	0.8 \
	history	10 \
	nEigSteps	2 \
	eigDiffThreshold	1e-08 \
	mixedVariable	Density \
	qKerker	0.8 \
	qKappa	-1 \
	verbose	no \
	mixFractionMag	1.5
exchange-regularization WignerSeitzTruncated
fluid None
fluid-ex-corr (null) lda-PZ
fluid-gummel-loop 10 1.000000e-05
fluid-minimize  \
	dirUpdateScheme      PolakRibiere \
	linminMethod         DirUpdateRecommended \
	nIterations          100 \
	history              15 \
	knormThreshold       0 \
	energyDiffThreshold  0 \
	nEnergyDiff          2 \
	alphaTstart          1 \
	alphaTmin            1e-10 \
	updateTestStepSize   yes \
	alphaTreduceFactor   0.1 \
	alphaTincreaseFactor 3 \
	nAlphaAdjustMax      3 \
	wolfeEnergy          0.0001 \
	wolfeGradient        0.9 \
	fdTest               no
fluid-solvent H2O 55.338 ScalarEOS \
	epsBulk 78.4 \
	pMol 0.92466 \
	epsInf 1.77 \
	Pvap 1.06736e-10 \
	sigmaBulk 4.62e-05 \
	Rvdw 2.61727 \
	Res 1.42 \
	tauNuc 343133 \
	poleEl 15 7 1
forces-output-coords Positions
ion Na   0.000000000000000   0.000000000000000   0.000000000000000 0
ion-species SG15/$ID_ONCV_PBE.upf
ion-width 0
ionic-minimize  \
	dirUpdateScheme      L-BFGS \
	linminMethod         DirUpdateRecommended \
	nIterations          0 \
	history              15 \
	knormThreshold       0.0001 \
	energyDiffThreshold  1e-06 \
	nEnergyDiff          2 \
	alphaTstart          1 \
	alphaTmin            1e-10 \
	updateTestStepSize   yes \
	alphaTreduceFactor   0.1 \
	alphaTincreaseFactor 3 \
	nAlphaAdjustMax      3 \
	wolfeEnergy          0.0001 \
	wolfeGradient        0.9 \
	fdTest               no
kpoint   0.000000000000   0.000000000000   0.000000000000  1.00000000000000
kpoint-folding 12 12 1 
latt-move-scale 1 1 1
latt-scale 1.07 1.07 1 
lattice  \
	   4.727486978767153   -2.363743489383575    0.000000000000000  \
	  -0.000000000000000    4.094123819672498    0.000000000000000  \
	   0.000000000000000    0.000000000000000   40.000000000000000 
lattice-minimize  \
	dirUpdateScheme      L-BFGS \
	linminMethod         DirUpdateRecommended \
	nIterations          0 \
	history              15 \
	knormThreshold       0 \
	energyDiffThreshold  1e-06 \
	nEnergyDiff          2 \
	alphaTstart          1 \
	alphaTmin            1e-10 \
	updateTestStepSize   yes \
	alphaTreduceFactor   0.1 \
	alphaTincreaseFactor 3 \
	nAlphaAdjustMax      3 \
	wolfeEnergy          0.0001 \
	wolfeGradient        0.9 \
	fdTest               no
lcao-params -1 1e-06 0.01
pcm-variant GLSSA13
spintype no-spin
subspace-rotation-factor 1 yes
symmetries automatic
symmetry-threshold 0.0001



---------- Setting up symmetries ----------

Found 24 point-group symmetries of the bravais lattice
Found 24 space-group symmetries with basis
Applied RMS atom displacement 0 bohrs to make symmetries exact.

---------- Initializing the Grid ----------
R = 
[      5.05841     -2.52921            0  ]
[            0      4.38071            0  ]
[            0            0           40  ]
unit cell volume = 886.378
G =
[    1.24213   0.717142         -0  ]
[          0    1.43428         -0  ]
[         -0         -0    0.15708  ]
Minimum fftbox size, Smin = [  24  24  164  ]
Chosen fftbox size, S = [  24  24  168  ]

---------- Exchange Correlation functional ----------
Initalized PBE GGA exchange.
Initalized PBE GGA correlation.

---------- Setting up pseudopotentials ----------
Width of ionic core gaussian charges (only for fluid interactions / plotting) set to 0

Reading pseudopotential file '/home/gridsan/aligho/DFT/build-Nov24/pseudopotentials/SG15/Na_ONCV_PBE.upf':
  'Na' pseudopotential, 'PBE' functional
  Generated using ONCVPSP code by D. R. Hamann
  Author: Martin Schlipf and Francois Gygi  Date: 150915.
  9 valence electrons, 3 orbitals, 4 projectors, 1992 radial grid points, with lMax = 1
  Transforming local potential to a uniform radial grid of dG=0.02 with 1636 points.
  Transforming nonlocal projectors to a uniform radial grid of dG=0.02 with 432 points.
    2S    l: 0   occupation:  2.0   eigenvalue: -2.085640
    2P    l: 1   occupation:  6.0   eigenvalue: -1.053708
    3S    l: 0   occupation:  1.0   eigenvalue: -0.100838
  Transforming atomic orbitals to a uniform radial grid of dG=0.02 with 432 points.
  Core radius for overlap checks: 2.01 bohrs.
  Reading pulay file /home/gridsan/aligho/DFT/build-Nov24/pseudopotentials/SG15/Na_ONCV_PBE.pulay ... using dE_dnG = -2.946487e-03 computed for Ecut = 20.

Initialized 1 species with 1 total atoms.

Folded 1 k-points by 12x12x1 to 144 k-points.

---------- Setting up k-points, bands, fillings ----------
Reduced to 19 k-points under symmetry. 
Computing the number of bands and number of electrons
Calculating initial fillings.
nElectrons:   9.000000   nBands: 6   nStates: 19

----- Setting up reduced wavefunction bases (one per k-point) -----
average nbasis = 3786.729 , ideal nbasis = 3786.673

---------- Setting up coulomb interaction ----------
Initialized slab truncation along lattice direction 001

---------- Setting up 2D ewald sum ----------
Optimum gaussian width for ewald sums = 2.808226 bohr.
Real space sums over 289 unit cells with max indices [  8  8  0  ]
Reciprocal space sums over 81 terms with max indices [  4  4  0  ]

---------- Allocating electronic variables ----------
Initializing wave functions:  linear combination of atomic orbitals
Note: number of bands (6) exceeds available atomic orbitals (5)
Na pseudo-atom occupations:   s ( 2 1 )  p ( 6 )
	FillingsUpdate:  mu: -0.137284679  nElectrons: 9.000000
LCAOMinimize: Iter:   0  F: -42.5452065772631727  |grad|_K:  3.271e-05  alpha:  1.000e+00
	FillingsUpdate:  mu: -0.137244339  nElectrons: 9.000000
LCAOMinimize: Iter:   1  F: -42.5452069446860932  |grad|_K:  2.707e-07  alpha:  1.004e+00  linmin:  8.679e-02  cgtest: -7.618e-01  t[s]:      1.32
	FillingsUpdate:  mu: -0.137244492  nElectrons: 9.000000
LCAOMinimize: Iter:   2  F: -42.5452069446954937  |grad|_K:  2.102e-07  alpha:  8.140e-01  linmin: -1.817e-03  cgtest:  8.333e-01  t[s]:      1.60
LCAOMinimize: Encountered beta<0, resetting CG.
LCAOMinimize: Converged (|Delta F|<1.000000e-06 for 2 iters).


---- Citations for features of the code used in this run ----

   Software package:
      R. Sundararaman, K. Letchworth-Weaver, K.A. Schwarz, D. Gunceler, Y. Ozhabes and T.A. Arias, 'JDFTx: software for joint density-functional theory', SoftwareX 6, 278 (2017)

   gga-PBE exchange-correlation functional:
      J.P. Perdew, K. Burke and M. Ernzerhof, Phys. Rev. Lett. 77, 3865 (1996)

   Pseudopotentials:
      M Schlipf and F Gygi, Comput. Phys. Commun. 196, 36 (2015)

   Truncated Coulomb potentials:
      R. Sundararaman and T.A. Arias, Phys. Rev. B 87, 165122 (2013)

This list may not be complete. Please suggest additional citations or
report any other bugs at https://github.com/shankar1729/jdftx/issues

Initialization completed successfully at t[s]:      1.63


-------- Electronic minimization -----------
Will mix electronic density at each iteration.
	FillingsUpdate:  mu: -0.137244492  nElectrons: 9.000000
	FillingsUpdate:  mu: -0.152237323  nElectrons: 9.000000
SCF: Cycle:  0   F: -42.554246451523483   dF: -9.040e-03   |Residual|: 2.402e-02   |deigs|: 1.607e-01  t[s]:      2.10
	FillingsUpdate:  mu: -0.151833073  nElectrons: 9.000000
SCF: Cycle:  1   F: -42.555741052270172   dF: -1.495e-03   |Residual|: 1.409e-02   |deigs|: 2.252e-02  t[s]:      2.45
	FillingsUpdate:  mu: -0.149564145  nElectrons: 9.000000
SCF: Cycle:  2   F: -42.557446562515288   dF: -1.706e-03   |Residual|: 4.398e-03   |deigs|: 1.149e-02  t[s]:      2.79
	FillingsUpdate:  mu: -0.148670322  nElectrons: 9.000000
SCF: Cycle:  3   F: -42.557740307771446   dF: -2.937e-04   |Residual|: 2.744e-03   |deigs|: 7.952e-03  t[s]:      3.13
	FillingsUpdate:  mu: -0.145900584  nElectrons: 9.000000
SCF: Cycle:  4   F: -42.557808402139003   dF: -6.809e-05   |Residual|: 2.515e-03   |deigs|: 1.047e-02  t[s]:      3.48
	FillingsUpdate:  mu: -0.141039517  nElectrons: 9.000000
SCF: Cycle:  5   F: -42.557862891578104   dF: -5.449e-05   |Residual|: 5.335e-03   |deigs|: 5.363e-03  t[s]:      3.85
	FillingsUpdate:  mu: -0.140930960  nElectrons: 9.000000
SCF: Cycle:  6   F: -42.557883690193016   dF: -2.080e-05   |Residual|: 2.953e-03   |deigs|: 7.379e-03  t[s]:      4.21
	FillingsUpdate:  mu: -0.140449713  nElectrons: 9.000000
SCF: Cycle:  7   F: -42.557885710540461   dF: -2.020e-06   |Residual|: 1.857e-03   |deigs|: 2.088e-03  t[s]:      4.58
[d-16-11-3:63141] 18 more processes have sent help message help-mpi-common-cuda.txt / dlopen failed
[d-16-11-3:63141] Set MCA parameter "orte_base_help_aggregate" to 0 to see all help / error messages
[d-16-11-3:63141] 18 more processes have sent help message help-mpi-btl-openib-cpc-base.txt / no cpcs for port
	FillingsUpdate:  mu: -0.137942634  nElectrons: 9.000000
SCF: Cycle:  8   F: -42.557888863980622   dF: -3.153e-06   |Residual|: 1.354e-03   |deigs|: 2.961e-03  t[s]:      4.94
	FillingsUpdate:  mu: -0.134880368  nElectrons: 9.000000
SCF: Cycle:  9   F: -42.557889240890461   dF: -3.769e-07   |Residual|: 2.009e-03   |deigs|: 2.979e-03  t[s]:      5.32
	FillingsUpdate:  mu: -0.131556760  nElectrons: 9.000000
SCF: Cycle: 10   F: -42.557893446615878   dF: -4.206e-06   |Residual|: 2.135e-03   |deigs|: 3.499e-03  t[s]:      5.69
	FillingsUpdate:  mu: -0.129712625  nElectrons: 9.000000
SCF: Cycle: 11   F: -42.557889375308640   dF: +4.071e-06   |Residual|: 2.209e-03   |deigs|: 2.060e-03  t[s]:      6.05
	FillingsUpdate:  mu: -0.126560073  nElectrons: 9.000000
SCF: Cycle: 12   F: -42.557898895100529   dF: -9.520e-06   |Residual|: 6.337e-04   |deigs|: 3.281e-03  t[s]:      6.43
	FillingsUpdate:  mu: -0.124367036  nElectrons: 9.000000
SCF: Cycle: 13   F: -42.557900487199831   dF: -1.592e-06   |Residual|: 1.245e-03   |deigs|: 2.464e-03  t[s]:      6.80
	FillingsUpdate:  mu: -0.124993043  nElectrons: 9.000000
SCF: Cycle: 14   F: -42.557900772303299   dF: -2.851e-07   |Residual|: 2.231e-04   |deigs|: 9.003e-04  t[s]:      7.16
	FillingsUpdate:  mu: -0.123987260  nElectrons: 9.000000
SCF: Cycle: 15   F: -42.557900864175515   dF: -9.187e-08   |Residual|: 1.307e-04   |deigs|: 1.129e-03  t[s]:      7.53
	FillingsUpdate:  mu: -0.124584162  nElectrons: 9.000000
SCF: Cycle: 16   F: -42.557900893720657   dF: -2.955e-08   |Residual|: 5.076e-05   |deigs|: 6.543e-04  t[s]:      7.90
	FillingsUpdate:  mu: -0.124573524  nElectrons: 9.000000
SCF: Cycle: 17   F: -42.557900898287230   dF: -4.567e-09   |Residual|: 2.500e-05   |deigs|: 2.262e-03  t[s]:      8.27
	FillingsUpdate:  mu: -0.124546079  nElectrons: 9.000000
SCF: Cycle: 18   F: -42.557900903159862   dF: -4.873e-09   |Residual|: 2.378e-05   |deigs|: 2.132e-03  t[s]:      8.64
SCF: Converged (|Delta E|<1.000000e-08 for 2 iters).


# Ionic positions in lattice coordinates:
ion Na   0.000000000000000   0.000000000000000   0.000000000000000 0

# Forces in Lattice coordinates:
force Na   0.000000000000000   0.000000000000000   0.000000000000000 0

# Energy components:
   Eewald =      -33.7346282249208755
       EH =       -0.1467398258339114
     Eloc =      -11.2455317360112357
      Enl =      -12.9268145672204700
   Epulay =        0.0000001852822223
      Exc =       -6.2943623002641278
       KE =       21.7944687936592096
-------------------------------------
     Etot =      -42.5536076753091947
       TS =        0.0042932278506696
-------------------------------------
        F =      -42.5579009031598616

IonicMinimize: Iter:   0  F: -42.557900903159862  |grad|_K:  0.000e+00  t[s]:      8.67
IonicMinimize: Converged (|grad|_K<1.000000e-04).

#--- Lowdin population analysis ---
# oxidation-state Na +0.135

End date and time: Sun Jan 16 15:01:55 2022  (Duration: 0-0:00:08.67)
Done!
