2.27
--------------------------------------------------------------------------
The library attempted to open the following supporting CUDA libraries,
but each of them failed.  CUDA-aware support is disabled.
libcuda.so.1: cannot open shared object file: No such file or directory
libcuda.dylib: cannot open shared object file: No such file or directory
/usr/lib64/libcuda.so.1: cannot open shared object file: No such file or directory
/usr/lib64/libcuda.dylib: cannot open shared object file: No such file or directory
If you are not interested in CUDA-aware support, then run with
--mca opal_warn_on_missing_libcuda 0 to suppress this message.  If you are interested
in CUDA-aware support, then try setting LD_LIBRARY_PATH to the location
of libcuda.so.1 to get passed this issue.
--------------------------------------------------------------------------
--------------------------------------------------------------------------
No OpenFabrics connection schemes reported that they were able to be
used on a specific port.  As such, the openib BTL (OpenFabrics
support) will be disabled for this port.

  Local host:           d-5-8-4
  Local device:         mlx5_1
  Local port:           1
  CPCs attempted:       rdmacm, udcm
--------------------------------------------------------------------------

*************** JDFTx 1.6.0 (git hash 42ebbcc2) ***************

Start date and time: Sun Jan 16 15:03:03 2022
Executable jdftx with command-line: -i Sodium.in
Running on hosts (process indices):  d-5-8-4 (0-18)
Divided in process groups (process indices):  0 (0)  1 (1)  2 (2)  3 (3)  4 (4)  5 (5)  6 (6)  7 (7)  8 (8)  9 (9)  10 (10)  11 (11)  12 (12)  13 (13)  14 (14)  15 (15)  16 (16)  17 (17)  18 (18)
Resource initialization completed at t[s]:      0.00
Run totals: 19 processes, 48 threads, 0 GPUs


Input parsed successfully to the following command list (including defaults):

basis kpoint-dependent
coords-type Lattice
core-overlap-check vector
coulomb-interaction Slab 001
davidson-band-ratio 1.1
dump End None
dump-name $INPUT.$VAR
elec-cutoff 20
elec-eigen-algo Davidson
elec-ex-corr gga-PBE
elec-smearing Fermi 0.01
electronic-minimize  \
	dirUpdateScheme      FletcherReeves \
	linminMethod         DirUpdateRecommended \
	nIterations          100 \
	history              15 \
	knormThreshold       0 \
	energyDiffThreshold  1e-08 \
	nEnergyDiff          2 \
	alphaTstart          1 \
	alphaTmin            1e-10 \
	updateTestStepSize   yes \
	alphaTreduceFactor   0.1 \
	alphaTincreaseFactor 3 \
	nAlphaAdjustMax      3 \
	wolfeEnergy          0.0001 \
	wolfeGradient        0.9 \
	fdTest               no
electronic-scf  \
	nIterations	10000 \
	energyDiffThreshold	1e-08 \
	residualThreshold	1e-07 \
	mixFraction	0.5 \
	qMetric	0.8 \
	history	10 \
	nEigSteps	2 \
	eigDiffThreshold	1e-08 \
	mixedVariable	Density \
	qKerker	0.8 \
	qKappa	-1 \
	verbose	no \
	mixFractionMag	1.5
exchange-regularization WignerSeitzTruncated
fluid None
fluid-ex-corr (null) lda-PZ
fluid-gummel-loop 10 1.000000e-05
fluid-minimize  \
	dirUpdateScheme      PolakRibiere \
	linminMethod         DirUpdateRecommended \
	nIterations          100 \
	history              15 \
	knormThreshold       0 \
	energyDiffThreshold  0 \
	nEnergyDiff          2 \
	alphaTstart          1 \
	alphaTmin            1e-10 \
	updateTestStepSize   yes \
	alphaTreduceFactor   0.1 \
	alphaTincreaseFactor 3 \
	nAlphaAdjustMax      3 \
	wolfeEnergy          0.0001 \
	wolfeGradient        0.9 \
	fdTest               no
fluid-solvent H2O 55.338 ScalarEOS \
	epsBulk 78.4 \
	pMol 0.92466 \
	epsInf 1.77 \
	Pvap 1.06736e-10 \
	sigmaBulk 4.62e-05 \
	Rvdw 2.61727 \
	Res 1.42 \
	tauNuc 343133 \
	poleEl 15 7 1
forces-output-coords Positions
ion Na   0.000000000000000   0.000000000000000   0.000000000000000 0
ion-species SG15/$ID_ONCV_PBE.upf
ion-width 0
ionic-minimize  \
	dirUpdateScheme      L-BFGS \
	linminMethod         DirUpdateRecommended \
	nIterations          0 \
	history              15 \
	knormThreshold       0.0001 \
	energyDiffThreshold  1e-06 \
	nEnergyDiff          2 \
	alphaTstart          1 \
	alphaTmin            1e-10 \
	updateTestStepSize   yes \
	alphaTreduceFactor   0.1 \
	alphaTincreaseFactor 3 \
	nAlphaAdjustMax      3 \
	wolfeEnergy          0.0001 \
	wolfeGradient        0.9 \
	fdTest               no
kpoint   0.000000000000   0.000000000000   0.000000000000  1.00000000000000
kpoint-folding 12 12 1 
latt-move-scale 1 1 1
latt-scale 2.27 2.27 1 
lattice  \
	   4.727486978767153   -2.363743489383575    0.000000000000000  \
	  -0.000000000000000    4.094123819672497    0.000000000000000  \
	   0.000000000000000    0.000000000000000   40.000000000000000 
lattice-minimize  \
	dirUpdateScheme      L-BFGS \
	linminMethod         DirUpdateRecommended \
	nIterations          0 \
	history              15 \
	knormThreshold       0 \
	energyDiffThreshold  1e-06 \
	nEnergyDiff          2 \
	alphaTstart          1 \
	alphaTmin            1e-10 \
	updateTestStepSize   yes \
	alphaTreduceFactor   0.1 \
	alphaTincreaseFactor 3 \
	nAlphaAdjustMax      3 \
	wolfeEnergy          0.0001 \
	wolfeGradient        0.9 \
	fdTest               no
lcao-params -1 1e-06 0.01
pcm-variant GLSSA13
spintype no-spin
subspace-rotation-factor 1 yes
symmetries automatic
symmetry-threshold 0.0001



---------- Setting up symmetries ----------

Found 24 point-group symmetries of the bravais lattice
Found 24 space-group symmetries with basis
Applied RMS atom displacement 0 bohrs to make symmetries exact.

---------- Initializing the Grid ----------
R = 
[      10.7314      -5.3657            0  ]
[            0      9.29366            0  ]
[            0            0           40  ]
unit cell volume = 3989.36
G =
[   0.585496   0.338036         -0  ]
[          0   0.676072         -0  ]
[         -0         -0    0.15708  ]
Minimum fftbox size, Smin = [  44  44  164  ]
Chosen fftbox size, S = [  48  48  168  ]

---------- Exchange Correlation functional ----------
Initalized PBE GGA exchange.
Initalized PBE GGA correlation.

---------- Setting up pseudopotentials ----------
Width of ionic core gaussian charges (only for fluid interactions / plotting) set to 0

Reading pseudopotential file '/home/gridsan/aligho/DFT/build-Nov24/pseudopotentials/SG15/Na_ONCV_PBE.upf':
  'Na' pseudopotential, 'PBE' functional
  Generated using ONCVPSP code by D. R. Hamann
  Author: Martin Schlipf and Francois Gygi  Date: 150915.
  9 valence electrons, 3 orbitals, 4 projectors, 1992 radial grid points, with lMax = 1
  Transforming local potential to a uniform radial grid of dG=0.02 with 1558 points.
  Transforming nonlocal projectors to a uniform radial grid of dG=0.02 with 432 points.
    2S    l: 0   occupation:  2.0   eigenvalue: -2.085640
    2P    l: 1   occupation:  6.0   eigenvalue: -1.053708
    3S    l: 0   occupation:  1.0   eigenvalue: -0.100838
  Transforming atomic orbitals to a uniform radial grid of dG=0.02 with 432 points.
  Core radius for overlap checks: 2.01 bohrs.
  Reading pulay file /home/gridsan/aligho/DFT/build-Nov24/pseudopotentials/SG15/Na_ONCV_PBE.pulay ... using dE_dnG = -2.946487e-03 computed for Ecut = 20.

Initialized 1 species with 1 total atoms.

Folded 1 k-points by 12x12x1 to 144 k-points.

---------- Setting up k-points, bands, fillings ----------
Reduced to 19 k-points under symmetry. 
Computing the number of bands and number of electrons
Calculating initial fillings.
nElectrons:   9.000000   nBands: 6   nStates: 19

----- Setting up reduced wavefunction bases (one per k-point) -----
average nbasis = 17045.229 , ideal nbasis = 17042.842

---------- Setting up coulomb interaction ----------
Initialized slab truncation along lattice direction 001

---------- Setting up 2D ewald sum ----------
Optimum gaussian width for ewald sums = 5.957638 bohr.
Real space sums over 289 unit cells with max indices [  8  8  0  ]
Reciprocal space sums over 81 terms with max indices [  4  4  0  ]

---------- Allocating electronic variables ----------
Initializing wave functions:  linear combination of atomic orbitals
Note: number of bands (6) exceeds available atomic orbitals (5)
Na pseudo-atom occupations:   s ( 2 1 )  p ( 6 )
	FillingsUpdate:  mu: -0.103947756  nElectrons: 9.000000
LCAOMinimize: Iter:   0  F: -42.5681600775427142  |grad|_K:  2.833e-05  alpha:  1.000e+00
	FillingsUpdate:  mu: -0.103961478  nElectrons: 9.000000
LCAOMinimize: Iter:   1  F: -42.5681603537621598  |grad|_K:  2.020e-07  alpha:  1.006e+00  linmin: -1.209e-02  cgtest:  4.908e-01  t[s]:      3.27
LCAOMinimize: Encountered beta<0, resetting CG.
	FillingsUpdate:  mu: -0.103961588  nElectrons: 9.000000
LCAOMinimize: Iter:   2  F: -42.5681603537750277  |grad|_K:  3.181e-09  alpha:  9.894e-01  linmin: -3.961e-02  cgtest:  6.928e-01  t[s]:      4.13
LCAOMinimize: Encountered beta<0, resetting CG.
LCAOMinimize: Converged (|Delta F|<1.000000e-06 for 2 iters).


---- Citations for features of the code used in this run ----

   Software package:
      R. Sundararaman, K. Letchworth-Weaver, K.A. Schwarz, D. Gunceler, Y. Ozhabes and T.A. Arias, 'JDFTx: software for joint density-functional theory', SoftwareX 6, 278 (2017)

   gga-PBE exchange-correlation functional:
      J.P. Perdew, K. Burke and M. Ernzerhof, Phys. Rev. Lett. 77, 3865 (1996)

   Pseudopotentials:
      M Schlipf and F Gygi, Comput. Phys. Commun. 196, 36 (2015)

   Truncated Coulomb potentials:
      R. Sundararaman and T.A. Arias, Phys. Rev. B 87, 165122 (2013)

This list may not be complete. Please suggest additional citations or
report any other bugs at https://github.com/shankar1729/jdftx/issues

Initialization completed successfully at t[s]:      4.18


-------- Electronic minimization -----------
Will mix electronic density at each iteration.
	FillingsUpdate:  mu: -0.103961588  nElectrons: 9.000000
[d-5-8-4:40764] 18 more processes have sent help message help-mpi-common-cuda.txt / dlopen failed
[d-5-8-4:40764] Set MCA parameter "orte_base_help_aggregate" to 0 to see all help / error messages
[d-5-8-4:40764] 18 more processes have sent help message help-mpi-btl-openib-cpc-base.txt / no cpcs for port
	FillingsUpdate:  mu: -0.107038156  nElectrons: 9.000000
SCF: Cycle:  0   F: -42.570758481149142   dF: -2.598e-03   |Residual|: 5.573e-03   |deigs|: 1.731e-01  t[s]:      5.75
	FillingsUpdate:  mu: -0.107526129  nElectrons: 9.000000
SCF: Cycle:  1   F: -42.570837141064828   dF: -7.866e-05   |Residual|: 4.128e-03   |deigs|: 8.027e-03  t[s]:      6.88
	FillingsUpdate:  mu: -0.108227462  nElectrons: 9.000000
SCF: Cycle:  2   F: -42.570878344308213   dF: -4.120e-05   |Residual|: 1.986e-03   |deigs|: 7.249e-03  t[s]:      8.09
	FillingsUpdate:  mu: -0.108328822  nElectrons: 9.000000
SCF: Cycle:  3   F: -42.570893617192482   dF: -1.527e-05   |Residual|: 5.873e-04   |deigs|: 2.976e-03  t[s]:      9.27
	FillingsUpdate:  mu: -0.108303551  nElectrons: 9.000000
SCF: Cycle:  4   F: -42.570896127290624   dF: -2.510e-06   |Residual|: 4.830e-04   |deigs|: 1.485e-03  t[s]:     10.47
	FillingsUpdate:  mu: -0.107927236  nElectrons: 9.000000
SCF: Cycle:  5   F: -42.570897809387276   dF: -1.682e-06   |Residual|: 3.258e-04   |deigs|: 7.586e-04  t[s]:     11.73
	FillingsUpdate:  mu: -0.107663180  nElectrons: 9.000000
SCF: Cycle:  6   F: -42.570898212922565   dF: -4.035e-07   |Residual|: 2.486e-04   |deigs|: 5.612e-04  t[s]:     12.95
	FillingsUpdate:  mu: -0.107355762  nElectrons: 9.000000
SCF: Cycle:  7   F: -42.570898664370489   dF: -4.514e-07   |Residual|: 2.499e-04   |deigs|: 5.834e-04  t[s]:     14.19
	FillingsUpdate:  mu: -0.107015721  nElectrons: 9.000000
SCF: Cycle:  8   F: -42.570898691120824   dF: -2.675e-08   |Residual|: 1.463e-04   |deigs|: 2.381e-04  t[s]:     15.44
	FillingsUpdate:  mu: -0.106819449  nElectrons: 9.000000
SCF: Cycle:  9   F: -42.570898878415477   dF: -1.873e-07   |Residual|: 2.110e-04   |deigs|: 3.223e-04  t[s]:     16.74
	FillingsUpdate:  mu: -0.106661264  nElectrons: 9.000000
SCF: Cycle: 10   F: -42.570898656220628   dF: +2.222e-07   |Residual|: 1.145e-04   |deigs|: 1.046e-04  t[s]:     18.12
	FillingsUpdate:  mu: -0.106172655  nElectrons: 9.000000
SCF: Cycle: 11   F: -42.570898772857802   dF: -1.166e-07   |Residual|: 8.814e-05   |deigs|: 5.026e-04  t[s]:     19.45
	FillingsUpdate:  mu: -0.106257578  nElectrons: 9.000000
SCF: Cycle: 12   F: -42.570899187089523   dF: -4.142e-07   |Residual|: 9.719e-05   |deigs|: 1.899e-04  t[s]:     20.77
	FillingsUpdate:  mu: -0.105933502  nElectrons: 9.000000
SCF: Cycle: 13   F: -42.570899294321578   dF: -1.072e-07   |Residual|: 5.049e-05   |deigs|: 3.720e-04  t[s]:     22.05
	FillingsUpdate:  mu: -0.105572126  nElectrons: 9.000000
SCF: Cycle: 14   F: -42.570899369555406   dF: -7.523e-08   |Residual|: 3.767e-05   |deigs|: 5.171e-04  t[s]:     23.37
	FillingsUpdate:  mu: -0.105745963  nElectrons: 9.000000
SCF: Cycle: 15   F: -42.570899483266530   dF: -1.137e-07   |Residual|: 9.985e-06   |deigs|: 5.253e-04  t[s]:     24.66
	FillingsUpdate:  mu: -0.105743226  nElectrons: 9.000000
SCF: Cycle: 16   F: -42.570899821005490   dF: -3.377e-07   |Residual|: 5.630e-06   |deigs|: 8.134e-04  t[s]:     25.84
	FillingsUpdate:  mu: -0.105752228  nElectrons: 9.000000
SCF: Cycle: 17   F: -42.570900037811455   dF: -2.168e-07   |Residual|: 3.728e-06   |deigs|: 2.845e-04  t[s]:     26.94
	FillingsUpdate:  mu: -0.105757033  nElectrons: 9.000000
SCF: Cycle: 18   F: -42.570900100392869   dF: -6.258e-08   |Residual|: 2.193e-06   |deigs|: 6.696e-05  t[s]:     28.07
	FillingsUpdate:  mu: -0.105755092  nElectrons: 9.000000
SCF: Cycle: 19   F: -42.570900111218450   dF: -1.083e-08   |Residual|: 1.176e-06   |deigs|: 1.073e-05  t[s]:     29.27
	FillingsUpdate:  mu: -0.105757034  nElectrons: 9.000000
SCF: Cycle: 20   F: -42.570900113277553   dF: -2.059e-09   |Residual|: 8.177e-07   |deigs|: 3.296e-06  t[s]:     30.51
	FillingsUpdate:  mu: -0.105758126  nElectrons: 9.000000
SCF: Cycle: 21   F: -42.570900114147399   dF: -8.698e-10   |Residual|: 4.458e-07   |deigs|: 1.445e-06  t[s]:     31.79
SCF: Converged (|Delta E|<1.000000e-08 for 2 iters).


# Ionic positions in lattice coordinates:
ion Na   0.000000000000000   0.000000000000000   0.000000000000000 0

# Forces in Lattice coordinates:
force Na   0.000000000000000   0.000000000000000   0.000000000000000 0

# Energy components:
   Eewald =      -15.9013445817908927
       EH =       17.8293765160561364
     Eloc =      -46.9865799043032766
      Enl =      -12.9097426491113865
   Epulay =        0.0000017633185026
      Exc =       -6.2092579603511187
       KE =       21.6169862483638013
-------------------------------------
     Etot =      -42.5605605678182428
       TS =        0.0103395463291560
-------------------------------------
        F =      -42.5709001141473991

IonicMinimize: Iter:   0  F: -42.570900114147399  |grad|_K:  0.000e+00  t[s]:     31.87
IonicMinimize: Converged (|grad|_K<1.000000e-04).

#--- Lowdin population analysis ---
# oxidation-state Na +0.040

End date and time: Sun Jan 16 15:03:35 2022  (Duration: 0-0:00:31.88)
Done!
