3.11
--------------------------------------------------------------------------
The library attempted to open the following supporting CUDA libraries,
but each of them failed.  CUDA-aware support is disabled.
libcuda.so.1: cannot open shared object file: No such file or directory
libcuda.dylib: cannot open shared object file: No such file or directory
/usr/lib64/libcuda.so.1: cannot open shared object file: No such file or directory
/usr/lib64/libcuda.dylib: cannot open shared object file: No such file or directory
If you are not interested in CUDA-aware support, then run with
--mca opal_warn_on_missing_libcuda 0 to suppress this message.  If you are interested
in CUDA-aware support, then try setting LD_LIBRARY_PATH to the location
of libcuda.so.1 to get passed this issue.
--------------------------------------------------------------------------
--------------------------------------------------------------------------
No OpenFabrics connection schemes reported that they were able to be
used on a specific port.  As such, the openib BTL (OpenFabrics
support) will be disabled for this port.

  Local host:           d-18-10-4
  Local device:         mlx5_1
  Local port:           1
  CPCs attempted:       rdmacm, udcm
--------------------------------------------------------------------------

*************** JDFTx 1.6.0 (git hash 42ebbcc2) ***************

Start date and time: Sun Jan 16 15:03:41 2022
Executable jdftx with command-line: -i Sodium.in
Running on hosts (process indices):  d-18-10-4 (0-18)
Divided in process groups (process indices):  0 (0)  1 (1)  2 (2)  3 (3)  4 (4)  5 (5)  6 (6)  7 (7)  8 (8)  9 (9)  10 (10)  11 (11)  12 (12)  13 (13)  14 (14)  15 (15)  16 (16)  17 (17)  18 (18)
Resource initialization completed at t[s]:      0.00
Run totals: 19 processes, 48 threads, 0 GPUs


Input parsed successfully to the following command list (including defaults):

basis kpoint-dependent
coords-type Lattice
core-overlap-check vector
coulomb-interaction Slab 001
davidson-band-ratio 1.1
dump End None
dump-name $INPUT.$VAR
elec-cutoff 20
elec-eigen-algo Davidson
elec-ex-corr gga-PBE
elec-smearing Fermi 0.01
electronic-minimize  \
	dirUpdateScheme      FletcherReeves \
	linminMethod         DirUpdateRecommended \
	nIterations          100 \
	history              15 \
	knormThreshold       0 \
	energyDiffThreshold  1e-08 \
	nEnergyDiff          2 \
	alphaTstart          1 \
	alphaTmin            1e-10 \
	updateTestStepSize   yes \
	alphaTreduceFactor   0.1 \
	alphaTincreaseFactor 3 \
	nAlphaAdjustMax      3 \
	wolfeEnergy          0.0001 \
	wolfeGradient        0.9 \
	fdTest               no
electronic-scf  \
	nIterations	10000 \
	energyDiffThreshold	1e-08 \
	residualThreshold	1e-07 \
	mixFraction	0.5 \
	qMetric	0.8 \
	history	10 \
	nEigSteps	2 \
	eigDiffThreshold	1e-08 \
	mixedVariable	Density \
	qKerker	0.8 \
	qKappa	-1 \
	verbose	no \
	mixFractionMag	1.5
exchange-regularization WignerSeitzTruncated
fluid None
fluid-ex-corr (null) lda-PZ
fluid-gummel-loop 10 1.000000e-05
fluid-minimize  \
	dirUpdateScheme      PolakRibiere \
	linminMethod         DirUpdateRecommended \
	nIterations          100 \
	history              15 \
	knormThreshold       0 \
	energyDiffThreshold  0 \
	nEnergyDiff          2 \
	alphaTstart          1 \
	alphaTmin            1e-10 \
	updateTestStepSize   yes \
	alphaTreduceFactor   0.1 \
	alphaTincreaseFactor 3 \
	nAlphaAdjustMax      3 \
	wolfeEnergy          0.0001 \
	wolfeGradient        0.9 \
	fdTest               no
fluid-solvent H2O 55.338 ScalarEOS \
	epsBulk 78.4 \
	pMol 0.92466 \
	epsInf 1.77 \
	Pvap 1.06736e-10 \
	sigmaBulk 4.62e-05 \
	Rvdw 2.61727 \
	Res 1.42 \
	tauNuc 343133 \
	poleEl 15 7 1
forces-output-coords Positions
ion Na   0.000000000000000   0.000000000000000   0.000000000000000 0
ion-species SG15/$ID_ONCV_PBE.upf
ion-width 0
ionic-minimize  \
	dirUpdateScheme      L-BFGS \
	linminMethod         DirUpdateRecommended \
	nIterations          0 \
	history              15 \
	knormThreshold       0.0001 \
	energyDiffThreshold  1e-06 \
	nEnergyDiff          2 \
	alphaTstart          1 \
	alphaTmin            1e-10 \
	updateTestStepSize   yes \
	alphaTreduceFactor   0.1 \
	alphaTincreaseFactor 3 \
	nAlphaAdjustMax      3 \
	wolfeEnergy          0.0001 \
	wolfeGradient        0.9 \
	fdTest               no
kpoint   0.000000000000   0.000000000000   0.000000000000  1.00000000000000
kpoint-folding 12 12 1 
latt-move-scale 1 1 1
latt-scale 3.11 3.11 1 
lattice  \
	   4.727486978767153   -2.363743489383575    0.000000000000000  \
	  -0.000000000000000    4.094123819672498    0.000000000000000  \
	   0.000000000000000    0.000000000000000   40.000000000000000 
lattice-minimize  \
	dirUpdateScheme      L-BFGS \
	linminMethod         DirUpdateRecommended \
	nIterations          0 \
	history              15 \
	knormThreshold       0 \
	energyDiffThreshold  1e-06 \
	nEnergyDiff          2 \
	alphaTstart          1 \
	alphaTmin            1e-10 \
	updateTestStepSize   yes \
	alphaTreduceFactor   0.1 \
	alphaTincreaseFactor 3 \
	nAlphaAdjustMax      3 \
	wolfeEnergy          0.0001 \
	wolfeGradient        0.9 \
	fdTest               no
lcao-params -1 1e-06 0.01
pcm-variant GLSSA13
spintype no-spin
subspace-rotation-factor 1 yes
symmetries automatic
symmetry-threshold 0.0001



---------- Setting up symmetries ----------

Found 24 point-group symmetries of the bravais lattice
Found 24 space-group symmetries with basis
Applied RMS atom displacement 0 bohrs to make symmetries exact.

---------- Initializing the Grid ----------
R = 
[      14.7025     -7.35124            0  ]
[            0      12.7327            0  ]
[            0            0           40  ]
unit cell volume = 7488.11
G =
[   0.427355   0.246734         -0  ]
[          0   0.493467         -0  ]
[         -0         -0    0.15708  ]
Minimum fftbox size, Smin = [  60  60  164  ]
Chosen fftbox size, S = [  60  60  168  ]

---------- Exchange Correlation functional ----------
Initalized PBE GGA exchange.
Initalized PBE GGA correlation.

---------- Setting up pseudopotentials ----------
Width of ionic core gaussian charges (only for fluid interactions / plotting) set to 0

Reading pseudopotential file '/home/gridsan/aligho/DFT/build-Nov24/pseudopotentials/SG15/Na_ONCV_PBE.upf':
  'Na' pseudopotential, 'PBE' functional
  Generated using ONCVPSP code by D. R. Hamann
  Author: Martin Schlipf and Francois Gygi  Date: 150915.
  9 valence electrons, 3 orbitals, 4 projectors, 1992 radial grid points, with lMax = 1
  Transforming local potential to a uniform radial grid of dG=0.02 with 1447 points.
  Transforming nonlocal projectors to a uniform radial grid of dG=0.02 with 432 points.
    2S    l: 0   occupation:  2.0   eigenvalue: -2.085640
    2P    l: 1   occupation:  6.0   eigenvalue: -1.053708
    3S    l: 0   occupation:  1.0   eigenvalue: -0.100838
  Transforming atomic orbitals to a uniform radial grid of dG=0.02 with 432 points.
  Core radius for overlap checks: 2.01 bohrs.
  Reading pulay file /home/gridsan/aligho/DFT/build-Nov24/pseudopotentials/SG15/Na_ONCV_PBE.pulay ... using dE_dnG = -2.946487e-03 computed for Ecut = 20.

Initialized 1 species with 1 total atoms.

Folded 1 k-points by 12x12x1 to 144 k-points.

---------- Setting up k-points, bands, fillings ----------
Reduced to 19 k-points under symmetry. 
Computing the number of bands and number of electrons
Calculating initial fillings.
nElectrons:   9.000000   nBands: 6   nStates: 19

----- Setting up reduced wavefunction bases (one per k-point) -----
average nbasis = 31990.271 , ideal nbasis = 31989.767

---------- Setting up coulomb interaction ----------
Initialized slab truncation along lattice direction 001

---------- Setting up 2D ewald sum ----------
Optimum gaussian width for ewald sums = 8.162226 bohr.
Real space sums over 289 unit cells with max indices [  8  8  0  ]
Reciprocal space sums over 81 terms with max indices [  4  4  0  ]

---------- Allocating electronic variables ----------
Initializing wave functions:  linear combination of atomic orbitals
Note: number of bands (6) exceeds available atomic orbitals (5)
Na pseudo-atom occupations:   s ( 2 1 )  p ( 6 )
	FillingsUpdate:  mu: -0.101286230  nElectrons: 9.000000
LCAOMinimize: Iter:   0  F: -42.5636034893327633  |grad|_K:  4.892e-06  alpha:  1.000e+00
[d-18-10-4:78800] 18 more processes have sent help message help-mpi-common-cuda.txt / dlopen failed
[d-18-10-4:78800] Set MCA parameter "orte_base_help_aggregate" to 0 to see all help / error messages
[d-18-10-4:78800] 18 more processes have sent help message help-mpi-btl-openib-cpc-base.txt / no cpcs for port
	FillingsUpdate:  mu: -0.101285744  nElectrons: 9.000000
LCAOMinimize: Iter:   1  F: -42.5636034974377608  |grad|_K:  1.103e-08  alpha:  9.902e-01  linmin: -4.188e-03  cgtest:  3.252e-01  t[s]:      5.03
LCAOMinimize: Encountered beta<0, resetting CG.
	FillingsUpdate:  mu: -0.101285745  nElectrons: 9.000000
LCAOMinimize: Iter:   2  F: -42.5636034974378603  |grad|_K:  9.117e-09  alpha:  1.741e-01  linmin: -6.364e-02  cgtest:  1.000e+00  t[s]:      6.30
LCAOMinimize: Encountered beta<0, resetting CG.
LCAOMinimize: Converged (|Delta F|<1.000000e-06 for 2 iters).


---- Citations for features of the code used in this run ----

   Software package:
      R. Sundararaman, K. Letchworth-Weaver, K.A. Schwarz, D. Gunceler, Y. Ozhabes and T.A. Arias, 'JDFTx: software for joint density-functional theory', SoftwareX 6, 278 (2017)

   gga-PBE exchange-correlation functional:
      J.P. Perdew, K. Burke and M. Ernzerhof, Phys. Rev. Lett. 77, 3865 (1996)

   Pseudopotentials:
      M Schlipf and F Gygi, Comput. Phys. Commun. 196, 36 (2015)

   Truncated Coulomb potentials:
      R. Sundararaman and T.A. Arias, Phys. Rev. B 87, 165122 (2013)

This list may not be complete. Please suggest additional citations or
report any other bugs at https://github.com/shankar1729/jdftx/issues

Initialization completed successfully at t[s]:      6.36


-------- Electronic minimization -----------
Will mix electronic density at each iteration.
	FillingsUpdate:  mu: -0.101285745  nElectrons: 9.000000
	FillingsUpdate:  mu: -0.101472507  nElectrons: 9.000000
SCF: Cycle:  0   F: -42.563787246102912   dF: -1.837e-04   |Residual|: 2.154e-03   |deigs|: 1.722e-01  t[s]:      8.64
	FillingsUpdate:  mu: -0.101605417  nElectrons: 9.000000
SCF: Cycle:  1   F: -42.563799874868202   dF: -1.263e-05   |Residual|: 1.078e-03   |deigs|: 4.546e-03  t[s]:     10.43
	FillingsUpdate:  mu: -0.101782325  nElectrons: 9.000000
SCF: Cycle:  2   F: -42.563803238605146   dF: -3.364e-06   |Residual|: 4.748e-04   |deigs|: 2.759e-03  t[s]:     12.25
	FillingsUpdate:  mu: -0.102017740  nElectrons: 9.000000
SCF: Cycle:  3   F: -42.563805469893609   dF: -2.231e-06   |Residual|: 6.891e-04   |deigs|: 1.195e-03  t[s]:     14.12
	FillingsUpdate:  mu: -0.102080341  nElectrons: 9.000000
SCF: Cycle:  4   F: -42.563806838024668   dF: -1.368e-06   |Residual|: 2.796e-04   |deigs|: 8.254e-04  t[s]:     15.93
	FillingsUpdate:  mu: -0.102159972  nElectrons: 9.000000
SCF: Cycle:  5   F: -42.563808242573970   dF: -1.405e-06   |Residual|: 3.859e-04   |deigs|: 1.127e-03  t[s]:     17.83
	FillingsUpdate:  mu: -0.102138433  nElectrons: 9.000000
SCF: Cycle:  6   F: -42.563810774512660   dF: -2.532e-06   |Residual|: 5.587e-05   |deigs|: 2.550e-03  t[s]:     19.75
	FillingsUpdate:  mu: -0.102128324  nElectrons: 9.000000
SCF: Cycle:  7   F: -42.563811391342306   dF: -6.168e-07   |Residual|: 3.251e-05   |deigs|: 2.686e-04  t[s]:     21.61
	FillingsUpdate:  mu: -0.102119549  nElectrons: 9.000000
SCF: Cycle:  8   F: -42.563811490968156   dF: -9.963e-08   |Residual|: 5.581e-05   |deigs|: 5.349e-05  t[s]:     23.59
	FillingsUpdate:  mu: -0.102128341  nElectrons: 9.000000
SCF: Cycle:  9   F: -42.563811531621482   dF: -4.065e-08   |Residual|: 1.513e-05   |deigs|: 6.258e-05  t[s]:     25.66
	FillingsUpdate:  mu: -0.102128418  nElectrons: 9.000000
SCF: Cycle: 10   F: -42.563811554352398   dF: -2.273e-08   |Residual|: 4.967e-05   |deigs|: 3.673e-05  t[s]:     27.70
	FillingsUpdate:  mu: -0.102127347  nElectrons: 9.000000
SCF: Cycle: 11   F: -42.563812447084125   dF: -8.927e-07   |Residual|: 4.634e-05   |deigs|: 9.366e-04  t[s]:     29.71
	FillingsUpdate:  mu: -0.102115116  nElectrons: 9.000000
SCF: Cycle: 12   F: -42.563812641986708   dF: -1.949e-07   |Residual|: 2.460e-05   |deigs|: 1.429e-04  t[s]:     31.67
	FillingsUpdate:  mu: -0.102117431  nElectrons: 9.000000
SCF: Cycle: 13   F: -42.563812648856242   dF: -6.870e-09   |Residual|: 9.093e-06   |deigs|: 1.827e-05  t[s]:     33.69
	FillingsUpdate:  mu: -0.102116870  nElectrons: 9.000000
SCF: Cycle: 14   F: -42.563812752731948   dF: -1.039e-07   |Residual|: 1.060e-05   |deigs|: 1.502e-04  t[s]:     35.72
	FillingsUpdate:  mu: -0.102115031  nElectrons: 9.000000
SCF: Cycle: 15   F: -42.563812922526232   dF: -1.698e-07   |Residual|: 2.458e-06   |deigs|: 1.983e-04  t[s]:     37.68
	FillingsUpdate:  mu: -0.102115339  nElectrons: 9.000000
SCF: Cycle: 16   F: -42.563812932847135   dF: -1.032e-08   |Residual|: 2.968e-06   |deigs|: 1.074e-05  t[s]:     39.47
	FillingsUpdate:  mu: -0.102113989  nElectrons: 9.000000
SCF: Cycle: 17   F: -42.563812934039952   dF: -1.193e-09   |Residual|: 2.913e-06   |deigs|: 1.677e-06  t[s]:     41.40
	FillingsUpdate:  mu: -0.102110493  nElectrons: 9.000000
SCF: Cycle: 18   F: -42.563812934432740   dF: -3.928e-10   |Residual|: 6.553e-06   |deigs|: 2.892e-06  t[s]:     43.43
SCF: Converged (|Delta E|<1.000000e-08 for 2 iters).


# Ionic positions in lattice coordinates:
ion Na   0.000000000000000   0.000000000000000   0.000000000000000 0

# Forces in Lattice coordinates:
force Na   0.000000000000000  -0.000000000000000   0.000000000000000 0

# Energy components:
   Eewald =      -11.6064476529470575
       EH =       22.1756002467695410
     Eloc =      -55.6358929015847892
      Enl =      -12.9030388581200945
   Epulay =        0.0000001983094436
      Exc =       -6.2092163994737586
       KE =       21.6290553430629906
-------------------------------------
     Etot =      -42.5499400239837229
       TS =        0.0138729104490166
-------------------------------------
        F =      -42.5638129344327396

IonicMinimize: Iter:   0  F: -42.563812934432740  |grad|_K:  0.000e+00  t[s]:     43.54
IonicMinimize: Converged (|grad|_K<1.000000e-04).

#--- Lowdin population analysis ---
# oxidation-state Na +0.006

End date and time: Sun Jan 16 15:04:24 2022  (Duration: 0-0:00:43.56)
Done!
