1.13
--------------------------------------------------------------------------
The library attempted to open the following supporting CUDA libraries,
but each of them failed.  CUDA-aware support is disabled.
libcuda.so.1: cannot open shared object file: No such file or directory
libcuda.dylib: cannot open shared object file: No such file or directory
/usr/lib64/libcuda.so.1: cannot open shared object file: No such file or directory
/usr/lib64/libcuda.dylib: cannot open shared object file: No such file or directory
If you are not interested in CUDA-aware support, then run with
--mca opal_warn_on_missing_libcuda 0 to suppress this message.  If you are interested
in CUDA-aware support, then try setting LD_LIBRARY_PATH to the location
of libcuda.so.1 to get passed this issue.
--------------------------------------------------------------------------
--------------------------------------------------------------------------
No OpenFabrics connection schemes reported that they were able to be
used on a specific port.  As such, the openib BTL (OpenFabrics
support) will be disabled for this port.

  Local host:           d-17-9-2
  Local device:         mlx5_1
  Local port:           1
  CPCs attempted:       rdmacm, udcm
--------------------------------------------------------------------------

*************** JDFTx 1.6.0 (git hash 42ebbcc2) ***************

Start date and time: Sun Jan 16 15:01:47 2022
Executable jdftx with command-line: -i Sodium.in
Running on hosts (process indices):  d-17-9-2 (0-18)
Divided in process groups (process indices):  0 (0)  1 (1)  2 (2)  3 (3)  4 (4)  5 (5)  6 (6)  7 (7)  8 (8)  9 (9)  10 (10)  11 (11)  12 (12)  13 (13)  14 (14)  15 (15)  16 (16)  17 (17)  18 (18)
Resource initialization completed at t[s]:      0.00
Run totals: 19 processes, 48 threads, 0 GPUs


Input parsed successfully to the following command list (including defaults):

basis kpoint-dependent
coords-type Lattice
core-overlap-check vector
coulomb-interaction Slab 001
davidson-band-ratio 1.1
dump End None
dump-name $INPUT.$VAR
elec-cutoff 20
elec-eigen-algo Davidson
elec-ex-corr gga-PBE
elec-smearing Fermi 0.01
electronic-minimize  \
	dirUpdateScheme      FletcherReeves \
	linminMethod         DirUpdateRecommended \
	nIterations          100 \
	history              15 \
	knormThreshold       0 \
	energyDiffThreshold  1e-08 \
	nEnergyDiff          2 \
	alphaTstart          1 \
	alphaTmin            1e-10 \
	updateTestStepSize   yes \
	alphaTreduceFactor   0.1 \
	alphaTincreaseFactor 3 \
	nAlphaAdjustMax      3 \
	wolfeEnergy          0.0001 \
	wolfeGradient        0.9 \
	fdTest               no
electronic-scf  \
	nIterations	10000 \
	energyDiffThreshold	1e-08 \
	residualThreshold	1e-07 \
	mixFraction	0.5 \
	qMetric	0.8 \
	history	10 \
	nEigSteps	2 \
	eigDiffThreshold	1e-08 \
	mixedVariable	Density \
	qKerker	0.8 \
	qKappa	-1 \
	verbose	no \
	mixFractionMag	1.5
exchange-regularization WignerSeitzTruncated
fluid None
fluid-ex-corr (null) lda-PZ
fluid-gummel-loop 10 1.000000e-05
fluid-minimize  \
	dirUpdateScheme      PolakRibiere \
	linminMethod         DirUpdateRecommended \
	nIterations          100 \
	history              15 \
	knormThreshold       0 \
	energyDiffThreshold  0 \
	nEnergyDiff          2 \
	alphaTstart          1 \
	alphaTmin            1e-10 \
	updateTestStepSize   yes \
	alphaTreduceFactor   0.1 \
	alphaTincreaseFactor 3 \
	nAlphaAdjustMax      3 \
	wolfeEnergy          0.0001 \
	wolfeGradient        0.9 \
	fdTest               no
fluid-solvent H2O 55.338 ScalarEOS \
	epsBulk 78.4 \
	pMol 0.92466 \
	epsInf 1.77 \
	Pvap 1.06736e-10 \
	sigmaBulk 4.62e-05 \
	Rvdw 2.61727 \
	Res 1.42 \
	tauNuc 343133 \
	poleEl 15 7 1
forces-output-coords Positions
ion Na   0.000000000000000   0.000000000000000   0.000000000000000 0
ion-species SG15/$ID_ONCV_PBE.upf
ion-width 0
ionic-minimize  \
	dirUpdateScheme      L-BFGS \
	linminMethod         DirUpdateRecommended \
	nIterations          0 \
	history              15 \
	knormThreshold       0.0001 \
	energyDiffThreshold  1e-06 \
	nEnergyDiff          2 \
	alphaTstart          1 \
	alphaTmin            1e-10 \
	updateTestStepSize   yes \
	alphaTreduceFactor   0.1 \
	alphaTincreaseFactor 3 \
	nAlphaAdjustMax      3 \
	wolfeEnergy          0.0001 \
	wolfeGradient        0.9 \
	fdTest               no
kpoint   0.000000000000   0.000000000000   0.000000000000  1.00000000000000
kpoint-folding 12 12 1 
latt-move-scale 1 1 1
latt-scale 1.13 1.13 1 
lattice  \
	   4.727486978767153   -2.363743489383575    0.000000000000000  \
	  -0.000000000000000    4.094123819672498    0.000000000000000  \
	   0.000000000000000    0.000000000000000   40.000000000000000 
lattice-minimize  \
	dirUpdateScheme      L-BFGS \
	linminMethod         DirUpdateRecommended \
	nIterations          0 \
	history              15 \
	knormThreshold       0 \
	energyDiffThreshold  1e-06 \
	nEnergyDiff          2 \
	alphaTstart          1 \
	alphaTmin            1e-10 \
	updateTestStepSize   yes \
	alphaTreduceFactor   0.1 \
	alphaTincreaseFactor 3 \
	nAlphaAdjustMax      3 \
	wolfeEnergy          0.0001 \
	wolfeGradient        0.9 \
	fdTest               no
lcao-params -1 1e-06 0.01
pcm-variant GLSSA13
spintype no-spin
subspace-rotation-factor 1 yes
symmetries automatic
symmetry-threshold 0.0001



---------- Setting up symmetries ----------

Found 24 point-group symmetries of the bravais lattice
Found 24 space-group symmetries with basis
Applied RMS atom displacement 0 bohrs to make symmetries exact.

---------- Initializing the Grid ----------
R = 
[      5.34206     -2.67103            0  ]
[            0      4.62636            0  ]
[            0            0           40  ]
unit cell volume = 988.572
G =
[    1.17617   0.679064         -0  ]
[          0    1.35813         -0  ]
[         -0         -0    0.15708  ]
Minimum fftbox size, Smin = [  24  24  164  ]
Chosen fftbox size, S = [  24  24  168  ]

---------- Exchange Correlation functional ----------
Initalized PBE GGA exchange.
Initalized PBE GGA correlation.

---------- Setting up pseudopotentials ----------
Width of ionic core gaussian charges (only for fluid interactions / plotting) set to 0

Reading pseudopotential file '/home/gridsan/aligho/DFT/build-Nov24/pseudopotentials/SG15/Na_ONCV_PBE.upf':
  'Na' pseudopotential, 'PBE' functional
  Generated using ONCVPSP code by D. R. Hamann
  Author: Martin Schlipf and Francois Gygi  Date: 150915.
  9 valence electrons, 3 orbitals, 4 projectors, 1992 radial grid points, with lMax = 1
  Transforming local potential to a uniform radial grid of dG=0.02 with 1563 points.
  Transforming nonlocal projectors to a uniform radial grid of dG=0.02 with 432 points.
    2S    l: 0   occupation:  2.0   eigenvalue: -2.085640
    2P    l: 1   occupation:  6.0   eigenvalue: -1.053708
    3S    l: 0   occupation:  1.0   eigenvalue: -0.100838
  Transforming atomic orbitals to a uniform radial grid of dG=0.02 with 432 points.
  Core radius for overlap checks: 2.01 bohrs.
  Reading pulay file /home/gridsan/aligho/DFT/build-Nov24/pseudopotentials/SG15/Na_ONCV_PBE.pulay ... using dE_dnG = -2.946487e-03 computed for Ecut = 20.

Initialized 1 species with 1 total atoms.

Folded 1 k-points by 12x12x1 to 144 k-points.

---------- Setting up k-points, bands, fillings ----------
Reduced to 19 k-points under symmetry. 
Computing the number of bands and number of electrons
Calculating initial fillings.
nElectrons:   9.000000   nBands: 6   nStates: 19

----- Setting up reduced wavefunction bases (one per k-point) -----
average nbasis = 4222.771 , ideal nbasis = 4223.254

---------- Setting up coulomb interaction ----------
Initialized slab truncation along lattice direction 001

---------- Setting up 2D ewald sum ----------
Optimum gaussian width for ewald sums = 2.965696 bohr.
Real space sums over 289 unit cells with max indices [  8  8  0  ]
Reciprocal space sums over 81 terms with max indices [  4  4  0  ]

---------- Allocating electronic variables ----------
Initializing wave functions:  linear combination of atomic orbitals
Note: number of bands (6) exceeds available atomic orbitals (5)
Na pseudo-atom occupations:   s ( 2 1 )  p ( 6 )
	FillingsUpdate:  mu: -0.134981412  nElectrons: 9.000000
LCAOMinimize: Iter:   0  F: -42.5584404231348472  |grad|_K:  2.439e-05  alpha:  1.000e+00
	FillingsUpdate:  mu: -0.134964068  nElectrons: 9.000000
LCAOMinimize: Iter:   1  F: -42.5584406275090501  |grad|_K:  1.452e-07  alpha:  1.005e+00  linmin:  7.140e-02  cgtest: -8.332e-01  t[s]:      1.29
	FillingsUpdate:  mu: -0.134964131  nElectrons: 9.000000
LCAOMinimize: Iter:   2  F: -42.5584406275107270  |grad|_K:  1.242e-07  alpha:  6.780e-01  linmin: -2.452e-03  cgtest:  9.236e-01  t[s]:      1.57
LCAOMinimize: Encountered beta<0, resetting CG.
LCAOMinimize: Converged (|Delta F|<1.000000e-06 for 2 iters).


---- Citations for features of the code used in this run ----

   Software package:
      R. Sundararaman, K. Letchworth-Weaver, K.A. Schwarz, D. Gunceler, Y. Ozhabes and T.A. Arias, 'JDFTx: software for joint density-functional theory', SoftwareX 6, 278 (2017)

   gga-PBE exchange-correlation functional:
      J.P. Perdew, K. Burke and M. Ernzerhof, Phys. Rev. Lett. 77, 3865 (1996)

   Pseudopotentials:
      M Schlipf and F Gygi, Comput. Phys. Commun. 196, 36 (2015)

   Truncated Coulomb potentials:
      R. Sundararaman and T.A. Arias, Phys. Rev. B 87, 165122 (2013)

This list may not be complete. Please suggest additional citations or
report any other bugs at https://github.com/shankar1729/jdftx/issues

Initialization completed successfully at t[s]:      1.60


-------- Electronic minimization -----------
Will mix electronic density at each iteration.
	FillingsUpdate:  mu: -0.134964131  nElectrons: 9.000000
	FillingsUpdate:  mu: -0.150216168  nElectrons: 9.000000
SCF: Cycle:  0   F: -42.567088967802867   dF: -8.648e-03   |Residual|: 2.141e-02   |deigs|: 1.600e-01  t[s]:      2.07
	FillingsUpdate:  mu: -0.148703244  nElectrons: 9.000000
SCF: Cycle:  1   F: -42.567879510821186   dF: -7.905e-04   |Residual|: 1.348e-02   |deigs|: 2.076e-02  t[s]:      2.39
	FillingsUpdate:  mu: -0.144131932  nElectrons: 9.000000
SCF: Cycle:  2   F: -42.569032368427322   dF: -1.153e-03   |Residual|: 4.556e-03   |deigs|: 1.221e-02  t[s]:      2.74
	FillingsUpdate:  mu: -0.140647404  nElectrons: 9.000000
SCF: Cycle:  3   F: -42.569247733435255   dF: -2.154e-04   |Residual|: 5.275e-03   |deigs|: 8.586e-03  t[s]:      3.08
	FillingsUpdate:  mu: -0.139985395  nElectrons: 9.000000
SCF: Cycle:  4   F: -42.569276042430666   dF: -2.831e-05   |Residual|: 4.631e-03   |deigs|: 7.381e-03  t[s]:      3.43
	FillingsUpdate:  mu: -0.136644204  nElectrons: 9.000000
SCF: Cycle:  5   F: -42.569300657271050   dF: -2.461e-05   |Residual|: 1.364e-03   |deigs|: 4.129e-03  t[s]:      3.79
	FillingsUpdate:  mu: -0.137465051  nElectrons: 9.000000
SCF: Cycle:  6   F: -42.569290431534583   dF: +1.023e-05   |Residual|: 8.831e-03   |deigs|: 7.818e-03  t[s]:      4.15
	FillingsUpdate:  mu: -0.135321561  nElectrons: 9.000000
SCF: Cycle:  7   F: -42.569304162959781   dF: -1.373e-05   |Residual|: 6.293e-03   |deigs|: 2.413e-03  t[s]:      4.50
	FillingsUpdate:  mu: -0.132355710  nElectrons: 9.000000
[d-17-9-2:60923] 18 more processes have sent help message help-mpi-common-cuda.txt / dlopen failed
[d-17-9-2:60923] Set MCA parameter "orte_base_help_aggregate" to 0 to see all help / error messages
[d-17-9-2:60923] 18 more processes have sent help message help-mpi-btl-openib-cpc-base.txt / no cpcs for port
SCF: Cycle:  8   F: -42.569309868092304   dF: -5.705e-06   |Residual|: 2.920e-03   |deigs|: 2.304e-03  t[s]:      4.87
	FillingsUpdate:  mu: -0.132830810  nElectrons: 9.000000
SCF: Cycle:  9   F: -42.569309884154514   dF: -1.606e-08   |Residual|: 2.916e-03   |deigs|: 1.261e-03  t[s]:      5.23
	FillingsUpdate:  mu: -0.126851608  nElectrons: 9.000000
SCF: Cycle: 10   F: -42.569318842187137   dF: -8.958e-06   |Residual|: 3.301e-03   |deigs|: 6.674e-03  t[s]:      5.61
	FillingsUpdate:  mu: -0.125543783  nElectrons: 9.000000
SCF: Cycle: 11   F: -42.569319603157396   dF: -7.610e-07   |Residual|: 4.573e-04   |deigs|: 8.519e-04  t[s]:      5.98
	FillingsUpdate:  mu: -0.123310202  nElectrons: 9.000000
SCF: Cycle: 12   F: -42.569315066691246   dF: +4.536e-06   |Residual|: 2.748e-03   |deigs|: 1.358e-03  t[s]:      6.35
	FillingsUpdate:  mu: -0.120216591  nElectrons: 9.000000
SCF: Cycle: 13   F: -42.569327381745119   dF: -1.232e-05   |Residual|: 3.367e-04   |deigs|: 4.495e-03  t[s]:      6.72
	FillingsUpdate:  mu: -0.119162190  nElectrons: 9.000000
SCF: Cycle: 14   F: -42.569328802994832   dF: -1.421e-06   |Residual|: 3.971e-04   |deigs|: 1.086e-03  t[s]:      7.08
	FillingsUpdate:  mu: -0.118267555  nElectrons: 9.000000
SCF: Cycle: 15   F: -42.569329988013550   dF: -1.185e-06   |Residual|: 1.195e-04   |deigs|: 9.908e-04  t[s]:      7.45
	FillingsUpdate:  mu: -0.118188424  nElectrons: 9.000000
SCF: Cycle: 16   F: -42.569330068859706   dF: -8.085e-08   |Residual|: 1.115e-04   |deigs|: 9.313e-05  t[s]:      7.82
	FillingsUpdate:  mu: -0.118166573  nElectrons: 9.000000
SCF: Cycle: 17   F: -42.569330095206261   dF: -2.635e-08   |Residual|: 2.771e-05   |deigs|: 1.938e-05  t[s]:      8.19
	FillingsUpdate:  mu: -0.118241630  nElectrons: 9.000000
SCF: Cycle: 18   F: -42.569330097281750   dF: -2.075e-09   |Residual|: 1.712e-05   |deigs|: 7.459e-05  t[s]:      8.54
	FillingsUpdate:  mu: -0.118191152  nElectrons: 9.000000
SCF: Cycle: 19   F: -42.569330099210795   dF: -1.929e-09   |Residual|: 1.060e-05   |deigs|: 5.421e-05  t[s]:      8.91
SCF: Converged (|Delta E|<1.000000e-08 for 2 iters).


# Ionic positions in lattice coordinates:
ion Na   0.000000000000000   0.000000000000000   0.000000000000000 0

# Forces in Lattice coordinates:
force Na  -0.000000000000000  -0.000000000000000   0.000000000000000 0

# Energy components:
   Eewald =      -31.9434090271374487
       EH =        1.8080455725405236
     Eloc =      -14.9853356304887555
      Enl =      -12.9232521865142580
   Epulay =       -0.0000014395734915
      Exc =       -6.2851611306891861
       KE =       21.7642123008905024
-------------------------------------
     Etot =      -42.5649015409721017
       TS =        0.0044285582386927
-------------------------------------
        F =      -42.5693300992107950

IonicMinimize: Iter:   0  F: -42.569330099210795  |grad|_K:  0.000e+00  t[s]:      8.93
IonicMinimize: Converged (|grad|_K<1.000000e-04).

#--- Lowdin population analysis ---
# oxidation-state Na +0.104

End date and time: Sun Jan 16 15:01:56 2022  (Duration: 0-0:00:08.94)
Done!
