1.46
--------------------------------------------------------------------------
The library attempted to open the following supporting CUDA libraries,
but each of them failed.  CUDA-aware support is disabled.
libcuda.so.1: cannot open shared object file: No such file or directory
libcuda.dylib: cannot open shared object file: No such file or directory
/usr/lib64/libcuda.so.1: cannot open shared object file: No such file or directory
/usr/lib64/libcuda.dylib: cannot open shared object file: No such file or directory
If you are not interested in CUDA-aware support, then run with
--mca opal_warn_on_missing_libcuda 0 to suppress this message.  If you are interested
in CUDA-aware support, then try setting LD_LIBRARY_PATH to the location
of libcuda.so.1 to get passed this issue.
--------------------------------------------------------------------------
--------------------------------------------------------------------------
No OpenFabrics connection schemes reported that they were able to be
used on a specific port.  As such, the openib BTL (OpenFabrics
support) will be disabled for this port.

  Local host:           d-4-7-2
  Local device:         mlx5_1
  Local port:           1
  CPCs attempted:       rdmacm, udcm
--------------------------------------------------------------------------

*************** JDFTx 1.6.0 (git hash 42ebbcc2) ***************

Start date and time: Sun Jan 16 15:02:25 2022
Executable jdftx with command-line: -i Sodium.in
Running on hosts (process indices):  d-4-7-2 (0-18)
Divided in process groups (process indices):  0 (0)  1 (1)  2 (2)  3 (3)  4 (4)  5 (5)  6 (6)  7 (7)  8 (8)  9 (9)  10 (10)  11 (11)  12 (12)  13 (13)  14 (14)  15 (15)  16 (16)  17 (17)  18 (18)
Resource initialization completed at t[s]:      0.00
Run totals: 19 processes, 48 threads, 0 GPUs


Input parsed successfully to the following command list (including defaults):

basis kpoint-dependent
coords-type Lattice
core-overlap-check vector
coulomb-interaction Slab 001
davidson-band-ratio 1.1
dump End None
dump-name $INPUT.$VAR
elec-cutoff 20
elec-eigen-algo Davidson
elec-ex-corr gga-PBE
elec-smearing Fermi 0.01
electronic-minimize  \
	dirUpdateScheme      FletcherReeves \
	linminMethod         DirUpdateRecommended \
	nIterations          100 \
	history              15 \
	knormThreshold       0 \
	energyDiffThreshold  1e-08 \
	nEnergyDiff          2 \
	alphaTstart          1 \
	alphaTmin            1e-10 \
	updateTestStepSize   yes \
	alphaTreduceFactor   0.1 \
	alphaTincreaseFactor 3 \
	nAlphaAdjustMax      3 \
	wolfeEnergy          0.0001 \
	wolfeGradient        0.9 \
	fdTest               no
electronic-scf  \
	nIterations	10000 \
	energyDiffThreshold	1e-08 \
	residualThreshold	1e-07 \
	mixFraction	0.5 \
	qMetric	0.8 \
	history	10 \
	nEigSteps	2 \
	eigDiffThreshold	1e-08 \
	mixedVariable	Density \
	qKerker	0.8 \
	qKappa	-1 \
	verbose	no \
	mixFractionMag	1.5
exchange-regularization WignerSeitzTruncated
fluid None
fluid-ex-corr (null) lda-PZ
fluid-gummel-loop 10 1.000000e-05
fluid-minimize  \
	dirUpdateScheme      PolakRibiere \
	linminMethod         DirUpdateRecommended \
	nIterations          100 \
	history              15 \
	knormThreshold       0 \
	energyDiffThreshold  0 \
	nEnergyDiff          2 \
	alphaTstart          1 \
	alphaTmin            1e-10 \
	updateTestStepSize   yes \
	alphaTreduceFactor   0.1 \
	alphaTincreaseFactor 3 \
	nAlphaAdjustMax      3 \
	wolfeEnergy          0.0001 \
	wolfeGradient        0.9 \
	fdTest               no
fluid-solvent H2O 55.338 ScalarEOS \
	epsBulk 78.4 \
	pMol 0.92466 \
	epsInf 1.77 \
	Pvap 1.06736e-10 \
	sigmaBulk 4.62e-05 \
	Rvdw 2.61727 \
	Res 1.42 \
	tauNuc 343133 \
	poleEl 15 7 1
forces-output-coords Positions
ion Na   0.000000000000000   0.000000000000000   0.000000000000000 0
ion-species SG15/$ID_ONCV_PBE.upf
ion-width 0
ionic-minimize  \
	dirUpdateScheme      L-BFGS \
	linminMethod         DirUpdateRecommended \
	nIterations          0 \
	history              15 \
	knormThreshold       0.0001 \
	energyDiffThreshold  1e-06 \
	nEnergyDiff          2 \
	alphaTstart          1 \
	alphaTmin            1e-10 \
	updateTestStepSize   yes \
	alphaTreduceFactor   0.1 \
	alphaTincreaseFactor 3 \
	nAlphaAdjustMax      3 \
	wolfeEnergy          0.0001 \
	wolfeGradient        0.9 \
	fdTest               no
kpoint   0.000000000000   0.000000000000   0.000000000000  1.00000000000000
kpoint-folding 12 12 1 
latt-move-scale 1 1 1
latt-scale 1.46 1.46 1 
lattice  \
	   4.727486978767153   -2.363743489383575    0.000000000000000  \
	  -0.000000000000000    4.094123819672498    0.000000000000000  \
	   0.000000000000000    0.000000000000000   40.000000000000000 
lattice-minimize  \
	dirUpdateScheme      L-BFGS \
	linminMethod         DirUpdateRecommended \
	nIterations          0 \
	history              15 \
	knormThreshold       0 \
	energyDiffThreshold  1e-06 \
	nEnergyDiff          2 \
	alphaTstart          1 \
	alphaTmin            1e-10 \
	updateTestStepSize   yes \
	alphaTreduceFactor   0.1 \
	alphaTincreaseFactor 3 \
	nAlphaAdjustMax      3 \
	wolfeEnergy          0.0001 \
	wolfeGradient        0.9 \
	fdTest               no
lcao-params -1 1e-06 0.01
pcm-variant GLSSA13
spintype no-spin
subspace-rotation-factor 1 yes
symmetries automatic
symmetry-threshold 0.0001



---------- Setting up symmetries ----------

Found 24 point-group symmetries of the bravais lattice
Found 24 space-group symmetries with basis
Applied RMS atom displacement 0 bohrs to make symmetries exact.

---------- Initializing the Grid ----------
R = 
[      6.90213     -3.45107            0  ]
[            0      5.97742            0  ]
[            0            0           40  ]
unit cell volume = 1650.28
G =
[   0.910325   0.525577         -0  ]
[          0    1.05115         -0  ]
[         -0         -0    0.15708  ]
Minimum fftbox size, Smin = [  28  28  164  ]
Chosen fftbox size, S = [  28  28  168  ]

---------- Exchange Correlation functional ----------
Initalized PBE GGA exchange.
Initalized PBE GGA correlation.

---------- Setting up pseudopotentials ----------
Width of ionic core gaussian charges (only for fluid interactions / plotting) set to 0

Reading pseudopotential file '/home/gridsan/aligho/DFT/build-Nov24/pseudopotentials/SG15/Na_ONCV_PBE.upf':
  'Na' pseudopotential, 'PBE' functional
  Generated using ONCVPSP code by D. R. Hamann
  Author: Martin Schlipf and Francois Gygi  Date: 150915.
  9 valence electrons, 3 orbitals, 4 projectors, 1992 radial grid points, with lMax = 1
  Transforming local potential to a uniform radial grid of dG=0.02 with 1441 points.
  Transforming nonlocal projectors to a uniform radial grid of dG=0.02 with 432 points.
    2S    l: 0   occupation:  2.0   eigenvalue: -2.085640
    2P    l: 1   occupation:  6.0   eigenvalue: -1.053708
    3S    l: 0   occupation:  1.0   eigenvalue: -0.100838
  Transforming atomic orbitals to a uniform radial grid of dG=0.02 with 432 points.
  Core radius for overlap checks: 2.01 bohrs.
  Reading pulay file /home/gridsan/aligho/DFT/build-Nov24/pseudopotentials/SG15/Na_ONCV_PBE.pulay ... using dE_dnG = -2.946487e-03 computed for Ecut = 20.

Initialized 1 species with 1 total atoms.

Folded 1 k-points by 12x12x1 to 144 k-points.

---------- Setting up k-points, bands, fillings ----------
Reduced to 19 k-points under symmetry. 
Computing the number of bands and number of electrons
Calculating initial fillings.
nElectrons:   9.000000   nBands: 6   nStates: 19

----- Setting up reduced wavefunction bases (one per k-point) -----
average nbasis = 7050.521 , ideal nbasis = 7050.112

---------- Setting up coulomb interaction ----------
Initialized slab truncation along lattice direction 001

---------- Setting up 2D ewald sum ----------
Optimum gaussian width for ewald sums = 3.831785 bohr.
Real space sums over 289 unit cells with max indices [  8  8  0  ]
Reciprocal space sums over 81 terms with max indices [  4  4  0  ]

---------- Allocating electronic variables ----------
Initializing wave functions:  linear combination of atomic orbitals
Note: number of bands (6) exceeds available atomic orbitals (5)
Na pseudo-atom occupations:   s ( 2 1 )  p ( 6 )
	FillingsUpdate:  mu: -0.118940287  nElectrons: 9.000000
LCAOMinimize: Iter:   0  F: -42.5816955493795959  |grad|_K:  8.274e-06  alpha:  1.000e+00
	FillingsUpdate:  mu: -0.118936624  nElectrons: 9.000000
LCAOMinimize: Iter:   1  F: -42.5816955725711992  |grad|_K:  7.712e-08  alpha:  9.906e-01  linmin: -1.110e-04  cgtest: -4.982e-04  t[s]:      1.68
	FillingsUpdate:  mu: -0.118936626  nElectrons: 9.000000
LCAOMinimize: Iter:   2  F: -42.5816955725753061  |grad|_K:  1.443e-08  alpha:  1.180e+00  linmin:  4.483e-02  cgtest: -9.999e-01  t[s]:      2.04
LCAOMinimize: Converged (|Delta F|<1.000000e-06 for 2 iters).


---- Citations for features of the code used in this run ----

   Software package:
      R. Sundararaman, K. Letchworth-Weaver, K.A. Schwarz, D. Gunceler, Y. Ozhabes and T.A. Arias, 'JDFTx: software for joint density-functional theory', SoftwareX 6, 278 (2017)

   gga-PBE exchange-correlation functional:
      J.P. Perdew, K. Burke and M. Ernzerhof, Phys. Rev. Lett. 77, 3865 (1996)

   Pseudopotentials:
      M Schlipf and F Gygi, Comput. Phys. Commun. 196, 36 (2015)

   Truncated Coulomb potentials:
      R. Sundararaman and T.A. Arias, Phys. Rev. B 87, 165122 (2013)

This list may not be complete. Please suggest additional citations or
report any other bugs at https://github.com/shankar1729/jdftx/issues

Initialization completed successfully at t[s]:      2.08


-------- Electronic minimization -----------
Will mix electronic density at each iteration.
	FillingsUpdate:  mu: -0.118936626  nElectrons: 9.000000
	FillingsUpdate:  mu: -0.134335017  nElectrons: 9.000000
SCF: Cycle:  0   F: -42.588993411190323   dF: -7.298e-03   |Residual|: 1.212e-02   |deigs|: 1.664e-01  t[s]:      2.74
	FillingsUpdate:  mu: -0.133453282  nElectrons: 9.000000
SCF: Cycle:  1   F: -42.589111514305529   dF: -1.181e-04   |Residual|: 8.628e-03   |deigs|: 1.706e-02  t[s]:      3.20
	FillingsUpdate:  mu: -0.129193357  nElectrons: 9.000000
SCF: Cycle:  2   F: -42.589164320910534   dF: -5.281e-05   |Residual|: 3.660e-03   |deigs|: 7.168e-03  t[s]:      3.68
	FillingsUpdate:  mu: -0.125259416  nElectrons: 9.000000
SCF: Cycle:  3   F: -42.589234157902553   dF: -6.984e-05   |Residual|: 2.876e-03   |deigs|: 8.616e-03  t[s]:      4.17
	FillingsUpdate:  mu: -0.125879382  nElectrons: 9.000000
SCF: Cycle:  4   F: -42.589244561085238   dF: -1.040e-05   |Residual|: 2.098e-03   |deigs|: 3.006e-03  t[s]:      4.65
[d-4-7-2:31077] 18 more processes have sent help message help-mpi-common-cuda.txt / dlopen failed
[d-4-7-2:31077] Set MCA parameter "orte_base_help_aggregate" to 0 to see all help / error messages
[d-4-7-2:31077] 18 more processes have sent help message help-mpi-btl-openib-cpc-base.txt / no cpcs for port
	FillingsUpdate:  mu: -0.121994770  nElectrons: 9.000000
SCF: Cycle:  5   F: -42.589257698143392   dF: -1.314e-05   |Residual|: 1.067e-03   |deigs|: 5.591e-03  t[s]:      5.15
	FillingsUpdate:  mu: -0.119217042  nElectrons: 9.000000
SCF: Cycle:  6   F: -42.589265573169428   dF: -7.875e-06   |Residual|: 9.994e-04   |deigs|: 2.964e-03  t[s]:      5.64
	FillingsUpdate:  mu: -0.119810667  nElectrons: 9.000000
SCF: Cycle:  7   F: -42.589258738710299   dF: +6.834e-06   |Residual|: 1.011e-03   |deigs|: 1.555e-03  t[s]:      6.14
	FillingsUpdate:  mu: -0.117249728  nElectrons: 9.000000
SCF: Cycle:  8   F: -42.589260332779041   dF: -1.594e-06   |Residual|: 6.645e-04   |deigs|: 2.996e-03  t[s]:      6.63
	FillingsUpdate:  mu: -0.117137036  nElectrons: 9.000000
SCF: Cycle:  9   F: -42.589266274463711   dF: -5.942e-06   |Residual|: 1.512e-03   |deigs|: 1.122e-03  t[s]:      7.15
	FillingsUpdate:  mu: -0.116276857  nElectrons: 9.000000
SCF: Cycle: 10   F: -42.589267126336232   dF: -8.519e-07   |Residual|: 1.302e-03   |deigs|: 1.550e-03  t[s]:      7.65
	FillingsUpdate:  mu: -0.111623807  nElectrons: 9.000000
SCF: Cycle: 11   F: -42.589273828619035   dF: -6.702e-06   |Residual|: 7.544e-04   |deigs|: 5.387e-03  t[s]:      8.17
	FillingsUpdate:  mu: -0.110480295  nElectrons: 9.000000
SCF: Cycle: 12   F: -42.589275383953776   dF: -1.555e-06   |Residual|: 6.107e-04   |deigs|: 9.429e-04  t[s]:      8.68
	FillingsUpdate:  mu: -0.109395944  nElectrons: 9.000000
SCF: Cycle: 13   F: -42.589276381755290   dF: -9.978e-07   |Residual|: 3.510e-04   |deigs|: 1.183e-03  t[s]:      9.18
	FillingsUpdate:  mu: -0.108942778  nElectrons: 9.000000
SCF: Cycle: 14   F: -42.589276562497481   dF: -1.807e-07   |Residual|: 2.000e-04   |deigs|: 5.353e-04  t[s]:      9.69
	FillingsUpdate:  mu: -0.108654202  nElectrons: 9.000000
SCF: Cycle: 15   F: -42.589276636112238   dF: -7.361e-08   |Residual|: 2.916e-05   |deigs|: 3.818e-04  t[s]:     10.21
	FillingsUpdate:  mu: -0.108658691  nElectrons: 9.000000
SCF: Cycle: 16   F: -42.589276650298750   dF: -1.419e-08   |Residual|: 1.827e-05   |deigs|: 1.749e-03  t[s]:     10.71
	FillingsUpdate:  mu: -0.108648221  nElectrons: 9.000000
SCF: Cycle: 17   F: -42.589276666286644   dF: -1.599e-08   |Residual|: 6.810e-06   |deigs|: 4.050e-04  t[s]:     11.25
	FillingsUpdate:  mu: -0.108645040  nElectrons: 9.000000
SCF: Cycle: 18   F: -42.589276667177060   dF: -8.904e-10   |Residual|: 5.098e-06   |deigs|: 1.389e-05  t[s]:     11.76
	FillingsUpdate:  mu: -0.108651338  nElectrons: 9.000000
SCF: Cycle: 19   F: -42.589276667303309   dF: -1.262e-10   |Residual|: 1.748e-06   |deigs|: 8.048e-06  t[s]:     12.28
SCF: Converged (|Delta E|<1.000000e-08 for 2 iters).


# Ionic positions in lattice coordinates:
ion Na   0.000000000000000   0.000000000000000   0.000000000000000 0

# Forces in Lattice coordinates:
force Na   0.000000000000000   0.000000000000000   0.000000000000000 0

# Energy components:
   Eewald =      -24.7233234251132359
       EH =        9.2347508092300270
     Eloc =      -29.5984107975935942
      Enl =      -12.9168683887695757
   Epulay =        0.0000007301808948
      Exc =       -6.2480916820368524
       KE =       21.6675670622804653
-------------------------------------
     Etot =      -42.5843756918218617
       TS =        0.0049009754814444
-------------------------------------
        F =      -42.5892766673033094

IonicMinimize: Iter:   0  F: -42.589276667303309  |grad|_K:  0.000e+00  t[s]:     12.30
IonicMinimize: Converged (|grad|_K<1.000000e-04).

#--- Lowdin population analysis ---
# oxidation-state Na +0.048

End date and time: Sun Jan 16 15:02:37 2022  (Duration: 0-0:00:12.31)
Done!
