1.79
--------------------------------------------------------------------------
The library attempted to open the following supporting CUDA libraries,
but each of them failed.  CUDA-aware support is disabled.
libcuda.so.1: cannot open shared object file: No such file or directory
libcuda.dylib: cannot open shared object file: No such file or directory
/usr/lib64/libcuda.so.1: cannot open shared object file: No such file or directory
/usr/lib64/libcuda.dylib: cannot open shared object file: No such file or directory
If you are not interested in CUDA-aware support, then run with
--mca opal_warn_on_missing_libcuda 0 to suppress this message.  If you are interested
in CUDA-aware support, then try setting LD_LIBRARY_PATH to the location
of libcuda.so.1 to get passed this issue.
--------------------------------------------------------------------------
--------------------------------------------------------------------------
No OpenFabrics connection schemes reported that they were able to be
used on a specific port.  As such, the openib BTL (OpenFabrics
support) will be disabled for this port.

  Local host:           d-16-11-3
  Local device:         mlx5_1
  Local port:           1
  CPCs attempted:       rdmacm, udcm
--------------------------------------------------------------------------

*************** JDFTx 1.6.0 (git hash 42ebbcc2) ***************

Start date and time: Sun Jan 16 15:02:25 2022
Executable jdftx with command-line: -i Sodium.in
Running on hosts (process indices):  d-16-11-3 (0-18)
Divided in process groups (process indices):  0 (0)  1 (1)  2 (2)  3 (3)  4 (4)  5 (5)  6 (6)  7 (7)  8 (8)  9 (9)  10 (10)  11 (11)  12 (12)  13 (13)  14 (14)  15 (15)  16 (16)  17 (17)  18 (18)
Resource initialization completed at t[s]:      0.00
Run totals: 19 processes, 48 threads, 0 GPUs


Input parsed successfully to the following command list (including defaults):

basis kpoint-dependent
coords-type Lattice
core-overlap-check vector
coulomb-interaction Slab 001
davidson-band-ratio 1.1
dump End None
dump-name $INPUT.$VAR
elec-cutoff 20
elec-eigen-algo Davidson
elec-ex-corr gga-PBE
elec-smearing Fermi 0.01
electronic-minimize  \
	dirUpdateScheme      FletcherReeves \
	linminMethod         DirUpdateRecommended \
	nIterations          100 \
	history              15 \
	knormThreshold       0 \
	energyDiffThreshold  1e-08 \
	nEnergyDiff          2 \
	alphaTstart          1 \
	alphaTmin            1e-10 \
	updateTestStepSize   yes \
	alphaTreduceFactor   0.1 \
	alphaTincreaseFactor 3 \
	nAlphaAdjustMax      3 \
	wolfeEnergy          0.0001 \
	wolfeGradient        0.9 \
	fdTest               no
electronic-scf  \
	nIterations	10000 \
	energyDiffThreshold	1e-08 \
	residualThreshold	1e-07 \
	mixFraction	0.5 \
	qMetric	0.8 \
	history	10 \
	nEigSteps	2 \
	eigDiffThreshold	1e-08 \
	mixedVariable	Density \
	qKerker	0.8 \
	qKappa	-1 \
	verbose	no \
	mixFractionMag	1.5
exchange-regularization WignerSeitzTruncated
fluid None
fluid-ex-corr (null) lda-PZ
fluid-gummel-loop 10 1.000000e-05
fluid-minimize  \
	dirUpdateScheme      PolakRibiere \
	linminMethod         DirUpdateRecommended \
	nIterations          100 \
	history              15 \
	knormThreshold       0 \
	energyDiffThreshold  0 \
	nEnergyDiff          2 \
	alphaTstart          1 \
	alphaTmin            1e-10 \
	updateTestStepSize   yes \
	alphaTreduceFactor   0.1 \
	alphaTincreaseFactor 3 \
	nAlphaAdjustMax      3 \
	wolfeEnergy          0.0001 \
	wolfeGradient        0.9 \
	fdTest               no
fluid-solvent H2O 55.338 ScalarEOS \
	epsBulk 78.4 \
	pMol 0.92466 \
	epsInf 1.77 \
	Pvap 1.06736e-10 \
	sigmaBulk 4.62e-05 \
	Rvdw 2.61727 \
	Res 1.42 \
	tauNuc 343133 \
	poleEl 15 7 1
forces-output-coords Positions
ion Na   0.000000000000000   0.000000000000000   0.000000000000000 0
ion-species SG15/$ID_ONCV_PBE.upf
ion-width 0
ionic-minimize  \
	dirUpdateScheme      L-BFGS \
	linminMethod         DirUpdateRecommended \
	nIterations          0 \
	history              15 \
	knormThreshold       0.0001 \
	energyDiffThreshold  1e-06 \
	nEnergyDiff          2 \
	alphaTstart          1 \
	alphaTmin            1e-10 \
	updateTestStepSize   yes \
	alphaTreduceFactor   0.1 \
	alphaTincreaseFactor 3 \
	nAlphaAdjustMax      3 \
	wolfeEnergy          0.0001 \
	wolfeGradient        0.9 \
	fdTest               no
kpoint   0.000000000000   0.000000000000   0.000000000000  1.00000000000000
kpoint-folding 12 12 1 
latt-move-scale 1 1 1
latt-scale 1.79 1.79 1 
lattice  \
	   4.727486978767153   -2.363743489383575    0.000000000000000  \
	  -0.000000000000000    4.094123819672498    0.000000000000000  \
	   0.000000000000000    0.000000000000000   40.000000000000000 
lattice-minimize  \
	dirUpdateScheme      L-BFGS \
	linminMethod         DirUpdateRecommended \
	nIterations          0 \
	history              15 \
	knormThreshold       0 \
	energyDiffThreshold  1e-06 \
	nEnergyDiff          2 \
	alphaTstart          1 \
	alphaTmin            1e-10 \
	updateTestStepSize   yes \
	alphaTreduceFactor   0.1 \
	alphaTincreaseFactor 3 \
	nAlphaAdjustMax      3 \
	wolfeEnergy          0.0001 \
	wolfeGradient        0.9 \
	fdTest               no
lcao-params -1 1e-06 0.01
pcm-variant GLSSA13
spintype no-spin
subspace-rotation-factor 1 yes
symmetries automatic
symmetry-threshold 0.0001



---------- Setting up symmetries ----------

Found 24 point-group symmetries of the bravais lattice
Found 24 space-group symmetries with basis
Applied RMS atom displacement 0 bohrs to make symmetries exact.

---------- Initializing the Grid ----------
R = 
[       8.4622      -4.2311            0  ]
[            0      7.32848            0  ]
[            0            0           40  ]
unit cell volume = 2480.6
G =
[     0.7425   0.428683         -0  ]
[          0   0.857365         -0  ]
[         -0         -0    0.15708  ]
Minimum fftbox size, Smin = [  36  36  164  ]
Chosen fftbox size, S = [  36  36  168  ]

---------- Exchange Correlation functional ----------
Initalized PBE GGA exchange.
Initalized PBE GGA correlation.

---------- Setting up pseudopotentials ----------
Width of ionic core gaussian charges (only for fluid interactions / plotting) set to 0

Reading pseudopotential file '/home/gridsan/aligho/DFT/build-Nov24/pseudopotentials/SG15/Na_ONCV_PBE.upf':
  'Na' pseudopotential, 'PBE' functional
  Generated using ONCVPSP code by D. R. Hamann
  Author: Martin Schlipf and Francois Gygi  Date: 150915.
  9 valence electrons, 3 orbitals, 4 projectors, 1992 radial grid points, with lMax = 1
  Transforming local potential to a uniform radial grid of dG=0.02 with 1496 points.
  Transforming nonlocal projectors to a uniform radial grid of dG=0.02 with 432 points.
    2S    l: 0   occupation:  2.0   eigenvalue: -2.085640
    2P    l: 1   occupation:  6.0   eigenvalue: -1.053708
    3S    l: 0   occupation:  1.0   eigenvalue: -0.100838
  Transforming atomic orbitals to a uniform radial grid of dG=0.02 with 432 points.
  Core radius for overlap checks: 2.01 bohrs.
  Reading pulay file /home/gridsan/aligho/DFT/build-Nov24/pseudopotentials/SG15/Na_ONCV_PBE.pulay ... using dE_dnG = -2.946487e-03 computed for Ecut = 20.

Initialized 1 species with 1 total atoms.

Folded 1 k-points by 12x12x1 to 144 k-points.

---------- Setting up k-points, bands, fillings ----------
Reduced to 19 k-points under symmetry. 
Computing the number of bands and number of electrons
Calculating initial fillings.
nElectrons:   9.000000   nBands: 6   nStates: 19

----- Setting up reduced wavefunction bases (one per k-point) -----
average nbasis = 10598.021 , ideal nbasis = 10597.328

---------- Setting up coulomb interaction ----------
Initialized slab truncation along lattice direction 001

---------- Setting up 2D ewald sum ----------
Optimum gaussian width for ewald sums = 4.697873 bohr.
Real space sums over 289 unit cells with max indices [  8  8  0  ]
Reciprocal space sums over 81 terms with max indices [  4  4  0  ]

---------- Allocating electronic variables ----------
Initializing wave functions:  linear combination of atomic orbitals
Note: number of bands (6) exceeds available atomic orbitals (5)
Na pseudo-atom occupations:   s ( 2 1 )  p ( 6 )
	FillingsUpdate:  mu: -0.108798362  nElectrons: 9.000000
LCAOMinimize: Iter:   0  F: -42.5773643953937935  |grad|_K:  1.950e-05  alpha:  1.000e+00
	FillingsUpdate:  mu: -0.108796438  nElectrons: 9.000000
LCAOMinimize: Iter:   1  F: -42.5773645244846719  |grad|_K:  1.885e-07  alpha:  9.925e-01  linmin: -5.184e-03  cgtest:  2.178e-01  t[s]:      2.30
LCAOMinimize: Encountered beta<0, resetting CG.
	FillingsUpdate:  mu: -0.108796487  nElectrons: 9.000000
LCAOMinimize: Iter:   2  F: -42.5773645244973835  |grad|_K:  8.079e-09  alpha:  9.564e-01  linmin: -1.575e-01  cgtest:  9.811e-01  t[s]:      2.88
LCAOMinimize: Encountered beta<0, resetting CG.
LCAOMinimize: Converged (|Delta F|<1.000000e-06 for 2 iters).


---- Citations for features of the code used in this run ----

   Software package:
      R. Sundararaman, K. Letchworth-Weaver, K.A. Schwarz, D. Gunceler, Y. Ozhabes and T.A. Arias, 'JDFTx: software for joint density-functional theory', SoftwareX 6, 278 (2017)

   gga-PBE exchange-correlation functional:
      J.P. Perdew, K. Burke and M. Ernzerhof, Phys. Rev. Lett. 77, 3865 (1996)

   Pseudopotentials:
      M Schlipf and F Gygi, Comput. Phys. Commun. 196, 36 (2015)

   Truncated Coulomb potentials:
      R. Sundararaman and T.A. Arias, Phys. Rev. B 87, 165122 (2013)

This list may not be complete. Please suggest additional citations or
report any other bugs at https://github.com/shankar1729/jdftx/issues

Initialization completed successfully at t[s]:      2.92


-------- Electronic minimization -----------
Will mix electronic density at each iteration.
	FillingsUpdate:  mu: -0.108796487  nElectrons: 9.000000
	FillingsUpdate:  mu: -0.119428713  nElectrons: 9.000000
SCF: Cycle:  0   F: -42.583093534245847   dF: -5.729e-03   |Residual|: 8.547e-03   |deigs|: 1.661e-01  t[s]:      3.89
	FillingsUpdate:  mu: -0.119621339  nElectrons: 9.000000
SCF: Cycle:  1   F: -42.583212130183107   dF: -1.186e-04   |Residual|: 6.117e-03   |deigs|: 1.400e-02  t[s]:      4.59
[d-16-11-3:28706] 18 more processes have sent help message help-mpi-common-cuda.txt / dlopen failed
[d-16-11-3:28706] Set MCA parameter "orte_base_help_aggregate" to 0 to see all help / error messages
[d-16-11-3:28706] 18 more processes have sent help message help-mpi-btl-openib-cpc-base.txt / no cpcs for port
	FillingsUpdate:  mu: -0.118707197  nElectrons: 9.000000
SCF: Cycle:  2   F: -42.583254858781480   dF: -4.273e-05   |Residual|: 2.382e-03   |deigs|: 4.831e-03  t[s]:      5.32
	FillingsUpdate:  mu: -0.117420162  nElectrons: 9.000000
SCF: Cycle:  3   F: -42.583264545148737   dF: -9.686e-06   |Residual|: 1.274e-03   |deigs|: 2.964e-03  t[s]:      6.05
	FillingsUpdate:  mu: -0.116771510  nElectrons: 9.000000
SCF: Cycle:  4   F: -42.583266509054489   dF: -1.964e-06   |Residual|: 9.898e-04   |deigs|: 9.556e-04  t[s]:      6.76
	FillingsUpdate:  mu: -0.114500866  nElectrons: 9.000000
SCF: Cycle:  5   F: -42.583267037531130   dF: -5.285e-07   |Residual|: 6.374e-04   |deigs|: 3.100e-03  t[s]:      7.51
	FillingsUpdate:  mu: -0.113612815  nElectrons: 9.000000
SCF: Cycle:  6   F: -42.583270926776798   dF: -3.889e-06   |Residual|: 4.614e-04   |deigs|: 1.646e-03  t[s]:      8.28
	FillingsUpdate:  mu: -0.113133958  nElectrons: 9.000000
SCF: Cycle:  7   F: -42.583270937290031   dF: -1.051e-08   |Residual|: 4.299e-04   |deigs|: 6.711e-04  t[s]:      9.04
	FillingsUpdate:  mu: -0.112130425  nElectrons: 9.000000
SCF: Cycle:  8   F: -42.583267259791256   dF: +3.677e-06   |Residual|: 3.111e-04   |deigs|: 1.077e-03  t[s]:      9.84
	FillingsUpdate:  mu: -0.110810118  nElectrons: 9.000000
SCF: Cycle:  9   F: -42.583270312498726   dF: -3.053e-06   |Residual|: 2.724e-04   |deigs|: 1.321e-03  t[s]:     10.62
	FillingsUpdate:  mu: -0.110678763  nElectrons: 9.000000
SCF: Cycle: 10   F: -42.583272887162380   dF: -2.575e-06   |Residual|: 3.640e-04   |deigs|: 4.293e-04  t[s]:     11.40
	FillingsUpdate:  mu: -0.109299603  nElectrons: 9.000000
SCF: Cycle: 11   F: -42.583274106079919   dF: -1.219e-06   |Residual|: 2.332e-04   |deigs|: 1.457e-03  t[s]:     12.18
	FillingsUpdate:  mu: -0.108615702  nElectrons: 9.000000
SCF: Cycle: 12   F: -42.583274809550176   dF: -7.035e-07   |Residual|: 1.329e-04   |deigs|: 5.656e-04  t[s]:     12.99
	FillingsUpdate:  mu: -0.107728047  nElectrons: 9.000000
SCF: Cycle: 13   F: -42.583275007253604   dF: -1.977e-07   |Residual|: 1.011e-04   |deigs|: 1.025e-03  t[s]:     13.78
	FillingsUpdate:  mu: -0.108099534  nElectrons: 9.000000
SCF: Cycle: 14   F: -42.583275029310990   dF: -2.206e-08   |Residual|: 3.353e-05   |deigs|: 4.330e-04  t[s]:     14.55
	FillingsUpdate:  mu: -0.107990913  nElectrons: 9.000000
SCF: Cycle: 15   F: -42.583275037333145   dF: -8.022e-09   |Residual|: 1.305e-05   |deigs|: 1.185e-04  t[s]:     15.33
	FillingsUpdate:  mu: -0.107987433  nElectrons: 9.000000
SCF: Cycle: 16   F: -42.583275038685038   dF: -1.352e-09   |Residual|: 3.475e-06   |deigs|: 9.728e-06  t[s]:     16.11
SCF: Converged (|Delta E|<1.000000e-08 for 2 iters).


# Ionic positions in lattice coordinates:
ion Na   0.000000000000000   0.000000000000000   0.000000000000000 0

# Forces in Lattice coordinates:
force Na   0.000000000000000   0.000000000000000   0.000000000000000 0

# Energy components:
   Eewald =      -20.1653922908744789
       EH =       13.6710747241231498
     Eloc =      -38.5719238838492160
      Enl =      -12.9149663616819534
   Epulay =        0.0000008234661627
      Exc =       -6.2251641761830996
       KE =       21.6296945192276553
-------------------------------------
     Etot =      -42.5766766457717836
       TS =        0.0065983929132561
-------------------------------------
        F =      -42.5832750386850378

IonicMinimize: Iter:   0  F: -42.583275038685038  |grad|_K:  0.000e+00  t[s]:     16.16
IonicMinimize: Converged (|grad|_K<1.000000e-04).

#--- Lowdin population analysis ---
# oxidation-state Na +0.053

End date and time: Sun Jan 16 15:02:41 2022  (Duration: 0-0:00:16.17)
Done!
