0.95
--------------------------------------------------------------------------
The library attempted to open the following supporting CUDA libraries,
but each of them failed.  CUDA-aware support is disabled.
libcuda.so.1: cannot open shared object file: No such file or directory
libcuda.dylib: cannot open shared object file: No such file or directory
/usr/lib64/libcuda.so.1: cannot open shared object file: No such file or directory
/usr/lib64/libcuda.dylib: cannot open shared object file: No such file or directory
If you are not interested in CUDA-aware support, then run with
--mca opal_warn_on_missing_libcuda 0 to suppress this message.  If you are interested
in CUDA-aware support, then try setting LD_LIBRARY_PATH to the location
of libcuda.so.1 to get passed this issue.
--------------------------------------------------------------------------
--------------------------------------------------------------------------
No OpenFabrics connection schemes reported that they were able to be
used on a specific port.  As such, the openib BTL (OpenFabrics
support) will be disabled for this port.

  Local host:           d-16-5-1
  Local device:         mlx5_1
  Local port:           1
  CPCs attempted:       rdmacm, udcm
--------------------------------------------------------------------------

*************** JDFTx 1.6.0 (git hash 42ebbcc2) ***************

Start date and time: Sun Jan 16 15:01:47 2022
Executable jdftx with command-line: -i Sodium.in
Running on hosts (process indices):  d-16-5-1 (0-18)
Divided in process groups (process indices):  0 (0)  1 (1)  2 (2)  3 (3)  4 (4)  5 (5)  6 (6)  7 (7)  8 (8)  9 (9)  10 (10)  11 (11)  12 (12)  13 (13)  14 (14)  15 (15)  16 (16)  17 (17)  18 (18)
Resource initialization completed at t[s]:      0.00
Run totals: 19 processes, 48 threads, 0 GPUs


Input parsed successfully to the following command list (including defaults):

basis kpoint-dependent
coords-type Lattice
core-overlap-check vector
coulomb-interaction Slab 001
davidson-band-ratio 1.1
dump End None
dump-name $INPUT.$VAR
elec-cutoff 20
elec-eigen-algo Davidson
elec-ex-corr gga-PBE
elec-smearing Fermi 0.01
electronic-minimize  \
	dirUpdateScheme      FletcherReeves \
	linminMethod         DirUpdateRecommended \
	nIterations          100 \
	history              15 \
	knormThreshold       0 \
	energyDiffThreshold  1e-08 \
	nEnergyDiff          2 \
	alphaTstart          1 \
	alphaTmin            1e-10 \
	updateTestStepSize   yes \
	alphaTreduceFactor   0.1 \
	alphaTincreaseFactor 3 \
	nAlphaAdjustMax      3 \
	wolfeEnergy          0.0001 \
	wolfeGradient        0.9 \
	fdTest               no
electronic-scf  \
	nIterations	10000 \
	energyDiffThreshold	1e-08 \
	residualThreshold	1e-07 \
	mixFraction	0.5 \
	qMetric	0.8 \
	history	10 \
	nEigSteps	2 \
	eigDiffThreshold	1e-08 \
	mixedVariable	Density \
	qKerker	0.8 \
	qKappa	-1 \
	verbose	no \
	mixFractionMag	1.5
exchange-regularization WignerSeitzTruncated
fluid None
fluid-ex-corr (null) lda-PZ
fluid-gummel-loop 10 1.000000e-05
fluid-minimize  \
	dirUpdateScheme      PolakRibiere \
	linminMethod         DirUpdateRecommended \
	nIterations          100 \
	history              15 \
	knormThreshold       0 \
	energyDiffThreshold  0 \
	nEnergyDiff          2 \
	alphaTstart          1 \
	alphaTmin            1e-10 \
	updateTestStepSize   yes \
	alphaTreduceFactor   0.1 \
	alphaTincreaseFactor 3 \
	nAlphaAdjustMax      3 \
	wolfeEnergy          0.0001 \
	wolfeGradient        0.9 \
	fdTest               no
fluid-solvent H2O 55.338 ScalarEOS \
	epsBulk 78.4 \
	pMol 0.92466 \
	epsInf 1.77 \
	Pvap 1.06736e-10 \
	sigmaBulk 4.62e-05 \
	Rvdw 2.61727 \
	Res 1.42 \
	tauNuc 343133 \
	poleEl 15 7 1
forces-output-coords Positions
ion Na   0.000000000000000   0.000000000000000   0.000000000000000 0
ion-species SG15/$ID_ONCV_PBE.upf
ion-width 0
ionic-minimize  \
	dirUpdateScheme      L-BFGS \
	linminMethod         DirUpdateRecommended \
	nIterations          0 \
	history              15 \
	knormThreshold       0.0001 \
	energyDiffThreshold  1e-06 \
	nEnergyDiff          2 \
	alphaTstart          1 \
	alphaTmin            1e-10 \
	updateTestStepSize   yes \
	alphaTreduceFactor   0.1 \
	alphaTincreaseFactor 3 \
	nAlphaAdjustMax      3 \
	wolfeEnergy          0.0001 \
	wolfeGradient        0.9 \
	fdTest               no
kpoint   0.000000000000   0.000000000000   0.000000000000  1.00000000000000
kpoint-folding 12 12 1 
latt-move-scale 1 1 1
latt-scale 0.95 0.95 1 
lattice  \
	   4.727486978767153   -2.363743489383574    0.000000000000000  \
	  -0.000000000000000    4.094123819672497    0.000000000000000  \
	   0.000000000000000    0.000000000000000   40.000000000000000 
lattice-minimize  \
	dirUpdateScheme      L-BFGS \
	linminMethod         DirUpdateRecommended \
	nIterations          0 \
	history              15 \
	knormThreshold       0 \
	energyDiffThreshold  1e-06 \
	nEnergyDiff          2 \
	alphaTstart          1 \
	alphaTmin            1e-10 \
	updateTestStepSize   yes \
	alphaTreduceFactor   0.1 \
	alphaTincreaseFactor 3 \
	nAlphaAdjustMax      3 \
	wolfeEnergy          0.0001 \
	wolfeGradient        0.9 \
	fdTest               no
lcao-params -1 1e-06 0.01
pcm-variant GLSSA13
spintype no-spin
subspace-rotation-factor 1 yes
symmetries automatic
symmetry-threshold 0.0001



---------- Setting up symmetries ----------

Found 24 point-group symmetries of the bravais lattice
Found 24 space-group symmetries with basis
Applied RMS atom displacement 0 bohrs to make symmetries exact.

---------- Initializing the Grid ----------
R = 
[      4.49111     -2.24556            0  ]
[            0      3.88942            0  ]
[            0            0           40  ]
unit cell volume = 698.713
G =
[    1.39903   0.807728         -0  ]
[          0    1.61546         -0  ]
[         -0         -0    0.15708  ]
Minimum fftbox size, Smin = [  20  20  164  ]
Chosen fftbox size, S = [  20  20  168  ]

---------- Exchange Correlation functional ----------
Initalized PBE GGA exchange.
Initalized PBE GGA correlation.

---------- Setting up pseudopotentials ----------
Width of ionic core gaussian charges (only for fluid interactions / plotting) set to 0

Reading pseudopotential file '/home/gridsan/aligho/DFT/build-Nov24/pseudopotentials/SG15/Na_ONCV_PBE.upf':
  'Na' pseudopotential, 'PBE' functional
  Generated using ONCVPSP code by D. R. Hamann
  Author: Martin Schlipf and Francois Gygi  Date: 150915.
  9 valence electrons, 3 orbitals, 4 projectors, 1992 radial grid points, with lMax = 1
  Transforming local potential to a uniform radial grid of dG=0.02 with 1552 points.
  Transforming nonlocal projectors to a uniform radial grid of dG=0.02 with 432 points.
    2S    l: 0   occupation:  2.0   eigenvalue: -2.085640
    2P    l: 1   occupation:  6.0   eigenvalue: -1.053708
    3S    l: 0   occupation:  1.0   eigenvalue: -0.100838
  Transforming atomic orbitals to a uniform radial grid of dG=0.02 with 432 points.
  Core radius for overlap checks: 2.01 bohrs.
  Reading pulay file /home/gridsan/aligho/DFT/build-Nov24/pseudopotentials/SG15/Na_ONCV_PBE.pulay ... using dE_dnG = -2.946487e-03 computed for Ecut = 20.

Initialized 1 species with 1 total atoms.

Folded 1 k-points by 12x12x1 to 144 k-points.

---------- Setting up k-points, bands, fillings ----------
Reduced to 19 k-points under symmetry. 
Computing the number of bands and number of electrons
Calculating initial fillings.
nElectrons:   9.000000   nBands: 6   nStates: 19

----- Setting up reduced wavefunction bases (one per k-point) -----
average nbasis = 2986.271 , ideal nbasis = 2984.953

---------- Setting up coulomb interaction ----------
Initialized slab truncation along lattice direction 001

---------- Setting up 2D ewald sum ----------
Optimum gaussian width for ewald sums = 2.493284 bohr.
Real space sums over 289 unit cells with max indices [  8  8  0  ]
Reciprocal space sums over 81 terms with max indices [  4  4  0  ]

---------- Allocating electronic variables ----------
Initializing wave functions:  linear combination of atomic orbitals
Note: number of bands (6) exceeds available atomic orbitals (5)
Na pseudo-atom occupations:   s ( 2 1 )  p ( 6 )
	FillingsUpdate:  mu: -0.138187581  nElectrons: 9.000000
LCAOMinimize: Iter:   0  F: -42.5000598031160450  |grad|_K:  9.584e-05  alpha:  1.000e+00
	FillingsUpdate:  mu: -0.137978697  nElectrons: 9.000000
LCAOMinimize: Iter:   1  F: -42.5000629249376018  |grad|_K:  9.621e-07  alpha:  9.937e-01  linmin:  4.334e-02  cgtest: -3.140e-01  t[s]:      1.07
	FillingsUpdate:  mu: -0.137978890  nElectrons: 9.000000
LCAOMinimize: Iter:   2  F: -42.5000629252131645  |grad|_K:  3.016e-07  alpha:  9.319e-01  linmin: -7.146e-04  cgtest:  3.572e-01  t[s]:      1.28
LCAOMinimize: Encountered beta<0, resetting CG.
	FillingsUpdate:  mu: -0.137979517  nElectrons: 9.000000
LCAOMinimize: Iter:   3  F: -42.5000629252428297  |grad|_K:  8.207e-09  alpha:  1.013e+00  linmin:  7.422e-02  cgtest: -9.054e-01  t[s]:      1.48
LCAOMinimize: Converged (|Delta F|<1.000000e-06 for 2 iters).


---- Citations for features of the code used in this run ----

   Software package:
      R. Sundararaman, K. Letchworth-Weaver, K.A. Schwarz, D. Gunceler, Y. Ozhabes and T.A. Arias, 'JDFTx: software for joint density-functional theory', SoftwareX 6, 278 (2017)

   gga-PBE exchange-correlation functional:
      J.P. Perdew, K. Burke and M. Ernzerhof, Phys. Rev. Lett. 77, 3865 (1996)

   Pseudopotentials:
      M Schlipf and F Gygi, Comput. Phys. Commun. 196, 36 (2015)

   Truncated Coulomb potentials:
      R. Sundararaman and T.A. Arias, Phys. Rev. B 87, 165122 (2013)

This list may not be complete. Please suggest additional citations or
report any other bugs at https://github.com/shankar1729/jdftx/issues

Initialization completed successfully at t[s]:      1.51


-------- Electronic minimization -----------
Will mix electronic density at each iteration.
	FillingsUpdate:  mu: -0.137979517  nElectrons: 9.000000
	FillingsUpdate:  mu: -0.153116368  nElectrons: 9.000000
SCF: Cycle:  0   F: -42.510040902065491   dF: -9.978e-03   |Residual|: 2.963e-02   |deigs|: 1.598e-01  t[s]:      1.84
	FillingsUpdate:  mu: -0.152225803  nElectrons: 9.000000
SCF: Cycle:  1   F: -42.512814770423212   dF: -2.774e-03   |Residual|: 1.671e-02   |deigs|: 1.957e-02  t[s]:      2.06
	FillingsUpdate:  mu: -0.157467010  nElectrons: 9.000000
SCF: Cycle:  2   F: -42.517411081542797   dF: -4.596e-03   |Residual|: 6.393e-03   |deigs|: 1.649e-02  t[s]:      2.27
	FillingsUpdate:  mu: -0.161873476  nElectrons: 9.000000
SCF: Cycle:  3   F: -42.518683865250352   dF: -1.273e-03   |Residual|: 3.576e-03   |deigs|: 1.500e-02  t[s]:      2.50
	FillingsUpdate:  mu: -0.164497018  nElectrons: 9.000000
SCF: Cycle:  4   F: -42.519336278660525   dF: -6.524e-04   |Residual|: 2.535e-03   |deigs|: 1.635e-02  t[s]:      2.74
	FillingsUpdate:  mu: -0.163915502  nElectrons: 9.000000
SCF: Cycle:  5   F: -42.519544119556549   dF: -2.078e-04   |Residual|: 2.740e-03   |deigs|: 9.842e-03  t[s]:      2.98
	FillingsUpdate:  mu: -0.165466053  nElectrons: 9.000000
SCF: Cycle:  6   F: -42.519567259163566   dF: -2.314e-05   |Residual|: 3.861e-03   |deigs|: 3.004e-03  t[s]:      3.22
	FillingsUpdate:  mu: -0.161744229  nElectrons: 9.000000
SCF: Cycle:  7   F: -42.519595558918034   dF: -2.830e-05   |Residual|: 2.123e-03   |deigs|: 5.185e-03  t[s]:      3.46
	FillingsUpdate:  mu: -0.159479716  nElectrons: 9.000000
SCF: Cycle:  8   F: -42.519595788918060   dF: -2.300e-07   |Residual|: 2.422e-03   |deigs|: 4.014e-03  t[s]:      3.70
	FillingsUpdate:  mu: -0.157337328  nElectrons: 9.000000
SCF: Cycle:  9   F: -42.519605862009499   dF: -1.007e-05   |Residual|: 2.337e-03   |deigs|: 3.538e-03  t[s]:      3.94
	FillingsUpdate:  mu: -0.159560546  nElectrons: 9.000000
SCF: Cycle: 10   F: -42.519606619262532   dF: -7.573e-07   |Residual|: 2.869e-03   |deigs|: 2.361e-03  t[s]:      4.19
	FillingsUpdate:  mu: -0.156141461  nElectrons: 9.000000
SCF: Cycle: 11   F: -42.519606127556834   dF: +4.917e-07   |Residual|: 1.521e-03   |deigs|: 3.316e-03  t[s]:      4.45
	FillingsUpdate:  mu: -0.154248076  nElectrons: 9.000000
SCF: Cycle: 12   F: -42.519607430115208   dF: -1.303e-06   |Residual|: 1.776e-03   |deigs|: 1.879e-03  t[s]:      4.69
[d-16-5-1:11477] 18 more processes have sent help message help-mpi-common-cuda.txt / dlopen failed
[d-16-5-1:11477] Set MCA parameter "orte_base_help_aggregate" to 0 to see all help / error messages
[d-16-5-1:11477] 18 more processes have sent help message help-mpi-btl-openib-cpc-base.txt / no cpcs for port
	FillingsUpdate:  mu: -0.143371477  nElectrons: 9.000000
SCF: Cycle: 13   F: -42.519614834654334   dF: -7.405e-06   |Residual|: 1.068e-03   |deigs|: 1.193e-02  t[s]:      4.94
	FillingsUpdate:  mu: -0.141715852  nElectrons: 9.000000
SCF: Cycle: 14   F: -42.519615164547211   dF: -3.299e-07   |Residual|: 4.697e-04   |deigs|: 1.374e-03  t[s]:      5.18
	FillingsUpdate:  mu: -0.141917680  nElectrons: 9.000000
SCF: Cycle: 15   F: -42.519615234760792   dF: -7.021e-08   |Residual|: 1.632e-04   |deigs|: 3.583e-04  t[s]:      5.43
	FillingsUpdate:  mu: -0.141971307  nElectrons: 9.000000
SCF: Cycle: 16   F: -42.519615204574151   dF: +3.019e-08   |Residual|: 1.788e-04   |deigs|: 1.948e-04  t[s]:      5.67
	FillingsUpdate:  mu: -0.141755707  nElectrons: 9.000000
SCF: Cycle: 17   F: -42.519615274871086   dF: -7.030e-08   |Residual|: 2.464e-05   |deigs|: 3.556e-04  t[s]:      5.91
	FillingsUpdate:  mu: -0.141708844  nElectrons: 9.000000
SCF: Cycle: 18   F: -42.519615279609845   dF: -4.739e-09   |Residual|: 1.332e-05   |deigs|: 6.997e-05  t[s]:      6.16
	FillingsUpdate:  mu: -0.141734344  nElectrons: 9.000000
SCF: Cycle: 19   F: -42.519615280568850   dF: -9.590e-10   |Residual|: 5.919e-06   |deigs|: 3.416e-05  t[s]:      6.40
SCF: Converged (|Delta E|<1.000000e-08 for 2 iters).


# Ionic positions in lattice coordinates:
ion Na   0.000000000000000   0.000000000000000   0.000000000000000 0

# Forces in Lattice coordinates:
force Na  -0.000000000000000   0.000000000000000   0.000000000000000 0

# Energy components:
   Eewald =      -37.9958444217529774
       EH =       -4.9420590534458366
     Eloc =       -2.1993311949068142
      Enl =      -12.9421282879750770
   Epulay =        0.0000055570384893
      Exc =       -6.3182212477626916
       KE =       21.8815761151518657
-------------------------------------
     Etot =      -42.5160025336530438
       TS =        0.0036127469158091
-------------------------------------
        F =      -42.5196152805688499

IonicMinimize: Iter:   0  F: -42.519615280568850  |grad|_K:  0.000e+00  t[s]:      6.42
IonicMinimize: Converged (|grad|_K<1.000000e-04).

#--- Lowdin population analysis ---
# oxidation-state Na +0.213

End date and time: Sun Jan 16 15:01:53 2022  (Duration: 0-0:00:06.42)
Done!
