2.54
--------------------------------------------------------------------------
The library attempted to open the following supporting CUDA libraries,
but each of them failed.  CUDA-aware support is disabled.
libcuda.so.1: cannot open shared object file: No such file or directory
libcuda.dylib: cannot open shared object file: No such file or directory
/usr/lib64/libcuda.so.1: cannot open shared object file: No such file or directory
/usr/lib64/libcuda.dylib: cannot open shared object file: No such file or directory
If you are not interested in CUDA-aware support, then run with
--mca opal_warn_on_missing_libcuda 0 to suppress this message.  If you are interested
in CUDA-aware support, then try setting LD_LIBRARY_PATH to the location
of libcuda.so.1 to get passed this issue.
--------------------------------------------------------------------------
--------------------------------------------------------------------------
No OpenFabrics connection schemes reported that they were able to be
used on a specific port.  As such, the openib BTL (OpenFabrics
support) will be disabled for this port.

  Local host:           d-17-9-2
  Local device:         mlx5_1
  Local port:           1
  CPCs attempted:       rdmacm, udcm
--------------------------------------------------------------------------

*************** JDFTx 1.6.0 (git hash 42ebbcc2) ***************

Start date and time: Sun Jan 16 15:03:03 2022
Executable jdftx with command-line: -i Sodium.in
Running on hosts (process indices):  d-17-9-2 (0-18)
Divided in process groups (process indices):  0 (0)  1 (1)  2 (2)  3 (3)  4 (4)  5 (5)  6 (6)  7 (7)  8 (8)  9 (9)  10 (10)  11 (11)  12 (12)  13 (13)  14 (14)  15 (15)  16 (16)  17 (17)  18 (18)
Resource initialization completed at t[s]:      0.00
Run totals: 19 processes, 48 threads, 0 GPUs


Input parsed successfully to the following command list (including defaults):

basis kpoint-dependent
coords-type Lattice
core-overlap-check vector
coulomb-interaction Slab 001
davidson-band-ratio 1.1
dump End None
dump-name $INPUT.$VAR
elec-cutoff 20
elec-eigen-algo Davidson
elec-ex-corr gga-PBE
elec-smearing Fermi 0.01
electronic-minimize  \
	dirUpdateScheme      FletcherReeves \
	linminMethod         DirUpdateRecommended \
	nIterations          100 \
	history              15 \
	knormThreshold       0 \
	energyDiffThreshold  1e-08 \
	nEnergyDiff          2 \
	alphaTstart          1 \
	alphaTmin            1e-10 \
	updateTestStepSize   yes \
	alphaTreduceFactor   0.1 \
	alphaTincreaseFactor 3 \
	nAlphaAdjustMax      3 \
	wolfeEnergy          0.0001 \
	wolfeGradient        0.9 \
	fdTest               no
electronic-scf  \
	nIterations	10000 \
	energyDiffThreshold	1e-08 \
	residualThreshold	1e-07 \
	mixFraction	0.5 \
	qMetric	0.8 \
	history	10 \
	nEigSteps	2 \
	eigDiffThreshold	1e-08 \
	mixedVariable	Density \
	qKerker	0.8 \
	qKappa	-1 \
	verbose	no \
	mixFractionMag	1.5
exchange-regularization WignerSeitzTruncated
fluid None
fluid-ex-corr (null) lda-PZ
fluid-gummel-loop 10 1.000000e-05
fluid-minimize  \
	dirUpdateScheme      PolakRibiere \
	linminMethod         DirUpdateRecommended \
	nIterations          100 \
	history              15 \
	knormThreshold       0 \
	energyDiffThreshold  0 \
	nEnergyDiff          2 \
	alphaTstart          1 \
	alphaTmin            1e-10 \
	updateTestStepSize   yes \
	alphaTreduceFactor   0.1 \
	alphaTincreaseFactor 3 \
	nAlphaAdjustMax      3 \
	wolfeEnergy          0.0001 \
	wolfeGradient        0.9 \
	fdTest               no
fluid-solvent H2O 55.338 ScalarEOS \
	epsBulk 78.4 \
	pMol 0.92466 \
	epsInf 1.77 \
	Pvap 1.06736e-10 \
	sigmaBulk 4.62e-05 \
	Rvdw 2.61727 \
	Res 1.42 \
	tauNuc 343133 \
	poleEl 15 7 1
forces-output-coords Positions
ion Na   0.000000000000000   0.000000000000000   0.000000000000000 0
ion-species SG15/$ID_ONCV_PBE.upf
ion-width 0
ionic-minimize  \
	dirUpdateScheme      L-BFGS \
	linminMethod         DirUpdateRecommended \
	nIterations          0 \
	history              15 \
	knormThreshold       0.0001 \
	energyDiffThreshold  1e-06 \
	nEnergyDiff          2 \
	alphaTstart          1 \
	alphaTmin            1e-10 \
	updateTestStepSize   yes \
	alphaTreduceFactor   0.1 \
	alphaTincreaseFactor 3 \
	nAlphaAdjustMax      3 \
	wolfeEnergy          0.0001 \
	wolfeGradient        0.9 \
	fdTest               no
kpoint   0.000000000000   0.000000000000   0.000000000000  1.00000000000000
kpoint-folding 12 12 1 
latt-move-scale 1 1 1
latt-scale 2.54 2.54 1 
lattice  \
	   4.727486978767153   -2.363743489383575    0.000000000000000  \
	  -0.000000000000000    4.094123819672498    0.000000000000000  \
	   0.000000000000000    0.000000000000000   40.000000000000000 
lattice-minimize  \
	dirUpdateScheme      L-BFGS \
	linminMethod         DirUpdateRecommended \
	nIterations          0 \
	history              15 \
	knormThreshold       0 \
	energyDiffThreshold  1e-06 \
	nEnergyDiff          2 \
	alphaTstart          1 \
	alphaTmin            1e-10 \
	updateTestStepSize   yes \
	alphaTreduceFactor   0.1 \
	alphaTincreaseFactor 3 \
	nAlphaAdjustMax      3 \
	wolfeEnergy          0.0001 \
	wolfeGradient        0.9 \
	fdTest               no
lcao-params -1 1e-06 0.01
pcm-variant GLSSA13
spintype no-spin
subspace-rotation-factor 1 yes
symmetries automatic
symmetry-threshold 0.0001



---------- Setting up symmetries ----------

Found 24 point-group symmetries of the bravais lattice
Found 24 space-group symmetries with basis
Applied RMS atom displacement 0 bohrs to make symmetries exact.

---------- Initializing the Grid ----------
R = 
[      12.0078     -6.00391            0  ]
[            0      10.3991            0  ]
[            0            0           40  ]
unit cell volume = 4994.81
G =
[   0.523258   0.302103         -0  ]
[          0   0.604206         -0  ]
[         -0         -0    0.15708  ]
Minimum fftbox size, Smin = [  52  52  164  ]
Chosen fftbox size, S = [  54  54  168  ]

---------- Exchange Correlation functional ----------
Initalized PBE GGA exchange.
Initalized PBE GGA correlation.

---------- Setting up pseudopotentials ----------
Width of ionic core gaussian charges (only for fluid interactions / plotting) set to 0

Reading pseudopotential file '/home/gridsan/aligho/DFT/build-Nov24/pseudopotentials/SG15/Na_ONCV_PBE.upf':
  'Na' pseudopotential, 'PBE' functional
  Generated using ONCVPSP code by D. R. Hamann
  Author: Martin Schlipf and Francois Gygi  Date: 150915.
  9 valence electrons, 3 orbitals, 4 projectors, 1992 radial grid points, with lMax = 1
  Transforming local potential to a uniform radial grid of dG=0.02 with 1565 points.
  Transforming nonlocal projectors to a uniform radial grid of dG=0.02 with 432 points.
    2S    l: 0   occupation:  2.0   eigenvalue: -2.085640
    2P    l: 1   occupation:  6.0   eigenvalue: -1.053708
    3S    l: 0   occupation:  1.0   eigenvalue: -0.100838
  Transforming atomic orbitals to a uniform radial grid of dG=0.02 with 432 points.
  Core radius for overlap checks: 2.01 bohrs.
  Reading pulay file /home/gridsan/aligho/DFT/build-Nov24/pseudopotentials/SG15/Na_ONCV_PBE.pulay ... using dE_dnG = -2.946487e-03 computed for Ecut = 20.

Initialized 1 species with 1 total atoms.

Folded 1 k-points by 12x12x1 to 144 k-points.

---------- Setting up k-points, bands, fillings ----------
Reduced to 19 k-points under symmetry. 
Computing the number of bands and number of electrons
Calculating initial fillings.
nElectrons:   9.000000   nBands: 6   nStates: 19

----- Setting up reduced wavefunction bases (one per k-point) -----
average nbasis = 21337.354 , ideal nbasis = 21338.197

---------- Setting up coulomb interaction ----------
Initialized slab truncation along lattice direction 001

---------- Setting up 2D ewald sum ----------
Optimum gaussian width for ewald sums = 6.666255 bohr.
Real space sums over 289 unit cells with max indices [  8  8  0  ]
Reciprocal space sums over 81 terms with max indices [  4  4  0  ]

---------- Allocating electronic variables ----------
Initializing wave functions:  linear combination of atomic orbitals
Note: number of bands (6) exceeds available atomic orbitals (5)
Na pseudo-atom occupations:   s ( 2 1 )  p ( 6 )
	FillingsUpdate:  mu: -0.102721981  nElectrons: 9.000000
LCAOMinimize: Iter:   0  F: -42.5654832891331694  |grad|_K:  2.079e-05  alpha:  1.000e+00
	FillingsUpdate:  mu: -0.102731931  nElectrons: 9.000000
LCAOMinimize: Iter:   1  F: -42.5654834385611451  |grad|_K:  1.549e-07  alpha:  1.011e+00  linmin: -7.117e-03  cgtest:  2.234e-01  t[s]:      4.11
LCAOMinimize: Encountered beta<0, resetting CG.
	FillingsUpdate:  mu: -0.102731996  nElectrons: 9.000000
LCAOMinimize: Iter:   2  F: -42.5654834385685206  |grad|_K:  6.790e-09  alpha:  9.537e-01  linmin: -2.714e-02  cgtest:  9.709e-01  t[s]:      5.16
LCAOMinimize: Encountered beta<0, resetting CG.
LCAOMinimize: Converged (|Delta F|<1.000000e-06 for 2 iters).


---- Citations for features of the code used in this run ----

   Software package:
      R. Sundararaman, K. Letchworth-Weaver, K.A. Schwarz, D. Gunceler, Y. Ozhabes and T.A. Arias, 'JDFTx: software for joint density-functional theory', SoftwareX 6, 278 (2017)

   gga-PBE exchange-correlation functional:
      J.P. Perdew, K. Burke and M. Ernzerhof, Phys. Rev. Lett. 77, 3865 (1996)

   Pseudopotentials:
      M Schlipf and F Gygi, Comput. Phys. Commun. 196, 36 (2015)

   Truncated Coulomb potentials:
      R. Sundararaman and T.A. Arias, Phys. Rev. B 87, 165122 (2013)

This list may not be complete. Please suggest additional citations or
report any other bugs at https://github.com/shankar1729/jdftx/issues

Initialization completed successfully at t[s]:      5.21


-------- Electronic minimization -----------
Will mix electronic density at each iteration.
	FillingsUpdate:  mu: -0.102731996  nElectrons: 9.000000
	FillingsUpdate:  mu: -0.103957068  nElectrons: 9.000000
SCF: Cycle:  0   F: -42.566707963821010   dF: -1.225e-03   |Residual|: 3.748e-03   |deigs|: 1.731e-01  t[s]:      7.14
	FillingsUpdate:  mu: -0.104332528  nElectrons: 9.000000
SCF: Cycle:  1   F: -42.566756089070786   dF: -4.813e-05   |Residual|: 2.647e-03   |deigs|: 6.465e-03  t[s]:      8.56
[d-17-9-2:21826] 18 more processes have sent help message help-mpi-common-cuda.txt / dlopen failed
[d-17-9-2:21826] Set MCA parameter "orte_base_help_aggregate" to 0 to see all help / error messages
[d-17-9-2:21826] 18 more processes have sent help message help-mpi-btl-openib-cpc-base.txt / no cpcs for port
	FillingsUpdate:  mu: -0.104952368  nElectrons: 9.000000
SCF: Cycle:  2   F: -42.566781593834079   dF: -2.550e-05   |Residual|: 1.568e-03   |deigs|: 3.471e-03  t[s]:     10.02
	FillingsUpdate:  mu: -0.105440578  nElectrons: 9.000000
SCF: Cycle:  3   F: -42.566797477450507   dF: -1.588e-05   |Residual|: 6.892e-04   |deigs|: 3.213e-03  t[s]:     11.53
	FillingsUpdate:  mu: -0.105510790  nElectrons: 9.000000
SCF: Cycle:  4   F: -42.566799951463430   dF: -2.474e-06   |Residual|: 3.429e-04   |deigs|: 2.902e-03  t[s]:     13.04
	FillingsUpdate:  mu: -0.105406437  nElectrons: 9.000000
SCF: Cycle:  5   F: -42.566802943481569   dF: -2.992e-06   |Residual|: 1.721e-04   |deigs|: 1.854e-03  t[s]:     14.55
	FillingsUpdate:  mu: -0.105340022  nElectrons: 9.000000
SCF: Cycle:  6   F: -42.566805573781323   dF: -2.630e-06   |Residual|: 3.242e-04   |deigs|: 1.987e-03  t[s]:     16.09
	FillingsUpdate:  mu: -0.105201247  nElectrons: 9.000000
SCF: Cycle:  7   F: -42.566806067789663   dF: -4.940e-07   |Residual|: 1.681e-04   |deigs|: 3.786e-04  t[s]:     17.65
	FillingsUpdate:  mu: -0.105126893  nElectrons: 9.000000
SCF: Cycle:  8   F: -42.566806269083123   dF: -2.013e-07   |Residual|: 1.726e-04   |deigs|: 2.380e-04  t[s]:     19.30
	FillingsUpdate:  mu: -0.104957657  nElectrons: 9.000000
SCF: Cycle:  9   F: -42.566806374388015   dF: -1.053e-07   |Residual|: 2.338e-04   |deigs|: 4.616e-04  t[s]:     20.95
	FillingsUpdate:  mu: -0.104935572  nElectrons: 9.000000
SCF: Cycle: 10   F: -42.566806508260633   dF: -1.339e-07   |Residual|: 4.593e-05   |deigs|: 2.102e-04  t[s]:     22.70
	FillingsUpdate:  mu: -0.104831414  nElectrons: 9.000000
SCF: Cycle: 11   F: -42.566806497074893   dF: +1.119e-08   |Residual|: 1.888e-04   |deigs|: 8.003e-05  t[s]:     24.38
	FillingsUpdate:  mu: -0.104744880  nElectrons: 9.000000
SCF: Cycle: 12   F: -42.566806477040963   dF: +2.003e-08   |Residual|: 6.023e-05   |deigs|: 8.818e-05  t[s]:     26.07
	FillingsUpdate:  mu: -0.104586872  nElectrons: 9.000000
SCF: Cycle: 13   F: -42.566806580260696   dF: -1.032e-07   |Residual|: 5.978e-05   |deigs|: 1.721e-04  t[s]:     27.73
	FillingsUpdate:  mu: -0.104564917  nElectrons: 9.000000
SCF: Cycle: 14   F: -42.566806627062235   dF: -4.680e-08   |Residual|: 3.862e-05   |deigs|: 3.785e-05  t[s]:     29.38
	FillingsUpdate:  mu: -0.104531998  nElectrons: 9.000000
SCF: Cycle: 15   F: -42.566806653183633   dF: -2.612e-08   |Residual|: 1.377e-05   |deigs|: 3.310e-05  t[s]:     31.00
	FillingsUpdate:  mu: -0.104525751  nElectrons: 9.000000
SCF: Cycle: 16   F: -42.566806695298318   dF: -4.211e-08   |Residual|: 6.397e-06   |deigs|: 5.034e-05  t[s]:     32.66
	FillingsUpdate:  mu: -0.104524664  nElectrons: 9.000000
SCF: Cycle: 17   F: -42.566806705325469   dF: -1.003e-08   |Residual|: 3.927e-06   |deigs|: 1.043e-05  t[s]:     34.20
	FillingsUpdate:  mu: -0.104527430  nElectrons: 9.000000
SCF: Cycle: 18   F: -42.566806713496028   dF: -8.171e-09   |Residual|: 2.193e-06   |deigs|: 1.062e-05  t[s]:     35.72
	FillingsUpdate:  mu: -0.104527799  nElectrons: 9.000000
SCF: Cycle: 19   F: -42.566806722163783   dF: -8.668e-09   |Residual|: 1.438e-06   |deigs|: 1.098e-05  t[s]:     37.26
SCF: Converged (|Delta E|<1.000000e-08 for 2 iters).


# Ionic positions in lattice coordinates:
ion Na   0.000000000000000   0.000000000000000   0.000000000000000 0

# Forces in Lattice coordinates:
force Na  -0.000000000000000   0.000000000000000   0.000000000000000 0

# Energy components:
   Eewald =      -14.2110441734902810
       EH =       19.5264269789127063
     Eloc =      -50.3767031516074155
      Enl =      -12.9064476701708308
   Epulay =       -0.0000004974790554
      Exc =       -6.2073322244031450
       KE =       21.6205638964712961
-------------------------------------
     Etot =      -42.5545368417667191
       TS =        0.0122698803970614
-------------------------------------
        F =      -42.5668067221637827

IonicMinimize: Iter:   0  F: -42.566806722163783  |grad|_K:  0.000e+00  t[s]:     37.35
IonicMinimize: Converged (|grad|_K<1.000000e-04).

#--- Lowdin population analysis ---
# oxidation-state Na +0.024

End date and time: Sun Jan 16 15:03:40 2022  (Duration: 0-0:00:37.36)
Done!
