2.66
--------------------------------------------------------------------------
The library attempted to open the following supporting CUDA libraries,
but each of them failed.  CUDA-aware support is disabled.
libcuda.so.1: cannot open shared object file: No such file or directory
libcuda.dylib: cannot open shared object file: No such file or directory
/usr/lib64/libcuda.so.1: cannot open shared object file: No such file or directory
/usr/lib64/libcuda.dylib: cannot open shared object file: No such file or directory
If you are not interested in CUDA-aware support, then run with
--mca opal_warn_on_missing_libcuda 0 to suppress this message.  If you are interested
in CUDA-aware support, then try setting LD_LIBRARY_PATH to the location
of libcuda.so.1 to get passed this issue.
--------------------------------------------------------------------------
--------------------------------------------------------------------------
No OpenFabrics connection schemes reported that they were able to be
used on a specific port.  As such, the openib BTL (OpenFabrics
support) will be disabled for this port.

  Local host:           d-3-11-2
  Local device:         mlx5_1
  Local port:           1
  CPCs attempted:       rdmacm, udcm
--------------------------------------------------------------------------

*************** JDFTx 1.6.0 (git hash 42ebbcc2) ***************

Start date and time: Sun Jan 16 15:03:41 2022
Executable jdftx with command-line: -i Sodium.in
Running on hosts (process indices):  d-3-11-2 (0-18)
Divided in process groups (process indices):  0 (0)  1 (1)  2 (2)  3 (3)  4 (4)  5 (5)  6 (6)  7 (7)  8 (8)  9 (9)  10 (10)  11 (11)  12 (12)  13 (13)  14 (14)  15 (15)  16 (16)  17 (17)  18 (18)
Resource initialization completed at t[s]:      0.00
Run totals: 19 processes, 48 threads, 0 GPUs


Input parsed successfully to the following command list (including defaults):

basis kpoint-dependent
coords-type Lattice
core-overlap-check vector
coulomb-interaction Slab 001
davidson-band-ratio 1.1
dump End None
dump-name $INPUT.$VAR
elec-cutoff 20
elec-eigen-algo Davidson
elec-ex-corr gga-PBE
elec-smearing Fermi 0.01
electronic-minimize  \
	dirUpdateScheme      FletcherReeves \
	linminMethod         DirUpdateRecommended \
	nIterations          100 \
	history              15 \
	knormThreshold       0 \
	energyDiffThreshold  1e-08 \
	nEnergyDiff          2 \
	alphaTstart          1 \
	alphaTmin            1e-10 \
	updateTestStepSize   yes \
	alphaTreduceFactor   0.1 \
	alphaTincreaseFactor 3 \
	nAlphaAdjustMax      3 \
	wolfeEnergy          0.0001 \
	wolfeGradient        0.9 \
	fdTest               no
electronic-scf  \
	nIterations	10000 \
	energyDiffThreshold	1e-08 \
	residualThreshold	1e-07 \
	mixFraction	0.5 \
	qMetric	0.8 \
	history	10 \
	nEigSteps	2 \
	eigDiffThreshold	1e-08 \
	mixedVariable	Density \
	qKerker	0.8 \
	qKappa	-1 \
	verbose	no \
	mixFractionMag	1.5
exchange-regularization WignerSeitzTruncated
fluid None
fluid-ex-corr (null) lda-PZ
fluid-gummel-loop 10 1.000000e-05
fluid-minimize  \
	dirUpdateScheme      PolakRibiere \
	linminMethod         DirUpdateRecommended \
	nIterations          100 \
	history              15 \
	knormThreshold       0 \
	energyDiffThreshold  0 \
	nEnergyDiff          2 \
	alphaTstart          1 \
	alphaTmin            1e-10 \
	updateTestStepSize   yes \
	alphaTreduceFactor   0.1 \
	alphaTincreaseFactor 3 \
	nAlphaAdjustMax      3 \
	wolfeEnergy          0.0001 \
	wolfeGradient        0.9 \
	fdTest               no
fluid-solvent H2O 55.338 ScalarEOS \
	epsBulk 78.4 \
	pMol 0.92466 \
	epsInf 1.77 \
	Pvap 1.06736e-10 \
	sigmaBulk 4.62e-05 \
	Rvdw 2.61727 \
	Res 1.42 \
	tauNuc 343133 \
	poleEl 15 7 1
forces-output-coords Positions
ion Na   0.000000000000000   0.000000000000000   0.000000000000000 0
ion-species SG15/$ID_ONCV_PBE.upf
ion-width 0
ionic-minimize  \
	dirUpdateScheme      L-BFGS \
	linminMethod         DirUpdateRecommended \
	nIterations          0 \
	history              15 \
	knormThreshold       0.0001 \
	energyDiffThreshold  1e-06 \
	nEnergyDiff          2 \
	alphaTstart          1 \
	alphaTmin            1e-10 \
	updateTestStepSize   yes \
	alphaTreduceFactor   0.1 \
	alphaTincreaseFactor 3 \
	nAlphaAdjustMax      3 \
	wolfeEnergy          0.0001 \
	wolfeGradient        0.9 \
	fdTest               no
kpoint   0.000000000000   0.000000000000   0.000000000000  1.00000000000000
kpoint-folding 12 12 1 
latt-move-scale 1 1 1
latt-scale 2.66 2.66 1 
lattice  \
	   4.727486978767153   -2.363743489383575    0.000000000000000  \
	  -0.000000000000000    4.094123819672498    0.000000000000000  \
	   0.000000000000000    0.000000000000000   40.000000000000000 
lattice-minimize  \
	dirUpdateScheme      L-BFGS \
	linminMethod         DirUpdateRecommended \
	nIterations          0 \
	history              15 \
	knormThreshold       0 \
	energyDiffThreshold  1e-06 \
	nEnergyDiff          2 \
	alphaTstart          1 \
	alphaTmin            1e-10 \
	updateTestStepSize   yes \
	alphaTreduceFactor   0.1 \
	alphaTincreaseFactor 3 \
	nAlphaAdjustMax      3 \
	wolfeEnergy          0.0001 \
	wolfeGradient        0.9 \
	fdTest               no
lcao-params -1 1e-06 0.01
pcm-variant GLSSA13
spintype no-spin
subspace-rotation-factor 1 yes
symmetries automatic
symmetry-threshold 0.0001



---------- Setting up symmetries ----------

Found 24 point-group symmetries of the bravais lattice
Found 24 space-group symmetries with basis
Applied RMS atom displacement 0 bohrs to make symmetries exact.

---------- Initializing the Grid ----------
R = 
[      12.5751     -6.28756            0  ]
[            0      10.8904            0  ]
[            0            0           40  ]
unit cell volume = 5477.91
G =
[   0.499652   0.288474         -0  ]
[          0   0.576949         -0  ]
[         -0         -0    0.15708  ]
Minimum fftbox size, Smin = [  52  52  164  ]
Chosen fftbox size, S = [  54  54  168  ]

---------- Exchange Correlation functional ----------
Initalized PBE GGA exchange.
Initalized PBE GGA correlation.

---------- Setting up pseudopotentials ----------
Width of ionic core gaussian charges (only for fluid interactions / plotting) set to 0

Reading pseudopotential file '/home/gridsan/aligho/DFT/build-Nov24/pseudopotentials/SG15/Na_ONCV_PBE.upf':
  'Na' pseudopotential, 'PBE' functional
  Generated using ONCVPSP code by D. R. Hamann
  Author: Martin Schlipf and Francois Gygi  Date: 150915.
  9 valence electrons, 3 orbitals, 4 projectors, 1992 radial grid points, with lMax = 1
  Transforming local potential to a uniform radial grid of dG=0.02 with 1507 points.
  Transforming nonlocal projectors to a uniform radial grid of dG=0.02 with 432 points.
    2S    l: 0   occupation:  2.0   eigenvalue: -2.085640
    2P    l: 1   occupation:  6.0   eigenvalue: -1.053708
    3S    l: 0   occupation:  1.0   eigenvalue: -0.100838
  Transforming atomic orbitals to a uniform radial grid of dG=0.02 with 432 points.
  Core radius for overlap checks: 2.01 bohrs.
  Reading pulay file /home/gridsan/aligho/DFT/build-Nov24/pseudopotentials/SG15/Na_ONCV_PBE.pulay ... using dE_dnG = -2.946487e-03 computed for Ecut = 20.

Initialized 1 species with 1 total atoms.

Folded 1 k-points by 12x12x1 to 144 k-points.

---------- Setting up k-points, bands, fillings ----------
Reduced to 19 k-points under symmetry. 
Computing the number of bands and number of electrons
Calculating initial fillings.
nElectrons:   9.000000   nBands: 6   nStates: 19

----- Setting up reduced wavefunction bases (one per k-point) -----
average nbasis = 23398.313 , ideal nbasis = 23402.032

---------- Setting up coulomb interaction ----------
Initialized slab truncation along lattice direction 001

---------- Setting up 2D ewald sum ----------
Optimum gaussian width for ewald sums = 6.981196 bohr.
Real space sums over 289 unit cells with max indices [  8  8  0  ]
Reciprocal space sums over 81 terms with max indices [  4  4  0  ]

---------- Allocating electronic variables ----------
Initializing wave functions:  linear combination of atomic orbitals
Note: number of bands (6) exceeds available atomic orbitals (5)
Na pseudo-atom occupations:   s ( 2 1 )  p ( 6 )
	FillingsUpdate:  mu: -0.102285592  nElectrons: 9.000000
LCAOMinimize: Iter:   0  F: -42.5647856308705101  |grad|_K:  1.502e-05  alpha:  1.000e+00
	FillingsUpdate:  mu: -0.102292159  nElectrons: 9.000000
LCAOMinimize: Iter:   1  F: -42.5647857087732717  |grad|_K:  1.297e-07  alpha:  1.009e+00  linmin: -3.179e-03  cgtest:  1.096e-01  t[s]:      4.14
LCAOMinimize: Encountered beta<0, resetting CG.
[d-3-11-2:04126] 18 more processes have sent help message help-mpi-common-cuda.txt / dlopen failed
[d-3-11-2:04126] Set MCA parameter "orte_base_help_aggregate" to 0 to see all help / error messages
[d-3-11-2:04126] 18 more processes have sent help message help-mpi-btl-openib-cpc-base.txt / no cpcs for port
	FillingsUpdate:  mu: -0.102292218  nElectrons: 9.000000
LCAOMinimize: Iter:   2  F: -42.5647857087806329  |grad|_K:  9.305e-09  alpha:  1.066e+00  linmin:  4.185e-02  cgtest: -9.886e-01  t[s]:      5.24
LCAOMinimize: Converged (|Delta F|<1.000000e-06 for 2 iters).


---- Citations for features of the code used in this run ----

   Software package:
      R. Sundararaman, K. Letchworth-Weaver, K.A. Schwarz, D. Gunceler, Y. Ozhabes and T.A. Arias, 'JDFTx: software for joint density-functional theory', SoftwareX 6, 278 (2017)

   gga-PBE exchange-correlation functional:
      J.P. Perdew, K. Burke and M. Ernzerhof, Phys. Rev. Lett. 77, 3865 (1996)

   Pseudopotentials:
      M Schlipf and F Gygi, Comput. Phys. Commun. 196, 36 (2015)

   Truncated Coulomb potentials:
      R. Sundararaman and T.A. Arias, Phys. Rev. B 87, 165122 (2013)

This list may not be complete. Please suggest additional citations or
report any other bugs at https://github.com/shankar1729/jdftx/issues

Initialization completed successfully at t[s]:      5.29


-------- Electronic minimization -----------
Will mix electronic density at each iteration.
	FillingsUpdate:  mu: -0.102292218  nElectrons: 9.000000
	FillingsUpdate:  mu: -0.103094814  nElectrons: 9.000000
SCF: Cycle:  0   F: -42.565611315430857   dF: -8.256e-04   |Residual|: 3.138e-03   |deigs|: 1.723e-01  t[s]:      7.19
	FillingsUpdate:  mu: -0.103394814  nElectrons: 9.000000
SCF: Cycle:  1   F: -42.565644137027334   dF: -3.282e-05   |Residual|: 2.084e-03   |deigs|: 4.997e-03  t[s]:      8.65
	FillingsUpdate:  mu: -0.103879789  nElectrons: 9.000000
SCF: Cycle:  2   F: -42.565662042815042   dF: -1.791e-05   |Residual|: 1.271e-03   |deigs|: 4.313e-03  t[s]:     10.12
	FillingsUpdate:  mu: -0.104411202  nElectrons: 9.000000
SCF: Cycle:  3   F: -42.565677786849292   dF: -1.574e-05   |Residual|: 7.732e-04   |deigs|: 3.188e-03  t[s]:     11.68
	FillingsUpdate:  mu: -0.104502158  nElectrons: 9.000000
SCF: Cycle:  4   F: -42.565680932451855   dF: -3.146e-06   |Residual|: 3.386e-04   |deigs|: 2.099e-03  t[s]:     13.23
	FillingsUpdate:  mu: -0.104474165  nElectrons: 9.000000
SCF: Cycle:  5   F: -42.565683648613955   dF: -2.716e-06   |Residual|: 1.627e-04   |deigs|: 1.828e-03  t[s]:     14.81
	FillingsUpdate:  mu: -0.104438002  nElectrons: 9.000000
SCF: Cycle:  6   F: -42.565685335415523   dF: -1.687e-06   |Residual|: 4.777e-04   |deigs|: 9.958e-04  t[s]:     16.40
	FillingsUpdate:  mu: -0.104363919  nElectrons: 9.000000
SCF: Cycle:  7   F: -42.565685785255980   dF: -4.498e-07   |Residual|: 1.023e-04   |deigs|: 4.900e-04  t[s]:     17.98
	FillingsUpdate:  mu: -0.104335132  nElectrons: 9.000000
SCF: Cycle:  8   F: -42.565686038909483   dF: -2.537e-07   |Residual|: 9.093e-05   |deigs|: 2.506e-04  t[s]:     19.61
	FillingsUpdate:  mu: -0.104219069  nElectrons: 9.000000
SCF: Cycle:  9   F: -42.565686083190691   dF: -4.428e-08   |Residual|: 1.433e-04   |deigs|: 2.686e-04  t[s]:     21.24
	FillingsUpdate:  mu: -0.104194317  nElectrons: 9.000000
SCF: Cycle: 10   F: -42.565686115521110   dF: -3.233e-08   |Residual|: 3.250e-05   |deigs|: 9.134e-05  t[s]:     22.97
	FillingsUpdate:  mu: -0.104133395  nElectrons: 9.000000
SCF: Cycle: 11   F: -42.565686119767250   dF: -4.246e-09   |Residual|: 7.998e-05   |deigs|: 6.099e-05  t[s]:     24.68
	FillingsUpdate:  mu: -0.104088701  nElectrons: 9.000000
SCF: Cycle: 12   F: -42.565686098577437   dF: +2.119e-08   |Residual|: 5.770e-05   |deigs|: 3.291e-05  t[s]:     26.44
	FillingsUpdate:  mu: -0.103963860  nElectrons: 9.000000
SCF: Cycle: 13   F: -42.565686109189762   dF: -1.061e-08   |Residual|: 4.553e-05   |deigs|: 1.701e-04  t[s]:     28.15
	FillingsUpdate:  mu: -0.103947929  nElectrons: 9.000000
SCF: Cycle: 14   F: -42.565686139104017   dF: -2.991e-08   |Residual|: 2.392e-05   |deigs|: 2.383e-05  t[s]:     29.87
	FillingsUpdate:  mu: -0.103921189  nElectrons: 9.000000
SCF: Cycle: 15   F: -42.565686154094898   dF: -1.499e-08   |Residual|: 1.567e-05   |deigs|: 4.106e-05  t[s]:     31.55
	FillingsUpdate:  mu: -0.103915770  nElectrons: 9.000000
SCF: Cycle: 16   F: -42.565686157492941   dF: -3.398e-09   |Residual|: 5.898e-06   |deigs|: 3.098e-06  t[s]:     33.25
	FillingsUpdate:  mu: -0.103912283  nElectrons: 9.000000
SCF: Cycle: 17   F: -42.565686161734341   dF: -4.241e-09   |Residual|: 5.118e-06   |deigs|: 4.803e-06  t[s]:     34.96
SCF: Converged (|Delta E|<1.000000e-08 for 2 iters).


# Ionic positions in lattice coordinates:
ion Na   0.000000000000000   0.000000000000000   0.000000000000000 0

# Forces in Lattice coordinates:
force Na   0.000000000000000   0.000000000000000   0.000000000000000 0

# Energy components:
   Eewald =      -13.5699444363403483
       EH =       20.1781710730953954
     Eloc =      -51.6711362438545336
      Enl =      -12.9052913270717475
   Epulay =       -0.0000020007020407
      Exc =       -6.2074919714680954
       KE =       21.6228776185280438
-------------------------------------
     Etot =      -42.5528172878133333
       TS =        0.0128688739210052
-------------------------------------
        F =      -42.5656861617343409

IonicMinimize: Iter:   0  F: -42.565686161734341  |grad|_K:  0.000e+00  t[s]:     35.04
IonicMinimize: Converged (|grad|_K<1.000000e-04).

#--- Lowdin population analysis ---
# oxidation-state Na +0.017

End date and time: Sun Jan 16 15:04:16 2022  (Duration: 0-0:00:35.07)
Done!
