0.59
--------------------------------------------------------------------------
The library attempted to open the following supporting CUDA libraries,
but each of them failed.  CUDA-aware support is disabled.
libcuda.so.1: cannot open shared object file: No such file or directory
libcuda.dylib: cannot open shared object file: No such file or directory
/usr/lib64/libcuda.so.1: cannot open shared object file: No such file or directory
/usr/lib64/libcuda.dylib: cannot open shared object file: No such file or directory
If you are not interested in CUDA-aware support, then run with
--mca opal_warn_on_missing_libcuda 0 to suppress this message.  If you are interested
in CUDA-aware support, then try setting LD_LIBRARY_PATH to the location
of libcuda.so.1 to get passed this issue.
--------------------------------------------------------------------------
--------------------------------------------------------------------------
No OpenFabrics connection schemes reported that they were able to be
used on a specific port.  As such, the openib BTL (OpenFabrics
support) will be disabled for this port.

  Local host:           d-3-7-4
  Local device:         mlx5_1
  Local port:           1
  CPCs attempted:       rdmacm, udcm
--------------------------------------------------------------------------

*************** JDFTx 1.6.0 (git hash 42ebbcc2) ***************

Start date and time: Sun Jan 16 15:01:47 2022
Executable jdftx with command-line: -i Sodium.in
Running on hosts (process indices):  d-3-7-4 (0-18)
Divided in process groups (process indices):  0 (0)  1 (1)  2 (2)  3 (3)  4 (4)  5 (5)  6 (6)  7 (7)  8 (8)  9 (9)  10 (10)  11 (11)  12 (12)  13 (13)  14 (14)  15 (15)  16 (16)  17 (17)  18 (18)
Resource initialization completed at t[s]:      0.00
Run totals: 19 processes, 48 threads, 0 GPUs


Input parsed successfully to the following command list (including defaults):

basis kpoint-dependent
coords-type Lattice
core-overlap-check vector
coulomb-interaction Slab 001
davidson-band-ratio 1.1
dump End None
dump-name $INPUT.$VAR
elec-cutoff 20
elec-eigen-algo Davidson
elec-ex-corr gga-PBE
elec-smearing Fermi 0.01
electronic-minimize  \
	dirUpdateScheme      FletcherReeves \
	linminMethod         DirUpdateRecommended \
	nIterations          100 \
	history              15 \
	knormThreshold       0 \
	energyDiffThreshold  1e-08 \
	nEnergyDiff          2 \
	alphaTstart          1 \
	alphaTmin            1e-10 \
	updateTestStepSize   yes \
	alphaTreduceFactor   0.1 \
	alphaTincreaseFactor 3 \
	nAlphaAdjustMax      3 \
	wolfeEnergy          0.0001 \
	wolfeGradient        0.9 \
	fdTest               no
electronic-scf  \
	nIterations	10000 \
	energyDiffThreshold	1e-08 \
	residualThreshold	1e-07 \
	mixFraction	0.5 \
	qMetric	0.8 \
	history	10 \
	nEigSteps	2 \
	eigDiffThreshold	1e-08 \
	mixedVariable	Density \
	qKerker	0.8 \
	qKappa	-1 \
	verbose	no \
	mixFractionMag	1.5
exchange-regularization WignerSeitzTruncated
fluid None
fluid-ex-corr (null) lda-PZ
fluid-gummel-loop 10 1.000000e-05
fluid-minimize  \
	dirUpdateScheme      PolakRibiere \
	linminMethod         DirUpdateRecommended \
	nIterations          100 \
	history              15 \
	knormThreshold       0 \
	energyDiffThreshold  0 \
	nEnergyDiff          2 \
	alphaTstart          1 \
	alphaTmin            1e-10 \
	updateTestStepSize   yes \
	alphaTreduceFactor   0.1 \
	alphaTincreaseFactor 3 \
	nAlphaAdjustMax      3 \
	wolfeEnergy          0.0001 \
	wolfeGradient        0.9 \
	fdTest               no
fluid-solvent H2O 55.338 ScalarEOS \
	epsBulk 78.4 \
	pMol 0.92466 \
	epsInf 1.77 \
	Pvap 1.06736e-10 \
	sigmaBulk 4.62e-05 \
	Rvdw 2.61727 \
	Res 1.42 \
	tauNuc 343133 \
	poleEl 15 7 1
forces-output-coords Positions
ion Na   0.000000000000000   0.000000000000000   0.000000000000000 0
ion-species SG15/$ID_ONCV_PBE.upf
ion-width 0
ionic-minimize  \
	dirUpdateScheme      L-BFGS \
	linminMethod         DirUpdateRecommended \
	nIterations          0 \
	history              15 \
	knormThreshold       0.0001 \
	energyDiffThreshold  1e-06 \
	nEnergyDiff          2 \
	alphaTstart          1 \
	alphaTmin            1e-10 \
	updateTestStepSize   yes \
	alphaTreduceFactor   0.1 \
	alphaTincreaseFactor 3 \
	nAlphaAdjustMax      3 \
	wolfeEnergy          0.0001 \
	wolfeGradient        0.9 \
	fdTest               no
kpoint   0.000000000000   0.000000000000   0.000000000000  1.00000000000000
kpoint-folding 12 12 1 
latt-move-scale 1 1 1
latt-scale 0.59 0.59 1 
lattice  \
	   4.727486978767153   -2.363743489383575    0.000000000000000  \
	  -0.000000000000000    4.094123819672498    0.000000000000000  \
	   0.000000000000000    0.000000000000000   40.000000000000000 
lattice-minimize  \
	dirUpdateScheme      L-BFGS \
	linminMethod         DirUpdateRecommended \
	nIterations          0 \
	history              15 \
	knormThreshold       0 \
	energyDiffThreshold  1e-06 \
	nEnergyDiff          2 \
	alphaTstart          1 \
	alphaTmin            1e-10 \
	updateTestStepSize   yes \
	alphaTreduceFactor   0.1 \
	alphaTincreaseFactor 3 \
	nAlphaAdjustMax      3 \
	wolfeEnergy          0.0001 \
	wolfeGradient        0.9 \
	fdTest               no
lcao-params -1 1e-06 0.01
pcm-variant GLSSA13
spintype no-spin
subspace-rotation-factor 1 yes
symmetries automatic
symmetry-threshold 0.0001



---------- Setting up symmetries ----------

Found 24 point-group symmetries of the bravais lattice
Found 24 space-group symmetries with basis
Applied RMS atom displacement 0 bohrs to make symmetries exact.

---------- Initializing the Grid ----------
R = 
[      2.78922     -1.39461            0  ]
[            0      2.41553            0  ]
[            0            0           40  ]
unit cell volume = 269.498
G =
[    2.25267    1.30058         -0  ]
[          0    2.60116         -0  ]
[         -0         -0    0.15708  ]
Minimum fftbox size, Smin = [  12  12  164  ]
Chosen fftbox size, S = [  12  12  168  ]

---------- Exchange Correlation functional ----------
Initalized PBE GGA exchange.
Initalized PBE GGA correlation.

---------- Setting up pseudopotentials ----------
Width of ionic core gaussian charges (only for fluid interactions / plotting) set to 0

Reading pseudopotential file '/home/gridsan/aligho/DFT/build-Nov24/pseudopotentials/SG15/Na_ONCV_PBE.upf':
  'Na' pseudopotential, 'PBE' functional
  Generated using ONCVPSP code by D. R. Hamann
  Author: Martin Schlipf and Francois Gygi  Date: 150915.
  9 valence electrons, 3 orbitals, 4 projectors, 1992 radial grid points, with lMax = 1
  Transforming local potential to a uniform radial grid of dG=0.02 with 1510 points.
  Transforming nonlocal projectors to a uniform radial grid of dG=0.02 with 432 points.
    2S    l: 0   occupation:  2.0   eigenvalue: -2.085640
    2P    l: 1   occupation:  6.0   eigenvalue: -1.053708
    3S    l: 0   occupation:  1.0   eigenvalue: -0.100838
  Transforming atomic orbitals to a uniform radial grid of dG=0.02 with 432 points.
  Core radius for overlap checks: 2.01 bohrs.
  Reading pulay file /home/gridsan/aligho/DFT/build-Nov24/pseudopotentials/SG15/Na_ONCV_PBE.pulay ... using dE_dnG = -2.946487e-03 computed for Ecut = 20.

Initialized 1 species with 1 total atoms.

Folded 1 k-points by 12x12x1 to 144 k-points.

---------- Setting up k-points, bands, fillings ----------
Reduced to 19 k-points under symmetry. 
Computing the number of bands and number of electrons
Calculating initial fillings.
nElectrons:   9.000000   nBands: 6   nStates: 19

----- Setting up reduced wavefunction bases (one per k-point) -----
average nbasis = 1152.271 , ideal nbasis = 1151.315

---------- Setting up coulomb interaction ----------
Initialized slab truncation along lattice direction 001

---------- Setting up 2D ewald sum ----------
Optimum gaussian width for ewald sums = 1.548461 bohr.
Real space sums over 289 unit cells with max indices [  8  8  0  ]
Reciprocal space sums over 81 terms with max indices [  4  4  0  ]

---------- Allocating electronic variables ----------
Initializing wave functions:  linear combination of atomic orbitals
Note: number of bands (6) exceeds available atomic orbitals (5)
Na pseudo-atom occupations:   s ( 2 1 )  p ( 6 )
	FillingsUpdate:  mu: -0.035594619  nElectrons: 9.000000
LCAOMinimize: Iter:   0  F: -41.7237931447057662  |grad|_K:  1.722e-03  alpha:  1.000e+00
	FillingsUpdate:  mu: -0.028376042  nElectrons: 9.000000
LCAOMinimize: Iter:   1  F: -41.7245332443533030  |grad|_K:  2.294e-04  alpha:  7.974e-01  linmin: -4.435e-02  cgtest:  1.236e+00  t[s]:      0.68
LCAOMinimize: Encountered beta<0, resetting CG.
	FillingsUpdate:  mu: -0.028208742  nElectrons: 9.000000
LCAOMinimize: Iter:   2  F: -41.7245503691981341  |grad|_K:  6.392e-06  alpha:  9.457e-01  linmin: -4.606e-02  cgtest:  1.011e+00  t[s]:      0.82
LCAOMinimize: Encountered beta<0, resetting CG.
	FillingsUpdate:  mu: -0.028208662  nElectrons: 9.000000
LCAOMinimize: Iter:   3  F: -41.7245503828240487  |grad|_K:  4.129e-08  alpha:  9.748e-01  linmin: -9.659e-03  cgtest:  1.595e-01  t[s]:      0.96
LCAOMinimize: Encountered beta<0, resetting CG.
LCAOMinimize: 	Step increased F by 2.550848e-12, reducing alpha to 3.132173e-02.
LCAOMinimize: 	Step increased F by 7.389644e-13, reducing alpha to 3.132173e-03.
LCAOMinimize: 	Step increased F by 5.115908e-13, reducing alpha to 3.132173e-04.
LCAOMinimize: 	Step failed to reduce F after 3 attempts. Quitting step.
LCAOMinimize: 	Undoing step.
LCAOMinimize: 	Step failed along negative gradient direction.
LCAOMinimize: Probably at roundoff error limit. (Stopping)


---- Citations for features of the code used in this run ----

   Software package:
      R. Sundararaman, K. Letchworth-Weaver, K.A. Schwarz, D. Gunceler, Y. Ozhabes and T.A. Arias, 'JDFTx: software for joint density-functional theory', SoftwareX 6, 278 (2017)

   gga-PBE exchange-correlation functional:
      J.P. Perdew, K. Burke and M. Ernzerhof, Phys. Rev. Lett. 77, 3865 (1996)

   Pseudopotentials:
      M Schlipf and F Gygi, Comput. Phys. Commun. 196, 36 (2015)

   Truncated Coulomb potentials:
      R. Sundararaman and T.A. Arias, Phys. Rev. B 87, 165122 (2013)

This list may not be complete. Please suggest additional citations or
report any other bugs at https://github.com/shankar1729/jdftx/issues

Initialization completed successfully at t[s]:      1.29


-------- Electronic minimization -----------
Will mix electronic density at each iteration.
	FillingsUpdate:  mu: -0.028208661  nElectrons: 9.000000
	FillingsUpdate:  mu: -0.327346908  nElectrons: 9.000000
SCF: Cycle:  0   F: -41.842763035908931   dF: -1.182e-01   |Residual|: 6.779e-02   |deigs|: 3.985e-01  t[s]:      1.51
	FillingsUpdate:  mu: -0.368224100  nElectrons: 9.000000
SCF: Cycle:  1   F: -41.868243696006111   dF: -2.548e-02   |Residual|: 3.978e-02   |deigs|: 7.754e-02  t[s]:      1.63
	FillingsUpdate:  mu: -0.395261417  nElectrons: 9.000000
SCF: Cycle:  2   F: -41.894283232461198   dF: -2.604e-02   |Residual|: 1.588e-02   |deigs|: 8.782e-02  t[s]:      1.75
	FillingsUpdate:  mu: -0.406946974  nElectrons: 9.000000
SCF: Cycle:  3   F: -41.911898787294561   dF: -1.762e-02   |Residual|: 1.605e-02   |deigs|: 5.141e-02  t[s]:      1.89
	FillingsUpdate:  mu: -0.411548380  nElectrons: 9.000000
SCF: Cycle:  4   F: -41.919539814214822   dF: -7.641e-03   |Residual|: 1.672e-02   |deigs|: 3.806e-02  t[s]:      2.01
	FillingsUpdate:  mu: -0.413576017  nElectrons: 9.000000
SCF: Cycle:  5   F: -41.920428096337410   dF: -8.883e-04   |Residual|: 1.904e-02   |deigs|: 1.660e-02  t[s]:      2.14
	FillingsUpdate:  mu: -0.419530782  nElectrons: 9.000000
SCF: Cycle:  6   F: -41.920035787413774   dF: +3.923e-04   |Residual|: 2.565e-02   |deigs|: 2.238e-02  t[s]:      2.27
	FillingsUpdate:  mu: -0.490922751  nElectrons: 9.000000
SCF: Cycle:  7   F: -41.906939437236787   dF: +1.310e-02   |Residual|: 1.028e-01   |deigs|: 1.454e-01  t[s]:      2.39
	FillingsUpdate:  mu: -0.512263681  nElectrons: 9.000000
SCF: Cycle:  8   F: -41.901394412458522   dF: +5.545e-03   |Residual|: 1.190e-01   |deigs|: 3.476e-02  t[s]:      2.52
	FillingsUpdate:  mu: -0.505113869  nElectrons: 9.000000
SCF: Cycle:  9   F: -41.900300529545731   dF: +1.094e-03   |Residual|: 1.193e-01   |deigs|: 9.347e-03  t[s]:      2.65
	FillingsUpdate:  mu: -0.499131041  nElectrons: 9.000000
SCF: Cycle: 10   F: -41.900707609633649   dF: -4.071e-04   |Residual|: 1.171e-01   |deigs|: 8.642e-03  t[s]:      2.78
	FillingsUpdate:  mu: -0.491762441  nElectrons: 9.000000
SCF: Cycle: 11   F: -41.901162192056745   dF: -4.546e-04   |Residual|: 1.149e-01   |deigs|: 8.473e-03  t[s]:      2.91
	FillingsUpdate:  mu: -0.469631971  nElectrons: 9.000000
SCF: Cycle: 12   F: -41.903737521642952   dF: -2.575e-03   |Residual|: 1.078e-01   |deigs|: 2.896e-02  t[s]:      3.05
	FillingsUpdate:  mu: -0.448377645  nElectrons: 9.000000
SCF: Cycle: 13   F: -41.905338028731585   dF: -1.601e-03   |Residual|: 1.064e-01   |deigs|: 2.412e-02  t[s]:      3.19
	FillingsUpdate:  mu: -0.412809423  nElectrons: 9.000000
SCF: Cycle: 14   F: -41.911286463386830   dF: -5.948e-03   |Residual|: 8.344e-02   |deigs|: 5.617e-02  t[s]:      3.33
	FillingsUpdate:  mu: -0.293341041  nElectrons: 9.000000
SCF: Cycle: 15   F: -41.921326856543246   dF: -1.004e-02   |Residual|: 2.589e-02   |deigs|: 1.843e-01  t[s]:      3.47
	FillingsUpdate:  mu: -0.338468550  nElectrons: 9.000000
SCF: Cycle: 16   F: -41.919399422738842   dF: +1.927e-03   |Residual|: 4.696e-02   |deigs|: 7.489e-02  t[s]:      3.60
	FillingsUpdate:  mu: -0.429004047  nElectrons: 9.000000
SCF: Cycle: 17   F: -41.907986789400006   dF: +1.141e-02   |Residual|: 9.622e-02   |deigs|: 1.432e-01  t[s]:      3.73
	FillingsUpdate:  mu: -0.421391265  nElectrons: 9.000000
SCF: Cycle: 18   F: -41.909489852230365   dF: -1.503e-03   |Residual|: 8.109e-02   |deigs|: 1.941e-02  t[s]:      3.87
	FillingsUpdate:  mu: -0.314284248  nElectrons: 9.000000
SCF: Cycle: 19   F: -41.919635746266593   dF: -1.015e-02   |Residual|: 2.791e-02   |deigs|: 1.605e-01  t[s]:      4.00
	FillingsUpdate:  mu: -0.257513699  nElectrons: 9.000000
SCF: Cycle: 20   F: -41.921732871377785   dF: -2.097e-03   |Residual|: 3.119e-03   |deigs|: 8.812e-02  t[s]:      4.14
	FillingsUpdate:  mu: -0.266456253  nElectrons: 9.000000
SCF: Cycle: 21   F: -41.921656149050030   dF: +7.672e-05   |Residual|: 9.089e-03   |deigs|: 2.185e-02  t[s]:      4.27
	FillingsUpdate:  mu: -0.235373709  nElectrons: 9.000000
SCF: Cycle: 22   F: -41.921794483443136   dF: -1.383e-04   |Residual|: 4.791e-03   |deigs|: 3.550e-02  t[s]:      4.39
	FillingsUpdate:  mu: -0.224694938  nElectrons: 9.000000
SCF: Cycle: 23   F: -41.921846990338878   dF: -5.251e-05   |Residual|: 2.570e-03   |deigs|: 1.304e-02  t[s]:      4.52
	FillingsUpdate:  mu: -0.219643469  nElectrons: 9.000000
SCF: Cycle: 24   F: -41.921840303330207   dF: +6.687e-06   |Residual|: 1.845e-03   |deigs|: 3.870e-03  t[s]:      4.65
	FillingsUpdate:  mu: -0.209773360  nElectrons: 9.000000
SCF: Cycle: 25   F: -41.921863872116489   dF: -2.357e-05   |Residual|: 8.499e-04   |deigs|: 1.233e-02  t[s]:      4.78
[d-3-7-4:94672] 18 more processes have sent help message help-mpi-common-cuda.txt / dlopen failed
[d-3-7-4:94672] Set MCA parameter "orte_base_help_aggregate" to 0 to see all help / error messages
[d-3-7-4:94672] 18 more processes have sent help message help-mpi-btl-openib-cpc-base.txt / no cpcs for port
	FillingsUpdate:  mu: -0.204929041  nElectrons: 9.000000
SCF: Cycle: 26   F: -41.921867822317310   dF: -3.950e-06   |Residual|: 5.763e-04   |deigs|: 5.126e-03  t[s]:      4.92
	FillingsUpdate:  mu: -0.203947339  nElectrons: 9.000000
SCF: Cycle: 27   F: -41.921868951673744   dF: -1.129e-06   |Residual|: 2.137e-04   |deigs|: 1.058e-03  t[s]:      5.04
	FillingsUpdate:  mu: -0.202322771  nElectrons: 9.000000
SCF: Cycle: 28   F: -41.921870075783723   dF: -1.124e-06   |Residual|: 2.293e-04   |deigs|: 1.851e-03  t[s]:      5.18
	FillingsUpdate:  mu: -0.203051158  nElectrons: 9.000000
SCF: Cycle: 29   F: -41.921870229927222   dF: -1.541e-07   |Residual|: 1.220e-04   |deigs|: 8.618e-04  t[s]:      5.30
	FillingsUpdate:  mu: -0.203745410  nElectrons: 9.000000
SCF: Cycle: 30   F: -41.921870337882325   dF: -1.080e-07   |Residual|: 5.752e-05   |deigs|: 9.282e-04  t[s]:      5.43
	FillingsUpdate:  mu: -0.203660158  nElectrons: 9.000000
SCF: Cycle: 31   F: -41.921870376438250   dF: -3.856e-08   |Residual|: 3.083e-05   |deigs|: 6.815e-05  t[s]:      5.56
	FillingsUpdate:  mu: -0.203533793  nElectrons: 9.000000
SCF: Cycle: 32   F: -41.921870399718017   dF: -2.328e-08   |Residual|: 1.212e-05   |deigs|: 1.662e-04  t[s]:      5.69
	FillingsUpdate:  mu: -0.203509317  nElectrons: 9.000000
SCF: Cycle: 33   F: -41.921870411119947   dF: -1.140e-08   |Residual|: 4.550e-06   |deigs|: 3.950e-05  t[s]:      5.82
	FillingsUpdate:  mu: -0.203520967  nElectrons: 9.000000
SCF: Cycle: 34   F: -41.921870423760993   dF: -1.264e-08   |Residual|: 6.981e-06   |deigs|: 4.420e-03  t[s]:      5.95
	FillingsUpdate:  mu: -0.203534374  nElectrons: 9.000000
SCF: Cycle: 35   F: -41.921870426873767   dF: -3.113e-09   |Residual|: 3.788e-06   |deigs|: 4.050e-04  t[s]:      6.08
	FillingsUpdate:  mu: -0.203548416  nElectrons: 9.000000
SCF: Cycle: 36   F: -41.921870429752047   dF: -2.878e-09   |Residual|: 3.557e-06   |deigs|: 5.699e-05  t[s]:      6.21
SCF: Converged (|Delta E|<1.000000e-08 for 2 iters).


# Ionic positions in lattice coordinates:
ion Na   0.000000000000000   0.000000000000000   0.000000000000000 0

# Forces in Lattice coordinates:
force Na  -0.000000000000000   0.000000000000000   0.000000000000000 0

# Energy components:
   Eewald =      -61.1797494926531158
       EH =      -33.2761841120706379
     Eloc =       49.2875868806113644
      Enl =      -13.6996827180649774
   Epulay =        0.0000104458048963
      Exc =       -6.6019137026390879
       KE =       23.5493656500648214
-------------------------------------
     Etot =      -41.9205670489467437
       TS =        0.0013033808053035
-------------------------------------
        F =      -41.9218704297520475

IonicMinimize: Iter:   0  F: -41.921870429752047  |grad|_K:  0.000e+00  t[s]:      6.21
IonicMinimize: Converged (|grad|_K<1.000000e-04).

#--- Lowdin population analysis ---
# oxidation-state Na +0.523

End date and time: Sun Jan 16 15:01:53 2022  (Duration: 0-0:00:06.22)
Done!
