1.22
--------------------------------------------------------------------------
The library attempted to open the following supporting CUDA libraries,
but each of them failed.  CUDA-aware support is disabled.
libcuda.so.1: cannot open shared object file: No such file or directory
libcuda.dylib: cannot open shared object file: No such file or directory
/usr/lib64/libcuda.so.1: cannot open shared object file: No such file or directory
/usr/lib64/libcuda.dylib: cannot open shared object file: No such file or directory
If you are not interested in CUDA-aware support, then run with
--mca opal_warn_on_missing_libcuda 0 to suppress this message.  If you are interested
in CUDA-aware support, then try setting LD_LIBRARY_PATH to the location
of libcuda.so.1 to get passed this issue.
--------------------------------------------------------------------------
--------------------------------------------------------------------------
No OpenFabrics connection schemes reported that they were able to be
used on a specific port.  As such, the openib BTL (OpenFabrics
support) will be disabled for this port.

  Local host:           d-3-3-1
  Local device:         mlx5_1
  Local port:           1
  CPCs attempted:       rdmacm, udcm
--------------------------------------------------------------------------

*************** JDFTx 1.6.0 (git hash 42ebbcc2) ***************

Start date and time: Sun Jan 16 15:02:26 2022
Executable jdftx with command-line: -i Sodium.in
Running on hosts (process indices):  d-3-3-1 (0-18)
Divided in process groups (process indices):  0 (0)  1 (1)  2 (2)  3 (3)  4 (4)  5 (5)  6 (6)  7 (7)  8 (8)  9 (9)  10 (10)  11 (11)  12 (12)  13 (13)  14 (14)  15 (15)  16 (16)  17 (17)  18 (18)
Resource initialization completed at t[s]:      0.00
Run totals: 19 processes, 48 threads, 0 GPUs


Input parsed successfully to the following command list (including defaults):

basis kpoint-dependent
coords-type Lattice
core-overlap-check vector
coulomb-interaction Slab 001
davidson-band-ratio 1.1
dump End None
dump-name $INPUT.$VAR
elec-cutoff 20
elec-eigen-algo Davidson
elec-ex-corr gga-PBE
elec-smearing Fermi 0.01
electronic-minimize  \
	dirUpdateScheme      FletcherReeves \
	linminMethod         DirUpdateRecommended \
	nIterations          100 \
	history              15 \
	knormThreshold       0 \
	energyDiffThreshold  1e-08 \
	nEnergyDiff          2 \
	alphaTstart          1 \
	alphaTmin            1e-10 \
	updateTestStepSize   yes \
	alphaTreduceFactor   0.1 \
	alphaTincreaseFactor 3 \
	nAlphaAdjustMax      3 \
	wolfeEnergy          0.0001 \
	wolfeGradient        0.9 \
	fdTest               no
electronic-scf  \
	nIterations	10000 \
	energyDiffThreshold	1e-08 \
	residualThreshold	1e-07 \
	mixFraction	0.5 \
	qMetric	0.8 \
	history	10 \
	nEigSteps	2 \
	eigDiffThreshold	1e-08 \
	mixedVariable	Density \
	qKerker	0.8 \
	qKappa	-1 \
	verbose	no \
	mixFractionMag	1.5
exchange-regularization WignerSeitzTruncated
fluid None
fluid-ex-corr (null) lda-PZ
fluid-gummel-loop 10 1.000000e-05
fluid-minimize  \
	dirUpdateScheme      PolakRibiere \
	linminMethod         DirUpdateRecommended \
	nIterations          100 \
	history              15 \
	knormThreshold       0 \
	energyDiffThreshold  0 \
	nEnergyDiff          2 \
	alphaTstart          1 \
	alphaTmin            1e-10 \
	updateTestStepSize   yes \
	alphaTreduceFactor   0.1 \
	alphaTincreaseFactor 3 \
	nAlphaAdjustMax      3 \
	wolfeEnergy          0.0001 \
	wolfeGradient        0.9 \
	fdTest               no
fluid-solvent H2O 55.338 ScalarEOS \
	epsBulk 78.4 \
	pMol 0.92466 \
	epsInf 1.77 \
	Pvap 1.06736e-10 \
	sigmaBulk 4.62e-05 \
	Rvdw 2.61727 \
	Res 1.42 \
	tauNuc 343133 \
	poleEl 15 7 1
forces-output-coords Positions
ion Na   0.000000000000000   0.000000000000000   0.000000000000000 0
ion-species SG15/$ID_ONCV_PBE.upf
ion-width 0
ionic-minimize  \
	dirUpdateScheme      L-BFGS \
	linminMethod         DirUpdateRecommended \
	nIterations          0 \
	history              15 \
	knormThreshold       0.0001 \
	energyDiffThreshold  1e-06 \
	nEnergyDiff          2 \
	alphaTstart          1 \
	alphaTmin            1e-10 \
	updateTestStepSize   yes \
	alphaTreduceFactor   0.1 \
	alphaTincreaseFactor 3 \
	nAlphaAdjustMax      3 \
	wolfeEnergy          0.0001 \
	wolfeGradient        0.9 \
	fdTest               no
kpoint   0.000000000000   0.000000000000   0.000000000000  1.00000000000000
kpoint-folding 12 12 1 
latt-move-scale 1 1 1
latt-scale 1.22 1.22 1 
lattice  \
	   4.727486978767153   -2.363743489383575    0.000000000000000  \
	  -0.000000000000000    4.094123819672498    0.000000000000000  \
	   0.000000000000000    0.000000000000000   40.000000000000000 
lattice-minimize  \
	dirUpdateScheme      L-BFGS \
	linminMethod         DirUpdateRecommended \
	nIterations          0 \
	history              15 \
	knormThreshold       0 \
	energyDiffThreshold  1e-06 \
	nEnergyDiff          2 \
	alphaTstart          1 \
	alphaTmin            1e-10 \
	updateTestStepSize   yes \
	alphaTreduceFactor   0.1 \
	alphaTincreaseFactor 3 \
	nAlphaAdjustMax      3 \
	wolfeEnergy          0.0001 \
	wolfeGradient        0.9 \
	fdTest               no
lcao-params -1 1e-06 0.01
pcm-variant GLSSA13
spintype no-spin
subspace-rotation-factor 1 yes
symmetries automatic
symmetry-threshold 0.0001



---------- Setting up symmetries ----------

Found 24 point-group symmetries of the bravais lattice
Found 24 space-group symmetries with basis
Applied RMS atom displacement 0 bohrs to make symmetries exact.

---------- Initializing the Grid ----------
R = 
[      5.76753     -2.88377            0  ]
[            0      4.99483            0  ]
[            0            0           40  ]
unit cell volume = 1152.31
G =
[    1.08941   0.628969         -0  ]
[          0    1.25794         -0  ]
[         -0         -0    0.15708  ]
Minimum fftbox size, Smin = [  24  24  164  ]
Chosen fftbox size, S = [  24  24  168  ]

---------- Exchange Correlation functional ----------
Initalized PBE GGA exchange.
Initalized PBE GGA correlation.

---------- Setting up pseudopotentials ----------
Width of ionic core gaussian charges (only for fluid interactions / plotting) set to 0

Reading pseudopotential file '/home/gridsan/aligho/DFT/build-Nov24/pseudopotentials/SG15/Na_ONCV_PBE.upf':
  'Na' pseudopotential, 'PBE' functional
  Generated using ONCVPSP code by D. R. Hamann
  Author: Martin Schlipf and Francois Gygi  Date: 150915.
  9 valence electrons, 3 orbitals, 4 projectors, 1992 radial grid points, with lMax = 1
  Transforming local potential to a uniform radial grid of dG=0.02 with 1470 points.
  Transforming nonlocal projectors to a uniform radial grid of dG=0.02 with 432 points.
    2S    l: 0   occupation:  2.0   eigenvalue: -2.085640
    2P    l: 1   occupation:  6.0   eigenvalue: -1.053708
    3S    l: 0   occupation:  1.0   eigenvalue: -0.100838
  Transforming atomic orbitals to a uniform radial grid of dG=0.02 with 432 points.
  Core radius for overlap checks: 2.01 bohrs.
  Reading pulay file /home/gridsan/aligho/DFT/build-Nov24/pseudopotentials/SG15/Na_ONCV_PBE.pulay ... using dE_dnG = -2.946487e-03 computed for Ecut = 20.

Initialized 1 species with 1 total atoms.

Folded 1 k-points by 12x12x1 to 144 k-points.

---------- Setting up k-points, bands, fillings ----------
Reduced to 19 k-points under symmetry. 
Computing the number of bands and number of electrons
Calculating initial fillings.
nElectrons:   9.000000   nBands: 6   nStates: 19

----- Setting up reduced wavefunction bases (one per k-point) -----
average nbasis = 4924.979 , ideal nbasis = 4922.775

---------- Setting up coulomb interaction ----------
Initialized slab truncation along lattice direction 001

---------- Setting up 2D ewald sum ----------
Optimum gaussian width for ewald sums = 3.201902 bohr.
Real space sums over 289 unit cells with max indices [  8  8  0  ]
Reciprocal space sums over 81 terms with max indices [  4  4  0  ]

---------- Allocating electronic variables ----------
Initializing wave functions:  linear combination of atomic orbitals
Note: number of bands (6) exceeds available atomic orbitals (5)
Na pseudo-atom occupations:   s ( 2 1 )  p ( 6 )
	FillingsUpdate:  mu: -0.130378332  nElectrons: 9.000000
LCAOMinimize: Iter:   0  F: -42.5709306174106601  |grad|_K:  1.211e-05  alpha:  1.000e+00
	FillingsUpdate:  mu: -0.130368489  nElectrons: 9.000000
LCAOMinimize: Iter:   1  F: -42.5709306677811909  |grad|_K:  5.427e-08  alpha:  1.004e+00  linmin:  5.081e-02  cgtest: -8.316e-01  t[s]:      1.33
LCAOMinimize: 	Wrong curvature in test step, increasing alphaT to 3.011258e+00.
	FillingsUpdate:  mu: -0.130368510  nElectrons: 9.000000
LCAOMinimize: Iter:   2  F: -42.5709306677835002  |grad|_K:  4.555e-08  alpha: -1.866e-01  linmin:  3.917e-04  cgtest:  8.196e-01  t[s]:      1.62
LCAOMinimize: Converged (|Delta F|<1.000000e-06 for 2 iters).


---- Citations for features of the code used in this run ----

   Software package:
      R. Sundararaman, K. Letchworth-Weaver, K.A. Schwarz, D. Gunceler, Y. Ozhabes and T.A. Arias, 'JDFTx: software for joint density-functional theory', SoftwareX 6, 278 (2017)

   gga-PBE exchange-correlation functional:
      J.P. Perdew, K. Burke and M. Ernzerhof, Phys. Rev. Lett. 77, 3865 (1996)

   Pseudopotentials:
      M Schlipf and F Gygi, Comput. Phys. Commun. 196, 36 (2015)

   Truncated Coulomb potentials:
      R. Sundararaman and T.A. Arias, Phys. Rev. B 87, 165122 (2013)

This list may not be complete. Please suggest additional citations or
report any other bugs at https://github.com/shankar1729/jdftx/issues

Initialization completed successfully at t[s]:      1.65


-------- Electronic minimization -----------
Will mix electronic density at each iteration.
	FillingsUpdate:  mu: -0.130368510  nElectrons: 9.000000
	FillingsUpdate:  mu: -0.146453153  nElectrons: 9.000000
SCF: Cycle:  0   F: -42.579234661757049   dF: -8.304e-03   |Residual|: 1.819e-02   |deigs|: 1.650e-01  t[s]:      2.15
	FillingsUpdate:  mu: -0.145283354  nElectrons: 9.000000
SCF: Cycle:  1   F: -42.579772976892848   dF: -5.383e-04   |Residual|: 1.178e-02   |deigs|: 1.812e-02  t[s]:      2.50
	FillingsUpdate:  mu: -0.139078102  nElectrons: 9.000000
SCF: Cycle:  2   F: -42.580117170175868   dF: -3.442e-04   |Residual|: 4.731e-03   |deigs|: 1.074e-02  t[s]:      2.86
[d-3-3-1:02928] 18 more processes have sent help message help-mpi-common-cuda.txt / dlopen failed
[d-3-3-1:02928] Set MCA parameter "orte_base_help_aggregate" to 0 to see all help / error messages
[d-3-3-1:02928] 18 more processes have sent help message help-mpi-btl-openib-cpc-base.txt / no cpcs for port
	FillingsUpdate:  mu: -0.135720796  nElectrons: 9.000000
SCF: Cycle:  3   F: -42.580253437809276   dF: -1.363e-04   |Residual|: 2.852e-03   |deigs|: 9.784e-03  t[s]:      3.23
	FillingsUpdate:  mu: -0.132151698  nElectrons: 9.000000
SCF: Cycle:  4   F: -42.580295689707604   dF: -4.225e-05   |Residual|: 3.359e-03   |deigs|: 6.430e-03  t[s]:      3.60
	FillingsUpdate:  mu: -0.128828232  nElectrons: 9.000000
SCF: Cycle:  5   F: -42.580314689510587   dF: -1.900e-05   |Residual|: 3.545e-03   |deigs|: 2.484e-03  t[s]:      3.97
	FillingsUpdate:  mu: -0.131884681  nElectrons: 9.000000
SCF: Cycle:  6   F: -42.580289675273221   dF: +2.501e-05   |Residual|: 7.927e-03   |deigs|: 5.154e-03  t[s]:      4.35
	FillingsUpdate:  mu: -0.128578069  nElectrons: 9.000000
SCF: Cycle:  7   F: -42.580312060490890   dF: -2.239e-05   |Residual|: 3.423e-03   |deigs|: 3.343e-03  t[s]:      4.73
	FillingsUpdate:  mu: -0.124502539  nElectrons: 9.000000
SCF: Cycle:  8   F: -42.580320158067245   dF: -8.098e-06   |Residual|: 2.107e-03   |deigs|: 4.636e-03  t[s]:      5.11
	FillingsUpdate:  mu: -0.125857665  nElectrons: 9.000000
SCF: Cycle:  9   F: -42.580304093911714   dF: +1.606e-05   |Residual|: 2.956e-03   |deigs|: 2.846e-03  t[s]:      5.50
	FillingsUpdate:  mu: -0.121016927  nElectrons: 9.000000
SCF: Cycle: 10   F: -42.580323610988643   dF: -1.952e-05   |Residual|: 2.301e-03   |deigs|: 5.903e-03  t[s]:      5.88
	FillingsUpdate:  mu: -0.117826481  nElectrons: 9.000000
SCF: Cycle: 11   F: -42.580331867404716   dF: -8.256e-06   |Residual|: 1.476e-03   |deigs|: 3.190e-03  t[s]:      6.28
	FillingsUpdate:  mu: -0.115756444  nElectrons: 9.000000
SCF: Cycle: 12   F: -42.580336093246821   dF: -4.226e-06   |Residual|: 7.360e-04   |deigs|: 1.916e-03  t[s]:      6.67
	FillingsUpdate:  mu: -0.111558949  nElectrons: 9.000000
SCF: Cycle: 13   F: -42.580341976836742   dF: -5.884e-06   |Residual|: 6.818e-04   |deigs|: 4.394e-03  t[s]:      7.06
	FillingsUpdate:  mu: -0.112873003  nElectrons: 9.000000
SCF: Cycle: 14   F: -42.580341992904572   dF: -1.607e-08   |Residual|: 2.133e-04   |deigs|: 2.725e-03  t[s]:      7.44
	FillingsUpdate:  mu: -0.112043970  nElectrons: 9.000000
SCF: Cycle: 15   F: -42.580342279936097   dF: -2.870e-07   |Residual|: 5.473e-05   |deigs|: 1.089e-03  t[s]:      7.82
	FillingsUpdate:  mu: -0.112042884  nElectrons: 9.000000
SCF: Cycle: 16   F: -42.580342287156228   dF: -7.220e-09   |Residual|: 3.368e-05   |deigs|: 2.299e-05  t[s]:      8.18
	FillingsUpdate:  mu: -0.112061487  nElectrons: 9.000000
SCF: Cycle: 17   F: -42.580342294227229   dF: -7.071e-09   |Residual|: 1.501e-05   |deigs|: 2.188e-05  t[s]:      8.56
SCF: Converged (|Delta E|<1.000000e-08 for 2 iters).


# Ionic positions in lattice coordinates:
ion Na   0.000000000000000   0.000000000000000   0.000000000000000 0

# Forces in Lattice coordinates:
force Na  -0.000000000000000  -0.000000000000000   0.000000000000000 0

# Energy components:
   Eewald =      -29.5869280333322351
       EH =        4.3121649382247025
     Eloc =      -19.8361980972735701
      Enl =      -12.9201016190734013
   Epulay =        0.0000056369068836
      Exc =       -6.2732567176315435
       KE =       21.7284338289506138
-------------------------------------
     Etot =      -42.5758800632285386
       TS =        0.0044622309986885
-------------------------------------
        F =      -42.5803422942272292

IonicMinimize: Iter:   0  F: -42.580342294227229  |grad|_K:  0.000e+00  t[s]:      8.59
IonicMinimize: Converged (|grad|_K<1.000000e-04).

#--- Lowdin population analysis ---
# oxidation-state Na +0.072

End date and time: Sun Jan 16 15:02:35 2022  (Duration: 0-0:00:08.60)
Done!
