1.25
--------------------------------------------------------------------------
The library attempted to open the following supporting CUDA libraries,
but each of them failed.  CUDA-aware support is disabled.
libcuda.so.1: cannot open shared object file: No such file or directory
libcuda.dylib: cannot open shared object file: No such file or directory
/usr/lib64/libcuda.so.1: cannot open shared object file: No such file or directory
/usr/lib64/libcuda.dylib: cannot open shared object file: No such file or directory
If you are not interested in CUDA-aware support, then run with
--mca opal_warn_on_missing_libcuda 0 to suppress this message.  If you are interested
in CUDA-aware support, then try setting LD_LIBRARY_PATH to the location
of libcuda.so.1 to get passed this issue.
--------------------------------------------------------------------------
[d-3-3-4:74892] [[50329,0],0] ORTE_ERROR_LOG: Data unpack would read past end of buffer in file util/show_help.c at line 513
--------------------------------------------------------------------------
No OpenFabrics connection schemes reported that they were able to be
used on a specific port.  As such, the openib BTL (OpenFabrics
support) will be disabled for this port.

  Local host:           d-3-3-4
  Local device:         mlx5_1
  Local port:           1
  CPCs attempted:       rdmacm, udcm
--------------------------------------------------------------------------

*************** JDFTx 1.6.0 (git hash 42ebbcc2) ***************

Start date and time: Sun Jan 16 15:02:25 2022
Executable jdftx with command-line: -i Sodium.in
Running on hosts (process indices):  d-3-3-4 (0-18)
Divided in process groups (process indices):  0 (0)  1 (1)  2 (2)  3 (3)  4 (4)  5 (5)  6 (6)  7 (7)  8 (8)  9 (9)  10 (10)  11 (11)  12 (12)  13 (13)  14 (14)  15 (15)  16 (16)  17 (17)  18 (18)
Resource initialization completed at t[s]:      0.00
Run totals: 19 processes, 48 threads, 0 GPUs


Input parsed successfully to the following command list (including defaults):

basis kpoint-dependent
coords-type Lattice
core-overlap-check vector
coulomb-interaction Slab 001
davidson-band-ratio 1.1
dump End None
dump-name $INPUT.$VAR
elec-cutoff 20
elec-eigen-algo Davidson
elec-ex-corr gga-PBE
elec-smearing Fermi 0.01
electronic-minimize  \
	dirUpdateScheme      FletcherReeves \
	linminMethod         DirUpdateRecommended \
	nIterations          100 \
	history              15 \
	knormThreshold       0 \
	energyDiffThreshold  1e-08 \
	nEnergyDiff          2 \
	alphaTstart          1 \
	alphaTmin            1e-10 \
	updateTestStepSize   yes \
	alphaTreduceFactor   0.1 \
	alphaTincreaseFactor 3 \
	nAlphaAdjustMax      3 \
	wolfeEnergy          0.0001 \
	wolfeGradient        0.9 \
	fdTest               no
electronic-scf  \
	nIterations	10000 \
	energyDiffThreshold	1e-08 \
	residualThreshold	1e-07 \
	mixFraction	0.5 \
	qMetric	0.8 \
	history	10 \
	nEigSteps	2 \
	eigDiffThreshold	1e-08 \
	mixedVariable	Density \
	qKerker	0.8 \
	qKappa	-1 \
	verbose	no \
	mixFractionMag	1.5
exchange-regularization WignerSeitzTruncated
fluid None
fluid-ex-corr (null) lda-PZ
fluid-gummel-loop 10 1.000000e-05
fluid-minimize  \
	dirUpdateScheme      PolakRibiere \
	linminMethod         DirUpdateRecommended \
	nIterations          100 \
	history              15 \
	knormThreshold       0 \
	energyDiffThreshold  0 \
	nEnergyDiff          2 \
	alphaTstart          1 \
	alphaTmin            1e-10 \
	updateTestStepSize   yes \
	alphaTreduceFactor   0.1 \
	alphaTincreaseFactor 3 \
	nAlphaAdjustMax      3 \
	wolfeEnergy          0.0001 \
	wolfeGradient        0.9 \
	fdTest               no
fluid-solvent H2O 55.338 ScalarEOS \
	epsBulk 78.4 \
	pMol 0.92466 \
	epsInf 1.77 \
	Pvap 1.06736e-10 \
	sigmaBulk 4.62e-05 \
	Rvdw 2.61727 \
	Res 1.42 \
	tauNuc 343133 \
	poleEl 15 7 1
forces-output-coords Positions
ion Na   0.000000000000000   0.000000000000000   0.000000000000000 0
ion-species SG15/$ID_ONCV_PBE.upf
ion-width 0
ionic-minimize  \
	dirUpdateScheme      L-BFGS \
	linminMethod         DirUpdateRecommended \
	nIterations          0 \
	history              15 \
	knormThreshold       0.0001 \
	energyDiffThreshold  1e-06 \
	nEnergyDiff          2 \
	alphaTstart          1 \
	alphaTmin            1e-10 \
	updateTestStepSize   yes \
	alphaTreduceFactor   0.1 \
	alphaTincreaseFactor 3 \
	nAlphaAdjustMax      3 \
	wolfeEnergy          0.0001 \
	wolfeGradient        0.9 \
	fdTest               no
kpoint   0.000000000000   0.000000000000   0.000000000000  1.00000000000000
kpoint-folding 12 12 1 
latt-move-scale 1 1 1
latt-scale 1.25 1.25 1 
lattice  \
	   4.727486978767153   -2.363743489383575    0.000000000000000  \
	  -0.000000000000000    4.094123819672498    0.000000000000000  \
	   0.000000000000000    0.000000000000000   40.000000000000000 
lattice-minimize  \
	dirUpdateScheme      L-BFGS \
	linminMethod         DirUpdateRecommended \
	nIterations          0 \
	history              15 \
	knormThreshold       0 \
	energyDiffThreshold  1e-06 \
	nEnergyDiff          2 \
	alphaTstart          1 \
	alphaTmin            1e-10 \
	updateTestStepSize   yes \
	alphaTreduceFactor   0.1 \
	alphaTincreaseFactor 3 \
	nAlphaAdjustMax      3 \
	wolfeEnergy          0.0001 \
	wolfeGradient        0.9 \
	fdTest               no
lcao-params -1 1e-06 0.01
pcm-variant GLSSA13
spintype no-spin
subspace-rotation-factor 1 yes
symmetries automatic
symmetry-threshold 0.0001



---------- Setting up symmetries ----------

Found 24 point-group symmetries of the bravais lattice
Found 24 space-group symmetries with basis
Applied RMS atom displacement 0 bohrs to make symmetries exact.

---------- Initializing the Grid ----------
R = 
[      5.90936     -2.95468            0  ]
[            0      5.11765            0  ]
[            0            0           40  ]
unit cell volume = 1209.68
G =
[    1.06326   0.613874         -0  ]
[          0    1.22775         -0  ]
[         -0         -0    0.15708  ]
Minimum fftbox size, Smin = [  24  24  164  ]
Chosen fftbox size, S = [  24  24  168  ]

---------- Exchange Correlation functional ----------
Initalized PBE GGA exchange.
Initalized PBE GGA correlation.

---------- Setting up pseudopotentials ----------
Width of ionic core gaussian charges (only for fluid interactions / plotting) set to 0

Reading pseudopotential file '/home/gridsan/aligho/DFT/build-Nov24/pseudopotentials/SG15/Na_ONCV_PBE.upf':
  'Na' pseudopotential, 'PBE' functional
  Generated using ONCVPSP code by D. R. Hamann
  Author: Martin Schlipf and Francois Gygi  Date: 150915.
  9 valence electrons, 3 orbitals, 4 projectors, 1992 radial grid points, with lMax = 1
  Transforming local potential to a uniform radial grid of dG=0.02 with 1442 points.
  Transforming nonlocal projectors to a uniform radial grid of dG=0.02 with 432 points.
    2S    l: 0   occupation:  2.0   eigenvalue: -2.085640
    2P    l: 1   occupation:  6.0   eigenvalue: -1.053708
    3S    l: 0   occupation:  1.0   eigenvalue: -0.100838
  Transforming atomic orbitals to a uniform radial grid of dG=0.02 with 432 points.
  Core radius for overlap checks: 2.01 bohrs.
  Reading pulay file /home/gridsan/aligho/DFT/build-Nov24/pseudopotentials/SG15/Na_ONCV_PBE.pulay ... using dE_dnG = -2.946487e-03 computed for Ecut = 20.

Initialized 1 species with 1 total atoms.

Folded 1 k-points by 12x12x1 to 144 k-points.

---------- Setting up k-points, bands, fillings ----------
Reduced to 19 k-points under symmetry. 
Computing the number of bands and number of electrons
Calculating initial fillings.
nElectrons:   9.000000   nBands: 6   nStates: 19

----- Setting up reduced wavefunction bases (one per k-point) -----
average nbasis = 5167.396 , ideal nbasis = 5167.855

---------- Setting up coulomb interaction ----------
Initialized slab truncation along lattice direction 001

---------- Setting up 2D ewald sum ----------
Optimum gaussian width for ewald sums = 3.280637 bohr.
Real space sums over 289 unit cells with max indices [  8  8  0  ]
Reciprocal space sums over 81 terms with max indices [  4  4  0  ]

---------- Allocating electronic variables ----------
Initializing wave functions:  linear combination of atomic orbitals
Note: number of bands (6) exceeds available atomic orbitals (5)
Na pseudo-atom occupations:   s ( 2 1 )  p ( 6 )
	FillingsUpdate:  mu: -0.129268857  nElectrons: 9.000000
LCAOMinimize: Iter:   0  F: -42.5737378615027424  |grad|_K:  1.073e-05  alpha:  1.000e+00
	FillingsUpdate:  mu: -0.129263982  nElectrons: 9.000000
LCAOMinimize: Iter:   1  F: -42.5737379010079096  |grad|_K:  4.319e-08  alpha:  1.004e+00  linmin:  4.055e-02  cgtest: -6.673e-01  t[s]:      1.30
	FillingsUpdate:  mu: -0.129264003  nElectrons: 9.000000
LCAOMinimize: Iter:   2  F: -42.5737379010083572  |grad|_K:  2.904e-08  alpha:  1.023e+00  linmin:  1.107e-03  cgtest:  6.360e-01  t[s]:      1.58
LCAOMinimize: Converged (|Delta F|<1.000000e-06 for 2 iters).


---- Citations for features of the code used in this run ----

   Software package:
      R. Sundararaman, K. Letchworth-Weaver, K.A. Schwarz, D. Gunceler, Y. Ozhabes and T.A. Arias, 'JDFTx: software for joint density-functional theory', SoftwareX 6, 278 (2017)

   gga-PBE exchange-correlation functional:
      J.P. Perdew, K. Burke and M. Ernzerhof, Phys. Rev. Lett. 77, 3865 (1996)

   Pseudopotentials:
      M Schlipf and F Gygi, Comput. Phys. Commun. 196, 36 (2015)

   Truncated Coulomb potentials:
      R. Sundararaman and T.A. Arias, Phys. Rev. B 87, 165122 (2013)

This list may not be complete. Please suggest additional citations or
report any other bugs at https://github.com/shankar1729/jdftx/issues

Initialization completed successfully at t[s]:      1.61


-------- Electronic minimization -----------
Will mix electronic density at each iteration.
	FillingsUpdate:  mu: -0.129264003  nElectrons: 9.000000
	FillingsUpdate:  mu: -0.145411087  nElectrons: 9.000000
SCF: Cycle:  0   F: -42.581885206037256   dF: -8.147e-03   |Residual|: 1.718e-02   |deigs|: 1.640e-01  t[s]:      2.12
	FillingsUpdate:  mu: -0.143904043  nElectrons: 9.000000
SCF: Cycle:  1   F: -42.582262012248655   dF: -3.768e-04   |Residual|: 1.150e-02   |deigs|: 1.376e-02  t[s]:      2.46
	FillingsUpdate:  mu: -0.137434336  nElectrons: 9.000000
SCF: Cycle:  2   F: -42.582543927918152   dF: -2.819e-04   |Residual|: 4.693e-03   |deigs|: 1.366e-02  t[s]:      2.82
	FillingsUpdate:  mu: -0.129425505  nElectrons: 9.000000
SCF: Cycle:  3   F: -42.582716785645282   dF: -1.729e-04   |Residual|: 6.174e-03   |deigs|: 1.518e-02  t[s]:      3.17
	FillingsUpdate:  mu: -0.131281020  nElectrons: 9.000000
SCF: Cycle:  4   F: -42.582733520827183   dF: -1.674e-05   |Residual|: 3.176e-03   |deigs|: 4.248e-03  t[s]:      3.53
	FillingsUpdate:  mu: -0.129359175  nElectrons: 9.000000
SCF: Cycle:  5   F: -42.582744117702681   dF: -1.060e-05   |Residual|: 2.514e-03   |deigs|: 3.796e-03  t[s]:      3.90
	FillingsUpdate:  mu: -0.126843854  nElectrons: 9.000000
SCF: Cycle:  6   F: -42.582761101727236   dF: -1.698e-05   |Residual|: 1.291e-03   |deigs|: 6.036e-03  t[s]:      4.27
	FillingsUpdate:  mu: -0.125203412  nElectrons: 9.000000
SCF: Cycle:  7   F: -42.582752604546478   dF: +8.497e-06   |Residual|: 1.183e-03   |deigs|: 2.160e-03  t[s]:      4.64
[d-3-3-4:74892] 17 more processes have sent help message help-mpi-common-cuda.txt / dlopen failed
[d-3-3-4:74892] Set MCA parameter "orte_base_help_aggregate" to 0 to see all help / error messages
[d-3-3-4:74892] 18 more processes have sent help message help-mpi-btl-openib-cpc-base.txt / no cpcs for port
	FillingsUpdate:  mu: -0.121790013  nElectrons: 9.000000
SCF: Cycle:  8   F: -42.582752387864559   dF: +2.167e-07   |Residual|: 2.045e-03   |deigs|: 3.395e-03  t[s]:      5.02
	FillingsUpdate:  mu: -0.122095724  nElectrons: 9.000000
SCF: Cycle:  9   F: -42.582763170542577   dF: -1.078e-05   |Residual|: 1.152e-03   |deigs|: 9.451e-04  t[s]:      5.41
	FillingsUpdate:  mu: -0.118287510  nElectrons: 9.000000
SCF: Cycle: 10   F: -42.582770707229720   dF: -7.537e-06   |Residual|: 1.613e-03   |deigs|: 4.204e-03  t[s]:      5.79
	FillingsUpdate:  mu: -0.113128198  nElectrons: 9.000000
SCF: Cycle: 11   F: -42.582778458323077   dF: -7.751e-06   |Residual|: 7.782e-04   |deigs|: 5.197e-03  t[s]:      6.16
	FillingsUpdate:  mu: -0.115336149  nElectrons: 9.000000
SCF: Cycle: 12   F: -42.582774858822077   dF: +3.600e-06   |Residual|: 8.806e-04   |deigs|: 3.263e-03  t[s]:      6.54
	FillingsUpdate:  mu: -0.111491084  nElectrons: 9.000000
SCF: Cycle: 13   F: -42.582781391205543   dF: -6.532e-06   |Residual|: 6.752e-04   |deigs|: 4.700e-03  t[s]:      6.93
	FillingsUpdate:  mu: -0.110413150  nElectrons: 9.000000
SCF: Cycle: 14   F: -42.582781779960257   dF: -3.888e-07   |Residual|: 2.315e-04   |deigs|: 9.765e-04  t[s]:      7.31
	FillingsUpdate:  mu: -0.110968229  nElectrons: 9.000000
SCF: Cycle: 15   F: -42.582781834936888   dF: -5.498e-08   |Residual|: 9.090e-05   |deigs|: 6.589e-04  t[s]:      7.70
	FillingsUpdate:  mu: -0.110867734  nElectrons: 9.000000
SCF: Cycle: 16   F: -42.582781855203997   dF: -2.027e-08   |Residual|: 2.651e-05   |deigs|: 1.477e-04  t[s]:      8.09
	FillingsUpdate:  mu: -0.110824361  nElectrons: 9.000000
SCF: Cycle: 17   F: -42.582781859200360   dF: -3.996e-09   |Residual|: 1.184e-05   |deigs|: 5.147e-05  t[s]:      8.48
	FillingsUpdate:  mu: -0.110856159  nElectrons: 9.000000
SCF: Cycle: 18   F: -42.582781860446325   dF: -1.246e-09   |Residual|: 5.358e-06   |deigs|: 8.403e-04  t[s]:      8.86
SCF: Converged (|Delta E|<1.000000e-08 for 2 iters).


# Ionic positions in lattice coordinates:
ion Na   0.000000000000000   0.000000000000000   0.000000000000000 0

# Forces in Lattice coordinates:
force Na   0.000000000000000   0.000000000000000   0.000000000000000 0

# Energy components:
   Eewald =      -28.8768417605322654
       EH =        5.0503387476420452
     Eloc =      -21.2811402583421163
      Enl =      -12.9193867912686677
   Epulay =       -0.0000011185087416
      Exc =       -6.2696358666589180
       KE =       21.7183526609684598
-------------------------------------
     Etot =      -42.5783143867001996
       TS =        0.0044674737461276
-------------------------------------
        F =      -42.5827818604463246

IonicMinimize: Iter:   0  F: -42.582781860446325  |grad|_K:  0.000e+00  t[s]:      8.89
IonicMinimize: Converged (|grad|_K<1.000000e-04).

#--- Lowdin population analysis ---
# oxidation-state Na +0.065

End date and time: Sun Jan 16 15:02:34 2022  (Duration: 0-0:00:08.90)
Done!
