1.04
--------------------------------------------------------------------------
The library attempted to open the following supporting CUDA libraries,
but each of them failed.  CUDA-aware support is disabled.
libcuda.so.1: cannot open shared object file: No such file or directory
libcuda.dylib: cannot open shared object file: No such file or directory
/usr/lib64/libcuda.so.1: cannot open shared object file: No such file or directory
/usr/lib64/libcuda.dylib: cannot open shared object file: No such file or directory
If you are not interested in CUDA-aware support, then run with
--mca opal_warn_on_missing_libcuda 0 to suppress this message.  If you are interested
in CUDA-aware support, then try setting LD_LIBRARY_PATH to the location
of libcuda.so.1 to get passed this issue.
--------------------------------------------------------------------------
--------------------------------------------------------------------------
No OpenFabrics connection schemes reported that they were able to be
used on a specific port.  As such, the openib BTL (OpenFabrics
support) will be disabled for this port.

  Local host:           d-16-8-1
  Local device:         mlx5_1
  Local port:           1
  CPCs attempted:       rdmacm, udcm
--------------------------------------------------------------------------

*************** JDFTx 1.6.0 (git hash 42ebbcc2) ***************

Start date and time: Sun Jan 16 15:01:47 2022
Executable jdftx with command-line: -i Sodium.in
Running on hosts (process indices):  d-16-8-1 (0-18)
Divided in process groups (process indices):  0 (0)  1 (1)  2 (2)  3 (3)  4 (4)  5 (5)  6 (6)  7 (7)  8 (8)  9 (9)  10 (10)  11 (11)  12 (12)  13 (13)  14 (14)  15 (15)  16 (16)  17 (17)  18 (18)
Resource initialization completed at t[s]:      0.00
Run totals: 19 processes, 48 threads, 0 GPUs


Input parsed successfully to the following command list (including defaults):

basis kpoint-dependent
coords-type Lattice
core-overlap-check vector
coulomb-interaction Slab 001
davidson-band-ratio 1.1
dump End None
dump-name $INPUT.$VAR
elec-cutoff 20
elec-eigen-algo Davidson
elec-ex-corr gga-PBE
elec-smearing Fermi 0.01
electronic-minimize  \
	dirUpdateScheme      FletcherReeves \
	linminMethod         DirUpdateRecommended \
	nIterations          100 \
	history              15 \
	knormThreshold       0 \
	energyDiffThreshold  1e-08 \
	nEnergyDiff          2 \
	alphaTstart          1 \
	alphaTmin            1e-10 \
	updateTestStepSize   yes \
	alphaTreduceFactor   0.1 \
	alphaTincreaseFactor 3 \
	nAlphaAdjustMax      3 \
	wolfeEnergy          0.0001 \
	wolfeGradient        0.9 \
	fdTest               no
electronic-scf  \
	nIterations	10000 \
	energyDiffThreshold	1e-08 \
	residualThreshold	1e-07 \
	mixFraction	0.5 \
	qMetric	0.8 \
	history	10 \
	nEigSteps	2 \
	eigDiffThreshold	1e-08 \
	mixedVariable	Density \
	qKerker	0.8 \
	qKappa	-1 \
	verbose	no \
	mixFractionMag	1.5
exchange-regularization WignerSeitzTruncated
fluid None
fluid-ex-corr (null) lda-PZ
fluid-gummel-loop 10 1.000000e-05
fluid-minimize  \
	dirUpdateScheme      PolakRibiere \
	linminMethod         DirUpdateRecommended \
	nIterations          100 \
	history              15 \
	knormThreshold       0 \
	energyDiffThreshold  0 \
	nEnergyDiff          2 \
	alphaTstart          1 \
	alphaTmin            1e-10 \
	updateTestStepSize   yes \
	alphaTreduceFactor   0.1 \
	alphaTincreaseFactor 3 \
	nAlphaAdjustMax      3 \
	wolfeEnergy          0.0001 \
	wolfeGradient        0.9 \
	fdTest               no
fluid-solvent H2O 55.338 ScalarEOS \
	epsBulk 78.4 \
	pMol 0.92466 \
	epsInf 1.77 \
	Pvap 1.06736e-10 \
	sigmaBulk 4.62e-05 \
	Rvdw 2.61727 \
	Res 1.42 \
	tauNuc 343133 \
	poleEl 15 7 1
forces-output-coords Positions
ion Na   0.000000000000000   0.000000000000000   0.000000000000000 0
ion-species SG15/$ID_ONCV_PBE.upf
ion-width 0
ionic-minimize  \
	dirUpdateScheme      L-BFGS \
	linminMethod         DirUpdateRecommended \
	nIterations          0 \
	history              15 \
	knormThreshold       0.0001 \
	energyDiffThreshold  1e-06 \
	nEnergyDiff          2 \
	alphaTstart          1 \
	alphaTmin            1e-10 \
	updateTestStepSize   yes \
	alphaTreduceFactor   0.1 \
	alphaTincreaseFactor 3 \
	nAlphaAdjustMax      3 \
	wolfeEnergy          0.0001 \
	wolfeGradient        0.9 \
	fdTest               no
kpoint   0.000000000000   0.000000000000   0.000000000000  1.00000000000000
kpoint-folding 12 12 1 
latt-move-scale 1 1 1
latt-scale 1.04 1.04 1 
lattice  \
	   4.727486978767153   -2.363743489383574    0.000000000000000  \
	  -0.000000000000000    4.094123819672497    0.000000000000000  \
	   0.000000000000000    0.000000000000000   40.000000000000000 
lattice-minimize  \
	dirUpdateScheme      L-BFGS \
	linminMethod         DirUpdateRecommended \
	nIterations          0 \
	history              15 \
	knormThreshold       0 \
	energyDiffThreshold  1e-06 \
	nEnergyDiff          2 \
	alphaTstart          1 \
	alphaTmin            1e-10 \
	updateTestStepSize   yes \
	alphaTreduceFactor   0.1 \
	alphaTincreaseFactor 3 \
	nAlphaAdjustMax      3 \
	wolfeEnergy          0.0001 \
	wolfeGradient        0.9 \
	fdTest               no
lcao-params -1 1e-06 0.01
pcm-variant GLSSA13
spintype no-spin
subspace-rotation-factor 1 yes
symmetries automatic
symmetry-threshold 0.0001



---------- Setting up symmetries ----------

Found 24 point-group symmetries of the bravais lattice
Found 24 space-group symmetries with basis
Applied RMS atom displacement 0 bohrs to make symmetries exact.

---------- Initializing the Grid ----------
R = 
[      4.91659     -2.45829            0  ]
[            0      4.25789            0  ]
[            0            0           40  ]
unit cell volume = 837.371
G =
[    1.27796   0.737829         -0  ]
[          0    1.47566         -0  ]
[         -0         -0    0.15708  ]
Minimum fftbox size, Smin = [  20  20  164  ]
Chosen fftbox size, S = [  20  20  168  ]

---------- Exchange Correlation functional ----------
Initalized PBE GGA exchange.
Initalized PBE GGA correlation.

---------- Setting up pseudopotentials ----------
Width of ionic core gaussian charges (only for fluid interactions / plotting) set to 0

Reading pseudopotential file '/home/gridsan/aligho/DFT/build-Nov24/pseudopotentials/SG15/Na_ONCV_PBE.upf':
  'Na' pseudopotential, 'PBE' functional
  Generated using ONCVPSP code by D. R. Hamann
  Author: Martin Schlipf and Francois Gygi  Date: 150915.
  9 valence electrons, 3 orbitals, 4 projectors, 1992 radial grid points, with lMax = 1
  Transforming local potential to a uniform radial grid of dG=0.02 with 1444 points.
  Transforming nonlocal projectors to a uniform radial grid of dG=0.02 with 432 points.
    2S    l: 0   occupation:  2.0   eigenvalue: -2.085640
    2P    l: 1   occupation:  6.0   eigenvalue: -1.053708
    3S    l: 0   occupation:  1.0   eigenvalue: -0.100838
  Transforming atomic orbitals to a uniform radial grid of dG=0.02 with 432 points.
  Core radius for overlap checks: 2.01 bohrs.
  Reading pulay file /home/gridsan/aligho/DFT/build-Nov24/pseudopotentials/SG15/Na_ONCV_PBE.pulay ... using dE_dnG = -2.946487e-03 computed for Ecut = 20.

Initialized 1 species with 1 total atoms.

Folded 1 k-points by 12x12x1 to 144 k-points.

---------- Setting up k-points, bands, fillings ----------
Reduced to 19 k-points under symmetry. 
Computing the number of bands and number of electrons
Calculating initial fillings.
nElectrons:   9.000000   nBands: 6   nStates: 19

----- Setting up reduced wavefunction bases (one per k-point) -----
average nbasis = 3577.146 , ideal nbasis = 3577.313

---------- Setting up coulomb interaction ----------
Initialized slab truncation along lattice direction 001

---------- Setting up 2D ewald sum ----------
Optimum gaussian width for ewald sums = 2.729490 bohr.
Real space sums over 289 unit cells with max indices [  8  8  0  ]
Reciprocal space sums over 81 terms with max indices [  4  4  0  ]

---------- Allocating electronic variables ----------
Initializing wave functions:  linear combination of atomic orbitals
Note: number of bands (6) exceeds available atomic orbitals (5)
Na pseudo-atom occupations:   s ( 2 1 )  p ( 6 )
	FillingsUpdate:  mu: -0.138111827  nElectrons: 9.000000
LCAOMinimize: Iter:   0  F: -42.5365869226163582  |grad|_K:  4.431e-05  alpha:  1.000e+00
	FillingsUpdate:  mu: -0.138068043  nElectrons: 9.000000
LCAOMinimize: Iter:   1  F: -42.5365875954747068  |grad|_K:  3.375e-07  alpha:  1.002e+00  linmin:  9.497e-02  cgtest: -6.811e-01  t[s]:      1.06
	FillingsUpdate:  mu: -0.138068226  nElectrons: 9.000000
LCAOMinimize: Iter:   2  F: -42.5365875954919446  |grad|_K:  2.324e-07  alpha:  8.553e-01  linmin: -9.522e-04  cgtest:  7.373e-01  t[s]:      1.27
LCAOMinimize: Encountered beta<0, resetting CG.
LCAOMinimize: Converged (|Delta F|<1.000000e-06 for 2 iters).


---- Citations for features of the code used in this run ----

   Software package:
      R. Sundararaman, K. Letchworth-Weaver, K.A. Schwarz, D. Gunceler, Y. Ozhabes and T.A. Arias, 'JDFTx: software for joint density-functional theory', SoftwareX 6, 278 (2017)

   gga-PBE exchange-correlation functional:
      J.P. Perdew, K. Burke and M. Ernzerhof, Phys. Rev. Lett. 77, 3865 (1996)

   Pseudopotentials:
      M Schlipf and F Gygi, Comput. Phys. Commun. 196, 36 (2015)

   Truncated Coulomb potentials:
      R. Sundararaman and T.A. Arias, Phys. Rev. B 87, 165122 (2013)

This list may not be complete. Please suggest additional citations or
report any other bugs at https://github.com/shankar1729/jdftx/issues

Initialization completed successfully at t[s]:      1.31


-------- Electronic minimization -----------
Will mix electronic density at each iteration.
	FillingsUpdate:  mu: -0.138068226  nElectrons: 9.000000
	FillingsUpdate:  mu: -0.153245876  nElectrons: 9.000000
SCF: Cycle:  0   F: -42.545855980348669   dF: -9.268e-03   |Residual|: 2.542e-02   |deigs|: 1.556e-01  t[s]:      1.64
	FillingsUpdate:  mu: -0.150389770  nElectrons: 9.000000
SCF: Cycle:  1   F: -42.546863927938190   dF: -1.008e-03   |Residual|: 1.581e-02   |deigs|: 1.538e-02  t[s]:      1.86
	FillingsUpdate:  mu: -0.149183921  nElectrons: 9.000000
SCF: Cycle:  2   F: -42.549718066296549   dF: -2.854e-03   |Residual|: 5.931e-03   |deigs|: 1.875e-02  t[s]:      2.09
	FillingsUpdate:  mu: -0.152411758  nElectrons: 9.000000
SCF: Cycle:  3   F: -42.550307059240403   dF: -5.890e-04   |Residual|: 3.723e-03   |deigs|: 1.088e-02  t[s]:      2.31
	FillingsUpdate:  mu: -0.152598269  nElectrons: 9.000000
SCF: Cycle:  4   F: -42.550475226343053   dF: -1.682e-04   |Residual|: 3.222e-03   |deigs|: 1.202e-02  t[s]:      2.54
	FillingsUpdate:  mu: -0.151262659  nElectrons: 9.000000
SCF: Cycle:  5   F: -42.550490575209551   dF: -1.535e-05   |Residual|: 2.580e-03   |deigs|: 3.905e-03  t[s]:      2.77
	FillingsUpdate:  mu: -0.151536027  nElectrons: 9.000000
SCF: Cycle:  6   F: -42.550512641210460   dF: -2.207e-05   |Residual|: 4.147e-03   |deigs|: 1.173e-03  t[s]:      3.00
	FillingsUpdate:  mu: -0.149186315  nElectrons: 9.000000
SCF: Cycle:  7   F: -42.550525261721532   dF: -1.262e-05   |Residual|: 3.837e-03   |deigs|: 2.694e-03  t[s]:      3.24
	FillingsUpdate:  mu: -0.147456521  nElectrons: 9.000000
SCF: Cycle:  8   F: -42.550525919088003   dF: -6.574e-07   |Residual|: 2.211e-03   |deigs|: 1.308e-03  t[s]:      3.48
	FillingsUpdate:  mu: -0.145965124  nElectrons: 9.000000
SCF: Cycle:  9   F: -42.550525233519565   dF: +6.856e-07   |Residual|: 2.397e-03   |deigs|: 2.175e-03  t[s]:      3.72
	FillingsUpdate:  mu: -0.144263885  nElectrons: 9.000000
SCF: Cycle: 10   F: -42.550528573405749   dF: -3.340e-06   |Residual|: 2.501e-03   |deigs|: 2.101e-03  t[s]:      3.96
	FillingsUpdate:  mu: -0.142750700  nElectrons: 9.000000
SCF: Cycle: 11   F: -42.550529285360703   dF: -7.120e-07   |Residual|: 2.127e-03   |deigs|: 4.916e-03  t[s]:      4.20
	FillingsUpdate:  mu: -0.136346235  nElectrons: 9.000000
SCF: Cycle: 12   F: -42.550535152951603   dF: -5.868e-06   |Residual|: 6.501e-04   |deigs|: 6.318e-03  t[s]:      4.45
	FillingsUpdate:  mu: -0.135262592  nElectrons: 9.000000
SCF: Cycle: 13   F: -42.550541767744193   dF: -6.615e-06   |Residual|: 2.273e-03   |deigs|: 1.870e-03  t[s]:      4.69
[d-16-8-1:42694] 18 more processes have sent help message help-mpi-common-cuda.txt / dlopen failed
[d-16-8-1:42694] Set MCA parameter "orte_base_help_aggregate" to 0 to see all help / error messages
[d-16-8-1:42694] 18 more processes have sent help message help-mpi-btl-openib-cpc-base.txt / no cpcs for port
	FillingsUpdate:  mu: -0.129503971  nElectrons: 9.000000
SCF: Cycle: 14   F: -42.550543684303520   dF: -1.917e-06   |Residual|: 3.361e-04   |deigs|: 5.237e-03  t[s]:      4.93
	FillingsUpdate:  mu: -0.128082479  nElectrons: 9.000000
SCF: Cycle: 15   F: -42.550544951944573   dF: -1.268e-06   |Residual|: 3.120e-04   |deigs|: 1.591e-03  t[s]:      5.17
	FillingsUpdate:  mu: -0.128273739  nElectrons: 9.000000
SCF: Cycle: 16   F: -42.550545078350147   dF: -1.264e-07   |Residual|: 1.186e-04   |deigs|: 1.927e-04  t[s]:      5.40
	FillingsUpdate:  mu: -0.128270756  nElectrons: 9.000000
SCF: Cycle: 17   F: -42.550545162713398   dF: -8.436e-08   |Residual|: 7.384e-05   |deigs|: 3.101e-05  t[s]:      5.65
	FillingsUpdate:  mu: -0.128321885  nElectrons: 9.000000
SCF: Cycle: 18   F: -42.550545172958941   dF: -1.025e-08   |Residual|: 3.857e-05   |deigs|: 6.730e-05  t[s]:      5.89
	FillingsUpdate:  mu: -0.128294272  nElectrons: 9.000000
SCF: Cycle: 19   F: -42.550545177137344   dF: -4.178e-09   |Residual|: 9.932e-06   |deigs|: 3.686e-05  t[s]:      6.13
	FillingsUpdate:  mu: -0.128325444  nElectrons: 9.000000
SCF: Cycle: 20   F: -42.550545178383409   dF: -1.246e-09   |Residual|: 5.212e-06   |deigs|: 2.698e-05  t[s]:      6.37
SCF: Converged (|Delta E|<1.000000e-08 for 2 iters).


# Ionic positions in lattice coordinates:
ion Na   0.000000000000000   0.000000000000000   0.000000000000000 0

# Forces in Lattice coordinates:
force Na   0.000000000000000   0.000000000000000   0.000000000000000 0

# Energy components:
   Eewald =      -34.7077425006397604
       EH =       -1.2255798449027480
     Eloc =       -9.1964101732541064
      Enl =      -12.9292365078808711
   Epulay =       -0.0000005892207091
      Exc =       -6.2994847712080304
       KE =       21.8120769028308139
-------------------------------------
     Etot =      -42.5463774842754248
       TS =        0.0041676941079851
-------------------------------------
        F =      -42.5505451783834090

IonicMinimize: Iter:   0  F: -42.550545178383409  |grad|_K:  0.000e+00  t[s]:      6.39
IonicMinimize: Converged (|grad|_K<1.000000e-04).

#--- Lowdin population analysis ---
# oxidation-state Na +0.153

End date and time: Sun Jan 16 15:01:53 2022  (Duration: 0-0:00:06.39)
Done!
