2.12
--------------------------------------------------------------------------
The library attempted to open the following supporting CUDA libraries,
but each of them failed.  CUDA-aware support is disabled.
libcuda.so.1: cannot open shared object file: No such file or directory
libcuda.dylib: cannot open shared object file: No such file or directory
/usr/lib64/libcuda.so.1: cannot open shared object file: No such file or directory
/usr/lib64/libcuda.dylib: cannot open shared object file: No such file or directory
If you are not interested in CUDA-aware support, then run with
--mca opal_warn_on_missing_libcuda 0 to suppress this message.  If you are interested
in CUDA-aware support, then try setting LD_LIBRARY_PATH to the location
of libcuda.so.1 to get passed this issue.
--------------------------------------------------------------------------
--------------------------------------------------------------------------
No OpenFabrics connection schemes reported that they were able to be
used on a specific port.  As such, the openib BTL (OpenFabrics
support) will be disabled for this port.

  Local host:           d-4-4-1
  Local device:         mlx5_1
  Local port:           1
  CPCs attempted:       rdmacm, udcm
--------------------------------------------------------------------------

*************** JDFTx 1.6.0 (git hash 42ebbcc2) ***************

Start date and time: Sun Jan 16 15:03:03 2022
Executable jdftx with command-line: -i Sodium.in
Running on hosts (process indices):  d-4-4-1 (0-18)
Divided in process groups (process indices):  0 (0)  1 (1)  2 (2)  3 (3)  4 (4)  5 (5)  6 (6)  7 (7)  8 (8)  9 (9)  10 (10)  11 (11)  12 (12)  13 (13)  14 (14)  15 (15)  16 (16)  17 (17)  18 (18)
Resource initialization completed at t[s]:      0.00
Run totals: 19 processes, 48 threads, 0 GPUs


Input parsed successfully to the following command list (including defaults):

basis kpoint-dependent
coords-type Lattice
core-overlap-check vector
coulomb-interaction Slab 001
davidson-band-ratio 1.1
dump End None
dump-name $INPUT.$VAR
elec-cutoff 20
elec-eigen-algo Davidson
elec-ex-corr gga-PBE
elec-smearing Fermi 0.01
electronic-minimize  \
	dirUpdateScheme      FletcherReeves \
	linminMethod         DirUpdateRecommended \
	nIterations          100 \
	history              15 \
	knormThreshold       0 \
	energyDiffThreshold  1e-08 \
	nEnergyDiff          2 \
	alphaTstart          1 \
	alphaTmin            1e-10 \
	updateTestStepSize   yes \
	alphaTreduceFactor   0.1 \
	alphaTincreaseFactor 3 \
	nAlphaAdjustMax      3 \
	wolfeEnergy          0.0001 \
	wolfeGradient        0.9 \
	fdTest               no
electronic-scf  \
	nIterations	10000 \
	energyDiffThreshold	1e-08 \
	residualThreshold	1e-07 \
	mixFraction	0.5 \
	qMetric	0.8 \
	history	10 \
	nEigSteps	2 \
	eigDiffThreshold	1e-08 \
	mixedVariable	Density \
	qKerker	0.8 \
	qKappa	-1 \
	verbose	no \
	mixFractionMag	1.5
exchange-regularization WignerSeitzTruncated
fluid None
fluid-ex-corr (null) lda-PZ
fluid-gummel-loop 10 1.000000e-05
fluid-minimize  \
	dirUpdateScheme      PolakRibiere \
	linminMethod         DirUpdateRecommended \
	nIterations          100 \
	history              15 \
	knormThreshold       0 \
	energyDiffThreshold  0 \
	nEnergyDiff          2 \
	alphaTstart          1 \
	alphaTmin            1e-10 \
	updateTestStepSize   yes \
	alphaTreduceFactor   0.1 \
	alphaTincreaseFactor 3 \
	nAlphaAdjustMax      3 \
	wolfeEnergy          0.0001 \
	wolfeGradient        0.9 \
	fdTest               no
fluid-solvent H2O 55.338 ScalarEOS \
	epsBulk 78.4 \
	pMol 0.92466 \
	epsInf 1.77 \
	Pvap 1.06736e-10 \
	sigmaBulk 4.62e-05 \
	Rvdw 2.61727 \
	Res 1.42 \
	tauNuc 343133 \
	poleEl 15 7 1
forces-output-coords Positions
ion Na   0.000000000000000   0.000000000000000   0.000000000000000 0
ion-species SG15/$ID_ONCV_PBE.upf
ion-width 0
ionic-minimize  \
	dirUpdateScheme      L-BFGS \
	linminMethod         DirUpdateRecommended \
	nIterations          0 \
	history              15 \
	knormThreshold       0.0001 \
	energyDiffThreshold  1e-06 \
	nEnergyDiff          2 \
	alphaTstart          1 \
	alphaTmin            1e-10 \
	updateTestStepSize   yes \
	alphaTreduceFactor   0.1 \
	alphaTincreaseFactor 3 \
	nAlphaAdjustMax      3 \
	wolfeEnergy          0.0001 \
	wolfeGradient        0.9 \
	fdTest               no
kpoint   0.000000000000   0.000000000000   0.000000000000  1.00000000000000
kpoint-folding 12 12 1 
latt-move-scale 1 1 1
latt-scale 2.12 2.12 1 
lattice  \
	   4.727486978767153   -2.363743489383574    0.000000000000000  \
	  -0.000000000000000    4.094123819672498    0.000000000000000  \
	   0.000000000000000    0.000000000000000   40.000000000000000 
lattice-minimize  \
	dirUpdateScheme      L-BFGS \
	linminMethod         DirUpdateRecommended \
	nIterations          0 \
	history              15 \
	knormThreshold       0 \
	energyDiffThreshold  1e-06 \
	nEnergyDiff          2 \
	alphaTstart          1 \
	alphaTmin            1e-10 \
	updateTestStepSize   yes \
	alphaTreduceFactor   0.1 \
	alphaTincreaseFactor 3 \
	nAlphaAdjustMax      3 \
	wolfeEnergy          0.0001 \
	wolfeGradient        0.9 \
	fdTest               no
lcao-params -1 1e-06 0.01
pcm-variant GLSSA13
spintype no-spin
subspace-rotation-factor 1 yes
symmetries automatic
symmetry-threshold 0.0001



---------- Setting up symmetries ----------

Found 24 point-group symmetries of the bravais lattice
Found 24 space-group symmetries with basis
Applied RMS atom displacement 0 bohrs to make symmetries exact.

---------- Initializing the Grid ----------
R = 
[      10.0223     -5.01114            0  ]
[            0      8.67954            0  ]
[            0            0           40  ]
unit cell volume = 3479.55
G =
[   0.626922   0.361954         -0  ]
[          0   0.723907         -0  ]
[         -0         -0    0.15708  ]
Minimum fftbox size, Smin = [  44  44  164  ]
Chosen fftbox size, S = [  48  48  168  ]

---------- Exchange Correlation functional ----------
Initalized PBE GGA exchange.
Initalized PBE GGA correlation.

---------- Setting up pseudopotentials ----------
Width of ionic core gaussian charges (only for fluid interactions / plotting) set to 0

Reading pseudopotential file '/home/gridsan/aligho/DFT/build-Nov24/pseudopotentials/SG15/Na_ONCV_PBE.upf':
  'Na' pseudopotential, 'PBE' functional
  Generated using ONCVPSP code by D. R. Hamann
  Author: Martin Schlipf and Francois Gygi  Date: 150915.
  9 valence electrons, 3 orbitals, 4 projectors, 1992 radial grid points, with lMax = 1
  Transforming local potential to a uniform radial grid of dG=0.02 with 1648 points.
  Transforming nonlocal projectors to a uniform radial grid of dG=0.02 with 432 points.
    2S    l: 0   occupation:  2.0   eigenvalue: -2.085640
    2P    l: 1   occupation:  6.0   eigenvalue: -1.053708
    3S    l: 0   occupation:  1.0   eigenvalue: -0.100838
  Transforming atomic orbitals to a uniform radial grid of dG=0.02 with 432 points.
  Core radius for overlap checks: 2.01 bohrs.
  Reading pulay file /home/gridsan/aligho/DFT/build-Nov24/pseudopotentials/SG15/Na_ONCV_PBE.pulay ... using dE_dnG = -2.946487e-03 computed for Ecut = 20.

Initialized 1 species with 1 total atoms.

Folded 1 k-points by 12x12x1 to 144 k-points.

---------- Setting up k-points, bands, fillings ----------
Reduced to 19 k-points under symmetry. 
Computing the number of bands and number of electrons
Calculating initial fillings.
nElectrons:   9.000000   nBands: 6   nStates: 19

----- Setting up reduced wavefunction bases (one per k-point) -----
average nbasis = 14866.396 , ideal nbasis = 14864.901

---------- Setting up coulomb interaction ----------
Initialized slab truncation along lattice direction 001

---------- Setting up 2D ewald sum ----------
Optimum gaussian width for ewald sums = 5.563961 bohr.
Real space sums over 289 unit cells with max indices [  8  8  0  ]
Reciprocal space sums over 81 terms with max indices [  4  4  0  ]

---------- Allocating electronic variables ----------
Initializing wave functions:  linear combination of atomic orbitals
Note: number of bands (6) exceeds available atomic orbitals (5)
Na pseudo-atom occupations:   s ( 2 1 )  p ( 6 )
	FillingsUpdate:  mu: -0.104850067  nElectrons: 9.000000
LCAOMinimize: Iter:   0  F: -42.5704800470779148  |grad|_K:  2.740e-05  alpha:  1.000e+00
	FillingsUpdate:  mu: -0.104859142  nElectrons: 9.000000
LCAOMinimize: Iter:   1  F: -42.5704803043732554  |grad|_K:  2.194e-07  alpha:  1.002e+00  linmin: -1.020e-02  cgtest:  4.465e-01  t[s]:      3.25
LCAOMinimize: Encountered beta<0, resetting CG.
	FillingsUpdate:  mu: -0.104859239  nElectrons: 9.000000
LCAOMinimize: Iter:   2  F: -42.5704803043890792  |grad|_K:  1.808e-08  alpha:  9.175e-01  linmin: -8.362e-02  cgtest:  9.932e-01  t[s]:      4.11
LCAOMinimize: Encountered beta<0, resetting CG.
LCAOMinimize: Converged (|Delta F|<1.000000e-06 for 2 iters).


---- Citations for features of the code used in this run ----

   Software package:
      R. Sundararaman, K. Letchworth-Weaver, K.A. Schwarz, D. Gunceler, Y. Ozhabes and T.A. Arias, 'JDFTx: software for joint density-functional theory', SoftwareX 6, 278 (2017)

   gga-PBE exchange-correlation functional:
      J.P. Perdew, K. Burke and M. Ernzerhof, Phys. Rev. Lett. 77, 3865 (1996)

   Pseudopotentials:
      M Schlipf and F Gygi, Comput. Phys. Commun. 196, 36 (2015)

   Truncated Coulomb potentials:
      R. Sundararaman and T.A. Arias, Phys. Rev. B 87, 165122 (2013)

This list may not be complete. Please suggest additional citations or
report any other bugs at https://github.com/shankar1729/jdftx/issues

Initialization completed successfully at t[s]:      4.15


-------- Electronic minimization -----------
Will mix electronic density at each iteration.
	FillingsUpdate:  mu: -0.104859239  nElectrons: 9.000000
[d-4-4-1:24931] 18 more processes have sent help message help-mpi-common-cuda.txt / dlopen failed
[d-4-4-1:24931] Set MCA parameter "orte_base_help_aggregate" to 0 to see all help / error messages
[d-4-4-1:24931] 18 more processes have sent help message help-mpi-btl-openib-cpc-base.txt / no cpcs for port
	FillingsUpdate:  mu: -0.109723294  nElectrons: 9.000000
SCF: Cycle:  0   F: -42.574052639009047   dF: -3.572e-03   |Residual|: 6.609e-03   |deigs|: 1.688e-01  t[s]:      5.63
	FillingsUpdate:  mu: -0.110200730  nElectrons: 9.000000
SCF: Cycle:  1   F: -42.574145247411884   dF: -9.261e-05   |Residual|: 4.856e-03   |deigs|: 7.812e-03  t[s]:      6.74
	FillingsUpdate:  mu: -0.110644972  nElectrons: 9.000000
SCF: Cycle:  2   F: -42.574185471640654   dF: -4.022e-05   |Residual|: 2.074e-03   |deigs|: 7.607e-03  t[s]:      7.84
	FillingsUpdate:  mu: -0.110462259  nElectrons: 9.000000
SCF: Cycle:  3   F: -42.574205379903816   dF: -1.991e-05   |Residual|: 6.846e-04   |deigs|: 2.498e-03  t[s]:      8.98
	FillingsUpdate:  mu: -0.110387928  nElectrons: 9.000000
SCF: Cycle:  4   F: -42.574208307267455   dF: -2.927e-06   |Residual|: 6.189e-04   |deigs|: 4.815e-03  t[s]:     10.16
	FillingsUpdate:  mu: -0.109637073  nElectrons: 9.000000
SCF: Cycle:  5   F: -42.574213003771042   dF: -4.697e-06   |Residual|: 3.446e-04   |deigs|: 2.532e-03  t[s]:     11.34
	FillingsUpdate:  mu: -0.109335068  nElectrons: 9.000000
SCF: Cycle:  6   F: -42.574214231756066   dF: -1.228e-06   |Residual|: 2.926e-04   |deigs|: 9.525e-04  t[s]:     12.49
	FillingsUpdate:  mu: -0.108815896  nElectrons: 9.000000
SCF: Cycle:  7   F: -42.574214892448985   dF: -6.607e-07   |Residual|: 2.494e-04   |deigs|: 7.221e-04  t[s]:     13.71
	FillingsUpdate:  mu: -0.108378669  nElectrons: 9.000000
SCF: Cycle:  8   F: -42.574214829421244   dF: +6.303e-08   |Residual|: 1.649e-04   |deigs|: 3.852e-04  t[s]:     14.94
	FillingsUpdate:  mu: -0.108091927  nElectrons: 9.000000
SCF: Cycle:  9   F: -42.574214802427825   dF: +2.699e-08   |Residual|: 1.988e-04   |deigs|: 2.526e-04  t[s]:     16.22
	FillingsUpdate:  mu: -0.107750964  nElectrons: 9.000000
SCF: Cycle: 10   F: -42.574214796214335   dF: +6.213e-09   |Residual|: 1.727e-04   |deigs|: 3.229e-04  t[s]:     17.49
	FillingsUpdate:  mu: -0.107056218  nElectrons: 9.000000
SCF: Cycle: 11   F: -42.574215202103154   dF: -4.059e-07   |Residual|: 1.198e-04   |deigs|: 7.534e-04  t[s]:     18.79
	FillingsUpdate:  mu: -0.106867216  nElectrons: 9.000000
SCF: Cycle: 12   F: -42.574215599297432   dF: -3.972e-07   |Residual|: 1.370e-04   |deigs|: 1.449e-04  t[s]:     20.09
	FillingsUpdate:  mu: -0.106512014  nElectrons: 9.000000
SCF: Cycle: 13   F: -42.574215825446544   dF: -2.261e-07   |Residual|: 5.894e-05   |deigs|: 3.745e-04  t[s]:     21.41
	FillingsUpdate:  mu: -0.106364099  nElectrons: 9.000000
SCF: Cycle: 14   F: -42.574215871808562   dF: -4.636e-08   |Residual|: 2.653e-05   |deigs|: 1.881e-04  t[s]:     22.69
	FillingsUpdate:  mu: -0.106381470  nElectrons: 9.000000
SCF: Cycle: 15   F: -42.574215964761933   dF: -9.295e-08   |Residual|: 1.438e-05   |deigs|: 2.420e-04  t[s]:     23.94
	FillingsUpdate:  mu: -0.106399129  nElectrons: 9.000000
SCF: Cycle: 16   F: -42.574216215604160   dF: -2.508e-07   |Residual|: 9.958e-06   |deigs|: 4.844e-04  t[s]:     25.10
	FillingsUpdate:  mu: -0.106391361  nElectrons: 9.000000
SCF: Cycle: 17   F: -42.574216242220274   dF: -2.662e-08   |Residual|: 6.077e-06   |deigs|: 4.057e-05  t[s]:     26.25
	FillingsUpdate:  mu: -0.106398588  nElectrons: 9.000000
SCF: Cycle: 18   F: -42.574216250966977   dF: -8.747e-09   |Residual|: 3.089e-06   |deigs|: 2.082e-05  t[s]:     27.41
	FillingsUpdate:  mu: -0.106403975  nElectrons: 9.000000
SCF: Cycle: 19   F: -42.574216255790041   dF: -4.823e-09   |Residual|: 2.085e-06   |deigs|: 1.341e-05  t[s]:     28.64
SCF: Converged (|Delta E|<1.000000e-08 for 2 iters).


# Ionic positions in lattice coordinates:
ion Na   0.000000000000000   0.000000000000000   0.000000000000000 0

# Forces in Lattice coordinates:
force Na   0.000000000000000  -0.000000000000000   0.000000000000000 0

# Energy components:
   Eewald =      -17.0264397172949664
       EH =       16.7191289364400291
     Eloc =      -44.7512764400587812
      Enl =      -12.9116824550167308
   Epulay =        0.0000012658970428
      Exc =       -6.2122903221620831
       KE =       21.6174187880375115
-------------------------------------
     Etot =      -42.5651399441579912
       TS =        0.0090763116320534
-------------------------------------
        F =      -42.5742162557900414

IonicMinimize: Iter:   0  F: -42.574216255790041  |grad|_K:  0.000e+00  t[s]:     28.70
IonicMinimize: Converged (|grad|_K<1.000000e-04).

#--- Lowdin population analysis ---
# oxidation-state Na +0.048

End date and time: Sun Jan 16 15:03:31 2022  (Duration: 0-0:00:28.72)
Done!
