1.43
--------------------------------------------------------------------------
The library attempted to open the following supporting CUDA libraries,
but each of them failed.  CUDA-aware support is disabled.
libcuda.so.1: cannot open shared object file: No such file or directory
libcuda.dylib: cannot open shared object file: No such file or directory
/usr/lib64/libcuda.so.1: cannot open shared object file: No such file or directory
/usr/lib64/libcuda.dylib: cannot open shared object file: No such file or directory
If you are not interested in CUDA-aware support, then run with
--mca opal_warn_on_missing_libcuda 0 to suppress this message.  If you are interested
in CUDA-aware support, then try setting LD_LIBRARY_PATH to the location
of libcuda.so.1 to get passed this issue.
--------------------------------------------------------------------------
--------------------------------------------------------------------------
No OpenFabrics connection schemes reported that they were able to be
used on a specific port.  As such, the openib BTL (OpenFabrics
support) will be disabled for this port.

  Local host:           d-4-4-1
  Local device:         mlx5_1
  Local port:           1
  CPCs attempted:       rdmacm, udcm
--------------------------------------------------------------------------

*************** JDFTx 1.6.0 (git hash 42ebbcc2) ***************

Start date and time: Sun Jan 16 15:02:25 2022
Executable jdftx with command-line: -i Sodium.in
Running on hosts (process indices):  d-4-4-1 (0-18)
Divided in process groups (process indices):  0 (0)  1 (1)  2 (2)  3 (3)  4 (4)  5 (5)  6 (6)  7 (7)  8 (8)  9 (9)  10 (10)  11 (11)  12 (12)  13 (13)  14 (14)  15 (15)  16 (16)  17 (17)  18 (18)
Resource initialization completed at t[s]:      0.00
Run totals: 19 processes, 48 threads, 0 GPUs


Input parsed successfully to the following command list (including defaults):

basis kpoint-dependent
coords-type Lattice
core-overlap-check vector
coulomb-interaction Slab 001
davidson-band-ratio 1.1
dump End None
dump-name $INPUT.$VAR
elec-cutoff 20
elec-eigen-algo Davidson
elec-ex-corr gga-PBE
elec-smearing Fermi 0.01
electronic-minimize  \
	dirUpdateScheme      FletcherReeves \
	linminMethod         DirUpdateRecommended \
	nIterations          100 \
	history              15 \
	knormThreshold       0 \
	energyDiffThreshold  1e-08 \
	nEnergyDiff          2 \
	alphaTstart          1 \
	alphaTmin            1e-10 \
	updateTestStepSize   yes \
	alphaTreduceFactor   0.1 \
	alphaTincreaseFactor 3 \
	nAlphaAdjustMax      3 \
	wolfeEnergy          0.0001 \
	wolfeGradient        0.9 \
	fdTest               no
electronic-scf  \
	nIterations	10000 \
	energyDiffThreshold	1e-08 \
	residualThreshold	1e-07 \
	mixFraction	0.5 \
	qMetric	0.8 \
	history	10 \
	nEigSteps	2 \
	eigDiffThreshold	1e-08 \
	mixedVariable	Density \
	qKerker	0.8 \
	qKappa	-1 \
	verbose	no \
	mixFractionMag	1.5
exchange-regularization WignerSeitzTruncated
fluid None
fluid-ex-corr (null) lda-PZ
fluid-gummel-loop 10 1.000000e-05
fluid-minimize  \
	dirUpdateScheme      PolakRibiere \
	linminMethod         DirUpdateRecommended \
	nIterations          100 \
	history              15 \
	knormThreshold       0 \
	energyDiffThreshold  0 \
	nEnergyDiff          2 \
	alphaTstart          1 \
	alphaTmin            1e-10 \
	updateTestStepSize   yes \
	alphaTreduceFactor   0.1 \
	alphaTincreaseFactor 3 \
	nAlphaAdjustMax      3 \
	wolfeEnergy          0.0001 \
	wolfeGradient        0.9 \
	fdTest               no
fluid-solvent H2O 55.338 ScalarEOS \
	epsBulk 78.4 \
	pMol 0.92466 \
	epsInf 1.77 \
	Pvap 1.06736e-10 \
	sigmaBulk 4.62e-05 \
	Rvdw 2.61727 \
	Res 1.42 \
	tauNuc 343133 \
	poleEl 15 7 1
forces-output-coords Positions
ion Na   0.000000000000000   0.000000000000000   0.000000000000000 0
ion-species SG15/$ID_ONCV_PBE.upf
ion-width 0
ionic-minimize  \
	dirUpdateScheme      L-BFGS \
	linminMethod         DirUpdateRecommended \
	nIterations          0 \
	history              15 \
	knormThreshold       0.0001 \
	energyDiffThreshold  1e-06 \
	nEnergyDiff          2 \
	alphaTstart          1 \
	alphaTmin            1e-10 \
	updateTestStepSize   yes \
	alphaTreduceFactor   0.1 \
	alphaTincreaseFactor 3 \
	nAlphaAdjustMax      3 \
	wolfeEnergy          0.0001 \
	wolfeGradient        0.9 \
	fdTest               no
kpoint   0.000000000000   0.000000000000   0.000000000000  1.00000000000000
kpoint-folding 12 12 1 
latt-move-scale 1 1 1
latt-scale 1.43 1.43 1 
lattice  \
	   4.727486978767154   -2.363743489383575    0.000000000000000  \
	  -0.000000000000000    4.094123819672498    0.000000000000000  \
	   0.000000000000000    0.000000000000000   40.000000000000000 
lattice-minimize  \
	dirUpdateScheme      L-BFGS \
	linminMethod         DirUpdateRecommended \
	nIterations          0 \
	history              15 \
	knormThreshold       0 \
	energyDiffThreshold  1e-06 \
	nEnergyDiff          2 \
	alphaTstart          1 \
	alphaTmin            1e-10 \
	updateTestStepSize   yes \
	alphaTreduceFactor   0.1 \
	alphaTincreaseFactor 3 \
	nAlphaAdjustMax      3 \
	wolfeEnergy          0.0001 \
	wolfeGradient        0.9 \
	fdTest               no
lcao-params -1 1e-06 0.01
pcm-variant GLSSA13
spintype no-spin
subspace-rotation-factor 1 yes
symmetries automatic
symmetry-threshold 0.0001



---------- Setting up symmetries ----------

Found 24 point-group symmetries of the bravais lattice
Found 24 space-group symmetries with basis
Applied RMS atom displacement 0 bohrs to make symmetries exact.

---------- Initializing the Grid ----------
R = 
[      6.76031     -3.38015            0  ]
[            0       5.8546            0  ]
[            0            0           40  ]
unit cell volume = 1583.15
G =
[   0.929423   0.536603         -0  ]
[          0    1.07321         -0  ]
[         -0         -0    0.15708  ]
Minimum fftbox size, Smin = [  28  28  164  ]
Chosen fftbox size, S = [  28  28  168  ]

---------- Exchange Correlation functional ----------
Initalized PBE GGA exchange.
Initalized PBE GGA correlation.

---------- Setting up pseudopotentials ----------
Width of ionic core gaussian charges (only for fluid interactions / plotting) set to 0

Reading pseudopotential file '/home/gridsan/aligho/DFT/build-Nov24/pseudopotentials/SG15/Na_ONCV_PBE.upf':
  'Na' pseudopotential, 'PBE' functional
  Generated using ONCVPSP code by D. R. Hamann
  Author: Martin Schlipf and Francois Gygi  Date: 150915.
  9 valence electrons, 3 orbitals, 4 projectors, 1992 radial grid points, with lMax = 1
  Transforming local potential to a uniform radial grid of dG=0.02 with 1464 points.
  Transforming nonlocal projectors to a uniform radial grid of dG=0.02 with 432 points.
    2S    l: 0   occupation:  2.0   eigenvalue: -2.085640
    2P    l: 1   occupation:  6.0   eigenvalue: -1.053708
    3S    l: 0   occupation:  1.0   eigenvalue: -0.100838
  Transforming atomic orbitals to a uniform radial grid of dG=0.02 with 432 points.
  Core radius for overlap checks: 2.01 bohrs.
  Reading pulay file /home/gridsan/aligho/DFT/build-Nov24/pseudopotentials/SG15/Na_ONCV_PBE.pulay ... using dE_dnG = -2.946487e-03 computed for Ecut = 20.

Initialized 1 species with 1 total atoms.

Folded 1 k-points by 12x12x1 to 144 k-points.

---------- Setting up k-points, bands, fillings ----------
Reduced to 19 k-points under symmetry. 
Computing the number of bands and number of electrons
Calculating initial fillings.
nElectrons:   9.000000   nBands: 6   nStates: 19

----- Setting up reduced wavefunction bases (one per k-point) -----
average nbasis = 6761.979 , ideal nbasis = 6763.358

---------- Setting up coulomb interaction ----------
Initialized slab truncation along lattice direction 001

---------- Setting up 2D ewald sum ----------
Optimum gaussian width for ewald sums = 3.753049 bohr.
Real space sums over 289 unit cells with max indices [  8  8  0  ]
Reciprocal space sums over 81 terms with max indices [  4  4  0  ]

---------- Allocating electronic variables ----------
Initializing wave functions:  linear combination of atomic orbitals
Note: number of bands (6) exceeds available atomic orbitals (5)
Na pseudo-atom occupations:   s ( 2 1 )  p ( 6 )
	FillingsUpdate:  mu: -0.120359431  nElectrons: 9.000000
LCAOMinimize: Iter:   0  F: -42.5813797158999705  |grad|_K:  7.465e-06  alpha:  1.000e+00
	FillingsUpdate:  mu: -0.120355143  nElectrons: 9.000000
LCAOMinimize: Iter:   1  F: -42.5813797347521259  |grad|_K:  7.068e-08  alpha:  9.890e-01  linmin: -1.151e-03  cgtest:  2.354e-02  t[s]:      1.57
LCAOMinimize: Encountered beta<0, resetting CG.
LCAOMinimize: 	Step increased F by 4.618528e-13, reducing alpha to 6.837593e-02.
LCAOMinimize: 	Step increased F by 1.634248e-12, reducing alpha to 6.837593e-03.
LCAOMinimize: 	Step increased F by 4.902745e-13, reducing alpha to 6.837593e-04.
LCAOMinimize: 	Step failed to reduce F after 3 attempts. Quitting step.
LCAOMinimize: 	Undoing step.
LCAOMinimize: 	Step failed along negative gradient direction.
LCAOMinimize: Probably at roundoff error limit. (Stopping)


---- Citations for features of the code used in this run ----

   Software package:
      R. Sundararaman, K. Letchworth-Weaver, K.A. Schwarz, D. Gunceler, Y. Ozhabes and T.A. Arias, 'JDFTx: software for joint density-functional theory', SoftwareX 6, 278 (2017)

   gga-PBE exchange-correlation functional:
      J.P. Perdew, K. Burke and M. Ernzerhof, Phys. Rev. Lett. 77, 3865 (1996)

   Pseudopotentials:
      M Schlipf and F Gygi, Comput. Phys. Commun. 196, 36 (2015)

   Truncated Coulomb potentials:
      R. Sundararaman and T.A. Arias, Phys. Rev. B 87, 165122 (2013)

This list may not be complete. Please suggest additional citations or
report any other bugs at https://github.com/shankar1729/jdftx/issues

Initialization completed successfully at t[s]:      2.63


-------- Electronic minimization -----------
Will mix electronic density at each iteration.
	FillingsUpdate:  mu: -0.120355142  nElectrons: 9.000000
	FillingsUpdate:  mu: -0.136052347  nElectrons: 9.000000
SCF: Cycle:  0   F: -42.588838957374392   dF: -7.459e-03   |Residual|: 1.275e-02   |deigs|: 1.656e-01  t[s]:      3.26
	FillingsUpdate:  mu: -0.134849893  nElectrons: 9.000000
SCF: Cycle:  1   F: -42.588925830617924   dF: -8.687e-05   |Residual|: 9.150e-03   |deigs|: 1.177e-02  t[s]:      3.71
	FillingsUpdate:  mu: -0.130019992  nElectrons: 9.000000
SCF: Cycle:  2   F: -42.588994160049324   dF: -6.833e-05   |Residual|: 3.866e-03   |deigs|: 8.041e-03  t[s]:      4.17
	FillingsUpdate:  mu: -0.125895706  nElectrons: 9.000000
SCF: Cycle:  3   F: -42.589067486195674   dF: -7.333e-05   |Residual|: 3.265e-03   |deigs|: 1.142e-02  t[s]:      4.63
[d-4-4-1:25019] 18 more processes have sent help message help-mpi-common-cuda.txt / dlopen failed
[d-4-4-1:25019] Set MCA parameter "orte_base_help_aggregate" to 0 to see all help / error messages
[d-4-4-1:25019] 18 more processes have sent help message help-mpi-btl-openib-cpc-base.txt / no cpcs for port
	FillingsUpdate:  mu: -0.125830552  nElectrons: 9.000000
SCF: Cycle:  4   F: -42.589109511584262   dF: -4.203e-05   |Residual|: 1.905e-03   |deigs|: 3.812e-03  t[s]:      5.08
	FillingsUpdate:  mu: -0.122940817  nElectrons: 9.000000
SCF: Cycle:  5   F: -42.589129374741894   dF: -1.986e-05   |Residual|: 1.190e-03   |deigs|: 3.870e-03  t[s]:      5.55
	FillingsUpdate:  mu: -0.120126033  nElectrons: 9.000000
SCF: Cycle:  6   F: -42.589139332953295   dF: -9.958e-06   |Residual|: 1.381e-03   |deigs|: 3.675e-03  t[s]:      6.02
	FillingsUpdate:  mu: -0.121335161  nElectrons: 9.000000
SCF: Cycle:  7   F: -42.589133192927683   dF: +6.140e-06   |Residual|: 1.873e-03   |deigs|: 3.511e-03  t[s]:      6.50
	FillingsUpdate:  mu: -0.118646577  nElectrons: 9.000000
SCF: Cycle:  8   F: -42.589133268292635   dF: -7.536e-08   |Residual|: 8.539e-04   |deigs|: 3.335e-03  t[s]:      6.99
	FillingsUpdate:  mu: -0.118017253  nElectrons: 9.000000
SCF: Cycle:  9   F: -42.589137681633240   dF: -4.413e-06   |Residual|: 1.800e-03   |deigs|: 4.398e-04  t[s]:      7.48
	FillingsUpdate:  mu: -0.114234544  nElectrons: 9.000000
SCF: Cycle: 10   F: -42.589144219107723   dF: -6.537e-06   |Residual|: 4.558e-04   |deigs|: 4.619e-03  t[s]:      7.98
	FillingsUpdate:  mu: -0.107926126  nElectrons: 9.000000
SCF: Cycle: 11   F: -42.589146583055907   dF: -2.364e-06   |Residual|: 6.748e-04   |deigs|: 6.600e-03  t[s]:      8.48
	FillingsUpdate:  mu: -0.110517032  nElectrons: 9.000000
SCF: Cycle: 12   F: -42.589149684995157   dF: -3.102e-06   |Residual|: 3.299e-04   |deigs|: 3.117e-03  t[s]:      8.99
	FillingsUpdate:  mu: -0.111320004  nElectrons: 9.000000
SCF: Cycle: 13   F: -42.589150117421362   dF: -4.324e-07   |Residual|: 4.053e-04   |deigs|: 2.099e-03  t[s]:      9.49
	FillingsUpdate:  mu: -0.108410186  nElectrons: 9.000000
SCF: Cycle: 14   F: -42.589151207279940   dF: -1.090e-06   |Residual|: 1.236e-04   |deigs|: 3.163e-03  t[s]:      9.99
	FillingsUpdate:  mu: -0.108512204  nElectrons: 9.000000
SCF: Cycle: 15   F: -42.589151223455211   dF: -1.618e-08   |Residual|: 6.226e-05   |deigs|: 1.004e-04  t[s]:     10.45
	FillingsUpdate:  mu: -0.108651324  nElectrons: 9.000000
SCF: Cycle: 16   F: -42.589151234430759   dF: -1.098e-08   |Residual|: 2.138e-05   |deigs|: 1.893e-03  t[s]:     10.94
	FillingsUpdate:  mu: -0.108680089  nElectrons: 9.000000
SCF: Cycle: 17   F: -42.589151248382919   dF: -1.395e-08   |Residual|: 1.277e-05   |deigs|: 5.186e-04  t[s]:     11.45
	FillingsUpdate:  mu: -0.108660929  nElectrons: 9.000000
SCF: Cycle: 18   F: -42.589151248943409   dF: -5.605e-10   |Residual|: 3.005e-06   |deigs|: 2.675e-05  t[s]:     11.93
	FillingsUpdate:  mu: -0.108657547  nElectrons: 9.000000
SCF: Cycle: 19   F: -42.589151249093831   dF: -1.504e-10   |Residual|: 1.606e-06   |deigs|: 5.091e-06  t[s]:     12.43
SCF: Converged (|Delta E|<1.000000e-08 for 2 iters).


# Ionic positions in lattice coordinates:
ion Na   0.000000000000000   0.000000000000000   0.000000000000000 0

# Forces in Lattice coordinates:
force Na   0.000000000000000   0.000000000000000   0.000000000000000 0

# Energy components:
   Eewald =      -25.2419945459198161
       EH =        8.7223489067393931
     Eloc =      -28.5699355237679491
      Enl =      -12.9170660243933391
   Epulay =       -0.0000025660854534
      Exc =       -6.2507920084915272
       KE =       21.6730858046617243
-------------------------------------
     Etot =      -42.5843559572569745
       TS =        0.0047952918368557
-------------------------------------
        F =      -42.5891512490938311

IonicMinimize: Iter:   0  F: -42.589151249093831  |grad|_K:  0.000e+00  t[s]:     12.46
IonicMinimize: Converged (|grad|_K<1.000000e-04).

#--- Lowdin population analysis ---
# oxidation-state Na +0.048

End date and time: Sun Jan 16 15:02:37 2022  (Duration: 0-0:00:12.47)
Done!
