1.82
--------------------------------------------------------------------------
The library attempted to open the following supporting CUDA libraries,
but each of them failed.  CUDA-aware support is disabled.
libcuda.so.1: cannot open shared object file: No such file or directory
libcuda.dylib: cannot open shared object file: No such file or directory
/usr/lib64/libcuda.so.1: cannot open shared object file: No such file or directory
/usr/lib64/libcuda.dylib: cannot open shared object file: No such file or directory
If you are not interested in CUDA-aware support, then run with
--mca opal_warn_on_missing_libcuda 0 to suppress this message.  If you are interested
in CUDA-aware support, then try setting LD_LIBRARY_PATH to the location
of libcuda.so.1 to get passed this issue.
--------------------------------------------------------------------------
--------------------------------------------------------------------------
No OpenFabrics connection schemes reported that they were able to be
used on a specific port.  As such, the openib BTL (OpenFabrics
support) will be disabled for this port.

  Local host:           d-16-12-2
  Local device:         mlx5_1
  Local port:           1
  CPCs attempted:       rdmacm, udcm
--------------------------------------------------------------------------

*************** JDFTx 1.6.0 (git hash 42ebbcc2) ***************

Start date and time: Sun Jan 16 15:02:25 2022
Executable jdftx with command-line: -i Sodium.in
Running on hosts (process indices):  d-16-12-2 (0-18)
Divided in process groups (process indices):  0 (0)  1 (1)  2 (2)  3 (3)  4 (4)  5 (5)  6 (6)  7 (7)  8 (8)  9 (9)  10 (10)  11 (11)  12 (12)  13 (13)  14 (14)  15 (15)  16 (16)  17 (17)  18 (18)
Resource initialization completed at t[s]:      0.00
Run totals: 19 processes, 48 threads, 0 GPUs


Input parsed successfully to the following command list (including defaults):

basis kpoint-dependent
coords-type Lattice
core-overlap-check vector
coulomb-interaction Slab 001
davidson-band-ratio 1.1
dump End None
dump-name $INPUT.$VAR
elec-cutoff 20
elec-eigen-algo Davidson
elec-ex-corr gga-PBE
elec-smearing Fermi 0.01
electronic-minimize  \
	dirUpdateScheme      FletcherReeves \
	linminMethod         DirUpdateRecommended \
	nIterations          100 \
	history              15 \
	knormThreshold       0 \
	energyDiffThreshold  1e-08 \
	nEnergyDiff          2 \
	alphaTstart          1 \
	alphaTmin            1e-10 \
	updateTestStepSize   yes \
	alphaTreduceFactor   0.1 \
	alphaTincreaseFactor 3 \
	nAlphaAdjustMax      3 \
	wolfeEnergy          0.0001 \
	wolfeGradient        0.9 \
	fdTest               no
electronic-scf  \
	nIterations	10000 \
	energyDiffThreshold	1e-08 \
	residualThreshold	1e-07 \
	mixFraction	0.5 \
	qMetric	0.8 \
	history	10 \
	nEigSteps	2 \
	eigDiffThreshold	1e-08 \
	mixedVariable	Density \
	qKerker	0.8 \
	qKappa	-1 \
	verbose	no \
	mixFractionMag	1.5
exchange-regularization WignerSeitzTruncated
fluid None
fluid-ex-corr (null) lda-PZ
fluid-gummel-loop 10 1.000000e-05
fluid-minimize  \
	dirUpdateScheme      PolakRibiere \
	linminMethod         DirUpdateRecommended \
	nIterations          100 \
	history              15 \
	knormThreshold       0 \
	energyDiffThreshold  0 \
	nEnergyDiff          2 \
	alphaTstart          1 \
	alphaTmin            1e-10 \
	updateTestStepSize   yes \
	alphaTreduceFactor   0.1 \
	alphaTincreaseFactor 3 \
	nAlphaAdjustMax      3 \
	wolfeEnergy          0.0001 \
	wolfeGradient        0.9 \
	fdTest               no
fluid-solvent H2O 55.338 ScalarEOS \
	epsBulk 78.4 \
	pMol 0.92466 \
	epsInf 1.77 \
	Pvap 1.06736e-10 \
	sigmaBulk 4.62e-05 \
	Rvdw 2.61727 \
	Res 1.42 \
	tauNuc 343133 \
	poleEl 15 7 1
forces-output-coords Positions
ion Na   0.000000000000000   0.000000000000000   0.000000000000000 0
ion-species SG15/$ID_ONCV_PBE.upf
ion-width 0
ionic-minimize  \
	dirUpdateScheme      L-BFGS \
	linminMethod         DirUpdateRecommended \
	nIterations          0 \
	history              15 \
	knormThreshold       0.0001 \
	energyDiffThreshold  1e-06 \
	nEnergyDiff          2 \
	alphaTstart          1 \
	alphaTmin            1e-10 \
	updateTestStepSize   yes \
	alphaTreduceFactor   0.1 \
	alphaTincreaseFactor 3 \
	nAlphaAdjustMax      3 \
	wolfeEnergy          0.0001 \
	wolfeGradient        0.9 \
	fdTest               no
kpoint   0.000000000000   0.000000000000   0.000000000000  1.00000000000000
kpoint-folding 12 12 1 
latt-move-scale 1 1 1
latt-scale 1.82 1.82 1 
lattice  \
	   4.727486978767153   -2.363743489383574    0.000000000000000  \
	  -0.000000000000000    4.094123819672497    0.000000000000000  \
	   0.000000000000000    0.000000000000000   40.000000000000000 
lattice-minimize  \
	dirUpdateScheme      L-BFGS \
	linminMethod         DirUpdateRecommended \
	nIterations          0 \
	history              15 \
	knormThreshold       0 \
	energyDiffThreshold  1e-06 \
	nEnergyDiff          2 \
	alphaTstart          1 \
	alphaTmin            1e-10 \
	updateTestStepSize   yes \
	alphaTreduceFactor   0.1 \
	alphaTincreaseFactor 3 \
	nAlphaAdjustMax      3 \
	wolfeEnergy          0.0001 \
	wolfeGradient        0.9 \
	fdTest               no
lcao-params -1 1e-06 0.01
pcm-variant GLSSA13
spintype no-spin
subspace-rotation-factor 1 yes
symmetries automatic
symmetry-threshold 0.0001



---------- Setting up symmetries ----------

Found 24 point-group symmetries of the bravais lattice
Found 24 space-group symmetries with basis
Applied RMS atom displacement 0 bohrs to make symmetries exact.

---------- Initializing the Grid ----------
R = 
[      8.60403     -4.30201            0  ]
[            0      7.45131            0  ]
[            0            0           40  ]
unit cell volume = 2564.45
G =
[   0.730261   0.421616         -0  ]
[          0   0.843233         -0  ]
[         -0         -0    0.15708  ]
Minimum fftbox size, Smin = [  36  36  164  ]
Chosen fftbox size, S = [  36  36  168  ]

---------- Exchange Correlation functional ----------
Initalized PBE GGA exchange.
Initalized PBE GGA correlation.

---------- Setting up pseudopotentials ----------
Width of ionic core gaussian charges (only for fluid interactions / plotting) set to 0

Reading pseudopotential file '/home/gridsan/aligho/DFT/build-Nov24/pseudopotentials/SG15/Na_ONCV_PBE.upf':
  'Na' pseudopotential, 'PBE' functional
  Generated using ONCVPSP code by D. R. Hamann
  Author: Martin Schlipf and Francois Gygi  Date: 150915.
  9 valence electrons, 3 orbitals, 4 projectors, 1992 radial grid points, with lMax = 1
  Transforming local potential to a uniform radial grid of dG=0.02 with 1476 points.
  Transforming nonlocal projectors to a uniform radial grid of dG=0.02 with 432 points.
    2S    l: 0   occupation:  2.0   eigenvalue: -2.085640
    2P    l: 1   occupation:  6.0   eigenvalue: -1.053708
    3S    l: 0   occupation:  1.0   eigenvalue: -0.100838
  Transforming atomic orbitals to a uniform radial grid of dG=0.02 with 432 points.
  Core radius for overlap checks: 2.01 bohrs.
  Reading pulay file /home/gridsan/aligho/DFT/build-Nov24/pseudopotentials/SG15/Na_ONCV_PBE.pulay ... using dE_dnG = -2.946487e-03 computed for Ecut = 20.

Initialized 1 species with 1 total atoms.

Folded 1 k-points by 12x12x1 to 144 k-points.

---------- Setting up k-points, bands, fillings ----------
Reduced to 19 k-points under symmetry. 
Computing the number of bands and number of electrons
Calculating initial fillings.
nElectrons:   9.000000   nBands: 6   nStates: 19

----- Setting up reduced wavefunction bases (one per k-point) -----
average nbasis = 10956.438 , ideal nbasis = 10955.522

---------- Setting up coulomb interaction ----------
Initialized slab truncation along lattice direction 001

---------- Setting up 2D ewald sum ----------
Optimum gaussian width for ewald sums = 4.776608 bohr.
Real space sums over 289 unit cells with max indices [  8  8  0  ]
Reciprocal space sums over 81 terms with max indices [  4  4  0  ]

---------- Allocating electronic variables ----------
Initializing wave functions:  linear combination of atomic orbitals
Note: number of bands (6) exceeds available atomic orbitals (5)
Na pseudo-atom occupations:   s ( 2 1 )  p ( 6 )
	FillingsUpdate:  mu: -0.108212795  nElectrons: 9.000000
LCAOMinimize: Iter:   0  F: -42.5767034606159882  |grad|_K:  2.003e-05  alpha:  1.000e+00
	FillingsUpdate:  mu: -0.108214058  nElectrons: 9.000000
LCAOMinimize: Iter:   1  F: -42.5767035970342462  |grad|_K:  1.887e-07  alpha:  9.944e-01  linmin: -5.714e-03  cgtest:  2.376e-01  t[s]:      2.26
LCAOMinimize: Encountered beta<0, resetting CG.
	FillingsUpdate:  mu: -0.108214128  nElectrons: 9.000000
LCAOMinimize: Iter:   2  F: -42.5767035970463823  |grad|_K:  1.674e-09  alpha:  9.982e-01  linmin:  3.178e-03  cgtest: -9.839e-03  t[s]:      2.84
LCAOMinimize: Converged (|Delta F|<1.000000e-06 for 2 iters).


---- Citations for features of the code used in this run ----

   Software package:
      R. Sundararaman, K. Letchworth-Weaver, K.A. Schwarz, D. Gunceler, Y. Ozhabes and T.A. Arias, 'JDFTx: software for joint density-functional theory', SoftwareX 6, 278 (2017)

   gga-PBE exchange-correlation functional:
      J.P. Perdew, K. Burke and M. Ernzerhof, Phys. Rev. Lett. 77, 3865 (1996)

   Pseudopotentials:
      M Schlipf and F Gygi, Comput. Phys. Commun. 196, 36 (2015)

   Truncated Coulomb potentials:
      R. Sundararaman and T.A. Arias, Phys. Rev. B 87, 165122 (2013)

This list may not be complete. Please suggest additional citations or
report any other bugs at https://github.com/shankar1729/jdftx/issues

Initialization completed successfully at t[s]:      2.88


-------- Electronic minimization -----------
Will mix electronic density at each iteration.
	FillingsUpdate:  mu: -0.108214128  nElectrons: 9.000000
	FillingsUpdate:  mu: -0.118277288  nElectrons: 9.000000
SCF: Cycle:  0   F: -42.582247390319104   dF: -5.544e-03   |Residual|: 8.352e-03   |deigs|: 1.737e-01  t[s]:      3.87
	FillingsUpdate:  mu: -0.118505464  nElectrons: 9.000000
SCF: Cycle:  1   F: -42.582364763669759   dF: -1.174e-04   |Residual|: 5.992e-03   |deigs|: 1.205e-02  t[s]:      4.60
[d-16-12-2:48873] 18 more processes have sent help message help-mpi-common-cuda.txt / dlopen failed
[d-16-12-2:48873] Set MCA parameter "orte_base_help_aggregate" to 0 to see all help / error messages
[d-16-12-2:48873] 18 more processes have sent help message help-mpi-btl-openib-cpc-base.txt / no cpcs for port
	FillingsUpdate:  mu: -0.117786201  nElectrons: 9.000000
SCF: Cycle:  2   F: -42.582410920536120   dF: -4.616e-05   |Residual|: 2.308e-03   |deigs|: 6.947e-03  t[s]:      5.33
	FillingsUpdate:  mu: -0.116658647  nElectrons: 9.000000
SCF: Cycle:  3   F: -42.582420951118884   dF: -1.003e-05   |Residual|: 1.182e-03   |deigs|: 1.364e-03  t[s]:      6.06
	FillingsUpdate:  mu: -0.116122080  nElectrons: 9.000000
SCF: Cycle:  4   F: -42.582422537545227   dF: -1.586e-06   |Residual|: 1.004e-03   |deigs|: 4.348e-03  t[s]:      6.76
	FillingsUpdate:  mu: -0.113944083  nElectrons: 9.000000
SCF: Cycle:  5   F: -42.582423856108946   dF: -1.319e-06   |Residual|: 6.021e-04   |deigs|: 3.303e-03  t[s]:      7.51
	FillingsUpdate:  mu: -0.113125594  nElectrons: 9.000000
SCF: Cycle:  6   F: -42.582427546451392   dF: -3.690e-06   |Residual|: 5.366e-04   |deigs|: 1.568e-03  t[s]:      8.27
	FillingsUpdate:  mu: -0.112583660  nElectrons: 9.000000
SCF: Cycle:  7   F: -42.582427558357786   dF: -1.191e-08   |Residual|: 5.290e-04   |deigs|: 5.832e-04  t[s]:      9.02
	FillingsUpdate:  mu: -0.111786527  nElectrons: 9.000000
SCF: Cycle:  8   F: -42.582424397597329   dF: +3.161e-06   |Residual|: 3.560e-04   |deigs|: 9.501e-04  t[s]:      9.82
	FillingsUpdate:  mu: -0.110464322  nElectrons: 9.000000
SCF: Cycle:  9   F: -42.582426377547662   dF: -1.980e-06   |Residual|: 3.950e-04   |deigs|: 1.226e-03  t[s]:     10.60
	FillingsUpdate:  mu: -0.110599927  nElectrons: 9.000000
SCF: Cycle: 10   F: -42.582429034884584   dF: -2.657e-06   |Residual|: 5.384e-04   |deigs|: 4.507e-04  t[s]:     11.43
	FillingsUpdate:  mu: -0.108950362  nElectrons: 9.000000
SCF: Cycle: 11   F: -42.582430290687178   dF: -1.256e-06   |Residual|: 2.930e-04   |deigs|: 1.729e-03  t[s]:     12.23
	FillingsUpdate:  mu: -0.109218679  nElectrons: 9.000000
SCF: Cycle: 12   F: -42.582430760450286   dF: -4.698e-07   |Residual|: 2.247e-04   |deigs|: 6.090e-04  t[s]:     13.02
	FillingsUpdate:  mu: -0.107824087  nElectrons: 9.000000
SCF: Cycle: 13   F: -42.582431089448640   dF: -3.290e-07   |Residual|: 9.833e-05   |deigs|: 1.614e-03  t[s]:     13.79
	FillingsUpdate:  mu: -0.108180824  nElectrons: 9.000000
SCF: Cycle: 14   F: -42.582431116685129   dF: -2.724e-08   |Residual|: 6.689e-05   |deigs|: 4.343e-04  t[s]:     14.58
	FillingsUpdate:  mu: -0.107852150  nElectrons: 9.000000
SCF: Cycle: 15   F: -42.582431141888733   dF: -2.520e-08   |Residual|: 1.664e-05   |deigs|: 3.897e-04  t[s]:     15.37
	FillingsUpdate:  mu: -0.107840682  nElectrons: 9.000000
SCF: Cycle: 16   F: -42.582431144048059   dF: -2.159e-09   |Residual|: 6.996e-06   |deigs|: 1.488e-05  t[s]:     16.14
	FillingsUpdate:  mu: -0.107844510  nElectrons: 9.000000
SCF: Cycle: 17   F: -42.582431144430096   dF: -3.820e-10   |Residual|: 4.209e-06   |deigs|: 7.036e-06  t[s]:     16.91
SCF: Converged (|Delta E|<1.000000e-08 for 2 iters).


# Ionic positions in lattice coordinates:
ion Na   0.000000000000000   0.000000000000000   0.000000000000000 0

# Forces in Lattice coordinates:
force Na  -0.000000000000000   0.000000000000000   0.000000000000000 0

# Energy components:
   Eewald =      -19.8329957146512790
       EH =       13.9924151779350190
     Eloc =      -39.2244598035341383
      Enl =      -12.9147420994722442
   Epulay =        0.0000010519577204
      Exc =       -6.2236150243814166
       KE =       21.6277572049675300
-------------------------------------
     Etot =      -42.5756392071788028
       TS =        0.0067919372512945
-------------------------------------
        F =      -42.5824311444300960

IonicMinimize: Iter:   0  F: -42.582431144430096  |grad|_K:  0.000e+00  t[s]:     16.96
IonicMinimize: Converged (|grad|_K<1.000000e-04).

#--- Lowdin population analysis ---
# oxidation-state Na +0.054

End date and time: Sun Jan 16 15:02:42 2022  (Duration: 0-0:00:16.97)
Done!
