The alkali metal is Na
scale=2
magnetization=0.4
--------------------------------------------------------------------------
The library attempted to open the following supporting CUDA libraries,
but each of them failed.  CUDA-aware support is disabled.
libcuda.so.1: cannot open shared object file: No such file or directory
libcuda.dylib: cannot open shared object file: No such file or directory
/usr/lib64/libcuda.so.1: cannot open shared object file: No such file or directory
/usr/lib64/libcuda.dylib: cannot open shared object file: No such file or directory
If you are not interested in CUDA-aware support, then run with
--mca opal_warn_on_missing_libcuda 0 to suppress this message.  If you are interested
in CUDA-aware support, then try setting LD_LIBRARY_PATH to the location
of libcuda.so.1 to get passed this issue.
--------------------------------------------------------------------------
--------------------------------------------------------------------------
No OpenFabrics connection schemes reported that they were able to be
used on a specific port.  As such, the openib BTL (OpenFabrics
support) will be disabled for this port.

  Local host:           d-6-10-3
  Local device:         mlx5_1
  Local port:           1
  CPCs attempted:       rdmacm, udcm
--------------------------------------------------------------------------

*************** JDFTx 1.6.0 (git hash 42ebbcc2) ***************

Start date and time: Sat Feb  5 22:32:15 2022
Executable jdftx with command-line: -i Alkali.in
Running on hosts (process indices):  d-6-10-3 (0-18)
Divided in process groups (process indices):  0 (0)  1 (1)  2 (2)  3 (3)  4 (4)  5 (5)  6 (6)  7 (7)  8 (8)  9 (9)  10 (10)  11 (11)  12 (12)  13 (13)  14 (14)  15 (15)  16 (16)  17 (17)  18 (18)
Resource initialization completed at t[s]:      0.00
Run totals: 19 processes, 48 threads, 0 GPUs


Input parsed successfully to the following command list (including defaults):

basis kpoint-dependent
coords-type Lattice
core-overlap-check vector
coulomb-interaction Slab 001
davidson-band-ratio 1.1
dump End None
dump-name $INPUT.$VAR
elec-cutoff 20
elec-eigen-algo Davidson
elec-ex-corr gga-PBE
elec-initial-magnetization 0.400000 yes
elec-smearing Fermi 1e-05
electronic-minimize  \
	dirUpdateScheme      FletcherReeves \
	linminMethod         DirUpdateRecommended \
	nIterations          100 \
	history              15 \
	knormThreshold       0 \
	energyDiffThreshold  1e-08 \
	nEnergyDiff          2 \
	alphaTstart          1 \
	alphaTmin            1e-10 \
	updateTestStepSize   yes \
	alphaTreduceFactor   0.1 \
	alphaTincreaseFactor 3 \
	nAlphaAdjustMax      3 \
	wolfeEnergy          0.0001 \
	wolfeGradient        0.9 \
	fdTest               no
electronic-scf  \
	nIterations	10000 \
	energyDiffThreshold	1e-08 \
	residualThreshold	1e-07 \
	mixFraction	0.5 \
	qMetric	0.8 \
	history	10 \
	nEigSteps	2 \
	eigDiffThreshold	1e-08 \
	mixedVariable	Density \
	qKerker	0.8 \
	qKappa	-1 \
	verbose	no \
	mixFractionMag	1.5
exchange-regularization WignerSeitzTruncated
fluid None
fluid-ex-corr (null) lda-PZ
fluid-gummel-loop 10 1.000000e-05
fluid-minimize  \
	dirUpdateScheme      PolakRibiere \
	linminMethod         DirUpdateRecommended \
	nIterations          100 \
	history              15 \
	knormThreshold       0 \
	energyDiffThreshold  0 \
	nEnergyDiff          2 \
	alphaTstart          1 \
	alphaTmin            1e-10 \
	updateTestStepSize   yes \
	alphaTreduceFactor   0.1 \
	alphaTincreaseFactor 3 \
	nAlphaAdjustMax      3 \
	wolfeEnergy          0.0001 \
	wolfeGradient        0.9 \
	fdTest               no
fluid-solvent H2O 55.338 ScalarEOS \
	epsBulk 78.4 \
	pMol 0.92466 \
	epsInf 1.77 \
	Pvap 1.06736e-10 \
	sigmaBulk 4.62e-05 \
	Rvdw 2.61727 \
	Res 1.42 \
	tauNuc 343133 \
	poleEl 15 7 1
forces-output-coords Positions
ion Na   0.000000000000000   0.000000000000000   0.000000000000000 0
ion-species SG15/$ID_ONCV_PBE.upf
ion-width 0
ionic-minimize  \
	dirUpdateScheme      L-BFGS \
	linminMethod         DirUpdateRecommended \
	nIterations          0 \
	history              15 \
	knormThreshold       0.0001 \
	energyDiffThreshold  1e-06 \
	nEnergyDiff          2 \
	alphaTstart          1 \
	alphaTmin            1e-10 \
	updateTestStepSize   yes \
	alphaTreduceFactor   0.1 \
	alphaTincreaseFactor 3 \
	nAlphaAdjustMax      3 \
	wolfeEnergy          0.0001 \
	wolfeGradient        0.9 \
	fdTest               no
kpoint   0.000000000000   0.000000000000   0.000000000000  1.00000000000000
kpoint-folding 12 12 1 
latt-move-scale 1 1 1
latt-scale 2 2 1 
lattice  \
	   4.727486978767153   -2.363743489383575    0.000000000000000  \
	  -0.000000000000000    4.094123819672498    0.000000000000000  \
	   0.000000000000000    0.000000000000000   40.000000000000000 
lattice-minimize  \
	dirUpdateScheme      L-BFGS \
	linminMethod         DirUpdateRecommended \
	nIterations          0 \
	history              15 \
	knormThreshold       0 \
	energyDiffThreshold  1e-06 \
	nEnergyDiff          2 \
	alphaTstart          1 \
	alphaTmin            1e-10 \
	updateTestStepSize   yes \
	alphaTreduceFactor   0.1 \
	alphaTincreaseFactor 3 \
	nAlphaAdjustMax      3 \
	wolfeEnergy          0.0001 \
	wolfeGradient        0.9 \
	fdTest               no
lcao-params -1 1e-06 1e-05
pcm-variant GLSSA13
spintype z-spin
subspace-rotation-factor 1 yes
symmetries automatic
symmetry-threshold 0.0001



---------- Setting up symmetries ----------

Found 24 point-group symmetries of the bravais lattice
Found 24 space-group symmetries with basis
Applied RMS atom displacement 0 bohrs to make symmetries exact.

---------- Initializing the Grid ----------
R = 
[      9.45497     -4.72749            0  ]
[            0      8.18825            0  ]
[            0            0           40  ]
unit cell volume = 3096.79
G =
[   0.664538   0.383671         -0  ]
[          0   0.767342         -0  ]
[         -0         -0    0.15708  ]
Minimum fftbox size, Smin = [  40  40  164  ]
Chosen fftbox size, S = [  40  40  168  ]

---------- Exchange Correlation functional ----------
Initalized PBE GGA exchange.
Initalized PBE GGA correlation.

---------- Setting up pseudopotentials ----------
Width of ionic core gaussian charges (only for fluid interactions / plotting) set to 0

Reading pseudopotential file '/home/gridsan/aligho/DFT/build-Nov24/pseudopotentials/SG15/Na_ONCV_PBE.upf':
  'Na' pseudopotential, 'PBE' functional
  Generated using ONCVPSP code by D. R. Hamann
  Author: Martin Schlipf and Francois Gygi  Date: 150915.
  9 valence electrons, 3 orbitals, 4 projectors, 1992 radial grid points, with lMax = 1
  Transforming local potential to a uniform radial grid of dG=0.02 with 1489 points.
  Transforming nonlocal projectors to a uniform radial grid of dG=0.02 with 432 points.
    2S    l: 0   occupation:  2.0   eigenvalue: -2.085640
    2P    l: 1   occupation:  6.0   eigenvalue: -1.053708
    3S    l: 0   occupation:  1.0   eigenvalue: -0.100838
  Transforming atomic orbitals to a uniform radial grid of dG=0.02 with 432 points.
  Core radius for overlap checks: 2.01 bohrs.
  Reading pulay file /home/gridsan/aligho/DFT/build-Nov24/pseudopotentials/SG15/Na_ONCV_PBE.pulay ... using dE_dnG = -2.946487e-03 computed for Ecut = 20.

Initialized 1 species with 1 total atoms.

Folded 1 k-points by 12x12x1 to 144 k-points.

---------- Setting up k-points, bands, fillings ----------
Reduced to 19 k-points under symmetry. 
Computing the number of bands and number of electrons
Calculating initial fillings.
nElectrons:   9.000000   nBands: 6   nStates: 38

----- Setting up reduced wavefunction bases (one per k-point) -----
average nbasis = 13230.521 , ideal nbasis = 13229.709

---------- Setting up coulomb interaction ----------
Initialized slab truncation along lattice direction 001

---------- Setting up 2D ewald sum ----------
Optimum gaussian width for ewald sums = 5.249020 bohr.
Real space sums over 289 unit cells with max indices [  8  8  0  ]
Reciprocal space sums over 81 terms with max indices [  4  4  0  ]

---------- Allocating electronic variables ----------
Initializing wave functions:  linear combination of atomic orbitals
Note: number of bands (6) exceeds available atomic orbitals (5)
Na pseudo-atom occupations:   s ( 2 1 )  p ( 6 )
	FillingsUpdate:  mu: -0.103891579  nElectrons: 9.000000  magneticMoment: [ Abs: 0.40000  Tot: +0.40000 ]
LCAOMinimize: Iter:   0  F: -42.5662965112200311  |grad|_K:  2.920e-05  alpha:  1.000e+00
	FillingsUpdate:  mu: -0.103889724  nElectrons: 9.000000  magneticMoment: [ Abs: 0.40000  Tot: +0.40000 ]
LCAOMinimize: Iter:   1  F: -42.5662970886283105  |grad|_K:  2.664e-07  alpha:  9.901e-01  linmin: -1.920e-02  cgtest:  6.632e-01  t[s]:      4.47
LCAOMinimize: Encountered beta<0, resetting CG.
[d-6-10-3:40184] 18 more processes have sent help message help-mpi-common-cuda.txt / dlopen failed
[d-6-10-3:40184] Set MCA parameter "orte_base_help_aggregate" to 0 to see all help / error messages
[d-6-10-3:40184] 18 more processes have sent help message help-mpi-btl-openib-cpc-base.txt / no cpcs for port
	FillingsUpdate:  mu: -0.103889761  nElectrons: 9.000000  magneticMoment: [ Abs: 0.40000  Tot: +0.40000 ]
LCAOMinimize: Iter:   2  F: -42.5662970886764001  |grad|_K:  1.198e-09  alpha:  9.978e-01  linmin: -5.060e-02  cgtest:  8.409e-01  t[s]:      5.64
LCAOMinimize: Encountered beta<0, resetting CG.
LCAOMinimize: Converged (|Delta F|<1.000000e-06 for 2 iters).


---- Citations for features of the code used in this run ----

   Software package:
      R. Sundararaman, K. Letchworth-Weaver, K.A. Schwarz, D. Gunceler, Y. Ozhabes and T.A. Arias, 'JDFTx: software for joint density-functional theory', SoftwareX 6, 278 (2017)

   gga-PBE exchange-correlation functional:
      J.P. Perdew, K. Burke and M. Ernzerhof, Phys. Rev. Lett. 77, 3865 (1996)

   Pseudopotentials:
      M Schlipf and F Gygi, Comput. Phys. Commun. 196, 36 (2015)

   Truncated Coulomb potentials:
      R. Sundararaman and T.A. Arias, Phys. Rev. B 87, 165122 (2013)

This list may not be complete. Please suggest additional citations or
report any other bugs at https://github.com/shankar1729/jdftx/issues

Initialization completed successfully at t[s]:      5.71


-------- Electronic minimization -----------
Will mix electronic density at each iteration.
	FillingsUpdate:  mu: -0.103889761  nElectrons: 9.000000  magneticMoment: [ Abs: 0.40000  Tot: +0.40000 ]
	FillingsUpdate:  mu: -0.111011614  nElectrons: 9.000000  magneticMoment: [ Abs: 0.40000  Tot: +0.40000 ]
SCF: Cycle:  0   F: -42.570980355418385   dF: -4.683e-03   |Residual|: 8.937e-03   |deigs|: 1.705e-01  t[s]:      7.95
	FillingsUpdate:  mu: -0.111044586  nElectrons: 9.000000  magneticMoment: [ Abs: 0.40000  Tot: +0.40000 ]
SCF: Cycle:  1   F: -42.571084683413169   dF: -1.043e-04   |Residual|: 6.041e-03   |deigs|: 8.824e-03  t[s]:      9.59
	FillingsUpdate:  mu: -0.110857320  nElectrons: 9.000000  magneticMoment: [ Abs: 0.40130  Tot: +0.40000 ]
SCF: Cycle:  2   F: -42.571101905351313   dF: -1.722e-05   |Residual|: 3.412e-03   |deigs|: 5.739e-03  t[s]:     11.28
	FillingsUpdate:  mu: -0.110688497  nElectrons: 9.000000  magneticMoment: [ Abs: 0.40003  Tot: +0.40000 ]
SCF: Cycle:  3   F: -42.571106390837635   dF: -4.485e-06   |Residual|: 1.974e-03   |deigs|: 6.198e-03  t[s]:     13.00
	FillingsUpdate:  mu: -0.110300670  nElectrons: 9.000000  magneticMoment: [ Abs: 0.40006  Tot: +0.40000 ]
SCF: Cycle:  4   F: -42.571118070879130   dF: -1.168e-05   |Residual|: 9.245e-04   |deigs|: 3.048e-03  t[s]:     14.76
	FillingsUpdate:  mu: -0.109972622  nElectrons: 9.000000  magneticMoment: [ Abs: 0.40016  Tot: +0.40000 ]
SCF: Cycle:  5   F: -42.571119560624354   dF: -1.490e-06   |Residual|: 7.523e-04   |deigs|: 1.889e-03  t[s]:     16.54
	FillingsUpdate:  mu: -0.109268080  nElectrons: 9.000000  magneticMoment: [ Abs: 0.40089  Tot: +0.40000 ]
SCF: Cycle:  6   F: -42.571119964286261   dF: -4.037e-07   |Residual|: 5.620e-04   |deigs|: 1.188e-03  t[s]:     18.33
	FillingsUpdate:  mu: -0.108453820  nElectrons: 9.000000  magneticMoment: [ Abs: 0.40211  Tot: +0.40000 ]
SCF: Cycle:  7   F: -42.571119213348382   dF: +7.509e-07   |Residual|: 4.110e-04   |deigs|: 1.106e-03  t[s]:     20.16
	FillingsUpdate:  mu: -0.107779004  nElectrons: 9.000000  magneticMoment: [ Abs: 0.40155  Tot: +0.40000 ]
SCF: Cycle:  8   F: -42.571118910694281   dF: +3.027e-07   |Residual|: 3.502e-04   |deigs|: 9.041e-04  t[s]:     22.01
	FillingsUpdate:  mu: -0.107484527  nElectrons: 9.000000  magneticMoment: [ Abs: 0.40066  Tot: +0.40000 ]
SCF: Cycle:  9   F: -42.571120454866289   dF: -1.544e-06   |Residual|: 2.933e-04   |deigs|: 3.702e-04  t[s]:     23.91
	FillingsUpdate:  mu: -0.107329157  nElectrons: 9.000000  magneticMoment: [ Abs: 0.40119  Tot: +0.40000 ]
SCF: Cycle: 10   F: -42.571121640085622   dF: -1.185e-06   |Residual|: 2.311e-04   |deigs|: 2.374e-04  t[s]:     25.81
	FillingsUpdate:  mu: -0.106807021  nElectrons: 9.000000  magneticMoment: [ Abs: 0.40132  Tot: +0.40000 ]
SCF: Cycle: 11   F: -42.571120588023305   dF: +1.052e-06   |Residual|: 2.133e-04   |deigs|: 8.948e-04  t[s]:     27.65
	FillingsUpdate:  mu: -0.106162254  nElectrons: 9.000000  magneticMoment: [ Abs: 0.40076  Tot: +0.40000 ]
SCF: Cycle: 12   F: -42.571120018640585   dF: +5.694e-07   |Residual|: 1.962e-04   |deigs|: 6.803e-04  t[s]:     29.54
	FillingsUpdate:  mu: -0.105757380  nElectrons: 9.000000  magneticMoment: [ Abs: 0.40135  Tot: +0.40000 ]
SCF: Cycle: 13   F: -42.571121337706245   dF: -1.319e-06   |Residual|: 1.720e-04   |deigs|: 3.873e-04  t[s]:     31.44
	FillingsUpdate:  mu: -0.105500963  nElectrons: 9.000000  magneticMoment: [ Abs: 0.40105  Tot: +0.40000 ]
SCF: Cycle: 14   F: -42.571122250759103   dF: -9.131e-07   |Residual|: 1.611e-04   |deigs|: 2.733e-04  t[s]:     33.32
	FillingsUpdate:  mu: -0.104909668  nElectrons: 9.000000  magneticMoment: [ Abs: 0.40064  Tot: +0.40000 ]
SCF: Cycle: 15   F: -42.571122635722986   dF: -3.850e-07   |Residual|: 1.515e-04   |deigs|: 6.471e-04  t[s]:     35.17
	FillingsUpdate:  mu: -0.104448918  nElectrons: 9.000000  magneticMoment: [ Abs: 0.40032  Tot: +0.40000 ]
SCF: Cycle: 16   F: -42.571123071270932   dF: -4.355e-07   |Residual|: 1.123e-04   |deigs|: 4.573e-04  t[s]:     37.05
	FillingsUpdate:  mu: -0.104186276  nElectrons: 9.000000  magneticMoment: [ Abs: 0.40035  Tot: +0.40000 ]
SCF: Cycle: 17   F: -42.571123241916943   dF: -1.706e-07   |Residual|: 7.022e-05   |deigs|: 2.369e-04  t[s]:     38.92
	FillingsUpdate:  mu: -0.104109214  nElectrons: 9.000000  magneticMoment: [ Abs: 0.40022  Tot: +0.40000 ]
SCF: Cycle: 18   F: -42.571123278014106   dF: -3.610e-08   |Residual|: 5.615e-05   |deigs|: 1.553e-04  t[s]:     40.72
	FillingsUpdate:  mu: -0.104037852  nElectrons: 9.000000  magneticMoment: [ Abs: 0.40028  Tot: +0.40000 ]
SCF: Cycle: 19   F: -42.571123308379725   dF: -3.037e-08   |Residual|: 2.449e-05   |deigs|: 1.090e-04  t[s]:     42.58
	FillingsUpdate:  mu: -0.104020251  nElectrons: 9.000000  magneticMoment: [ Abs: 0.40026  Tot: +0.40000 ]
SCF: Cycle: 20   F: -42.571123316233013   dF: -7.853e-09   |Residual|: 1.237e-05   |deigs|: 6.993e-05  t[s]:     44.40
	FillingsUpdate:  mu: -0.104017846  nElectrons: 9.000000  magneticMoment: [ Abs: 0.40019  Tot: +0.40000 ]
SCF: Cycle: 21   F: -42.571123317193184   dF: -9.602e-10   |Residual|: 8.478e-06   |deigs|: 9.195e-04  t[s]:     46.26
SCF: Converged (|Delta E|<1.000000e-08 for 2 iters).


# Ionic positions in lattice coordinates:
ion Na   0.000000000000000   0.000000000000000   0.000000000000000 0

# Forces in Lattice coordinates:
force Na  -0.000000000000000   0.000000000000000   0.000000000000000 0

# Energy components:
   Eewald =      -18.0480261003326561
       EH =       15.7289951232724796
     Eloc =      -42.7407785250244601
      Enl =      -12.9135127980962494
   Epulay =        0.0000007725295140
      Exc =       -6.2174318106447508
       KE =       21.6196306120174171
-------------------------------------
     Etot =      -42.5711227262787020
       TS =        0.0000005909144853
-------------------------------------
        F =      -42.5711233171931838

IonicMinimize: Iter:   0  F: -42.571123317193184  |grad|_K:  0.000e+00  t[s]:     46.36
IonicMinimize: Converged (|grad|_K<1.000000e-04).

#--- Lowdin population analysis ---
# oxidation-state Na +0.051
# magnetic-moments Na +0.357

End date and time: Sat Feb  5 22:33:02 2022  (Duration: 0-0:00:46.38)
Done!
scale=3
magnetization=0.4
--------------------------------------------------------------------------
The library attempted to open the following supporting CUDA libraries,
but each of them failed.  CUDA-aware support is disabled.
libcuda.so.1: cannot open shared object file: No such file or directory
libcuda.dylib: cannot open shared object file: No such file or directory
/usr/lib64/libcuda.so.1: cannot open shared object file: No such file or directory
/usr/lib64/libcuda.dylib: cannot open shared object file: No such file or directory
If you are not interested in CUDA-aware support, then run with
--mca opal_warn_on_missing_libcuda 0 to suppress this message.  If you are interested
in CUDA-aware support, then try setting LD_LIBRARY_PATH to the location
of libcuda.so.1 to get passed this issue.
--------------------------------------------------------------------------
--------------------------------------------------------------------------
No OpenFabrics connection schemes reported that they were able to be
used on a specific port.  As such, the openib BTL (OpenFabrics
support) will be disabled for this port.

  Local host:           d-6-10-3
  Local device:         mlx5_1
  Local port:           1
  CPCs attempted:       rdmacm, udcm
--------------------------------------------------------------------------

*************** JDFTx 1.6.0 (git hash 42ebbcc2) ***************

Start date and time: Sat Feb  5 22:33:03 2022
Executable jdftx with command-line: -i Alkali.in
Running on hosts (process indices):  d-6-10-3 (0-18)
Divided in process groups (process indices):  0 (0)  1 (1)  2 (2)  3 (3)  4 (4)  5 (5)  6 (6)  7 (7)  8 (8)  9 (9)  10 (10)  11 (11)  12 (12)  13 (13)  14 (14)  15 (15)  16 (16)  17 (17)  18 (18)
Resource initialization completed at t[s]:      0.00
Run totals: 19 processes, 48 threads, 0 GPUs


Input parsed successfully to the following command list (including defaults):

basis kpoint-dependent
coords-type Lattice
core-overlap-check vector
coulomb-interaction Slab 001
davidson-band-ratio 1.1
dump End None
dump-name $INPUT.$VAR
elec-cutoff 20
elec-eigen-algo Davidson
elec-ex-corr gga-PBE
elec-initial-magnetization 0.400000 yes
elec-smearing Fermi 1e-05
electronic-minimize  \
	dirUpdateScheme      FletcherReeves \
	linminMethod         DirUpdateRecommended \
	nIterations          100 \
	history              15 \
	knormThreshold       0 \
	energyDiffThreshold  1e-08 \
	nEnergyDiff          2 \
	alphaTstart          1 \
	alphaTmin            1e-10 \
	updateTestStepSize   yes \
	alphaTreduceFactor   0.1 \
	alphaTincreaseFactor 3 \
	nAlphaAdjustMax      3 \
	wolfeEnergy          0.0001 \
	wolfeGradient        0.9 \
	fdTest               no
electronic-scf  \
	nIterations	10000 \
	energyDiffThreshold	1e-08 \
	residualThreshold	1e-07 \
	mixFraction	0.5 \
	qMetric	0.8 \
	history	10 \
	nEigSteps	2 \
	eigDiffThreshold	1e-08 \
	mixedVariable	Density \
	qKerker	0.8 \
	qKappa	-1 \
	verbose	no \
	mixFractionMag	1.5
exchange-regularization WignerSeitzTruncated
fluid None
fluid-ex-corr (null) lda-PZ
fluid-gummel-loop 10 1.000000e-05
fluid-minimize  \
	dirUpdateScheme      PolakRibiere \
	linminMethod         DirUpdateRecommended \
	nIterations          100 \
	history              15 \
	knormThreshold       0 \
	energyDiffThreshold  0 \
	nEnergyDiff          2 \
	alphaTstart          1 \
	alphaTmin            1e-10 \
	updateTestStepSize   yes \
	alphaTreduceFactor   0.1 \
	alphaTincreaseFactor 3 \
	nAlphaAdjustMax      3 \
	wolfeEnergy          0.0001 \
	wolfeGradient        0.9 \
	fdTest               no
fluid-solvent H2O 55.338 ScalarEOS \
	epsBulk 78.4 \
	pMol 0.92466 \
	epsInf 1.77 \
	Pvap 1.06736e-10 \
	sigmaBulk 4.62e-05 \
	Rvdw 2.61727 \
	Res 1.42 \
	tauNuc 343133 \
	poleEl 15 7 1
forces-output-coords Positions
ion Na   0.000000000000000   0.000000000000000   0.000000000000000 0
ion-species SG15/$ID_ONCV_PBE.upf
ion-width 0
ionic-minimize  \
	dirUpdateScheme      L-BFGS \
	linminMethod         DirUpdateRecommended \
	nIterations          0 \
	history              15 \
	knormThreshold       0.0001 \
	energyDiffThreshold  1e-06 \
	nEnergyDiff          2 \
	alphaTstart          1 \
	alphaTmin            1e-10 \
	updateTestStepSize   yes \
	alphaTreduceFactor   0.1 \
	alphaTincreaseFactor 3 \
	nAlphaAdjustMax      3 \
	wolfeEnergy          0.0001 \
	wolfeGradient        0.9 \
	fdTest               no
kpoint   0.000000000000   0.000000000000   0.000000000000  1.00000000000000
kpoint-folding 12 12 1 
latt-move-scale 1 1 1
latt-scale 3 3 1 
lattice  \
	   4.727486978767153   -2.363743489383575    0.000000000000000  \
	  -0.000000000000000    4.094123819672498    0.000000000000000  \
	   0.000000000000000    0.000000000000000   40.000000000000000 
lattice-minimize  \
	dirUpdateScheme      L-BFGS \
	linminMethod         DirUpdateRecommended \
	nIterations          0 \
	history              15 \
	knormThreshold       0 \
	energyDiffThreshold  1e-06 \
	nEnergyDiff          2 \
	alphaTstart          1 \
	alphaTmin            1e-10 \
	updateTestStepSize   yes \
	alphaTreduceFactor   0.1 \
	alphaTincreaseFactor 3 \
	nAlphaAdjustMax      3 \
	wolfeEnergy          0.0001 \
	wolfeGradient        0.9 \
	fdTest               no
lcao-params -1 1e-06 1e-05
pcm-variant GLSSA13
spintype z-spin
subspace-rotation-factor 1 yes
symmetries automatic
symmetry-threshold 0.0001



---------- Setting up symmetries ----------

Found 24 point-group symmetries of the bravais lattice
Found 24 space-group symmetries with basis
Applied RMS atom displacement 0 bohrs to make symmetries exact.

---------- Initializing the Grid ----------
R = 
[      14.1825     -7.09123            0  ]
[            0      12.2824            0  ]
[            0            0           40  ]
unit cell volume = 6967.77
G =
[   0.443025   0.255781         -0  ]
[          0   0.511561         -0  ]
[         -0         -0    0.15708  ]
Minimum fftbox size, Smin = [  60  60  164  ]
Chosen fftbox size, S = [  60  60  168  ]

---------- Exchange Correlation functional ----------
Initalized PBE GGA exchange.
Initalized PBE GGA correlation.

---------- Setting up pseudopotentials ----------
Width of ionic core gaussian charges (only for fluid interactions / plotting) set to 0

Reading pseudopotential file '/home/gridsan/aligho/DFT/build-Nov24/pseudopotentials/SG15/Na_ONCV_PBE.upf':
  'Na' pseudopotential, 'PBE' functional
  Generated using ONCVPSP code by D. R. Hamann
  Author: Martin Schlipf and Francois Gygi  Date: 150915.
  9 valence electrons, 3 orbitals, 4 projectors, 1992 radial grid points, with lMax = 1
  Transforming local potential to a uniform radial grid of dG=0.02 with 1489 points.
  Transforming nonlocal projectors to a uniform radial grid of dG=0.02 with 432 points.
    2S    l: 0   occupation:  2.0   eigenvalue: -2.085640
    2P    l: 1   occupation:  6.0   eigenvalue: -1.053708
    3S    l: 0   occupation:  1.0   eigenvalue: -0.100838
  Transforming atomic orbitals to a uniform radial grid of dG=0.02 with 432 points.
  Core radius for overlap checks: 2.01 bohrs.
  Reading pulay file /home/gridsan/aligho/DFT/build-Nov24/pseudopotentials/SG15/Na_ONCV_PBE.pulay ... using dE_dnG = -2.946487e-03 computed for Ecut = 20.

Initialized 1 species with 1 total atoms.

Folded 1 k-points by 12x12x1 to 144 k-points.

---------- Setting up k-points, bands, fillings ----------
Reduced to 19 k-points under symmetry. 
Computing the number of bands and number of electrons
Calculating initial fillings.
nElectrons:   9.000000   nBands: 6   nStates: 38

----- Setting up reduced wavefunction bases (one per k-point) -----
average nbasis = 29766.104 , ideal nbasis = 29766.845

---------- Setting up coulomb interaction ----------
Initialized slab truncation along lattice direction 001

---------- Setting up 2D ewald sum ----------
Optimum gaussian width for ewald sums = 7.873530 bohr.
Real space sums over 289 unit cells with max indices [  8  8  0  ]
Reciprocal space sums over 81 terms with max indices [  4  4  0  ]

---------- Allocating electronic variables ----------
Initializing wave functions:  linear combination of atomic orbitals
Note: number of bands (6) exceeds available atomic orbitals (5)
Na pseudo-atom occupations:   s ( 2 1 )  p ( 6 )
[d-6-10-3:69845] 18 more processes have sent help message help-mpi-common-cuda.txt / dlopen failed
[d-6-10-3:69845] Set MCA parameter "orte_base_help_aggregate" to 0 to see all help / error messages
[d-6-10-3:69845] 18 more processes have sent help message help-mpi-btl-openib-cpc-base.txt / no cpcs for port
	FillingsUpdate:  mu: -0.101695486  nElectrons: 9.000000  magneticMoment: [ Abs: 0.40000  Tot: +0.40000 ]
LCAOMinimize: Iter:   0  F: -42.5534132358134514  |grad|_K:  7.809e-06  alpha:  1.000e+00
	FillingsUpdate:  mu: -0.101693838  nElectrons: 9.000000  magneticMoment: [ Abs: 0.40000  Tot: +0.40000 ]
LCAOMinimize: Iter:   1  F: -42.5534132772858769  |grad|_K:  4.174e-08  alpha:  9.942e-01  linmin: -1.257e-03  cgtest:  3.538e-01  t[s]:      8.59
LCAOMinimize: Encountered beta<0, resetting CG.
	FillingsUpdate:  mu: -0.101693836  nElectrons: 9.000000  magneticMoment: [ Abs: 0.40000  Tot: +0.40000 ]
LCAOMinimize: Iter:   2  F: -42.5534132772873050  |grad|_K:  7.406e-09  alpha:  1.176e+00  linmin:  8.263e-03  cgtest: -9.996e-01  t[s]:     11.00
LCAOMinimize: Converged (|Delta F|<1.000000e-06 for 2 iters).


---- Citations for features of the code used in this run ----

   Software package:
      R. Sundararaman, K. Letchworth-Weaver, K.A. Schwarz, D. Gunceler, Y. Ozhabes and T.A. Arias, 'JDFTx: software for joint density-functional theory', SoftwareX 6, 278 (2017)

   gga-PBE exchange-correlation functional:
      J.P. Perdew, K. Burke and M. Ernzerhof, Phys. Rev. Lett. 77, 3865 (1996)

   Pseudopotentials:
      M Schlipf and F Gygi, Comput. Phys. Commun. 196, 36 (2015)

   Truncated Coulomb potentials:
      R. Sundararaman and T.A. Arias, Phys. Rev. B 87, 165122 (2013)

This list may not be complete. Please suggest additional citations or
report any other bugs at https://github.com/shankar1729/jdftx/issues

Initialization completed successfully at t[s]:     11.10


-------- Electronic minimization -----------
Will mix electronic density at each iteration.
	FillingsUpdate:  mu: -0.101693836  nElectrons: 9.000000  magneticMoment: [ Abs: 0.40000  Tot: +0.40000 ]
	FillingsUpdate:  mu: -0.102017648  nElectrons: 9.000000  magneticMoment: [ Abs: 0.40000  Tot: +0.40000 ]
SCF: Cycle:  0   F: -42.553720639131647   dF: -3.074e-04   |Residual|: 2.066e-03   |deigs|: 1.733e-01  t[s]:     15.57
	FillingsUpdate:  mu: -0.102109350  nElectrons: 9.000000  magneticMoment: [ Abs: 0.40070  Tot: +0.40000 ]
SCF: Cycle:  1   F: -42.553725746967118   dF: -5.108e-06   |Residual|: 1.118e-03   |deigs|: 5.509e-03  t[s]:     19.06
	FillingsUpdate:  mu: -0.102212129  nElectrons: 9.000000  magneticMoment: [ Abs: 0.40057  Tot: +0.40000 ]
SCF: Cycle:  2   F: -42.553727284644381   dF: -1.538e-06   |Residual|: 6.276e-04   |deigs|: 2.680e-03  t[s]:     22.60
	FillingsUpdate:  mu: -0.102307097  nElectrons: 9.000000  magneticMoment: [ Abs: 0.40076  Tot: +0.40000 ]
SCF: Cycle:  3   F: -42.553728417577055   dF: -1.133e-06   |Residual|: 4.703e-04   |deigs|: 2.114e-03  t[s]:     26.20
	FillingsUpdate:  mu: -0.102428709  nElectrons: 9.000000  magneticMoment: [ Abs: 0.40056  Tot: +0.40000 ]
SCF: Cycle:  4   F: -42.553730036385076   dF: -1.619e-06   |Residual|: 2.653e-04   |deigs|: 8.541e-04  t[s]:     29.73
	FillingsUpdate:  mu: -0.102510856  nElectrons: 9.000000  magneticMoment: [ Abs: 0.40075  Tot: +0.40000 ]
SCF: Cycle:  5   F: -42.553730841585889   dF: -8.052e-07   |Residual|: 1.478e-04   |deigs|: 3.710e-04  t[s]:     33.41
	FillingsUpdate:  mu: -0.102498038  nElectrons: 9.000000  magneticMoment: [ Abs: 0.40066  Tot: +0.40000 ]
SCF: Cycle:  6   F: -42.553731120642460   dF: -2.791e-07   |Residual|: 9.531e-05   |deigs|: 1.496e-03  t[s]:     37.17
	FillingsUpdate:  mu: -0.102476642  nElectrons: 9.000000  magneticMoment: [ Abs: 0.40073  Tot: +0.40000 ]
SCF: Cycle:  7   F: -42.553731244758062   dF: -1.241e-07   |Residual|: 6.904e-05   |deigs|: 1.027e-03  t[s]:     41.00
	FillingsUpdate:  mu: -0.102423419  nElectrons: 9.000000  magneticMoment: [ Abs: 0.40067  Tot: +0.40000 ]
SCF: Cycle:  8   F: -42.553731307987341   dF: -6.323e-08   |Residual|: 5.248e-05   |deigs|: 9.321e-04  t[s]:     44.89
	FillingsUpdate:  mu: -0.102383648  nElectrons: 9.000000  magneticMoment: [ Abs: 0.40072  Tot: +0.40000 ]
SCF: Cycle:  9   F: -42.553731313532310   dF: -5.545e-09   |Residual|: 4.585e-05   |deigs|: 3.359e-04  t[s]:     48.83
	FillingsUpdate:  mu: -0.102343639  nElectrons: 9.000000  magneticMoment: [ Abs: 0.40073  Tot: +0.40000 ]
SCF: Cycle: 10   F: -42.553731317754163   dF: -4.222e-09   |Residual|: 3.922e-05   |deigs|: 1.067e-04  t[s]:     52.91
SCF: Converged (|Delta E|<1.000000e-08 for 2 iters).


# Ionic positions in lattice coordinates:
ion Na   0.000000000000000   0.000000000000000   0.000000000000000 0

# Forces in Lattice coordinates:
force Na  -0.000000000000000  -0.000000000000000   0.000000000000000 0

# Energy components:
   Eewald =      -12.0320174002217755
       EH =       21.7217983325050312
     Eloc =      -54.7539189434080313
      Enl =      -12.9045016168117250
   Epulay =       -0.0000003132867683
      Exc =       -6.2081664977084863
       KE =       21.6230757293732587
-------------------------------------
     Etot =      -42.5537307095584936
       TS =        0.0000006081956702
-------------------------------------
        F =      -42.5537313177541634

IonicMinimize: Iter:   0  F: -42.553731317754163  |grad|_K:  0.000e+00  t[s]:     53.06
IonicMinimize: Converged (|grad|_K<1.000000e-04).

#--- Lowdin population analysis ---
# oxidation-state Na +0.004
# magnetic-moments Na +0.399

End date and time: Sat Feb  5 22:33:56 2022  (Duration: 0-0:00:53.10)
Done!
scale=4
magnetization=0.4
--------------------------------------------------------------------------
The library attempted to open the following supporting CUDA libraries,
but each of them failed.  CUDA-aware support is disabled.
libcuda.so.1: cannot open shared object file: No such file or directory
libcuda.dylib: cannot open shared object file: No such file or directory
/usr/lib64/libcuda.so.1: cannot open shared object file: No such file or directory
/usr/lib64/libcuda.dylib: cannot open shared object file: No such file or directory
If you are not interested in CUDA-aware support, then run with
--mca opal_warn_on_missing_libcuda 0 to suppress this message.  If you are interested
in CUDA-aware support, then try setting LD_LIBRARY_PATH to the location
of libcuda.so.1 to get passed this issue.
--------------------------------------------------------------------------
--------------------------------------------------------------------------
No OpenFabrics connection schemes reported that they were able to be
used on a specific port.  As such, the openib BTL (OpenFabrics
support) will be disabled for this port.

  Local host:           d-6-10-3
  Local device:         mlx5_1
  Local port:           1
  CPCs attempted:       rdmacm, udcm
--------------------------------------------------------------------------

*************** JDFTx 1.6.0 (git hash 42ebbcc2) ***************

Start date and time: Sat Feb  5 22:33:57 2022
Executable jdftx with command-line: -i Alkali.in
Running on hosts (process indices):  d-6-10-3 (0-18)
Divided in process groups (process indices):  0 (0)  1 (1)  2 (2)  3 (3)  4 (4)  5 (5)  6 (6)  7 (7)  8 (8)  9 (9)  10 (10)  11 (11)  12 (12)  13 (13)  14 (14)  15 (15)  16 (16)  17 (17)  18 (18)
Resource initialization completed at t[s]:      0.00
Run totals: 19 processes, 48 threads, 0 GPUs


Input parsed successfully to the following command list (including defaults):

basis kpoint-dependent
coords-type Lattice
core-overlap-check vector
coulomb-interaction Slab 001
davidson-band-ratio 1.1
dump End None
dump-name $INPUT.$VAR
elec-cutoff 20
elec-eigen-algo Davidson
elec-ex-corr gga-PBE
elec-initial-magnetization 0.400000 yes
elec-smearing Fermi 1e-05
electronic-minimize  \
	dirUpdateScheme      FletcherReeves \
	linminMethod         DirUpdateRecommended \
	nIterations          100 \
	history              15 \
	knormThreshold       0 \
	energyDiffThreshold  1e-08 \
	nEnergyDiff          2 \
	alphaTstart          1 \
	alphaTmin            1e-10 \
	updateTestStepSize   yes \
	alphaTreduceFactor   0.1 \
	alphaTincreaseFactor 3 \
	nAlphaAdjustMax      3 \
	wolfeEnergy          0.0001 \
	wolfeGradient        0.9 \
	fdTest               no
electronic-scf  \
	nIterations	10000 \
	energyDiffThreshold	1e-08 \
	residualThreshold	1e-07 \
	mixFraction	0.5 \
	qMetric	0.8 \
	history	10 \
	nEigSteps	2 \
	eigDiffThreshold	1e-08 \
	mixedVariable	Density \
	qKerker	0.8 \
	qKappa	-1 \
	verbose	no \
	mixFractionMag	1.5
exchange-regularization WignerSeitzTruncated
fluid None
fluid-ex-corr (null) lda-PZ
fluid-gummel-loop 10 1.000000e-05
fluid-minimize  \
	dirUpdateScheme      PolakRibiere \
	linminMethod         DirUpdateRecommended \
	nIterations          100 \
	history              15 \
	knormThreshold       0 \
	energyDiffThreshold  0 \
	nEnergyDiff          2 \
	alphaTstart          1 \
	alphaTmin            1e-10 \
	updateTestStepSize   yes \
	alphaTreduceFactor   0.1 \
	alphaTincreaseFactor 3 \
	nAlphaAdjustMax      3 \
	wolfeEnergy          0.0001 \
	wolfeGradient        0.9 \
	fdTest               no
fluid-solvent H2O 55.338 ScalarEOS \
	epsBulk 78.4 \
	pMol 0.92466 \
	epsInf 1.77 \
	Pvap 1.06736e-10 \
	sigmaBulk 4.62e-05 \
	Rvdw 2.61727 \
	Res 1.42 \
	tauNuc 343133 \
	poleEl 15 7 1
forces-output-coords Positions
ion Na   0.000000000000000   0.000000000000000   0.000000000000000 0
ion-species SG15/$ID_ONCV_PBE.upf
ion-width 0
ionic-minimize  \
	dirUpdateScheme      L-BFGS \
	linminMethod         DirUpdateRecommended \
	nIterations          0 \
	history              15 \
	knormThreshold       0.0001 \
	energyDiffThreshold  1e-06 \
	nEnergyDiff          2 \
	alphaTstart          1 \
	alphaTmin            1e-10 \
	updateTestStepSize   yes \
	alphaTreduceFactor   0.1 \
	alphaTincreaseFactor 3 \
	nAlphaAdjustMax      3 \
	wolfeEnergy          0.0001 \
	wolfeGradient        0.9 \
	fdTest               no
kpoint   0.000000000000   0.000000000000   0.000000000000  1.00000000000000
kpoint-folding 12 12 1 
latt-move-scale 1 1 1
latt-scale 4 4 1 
lattice  \
	   4.727486978767153   -2.363743489383575    0.000000000000000  \
	  -0.000000000000000    4.094123819672498    0.000000000000000  \
	   0.000000000000000    0.000000000000000   40.000000000000000 
lattice-minimize  \
	dirUpdateScheme      L-BFGS \
	linminMethod         DirUpdateRecommended \
	nIterations          0 \
	history              15 \
	knormThreshold       0 \
	energyDiffThreshold  1e-06 \
	nEnergyDiff          2 \
	alphaTstart          1 \
	alphaTmin            1e-10 \
	updateTestStepSize   yes \
	alphaTreduceFactor   0.1 \
	alphaTincreaseFactor 3 \
	nAlphaAdjustMax      3 \
	wolfeEnergy          0.0001 \
	wolfeGradient        0.9 \
	fdTest               no
lcao-params -1 1e-06 1e-05
pcm-variant GLSSA13
spintype z-spin
subspace-rotation-factor 1 yes
symmetries automatic
symmetry-threshold 0.0001



---------- Setting up symmetries ----------

Found 24 point-group symmetries of the bravais lattice
Found 24 space-group symmetries with basis
Applied RMS atom displacement 0 bohrs to make symmetries exact.

---------- Initializing the Grid ----------
R = 
[      18.9099     -9.45497            0  ]
[            0      16.3765            0  ]
[            0            0           40  ]
unit cell volume = 12387.1
G =
[   0.332269   0.191835         -0  ]
[          0   0.383671         -0  ]
[         -0         -0    0.15708  ]
Minimum fftbox size, Smin = [  80  80  164  ]
Chosen fftbox size, S = [  80  80  168  ]

---------- Exchange Correlation functional ----------
Initalized PBE GGA exchange.
Initalized PBE GGA correlation.

---------- Setting up pseudopotentials ----------
Width of ionic core gaussian charges (only for fluid interactions / plotting) set to 0

Reading pseudopotential file '/home/gridsan/aligho/DFT/build-Nov24/pseudopotentials/SG15/Na_ONCV_PBE.upf':
  'Na' pseudopotential, 'PBE' functional
  Generated using ONCVPSP code by D. R. Hamann
  Author: Martin Schlipf and Francois Gygi  Date: 150915.
  9 valence electrons, 3 orbitals, 4 projectors, 1992 radial grid points, with lMax = 1
  Transforming local potential to a uniform radial grid of dG=0.02 with 1489 points.
  Transforming nonlocal projectors to a uniform radial grid of dG=0.02 with 432 points.
    2S    l: 0   occupation:  2.0   eigenvalue: -2.085640
    2P    l: 1   occupation:  6.0   eigenvalue: -1.053708
    3S    l: 0   occupation:  1.0   eigenvalue: -0.100838
  Transforming atomic orbitals to a uniform radial grid of dG=0.02 with 432 points.
  Core radius for overlap checks: 2.01 bohrs.
  Reading pulay file /home/gridsan/aligho/DFT/build-Nov24/pseudopotentials/SG15/Na_ONCV_PBE.pulay ... using dE_dnG = -2.946487e-03 computed for Ecut = 20.

Initialized 1 species with 1 total atoms.

Folded 1 k-points by 12x12x1 to 144 k-points.

---------- Setting up k-points, bands, fillings ----------
Reduced to 19 k-points under symmetry. 
Computing the number of bands and number of electrons
Calculating initial fillings.
nElectrons:   9.000000   nBands: 6   nStates: 38

----- Setting up reduced wavefunction bases (one per k-point) -----
average nbasis = 52924.021 , ideal nbasis = 52918.836

---------- Setting up coulomb interaction ----------
Initialized slab truncation along lattice direction 001

---------- Setting up 2D ewald sum ----------
Optimum gaussian width for ewald sums = 10.498040 bohr.
Real space sums over 289 unit cells with max indices [  8  8  0  ]
Reciprocal space sums over 81 terms with max indices [  4  4  0  ]

---------- Allocating electronic variables ----------
Initializing wave functions:  linear combination of atomic orbitals
Note: number of bands (6) exceeds available atomic orbitals (5)
Na pseudo-atom occupations:   s ( 2 1 )  p ( 6 )
[d-6-10-3:00803] 18 more processes have sent help message help-mpi-common-cuda.txt / dlopen failed
[d-6-10-3:00803] Set MCA parameter "orte_base_help_aggregate" to 0 to see all help / error messages
[d-6-10-3:00803] 18 more processes have sent help message help-mpi-btl-openib-cpc-base.txt / no cpcs for port
	FillingsUpdate:  mu: -0.100790257  nElectrons: 9.000000  magneticMoment: [ Abs: 0.40000  Tot: +0.40000 ]
LCAOMinimize: Iter:   0  F: -42.5508847015171838  |grad|_K:  1.105e-06  alpha:  1.000e+00
	FillingsUpdate:  mu: -0.100790043  nElectrons: 9.000000  magneticMoment: [ Abs: 0.40000  Tot: +0.40000 ]
LCAOMinimize: Iter:   1  F: -42.5508847023485330  |grad|_K:  4.803e-09  alpha:  9.943e-01  linmin: -2.082e-04  cgtest:  1.038e-01  t[s]:     14.99
LCAOMinimize: Encountered beta<0, resetting CG.
LCAOMinimize: 	Wrong curvature in test step, increasing alphaT to 2.983035e+00.
	FillingsUpdate:  mu: -0.100790043  nElectrons: 9.000000  magneticMoment: [ Abs: 0.40000  Tot: +0.40000 ]
LCAOMinimize: Iter:   2  F: -42.5508847023487107  |grad|_K:  2.501e-11  alpha: -1.045e-01  linmin: -1.636e-03  cgtest:  6.304e-01  t[s]:     19.02
LCAOMinimize: Encountered beta<0, resetting CG.
LCAOMinimize: Converged (|Delta F|<1.000000e-06 for 2 iters).


---- Citations for features of the code used in this run ----

   Software package:
      R. Sundararaman, K. Letchworth-Weaver, K.A. Schwarz, D. Gunceler, Y. Ozhabes and T.A. Arias, 'JDFTx: software for joint density-functional theory', SoftwareX 6, 278 (2017)

   gga-PBE exchange-correlation functional:
      J.P. Perdew, K. Burke and M. Ernzerhof, Phys. Rev. Lett. 77, 3865 (1996)

   Pseudopotentials:
      M Schlipf and F Gygi, Comput. Phys. Commun. 196, 36 (2015)

   Truncated Coulomb potentials:
      R. Sundararaman and T.A. Arias, Phys. Rev. B 87, 165122 (2013)

This list may not be complete. Please suggest additional citations or
report any other bugs at https://github.com/shankar1729/jdftx/issues

Initialization completed successfully at t[s]:     19.18


-------- Electronic minimization -----------
Will mix electronic density at each iteration.
	FillingsUpdate:  mu: -0.100790043  nElectrons: 9.000000  magneticMoment: [ Abs: 0.40000  Tot: +0.40000 ]
	FillingsUpdate:  mu: -0.100834185  nElectrons: 9.000000  magneticMoment: [ Abs: 0.40000  Tot: +0.40000 ]
SCF: Cycle:  0   F: -42.550931499127131   dF: -4.680e-05   |Residual|: 1.913e-03   |deigs|: 1.669e-01  t[s]:     26.78
	FillingsUpdate:  mu: -0.100827459  nElectrons: 9.000000  magneticMoment: [ Abs: 0.40076  Tot: +0.40000 ]
SCF: Cycle:  1   F: -42.550932029963967   dF: -5.308e-07   |Residual|: 8.412e-04   |deigs|: 1.328e-02  t[s]:     32.75
	FillingsUpdate:  mu: -0.100820200  nElectrons: 9.000000  magneticMoment: [ Abs: 0.40058  Tot: +0.40000 ]
SCF: Cycle:  2   F: -42.550932149502032   dF: -1.195e-07   |Residual|: 2.422e-04   |deigs|: 1.822e-03  t[s]:     38.76
	FillingsUpdate:  mu: -0.100813366  nElectrons: 9.000000  magneticMoment: [ Abs: 0.40071  Tot: +0.40000 ]
SCF: Cycle:  3   F: -42.550932188354238   dF: -3.885e-08   |Residual|: 9.122e-05   |deigs|: 3.383e-04  t[s]:     44.94
	FillingsUpdate:  mu: -0.100805912  nElectrons: 9.000000  magneticMoment: [ Abs: 0.40067  Tot: +0.40000 ]
SCF: Cycle:  4   F: -42.550932200556609   dF: -1.220e-08   |Residual|: 6.103e-05   |deigs|: 2.808e-04  t[s]:     51.13
	FillingsUpdate:  mu: -0.100789344  nElectrons: 9.000000  magneticMoment: [ Abs: 0.40069  Tot: +0.40000 ]
SCF: Cycle:  5   F: -42.550932216166089   dF: -1.561e-08   |Residual|: 4.333e-05   |deigs|: 2.531e-04  t[s]:     57.50
	FillingsUpdate:  mu: -0.100778826  nElectrons: 9.000000  magneticMoment: [ Abs: 0.40067  Tot: +0.40000 ]
SCF: Cycle:  6   F: -42.550932219743125   dF: -3.577e-09   |Residual|: 2.853e-05   |deigs|: 1.915e-04  t[s]:     63.92
	FillingsUpdate:  mu: -0.100760776  nElectrons: 9.000000  magneticMoment: [ Abs: 0.40068  Tot: +0.40000 ]
SCF: Cycle:  7   F: -42.550932221233339   dF: -1.490e-09   |Residual|: 2.444e-05   |deigs|: 1.969e-04  t[s]:     70.50
SCF: Converged (|Delta E|<1.000000e-08 for 2 iters).


# Ionic positions in lattice coordinates:
ion Na   0.000000000000000   0.000000000000000   0.000000000000000 0

# Forces in Lattice coordinates:
force Na  -0.000000000000000  -0.000000000000000   0.000000000000000 0

# Energy components:
   Eewald =       -9.0240130501663280
       EH =       24.7709947887500448
     Eloc =      -60.8149276361014586
      Enl =      -12.9027922875746413
   Epulay =        0.0000012333957556
      Exc =       -6.2111513246703982
       KE =       21.6309576703506181
-------------------------------------
     Etot =      -42.5509306060164150
       TS =        0.0000016152169238
-------------------------------------
        F =      -42.5509322212333387

IonicMinimize: Iter:   0  F: -42.550932221233339  |grad|_K:  0.000e+00  t[s]:     70.75
IonicMinimize: Converged (|grad|_K<1.000000e-04).

#--- Lowdin population analysis ---
# oxidation-state Na +0.000
# magnetic-moments Na +0.400

End date and time: Sat Feb  5 22:35:07 2022  (Duration: 0-0:01:10.82)
Done!
