The alkali metal is Na
scale=2
magnetization=-0.7
--------------------------------------------------------------------------
The library attempted to open the following supporting CUDA libraries,
but each of them failed.  CUDA-aware support is disabled.
libcuda.so.1: cannot open shared object file: No such file or directory
libcuda.dylib: cannot open shared object file: No such file or directory
/usr/lib64/libcuda.so.1: cannot open shared object file: No such file or directory
/usr/lib64/libcuda.dylib: cannot open shared object file: No such file or directory
If you are not interested in CUDA-aware support, then run with
--mca opal_warn_on_missing_libcuda 0 to suppress this message.  If you are interested
in CUDA-aware support, then try setting LD_LIBRARY_PATH to the location
of libcuda.so.1 to get passed this issue.
--------------------------------------------------------------------------
--------------------------------------------------------------------------
No OpenFabrics connection schemes reported that they were able to be
used on a specific port.  As such, the openib BTL (OpenFabrics
support) will be disabled for this port.

  Local host:           d-16-1-2
  Local device:         mlx5_1
  Local port:           1
  CPCs attempted:       rdmacm, udcm
--------------------------------------------------------------------------

*************** JDFTx 1.6.0 (git hash 42ebbcc2) ***************

Start date and time: Sat Feb  5 22:20:46 2022
Executable jdftx with command-line: -i Alkali.in
Running on hosts (process indices):  d-16-1-2 (0-18)
Divided in process groups (process indices):  0 (0)  1 (1)  2 (2)  3 (3)  4 (4)  5 (5)  6 (6)  7 (7)  8 (8)  9 (9)  10 (10)  11 (11)  12 (12)  13 (13)  14 (14)  15 (15)  16 (16)  17 (17)  18 (18)
Resource initialization completed at t[s]:      0.00
Run totals: 19 processes, 48 threads, 0 GPUs


Input parsed successfully to the following command list (including defaults):

basis kpoint-dependent
coords-type Lattice
core-overlap-check vector
coulomb-interaction Slab 001
davidson-band-ratio 1.1
dump End None
dump-name $INPUT.$VAR
elec-cutoff 20
elec-eigen-algo Davidson
elec-ex-corr gga-PBE
elec-initial-magnetization -0.700000 yes
elec-smearing Fermi 1e-05
electronic-minimize  \
	dirUpdateScheme      FletcherReeves \
	linminMethod         DirUpdateRecommended \
	nIterations          100 \
	history              15 \
	knormThreshold       0 \
	energyDiffThreshold  1e-08 \
	nEnergyDiff          2 \
	alphaTstart          1 \
	alphaTmin            1e-10 \
	updateTestStepSize   yes \
	alphaTreduceFactor   0.1 \
	alphaTincreaseFactor 3 \
	nAlphaAdjustMax      3 \
	wolfeEnergy          0.0001 \
	wolfeGradient        0.9 \
	fdTest               no
electronic-scf  \
	nIterations	10000 \
	energyDiffThreshold	1e-08 \
	residualThreshold	1e-07 \
	mixFraction	0.5 \
	qMetric	0.8 \
	history	10 \
	nEigSteps	2 \
	eigDiffThreshold	1e-08 \
	mixedVariable	Density \
	qKerker	0.8 \
	qKappa	-1 \
	verbose	no \
	mixFractionMag	1.5
exchange-regularization WignerSeitzTruncated
fluid None
fluid-ex-corr (null) lda-PZ
fluid-gummel-loop 10 1.000000e-05
fluid-minimize  \
	dirUpdateScheme      PolakRibiere \
	linminMethod         DirUpdateRecommended \
	nIterations          100 \
	history              15 \
	knormThreshold       0 \
	energyDiffThreshold  0 \
	nEnergyDiff          2 \
	alphaTstart          1 \
	alphaTmin            1e-10 \
	updateTestStepSize   yes \
	alphaTreduceFactor   0.1 \
	alphaTincreaseFactor 3 \
	nAlphaAdjustMax      3 \
	wolfeEnergy          0.0001 \
	wolfeGradient        0.9 \
	fdTest               no
fluid-solvent H2O 55.338 ScalarEOS \
	epsBulk 78.4 \
	pMol 0.92466 \
	epsInf 1.77 \
	Pvap 1.06736e-10 \
	sigmaBulk 4.62e-05 \
	Rvdw 2.61727 \
	Res 1.42 \
	tauNuc 343133 \
	poleEl 15 7 1
forces-output-coords Positions
ion Na   0.000000000000000   0.000000000000000   0.000000000000000 0
ion-species SG15/$ID_ONCV_PBE.upf
ion-width 0
ionic-minimize  \
	dirUpdateScheme      L-BFGS \
	linminMethod         DirUpdateRecommended \
	nIterations          0 \
	history              15 \
	knormThreshold       0.0001 \
	energyDiffThreshold  1e-06 \
	nEnergyDiff          2 \
	alphaTstart          1 \
	alphaTmin            1e-10 \
	updateTestStepSize   yes \
	alphaTreduceFactor   0.1 \
	alphaTincreaseFactor 3 \
	nAlphaAdjustMax      3 \
	wolfeEnergy          0.0001 \
	wolfeGradient        0.9 \
	fdTest               no
kpoint   0.000000000000   0.000000000000   0.000000000000  1.00000000000000
kpoint-folding 12 12 1 
latt-move-scale 1 1 1
latt-scale 2 2 1 
lattice  \
	   4.727486978767153   -2.363743489383575    0.000000000000000  \
	  -0.000000000000000    4.094123819672498    0.000000000000000  \
	   0.000000000000000    0.000000000000000   40.000000000000000 
lattice-minimize  \
	dirUpdateScheme      L-BFGS \
	linminMethod         DirUpdateRecommended \
	nIterations          0 \
	history              15 \
	knormThreshold       0 \
	energyDiffThreshold  1e-06 \
	nEnergyDiff          2 \
	alphaTstart          1 \
	alphaTmin            1e-10 \
	updateTestStepSize   yes \
	alphaTreduceFactor   0.1 \
	alphaTincreaseFactor 3 \
	nAlphaAdjustMax      3 \
	wolfeEnergy          0.0001 \
	wolfeGradient        0.9 \
	fdTest               no
lcao-params -1 1e-06 1e-05
pcm-variant GLSSA13
spintype z-spin
subspace-rotation-factor 1 yes
symmetries automatic
symmetry-threshold 0.0001



---------- Setting up symmetries ----------

Found 24 point-group symmetries of the bravais lattice
Found 24 space-group symmetries with basis
Applied RMS atom displacement 0 bohrs to make symmetries exact.

---------- Initializing the Grid ----------
R = 
[      9.45497     -4.72749            0  ]
[            0      8.18825            0  ]
[            0            0           40  ]
unit cell volume = 3096.79
G =
[   0.664538   0.383671         -0  ]
[          0   0.767342         -0  ]
[         -0         -0    0.15708  ]
Minimum fftbox size, Smin = [  40  40  164  ]
Chosen fftbox size, S = [  40  40  168  ]

---------- Exchange Correlation functional ----------
Initalized PBE GGA exchange.
Initalized PBE GGA correlation.

---------- Setting up pseudopotentials ----------
Width of ionic core gaussian charges (only for fluid interactions / plotting) set to 0

Reading pseudopotential file '/home/gridsan/aligho/DFT/build-Nov24/pseudopotentials/SG15/Na_ONCV_PBE.upf':
  'Na' pseudopotential, 'PBE' functional
  Generated using ONCVPSP code by D. R. Hamann
  Author: Martin Schlipf and Francois Gygi  Date: 150915.
  9 valence electrons, 3 orbitals, 4 projectors, 1992 radial grid points, with lMax = 1
  Transforming local potential to a uniform radial grid of dG=0.02 with 1489 points.
  Transforming nonlocal projectors to a uniform radial grid of dG=0.02 with 432 points.
    2S    l: 0   occupation:  2.0   eigenvalue: -2.085640
    2P    l: 1   occupation:  6.0   eigenvalue: -1.053708
    3S    l: 0   occupation:  1.0   eigenvalue: -0.100838
  Transforming atomic orbitals to a uniform radial grid of dG=0.02 with 432 points.
  Core radius for overlap checks: 2.01 bohrs.
  Reading pulay file /home/gridsan/aligho/DFT/build-Nov24/pseudopotentials/SG15/Na_ONCV_PBE.pulay ... using dE_dnG = -2.946487e-03 computed for Ecut = 20.

Initialized 1 species with 1 total atoms.

Folded 1 k-points by 12x12x1 to 144 k-points.

---------- Setting up k-points, bands, fillings ----------
Reduced to 19 k-points under symmetry. 
Computing the number of bands and number of electrons
Calculating initial fillings.
nElectrons:   9.000000   nBands: 6   nStates: 38

----- Setting up reduced wavefunction bases (one per k-point) -----
average nbasis = 13230.521 , ideal nbasis = 13229.709

---------- Setting up coulomb interaction ----------
Initialized slab truncation along lattice direction 001

---------- Setting up 2D ewald sum ----------
Optimum gaussian width for ewald sums = 5.249020 bohr.
Real space sums over 289 unit cells with max indices [  8  8  0  ]
Reciprocal space sums over 81 terms with max indices [  4  4  0  ]

---------- Allocating electronic variables ----------
Initializing wave functions:  linear combination of atomic orbitals
Note: number of bands (6) exceeds available atomic orbitals (5)
Na pseudo-atom occupations:   s ( 2 1 )  p ( 6 )
	FillingsUpdate:  mu: -0.107654034  nElectrons: 9.000000  magneticMoment: [ Abs: 0.70000  Tot: -0.70000 ]
LCAOMinimize: Iter:   0  F: -42.5617276388176435  |grad|_K:  1.685e-05  alpha:  1.000e+00
	FillingsUpdate:  mu: -0.107652474  nElectrons: 9.000000  magneticMoment: [ Abs: 0.70000  Tot: -0.70000 ]
LCAOMinimize: Iter:   1  F: -42.5617278314032248  |grad|_K:  1.249e-07  alpha:  9.918e-01  linmin: -1.732e-02  cgtest:  5.392e-01  t[s]:      4.58
LCAOMinimize: Encountered beta<0, resetting CG.
[d-16-1-2:30401] 18 more processes have sent help message help-mpi-common-cuda.txt / dlopen failed
[d-16-1-2:30401] Set MCA parameter "orte_base_help_aggregate" to 0 to see all help / error messages
[d-16-1-2:30401] 18 more processes have sent help message help-mpi-btl-openib-cpc-base.txt / no cpcs for port
	FillingsUpdate:  mu: -0.107652496  nElectrons: 9.000000  magneticMoment: [ Abs: 0.70000  Tot: -0.70000 ]
LCAOMinimize: Iter:   2  F: -42.5617278314132292  |grad|_K:  4.895e-09  alpha:  9.613e-01  linmin: -6.995e-02  cgtest:  9.962e-01  t[s]:      5.76
LCAOMinimize: Encountered beta<0, resetting CG.
LCAOMinimize: Converged (|Delta F|<1.000000e-06 for 2 iters).


---- Citations for features of the code used in this run ----

   Software package:
      R. Sundararaman, K. Letchworth-Weaver, K.A. Schwarz, D. Gunceler, Y. Ozhabes and T.A. Arias, 'JDFTx: software for joint density-functional theory', SoftwareX 6, 278 (2017)

   gga-PBE exchange-correlation functional:
      J.P. Perdew, K. Burke and M. Ernzerhof, Phys. Rev. Lett. 77, 3865 (1996)

   Pseudopotentials:
      M Schlipf and F Gygi, Comput. Phys. Commun. 196, 36 (2015)

   Truncated Coulomb potentials:
      R. Sundararaman and T.A. Arias, Phys. Rev. B 87, 165122 (2013)

This list may not be complete. Please suggest additional citations or
report any other bugs at https://github.com/shankar1729/jdftx/issues

Initialization completed successfully at t[s]:      5.82


-------- Electronic minimization -----------
Will mix electronic density at each iteration.
	FillingsUpdate:  mu: -0.107652496  nElectrons: 9.000000  magneticMoment: [ Abs: 0.70000  Tot: -0.70000 ]
	FillingsUpdate:  mu: -0.110089405  nElectrons: 9.000000  magneticMoment: [ Abs: 0.70000  Tot: -0.70000 ]
SCF: Cycle:  0   F: -42.567024582642929   dF: -5.297e-03   |Residual|: 1.101e-02   |deigs|: 1.699e-01  t[s]:      8.03
	FillingsUpdate:  mu: -0.109542155  nElectrons: 9.000000  magneticMoment: [ Abs: 0.70000  Tot: -0.70000 ]
SCF: Cycle:  1   F: -42.567245078233256   dF: -2.205e-04   |Residual|: 7.474e-03   |deigs|: 8.762e-03  t[s]:      9.69
	FillingsUpdate:  mu: -0.109444346  nElectrons: 9.000000  magneticMoment: [ Abs: 0.70139  Tot: -0.70000 ]
SCF: Cycle:  2   F: -42.567290431051710   dF: -4.535e-05   |Residual|: 4.834e-03   |deigs|: 6.797e-03  t[s]:     11.34
	FillingsUpdate:  mu: -0.108907433  nElectrons: 9.000000  magneticMoment: [ Abs: 0.70018  Tot: -0.70000 ]
SCF: Cycle:  3   F: -42.567291370107483   dF: -9.391e-07   |Residual|: 2.760e-03   |deigs|: 5.561e-03  t[s]:     13.00
	FillingsUpdate:  mu: -0.108779714  nElectrons: 9.000000  magneticMoment: [ Abs: 0.70021  Tot: -0.70000 ]
SCF: Cycle:  4   F: -42.567314205301372   dF: -2.284e-05   |Residual|: 1.084e-03   |deigs|: 1.361e-03  t[s]:     14.73
	FillingsUpdate:  mu: -0.108623649  nElectrons: 9.000000  magneticMoment: [ Abs: 0.70036  Tot: -0.70000 ]
SCF: Cycle:  5   F: -42.567318728533586   dF: -4.523e-06   |Residual|: 8.313e-04   |deigs|: 3.932e-03  t[s]:     16.53
	FillingsUpdate:  mu: -0.108023744  nElectrons: 9.000000  magneticMoment: [ Abs: 0.70054  Tot: -0.70000 ]
SCF: Cycle:  6   F: -42.567320283169558   dF: -1.555e-06   |Residual|: 6.262e-04   |deigs|: 1.165e-03  t[s]:     18.30
	FillingsUpdate:  mu: -0.107175425  nElectrons: 9.000000  magneticMoment: [ Abs: 0.70229  Tot: -0.70000 ]
SCF: Cycle:  7   F: -42.567319399075956   dF: +8.841e-07   |Residual|: 4.567e-04   |deigs|: 1.060e-03  t[s]:     20.09
	FillingsUpdate:  mu: -0.106353436  nElectrons: 9.000000  magneticMoment: [ Abs: 0.70224  Tot: -0.70000 ]
SCF: Cycle:  8   F: -42.567319228701251   dF: +1.704e-07   |Residual|: 3.830e-04   |deigs|: 1.040e-03  t[s]:     21.89
	FillingsUpdate:  mu: -0.105940383  nElectrons: 9.000000  magneticMoment: [ Abs: 0.70106  Tot: -0.70000 ]
SCF: Cycle:  9   F: -42.567321051750731   dF: -1.823e-06   |Residual|: 3.306e-04   |deigs|: 5.337e-04  t[s]:     23.76
	FillingsUpdate:  mu: -0.105982971  nElectrons: 9.000000  magneticMoment: [ Abs: 0.70089  Tot: -0.70000 ]
SCF: Cycle: 10   F: -42.567322267110718   dF: -1.215e-06   |Residual|: 2.254e-04   |deigs|: 2.134e-04  t[s]:     25.65
	FillingsUpdate:  mu: -0.105400245  nElectrons: 9.000000  magneticMoment: [ Abs: 0.70157  Tot: -0.70000 ]
SCF: Cycle: 11   F: -42.567321884296561   dF: +3.828e-07   |Residual|: 2.153e-04   |deigs|: 6.827e-04  t[s]:     27.53
	FillingsUpdate:  mu: -0.104885380  nElectrons: 9.000000  magneticMoment: [ Abs: 0.70111  Tot: -0.70000 ]
SCF: Cycle: 12   F: -42.567321201888760   dF: +6.824e-07   |Residual|: 1.965e-04   |deigs|: 5.332e-04  t[s]:     29.45
	FillingsUpdate:  mu: -0.104590951  nElectrons: 9.000000  magneticMoment: [ Abs: 0.70155  Tot: -0.70000 ]
SCF: Cycle: 13   F: -42.567322131477397   dF: -9.296e-07   |Residual|: 1.736e-04   |deigs|: 3.046e-04  t[s]:     31.32
	FillingsUpdate:  mu: -0.104217360  nElectrons: 9.000000  magneticMoment: [ Abs: 0.70166  Tot: -0.70000 ]
SCF: Cycle: 14   F: -42.567322926729076   dF: -7.953e-07   |Residual|: 1.571e-04   |deigs|: 4.041e-04  t[s]:     33.27
	FillingsUpdate:  mu: -0.103582169  nElectrons: 9.000000  magneticMoment: [ Abs: 0.70103  Tot: -0.70000 ]
SCF: Cycle: 15   F: -42.567323439011638   dF: -5.123e-07   |Residual|: 1.512e-04   |deigs|: 6.886e-04  t[s]:     35.23
	FillingsUpdate:  mu: -0.103183642  nElectrons: 9.000000  magneticMoment: [ Abs: 0.70074  Tot: -0.70000 ]
SCF: Cycle: 16   F: -42.567323722974614   dF: -2.840e-07   |Residual|: 1.271e-04   |deigs|: 3.815e-04  t[s]:     37.12
	FillingsUpdate:  mu: -0.102875059  nElectrons: 9.000000  magneticMoment: [ Abs: 0.70063  Tot: -0.70000 ]
SCF: Cycle: 17   F: -42.567323980393304   dF: -2.574e-07   |Residual|: 8.122e-05   |deigs|: 2.710e-04  t[s]:     38.99
	FillingsUpdate:  mu: -0.102710901  nElectrons: 9.000000  magneticMoment: [ Abs: 0.70043  Tot: -0.70000 ]
SCF: Cycle: 18   F: -42.567324072042759   dF: -9.165e-08   |Residual|: 6.374e-05   |deigs|: 4.524e-04  t[s]:     40.87
	FillingsUpdate:  mu: -0.102614894  nElectrons: 9.000000  magneticMoment: [ Abs: 0.70045  Tot: -0.70000 ]
SCF: Cycle: 19   F: -42.567324122533691   dF: -5.049e-08   |Residual|: 3.774e-05   |deigs|: 7.183e-04  t[s]:     42.72
	FillingsUpdate:  mu: -0.102573734  nElectrons: 9.000000  magneticMoment: [ Abs: 0.70052  Tot: -0.70000 ]
SCF: Cycle: 20   F: -42.567324139210371   dF: -1.668e-08   |Residual|: 2.163e-05   |deigs|: 8.142e-05  t[s]:     44.59
	FillingsUpdate:  mu: -0.102570431  nElectrons: 9.000000  magneticMoment: [ Abs: 0.70046  Tot: -0.70000 ]
SCF: Cycle: 21   F: -42.567324144150433   dF: -4.940e-09   |Residual|: 1.392e-05   |deigs|: 7.011e-04  t[s]:     46.47
	FillingsUpdate:  mu: -0.102575603  nElectrons: 9.000000  magneticMoment: [ Abs: 0.70041  Tot: -0.70000 ]
SCF: Cycle: 22   F: -42.567324146848804   dF: -2.698e-09   |Residual|: 9.959e-06   |deigs|: 7.854e-05  t[s]:     48.30
SCF: Converged (|Delta E|<1.000000e-08 for 2 iters).


# Ionic positions in lattice coordinates:
ion Na   0.000000000000000   0.000000000000000   0.000000000000000 0

# Forces in Lattice coordinates:
force Na   0.000000000000000  -0.000000000000000   0.000000000000000 0

# Energy components:
   Eewald =      -18.0480261003326561
       EH =       15.7454852728996464
     Eloc =      -42.7584983427078953
      Enl =      -12.9144987400709237
   Epulay =        0.0000007725295140
      Exc =       -6.2208517407521153
       KE =       21.6290653110751379
-------------------------------------
     Etot =      -42.5673235673592956
       TS =        0.0000005794895062
-------------------------------------
        F =      -42.5673241468488044

IonicMinimize: Iter:   0  F: -42.567324146848804  |grad|_K:  0.000e+00  t[s]:     48.37
IonicMinimize: Converged (|grad|_K<1.000000e-04).

#--- Lowdin population analysis ---
# oxidation-state Na +0.078
# magnetic-moments Na -0.625

End date and time: Sat Feb  5 22:21:35 2022  (Duration: 0-0:00:48.39)
Done!
scale=3
magnetization=-0.7
--------------------------------------------------------------------------
The library attempted to open the following supporting CUDA libraries,
but each of them failed.  CUDA-aware support is disabled.
libcuda.so.1: cannot open shared object file: No such file or directory
libcuda.dylib: cannot open shared object file: No such file or directory
/usr/lib64/libcuda.so.1: cannot open shared object file: No such file or directory
/usr/lib64/libcuda.dylib: cannot open shared object file: No such file or directory
If you are not interested in CUDA-aware support, then run with
--mca opal_warn_on_missing_libcuda 0 to suppress this message.  If you are interested
in CUDA-aware support, then try setting LD_LIBRARY_PATH to the location
of libcuda.so.1 to get passed this issue.
--------------------------------------------------------------------------
--------------------------------------------------------------------------
No OpenFabrics connection schemes reported that they were able to be
used on a specific port.  As such, the openib BTL (OpenFabrics
support) will be disabled for this port.

  Local host:           d-16-1-2
  Local device:         mlx5_1
  Local port:           1
  CPCs attempted:       rdmacm, udcm
--------------------------------------------------------------------------

*************** JDFTx 1.6.0 (git hash 42ebbcc2) ***************

Start date and time: Sat Feb  5 22:21:36 2022
Executable jdftx with command-line: -i Alkali.in
Running on hosts (process indices):  d-16-1-2 (0-18)
Divided in process groups (process indices):  0 (0)  1 (1)  2 (2)  3 (3)  4 (4)  5 (5)  6 (6)  7 (7)  8 (8)  9 (9)  10 (10)  11 (11)  12 (12)  13 (13)  14 (14)  15 (15)  16 (16)  17 (17)  18 (18)
Resource initialization completed at t[s]:      0.00
Run totals: 19 processes, 48 threads, 0 GPUs


Input parsed successfully to the following command list (including defaults):

basis kpoint-dependent
coords-type Lattice
core-overlap-check vector
coulomb-interaction Slab 001
davidson-band-ratio 1.1
dump End None
dump-name $INPUT.$VAR
elec-cutoff 20
elec-eigen-algo Davidson
elec-ex-corr gga-PBE
elec-initial-magnetization -0.700000 yes
elec-smearing Fermi 1e-05
electronic-minimize  \
	dirUpdateScheme      FletcherReeves \
	linminMethod         DirUpdateRecommended \
	nIterations          100 \
	history              15 \
	knormThreshold       0 \
	energyDiffThreshold  1e-08 \
	nEnergyDiff          2 \
	alphaTstart          1 \
	alphaTmin            1e-10 \
	updateTestStepSize   yes \
	alphaTreduceFactor   0.1 \
	alphaTincreaseFactor 3 \
	nAlphaAdjustMax      3 \
	wolfeEnergy          0.0001 \
	wolfeGradient        0.9 \
	fdTest               no
electronic-scf  \
	nIterations	10000 \
	energyDiffThreshold	1e-08 \
	residualThreshold	1e-07 \
	mixFraction	0.5 \
	qMetric	0.8 \
	history	10 \
	nEigSteps	2 \
	eigDiffThreshold	1e-08 \
	mixedVariable	Density \
	qKerker	0.8 \
	qKappa	-1 \
	verbose	no \
	mixFractionMag	1.5
exchange-regularization WignerSeitzTruncated
fluid None
fluid-ex-corr (null) lda-PZ
fluid-gummel-loop 10 1.000000e-05
fluid-minimize  \
	dirUpdateScheme      PolakRibiere \
	linminMethod         DirUpdateRecommended \
	nIterations          100 \
	history              15 \
	knormThreshold       0 \
	energyDiffThreshold  0 \
	nEnergyDiff          2 \
	alphaTstart          1 \
	alphaTmin            1e-10 \
	updateTestStepSize   yes \
	alphaTreduceFactor   0.1 \
	alphaTincreaseFactor 3 \
	nAlphaAdjustMax      3 \
	wolfeEnergy          0.0001 \
	wolfeGradient        0.9 \
	fdTest               no
fluid-solvent H2O 55.338 ScalarEOS \
	epsBulk 78.4 \
	pMol 0.92466 \
	epsInf 1.77 \
	Pvap 1.06736e-10 \
	sigmaBulk 4.62e-05 \
	Rvdw 2.61727 \
	Res 1.42 \
	tauNuc 343133 \
	poleEl 15 7 1
forces-output-coords Positions
ion Na   0.000000000000000   0.000000000000000   0.000000000000000 0
ion-species SG15/$ID_ONCV_PBE.upf
ion-width 0
ionic-minimize  \
	dirUpdateScheme      L-BFGS \
	linminMethod         DirUpdateRecommended \
	nIterations          0 \
	history              15 \
	knormThreshold       0.0001 \
	energyDiffThreshold  1e-06 \
	nEnergyDiff          2 \
	alphaTstart          1 \
	alphaTmin            1e-10 \
	updateTestStepSize   yes \
	alphaTreduceFactor   0.1 \
	alphaTincreaseFactor 3 \
	nAlphaAdjustMax      3 \
	wolfeEnergy          0.0001 \
	wolfeGradient        0.9 \
	fdTest               no
kpoint   0.000000000000   0.000000000000   0.000000000000  1.00000000000000
kpoint-folding 12 12 1 
latt-move-scale 1 1 1
latt-scale 3 3 1 
lattice  \
	   4.727486978767153   -2.363743489383575    0.000000000000000  \
	  -0.000000000000000    4.094123819672498    0.000000000000000  \
	   0.000000000000000    0.000000000000000   40.000000000000000 
lattice-minimize  \
	dirUpdateScheme      L-BFGS \
	linminMethod         DirUpdateRecommended \
	nIterations          0 \
	history              15 \
	knormThreshold       0 \
	energyDiffThreshold  1e-06 \
	nEnergyDiff          2 \
	alphaTstart          1 \
	alphaTmin            1e-10 \
	updateTestStepSize   yes \
	alphaTreduceFactor   0.1 \
	alphaTincreaseFactor 3 \
	nAlphaAdjustMax      3 \
	wolfeEnergy          0.0001 \
	wolfeGradient        0.9 \
	fdTest               no
lcao-params -1 1e-06 1e-05
pcm-variant GLSSA13
spintype z-spin
subspace-rotation-factor 1 yes
symmetries automatic
symmetry-threshold 0.0001



---------- Setting up symmetries ----------

Found 24 point-group symmetries of the bravais lattice
Found 24 space-group symmetries with basis
Applied RMS atom displacement 0 bohrs to make symmetries exact.

---------- Initializing the Grid ----------
R = 
[      14.1825     -7.09123            0  ]
[            0      12.2824            0  ]
[            0            0           40  ]
unit cell volume = 6967.77
G =
[   0.443025   0.255781         -0  ]
[          0   0.511561         -0  ]
[         -0         -0    0.15708  ]
Minimum fftbox size, Smin = [  60  60  164  ]
Chosen fftbox size, S = [  60  60  168  ]

---------- Exchange Correlation functional ----------
Initalized PBE GGA exchange.
Initalized PBE GGA correlation.

---------- Setting up pseudopotentials ----------
Width of ionic core gaussian charges (only for fluid interactions / plotting) set to 0

Reading pseudopotential file '/home/gridsan/aligho/DFT/build-Nov24/pseudopotentials/SG15/Na_ONCV_PBE.upf':
  'Na' pseudopotential, 'PBE' functional
  Generated using ONCVPSP code by D. R. Hamann
  Author: Martin Schlipf and Francois Gygi  Date: 150915.
  9 valence electrons, 3 orbitals, 4 projectors, 1992 radial grid points, with lMax = 1
  Transforming local potential to a uniform radial grid of dG=0.02 with 1489 points.
  Transforming nonlocal projectors to a uniform radial grid of dG=0.02 with 432 points.
    2S    l: 0   occupation:  2.0   eigenvalue: -2.085640
    2P    l: 1   occupation:  6.0   eigenvalue: -1.053708
    3S    l: 0   occupation:  1.0   eigenvalue: -0.100838
  Transforming atomic orbitals to a uniform radial grid of dG=0.02 with 432 points.
  Core radius for overlap checks: 2.01 bohrs.
  Reading pulay file /home/gridsan/aligho/DFT/build-Nov24/pseudopotentials/SG15/Na_ONCV_PBE.pulay ... using dE_dnG = -2.946487e-03 computed for Ecut = 20.

Initialized 1 species with 1 total atoms.

Folded 1 k-points by 12x12x1 to 144 k-points.

---------- Setting up k-points, bands, fillings ----------
Reduced to 19 k-points under symmetry. 
Computing the number of bands and number of electrons
Calculating initial fillings.
nElectrons:   9.000000   nBands: 6   nStates: 38

----- Setting up reduced wavefunction bases (one per k-point) -----
average nbasis = 29766.104 , ideal nbasis = 29766.845

---------- Setting up coulomb interaction ----------
Initialized slab truncation along lattice direction 001

---------- Setting up 2D ewald sum ----------
Optimum gaussian width for ewald sums = 7.873530 bohr.
Real space sums over 289 unit cells with max indices [  8  8  0  ]
Reciprocal space sums over 81 terms with max indices [  4  4  0  ]

---------- Allocating electronic variables ----------
Initializing wave functions:  linear combination of atomic orbitals
Note: number of bands (6) exceeds available atomic orbitals (5)
Na pseudo-atom occupations:   s ( 2 1 )  p ( 6 )
[d-16-1-2:73740] 18 more processes have sent help message help-mpi-common-cuda.txt / dlopen failed
[d-16-1-2:73740] Set MCA parameter "orte_base_help_aggregate" to 0 to see all help / error messages
[d-16-1-2:73740] 18 more processes have sent help message help-mpi-btl-openib-cpc-base.txt / no cpcs for port
	FillingsUpdate:  mu: -0.101757407  nElectrons: 9.000000  magneticMoment: [ Abs: 0.70000  Tot: -0.70000 ]
LCAOMinimize: Iter:   0  F: -42.5547667239242884  |grad|_K:  5.530e-06  alpha:  1.000e+00
	FillingsUpdate:  mu: -0.101756673  nElectrons: 9.000000  magneticMoment: [ Abs: 0.70000  Tot: -0.70000 ]
LCAOMinimize: Iter:   1  F: -42.5547667447678108  |grad|_K:  2.563e-08  alpha:  9.964e-01  linmin: -2.568e-03  cgtest:  2.245e-01  t[s]:      8.52
LCAOMinimize: Encountered beta<0, resetting CG.
LCAOMinimize: 	Wrong curvature in test step, increasing alphaT to 2.989197e+00.
	FillingsUpdate:  mu: -0.101756675  nElectrons: 9.000000  magneticMoment: [ Abs: 0.70000  Tot: -0.70000 ]
LCAOMinimize: Iter:   2  F: -42.5547667447690827  |grad|_K:  1.213e-10  alpha: -1.184e+00  linmin: -6.061e-03  cgtest:  8.348e-02  t[s]:     10.88
LCAOMinimize: Encountered beta<0, resetting CG.
LCAOMinimize: Converged (|Delta F|<1.000000e-06 for 2 iters).


---- Citations for features of the code used in this run ----

   Software package:
      R. Sundararaman, K. Letchworth-Weaver, K.A. Schwarz, D. Gunceler, Y. Ozhabes and T.A. Arias, 'JDFTx: software for joint density-functional theory', SoftwareX 6, 278 (2017)

   gga-PBE exchange-correlation functional:
      J.P. Perdew, K. Burke and M. Ernzerhof, Phys. Rev. Lett. 77, 3865 (1996)

   Pseudopotentials:
      M Schlipf and F Gygi, Comput. Phys. Commun. 196, 36 (2015)

   Truncated Coulomb potentials:
      R. Sundararaman and T.A. Arias, Phys. Rev. B 87, 165122 (2013)

This list may not be complete. Please suggest additional citations or
report any other bugs at https://github.com/shankar1729/jdftx/issues

Initialization completed successfully at t[s]:     10.98


-------- Electronic minimization -----------
Will mix electronic density at each iteration.
	FillingsUpdate:  mu: -0.101756675  nElectrons: 9.000000  magneticMoment: [ Abs: 0.70000  Tot: -0.70000 ]
	FillingsUpdate:  mu: -0.102023035  nElectrons: 9.000000  magneticMoment: [ Abs: 0.70000  Tot: -0.70000 ]
SCF: Cycle:  0   F: -42.555028695334038   dF: -2.620e-04   |Residual|: 2.248e-03   |deigs|: 1.703e-01  t[s]:     15.38
	FillingsUpdate:  mu: -0.102079601  nElectrons: 9.000000  magneticMoment: [ Abs: 0.70161  Tot: -0.70000 ]
SCF: Cycle:  1   F: -42.555031836100994   dF: -3.141e-06   |Residual|: 8.903e-04   |deigs|: 7.918e-03  t[s]:     18.80
	FillingsUpdate:  mu: -0.102024520  nElectrons: 9.000000  magneticMoment: [ Abs: 0.70123  Tot: -0.70000 ]
SCF: Cycle:  2   F: -42.555032477063619   dF: -6.410e-07   |Residual|: 4.538e-04   |deigs|: 2.270e-03  t[s]:     22.23
	FillingsUpdate:  mu: -0.102011184  nElectrons: 9.000000  magneticMoment: [ Abs: 0.70150  Tot: -0.70000 ]
SCF: Cycle:  3   F: -42.555032850480679   dF: -3.734e-07   |Residual|: 2.624e-04   |deigs|: 1.816e-03  t[s]:     25.72
	FillingsUpdate:  mu: -0.101977892  nElectrons: 9.000000  magneticMoment: [ Abs: 0.70137  Tot: -0.70000 ]
SCF: Cycle:  4   F: -42.555033064319538   dF: -2.138e-07   |Residual|: 2.037e-04   |deigs|: 1.102e-03  t[s]:     29.30
	FillingsUpdate:  mu: -0.101905066  nElectrons: 9.000000  magneticMoment: [ Abs: 0.70139  Tot: -0.70000 ]
SCF: Cycle:  5   F: -42.555033395355004   dF: -3.310e-07   |Residual|: 1.375e-04   |deigs|: 7.681e-04  t[s]:     32.97
	FillingsUpdate:  mu: -0.101853450  nElectrons: 9.000000  magneticMoment: [ Abs: 0.70139  Tot: -0.70000 ]
SCF: Cycle:  6   F: -42.555033529675761   dF: -1.343e-07   |Residual|: 1.009e-04   |deigs|: 2.055e-04  t[s]:     36.70
	FillingsUpdate:  mu: -0.101811220  nElectrons: 9.000000  magneticMoment: [ Abs: 0.70141  Tot: -0.70000 ]
SCF: Cycle:  7   F: -42.555033614438187   dF: -8.476e-08   |Residual|: 7.630e-05   |deigs|: 2.714e-04  t[s]:     40.46
	FillingsUpdate:  mu: -0.101784166  nElectrons: 9.000000  magneticMoment: [ Abs: 0.70136  Tot: -0.70000 ]
SCF: Cycle:  8   F: -42.555033665651010   dF: -5.121e-08   |Residual|: 6.233e-05   |deigs|: 5.747e-04  t[s]:     44.27
	FillingsUpdate:  mu: -0.101733579  nElectrons: 9.000000  magneticMoment: [ Abs: 0.70154  Tot: -0.70000 ]
SCF: Cycle:  9   F: -42.555033648411154   dF: +1.724e-08   |Residual|: 4.992e-05   |deigs|: 4.400e-04  t[s]:     48.13
	FillingsUpdate:  mu: -0.101710741  nElectrons: 9.000000  magneticMoment: [ Abs: 0.70148  Tot: -0.70000 ]
SCF: Cycle: 10   F: -42.555033531025110   dF: +1.174e-07   |Residual|: 4.327e-05   |deigs|: 2.103e-04  t[s]:     52.17
	FillingsUpdate:  mu: -0.101669625  nElectrons: 9.000000  magneticMoment: [ Abs: 0.70154  Tot: -0.70000 ]
SCF: Cycle: 11   F: -42.555033333173952   dF: +1.979e-07   |Residual|: 3.530e-05   |deigs|: 2.386e-04  t[s]:     56.12
	FillingsUpdate:  mu: -0.101645114  nElectrons: 9.000000  magneticMoment: [ Abs: 0.70162  Tot: -0.70000 ]
SCF: Cycle: 12   F: -42.555033665145558   dF: -3.320e-07   |Residual|: 3.316e-05   |deigs|: 1.468e-04  t[s]:     60.05
	FillingsUpdate:  mu: -0.101578260  nElectrons: 9.000000  magneticMoment: [ Abs: 0.70170  Tot: -0.70000 ]
SCF: Cycle: 13   F: -42.555033661852335   dF: +3.293e-09   |Residual|: 2.967e-05   |deigs|: 1.165e-04  t[s]:     63.95
	FillingsUpdate:  mu: -0.101470590  nElectrons: 9.000000  magneticMoment: [ Abs: 0.70166  Tot: -0.70000 ]
SCF: Cycle: 14   F: -42.555033611364458   dF: +5.049e-08   |Residual|: 3.023e-05   |deigs|: 1.302e-04  t[s]:     67.99
	FillingsUpdate:  mu: -0.101430660  nElectrons: 9.000000  magneticMoment: [ Abs: 0.70152  Tot: -0.70000 ]
SCF: Cycle: 15   F: -42.555033678100031   dF: -6.674e-08   |Residual|: 2.693e-05   |deigs|: 7.280e-05  t[s]:     72.02
	FillingsUpdate:  mu: -0.101419159  nElectrons: 9.000000  magneticMoment: [ Abs: 0.70146  Tot: -0.70000 ]
SCF: Cycle: 16   F: -42.555033711001819   dF: -3.290e-08   |Residual|: 2.133e-05   |deigs|: 4.929e-05  t[s]:     75.93
	FillingsUpdate:  mu: -0.101358528  nElectrons: 9.000000  magneticMoment: [ Abs: 0.70145  Tot: -0.70000 ]
SCF: Cycle: 17   F: -42.555033725536205   dF: -1.453e-08   |Residual|: 1.778e-05   |deigs|: 6.530e-05  t[s]:     79.85
	FillingsUpdate:  mu: -0.101330222  nElectrons: 9.000000  magneticMoment: [ Abs: 0.70140  Tot: -0.70000 ]
SCF: Cycle: 18   F: -42.555033756875687   dF: -3.134e-08   |Residual|: 1.324e-05   |deigs|: 3.270e-05  t[s]:     83.74
	FillingsUpdate:  mu: -0.101338749  nElectrons: 9.000000  magneticMoment: [ Abs: 0.70139  Tot: -0.70000 ]
SCF: Cycle: 19   F: -42.555033764486133   dF: -7.610e-09   |Residual|: 8.407e-06   |deigs|: 2.434e-05  t[s]:     87.56
	FillingsUpdate:  mu: -0.101337608  nElectrons: 9.000000  magneticMoment: [ Abs: 0.70139  Tot: -0.70000 ]
SCF: Cycle: 20   F: -42.555033767913542   dF: -3.427e-09   |Residual|: 4.968e-06   |deigs|: 1.164e-05  t[s]:     91.45
SCF: Converged (|Delta E|<1.000000e-08 for 2 iters).


# Ionic positions in lattice coordinates:
ion Na   0.000000000000000   0.000000000000000   0.000000000000000 0

# Forces in Lattice coordinates:
force Na  -0.000000000000000  -0.000000000000000   0.000000000000000 0

# Energy components:
   Eewald =      -12.0320174002217755
       EH =       21.7561311389321084
     Eloc =      -54.7910901547570859
      Enl =      -12.9042934161604155
   Epulay =       -0.0000003132867683
      Exc =       -6.2133193960111246
       KE =       21.6295563865928031
-------------------------------------
     Etot =      -42.5550331549122589
       TS =        0.0000006130012820
-------------------------------------
        F =      -42.5550337679135424

IonicMinimize: Iter:   0  F: -42.555033767913542  |grad|_K:  0.000e+00  t[s]:     91.60
IonicMinimize: Converged (|grad|_K<1.000000e-04).

#--- Lowdin population analysis ---
# oxidation-state Na +0.002
# magnetic-moments Na -0.698

End date and time: Sat Feb  5 22:23:07 2022  (Duration: 0-0:01:31.65)
Done!
scale=4
magnetization=-0.7
--------------------------------------------------------------------------
The library attempted to open the following supporting CUDA libraries,
but each of them failed.  CUDA-aware support is disabled.
libcuda.so.1: cannot open shared object file: No such file or directory
libcuda.dylib: cannot open shared object file: No such file or directory
/usr/lib64/libcuda.so.1: cannot open shared object file: No such file or directory
/usr/lib64/libcuda.dylib: cannot open shared object file: No such file or directory
If you are not interested in CUDA-aware support, then run with
--mca opal_warn_on_missing_libcuda 0 to suppress this message.  If you are interested
in CUDA-aware support, then try setting LD_LIBRARY_PATH to the location
of libcuda.so.1 to get passed this issue.
--------------------------------------------------------------------------
--------------------------------------------------------------------------
No OpenFabrics connection schemes reported that they were able to be
used on a specific port.  As such, the openib BTL (OpenFabrics
support) will be disabled for this port.

  Local host:           d-16-1-2
  Local device:         mlx5_1
  Local port:           1
  CPCs attempted:       rdmacm, udcm
--------------------------------------------------------------------------

*************** JDFTx 1.6.0 (git hash 42ebbcc2) ***************

Start date and time: Sat Feb  5 22:23:08 2022
Executable jdftx with command-line: -i Alkali.in
Running on hosts (process indices):  d-16-1-2 (0-18)
Divided in process groups (process indices):  0 (0)  1 (1)  2 (2)  3 (3)  4 (4)  5 (5)  6 (6)  7 (7)  8 (8)  9 (9)  10 (10)  11 (11)  12 (12)  13 (13)  14 (14)  15 (15)  16 (16)  17 (17)  18 (18)
Resource initialization completed at t[s]:      0.00
Run totals: 19 processes, 48 threads, 0 GPUs


Input parsed successfully to the following command list (including defaults):

basis kpoint-dependent
coords-type Lattice
core-overlap-check vector
coulomb-interaction Slab 001
davidson-band-ratio 1.1
dump End None
dump-name $INPUT.$VAR
elec-cutoff 20
elec-eigen-algo Davidson
elec-ex-corr gga-PBE
elec-initial-magnetization -0.700000 yes
elec-smearing Fermi 1e-05
electronic-minimize  \
	dirUpdateScheme      FletcherReeves \
	linminMethod         DirUpdateRecommended \
	nIterations          100 \
	history              15 \
	knormThreshold       0 \
	energyDiffThreshold  1e-08 \
	nEnergyDiff          2 \
	alphaTstart          1 \
	alphaTmin            1e-10 \
	updateTestStepSize   yes \
	alphaTreduceFactor   0.1 \
	alphaTincreaseFactor 3 \
	nAlphaAdjustMax      3 \
	wolfeEnergy          0.0001 \
	wolfeGradient        0.9 \
	fdTest               no
electronic-scf  \
	nIterations	10000 \
	energyDiffThreshold	1e-08 \
	residualThreshold	1e-07 \
	mixFraction	0.5 \
	qMetric	0.8 \
	history	10 \
	nEigSteps	2 \
	eigDiffThreshold	1e-08 \
	mixedVariable	Density \
	qKerker	0.8 \
	qKappa	-1 \
	verbose	no \
	mixFractionMag	1.5
exchange-regularization WignerSeitzTruncated
fluid None
fluid-ex-corr (null) lda-PZ
fluid-gummel-loop 10 1.000000e-05
fluid-minimize  \
	dirUpdateScheme      PolakRibiere \
	linminMethod         DirUpdateRecommended \
	nIterations          100 \
	history              15 \
	knormThreshold       0 \
	energyDiffThreshold  0 \
	nEnergyDiff          2 \
	alphaTstart          1 \
	alphaTmin            1e-10 \
	updateTestStepSize   yes \
	alphaTreduceFactor   0.1 \
	alphaTincreaseFactor 3 \
	nAlphaAdjustMax      3 \
	wolfeEnergy          0.0001 \
	wolfeGradient        0.9 \
	fdTest               no
fluid-solvent H2O 55.338 ScalarEOS \
	epsBulk 78.4 \
	pMol 0.92466 \
	epsInf 1.77 \
	Pvap 1.06736e-10 \
	sigmaBulk 4.62e-05 \
	Rvdw 2.61727 \
	Res 1.42 \
	tauNuc 343133 \
	poleEl 15 7 1
forces-output-coords Positions
ion Na   0.000000000000000   0.000000000000000   0.000000000000000 0
ion-species SG15/$ID_ONCV_PBE.upf
ion-width 0
ionic-minimize  \
	dirUpdateScheme      L-BFGS \
	linminMethod         DirUpdateRecommended \
	nIterations          0 \
	history              15 \
	knormThreshold       0.0001 \
	energyDiffThreshold  1e-06 \
	nEnergyDiff          2 \
	alphaTstart          1 \
	alphaTmin            1e-10 \
	updateTestStepSize   yes \
	alphaTreduceFactor   0.1 \
	alphaTincreaseFactor 3 \
	nAlphaAdjustMax      3 \
	wolfeEnergy          0.0001 \
	wolfeGradient        0.9 \
	fdTest               no
kpoint   0.000000000000   0.000000000000   0.000000000000  1.00000000000000
kpoint-folding 12 12 1 
latt-move-scale 1 1 1
latt-scale 4 4 1 
lattice  \
	   4.727486978767153   -2.363743489383575    0.000000000000000  \
	  -0.000000000000000    4.094123819672498    0.000000000000000  \
	   0.000000000000000    0.000000000000000   40.000000000000000 
lattice-minimize  \
	dirUpdateScheme      L-BFGS \
	linminMethod         DirUpdateRecommended \
	nIterations          0 \
	history              15 \
	knormThreshold       0 \
	energyDiffThreshold  1e-06 \
	nEnergyDiff          2 \
	alphaTstart          1 \
	alphaTmin            1e-10 \
	updateTestStepSize   yes \
	alphaTreduceFactor   0.1 \
	alphaTincreaseFactor 3 \
	nAlphaAdjustMax      3 \
	wolfeEnergy          0.0001 \
	wolfeGradient        0.9 \
	fdTest               no
lcao-params -1 1e-06 1e-05
pcm-variant GLSSA13
spintype z-spin
subspace-rotation-factor 1 yes
symmetries automatic
symmetry-threshold 0.0001



---------- Setting up symmetries ----------

Found 24 point-group symmetries of the bravais lattice
Found 24 space-group symmetries with basis
Applied RMS atom displacement 0 bohrs to make symmetries exact.

---------- Initializing the Grid ----------
R = 
[      18.9099     -9.45497            0  ]
[            0      16.3765            0  ]
[            0            0           40  ]
unit cell volume = 12387.1
G =
[   0.332269   0.191835         -0  ]
[          0   0.383671         -0  ]
[         -0         -0    0.15708  ]
Minimum fftbox size, Smin = [  80  80  164  ]
Chosen fftbox size, S = [  80  80  168  ]

---------- Exchange Correlation functional ----------
Initalized PBE GGA exchange.
Initalized PBE GGA correlation.

---------- Setting up pseudopotentials ----------
Width of ionic core gaussian charges (only for fluid interactions / plotting) set to 0

Reading pseudopotential file '/home/gridsan/aligho/DFT/build-Nov24/pseudopotentials/SG15/Na_ONCV_PBE.upf':
  'Na' pseudopotential, 'PBE' functional
  Generated using ONCVPSP code by D. R. Hamann
  Author: Martin Schlipf and Francois Gygi  Date: 150915.
  9 valence electrons, 3 orbitals, 4 projectors, 1992 radial grid points, with lMax = 1
  Transforming local potential to a uniform radial grid of dG=0.02 with 1489 points.
  Transforming nonlocal projectors to a uniform radial grid of dG=0.02 with 432 points.
    2S    l: 0   occupation:  2.0   eigenvalue: -2.085640
    2P    l: 1   occupation:  6.0   eigenvalue: -1.053708
    3S    l: 0   occupation:  1.0   eigenvalue: -0.100838
  Transforming atomic orbitals to a uniform radial grid of dG=0.02 with 432 points.
  Core radius for overlap checks: 2.01 bohrs.
  Reading pulay file /home/gridsan/aligho/DFT/build-Nov24/pseudopotentials/SG15/Na_ONCV_PBE.pulay ... using dE_dnG = -2.946487e-03 computed for Ecut = 20.

Initialized 1 species with 1 total atoms.

Folded 1 k-points by 12x12x1 to 144 k-points.

---------- Setting up k-points, bands, fillings ----------
Reduced to 19 k-points under symmetry. 
Computing the number of bands and number of electrons
Calculating initial fillings.
nElectrons:   9.000000   nBands: 6   nStates: 38

----- Setting up reduced wavefunction bases (one per k-point) -----
average nbasis = 52924.021 , ideal nbasis = 52918.836

---------- Setting up coulomb interaction ----------
Initialized slab truncation along lattice direction 001

---------- Setting up 2D ewald sum ----------
Optimum gaussian width for ewald sums = 10.498040 bohr.
Real space sums over 289 unit cells with max indices [  8  8  0  ]
Reciprocal space sums over 81 terms with max indices [  4  4  0  ]

---------- Allocating electronic variables ----------
Initializing wave functions:  linear combination of atomic orbitals
Note: number of bands (6) exceeds available atomic orbitals (5)
Na pseudo-atom occupations:   s ( 2 1 )  p ( 6 )
[d-16-1-2:20631] 18 more processes have sent help message help-mpi-common-cuda.txt / dlopen failed
[d-16-1-2:20631] Set MCA parameter "orte_base_help_aggregate" to 0 to see all help / error messages
[d-16-1-2:20631] 18 more processes have sent help message help-mpi-btl-openib-cpc-base.txt / no cpcs for port
	FillingsUpdate:  mu: -0.099914749  nElectrons: 9.000000  magneticMoment: [ Abs: 0.70000  Tot: -0.70000 ]
LCAOMinimize: Iter:   0  F: -42.5532196274693888  |grad|_K:  8.484e-07  alpha:  1.000e+00
	FillingsUpdate:  mu: -0.099914568  nElectrons: 9.000000  magneticMoment: [ Abs: 0.70000  Tot: -0.70000 ]
LCAOMinimize: Iter:   1  F: -42.5532196279602104  |grad|_K:  3.599e-09  alpha:  9.973e-01  linmin:  3.775e-03  cgtest: -1.446e-01  t[s]:     14.76
LCAOMinimize: 	Wrong curvature in test step, increasing alphaT to 2.991776e+00.
	FillingsUpdate:  mu: -0.099914568  nElectrons: 9.000000  magneticMoment: [ Abs: 0.70000  Tot: -0.70000 ]
LCAOMinimize: Iter:   2  F: -42.5532196279603312  |grad|_K:  5.208e-10  alpha: -8.088e-02  linmin:  1.503e-03  cgtest:  1.322e-01  t[s]:     18.67
LCAOMinimize: Converged (|Delta F|<1.000000e-06 for 2 iters).


---- Citations for features of the code used in this run ----

   Software package:
      R. Sundararaman, K. Letchworth-Weaver, K.A. Schwarz, D. Gunceler, Y. Ozhabes and T.A. Arias, 'JDFTx: software for joint density-functional theory', SoftwareX 6, 278 (2017)

   gga-PBE exchange-correlation functional:
      J.P. Perdew, K. Burke and M. Ernzerhof, Phys. Rev. Lett. 77, 3865 (1996)

   Pseudopotentials:
      M Schlipf and F Gygi, Comput. Phys. Commun. 196, 36 (2015)

   Truncated Coulomb potentials:
      R. Sundararaman and T.A. Arias, Phys. Rev. B 87, 165122 (2013)

This list may not be complete. Please suggest additional citations or
report any other bugs at https://github.com/shankar1729/jdftx/issues

Initialization completed successfully at t[s]:     18.82


-------- Electronic minimization -----------
Will mix electronic density at each iteration.
	FillingsUpdate:  mu: -0.099914568  nElectrons: 9.000000  magneticMoment: [ Abs: 0.70000  Tot: -0.70000 ]
	FillingsUpdate:  mu: -0.100043193  nElectrons: 9.000000  magneticMoment: [ Abs: 0.70000  Tot: -0.70000 ]
SCF: Cycle:  0   F: -42.553317531237319   dF: -9.790e-05   |Residual|: 2.282e-03   |deigs|: 1.586e-01  t[s]:     26.32
	FillingsUpdate:  mu: -0.100052648  nElectrons: 9.000000  magneticMoment: [ Abs: 0.70171  Tot: -0.70000 ]
SCF: Cycle:  1   F: -42.553318868840101   dF: -1.338e-06   |Residual|: 9.265e-04   |deigs|: 1.730e-02  t[s]:     32.20
	FillingsUpdate:  mu: -0.099930833  nElectrons: 9.000000  magneticMoment: [ Abs: 0.70127  Tot: -0.70000 ]
SCF: Cycle:  2   F: -42.553319299146736   dF: -4.303e-07   |Residual|: 5.038e-04   |deigs|: 4.739e-03  t[s]:     38.17
	FillingsUpdate:  mu: -0.099814936  nElectrons: 9.000000  magneticMoment: [ Abs: 0.70151  Tot: -0.70000 ]
SCF: Cycle:  3   F: -42.553319490943338   dF: -1.918e-07   |Residual|: 3.011e-04   |deigs|: 1.230e-03  t[s]:     44.31
	FillingsUpdate:  mu: -0.099670937  nElectrons: 9.000000  magneticMoment: [ Abs: 0.70134  Tot: -0.70000 ]
SCF: Cycle:  4   F: -42.553319561247584   dF: -7.030e-08   |Residual|: 1.908e-04   |deigs|: 5.155e-04  t[s]:     50.51
	FillingsUpdate:  mu: -0.099503481  nElectrons: 9.000000  magneticMoment: [ Abs: 0.70137  Tot: -0.70000 ]
SCF: Cycle:  5   F: -42.553319558989806   dF: +2.258e-09   |Residual|: 1.181e-04   |deigs|: 3.814e-04  t[s]:     56.78
	FillingsUpdate:  mu: -0.099458310  nElectrons: 9.000000  magneticMoment: [ Abs: 0.70136  Tot: -0.70000 ]
SCF: Cycle:  6   F: -42.553319618823181   dF: -5.983e-08   |Residual|: 8.115e-05   |deigs|: 9.979e-05  t[s]:     63.17
	FillingsUpdate:  mu: -0.099429027  nElectrons: 9.000000  magneticMoment: [ Abs: 0.70141  Tot: -0.70000 ]
SCF: Cycle:  7   F: -42.553319681742408   dF: -6.292e-08   |Residual|: 5.739e-05   |deigs|: 6.306e-05  t[s]:     69.72
	FillingsUpdate:  mu: -0.099407628  nElectrons: 9.000000  magneticMoment: [ Abs: 0.70137  Tot: -0.70000 ]
SCF: Cycle:  8   F: -42.553319717917915   dF: -3.618e-08   |Residual|: 4.206e-05   |deigs|: 5.808e-05  t[s]:     76.39
	FillingsUpdate:  mu: -0.099397665  nElectrons: 9.000000  magneticMoment: [ Abs: 0.70140  Tot: -0.70000 ]
SCF: Cycle:  9   F: -42.553319726351454   dF: -8.434e-09   |Residual|: 2.651e-05   |deigs|: 3.774e-05  t[s]:     83.20
	FillingsUpdate:  mu: -0.099393177  nElectrons: 9.000000  magneticMoment: [ Abs: 0.70136  Tot: -0.70000 ]
SCF: Cycle: 10   F: -42.553319724903332   dF: +1.448e-09   |Residual|: 2.384e-05   |deigs|: 3.527e-05  t[s]:     90.10
	FillingsUpdate:  mu: -0.099367776  nElectrons: 9.000000  magneticMoment: [ Abs: 0.70139  Tot: -0.70000 ]
SCF: Cycle: 11   F: -42.553319703338083   dF: +2.157e-08   |Residual|: 2.086e-05   |deigs|: 6.671e-05  t[s]:     96.99
	FillingsUpdate:  mu: -0.099356755  nElectrons: 9.000000  magneticMoment: [ Abs: 0.70145  Tot: -0.70000 ]
SCF: Cycle: 12   F: -42.553319692781450   dF: +1.056e-08   |Residual|: 1.758e-05   |deigs|: 5.369e-05  t[s]:    103.94
	FillingsUpdate:  mu: -0.099343306  nElectrons: 9.000000  magneticMoment: [ Abs: 0.70147  Tot: -0.70000 ]
SCF: Cycle: 13   F: -42.553319694506996   dF: -1.726e-09   |Residual|: 1.564e-05   |deigs|: 5.143e-05  t[s]:    110.80
	FillingsUpdate:  mu: -0.099320646  nElectrons: 9.000000  magneticMoment: [ Abs: 0.70150  Tot: -0.70000 ]
SCF: Cycle: 14   F: -42.553319673790277   dF: +2.072e-08   |Residual|: 1.405e-05   |deigs|: 4.593e-05  t[s]:    117.67
	FillingsUpdate:  mu: -0.099310129  nElectrons: 9.000000  magneticMoment: [ Abs: 0.70153  Tot: -0.70000 ]
SCF: Cycle: 15   F: -42.553319652766746   dF: +2.102e-08   |Residual|: 1.347e-05   |deigs|: 3.559e-05  t[s]:    124.46
	FillingsUpdate:  mu: -0.099282792  nElectrons: 9.000000  magneticMoment: [ Abs: 0.70151  Tot: -0.70000 ]
SCF: Cycle: 16   F: -42.553319627898908   dF: +2.487e-08   |Residual|: 1.141e-05   |deigs|: 4.174e-05  t[s]:    131.38
	FillingsUpdate:  mu: -0.099272512  nElectrons: 9.000000  magneticMoment: [ Abs: 0.70149  Tot: -0.70000 ]
SCF: Cycle: 17   F: -42.553319713701200   dF: -8.580e-08   |Residual|: 1.027e-05   |deigs|: 2.376e-05  t[s]:    138.22
	FillingsUpdate:  mu: -0.099265170  nElectrons: 9.000000  magneticMoment: [ Abs: 0.70145  Tot: -0.70000 ]
SCF: Cycle: 18   F: -42.553319623718750   dF: +8.998e-08   |Residual|: 8.334e-06   |deigs|: 1.855e-05  t[s]:    144.96
	FillingsUpdate:  mu: -0.099256486  nElectrons: 9.000000  magneticMoment: [ Abs: 0.70143  Tot: -0.70000 ]
SCF: Cycle: 19   F: -42.553319725556996   dF: -1.018e-07   |Residual|: 5.835e-06   |deigs|: 1.218e-05  t[s]:    151.71
	FillingsUpdate:  mu: -0.099254348  nElectrons: 9.000000  magneticMoment: [ Abs: 0.70143  Tot: -0.70000 ]
SCF: Cycle: 20   F: -42.553319741423543   dF: -1.587e-08   |Residual|: 4.891e-06   |deigs|: 7.087e-06  t[s]:    158.38
	FillingsUpdate:  mu: -0.099250966  nElectrons: 9.000000  magneticMoment: [ Abs: 0.70141  Tot: -0.70000 ]
SCF: Cycle: 21   F: -42.553319727680332   dF: +1.374e-08   |Residual|: 3.464e-06   |deigs|: 6.609e-06  t[s]:    165.17
	FillingsUpdate:  mu: -0.099248660  nElectrons: 9.000000  magneticMoment: [ Abs: 0.70140  Tot: -0.70000 ]
SCF: Cycle: 22   F: -42.553319737624108   dF: -9.944e-09   |Residual|: 2.689e-06   |deigs|: 4.573e-06  t[s]:    171.89
	FillingsUpdate:  mu: -0.099247238  nElectrons: 9.000000  magneticMoment: [ Abs: 0.70139  Tot: -0.70000 ]
SCF: Cycle: 23   F: -42.553319748628738   dF: -1.100e-08   |Residual|: 1.654e-06   |deigs|: 3.522e-06  t[s]:    178.63
	FillingsUpdate:  mu: -0.099246642  nElectrons: 9.000000  magneticMoment: [ Abs: 0.70138  Tot: -0.70000 ]
SCF: Cycle: 24   F: -42.553319751695781   dF: -3.067e-09   |Residual|: 1.176e-06   |deigs|: 2.181e-06  t[s]:    185.25
	FillingsUpdate:  mu: -0.099246423  nElectrons: 9.000000  magneticMoment: [ Abs: 0.70138  Tot: -0.70000 ]
SCF: Cycle: 25   F: -42.553319752908521   dF: -1.213e-09   |Residual|: 7.940e-07   |deigs|: 2.064e-06  t[s]:    191.96
SCF: Converged (|Delta E|<1.000000e-08 for 2 iters).


# Ionic positions in lattice coordinates:
ion Na   0.000000000000000   0.000000000000000   0.000000000000000 0

# Forces in Lattice coordinates:
force Na  -0.000000000000000   0.000000000000000   0.000000000000000 0

# Energy components:
   Eewald =       -9.0240130501663280
       EH =       24.7875771720760554
     Eloc =      -60.8326865132927210
      Enl =      -12.9032599282537603
   Epulay =        0.0000012333957556
      Exc =       -6.2150469195720239
       KE =       21.6341091419855331
-------------------------------------
     Etot =      -42.5533188638274851
       TS =        0.0000008890810393
-------------------------------------
        F =      -42.5533197529085214

IonicMinimize: Iter:   0  F: -42.553319752908521  |grad|_K:  0.000e+00  t[s]:    192.21
IonicMinimize: Converged (|grad|_K<1.000000e-04).

#--- Lowdin population analysis ---
# oxidation-state Na +0.000
# magnetic-moments Na -0.700

End date and time: Sat Feb  5 22:26:20 2022  (Duration: 0-0:03:12.29)
Done!
