The alkali metal is Na
scale=2
magnetization=0.34
--------------------------------------------------------------------------
The library attempted to open the following supporting CUDA libraries,
but each of them failed.  CUDA-aware support is disabled.
libcuda.so.1: cannot open shared object file: No such file or directory
libcuda.dylib: cannot open shared object file: No such file or directory
/usr/lib64/libcuda.so.1: cannot open shared object file: No such file or directory
/usr/lib64/libcuda.dylib: cannot open shared object file: No such file or directory
If you are not interested in CUDA-aware support, then run with
--mca opal_warn_on_missing_libcuda 0 to suppress this message.  If you are interested
in CUDA-aware support, then try setting LD_LIBRARY_PATH to the location
of libcuda.so.1 to get passed this issue.
--------------------------------------------------------------------------
--------------------------------------------------------------------------
No OpenFabrics connection schemes reported that they were able to be
used on a specific port.  As such, the openib BTL (OpenFabrics
support) will be disabled for this port.

  Local host:           d-6-7-4
  Local device:         mlx5_1
  Local port:           1
  CPCs attempted:       rdmacm, udcm
--------------------------------------------------------------------------

*************** JDFTx 1.6.0 (git hash 42ebbcc2) ***************

Start date and time: Sat Feb  5 22:30:34 2022
Executable jdftx with command-line: -i Alkali.in
Running on hosts (process indices):  d-6-7-4 (0-18)
Divided in process groups (process indices):  0 (0)  1 (1)  2 (2)  3 (3)  4 (4)  5 (5)  6 (6)  7 (7)  8 (8)  9 (9)  10 (10)  11 (11)  12 (12)  13 (13)  14 (14)  15 (15)  16 (16)  17 (17)  18 (18)
Resource initialization completed at t[s]:      0.00
Run totals: 19 processes, 48 threads, 0 GPUs


Input parsed successfully to the following command list (including defaults):

basis kpoint-dependent
coords-type Lattice
core-overlap-check vector
coulomb-interaction Slab 001
davidson-band-ratio 1.1
dump End None
dump-name $INPUT.$VAR
elec-cutoff 20
elec-eigen-algo Davidson
elec-ex-corr gga-PBE
elec-initial-magnetization 0.340000 yes
elec-smearing Fermi 1e-05
electronic-minimize  \
	dirUpdateScheme      FletcherReeves \
	linminMethod         DirUpdateRecommended \
	nIterations          100 \
	history              15 \
	knormThreshold       0 \
	energyDiffThreshold  1e-08 \
	nEnergyDiff          2 \
	alphaTstart          1 \
	alphaTmin            1e-10 \
	updateTestStepSize   yes \
	alphaTreduceFactor   0.1 \
	alphaTincreaseFactor 3 \
	nAlphaAdjustMax      3 \
	wolfeEnergy          0.0001 \
	wolfeGradient        0.9 \
	fdTest               no
electronic-scf  \
	nIterations	10000 \
	energyDiffThreshold	1e-08 \
	residualThreshold	1e-07 \
	mixFraction	0.5 \
	qMetric	0.8 \
	history	10 \
	nEigSteps	2 \
	eigDiffThreshold	1e-08 \
	mixedVariable	Density \
	qKerker	0.8 \
	qKappa	-1 \
	verbose	no \
	mixFractionMag	1.5
exchange-regularization WignerSeitzTruncated
fluid None
fluid-ex-corr (null) lda-PZ
fluid-gummel-loop 10 1.000000e-05
fluid-minimize  \
	dirUpdateScheme      PolakRibiere \
	linminMethod         DirUpdateRecommended \
	nIterations          100 \
	history              15 \
	knormThreshold       0 \
	energyDiffThreshold  0 \
	nEnergyDiff          2 \
	alphaTstart          1 \
	alphaTmin            1e-10 \
	updateTestStepSize   yes \
	alphaTreduceFactor   0.1 \
	alphaTincreaseFactor 3 \
	nAlphaAdjustMax      3 \
	wolfeEnergy          0.0001 \
	wolfeGradient        0.9 \
	fdTest               no
fluid-solvent H2O 55.338 ScalarEOS \
	epsBulk 78.4 \
	pMol 0.92466 \
	epsInf 1.77 \
	Pvap 1.06736e-10 \
	sigmaBulk 4.62e-05 \
	Rvdw 2.61727 \
	Res 1.42 \
	tauNuc 343133 \
	poleEl 15 7 1
forces-output-coords Positions
ion Na   0.000000000000000   0.000000000000000   0.000000000000000 0
ion-species SG15/$ID_ONCV_PBE.upf
ion-width 0
ionic-minimize  \
	dirUpdateScheme      L-BFGS \
	linminMethod         DirUpdateRecommended \
	nIterations          0 \
	history              15 \
	knormThreshold       0.0001 \
	energyDiffThreshold  1e-06 \
	nEnergyDiff          2 \
	alphaTstart          1 \
	alphaTmin            1e-10 \
	updateTestStepSize   yes \
	alphaTreduceFactor   0.1 \
	alphaTincreaseFactor 3 \
	nAlphaAdjustMax      3 \
	wolfeEnergy          0.0001 \
	wolfeGradient        0.9 \
	fdTest               no
kpoint   0.000000000000   0.000000000000   0.000000000000  1.00000000000000
kpoint-folding 12 12 1 
latt-move-scale 1 1 1
latt-scale 2 2 1 
lattice  \
	   4.727486978767153   -2.363743489383575    0.000000000000000  \
	  -0.000000000000000    4.094123819672498    0.000000000000000  \
	   0.000000000000000    0.000000000000000   40.000000000000000 
lattice-minimize  \
	dirUpdateScheme      L-BFGS \
	linminMethod         DirUpdateRecommended \
	nIterations          0 \
	history              15 \
	knormThreshold       0 \
	energyDiffThreshold  1e-06 \
	nEnergyDiff          2 \
	alphaTstart          1 \
	alphaTmin            1e-10 \
	updateTestStepSize   yes \
	alphaTreduceFactor   0.1 \
	alphaTincreaseFactor 3 \
	nAlphaAdjustMax      3 \
	wolfeEnergy          0.0001 \
	wolfeGradient        0.9 \
	fdTest               no
lcao-params -1 1e-06 1e-05
pcm-variant GLSSA13
spintype z-spin
subspace-rotation-factor 1 yes
symmetries automatic
symmetry-threshold 0.0001



---------- Setting up symmetries ----------

Found 24 point-group symmetries of the bravais lattice
Found 24 space-group symmetries with basis
Applied RMS atom displacement 0 bohrs to make symmetries exact.

---------- Initializing the Grid ----------
R = 
[      9.45497     -4.72749            0  ]
[            0      8.18825            0  ]
[            0            0           40  ]
unit cell volume = 3096.79
G =
[   0.664538   0.383671         -0  ]
[          0   0.767342         -0  ]
[         -0         -0    0.15708  ]
Minimum fftbox size, Smin = [  40  40  164  ]
Chosen fftbox size, S = [  40  40  168  ]

---------- Exchange Correlation functional ----------
Initalized PBE GGA exchange.
Initalized PBE GGA correlation.

---------- Setting up pseudopotentials ----------
Width of ionic core gaussian charges (only for fluid interactions / plotting) set to 0

Reading pseudopotential file '/home/gridsan/aligho/DFT/build-Nov24/pseudopotentials/SG15/Na_ONCV_PBE.upf':
  'Na' pseudopotential, 'PBE' functional
  Generated using ONCVPSP code by D. R. Hamann
  Author: Martin Schlipf and Francois Gygi  Date: 150915.
  9 valence electrons, 3 orbitals, 4 projectors, 1992 radial grid points, with lMax = 1
  Transforming local potential to a uniform radial grid of dG=0.02 with 1489 points.
  Transforming nonlocal projectors to a uniform radial grid of dG=0.02 with 432 points.
    2S    l: 0   occupation:  2.0   eigenvalue: -2.085640
    2P    l: 1   occupation:  6.0   eigenvalue: -1.053708
    3S    l: 0   occupation:  1.0   eigenvalue: -0.100838
  Transforming atomic orbitals to a uniform radial grid of dG=0.02 with 432 points.
  Core radius for overlap checks: 2.01 bohrs.
  Reading pulay file /home/gridsan/aligho/DFT/build-Nov24/pseudopotentials/SG15/Na_ONCV_PBE.pulay ... using dE_dnG = -2.946487e-03 computed for Ecut = 20.

Initialized 1 species with 1 total atoms.

Folded 1 k-points by 12x12x1 to 144 k-points.

---------- Setting up k-points, bands, fillings ----------
Reduced to 19 k-points under symmetry. 
Computing the number of bands and number of electrons
Calculating initial fillings.
nElectrons:   9.000000   nBands: 6   nStates: 38

----- Setting up reduced wavefunction bases (one per k-point) -----
average nbasis = 13230.521 , ideal nbasis = 13229.709

---------- Setting up coulomb interaction ----------
Initialized slab truncation along lattice direction 001

---------- Setting up 2D ewald sum ----------
Optimum gaussian width for ewald sums = 5.249020 bohr.
Real space sums over 289 unit cells with max indices [  8  8  0  ]
Reciprocal space sums over 81 terms with max indices [  4  4  0  ]

---------- Allocating electronic variables ----------
Initializing wave functions:  linear combination of atomic orbitals
Note: number of bands (6) exceeds available atomic orbitals (5)
Na pseudo-atom occupations:   s ( 2 1 )  p ( 6 )
	FillingsUpdate:  mu: -0.104599614  nElectrons: 9.000000  magneticMoment: [ Abs: 0.34000  Tot: +0.34000 ]
LCAOMinimize: Iter:   0  F: -42.5670380106500801  |grad|_K:  3.018e-05  alpha:  1.000e+00
	FillingsUpdate:  mu: -0.104598586  nElectrons: 9.000000  magneticMoment: [ Abs: 0.34000  Tot: +0.34000 ]
LCAOMinimize: Iter:   1  F: -42.5670386269865659  |grad|_K:  2.828e-07  alpha:  9.895e-01  linmin: -1.904e-02  cgtest:  6.710e-01  t[s]:      4.42
LCAOMinimize: Encountered beta<0, resetting CG.
[d-6-7-4:94665] 18 more processes have sent help message help-mpi-common-cuda.txt / dlopen failed
[d-6-7-4:94665] Set MCA parameter "orte_base_help_aggregate" to 0 to see all help / error messages
[d-6-7-4:94665] 18 more processes have sent help message help-mpi-btl-openib-cpc-base.txt / no cpcs for port
	FillingsUpdate:  mu: -0.104598637  nElectrons: 9.000000  magneticMoment: [ Abs: 0.34000  Tot: +0.34000 ]
LCAOMinimize: Iter:   2  F: -42.5670386270408301  |grad|_K:  5.709e-10  alpha:  1.002e+00  linmin:  1.071e-02  cgtest: -1.397e-01  t[s]:      5.60
LCAOMinimize: Converged (|Delta F|<1.000000e-06 for 2 iters).


---- Citations for features of the code used in this run ----

   Software package:
      R. Sundararaman, K. Letchworth-Weaver, K.A. Schwarz, D. Gunceler, Y. Ozhabes and T.A. Arias, 'JDFTx: software for joint density-functional theory', SoftwareX 6, 278 (2017)

   gga-PBE exchange-correlation functional:
      J.P. Perdew, K. Burke and M. Ernzerhof, Phys. Rev. Lett. 77, 3865 (1996)

   Pseudopotentials:
      M Schlipf and F Gygi, Comput. Phys. Commun. 196, 36 (2015)

   Truncated Coulomb potentials:
      R. Sundararaman and T.A. Arias, Phys. Rev. B 87, 165122 (2013)

This list may not be complete. Please suggest additional citations or
report any other bugs at https://github.com/shankar1729/jdftx/issues

Initialization completed successfully at t[s]:      5.66


-------- Electronic minimization -----------
Will mix electronic density at each iteration.
	FillingsUpdate:  mu: -0.104598637  nElectrons: 9.000000  magneticMoment: [ Abs: 0.34000  Tot: +0.34000 ]
	FillingsUpdate:  mu: -0.112322809  nElectrons: 9.000000  magneticMoment: [ Abs: 0.34000  Tot: +0.34000 ]
SCF: Cycle:  0   F: -42.571555110092405   dF: -4.516e-03   |Residual|: 8.442e-03   |deigs|: 1.705e-01  t[s]:      7.90
	FillingsUpdate:  mu: -0.112329180  nElectrons: 9.000000  magneticMoment: [ Abs: 0.34000  Tot: +0.34000 ]
SCF: Cycle:  1   F: -42.571643917048895   dF: -8.881e-05   |Residual|: 5.757e-03   |deigs|: 8.831e-03  t[s]:      9.53
	FillingsUpdate:  mu: -0.112157833  nElectrons: 9.000000  magneticMoment: [ Abs: 0.34129  Tot: +0.34000 ]
SCF: Cycle:  2   F: -42.571661561121132   dF: -1.764e-05   |Residual|: 3.159e-03   |deigs|: 6.241e-03  t[s]:     11.24
	FillingsUpdate:  mu: -0.111935023  nElectrons: 9.000000  magneticMoment: [ Abs: 0.34003  Tot: +0.34000 ]
SCF: Cycle:  3   F: -42.571666200263408   dF: -4.639e-06   |Residual|: 1.809e-03   |deigs|: 5.603e-03  t[s]:     12.92
	FillingsUpdate:  mu: -0.111487464  nElectrons: 9.000000  magneticMoment: [ Abs: 0.34004  Tot: +0.34000 ]
SCF: Cycle:  4   F: -42.571674423288712   dF: -8.223e-06   |Residual|: 8.982e-04   |deigs|: 3.054e-03  t[s]:     14.70
	FillingsUpdate:  mu: -0.111132539  nElectrons: 9.000000  magneticMoment: [ Abs: 0.34015  Tot: +0.34000 ]
SCF: Cycle:  5   F: -42.571675470114378   dF: -1.047e-06   |Residual|: 7.360e-04   |deigs|: 1.833e-03  t[s]:     16.39
	FillingsUpdate:  mu: -0.110368303  nElectrons: 9.000000  magneticMoment: [ Abs: 0.34101  Tot: +0.34000 ]
SCF: Cycle:  6   F: -42.571675704209156   dF: -2.341e-07   |Residual|: 5.465e-04   |deigs|: 1.288e-03  t[s]:     18.17
	FillingsUpdate:  mu: -0.109568929  nElectrons: 9.000000  magneticMoment: [ Abs: 0.34195  Tot: +0.34000 ]
SCF: Cycle:  7   F: -42.571674863155373   dF: +8.411e-07   |Residual|: 4.016e-04   |deigs|: 1.091e-03  t[s]:     20.03
	FillingsUpdate:  mu: -0.108936563  nElectrons: 9.000000  magneticMoment: [ Abs: 0.34132  Tot: +0.34000 ]
SCF: Cycle:  8   F: -42.571675026165039   dF: -1.630e-07   |Residual|: 3.471e-04   |deigs|: 8.543e-04  t[s]:     21.87
	FillingsUpdate:  mu: -0.108692323  nElectrons: 9.000000  magneticMoment: [ Abs: 0.34051  Tot: +0.34000 ]
SCF: Cycle:  9   F: -42.571676443260117   dF: -1.417e-06   |Residual|: 2.778e-04   |deigs|: 2.864e-04  t[s]:     23.73
	FillingsUpdate:  mu: -0.108401483  nElectrons: 9.000000  magneticMoment: [ Abs: 0.34119  Tot: +0.34000 ]
SCF: Cycle: 10   F: -42.571677045166673   dF: -6.019e-07   |Residual|: 2.308e-04   |deigs|: 2.388e-04  t[s]:     25.58
	FillingsUpdate:  mu: -0.107907812  nElectrons: 9.000000  magneticMoment: [ Abs: 0.34120  Tot: +0.34000 ]
SCF: Cycle: 11   F: -42.571675900015912   dF: +1.145e-06   |Residual|: 2.123e-04   |deigs|: 5.435e-04  t[s]:     27.39
	FillingsUpdate:  mu: -0.107249927  nElectrons: 9.000000  magneticMoment: [ Abs: 0.34059  Tot: +0.34000 ]
SCF: Cycle: 12   F: -42.571675737326721   dF: +1.627e-07   |Residual|: 1.949e-04   |deigs|: 6.841e-04  t[s]:     29.18
	FillingsUpdate:  mu: -0.106844521  nElectrons: 9.000000  magneticMoment: [ Abs: 0.34136  Tot: +0.34000 ]
SCF: Cycle: 13   F: -42.571677194349903   dF: -1.457e-06   |Residual|: 1.713e-04   |deigs|: 3.899e-04  t[s]:     31.00
	FillingsUpdate:  mu: -0.106568888  nElectrons: 9.000000  magneticMoment: [ Abs: 0.34099  Tot: +0.34000 ]
SCF: Cycle: 14   F: -42.571678048656111   dF: -8.543e-07   |Residual|: 1.595e-04   |deigs|: 2.916e-04  t[s]:     32.82
	FillingsUpdate:  mu: -0.106078563  nElectrons: 9.000000  magneticMoment: [ Abs: 0.34047  Tot: +0.34000 ]
SCF: Cycle: 15   F: -42.571678444718003   dF: -3.961e-07   |Residual|: 1.520e-04   |deigs|: 5.415e-04  t[s]:     34.66
	FillingsUpdate:  mu: -0.105589392  nElectrons: 9.000000  magneticMoment: [ Abs: 0.34029  Tot: +0.34000 ]
SCF: Cycle: 16   F: -42.571678855499826   dF: -4.108e-07   |Residual|: 1.096e-04   |deigs|: 5.011e-04  t[s]:     36.44
	FillingsUpdate:  mu: -0.105314241  nElectrons: 9.000000  magneticMoment: [ Abs: 0.34031  Tot: +0.34000 ]
SCF: Cycle: 17   F: -42.571679003076113   dF: -1.476e-07   |Residual|: 6.503e-05   |deigs|: 2.487e-04  t[s]:     38.25
	FillingsUpdate:  mu: -0.105265146  nElectrons: 9.000000  magneticMoment: [ Abs: 0.34021  Tot: +0.34000 ]
SCF: Cycle: 18   F: -42.571679027587777   dF: -2.451e-08   |Residual|: 5.014e-05   |deigs|: 1.047e-03  t[s]:     40.04
	FillingsUpdate:  mu: -0.105221440  nElectrons: 9.000000  magneticMoment: [ Abs: 0.34013  Tot: +0.34000 ]
SCF: Cycle: 19   F: -42.571679046157499   dF: -1.857e-08   |Residual|: 2.686e-05   |deigs|: 9.562e-05  t[s]:     41.92
	FillingsUpdate:  mu: -0.105213864  nElectrons: 9.000000  magneticMoment: [ Abs: 0.34021  Tot: +0.34000 ]
SCF: Cycle: 20   F: -42.571679053848541   dF: -7.691e-09   |Residual|: 1.229e-05   |deigs|: 6.891e-05  t[s]:     43.70
	FillingsUpdate:  mu: -0.105207579  nElectrons: 9.000000  magneticMoment: [ Abs: 0.34018  Tot: +0.34000 ]
SCF: Cycle: 21   F: -42.571679055184653   dF: -1.336e-09   |Residual|: 8.153e-06   |deigs|: 9.624e-04  t[s]:     45.52
SCF: Converged (|Delta E|<1.000000e-08 for 2 iters).


# Ionic positions in lattice coordinates:
ion Na   0.000000000000000   0.000000000000000   0.000000000000000 0

# Forces in Lattice coordinates:
force Na  -0.000000000000000   0.000000000000000   0.000000000000000 0

# Energy components:
   Eewald =      -18.0480261003326561
       EH =       15.7271102430933301
     Eloc =      -42.7387872924232681
      Enl =      -12.9133203868456246
   Epulay =        0.0000007725295140
      Exc =       -6.2169847555884417
       KE =       21.6183291392052084
-------------------------------------
     Etot =      -42.5716783803619521
       TS =        0.0000006748227032
-------------------------------------
        F =      -42.5716790551846529

IonicMinimize: Iter:   0  F: -42.571679055184653  |grad|_K:  0.000e+00  t[s]:     45.60
IonicMinimize: Converged (|grad|_K<1.000000e-04).

#--- Lowdin population analysis ---
# oxidation-state Na +0.047
# magnetic-moments Na +0.304

End date and time: Sat Feb  5 22:31:20 2022  (Duration: 0-0:00:45.63)
Done!
scale=3
magnetization=0.34
--------------------------------------------------------------------------
The library attempted to open the following supporting CUDA libraries,
but each of them failed.  CUDA-aware support is disabled.
libcuda.so.1: cannot open shared object file: No such file or directory
libcuda.dylib: cannot open shared object file: No such file or directory
/usr/lib64/libcuda.so.1: cannot open shared object file: No such file or directory
/usr/lib64/libcuda.dylib: cannot open shared object file: No such file or directory
If you are not interested in CUDA-aware support, then run with
--mca opal_warn_on_missing_libcuda 0 to suppress this message.  If you are interested
in CUDA-aware support, then try setting LD_LIBRARY_PATH to the location
of libcuda.so.1 to get passed this issue.
--------------------------------------------------------------------------
--------------------------------------------------------------------------
No OpenFabrics connection schemes reported that they were able to be
used on a specific port.  As such, the openib BTL (OpenFabrics
support) will be disabled for this port.

  Local host:           d-6-7-4
  Local device:         mlx5_1
  Local port:           1
  CPCs attempted:       rdmacm, udcm
--------------------------------------------------------------------------

*************** JDFTx 1.6.0 (git hash 42ebbcc2) ***************

Start date and time: Sat Feb  5 22:31:21 2022
Executable jdftx with command-line: -i Alkali.in
Running on hosts (process indices):  d-6-7-4 (0-18)
Divided in process groups (process indices):  0 (0)  1 (1)  2 (2)  3 (3)  4 (4)  5 (5)  6 (6)  7 (7)  8 (8)  9 (9)  10 (10)  11 (11)  12 (12)  13 (13)  14 (14)  15 (15)  16 (16)  17 (17)  18 (18)
Resource initialization completed at t[s]:      0.00
Run totals: 19 processes, 48 threads, 0 GPUs


Input parsed successfully to the following command list (including defaults):

basis kpoint-dependent
coords-type Lattice
core-overlap-check vector
coulomb-interaction Slab 001
davidson-band-ratio 1.1
dump End None
dump-name $INPUT.$VAR
elec-cutoff 20
elec-eigen-algo Davidson
elec-ex-corr gga-PBE
elec-initial-magnetization 0.340000 yes
elec-smearing Fermi 1e-05
electronic-minimize  \
	dirUpdateScheme      FletcherReeves \
	linminMethod         DirUpdateRecommended \
	nIterations          100 \
	history              15 \
	knormThreshold       0 \
	energyDiffThreshold  1e-08 \
	nEnergyDiff          2 \
	alphaTstart          1 \
	alphaTmin            1e-10 \
	updateTestStepSize   yes \
	alphaTreduceFactor   0.1 \
	alphaTincreaseFactor 3 \
	nAlphaAdjustMax      3 \
	wolfeEnergy          0.0001 \
	wolfeGradient        0.9 \
	fdTest               no
electronic-scf  \
	nIterations	10000 \
	energyDiffThreshold	1e-08 \
	residualThreshold	1e-07 \
	mixFraction	0.5 \
	qMetric	0.8 \
	history	10 \
	nEigSteps	2 \
	eigDiffThreshold	1e-08 \
	mixedVariable	Density \
	qKerker	0.8 \
	qKappa	-1 \
	verbose	no \
	mixFractionMag	1.5
exchange-regularization WignerSeitzTruncated
fluid None
fluid-ex-corr (null) lda-PZ
fluid-gummel-loop 10 1.000000e-05
fluid-minimize  \
	dirUpdateScheme      PolakRibiere \
	linminMethod         DirUpdateRecommended \
	nIterations          100 \
	history              15 \
	knormThreshold       0 \
	energyDiffThreshold  0 \
	nEnergyDiff          2 \
	alphaTstart          1 \
	alphaTmin            1e-10 \
	updateTestStepSize   yes \
	alphaTreduceFactor   0.1 \
	alphaTincreaseFactor 3 \
	nAlphaAdjustMax      3 \
	wolfeEnergy          0.0001 \
	wolfeGradient        0.9 \
	fdTest               no
fluid-solvent H2O 55.338 ScalarEOS \
	epsBulk 78.4 \
	pMol 0.92466 \
	epsInf 1.77 \
	Pvap 1.06736e-10 \
	sigmaBulk 4.62e-05 \
	Rvdw 2.61727 \
	Res 1.42 \
	tauNuc 343133 \
	poleEl 15 7 1
forces-output-coords Positions
ion Na   0.000000000000000   0.000000000000000   0.000000000000000 0
ion-species SG15/$ID_ONCV_PBE.upf
ion-width 0
ionic-minimize  \
	dirUpdateScheme      L-BFGS \
	linminMethod         DirUpdateRecommended \
	nIterations          0 \
	history              15 \
	knormThreshold       0.0001 \
	energyDiffThreshold  1e-06 \
	nEnergyDiff          2 \
	alphaTstart          1 \
	alphaTmin            1e-10 \
	updateTestStepSize   yes \
	alphaTreduceFactor   0.1 \
	alphaTincreaseFactor 3 \
	nAlphaAdjustMax      3 \
	wolfeEnergy          0.0001 \
	wolfeGradient        0.9 \
	fdTest               no
kpoint   0.000000000000   0.000000000000   0.000000000000  1.00000000000000
kpoint-folding 12 12 1 
latt-move-scale 1 1 1
latt-scale 3 3 1 
lattice  \
	   4.727486978767153   -2.363743489383575    0.000000000000000  \
	  -0.000000000000000    4.094123819672498    0.000000000000000  \
	   0.000000000000000    0.000000000000000   40.000000000000000 
lattice-minimize  \
	dirUpdateScheme      L-BFGS \
	linminMethod         DirUpdateRecommended \
	nIterations          0 \
	history              15 \
	knormThreshold       0 \
	energyDiffThreshold  1e-06 \
	nEnergyDiff          2 \
	alphaTstart          1 \
	alphaTmin            1e-10 \
	updateTestStepSize   yes \
	alphaTreduceFactor   0.1 \
	alphaTincreaseFactor 3 \
	nAlphaAdjustMax      3 \
	wolfeEnergy          0.0001 \
	wolfeGradient        0.9 \
	fdTest               no
lcao-params -1 1e-06 1e-05
pcm-variant GLSSA13
spintype z-spin
subspace-rotation-factor 1 yes
symmetries automatic
symmetry-threshold 0.0001



---------- Setting up symmetries ----------

Found 24 point-group symmetries of the bravais lattice
Found 24 space-group symmetries with basis
Applied RMS atom displacement 0 bohrs to make symmetries exact.

---------- Initializing the Grid ----------
R = 
[      14.1825     -7.09123            0  ]
[            0      12.2824            0  ]
[            0            0           40  ]
unit cell volume = 6967.77
G =
[   0.443025   0.255781         -0  ]
[          0   0.511561         -0  ]
[         -0         -0    0.15708  ]
Minimum fftbox size, Smin = [  60  60  164  ]
Chosen fftbox size, S = [  60  60  168  ]

---------- Exchange Correlation functional ----------
Initalized PBE GGA exchange.
Initalized PBE GGA correlation.

---------- Setting up pseudopotentials ----------
Width of ionic core gaussian charges (only for fluid interactions / plotting) set to 0

Reading pseudopotential file '/home/gridsan/aligho/DFT/build-Nov24/pseudopotentials/SG15/Na_ONCV_PBE.upf':
  'Na' pseudopotential, 'PBE' functional
  Generated using ONCVPSP code by D. R. Hamann
  Author: Martin Schlipf and Francois Gygi  Date: 150915.
  9 valence electrons, 3 orbitals, 4 projectors, 1992 radial grid points, with lMax = 1
  Transforming local potential to a uniform radial grid of dG=0.02 with 1489 points.
  Transforming nonlocal projectors to a uniform radial grid of dG=0.02 with 432 points.
    2S    l: 0   occupation:  2.0   eigenvalue: -2.085640
    2P    l: 1   occupation:  6.0   eigenvalue: -1.053708
    3S    l: 0   occupation:  1.0   eigenvalue: -0.100838
  Transforming atomic orbitals to a uniform radial grid of dG=0.02 with 432 points.
  Core radius for overlap checks: 2.01 bohrs.
  Reading pulay file /home/gridsan/aligho/DFT/build-Nov24/pseudopotentials/SG15/Na_ONCV_PBE.pulay ... using dE_dnG = -2.946487e-03 computed for Ecut = 20.

Initialized 1 species with 1 total atoms.

Folded 1 k-points by 12x12x1 to 144 k-points.

---------- Setting up k-points, bands, fillings ----------
Reduced to 19 k-points under symmetry. 
Computing the number of bands and number of electrons
Calculating initial fillings.
nElectrons:   9.000000   nBands: 6   nStates: 38

----- Setting up reduced wavefunction bases (one per k-point) -----
average nbasis = 29766.104 , ideal nbasis = 29766.845

---------- Setting up coulomb interaction ----------
Initialized slab truncation along lattice direction 001

---------- Setting up 2D ewald sum ----------
Optimum gaussian width for ewald sums = 7.873530 bohr.
Real space sums over 289 unit cells with max indices [  8  8  0  ]
Reciprocal space sums over 81 terms with max indices [  4  4  0  ]

---------- Allocating electronic variables ----------
Initializing wave functions:  linear combination of atomic orbitals
Note: number of bands (6) exceeds available atomic orbitals (5)
Na pseudo-atom occupations:   s ( 2 1 )  p ( 6 )
[d-6-7-4:28838] 18 more processes have sent help message help-mpi-common-cuda.txt / dlopen failed
[d-6-7-4:28838] Set MCA parameter "orte_base_help_aggregate" to 0 to see all help / error messages
[d-6-7-4:28838] 18 more processes have sent help message help-mpi-btl-openib-cpc-base.txt / no cpcs for port
	FillingsUpdate:  mu: -0.101861718  nElectrons: 9.000000  magneticMoment: [ Abs: 0.34000  Tot: +0.34000 ]
LCAOMinimize: Iter:   0  F: -42.5532400048831576  |grad|_K:  8.113e-06  alpha:  1.000e+00
	FillingsUpdate:  mu: -0.101859998  nElectrons: 9.000000  magneticMoment: [ Abs: 0.34000  Tot: +0.34000 ]
LCAOMinimize: Iter:   1  F: -42.5532400496345886  |grad|_K:  4.352e-08  alpha:  9.941e-01  linmin: -9.033e-04  cgtest:  3.511e-01  t[s]:      8.47
LCAOMinimize: Encountered beta<0, resetting CG.
	FillingsUpdate:  mu: -0.101859996  nElectrons: 9.000000  magneticMoment: [ Abs: 0.34000  Tot: +0.34000 ]
LCAOMinimize: Iter:   2  F: -42.5532400496357184  |grad|_K:  2.135e-09  alpha:  1.048e+00  linmin:  5.733e-03  cgtest: -9.963e-01  t[s]:     10.78
LCAOMinimize: Converged (|Delta F|<1.000000e-06 for 2 iters).


---- Citations for features of the code used in this run ----

   Software package:
      R. Sundararaman, K. Letchworth-Weaver, K.A. Schwarz, D. Gunceler, Y. Ozhabes and T.A. Arias, 'JDFTx: software for joint density-functional theory', SoftwareX 6, 278 (2017)

   gga-PBE exchange-correlation functional:
      J.P. Perdew, K. Burke and M. Ernzerhof, Phys. Rev. Lett. 77, 3865 (1996)

   Pseudopotentials:
      M Schlipf and F Gygi, Comput. Phys. Commun. 196, 36 (2015)

   Truncated Coulomb potentials:
      R. Sundararaman and T.A. Arias, Phys. Rev. B 87, 165122 (2013)

This list may not be complete. Please suggest additional citations or
report any other bugs at https://github.com/shankar1729/jdftx/issues

Initialization completed successfully at t[s]:     10.88


-------- Electronic minimization -----------
Will mix electronic density at each iteration.
	FillingsUpdate:  mu: -0.101859996  nElectrons: 9.000000  magneticMoment: [ Abs: 0.34000  Tot: +0.34000 ]
	FillingsUpdate:  mu: -0.102190280  nElectrons: 9.000000  magneticMoment: [ Abs: 0.34000  Tot: +0.34000 ]
SCF: Cycle:  0   F: -42.553559531907716   dF: -3.195e-04   |Residual|: 2.075e-03   |deigs|: 1.735e-01  t[s]:     15.19
	FillingsUpdate:  mu: -0.102294063  nElectrons: 9.000000  magneticMoment: [ Abs: 0.34058  Tot: +0.34000 ]
SCF: Cycle:  1   F: -42.553565080225788   dF: -5.548e-06   |Residual|: 1.179e-03   |deigs|: 5.394e-03  t[s]:     18.56
	FillingsUpdate:  mu: -0.102427373  nElectrons: 9.000000  magneticMoment: [ Abs: 0.34047  Tot: +0.34000 ]
SCF: Cycle:  2   F: -42.553566973491883   dF: -1.893e-06   |Residual|: 6.666e-04   |deigs|: 2.657e-03  t[s]:     21.96
	FillingsUpdate:  mu: -0.102532722  nElectrons: 9.000000  magneticMoment: [ Abs: 0.34065  Tot: +0.34000 ]
SCF: Cycle:  3   F: -42.553568259211268   dF: -1.286e-06   |Residual|: 5.109e-04   |deigs|: 2.002e-03  t[s]:     25.45
	FillingsUpdate:  mu: -0.102698064  nElectrons: 9.000000  magneticMoment: [ Abs: 0.34045  Tot: +0.34000 ]
SCF: Cycle:  4   F: -42.553570281674638   dF: -2.022e-06   |Residual|: 2.610e-04   |deigs|: 1.178e-03  t[s]:     28.96
	FillingsUpdate:  mu: -0.102771197  nElectrons: 9.000000  magneticMoment: [ Abs: 0.34065  Tot: +0.34000 ]
SCF: Cycle:  5   F: -42.553570980777238   dF: -6.991e-07   |Residual|: 1.536e-04   |deigs|: 1.072e-03  t[s]:     32.53
	FillingsUpdate:  mu: -0.102757855  nElectrons: 9.000000  magneticMoment: [ Abs: 0.34054  Tot: +0.34000 ]
SCF: Cycle:  6   F: -42.553571280941696   dF: -3.002e-07   |Residual|: 9.726e-05   |deigs|: 1.240e-03  t[s]:     36.20
	FillingsUpdate:  mu: -0.102737300  nElectrons: 9.000000  magneticMoment: [ Abs: 0.34061  Tot: +0.34000 ]
SCF: Cycle:  7   F: -42.553571406474070   dF: -1.255e-07   |Residual|: 7.037e-05   |deigs|: 4.495e-04  t[s]:     39.95
	FillingsUpdate:  mu: -0.102682421  nElectrons: 9.000000  magneticMoment: [ Abs: 0.34056  Tot: +0.34000 ]
SCF: Cycle:  8   F: -42.553571469873098   dF: -6.340e-08   |Residual|: 5.402e-05   |deigs|: 1.340e-03  t[s]:     43.77
	FillingsUpdate:  mu: -0.102651025  nElectrons: 9.000000  magneticMoment: [ Abs: 0.34060  Tot: +0.34000 ]
SCF: Cycle:  9   F: -42.553571474046251   dF: -4.173e-09   |Residual|: 4.556e-05   |deigs|: 3.442e-04  t[s]:     47.68
	FillingsUpdate:  mu: -0.102610454  nElectrons: 9.000000  magneticMoment: [ Abs: 0.34062  Tot: +0.34000 ]
SCF: Cycle: 10   F: -42.553571481686326   dF: -7.640e-09   |Residual|: 4.006e-05   |deigs|: 1.211e-04  t[s]:     51.59
SCF: Converged (|Delta E|<1.000000e-08 for 2 iters).


# Ionic positions in lattice coordinates:
ion Na   0.000000000000000   0.000000000000000   0.000000000000000 0

# Forces in Lattice coordinates:
force Na   0.000000000000000   0.000000000000000   0.000000000000000 0

# Energy components:
   Eewald =      -12.0320174002217755
       EH =       21.7166278468039380
     Eloc =      -54.7483213457152758
      Enl =      -12.9045647919923283
   Epulay =       -0.0000003132867683
      Exc =       -6.2074525611608156
       KE =       21.6221578621582182
-------------------------------------
     Etot =      -42.5535707034148061
       TS =        0.0000007782715217
-------------------------------------
        F =      -42.5535714816863262

IonicMinimize: Iter:   0  F: -42.553571481686326  |grad|_K:  0.000e+00  t[s]:     51.73
IonicMinimize: Converged (|grad|_K<1.000000e-04).

#--- Lowdin population analysis ---
# oxidation-state Na +0.004
# magnetic-moments Na +0.339

End date and time: Sat Feb  5 22:32:12 2022  (Duration: 0-0:00:51.77)
Done!
scale=4
magnetization=0.34
--------------------------------------------------------------------------
The library attempted to open the following supporting CUDA libraries,
but each of them failed.  CUDA-aware support is disabled.
libcuda.so.1: cannot open shared object file: No such file or directory
libcuda.dylib: cannot open shared object file: No such file or directory
/usr/lib64/libcuda.so.1: cannot open shared object file: No such file or directory
/usr/lib64/libcuda.dylib: cannot open shared object file: No such file or directory
If you are not interested in CUDA-aware support, then run with
--mca opal_warn_on_missing_libcuda 0 to suppress this message.  If you are interested
in CUDA-aware support, then try setting LD_LIBRARY_PATH to the location
of libcuda.so.1 to get passed this issue.
--------------------------------------------------------------------------
--------------------------------------------------------------------------
No OpenFabrics connection schemes reported that they were able to be
used on a specific port.  As such, the openib BTL (OpenFabrics
support) will be disabled for this port.

  Local host:           d-6-7-4
  Local device:         mlx5_1
  Local port:           1
  CPCs attempted:       rdmacm, udcm
--------------------------------------------------------------------------

*************** JDFTx 1.6.0 (git hash 42ebbcc2) ***************

Start date and time: Sat Feb  5 22:32:14 2022
Executable jdftx with command-line: -i Alkali.in
Running on hosts (process indices):  d-6-7-4 (0-18)
Divided in process groups (process indices):  0 (0)  1 (1)  2 (2)  3 (3)  4 (4)  5 (5)  6 (6)  7 (7)  8 (8)  9 (9)  10 (10)  11 (11)  12 (12)  13 (13)  14 (14)  15 (15)  16 (16)  17 (17)  18 (18)
Resource initialization completed at t[s]:      0.00
Run totals: 19 processes, 48 threads, 0 GPUs


Input parsed successfully to the following command list (including defaults):

basis kpoint-dependent
coords-type Lattice
core-overlap-check vector
coulomb-interaction Slab 001
davidson-band-ratio 1.1
dump End None
dump-name $INPUT.$VAR
elec-cutoff 20
elec-eigen-algo Davidson
elec-ex-corr gga-PBE
elec-initial-magnetization 0.340000 yes
elec-smearing Fermi 1e-05
electronic-minimize  \
	dirUpdateScheme      FletcherReeves \
	linminMethod         DirUpdateRecommended \
	nIterations          100 \
	history              15 \
	knormThreshold       0 \
	energyDiffThreshold  1e-08 \
	nEnergyDiff          2 \
	alphaTstart          1 \
	alphaTmin            1e-10 \
	updateTestStepSize   yes \
	alphaTreduceFactor   0.1 \
	alphaTincreaseFactor 3 \
	nAlphaAdjustMax      3 \
	wolfeEnergy          0.0001 \
	wolfeGradient        0.9 \
	fdTest               no
electronic-scf  \
	nIterations	10000 \
	energyDiffThreshold	1e-08 \
	residualThreshold	1e-07 \
	mixFraction	0.5 \
	qMetric	0.8 \
	history	10 \
	nEigSteps	2 \
	eigDiffThreshold	1e-08 \
	mixedVariable	Density \
	qKerker	0.8 \
	qKappa	-1 \
	verbose	no \
	mixFractionMag	1.5
exchange-regularization WignerSeitzTruncated
fluid None
fluid-ex-corr (null) lda-PZ
fluid-gummel-loop 10 1.000000e-05
fluid-minimize  \
	dirUpdateScheme      PolakRibiere \
	linminMethod         DirUpdateRecommended \
	nIterations          100 \
	history              15 \
	knormThreshold       0 \
	energyDiffThreshold  0 \
	nEnergyDiff          2 \
	alphaTstart          1 \
	alphaTmin            1e-10 \
	updateTestStepSize   yes \
	alphaTreduceFactor   0.1 \
	alphaTincreaseFactor 3 \
	nAlphaAdjustMax      3 \
	wolfeEnergy          0.0001 \
	wolfeGradient        0.9 \
	fdTest               no
fluid-solvent H2O 55.338 ScalarEOS \
	epsBulk 78.4 \
	pMol 0.92466 \
	epsInf 1.77 \
	Pvap 1.06736e-10 \
	sigmaBulk 4.62e-05 \
	Rvdw 2.61727 \
	Res 1.42 \
	tauNuc 343133 \
	poleEl 15 7 1
forces-output-coords Positions
ion Na   0.000000000000000   0.000000000000000   0.000000000000000 0
ion-species SG15/$ID_ONCV_PBE.upf
ion-width 0
ionic-minimize  \
	dirUpdateScheme      L-BFGS \
	linminMethod         DirUpdateRecommended \
	nIterations          0 \
	history              15 \
	knormThreshold       0.0001 \
	energyDiffThreshold  1e-06 \
	nEnergyDiff          2 \
	alphaTstart          1 \
	alphaTmin            1e-10 \
	updateTestStepSize   yes \
	alphaTreduceFactor   0.1 \
	alphaTincreaseFactor 3 \
	nAlphaAdjustMax      3 \
	wolfeEnergy          0.0001 \
	wolfeGradient        0.9 \
	fdTest               no
kpoint   0.000000000000   0.000000000000   0.000000000000  1.00000000000000
kpoint-folding 12 12 1 
latt-move-scale 1 1 1
latt-scale 4 4 1 
lattice  \
	   4.727486978767153   -2.363743489383575    0.000000000000000  \
	  -0.000000000000000    4.094123819672498    0.000000000000000  \
	   0.000000000000000    0.000000000000000   40.000000000000000 
lattice-minimize  \
	dirUpdateScheme      L-BFGS \
	linminMethod         DirUpdateRecommended \
	nIterations          0 \
	history              15 \
	knormThreshold       0 \
	energyDiffThreshold  1e-06 \
	nEnergyDiff          2 \
	alphaTstart          1 \
	alphaTmin            1e-10 \
	updateTestStepSize   yes \
	alphaTreduceFactor   0.1 \
	alphaTincreaseFactor 3 \
	nAlphaAdjustMax      3 \
	wolfeEnergy          0.0001 \
	wolfeGradient        0.9 \
	fdTest               no
lcao-params -1 1e-06 1e-05
pcm-variant GLSSA13
spintype z-spin
subspace-rotation-factor 1 yes
symmetries automatic
symmetry-threshold 0.0001



---------- Setting up symmetries ----------

Found 24 point-group symmetries of the bravais lattice
Found 24 space-group symmetries with basis
Applied RMS atom displacement 0 bohrs to make symmetries exact.

---------- Initializing the Grid ----------
R = 
[      18.9099     -9.45497            0  ]
[            0      16.3765            0  ]
[            0            0           40  ]
unit cell volume = 12387.1
G =
[   0.332269   0.191835         -0  ]
[          0   0.383671         -0  ]
[         -0         -0    0.15708  ]
Minimum fftbox size, Smin = [  80  80  164  ]
Chosen fftbox size, S = [  80  80  168  ]

---------- Exchange Correlation functional ----------
Initalized PBE GGA exchange.
Initalized PBE GGA correlation.

---------- Setting up pseudopotentials ----------
Width of ionic core gaussian charges (only for fluid interactions / plotting) set to 0

Reading pseudopotential file '/home/gridsan/aligho/DFT/build-Nov24/pseudopotentials/SG15/Na_ONCV_PBE.upf':
  'Na' pseudopotential, 'PBE' functional
  Generated using ONCVPSP code by D. R. Hamann
  Author: Martin Schlipf and Francois Gygi  Date: 150915.
  9 valence electrons, 3 orbitals, 4 projectors, 1992 radial grid points, with lMax = 1
  Transforming local potential to a uniform radial grid of dG=0.02 with 1489 points.
  Transforming nonlocal projectors to a uniform radial grid of dG=0.02 with 432 points.
    2S    l: 0   occupation:  2.0   eigenvalue: -2.085640
    2P    l: 1   occupation:  6.0   eigenvalue: -1.053708
    3S    l: 0   occupation:  1.0   eigenvalue: -0.100838
  Transforming atomic orbitals to a uniform radial grid of dG=0.02 with 432 points.
  Core radius for overlap checks: 2.01 bohrs.
  Reading pulay file /home/gridsan/aligho/DFT/build-Nov24/pseudopotentials/SG15/Na_ONCV_PBE.pulay ... using dE_dnG = -2.946487e-03 computed for Ecut = 20.

Initialized 1 species with 1 total atoms.

Folded 1 k-points by 12x12x1 to 144 k-points.

---------- Setting up k-points, bands, fillings ----------
Reduced to 19 k-points under symmetry. 
Computing the number of bands and number of electrons
Calculating initial fillings.
nElectrons:   9.000000   nBands: 6   nStates: 38

----- Setting up reduced wavefunction bases (one per k-point) -----
average nbasis = 52924.021 , ideal nbasis = 52918.836

---------- Setting up coulomb interaction ----------
Initialized slab truncation along lattice direction 001

---------- Setting up 2D ewald sum ----------
Optimum gaussian width for ewald sums = 10.498040 bohr.
Real space sums over 289 unit cells with max indices [  8  8  0  ]
Reciprocal space sums over 81 terms with max indices [  4  4  0  ]

---------- Allocating electronic variables ----------
Initializing wave functions:  linear combination of atomic orbitals
Note: number of bands (6) exceeds available atomic orbitals (5)
Na pseudo-atom occupations:   s ( 2 1 )  p ( 6 )
[d-6-7-4:57118] 18 more processes have sent help message help-mpi-common-cuda.txt / dlopen failed
[d-6-7-4:57118] Set MCA parameter "orte_base_help_aggregate" to 0 to see all help / error messages
[d-6-7-4:57118] 18 more processes have sent help message help-mpi-btl-openib-cpc-base.txt / no cpcs for port
	FillingsUpdate:  mu: -0.100920653  nElectrons: 9.000000  magneticMoment: [ Abs: 0.34000  Tot: +0.34000 ]
LCAOMinimize: Iter:   0  F: -42.5505713027182821  |grad|_K:  1.141e-06  alpha:  1.000e+00
	FillingsUpdate:  mu: -0.100920431  nElectrons: 9.000000  magneticMoment: [ Abs: 0.34000  Tot: +0.34000 ]
LCAOMinimize: Iter:   1  F: -42.5505713036033484  |grad|_K:  5.033e-09  alpha:  9.936e-01  linmin: -2.430e-03  cgtest:  2.209e-01  t[s]:     14.60
LCAOMinimize: Encountered beta<0, resetting CG.
LCAOMinimize: 	Wrong curvature in test step, increasing alphaT to 2.980857e+00.
	FillingsUpdate:  mu: -0.100920431  nElectrons: 9.000000  magneticMoment: [ Abs: 0.34000  Tot: +0.34000 ]
LCAOMinimize: Iter:   2  F: -42.5505713036036255  |grad|_K:  3.052e-11  alpha: -7.080e-02  linmin: -9.826e-03  cgtest:  8.277e-01  t[s]:     18.51
LCAOMinimize: Encountered beta<0, resetting CG.
LCAOMinimize: Converged (|Delta F|<1.000000e-06 for 2 iters).


---- Citations for features of the code used in this run ----

   Software package:
      R. Sundararaman, K. Letchworth-Weaver, K.A. Schwarz, D. Gunceler, Y. Ozhabes and T.A. Arias, 'JDFTx: software for joint density-functional theory', SoftwareX 6, 278 (2017)

   gga-PBE exchange-correlation functional:
      J.P. Perdew, K. Burke and M. Ernzerhof, Phys. Rev. Lett. 77, 3865 (1996)

   Pseudopotentials:
      M Schlipf and F Gygi, Comput. Phys. Commun. 196, 36 (2015)

   Truncated Coulomb potentials:
      R. Sundararaman and T.A. Arias, Phys. Rev. B 87, 165122 (2013)

This list may not be complete. Please suggest additional citations or
report any other bugs at https://github.com/shankar1729/jdftx/issues

Initialization completed successfully at t[s]:     18.66


-------- Electronic minimization -----------
Will mix electronic density at each iteration.
	FillingsUpdate:  mu: -0.100920431  nElectrons: 9.000000  magneticMoment: [ Abs: 0.34000  Tot: +0.34000 ]
	FillingsUpdate:  mu: -0.100954898  nElectrons: 9.000000  magneticMoment: [ Abs: 0.34000  Tot: +0.34000 ]
SCF: Cycle:  0   F: -42.550610886980174   dF: -3.958e-05   |Residual|: 1.874e-03   |deigs|: 1.684e-01  t[s]:     26.14
	FillingsUpdate:  mu: -0.100956447  nElectrons: 9.000000  magneticMoment: [ Abs: 0.34063  Tot: +0.34000 ]
SCF: Cycle:  1   F: -42.550611332924198   dF: -4.459e-07   |Residual|: 8.426e-04   |deigs|: 1.214e-02  t[s]:     31.97
	FillingsUpdate:  mu: -0.100963564  nElectrons: 9.000000  magneticMoment: [ Abs: 0.34048  Tot: +0.34000 ]
SCF: Cycle:  2   F: -42.550611450957000   dF: -1.180e-07   |Residual|: 2.088e-04   |deigs|: 1.807e-03  t[s]:     37.85
	FillingsUpdate:  mu: -0.100965007  nElectrons: 9.000000  magneticMoment: [ Abs: 0.34059  Tot: +0.34000 ]
SCF: Cycle:  3   F: -42.550611478886609   dF: -2.793e-08   |Residual|: 8.041e-05   |deigs|: 2.562e-04  t[s]:     43.80
	FillingsUpdate:  mu: -0.100963983  nElectrons: 9.000000  magneticMoment: [ Abs: 0.34055  Tot: +0.34000 ]
SCF: Cycle:  4   F: -42.550611488673120   dF: -9.787e-09   |Residual|: 5.140e-05   |deigs|: 3.166e-04  t[s]:     49.93
	FillingsUpdate:  mu: -0.100962617  nElectrons: 9.000000  magneticMoment: [ Abs: 0.34057  Tot: +0.34000 ]
SCF: Cycle:  5   F: -42.550611502171499   dF: -1.350e-08   |Residual|: 3.820e-05   |deigs|: 2.241e-04  t[s]:     56.17
	FillingsUpdate:  mu: -0.100959948  nElectrons: 9.000000  magneticMoment: [ Abs: 0.34055  Tot: +0.34000 ]
SCF: Cycle:  6   F: -42.550611506843985   dF: -4.672e-09   |Residual|: 2.715e-05   |deigs|: 2.056e-04  t[s]:     62.53
	FillingsUpdate:  mu: -0.100953779  nElectrons: 9.000000  magneticMoment: [ Abs: 0.34058  Tot: +0.34000 ]
SCF: Cycle:  7   F: -42.550611510917506   dF: -4.074e-09   |Residual|: 2.390e-05   |deigs|: 2.027e-04  t[s]:     68.97
SCF: Converged (|Delta E|<1.000000e-08 for 2 iters).


# Ionic positions in lattice coordinates:
ion Na   0.000000000000000   0.000000000000000   0.000000000000000 0

# Forces in Lattice coordinates:
force Na  -0.000000000000000   0.000000000000000   0.000000000000000 0

# Energy components:
   Eewald =       -9.0240130501663280
       EH =       24.7686387789403106
     Eloc =      -60.8124054645241614
      Enl =      -12.9027398998558773
   Epulay =        0.0000012333957556
      Exc =       -6.2106211411246335
       KE =       21.6305296232228521
-------------------------------------
     Etot =      -42.5506099201120662
       TS =        0.0000015908054404
-------------------------------------
        F =      -42.5506115109175056

IonicMinimize: Iter:   0  F: -42.550611510917506  |grad|_K:  0.000e+00  t[s]:     69.20
IonicMinimize: Converged (|grad|_K<1.000000e-04).

#--- Lowdin population analysis ---
# oxidation-state Na +0.000
# magnetic-moments Na +0.340

End date and time: Sat Feb  5 22:33:23 2022  (Duration: 0-0:01:09.28)
Done!
