The alkali metal is Na
scale=2
magnetization=-0.18
--------------------------------------------------------------------------
The library attempted to open the following supporting CUDA libraries,
but each of them failed.  CUDA-aware support is disabled.
libcuda.so.1: cannot open shared object file: No such file or directory
libcuda.dylib: cannot open shared object file: No such file or directory
/usr/lib64/libcuda.so.1: cannot open shared object file: No such file or directory
/usr/lib64/libcuda.dylib: cannot open shared object file: No such file or directory
If you are not interested in CUDA-aware support, then run with
--mca opal_warn_on_missing_libcuda 0 to suppress this message.  If you are interested
in CUDA-aware support, then try setting LD_LIBRARY_PATH to the location
of libcuda.so.1 to get passed this issue.
--------------------------------------------------------------------------
--------------------------------------------------------------------------
No OpenFabrics connection schemes reported that they were able to be
used on a specific port.  As such, the openib BTL (OpenFabrics
support) will be disabled for this port.

  Local host:           d-6-3-2
  Local device:         mlx5_1
  Local port:           1
  CPCs attempted:       rdmacm, udcm
--------------------------------------------------------------------------

*************** JDFTx 1.6.0 (git hash 42ebbcc2) ***************

Start date and time: Sat Feb  5 22:27:05 2022
Executable jdftx with command-line: -i Alkali.in
Running on hosts (process indices):  d-6-3-2 (0-18)
Divided in process groups (process indices):  0 (0)  1 (1)  2 (2)  3 (3)  4 (4)  5 (5)  6 (6)  7 (7)  8 (8)  9 (9)  10 (10)  11 (11)  12 (12)  13 (13)  14 (14)  15 (15)  16 (16)  17 (17)  18 (18)
Resource initialization completed at t[s]:      0.00
Run totals: 19 processes, 48 threads, 0 GPUs


Input parsed successfully to the following command list (including defaults):

basis kpoint-dependent
coords-type Lattice
core-overlap-check vector
coulomb-interaction Slab 001
davidson-band-ratio 1.1
dump End None
dump-name $INPUT.$VAR
elec-cutoff 20
elec-eigen-algo Davidson
elec-ex-corr gga-PBE
elec-initial-magnetization -0.180000 yes
elec-smearing Fermi 1e-05
electronic-minimize  \
	dirUpdateScheme      FletcherReeves \
	linminMethod         DirUpdateRecommended \
	nIterations          100 \
	history              15 \
	knormThreshold       0 \
	energyDiffThreshold  1e-08 \
	nEnergyDiff          2 \
	alphaTstart          1 \
	alphaTmin            1e-10 \
	updateTestStepSize   yes \
	alphaTreduceFactor   0.1 \
	alphaTincreaseFactor 3 \
	nAlphaAdjustMax      3 \
	wolfeEnergy          0.0001 \
	wolfeGradient        0.9 \
	fdTest               no
electronic-scf  \
	nIterations	10000 \
	energyDiffThreshold	1e-08 \
	residualThreshold	1e-07 \
	mixFraction	0.5 \
	qMetric	0.8 \
	history	10 \
	nEigSteps	2 \
	eigDiffThreshold	1e-08 \
	mixedVariable	Density \
	qKerker	0.8 \
	qKappa	-1 \
	verbose	no \
	mixFractionMag	1.5
exchange-regularization WignerSeitzTruncated
fluid None
fluid-ex-corr (null) lda-PZ
fluid-gummel-loop 10 1.000000e-05
fluid-minimize  \
	dirUpdateScheme      PolakRibiere \
	linminMethod         DirUpdateRecommended \
	nIterations          100 \
	history              15 \
	knormThreshold       0 \
	energyDiffThreshold  0 \
	nEnergyDiff          2 \
	alphaTstart          1 \
	alphaTmin            1e-10 \
	updateTestStepSize   yes \
	alphaTreduceFactor   0.1 \
	alphaTincreaseFactor 3 \
	nAlphaAdjustMax      3 \
	wolfeEnergy          0.0001 \
	wolfeGradient        0.9 \
	fdTest               no
fluid-solvent H2O 55.338 ScalarEOS \
	epsBulk 78.4 \
	pMol 0.92466 \
	epsInf 1.77 \
	Pvap 1.06736e-10 \
	sigmaBulk 4.62e-05 \
	Rvdw 2.61727 \
	Res 1.42 \
	tauNuc 343133 \
	poleEl 15 7 1
forces-output-coords Positions
ion Na   0.000000000000000   0.000000000000000   0.000000000000000 0
ion-species SG15/$ID_ONCV_PBE.upf
ion-width 0
ionic-minimize  \
	dirUpdateScheme      L-BFGS \
	linminMethod         DirUpdateRecommended \
	nIterations          0 \
	history              15 \
	knormThreshold       0.0001 \
	energyDiffThreshold  1e-06 \
	nEnergyDiff          2 \
	alphaTstart          1 \
	alphaTmin            1e-10 \
	updateTestStepSize   yes \
	alphaTreduceFactor   0.1 \
	alphaTincreaseFactor 3 \
	nAlphaAdjustMax      3 \
	wolfeEnergy          0.0001 \
	wolfeGradient        0.9 \
	fdTest               no
kpoint   0.000000000000   0.000000000000   0.000000000000  1.00000000000000
kpoint-folding 12 12 1 
latt-move-scale 1 1 1
latt-scale 2 2 1 
lattice  \
	   4.727486978767153   -2.363743489383575    0.000000000000000  \
	  -0.000000000000000    4.094123819672498    0.000000000000000  \
	   0.000000000000000    0.000000000000000   40.000000000000000 
lattice-minimize  \
	dirUpdateScheme      L-BFGS \
	linminMethod         DirUpdateRecommended \
	nIterations          0 \
	history              15 \
	knormThreshold       0 \
	energyDiffThreshold  1e-06 \
	nEnergyDiff          2 \
	alphaTstart          1 \
	alphaTmin            1e-10 \
	updateTestStepSize   yes \
	alphaTreduceFactor   0.1 \
	alphaTincreaseFactor 3 \
	nAlphaAdjustMax      3 \
	wolfeEnergy          0.0001 \
	wolfeGradient        0.9 \
	fdTest               no
lcao-params -1 1e-06 1e-05
pcm-variant GLSSA13
spintype z-spin
subspace-rotation-factor 1 yes
symmetries automatic
symmetry-threshold 0.0001



---------- Setting up symmetries ----------

Found 24 point-group symmetries of the bravais lattice
Found 24 space-group symmetries with basis
Applied RMS atom displacement 0 bohrs to make symmetries exact.

---------- Initializing the Grid ----------
R = 
[      9.45497     -4.72749            0  ]
[            0      8.18825            0  ]
[            0            0           40  ]
unit cell volume = 3096.79
G =
[   0.664538   0.383671         -0  ]
[          0   0.767342         -0  ]
[         -0         -0    0.15708  ]
Minimum fftbox size, Smin = [  40  40  164  ]
Chosen fftbox size, S = [  40  40  168  ]

---------- Exchange Correlation functional ----------
Initalized PBE GGA exchange.
Initalized PBE GGA correlation.

---------- Setting up pseudopotentials ----------
Width of ionic core gaussian charges (only for fluid interactions / plotting) set to 0

Reading pseudopotential file '/home/gridsan/aligho/DFT/build-Nov24/pseudopotentials/SG15/Na_ONCV_PBE.upf':
  'Na' pseudopotential, 'PBE' functional
  Generated using ONCVPSP code by D. R. Hamann
  Author: Martin Schlipf and Francois Gygi  Date: 150915.
  9 valence electrons, 3 orbitals, 4 projectors, 1992 radial grid points, with lMax = 1
  Transforming local potential to a uniform radial grid of dG=0.02 with 1489 points.
  Transforming nonlocal projectors to a uniform radial grid of dG=0.02 with 432 points.
    2S    l: 0   occupation:  2.0   eigenvalue: -2.085640
    2P    l: 1   occupation:  6.0   eigenvalue: -1.053708
    3S    l: 0   occupation:  1.0   eigenvalue: -0.100838
  Transforming atomic orbitals to a uniform radial grid of dG=0.02 with 432 points.
  Core radius for overlap checks: 2.01 bohrs.
  Reading pulay file /home/gridsan/aligho/DFT/build-Nov24/pseudopotentials/SG15/Na_ONCV_PBE.pulay ... using dE_dnG = -2.946487e-03 computed for Ecut = 20.

Initialized 1 species with 1 total atoms.

Folded 1 k-points by 12x12x1 to 144 k-points.

---------- Setting up k-points, bands, fillings ----------
Reduced to 19 k-points under symmetry. 
Computing the number of bands and number of electrons
Calculating initial fillings.
nElectrons:   9.000000   nBands: 6   nStates: 38

----- Setting up reduced wavefunction bases (one per k-point) -----
average nbasis = 13230.521 , ideal nbasis = 13229.709

---------- Setting up coulomb interaction ----------
Initialized slab truncation along lattice direction 001

---------- Setting up 2D ewald sum ----------
Optimum gaussian width for ewald sums = 5.249020 bohr.
Real space sums over 289 unit cells with max indices [  8  8  0  ]
Reciprocal space sums over 81 terms with max indices [  4  4  0  ]

---------- Allocating electronic variables ----------
Initializing wave functions:  linear combination of atomic orbitals
Note: number of bands (6) exceeds available atomic orbitals (5)
Na pseudo-atom occupations:   s ( 2 1 )  p ( 6 )
	FillingsUpdate:  mu: -0.108677587  nElectrons: 9.000000  magneticMoment: [ Abs: 0.18000  Tot: -0.18000 ]
LCAOMinimize: Iter:   0  F: -42.5687139645005459  |grad|_K:  3.035e-05  alpha:  1.000e+00
	FillingsUpdate:  mu: -0.108673323  nElectrons: 9.000000  magneticMoment: [ Abs: 0.18000  Tot: -0.18000 ]
LCAOMinimize: Iter:   1  F: -42.5687145858170197  |grad|_K:  2.876e-07  alpha:  9.866e-01  linmin: -1.734e-02  cgtest:  7.090e-01  t[s]:      4.55
LCAOMinimize: Encountered beta<0, resetting CG.
[d-6-3-2:15423] 18 more processes have sent help message help-mpi-common-cuda.txt / dlopen failed
[d-6-3-2:15423] Set MCA parameter "orte_base_help_aggregate" to 0 to see all help / error messages
[d-6-3-2:15423] 18 more processes have sent help message help-mpi-btl-openib-cpc-base.txt / no cpcs for port
	FillingsUpdate:  mu: -0.108673333  nElectrons: 9.000000  magneticMoment: [ Abs: 0.18000  Tot: -0.18000 ]
LCAOMinimize: Iter:   2  F: -42.5687145858738560  |grad|_K:  2.261e-09  alpha:  1.009e+00  linmin:  3.069e-02  cgtest: -9.908e-01  t[s]:      5.73
LCAOMinimize: Converged (|Delta F|<1.000000e-06 for 2 iters).


---- Citations for features of the code used in this run ----

   Software package:
      R. Sundararaman, K. Letchworth-Weaver, K.A. Schwarz, D. Gunceler, Y. Ozhabes and T.A. Arias, 'JDFTx: software for joint density-functional theory', SoftwareX 6, 278 (2017)

   gga-PBE exchange-correlation functional:
      J.P. Perdew, K. Burke and M. Ernzerhof, Phys. Rev. Lett. 77, 3865 (1996)

   Pseudopotentials:
      M Schlipf and F Gygi, Comput. Phys. Commun. 196, 36 (2015)

   Truncated Coulomb potentials:
      R. Sundararaman and T.A. Arias, Phys. Rev. B 87, 165122 (2013)

This list may not be complete. Please suggest additional citations or
report any other bugs at https://github.com/shankar1729/jdftx/issues

Initialization completed successfully at t[s]:      5.79


-------- Electronic minimization -----------
Will mix electronic density at each iteration.
	FillingsUpdate:  mu: -0.108673333  nElectrons: 9.000000  magneticMoment: [ Abs: 0.18000  Tot: -0.18000 ]
	FillingsUpdate:  mu: -0.115910631  nElectrons: 9.000000  magneticMoment: [ Abs: 0.18000  Tot: -0.18000 ]
SCF: Cycle:  0   F: -42.572854965617665   dF: -4.140e-03   |Residual|: 7.299e-03   |deigs|: 1.706e-01  t[s]:      8.08
	FillingsUpdate:  mu: -0.116043827  nElectrons: 9.000000  magneticMoment: [ Abs: 0.18000  Tot: -0.18000 ]
SCF: Cycle:  1   F: -42.572924152777169   dF: -6.919e-05   |Residual|: 5.177e-03   |deigs|: 8.883e-03  t[s]:      9.75
	FillingsUpdate:  mu: -0.115841693  nElectrons: 9.000000  magneticMoment: [ Abs: 0.18124  Tot: -0.18000 ]
SCF: Cycle:  2   F: -42.572941492941766   dF: -1.734e-05   |Residual|: 2.439e-03   |deigs|: 6.898e-03  t[s]:     11.47
	FillingsUpdate:  mu: -0.115480697  nElectrons: 9.000000  magneticMoment: [ Abs: 0.18001  Tot: -0.18000 ]
SCF: Cycle:  3   F: -42.572946373446072   dF: -4.881e-06   |Residual|: 1.409e-03   |deigs|: 4.242e-03  t[s]:     13.19
	FillingsUpdate:  mu: -0.114945202  nElectrons: 9.000000  magneticMoment: [ Abs: 0.18001  Tot: -0.18000 ]
SCF: Cycle:  4   F: -42.572948765682469   dF: -2.392e-06   |Residual|: 8.487e-04   |deigs|: 1.209e-03  t[s]:     14.96
	FillingsUpdate:  mu: -0.114530526  nElectrons: 9.000000  magneticMoment: [ Abs: 0.18008  Tot: -0.18000 ]
SCF: Cycle:  5   F: -42.572949044179957   dF: -2.785e-07   |Residual|: 6.947e-04   |deigs|: 4.255e-03  t[s]:     16.69
	FillingsUpdate:  mu: -0.113492110  nElectrons: 9.000000  magneticMoment: [ Abs: 0.18121  Tot: -0.18000 ]
SCF: Cycle:  6   F: -42.572948961933207   dF: +8.225e-08   |Residual|: 4.963e-04   |deigs|: 1.573e-03  t[s]:     18.47
	FillingsUpdate:  mu: -0.112887502  nElectrons: 9.000000  magneticMoment: [ Abs: 0.18121  Tot: -0.18000 ]
SCF: Cycle:  7   F: -42.572948533181567   dF: +4.288e-07   |Residual|: 3.800e-04   |deigs|: 8.343e-04  t[s]:     20.29
	FillingsUpdate:  mu: -0.112291475  nElectrons: 9.000000  magneticMoment: [ Abs: 0.18069  Tot: -0.18000 ]
SCF: Cycle:  8   F: -42.572949833584204   dF: -1.300e-06   |Residual|: 3.371e-04   |deigs|: 8.011e-04  t[s]:     22.21
	FillingsUpdate:  mu: -0.112156274  nElectrons: 9.000000  magneticMoment: [ Abs: 0.18039  Tot: -0.18000 ]
SCF: Cycle:  9   F: -42.572950536141491   dF: -7.026e-07   |Residual|: 2.425e-04   |deigs|: 2.304e-04  t[s]:     24.01
	FillingsUpdate:  mu: -0.111628476  nElectrons: 9.000000  magneticMoment: [ Abs: 0.18085  Tot: -0.18000 ]
SCF: Cycle: 10   F: -42.572949301781016   dF: +1.234e-06   |Residual|: 2.292e-04   |deigs|: 4.726e-04  t[s]:     25.90
	FillingsUpdate:  mu: -0.111158962  nElectrons: 9.000000  magneticMoment: [ Abs: 0.18065  Tot: -0.18000 ]
SCF: Cycle: 11   F: -42.572948719070325   dF: +5.827e-07   |Residual|: 2.084e-04   |deigs|: 5.039e-04  t[s]:     27.75
	FillingsUpdate:  mu: -0.110487687  nElectrons: 9.000000  magneticMoment: [ Abs: 0.18084  Tot: -0.18000 ]
SCF: Cycle: 12   F: -42.572949924795829   dF: -1.206e-06   |Residual|: 1.797e-04   |deigs|: 6.570e-04  t[s]:     29.62
	FillingsUpdate:  mu: -0.110144629  nElectrons: 9.000000  magneticMoment: [ Abs: 0.18115  Tot: -0.18000 ]
SCF: Cycle: 13   F: -42.572950911891930   dF: -9.871e-07   |Residual|: 1.698e-04   |deigs|: 3.601e-04  t[s]:     31.43
	FillingsUpdate:  mu: -0.109720605  nElectrons: 9.000000  magneticMoment: [ Abs: 0.18052  Tot: -0.18000 ]
SCF: Cycle: 14   F: -42.572951644812321   dF: -7.329e-07   |Residual|: 1.490e-04   |deigs|: 4.686e-04  t[s]:     33.25
	FillingsUpdate:  mu: -0.109205892  nElectrons: 9.000000  magneticMoment: [ Abs: 0.18021  Tot: -0.18000 ]
SCF: Cycle: 15   F: -42.572952105952304   dF: -4.611e-07   |Residual|: 1.286e-04   |deigs|: 5.501e-04  t[s]:     35.00
	FillingsUpdate:  mu: -0.108900528  nElectrons: 9.000000  magneticMoment: [ Abs: 0.18027  Tot: -0.18000 ]
SCF: Cycle: 16   F: -42.572952307416003   dF: -2.015e-07   |Residual|: 8.388e-05   |deigs|: 3.024e-04  t[s]:     36.85
	FillingsUpdate:  mu: -0.108731399  nElectrons: 9.000000  magneticMoment: [ Abs: 0.18015  Tot: -0.18000 ]
SCF: Cycle: 17   F: -42.572952361842901   dF: -5.443e-08   |Residual|: 4.757e-05   |deigs|: 1.663e-04  t[s]:     38.77
	FillingsUpdate:  mu: -0.108704631  nElectrons: 9.000000  magneticMoment: [ Abs: 0.18008  Tot: -0.18000 ]
SCF: Cycle: 18   F: -42.572952371351221   dF: -9.508e-09   |Residual|: 3.202e-05   |deigs|: 7.983e-04  t[s]:     40.71
	FillingsUpdate:  mu: -0.108680552  nElectrons: 9.000000  magneticMoment: [ Abs: 0.18011  Tot: -0.18000 ]
SCF: Cycle: 19   F: -42.572952380686814   dF: -9.336e-09   |Residual|: 1.673e-05   |deigs|: 1.359e-04  t[s]:     42.57
SCF: Converged (|Delta E|<1.000000e-08 for 2 iters).


# Ionic positions in lattice coordinates:
ion Na   0.000000000000000   0.000000000000000   0.000000000000000 0

# Forces in Lattice coordinates:
force Na  -0.000000000000000   0.000000000000000   0.000000000000000 0

# Energy components:
   Eewald =      -18.0480261003326561
       EH =       15.7234859822939299
     Eloc =      -42.7349367355463556
      Enl =      -12.9129526806909034
   Epulay =        0.0000007725295140
      Exc =       -6.2161411719525042
       KE =       21.6156178348761792
-------------------------------------
     Etot =      -42.5729520988228103
       TS =        0.0000002818640035
-------------------------------------
        F =      -42.5729523806868144

IonicMinimize: Iter:   0  F: -42.572952380686814  |grad|_K:  0.000e+00  t[s]:     42.64
IonicMinimize: Converged (|grad|_K<1.000000e-04).

#--- Lowdin population analysis ---
# oxidation-state Na +0.036
# magnetic-moments Na -0.162

End date and time: Sat Feb  5 22:27:48 2022  (Duration: 0-0:00:42.66)
Done!
scale=3
magnetization=-0.18
--------------------------------------------------------------------------
The library attempted to open the following supporting CUDA libraries,
but each of them failed.  CUDA-aware support is disabled.
libcuda.so.1: cannot open shared object file: No such file or directory
libcuda.dylib: cannot open shared object file: No such file or directory
/usr/lib64/libcuda.so.1: cannot open shared object file: No such file or directory
/usr/lib64/libcuda.dylib: cannot open shared object file: No such file or directory
If you are not interested in CUDA-aware support, then run with
--mca opal_warn_on_missing_libcuda 0 to suppress this message.  If you are interested
in CUDA-aware support, then try setting LD_LIBRARY_PATH to the location
of libcuda.so.1 to get passed this issue.
--------------------------------------------------------------------------
--------------------------------------------------------------------------
No OpenFabrics connection schemes reported that they were able to be
used on a specific port.  As such, the openib BTL (OpenFabrics
support) will be disabled for this port.

  Local host:           d-6-3-2
  Local device:         mlx5_1
  Local port:           1
  CPCs attempted:       rdmacm, udcm
--------------------------------------------------------------------------

*************** JDFTx 1.6.0 (git hash 42ebbcc2) ***************

Start date and time: Sat Feb  5 22:27:49 2022
Executable jdftx with command-line: -i Alkali.in
Running on hosts (process indices):  d-6-3-2 (0-18)
Divided in process groups (process indices):  0 (0)  1 (1)  2 (2)  3 (3)  4 (4)  5 (5)  6 (6)  7 (7)  8 (8)  9 (9)  10 (10)  11 (11)  12 (12)  13 (13)  14 (14)  15 (15)  16 (16)  17 (17)  18 (18)
Resource initialization completed at t[s]:      0.00
Run totals: 19 processes, 48 threads, 0 GPUs


Input parsed successfully to the following command list (including defaults):

basis kpoint-dependent
coords-type Lattice
core-overlap-check vector
coulomb-interaction Slab 001
davidson-band-ratio 1.1
dump End None
dump-name $INPUT.$VAR
elec-cutoff 20
elec-eigen-algo Davidson
elec-ex-corr gga-PBE
elec-initial-magnetization -0.180000 yes
elec-smearing Fermi 1e-05
electronic-minimize  \
	dirUpdateScheme      FletcherReeves \
	linminMethod         DirUpdateRecommended \
	nIterations          100 \
	history              15 \
	knormThreshold       0 \
	energyDiffThreshold  1e-08 \
	nEnergyDiff          2 \
	alphaTstart          1 \
	alphaTmin            1e-10 \
	updateTestStepSize   yes \
	alphaTreduceFactor   0.1 \
	alphaTincreaseFactor 3 \
	nAlphaAdjustMax      3 \
	wolfeEnergy          0.0001 \
	wolfeGradient        0.9 \
	fdTest               no
electronic-scf  \
	nIterations	10000 \
	energyDiffThreshold	1e-08 \
	residualThreshold	1e-07 \
	mixFraction	0.5 \
	qMetric	0.8 \
	history	10 \
	nEigSteps	2 \
	eigDiffThreshold	1e-08 \
	mixedVariable	Density \
	qKerker	0.8 \
	qKappa	-1 \
	verbose	no \
	mixFractionMag	1.5
exchange-regularization WignerSeitzTruncated
fluid None
fluid-ex-corr (null) lda-PZ
fluid-gummel-loop 10 1.000000e-05
fluid-minimize  \
	dirUpdateScheme      PolakRibiere \
	linminMethod         DirUpdateRecommended \
	nIterations          100 \
	history              15 \
	knormThreshold       0 \
	energyDiffThreshold  0 \
	nEnergyDiff          2 \
	alphaTstart          1 \
	alphaTmin            1e-10 \
	updateTestStepSize   yes \
	alphaTreduceFactor   0.1 \
	alphaTincreaseFactor 3 \
	nAlphaAdjustMax      3 \
	wolfeEnergy          0.0001 \
	wolfeGradient        0.9 \
	fdTest               no
fluid-solvent H2O 55.338 ScalarEOS \
	epsBulk 78.4 \
	pMol 0.92466 \
	epsInf 1.77 \
	Pvap 1.06736e-10 \
	sigmaBulk 4.62e-05 \
	Rvdw 2.61727 \
	Res 1.42 \
	tauNuc 343133 \
	poleEl 15 7 1
forces-output-coords Positions
ion Na   0.000000000000000   0.000000000000000   0.000000000000000 0
ion-species SG15/$ID_ONCV_PBE.upf
ion-width 0
ionic-minimize  \
	dirUpdateScheme      L-BFGS \
	linminMethod         DirUpdateRecommended \
	nIterations          0 \
	history              15 \
	knormThreshold       0.0001 \
	energyDiffThreshold  1e-06 \
	nEnergyDiff          2 \
	alphaTstart          1 \
	alphaTmin            1e-10 \
	updateTestStepSize   yes \
	alphaTreduceFactor   0.1 \
	alphaTincreaseFactor 3 \
	nAlphaAdjustMax      3 \
	wolfeEnergy          0.0001 \
	wolfeGradient        0.9 \
	fdTest               no
kpoint   0.000000000000   0.000000000000   0.000000000000  1.00000000000000
kpoint-folding 12 12 1 
latt-move-scale 1 1 1
latt-scale 3 3 1 
lattice  \
	   4.727486978767153   -2.363743489383575    0.000000000000000  \
	  -0.000000000000000    4.094123819672498    0.000000000000000  \
	   0.000000000000000    0.000000000000000   40.000000000000000 
lattice-minimize  \
	dirUpdateScheme      L-BFGS \
	linminMethod         DirUpdateRecommended \
	nIterations          0 \
	history              15 \
	knormThreshold       0 \
	energyDiffThreshold  1e-06 \
	nEnergyDiff          2 \
	alphaTstart          1 \
	alphaTmin            1e-10 \
	updateTestStepSize   yes \
	alphaTreduceFactor   0.1 \
	alphaTincreaseFactor 3 \
	nAlphaAdjustMax      3 \
	wolfeEnergy          0.0001 \
	wolfeGradient        0.9 \
	fdTest               no
lcao-params -1 1e-06 1e-05
pcm-variant GLSSA13
spintype z-spin
subspace-rotation-factor 1 yes
symmetries automatic
symmetry-threshold 0.0001



---------- Setting up symmetries ----------

Found 24 point-group symmetries of the bravais lattice
Found 24 space-group symmetries with basis
Applied RMS atom displacement 0 bohrs to make symmetries exact.

---------- Initializing the Grid ----------
R = 
[      14.1825     -7.09123            0  ]
[            0      12.2824            0  ]
[            0            0           40  ]
unit cell volume = 6967.77
G =
[   0.443025   0.255781         -0  ]
[          0   0.511561         -0  ]
[         -0         -0    0.15708  ]
Minimum fftbox size, Smin = [  60  60  164  ]
Chosen fftbox size, S = [  60  60  168  ]

---------- Exchange Correlation functional ----------
Initalized PBE GGA exchange.
Initalized PBE GGA correlation.

---------- Setting up pseudopotentials ----------
Width of ionic core gaussian charges (only for fluid interactions / plotting) set to 0

Reading pseudopotential file '/home/gridsan/aligho/DFT/build-Nov24/pseudopotentials/SG15/Na_ONCV_PBE.upf':
  'Na' pseudopotential, 'PBE' functional
  Generated using ONCVPSP code by D. R. Hamann
  Author: Martin Schlipf and Francois Gygi  Date: 150915.
  9 valence electrons, 3 orbitals, 4 projectors, 1992 radial grid points, with lMax = 1
  Transforming local potential to a uniform radial grid of dG=0.02 with 1489 points.
  Transforming nonlocal projectors to a uniform radial grid of dG=0.02 with 432 points.
    2S    l: 0   occupation:  2.0   eigenvalue: -2.085640
    2P    l: 1   occupation:  6.0   eigenvalue: -1.053708
    3S    l: 0   occupation:  1.0   eigenvalue: -0.100838
  Transforming atomic orbitals to a uniform radial grid of dG=0.02 with 432 points.
  Core radius for overlap checks: 2.01 bohrs.
  Reading pulay file /home/gridsan/aligho/DFT/build-Nov24/pseudopotentials/SG15/Na_ONCV_PBE.pulay ... using dE_dnG = -2.946487e-03 computed for Ecut = 20.

Initialized 1 species with 1 total atoms.

Folded 1 k-points by 12x12x1 to 144 k-points.

---------- Setting up k-points, bands, fillings ----------
Reduced to 19 k-points under symmetry. 
Computing the number of bands and number of electrons
Calculating initial fillings.
nElectrons:   9.000000   nBands: 6   nStates: 38

----- Setting up reduced wavefunction bases (one per k-point) -----
average nbasis = 29766.104 , ideal nbasis = 29766.845

---------- Setting up coulomb interaction ----------
Initialized slab truncation along lattice direction 001

---------- Setting up 2D ewald sum ----------
Optimum gaussian width for ewald sums = 7.873530 bohr.
Real space sums over 289 unit cells with max indices [  8  8  0  ]
Reciprocal space sums over 81 terms with max indices [  4  4  0  ]

---------- Allocating electronic variables ----------
Initializing wave functions:  linear combination of atomic orbitals
Note: number of bands (6) exceeds available atomic orbitals (5)
Na pseudo-atom occupations:   s ( 2 1 )  p ( 6 )
[d-6-3-2:26632] 18 more processes have sent help message help-mpi-common-cuda.txt / dlopen failed
[d-6-3-2:26632] Set MCA parameter "orte_base_help_aggregate" to 0 to see all help / error messages
[d-6-3-2:26632] 18 more processes have sent help message help-mpi-btl-openib-cpc-base.txt / no cpcs for port
	FillingsUpdate:  mu: -0.102451956  nElectrons: 9.000000  magneticMoment: [ Abs: 0.18000  Tot: -0.18000 ]
LCAOMinimize: Iter:   0  F: -42.5529571319446518  |grad|_K:  8.513e-06  alpha:  1.000e+00
	FillingsUpdate:  mu: -0.102450258  nElectrons: 9.000000  magneticMoment: [ Abs: 0.18000  Tot: -0.18000 ]
LCAOMinimize: Iter:   1  F: -42.5529571811775114  |grad|_K:  4.707e-08  alpha:  9.932e-01  linmin: -7.250e-03  cgtest:  4.189e-01  t[s]:      8.54
LCAOMinimize: Encountered beta<0, resetting CG.
	FillingsUpdate:  mu: -0.102450254  nElectrons: 9.000000  magneticMoment: [ Abs: 0.18000  Tot: -0.18000 ]
LCAOMinimize: Iter:   2  F: -42.5529571811795293  |grad|_K:  3.999e-09  alpha:  1.084e+00  linmin:  2.746e-02  cgtest: -9.991e-01  t[s]:     10.94
LCAOMinimize: Converged (|Delta F|<1.000000e-06 for 2 iters).


---- Citations for features of the code used in this run ----

   Software package:
      R. Sundararaman, K. Letchworth-Weaver, K.A. Schwarz, D. Gunceler, Y. Ozhabes and T.A. Arias, 'JDFTx: software for joint density-functional theory', SoftwareX 6, 278 (2017)

   gga-PBE exchange-correlation functional:
      J.P. Perdew, K. Burke and M. Ernzerhof, Phys. Rev. Lett. 77, 3865 (1996)

   Pseudopotentials:
      M Schlipf and F Gygi, Comput. Phys. Commun. 196, 36 (2015)

   Truncated Coulomb potentials:
      R. Sundararaman and T.A. Arias, Phys. Rev. B 87, 165122 (2013)

This list may not be complete. Please suggest additional citations or
report any other bugs at https://github.com/shankar1729/jdftx/issues

Initialization completed successfully at t[s]:     11.04


-------- Electronic minimization -----------
Will mix electronic density at each iteration.
	FillingsUpdate:  mu: -0.102450254  nElectrons: 9.000000  magneticMoment: [ Abs: 0.18000  Tot: -0.18000 ]
	FillingsUpdate:  mu: -0.102810161  nElectrons: 9.000000  magneticMoment: [ Abs: 0.18000  Tot: -0.18000 ]
SCF: Cycle:  0   F: -42.553306656550873   dF: -3.495e-04   |Residual|: 2.116e-03   |deigs|: 1.739e-01  t[s]:     15.40
	FillingsUpdate:  mu: -0.102942475  nElectrons: 9.000000  magneticMoment: [ Abs: 0.18029  Tot: -0.18000 ]
SCF: Cycle:  1   F: -42.553312841465782   dF: -6.185e-06   |Residual|: 1.314e-03   |deigs|: 5.215e-03  t[s]:     18.84
	FillingsUpdate:  mu: -0.103163693  nElectrons: 9.000000  magneticMoment: [ Abs: 0.18024  Tot: -0.18000 ]
SCF: Cycle:  2   F: -42.553315895631236   dF: -3.054e-06   |Residual|: 7.452e-04   |deigs|: 2.733e-03  t[s]:     22.31
	FillingsUpdate:  mu: -0.103277218  nElectrons: 9.000000  magneticMoment: [ Abs: 0.18038  Tot: -0.18000 ]
SCF: Cycle:  3   F: -42.553317459988513   dF: -1.564e-06   |Residual|: 5.681e-04   |deigs|: 1.469e-03  t[s]:     25.84
	FillingsUpdate:  mu: -0.103533142  nElectrons: 9.000000  magneticMoment: [ Abs: 0.18025  Tot: -0.18000 ]
SCF: Cycle:  4   F: -42.553320196336280   dF: -2.736e-06   |Residual|: 2.570e-04   |deigs|: 1.569e-03  t[s]:     29.41
	FillingsUpdate:  mu: -0.103563662  nElectrons: 9.000000  magneticMoment: [ Abs: 0.18037  Tot: -0.18000 ]
SCF: Cycle:  5   F: -42.553320588095445   dF: -3.918e-07   |Residual|: 1.637e-04   |deigs|: 1.055e-03  t[s]:     33.01
	FillingsUpdate:  mu: -0.103545776  nElectrons: 9.000000  magneticMoment: [ Abs: 0.18028  Tot: -0.18000 ]
SCF: Cycle:  6   F: -42.553320956233222   dF: -3.681e-07   |Residual|: 1.048e-04   |deigs|: 8.654e-04  t[s]:     36.68
	FillingsUpdate:  mu: -0.103525676  nElectrons: 9.000000  magneticMoment: [ Abs: 0.18033  Tot: -0.18000 ]
SCF: Cycle:  7   F: -42.553321048104223   dF: -9.187e-08   |Residual|: 7.262e-05   |deigs|: 1.425e-03  t[s]:     40.42
	FillingsUpdate:  mu: -0.103471552  nElectrons: 9.000000  magneticMoment: [ Abs: 0.18029  Tot: -0.18000 ]
SCF: Cycle:  8   F: -42.553321102103006   dF: -5.400e-08   |Residual|: 6.043e-05   |deigs|: 4.535e-04  t[s]:     44.27
	FillingsUpdate:  mu: -0.103451264  nElectrons: 9.000000  magneticMoment: [ Abs: 0.18031  Tot: -0.18000 ]
SCF: Cycle:  9   F: -42.553321105962134   dF: -3.859e-09   |Residual|: 4.539e-05   |deigs|: 1.702e-04  t[s]:     48.07
	FillingsUpdate:  mu: -0.103394373  nElectrons: 9.000000  magneticMoment: [ Abs: 0.18036  Tot: -0.18000 ]
SCF: Cycle: 10   F: -42.553321114754652   dF: -8.793e-09   |Residual|: 5.326e-05   |deigs|: 2.007e-04  t[s]:     52.07
SCF: Converged (|Delta E|<1.000000e-08 for 2 iters).


# Ionic positions in lattice coordinates:
ion Na   0.000000000000000   0.000000000000000   0.000000000000000 0

# Forces in Lattice coordinates:
force Na   0.000000000000000  -0.000000000000000   0.000000000000000 0

# Energy components:
   Eewald =      -12.0320174002217755
       EH =       21.7059782366278782
     Eloc =      -54.7367931472795703
      Enl =      -12.9047469577011640
   Epulay =       -0.0000003132867683
      Exc =       -6.2060621297224792
       KE =       21.6203208786932386
-------------------------------------
     Etot =      -42.5533208328906483
       TS =        0.0000002818640035
-------------------------------------
        F =      -42.5533211147546524

IonicMinimize: Iter:   0  F: -42.553321114754652  |grad|_K:  0.000e+00  t[s]:     52.21
IonicMinimize: Converged (|grad|_K<1.000000e-04).

#--- Lowdin population analysis ---
# oxidation-state Na +0.005
# magnetic-moments Na -0.179

End date and time: Sat Feb  5 22:28:41 2022  (Duration: 0-0:00:52.26)
Done!
scale=4
magnetization=-0.18
--------------------------------------------------------------------------
The library attempted to open the following supporting CUDA libraries,
but each of them failed.  CUDA-aware support is disabled.
libcuda.so.1: cannot open shared object file: No such file or directory
libcuda.dylib: cannot open shared object file: No such file or directory
/usr/lib64/libcuda.so.1: cannot open shared object file: No such file or directory
/usr/lib64/libcuda.dylib: cannot open shared object file: No such file or directory
If you are not interested in CUDA-aware support, then run with
--mca opal_warn_on_missing_libcuda 0 to suppress this message.  If you are interested
in CUDA-aware support, then try setting LD_LIBRARY_PATH to the location
of libcuda.so.1 to get passed this issue.
--------------------------------------------------------------------------
--------------------------------------------------------------------------
No OpenFabrics connection schemes reported that they were able to be
used on a specific port.  As such, the openib BTL (OpenFabrics
support) will be disabled for this port.

  Local host:           d-6-3-2
  Local device:         mlx5_1
  Local port:           1
  CPCs attempted:       rdmacm, udcm
--------------------------------------------------------------------------

*************** JDFTx 1.6.0 (git hash 42ebbcc2) ***************

Start date and time: Sat Feb  5 22:28:42 2022
Executable jdftx with command-line: -i Alkali.in
Running on hosts (process indices):  d-6-3-2 (0-18)
Divided in process groups (process indices):  0 (0)  1 (1)  2 (2)  3 (3)  4 (4)  5 (5)  6 (6)  7 (7)  8 (8)  9 (9)  10 (10)  11 (11)  12 (12)  13 (13)  14 (14)  15 (15)  16 (16)  17 (17)  18 (18)
Resource initialization completed at t[s]:      0.00
Run totals: 19 processes, 48 threads, 0 GPUs


Input parsed successfully to the following command list (including defaults):

basis kpoint-dependent
coords-type Lattice
core-overlap-check vector
coulomb-interaction Slab 001
davidson-band-ratio 1.1
dump End None
dump-name $INPUT.$VAR
elec-cutoff 20
elec-eigen-algo Davidson
elec-ex-corr gga-PBE
elec-initial-magnetization -0.180000 yes
elec-smearing Fermi 1e-05
electronic-minimize  \
	dirUpdateScheme      FletcherReeves \
	linminMethod         DirUpdateRecommended \
	nIterations          100 \
	history              15 \
	knormThreshold       0 \
	energyDiffThreshold  1e-08 \
	nEnergyDiff          2 \
	alphaTstart          1 \
	alphaTmin            1e-10 \
	updateTestStepSize   yes \
	alphaTreduceFactor   0.1 \
	alphaTincreaseFactor 3 \
	nAlphaAdjustMax      3 \
	wolfeEnergy          0.0001 \
	wolfeGradient        0.9 \
	fdTest               no
electronic-scf  \
	nIterations	10000 \
	energyDiffThreshold	1e-08 \
	residualThreshold	1e-07 \
	mixFraction	0.5 \
	qMetric	0.8 \
	history	10 \
	nEigSteps	2 \
	eigDiffThreshold	1e-08 \
	mixedVariable	Density \
	qKerker	0.8 \
	qKappa	-1 \
	verbose	no \
	mixFractionMag	1.5
exchange-regularization WignerSeitzTruncated
fluid None
fluid-ex-corr (null) lda-PZ
fluid-gummel-loop 10 1.000000e-05
fluid-minimize  \
	dirUpdateScheme      PolakRibiere \
	linminMethod         DirUpdateRecommended \
	nIterations          100 \
	history              15 \
	knormThreshold       0 \
	energyDiffThreshold  0 \
	nEnergyDiff          2 \
	alphaTstart          1 \
	alphaTmin            1e-10 \
	updateTestStepSize   yes \
	alphaTreduceFactor   0.1 \
	alphaTincreaseFactor 3 \
	nAlphaAdjustMax      3 \
	wolfeEnergy          0.0001 \
	wolfeGradient        0.9 \
	fdTest               no
fluid-solvent H2O 55.338 ScalarEOS \
	epsBulk 78.4 \
	pMol 0.92466 \
	epsInf 1.77 \
	Pvap 1.06736e-10 \
	sigmaBulk 4.62e-05 \
	Rvdw 2.61727 \
	Res 1.42 \
	tauNuc 343133 \
	poleEl 15 7 1
forces-output-coords Positions
ion Na   0.000000000000000   0.000000000000000   0.000000000000000 0
ion-species SG15/$ID_ONCV_PBE.upf
ion-width 0
ionic-minimize  \
	dirUpdateScheme      L-BFGS \
	linminMethod         DirUpdateRecommended \
	nIterations          0 \
	history              15 \
	knormThreshold       0.0001 \
	energyDiffThreshold  1e-06 \
	nEnergyDiff          2 \
	alphaTstart          1 \
	alphaTmin            1e-10 \
	updateTestStepSize   yes \
	alphaTreduceFactor   0.1 \
	alphaTincreaseFactor 3 \
	nAlphaAdjustMax      3 \
	wolfeEnergy          0.0001 \
	wolfeGradient        0.9 \
	fdTest               no
kpoint   0.000000000000   0.000000000000   0.000000000000  1.00000000000000
kpoint-folding 12 12 1 
latt-move-scale 1 1 1
latt-scale 4 4 1 
lattice  \
	   4.727486978767153   -2.363743489383575    0.000000000000000  \
	  -0.000000000000000    4.094123819672498    0.000000000000000  \
	   0.000000000000000    0.000000000000000   40.000000000000000 
lattice-minimize  \
	dirUpdateScheme      L-BFGS \
	linminMethod         DirUpdateRecommended \
	nIterations          0 \
	history              15 \
	knormThreshold       0 \
	energyDiffThreshold  1e-06 \
	nEnergyDiff          2 \
	alphaTstart          1 \
	alphaTmin            1e-10 \
	updateTestStepSize   yes \
	alphaTreduceFactor   0.1 \
	alphaTincreaseFactor 3 \
	nAlphaAdjustMax      3 \
	wolfeEnergy          0.0001 \
	wolfeGradient        0.9 \
	fdTest               no
lcao-params -1 1e-06 1e-05
pcm-variant GLSSA13
spintype z-spin
subspace-rotation-factor 1 yes
symmetries automatic
symmetry-threshold 0.0001



---------- Setting up symmetries ----------

Found 24 point-group symmetries of the bravais lattice
Found 24 space-group symmetries with basis
Applied RMS atom displacement 0 bohrs to make symmetries exact.

---------- Initializing the Grid ----------
R = 
[      18.9099     -9.45497            0  ]
[            0      16.3765            0  ]
[            0            0           40  ]
unit cell volume = 12387.1
G =
[   0.332269   0.191835         -0  ]
[          0   0.383671         -0  ]
[         -0         -0    0.15708  ]
Minimum fftbox size, Smin = [  80  80  164  ]
Chosen fftbox size, S = [  80  80  168  ]

---------- Exchange Correlation functional ----------
Initalized PBE GGA exchange.
Initalized PBE GGA correlation.

---------- Setting up pseudopotentials ----------
Width of ionic core gaussian charges (only for fluid interactions / plotting) set to 0

Reading pseudopotential file '/home/gridsan/aligho/DFT/build-Nov24/pseudopotentials/SG15/Na_ONCV_PBE.upf':
  'Na' pseudopotential, 'PBE' functional
  Generated using ONCVPSP code by D. R. Hamann
  Author: Martin Schlipf and Francois Gygi  Date: 150915.
  9 valence electrons, 3 orbitals, 4 projectors, 1992 radial grid points, with lMax = 1
  Transforming local potential to a uniform radial grid of dG=0.02 with 1489 points.
  Transforming nonlocal projectors to a uniform radial grid of dG=0.02 with 432 points.
    2S    l: 0   occupation:  2.0   eigenvalue: -2.085640
    2P    l: 1   occupation:  6.0   eigenvalue: -1.053708
    3S    l: 0   occupation:  1.0   eigenvalue: -0.100838
  Transforming atomic orbitals to a uniform radial grid of dG=0.02 with 432 points.
  Core radius for overlap checks: 2.01 bohrs.
  Reading pulay file /home/gridsan/aligho/DFT/build-Nov24/pseudopotentials/SG15/Na_ONCV_PBE.pulay ... using dE_dnG = -2.946487e-03 computed for Ecut = 20.

Initialized 1 species with 1 total atoms.

Folded 1 k-points by 12x12x1 to 144 k-points.

---------- Setting up k-points, bands, fillings ----------
Reduced to 19 k-points under symmetry. 
Computing the number of bands and number of electrons
Calculating initial fillings.
nElectrons:   9.000000   nBands: 6   nStates: 38

----- Setting up reduced wavefunction bases (one per k-point) -----
average nbasis = 52924.021 , ideal nbasis = 52918.836

---------- Setting up coulomb interaction ----------
Initialized slab truncation along lattice direction 001

---------- Setting up 2D ewald sum ----------
Optimum gaussian width for ewald sums = 10.498040 bohr.
Real space sums over 289 unit cells with max indices [  8  8  0  ]
Reciprocal space sums over 81 terms with max indices [  4  4  0  ]

---------- Allocating electronic variables ----------
Initializing wave functions:  linear combination of atomic orbitals
Note: number of bands (6) exceeds available atomic orbitals (5)
Na pseudo-atom occupations:   s ( 2 1 )  p ( 6 )
[d-6-3-2:54531] 18 more processes have sent help message help-mpi-common-cuda.txt / dlopen failed
[d-6-3-2:54531] Set MCA parameter "orte_base_help_aggregate" to 0 to see all help / error messages
[d-6-3-2:54531] 18 more processes have sent help message help-mpi-btl-openib-cpc-base.txt / no cpcs for port
	FillingsUpdate:  mu: -0.101171932  nElectrons: 9.000000  magneticMoment: [ Abs: 0.18000  Tot: -0.18000 ]
LCAOMinimize: Iter:   0  F: -42.5499888294512303  |grad|_K:  1.225e-06  alpha:  1.000e+00
	FillingsUpdate:  mu: -0.101171674  nElectrons: 9.000000  magneticMoment: [ Abs: 0.18000  Tot: -0.18000 ]
LCAOMinimize: Iter:   1  F: -42.5499888304699496  |grad|_K:  5.448e-09  alpha:  9.932e-01  linmin: -3.291e-03  cgtest:  2.495e-01  t[s]:     14.69
LCAOMinimize: Encountered beta<0, resetting CG.
LCAOMinimize: 	Wrong curvature in test step, increasing alphaT to 2.979632e+00.
	FillingsUpdate:  mu: -0.101171674  nElectrons: 9.000000  magneticMoment: [ Abs: 0.18000  Tot: -0.18000 ]
LCAOMinimize: Iter:   2  F: -42.5499888304705323  |grad|_K:  3.597e-11  alpha: -3.708e-02  linmin: -1.151e-02  cgtest:  8.812e-01  t[s]:     18.61
LCAOMinimize: Encountered beta<0, resetting CG.
LCAOMinimize: Converged (|Delta F|<1.000000e-06 for 2 iters).


---- Citations for features of the code used in this run ----

   Software package:
      R. Sundararaman, K. Letchworth-Weaver, K.A. Schwarz, D. Gunceler, Y. Ozhabes and T.A. Arias, 'JDFTx: software for joint density-functional theory', SoftwareX 6, 278 (2017)

   gga-PBE exchange-correlation functional:
      J.P. Perdew, K. Burke and M. Ernzerhof, Phys. Rev. Lett. 77, 3865 (1996)

   Pseudopotentials:
      M Schlipf and F Gygi, Comput. Phys. Commun. 196, 36 (2015)

   Truncated Coulomb potentials:
      R. Sundararaman and T.A. Arias, Phys. Rev. B 87, 165122 (2013)

This list may not be complete. Please suggest additional citations or
report any other bugs at https://github.com/shankar1729/jdftx/issues

Initialization completed successfully at t[s]:     18.76


-------- Electronic minimization -----------
Will mix electronic density at each iteration.
	FillingsUpdate:  mu: -0.101171674  nElectrons: 9.000000  magneticMoment: [ Abs: 0.18000  Tot: -0.18000 ]
	FillingsUpdate:  mu: -0.101189306  nElectrons: 9.000000  magneticMoment: [ Abs: 0.18000  Tot: -0.18000 ]
SCF: Cycle:  0   F: -42.550014891076280   dF: -2.606e-05   |Residual|: 1.822e-03   |deigs|: 1.717e-01  t[s]:     26.19
	FillingsUpdate:  mu: -0.101213422  nElectrons: 9.000000  magneticMoment: [ Abs: 0.18032  Tot: -0.18000 ]
SCF: Cycle:  1   F: -42.550015268119125   dF: -3.770e-07   |Residual|: 8.411e-04   |deigs|: 8.986e-03  t[s]:     32.02
	FillingsUpdate:  mu: -0.101250912  nElectrons: 9.000000  magneticMoment: [ Abs: 0.18025  Tot: -0.18000 ]
SCF: Cycle:  2   F: -42.550015404281716   dF: -1.362e-07   |Residual|: 1.641e-04   |deigs|: 1.767e-03  t[s]:     38.00
	FillingsUpdate:  mu: -0.101261457  nElectrons: 9.000000  magneticMoment: [ Abs: 0.18030  Tot: -0.18000 ]
SCF: Cycle:  3   F: -42.550015415540926   dF: -1.126e-08   |Residual|: 9.929e-05   |deigs|: 3.995e-04  t[s]:     44.09
	FillingsUpdate:  mu: -0.101280304  nElectrons: 9.000000  magneticMoment: [ Abs: 0.18026  Tot: -0.18000 ]
SCF: Cycle:  4   F: -42.550015426232882   dF: -1.069e-08   |Residual|: 7.242e-05   |deigs|: 4.191e-04  t[s]:     50.26
	FillingsUpdate:  mu: -0.101305891  nElectrons: 9.000000  magneticMoment: [ Abs: 0.18030  Tot: -0.18000 ]
SCF: Cycle:  5   F: -42.550015438559043   dF: -1.233e-08   |Residual|: 5.423e-05   |deigs|: 2.325e-04  t[s]:     56.52
	FillingsUpdate:  mu: -0.101327686  nElectrons: 9.000000  magneticMoment: [ Abs: 0.18027  Tot: -0.18000 ]
SCF: Cycle:  6   F: -42.550015448751012   dF: -1.019e-08   |Residual|: 4.326e-05   |deigs|: 2.727e-04  t[s]:     62.89
	FillingsUpdate:  mu: -0.101340578  nElectrons: 9.000000  magneticMoment: [ Abs: 0.18031  Tot: -0.18000 ]
SCF: Cycle:  7   F: -42.550015453051884   dF: -4.301e-09   |Residual|: 2.155e-05   |deigs|: 2.947e-04  t[s]:     69.41
	FillingsUpdate:  mu: -0.101337527  nElectrons: 9.000000  magneticMoment: [ Abs: 0.18028  Tot: -0.18000 ]
SCF: Cycle:  8   F: -42.550015454897668   dF: -1.846e-09   |Residual|: 1.597e-05   |deigs|: 2.273e-04  t[s]:     76.00
SCF: Converged (|Delta E|<1.000000e-08 for 2 iters).


# Ionic positions in lattice coordinates:
ion Na   0.000000000000000   0.000000000000000   0.000000000000000 0

# Forces in Lattice coordinates:
force Na  -0.000000000000000   0.000000000000000   0.000000000000000 0

# Energy components:
   Eewald =       -9.0240130501663280
       EH =       24.7640254690855635
     Eloc =      -60.8074575224251106
      Enl =      -12.9026278365798674
   Epulay =        0.0000012333957556
      Exc =       -6.2096126577457831
       KE =       21.6296692199082692
-------------------------------------
     Etot =      -42.5500151445275065
       TS =        0.0000003103701631
-------------------------------------
        F =      -42.5500154548976681

IonicMinimize: Iter:   0  F: -42.550015454897668  |grad|_K:  0.000e+00  t[s]:     76.25
IonicMinimize: Converged (|grad|_K<1.000000e-04).

#--- Lowdin population analysis ---
# oxidation-state Na +0.000
# magnetic-moments Na -0.180

End date and time: Sat Feb  5 22:29:58 2022  (Duration: 0-0:01:16.33)
Done!
