The alkali metal is Na
scale=2
magnetization=0.28
--------------------------------------------------------------------------
The library attempted to open the following supporting CUDA libraries,
but each of them failed.  CUDA-aware support is disabled.
libcuda.so.1: cannot open shared object file: No such file or directory
libcuda.dylib: cannot open shared object file: No such file or directory
/usr/lib64/libcuda.so.1: cannot open shared object file: No such file or directory
/usr/lib64/libcuda.dylib: cannot open shared object file: No such file or directory
If you are not interested in CUDA-aware support, then run with
--mca opal_warn_on_missing_libcuda 0 to suppress this message.  If you are interested
in CUDA-aware support, then try setting LD_LIBRARY_PATH to the location
of libcuda.so.1 to get passed this issue.
--------------------------------------------------------------------------
--------------------------------------------------------------------------
No OpenFabrics connection schemes reported that they were able to be
used on a specific port.  As such, the openib BTL (OpenFabrics
support) will be disabled for this port.

  Local host:           d-5-12-1
  Local device:         mlx5_1
  Local port:           1
  CPCs attempted:       rdmacm, udcm
--------------------------------------------------------------------------

*************** JDFTx 1.6.0 (git hash 42ebbcc2) ***************

Start date and time: Sat Feb  5 22:30:34 2022
Executable jdftx with command-line: -i Alkali.in
Running on hosts (process indices):  d-5-12-1 (0-18)
Divided in process groups (process indices):  0 (0)  1 (1)  2 (2)  3 (3)  4 (4)  5 (5)  6 (6)  7 (7)  8 (8)  9 (9)  10 (10)  11 (11)  12 (12)  13 (13)  14 (14)  15 (15)  16 (16)  17 (17)  18 (18)
Resource initialization completed at t[s]:      0.00
Run totals: 19 processes, 48 threads, 0 GPUs


Input parsed successfully to the following command list (including defaults):

basis kpoint-dependent
coords-type Lattice
core-overlap-check vector
coulomb-interaction Slab 001
davidson-band-ratio 1.1
dump End None
dump-name $INPUT.$VAR
elec-cutoff 20
elec-eigen-algo Davidson
elec-ex-corr gga-PBE
elec-initial-magnetization 0.280000 yes
elec-smearing Fermi 1e-05
electronic-minimize  \
	dirUpdateScheme      FletcherReeves \
	linminMethod         DirUpdateRecommended \
	nIterations          100 \
	history              15 \
	knormThreshold       0 \
	energyDiffThreshold  1e-08 \
	nEnergyDiff          2 \
	alphaTstart          1 \
	alphaTmin            1e-10 \
	updateTestStepSize   yes \
	alphaTreduceFactor   0.1 \
	alphaTincreaseFactor 3 \
	nAlphaAdjustMax      3 \
	wolfeEnergy          0.0001 \
	wolfeGradient        0.9 \
	fdTest               no
electronic-scf  \
	nIterations	10000 \
	energyDiffThreshold	1e-08 \
	residualThreshold	1e-07 \
	mixFraction	0.5 \
	qMetric	0.8 \
	history	10 \
	nEigSteps	2 \
	eigDiffThreshold	1e-08 \
	mixedVariable	Density \
	qKerker	0.8 \
	qKappa	-1 \
	verbose	no \
	mixFractionMag	1.5
exchange-regularization WignerSeitzTruncated
fluid None
fluid-ex-corr (null) lda-PZ
fluid-gummel-loop 10 1.000000e-05
fluid-minimize  \
	dirUpdateScheme      PolakRibiere \
	linminMethod         DirUpdateRecommended \
	nIterations          100 \
	history              15 \
	knormThreshold       0 \
	energyDiffThreshold  0 \
	nEnergyDiff          2 \
	alphaTstart          1 \
	alphaTmin            1e-10 \
	updateTestStepSize   yes \
	alphaTreduceFactor   0.1 \
	alphaTincreaseFactor 3 \
	nAlphaAdjustMax      3 \
	wolfeEnergy          0.0001 \
	wolfeGradient        0.9 \
	fdTest               no
fluid-solvent H2O 55.338 ScalarEOS \
	epsBulk 78.4 \
	pMol 0.92466 \
	epsInf 1.77 \
	Pvap 1.06736e-10 \
	sigmaBulk 4.62e-05 \
	Rvdw 2.61727 \
	Res 1.42 \
	tauNuc 343133 \
	poleEl 15 7 1
forces-output-coords Positions
ion Na   0.000000000000000   0.000000000000000   0.000000000000000 0
ion-species SG15/$ID_ONCV_PBE.upf
ion-width 0
ionic-minimize  \
	dirUpdateScheme      L-BFGS \
	linminMethod         DirUpdateRecommended \
	nIterations          0 \
	history              15 \
	knormThreshold       0.0001 \
	energyDiffThreshold  1e-06 \
	nEnergyDiff          2 \
	alphaTstart          1 \
	alphaTmin            1e-10 \
	updateTestStepSize   yes \
	alphaTreduceFactor   0.1 \
	alphaTincreaseFactor 3 \
	nAlphaAdjustMax      3 \
	wolfeEnergy          0.0001 \
	wolfeGradient        0.9 \
	fdTest               no
kpoint   0.000000000000   0.000000000000   0.000000000000  1.00000000000000
kpoint-folding 12 12 1 
latt-move-scale 1 1 1
latt-scale 2 2 1 
lattice  \
	   4.727486978767153   -2.363743489383575    0.000000000000000  \
	  -0.000000000000000    4.094123819672498    0.000000000000000  \
	   0.000000000000000    0.000000000000000   40.000000000000000 
lattice-minimize  \
	dirUpdateScheme      L-BFGS \
	linminMethod         DirUpdateRecommended \
	nIterations          0 \
	history              15 \
	knormThreshold       0 \
	energyDiffThreshold  1e-06 \
	nEnergyDiff          2 \
	alphaTstart          1 \
	alphaTmin            1e-10 \
	updateTestStepSize   yes \
	alphaTreduceFactor   0.1 \
	alphaTincreaseFactor 3 \
	nAlphaAdjustMax      3 \
	wolfeEnergy          0.0001 \
	wolfeGradient        0.9 \
	fdTest               no
lcao-params -1 1e-06 1e-05
pcm-variant GLSSA13
spintype z-spin
subspace-rotation-factor 1 yes
symmetries automatic
symmetry-threshold 0.0001



---------- Setting up symmetries ----------

Found 24 point-group symmetries of the bravais lattice
Found 24 space-group symmetries with basis
Applied RMS atom displacement 0 bohrs to make symmetries exact.

---------- Initializing the Grid ----------
R = 
[      9.45497     -4.72749            0  ]
[            0      8.18825            0  ]
[            0            0           40  ]
unit cell volume = 3096.79
G =
[   0.664538   0.383671         -0  ]
[          0   0.767342         -0  ]
[         -0         -0    0.15708  ]
Minimum fftbox size, Smin = [  40  40  164  ]
Chosen fftbox size, S = [  40  40  168  ]

---------- Exchange Correlation functional ----------
Initalized PBE GGA exchange.
Initalized PBE GGA correlation.

---------- Setting up pseudopotentials ----------
Width of ionic core gaussian charges (only for fluid interactions / plotting) set to 0

Reading pseudopotential file '/home/gridsan/aligho/DFT/build-Nov24/pseudopotentials/SG15/Na_ONCV_PBE.upf':
  'Na' pseudopotential, 'PBE' functional
  Generated using ONCVPSP code by D. R. Hamann
  Author: Martin Schlipf and Francois Gygi  Date: 150915.
  9 valence electrons, 3 orbitals, 4 projectors, 1992 radial grid points, with lMax = 1
  Transforming local potential to a uniform radial grid of dG=0.02 with 1489 points.
  Transforming nonlocal projectors to a uniform radial grid of dG=0.02 with 432 points.
    2S    l: 0   occupation:  2.0   eigenvalue: -2.085640
    2P    l: 1   occupation:  6.0   eigenvalue: -1.053708
    3S    l: 0   occupation:  1.0   eigenvalue: -0.100838
  Transforming atomic orbitals to a uniform radial grid of dG=0.02 with 432 points.
  Core radius for overlap checks: 2.01 bohrs.
  Reading pulay file /home/gridsan/aligho/DFT/build-Nov24/pseudopotentials/SG15/Na_ONCV_PBE.pulay ... using dE_dnG = -2.946487e-03 computed for Ecut = 20.

Initialized 1 species with 1 total atoms.

Folded 1 k-points by 12x12x1 to 144 k-points.

---------- Setting up k-points, bands, fillings ----------
Reduced to 19 k-points under symmetry. 
Computing the number of bands and number of electrons
Calculating initial fillings.
nElectrons:   9.000000   nBands: 6   nStates: 38

----- Setting up reduced wavefunction bases (one per k-point) -----
average nbasis = 13230.521 , ideal nbasis = 13229.709

---------- Setting up coulomb interaction ----------
Initialized slab truncation along lattice direction 001

---------- Setting up 2D ewald sum ----------
Optimum gaussian width for ewald sums = 5.249020 bohr.
Real space sums over 289 unit cells with max indices [  8  8  0  ]
Reciprocal space sums over 81 terms with max indices [  4  4  0  ]

---------- Allocating electronic variables ----------
Initializing wave functions:  linear combination of atomic orbitals
Note: number of bands (6) exceeds available atomic orbitals (5)
Na pseudo-atom occupations:   s ( 2 1 )  p ( 6 )
	FillingsUpdate:  mu: -0.104867630  nElectrons: 9.000000  magneticMoment: [ Abs: 0.28000  Tot: +0.28000 ]
LCAOMinimize: Iter:   0  F: -42.5678068575040953  |grad|_K:  3.130e-05  alpha:  1.000e+00
	FillingsUpdate:  mu: -0.104867036  nElectrons: 9.000000  magneticMoment: [ Abs: 0.28000  Tot: +0.28000 ]
LCAOMinimize: Iter:   1  F: -42.5678075199697759  |grad|_K:  3.002e-07  alpha:  9.889e-01  linmin: -1.834e-02  cgtest:  6.800e-01  t[s]:      4.57
LCAOMinimize: Encountered beta<0, resetting CG.
[d-5-12-1:17309] 18 more processes have sent help message help-mpi-common-cuda.txt / dlopen failed
[d-5-12-1:17309] Set MCA parameter "orte_base_help_aggregate" to 0 to see all help / error messages
[d-5-12-1:17309] 18 more processes have sent help message help-mpi-btl-openib-cpc-base.txt / no cpcs for port
	FillingsUpdate:  mu: -0.104867097  nElectrons: 9.000000  magneticMoment: [ Abs: 0.28000  Tot: +0.28000 ]
LCAOMinimize: Iter:   2  F: -42.5678075200312023  |grad|_K:  2.951e-09  alpha:  9.922e-01  linmin: -4.409e-02  cgtest:  9.869e-01  t[s]:      5.77
LCAOMinimize: Encountered beta<0, resetting CG.
LCAOMinimize: Converged (|Delta F|<1.000000e-06 for 2 iters).


---- Citations for features of the code used in this run ----

   Software package:
      R. Sundararaman, K. Letchworth-Weaver, K.A. Schwarz, D. Gunceler, Y. Ozhabes and T.A. Arias, 'JDFTx: software for joint density-functional theory', SoftwareX 6, 278 (2017)

   gga-PBE exchange-correlation functional:
      J.P. Perdew, K. Burke and M. Ernzerhof, Phys. Rev. Lett. 77, 3865 (1996)

   Pseudopotentials:
      M Schlipf and F Gygi, Comput. Phys. Commun. 196, 36 (2015)

   Truncated Coulomb potentials:
      R. Sundararaman and T.A. Arias, Phys. Rev. B 87, 165122 (2013)

This list may not be complete. Please suggest additional citations or
report any other bugs at https://github.com/shankar1729/jdftx/issues

Initialization completed successfully at t[s]:      5.84


-------- Electronic minimization -----------
Will mix electronic density at each iteration.
	FillingsUpdate:  mu: -0.104867097  nElectrons: 9.000000  magneticMoment: [ Abs: 0.28000  Tot: +0.28000 ]
	FillingsUpdate:  mu: -0.112621715  nElectrons: 9.000000  magneticMoment: [ Abs: 0.28000  Tot: +0.28000 ]
SCF: Cycle:  0   F: -42.572125783287696   dF: -4.318e-03   |Residual|: 7.932e-03   |deigs|: 1.706e-01  t[s]:      8.15
	FillingsUpdate:  mu: -0.112667636  nElectrons: 9.000000  magneticMoment: [ Abs: 0.28000  Tot: +0.28000 ]
SCF: Cycle:  1   F: -42.572207202026831   dF: -8.142e-05   |Residual|: 5.490e-03   |deigs|: 8.835e-03  t[s]:      9.83
	FillingsUpdate:  mu: -0.112477960  nElectrons: 9.000000  magneticMoment: [ Abs: 0.28128  Tot: +0.28000 ]
SCF: Cycle:  2   F: -42.572225183788859   dF: -1.798e-05   |Residual|: 2.881e-03   |deigs|: 6.370e-03  t[s]:     11.53
	FillingsUpdate:  mu: -0.112199329  nElectrons: 9.000000  magneticMoment: [ Abs: 0.28002  Tot: +0.28000 ]
SCF: Cycle:  3   F: -42.572230046663634   dF: -4.863e-06   |Residual|: 1.647e-03   |deigs|: 5.384e-03  t[s]:     13.29
	FillingsUpdate:  mu: -0.111708730  nElectrons: 9.000000  magneticMoment: [ Abs: 0.28003  Tot: +0.28000 ]
SCF: Cycle:  4   F: -42.572235572787370   dF: -5.526e-06   |Residual|: 8.753e-04   |deigs|: 3.084e-03  t[s]:     15.05
	FillingsUpdate:  mu: -0.111322938  nElectrons: 9.000000  magneticMoment: [ Abs: 0.28013  Tot: +0.28000 ]
SCF: Cycle:  5   F: -42.572236258559187   dF: -6.858e-07   |Residual|: 7.193e-04   |deigs|: 1.705e-03  t[s]:     16.83
	FillingsUpdate:  mu: -0.110476398  nElectrons: 9.000000  magneticMoment: [ Abs: 0.28113  Tot: +0.28000 ]
SCF: Cycle:  6   F: -42.572236367788143   dF: -1.092e-07   |Residual|: 5.269e-04   |deigs|: 1.447e-03  t[s]:     18.67
	FillingsUpdate:  mu: -0.109714959  nElectrons: 9.000000  magneticMoment: [ Abs: 0.28173  Tot: +0.28000 ]
SCF: Cycle:  7   F: -42.572235508338011   dF: +8.595e-07   |Residual|: 3.937e-04   |deigs|: 1.057e-03  t[s]:     20.50
	FillingsUpdate:  mu: -0.109124739  nElectrons: 9.000000  magneticMoment: [ Abs: 0.28105  Tot: +0.28000 ]
SCF: Cycle:  8   F: -42.572236146966645   dF: -6.386e-07   |Residual|: 3.438e-04   |deigs|: 7.958e-04  t[s]:     22.44
	FillingsUpdate:  mu: -0.108932572  nElectrons: 9.000000  magneticMoment: [ Abs: 0.28041  Tot: +0.28000 ]
SCF: Cycle:  9   F: -42.572237383768140   dF: -1.237e-06   |Residual|: 2.616e-04   |deigs|: 5.396e-04  t[s]:     24.37
	FillingsUpdate:  mu: -0.108515568  nElectrons: 9.000000  magneticMoment: [ Abs: 0.28110  Tot: +0.28000 ]
SCF: Cycle: 10   F: -42.572237394974849   dF: -1.121e-08   |Residual|: 2.288e-04   |deigs|: 5.106e-04  t[s]:     26.35
	FillingsUpdate:  mu: -0.108036803  nElectrons: 9.000000  magneticMoment: [ Abs: 0.28102  Tot: +0.28000 ]
SCF: Cycle: 11   F: -42.572236250245531   dF: +1.145e-06   |Residual|: 2.117e-04   |deigs|: 5.179e-04  t[s]:     28.35
	FillingsUpdate:  mu: -0.107367459  nElectrons: 9.000000  magneticMoment: [ Abs: 0.28055  Tot: +0.28000 ]
SCF: Cycle: 12   F: -42.572236598040881   dF: -3.478e-07   |Residual|: 1.907e-04   |deigs|: 7.072e-04  t[s]:     30.20
	FillingsUpdate:  mu: -0.106993022  nElectrons: 9.000000  magneticMoment: [ Abs: 0.28128  Tot: +0.28000 ]
SCF: Cycle: 13   F: -42.572238040769896   dF: -1.443e-06   |Residual|: 1.699e-04   |deigs|: 6.380e-04  t[s]:     32.11
	FillingsUpdate:  mu: -0.106675594  nElectrons: 9.000000  magneticMoment: [ Abs: 0.28087  Tot: +0.28000 ]
SCF: Cycle: 14   F: -42.572238801091373   dF: -7.603e-07   |Residual|: 1.559e-04   |deigs|: 3.509e-04  t[s]:     33.99
	FillingsUpdate:  mu: -0.106199762  nElectrons: 9.000000  magneticMoment: [ Abs: 0.28021  Tot: +0.28000 ]
SCF: Cycle: 15   F: -42.572239243391387   dF: -4.423e-07   |Residual|: 1.473e-04   |deigs|: 5.264e-04  t[s]:     35.85
	FillingsUpdate:  mu: -0.105759960  nElectrons: 9.000000  magneticMoment: [ Abs: 0.28027  Tot: +0.28000 ]
SCF: Cycle: 16   F: -42.572239580174575   dF: -3.368e-07   |Residual|: 1.035e-04   |deigs|: 4.493e-04  t[s]:     37.76
	FillingsUpdate:  mu: -0.105507429  nElectrons: 9.000000  magneticMoment: [ Abs: 0.28023  Tot: +0.28000 ]
SCF: Cycle: 17   F: -42.572239698585001   dF: -1.184e-07   |Residual|: 5.881e-05   |deigs|: 2.233e-04  t[s]:     39.63
	FillingsUpdate:  mu: -0.105467279  nElectrons: 9.000000  magneticMoment: [ Abs: 0.28015  Tot: +0.28000 ]
SCF: Cycle: 18   F: -42.572239715542672   dF: -1.696e-08   |Residual|: 4.237e-05   |deigs|: 1.016e-04  t[s]:     41.56
	FillingsUpdate:  mu: -0.105434140  nElectrons: 9.000000  magneticMoment: [ Abs: 0.28011  Tot: +0.28000 ]
SCF: Cycle: 19   F: -42.572239729042280   dF: -1.350e-08   |Residual|: 2.275e-05   |deigs|: 4.576e-05  t[s]:     43.45
	FillingsUpdate:  mu: -0.105430225  nElectrons: 9.000000  magneticMoment: [ Abs: 0.28015  Tot: +0.28000 ]
SCF: Cycle: 20   F: -42.572239734503960   dF: -5.462e-09   |Residual|: 1.102e-05   |deigs|: 1.905e-05  t[s]:     45.41
	FillingsUpdate:  mu: -0.105424207  nElectrons: 9.000000  magneticMoment: [ Abs: 0.28013  Tot: +0.28000 ]
SCF: Cycle: 21   F: -42.572239735754401   dF: -1.250e-09   |Residual|: 5.984e-06   |deigs|: 7.116e-04  t[s]:     47.32
SCF: Converged (|Delta E|<1.000000e-08 for 2 iters).


# Ionic positions in lattice coordinates:
ion Na   0.000000000000000   0.000000000000000   0.000000000000000 0

# Forces in Lattice coordinates:
force Na   0.000000000000000  -0.000000000000000   0.000000000000000 0

# Energy components:
   Eewald =      -18.0480261003326561
       EH =       15.7255336365029201
     Eloc =      -42.7371222027154403
      Enl =      -12.9131330699404039
   Epulay =        0.0000007725295140
      Exc =       -6.2166081357440639
       KE =       21.6171160489664516
-------------------------------------
     Etot =      -42.5722390507336712
       TS =        0.0000006850207335
-------------------------------------
        F =      -42.5722397357544011

IonicMinimize: Iter:   0  F: -42.572239735754401  |grad|_K:  0.000e+00  t[s]:     47.40
IonicMinimize: Converged (|grad|_K<1.000000e-04).

#--- Lowdin population analysis ---
# oxidation-state Na +0.042
# magnetic-moments Na +0.251

End date and time: Sat Feb  5 22:31:21 2022  (Duration: 0-0:00:47.42)
Done!
scale=3
magnetization=0.28
--------------------------------------------------------------------------
The library attempted to open the following supporting CUDA libraries,
but each of them failed.  CUDA-aware support is disabled.
libcuda.so.1: cannot open shared object file: No such file or directory
libcuda.dylib: cannot open shared object file: No such file or directory
/usr/lib64/libcuda.so.1: cannot open shared object file: No such file or directory
/usr/lib64/libcuda.dylib: cannot open shared object file: No such file or directory
If you are not interested in CUDA-aware support, then run with
--mca opal_warn_on_missing_libcuda 0 to suppress this message.  If you are interested
in CUDA-aware support, then try setting LD_LIBRARY_PATH to the location
of libcuda.so.1 to get passed this issue.
--------------------------------------------------------------------------
--------------------------------------------------------------------------
No OpenFabrics connection schemes reported that they were able to be
used on a specific port.  As such, the openib BTL (OpenFabrics
support) will be disabled for this port.

  Local host:           d-5-12-1
  Local device:         mlx5_1
  Local port:           1
  CPCs attempted:       rdmacm, udcm
--------------------------------------------------------------------------

*************** JDFTx 1.6.0 (git hash 42ebbcc2) ***************

Start date and time: Sat Feb  5 22:31:22 2022
Executable jdftx with command-line: -i Alkali.in
Running on hosts (process indices):  d-5-12-1 (0-18)
Divided in process groups (process indices):  0 (0)  1 (1)  2 (2)  3 (3)  4 (4)  5 (5)  6 (6)  7 (7)  8 (8)  9 (9)  10 (10)  11 (11)  12 (12)  13 (13)  14 (14)  15 (15)  16 (16)  17 (17)  18 (18)
Resource initialization completed at t[s]:      0.00
Run totals: 19 processes, 48 threads, 0 GPUs


Input parsed successfully to the following command list (including defaults):

basis kpoint-dependent
coords-type Lattice
core-overlap-check vector
coulomb-interaction Slab 001
davidson-band-ratio 1.1
dump End None
dump-name $INPUT.$VAR
elec-cutoff 20
elec-eigen-algo Davidson
elec-ex-corr gga-PBE
elec-initial-magnetization 0.280000 yes
elec-smearing Fermi 1e-05
electronic-minimize  \
	dirUpdateScheme      FletcherReeves \
	linminMethod         DirUpdateRecommended \
	nIterations          100 \
	history              15 \
	knormThreshold       0 \
	energyDiffThreshold  1e-08 \
	nEnergyDiff          2 \
	alphaTstart          1 \
	alphaTmin            1e-10 \
	updateTestStepSize   yes \
	alphaTreduceFactor   0.1 \
	alphaTincreaseFactor 3 \
	nAlphaAdjustMax      3 \
	wolfeEnergy          0.0001 \
	wolfeGradient        0.9 \
	fdTest               no
electronic-scf  \
	nIterations	10000 \
	energyDiffThreshold	1e-08 \
	residualThreshold	1e-07 \
	mixFraction	0.5 \
	qMetric	0.8 \
	history	10 \
	nEigSteps	2 \
	eigDiffThreshold	1e-08 \
	mixedVariable	Density \
	qKerker	0.8 \
	qKappa	-1 \
	verbose	no \
	mixFractionMag	1.5
exchange-regularization WignerSeitzTruncated
fluid None
fluid-ex-corr (null) lda-PZ
fluid-gummel-loop 10 1.000000e-05
fluid-minimize  \
	dirUpdateScheme      PolakRibiere \
	linminMethod         DirUpdateRecommended \
	nIterations          100 \
	history              15 \
	knormThreshold       0 \
	energyDiffThreshold  0 \
	nEnergyDiff          2 \
	alphaTstart          1 \
	alphaTmin            1e-10 \
	updateTestStepSize   yes \
	alphaTreduceFactor   0.1 \
	alphaTincreaseFactor 3 \
	nAlphaAdjustMax      3 \
	wolfeEnergy          0.0001 \
	wolfeGradient        0.9 \
	fdTest               no
fluid-solvent H2O 55.338 ScalarEOS \
	epsBulk 78.4 \
	pMol 0.92466 \
	epsInf 1.77 \
	Pvap 1.06736e-10 \
	sigmaBulk 4.62e-05 \
	Rvdw 2.61727 \
	Res 1.42 \
	tauNuc 343133 \
	poleEl 15 7 1
forces-output-coords Positions
ion Na   0.000000000000000   0.000000000000000   0.000000000000000 0
ion-species SG15/$ID_ONCV_PBE.upf
ion-width 0
ionic-minimize  \
	dirUpdateScheme      L-BFGS \
	linminMethod         DirUpdateRecommended \
	nIterations          0 \
	history              15 \
	knormThreshold       0.0001 \
	energyDiffThreshold  1e-06 \
	nEnergyDiff          2 \
	alphaTstart          1 \
	alphaTmin            1e-10 \
	updateTestStepSize   yes \
	alphaTreduceFactor   0.1 \
	alphaTincreaseFactor 3 \
	nAlphaAdjustMax      3 \
	wolfeEnergy          0.0001 \
	wolfeGradient        0.9 \
	fdTest               no
kpoint   0.000000000000   0.000000000000   0.000000000000  1.00000000000000
kpoint-folding 12 12 1 
latt-move-scale 1 1 1
latt-scale 3 3 1 
lattice  \
	   4.727486978767153   -2.363743489383575    0.000000000000000  \
	  -0.000000000000000    4.094123819672498    0.000000000000000  \
	   0.000000000000000    0.000000000000000   40.000000000000000 
lattice-minimize  \
	dirUpdateScheme      L-BFGS \
	linminMethod         DirUpdateRecommended \
	nIterations          0 \
	history              15 \
	knormThreshold       0 \
	energyDiffThreshold  1e-06 \
	nEnergyDiff          2 \
	alphaTstart          1 \
	alphaTmin            1e-10 \
	updateTestStepSize   yes \
	alphaTreduceFactor   0.1 \
	alphaTincreaseFactor 3 \
	nAlphaAdjustMax      3 \
	wolfeEnergy          0.0001 \
	wolfeGradient        0.9 \
	fdTest               no
lcao-params -1 1e-06 1e-05
pcm-variant GLSSA13
spintype z-spin
subspace-rotation-factor 1 yes
symmetries automatic
symmetry-threshold 0.0001



---------- Setting up symmetries ----------

Found 24 point-group symmetries of the bravais lattice
Found 24 space-group symmetries with basis
Applied RMS atom displacement 0 bohrs to make symmetries exact.

---------- Initializing the Grid ----------
R = 
[      14.1825     -7.09123            0  ]
[            0      12.2824            0  ]
[            0            0           40  ]
unit cell volume = 6967.77
G =
[   0.443025   0.255781         -0  ]
[          0   0.511561         -0  ]
[         -0         -0    0.15708  ]
Minimum fftbox size, Smin = [  60  60  164  ]
Chosen fftbox size, S = [  60  60  168  ]

---------- Exchange Correlation functional ----------
Initalized PBE GGA exchange.
Initalized PBE GGA correlation.

---------- Setting up pseudopotentials ----------
Width of ionic core gaussian charges (only for fluid interactions / plotting) set to 0

Reading pseudopotential file '/home/gridsan/aligho/DFT/build-Nov24/pseudopotentials/SG15/Na_ONCV_PBE.upf':
  'Na' pseudopotential, 'PBE' functional
  Generated using ONCVPSP code by D. R. Hamann
  Author: Martin Schlipf and Francois Gygi  Date: 150915.
  9 valence electrons, 3 orbitals, 4 projectors, 1992 radial grid points, with lMax = 1
  Transforming local potential to a uniform radial grid of dG=0.02 with 1489 points.
  Transforming nonlocal projectors to a uniform radial grid of dG=0.02 with 432 points.
    2S    l: 0   occupation:  2.0   eigenvalue: -2.085640
    2P    l: 1   occupation:  6.0   eigenvalue: -1.053708
    3S    l: 0   occupation:  1.0   eigenvalue: -0.100838
  Transforming atomic orbitals to a uniform radial grid of dG=0.02 with 432 points.
  Core radius for overlap checks: 2.01 bohrs.
  Reading pulay file /home/gridsan/aligho/DFT/build-Nov24/pseudopotentials/SG15/Na_ONCV_PBE.pulay ... using dE_dnG = -2.946487e-03 computed for Ecut = 20.

Initialized 1 species with 1 total atoms.

Folded 1 k-points by 12x12x1 to 144 k-points.

---------- Setting up k-points, bands, fillings ----------
Reduced to 19 k-points under symmetry. 
Computing the number of bands and number of electrons
Calculating initial fillings.
nElectrons:   9.000000   nBands: 6   nStates: 38

----- Setting up reduced wavefunction bases (one per k-point) -----
average nbasis = 29766.104 , ideal nbasis = 29766.845

---------- Setting up coulomb interaction ----------
Initialized slab truncation along lattice direction 001

---------- Setting up 2D ewald sum ----------
Optimum gaussian width for ewald sums = 7.873530 bohr.
Real space sums over 289 unit cells with max indices [  8  8  0  ]
Reciprocal space sums over 81 terms with max indices [  4  4  0  ]

---------- Allocating electronic variables ----------
Initializing wave functions:  linear combination of atomic orbitals
Note: number of bands (6) exceeds available atomic orbitals (5)
Na pseudo-atom occupations:   s ( 2 1 )  p ( 6 )
[d-5-12-1:49483] 18 more processes have sent help message help-mpi-common-cuda.txt / dlopen failed
[d-5-12-1:49483] Set MCA parameter "orte_base_help_aggregate" to 0 to see all help / error messages
[d-5-12-1:49483] 18 more processes have sent help message help-mpi-btl-openib-cpc-base.txt / no cpcs for port
	FillingsUpdate:  mu: -0.102026929  nElectrons: 9.000000  magneticMoment: [ Abs: 0.28000  Tot: +0.28000 ]
LCAOMinimize: Iter:   0  F: -42.5531183217524855  |grad|_K:  8.417e-06  alpha:  1.000e+00
	FillingsUpdate:  mu: -0.102025119  nElectrons: 9.000000  magneticMoment: [ Abs: 0.28000  Tot: +0.28000 ]
LCAOMinimize: Iter:   1  F: -42.5531183699003890  |grad|_K:  4.610e-08  alpha:  9.937e-01  linmin: -3.642e-03  cgtest:  3.927e-01  t[s]:      8.66
LCAOMinimize: Encountered beta<0, resetting CG.
	FillingsUpdate:  mu: -0.102025116  nElectrons: 9.000000  magneticMoment: [ Abs: 0.28000  Tot: +0.28000 ]
LCAOMinimize: Iter:   2  F: -42.5531183699016822  |grad|_K:  1.742e-10  alpha:  9.998e-01  linmin:  1.001e-02  cgtest: -1.929e-01  t[s]:     11.04
LCAOMinimize: Converged (|Delta F|<1.000000e-06 for 2 iters).


---- Citations for features of the code used in this run ----

   Software package:
      R. Sundararaman, K. Letchworth-Weaver, K.A. Schwarz, D. Gunceler, Y. Ozhabes and T.A. Arias, 'JDFTx: software for joint density-functional theory', SoftwareX 6, 278 (2017)

   gga-PBE exchange-correlation functional:
      J.P. Perdew, K. Burke and M. Ernzerhof, Phys. Rev. Lett. 77, 3865 (1996)

   Pseudopotentials:
      M Schlipf and F Gygi, Comput. Phys. Commun. 196, 36 (2015)

   Truncated Coulomb potentials:
      R. Sundararaman and T.A. Arias, Phys. Rev. B 87, 165122 (2013)

This list may not be complete. Please suggest additional citations or
report any other bugs at https://github.com/shankar1729/jdftx/issues

Initialization completed successfully at t[s]:     11.14


-------- Electronic minimization -----------
Will mix electronic density at each iteration.
	FillingsUpdate:  mu: -0.102025116  nElectrons: 9.000000  magneticMoment: [ Abs: 0.28000  Tot: +0.28000 ]
	FillingsUpdate:  mu: -0.102359965  nElectrons: 9.000000  magneticMoment: [ Abs: 0.28000  Tot: +0.28000 ]
SCF: Cycle:  0   F: -42.553449779328275   dF: -3.314e-04   |Residual|: 2.087e-03   |deigs|: 1.737e-01  t[s]:     15.59
	FillingsUpdate:  mu: -0.102475172  nElectrons: 9.000000  magneticMoment: [ Abs: 0.28046  Tot: +0.28000 ]
SCF: Cycle:  1   F: -42.553455715500874   dF: -5.936e-06   |Residual|: 1.235e-03   |deigs|: 5.315e-03  t[s]:     19.08
	FillingsUpdate:  mu: -0.102639618  nElectrons: 9.000000  magneticMoment: [ Abs: 0.28038  Tot: +0.28000 ]
SCF: Cycle:  2   F: -42.553458021869986   dF: -2.306e-06   |Residual|: 7.002e-04   |deigs|: 2.679e-03  t[s]:     22.67
	FillingsUpdate:  mu: -0.102750524  nElectrons: 9.000000  magneticMoment: [ Abs: 0.28054  Tot: +0.28000 ]
SCF: Cycle:  3   F: -42.553459433952291   dF: -1.412e-06   |Residual|: 5.437e-04   |deigs|: 1.819e-03  t[s]:     26.24
	FillingsUpdate:  mu: -0.102955681  nElectrons: 9.000000  magneticMoment: [ Abs: 0.28036  Tot: +0.28000 ]
SCF: Cycle:  4   F: -42.553461822944804   dF: -2.389e-06   |Residual|: 2.558e-04   |deigs|: 1.444e-03  t[s]:     29.93
	FillingsUpdate:  mu: -0.103013011  nElectrons: 9.000000  magneticMoment: [ Abs: 0.28054  Tot: +0.28000 ]
SCF: Cycle:  5   F: -42.553462389435460   dF: -5.665e-07   |Residual|: 1.586e-04   |deigs|: 1.411e-03  t[s]:     33.68
	FillingsUpdate:  mu: -0.102998086  nElectrons: 9.000000  magneticMoment: [ Abs: 0.28043  Tot: +0.28000 ]
SCF: Cycle:  6   F: -42.553462717594790   dF: -3.282e-07   |Residual|: 9.983e-05   |deigs|: 5.574e-04  t[s]:     37.46
	FillingsUpdate:  mu: -0.102977850  nElectrons: 9.000000  magneticMoment: [ Abs: 0.28050  Tot: +0.28000 ]
SCF: Cycle:  7   F: -42.553462835746913   dF: -1.182e-07   |Residual|: 7.168e-05   |deigs|: 5.196e-04  t[s]:     41.29
	FillingsUpdate:  mu: -0.102923304  nElectrons: 9.000000  magneticMoment: [ Abs: 0.28045  Tot: +0.28000 ]
SCF: Cycle:  8   F: -42.553462897482824   dF: -6.174e-08   |Residual|: 5.655e-05   |deigs|: 1.269e-03  t[s]:     45.12
	FillingsUpdate:  mu: -0.102897245  nElectrons: 9.000000  magneticMoment: [ Abs: 0.28049  Tot: +0.28000 ]
SCF: Cycle:  9   F: -42.553462901267544   dF: -3.785e-09   |Residual|: 4.557e-05   |deigs|: 3.049e-04  t[s]:     49.07
	FillingsUpdate:  mu: -0.102854603  nElectrons: 9.000000  magneticMoment: [ Abs: 0.28052  Tot: +0.28000 ]
SCF: Cycle: 10   F: -42.553462910641393   dF: -9.374e-09   |Residual|: 4.277e-05   |deigs|: 1.162e-04  t[s]:     53.22
SCF: Converged (|Delta E|<1.000000e-08 for 2 iters).


# Ionic positions in lattice coordinates:
ion Na   0.000000000000000   0.000000000000000   0.000000000000000 0

# Forces in Lattice coordinates:
force Na   0.000000000000000   0.000000000000000   0.000000000000000 0

# Energy components:
   Eewald =      -12.0320174002217755
       EH =       21.7118599936697123
     Eloc =      -54.7431590088593865
      Enl =      -12.9046397566108730
   Epulay =       -0.0000003132867683
      Exc =       -6.2068265313276019
       KE =       21.6213207939481364
-------------------------------------
     Etot =      -42.5534622226885588
       TS =        0.0000006879528343
-------------------------------------
        F =      -42.5534629106413931

IonicMinimize: Iter:   0  F: -42.553462910641393  |grad|_K:  0.000e+00  t[s]:     53.40
IonicMinimize: Converged (|grad|_K<1.000000e-04).

#--- Lowdin population analysis ---
# oxidation-state Na +0.004
# magnetic-moments Na +0.279

End date and time: Sat Feb  5 22:32:16 2022  (Duration: 0-0:00:53.45)
Done!
scale=4
magnetization=0.28
--------------------------------------------------------------------------
The library attempted to open the following supporting CUDA libraries,
but each of them failed.  CUDA-aware support is disabled.
libcuda.so.1: cannot open shared object file: No such file or directory
libcuda.dylib: cannot open shared object file: No such file or directory
/usr/lib64/libcuda.so.1: cannot open shared object file: No such file or directory
/usr/lib64/libcuda.dylib: cannot open shared object file: No such file or directory
If you are not interested in CUDA-aware support, then run with
--mca opal_warn_on_missing_libcuda 0 to suppress this message.  If you are interested
in CUDA-aware support, then try setting LD_LIBRARY_PATH to the location
of libcuda.so.1 to get passed this issue.
--------------------------------------------------------------------------
--------------------------------------------------------------------------
No OpenFabrics connection schemes reported that they were able to be
used on a specific port.  As such, the openib BTL (OpenFabrics
support) will be disabled for this port.

  Local host:           d-5-12-1
  Local device:         mlx5_1
  Local port:           1
  CPCs attempted:       rdmacm, udcm
--------------------------------------------------------------------------

*************** JDFTx 1.6.0 (git hash 42ebbcc2) ***************

Start date and time: Sat Feb  5 22:32:17 2022
Executable jdftx with command-line: -i Alkali.in
Running on hosts (process indices):  d-5-12-1 (0-18)
Divided in process groups (process indices):  0 (0)  1 (1)  2 (2)  3 (3)  4 (4)  5 (5)  6 (6)  7 (7)  8 (8)  9 (9)  10 (10)  11 (11)  12 (12)  13 (13)  14 (14)  15 (15)  16 (16)  17 (17)  18 (18)
Resource initialization completed at t[s]:      0.00
Run totals: 19 processes, 48 threads, 0 GPUs


Input parsed successfully to the following command list (including defaults):

basis kpoint-dependent
coords-type Lattice
core-overlap-check vector
coulomb-interaction Slab 001
davidson-band-ratio 1.1
dump End None
dump-name $INPUT.$VAR
elec-cutoff 20
elec-eigen-algo Davidson
elec-ex-corr gga-PBE
elec-initial-magnetization 0.280000 yes
elec-smearing Fermi 1e-05
electronic-minimize  \
	dirUpdateScheme      FletcherReeves \
	linminMethod         DirUpdateRecommended \
	nIterations          100 \
	history              15 \
	knormThreshold       0 \
	energyDiffThreshold  1e-08 \
	nEnergyDiff          2 \
	alphaTstart          1 \
	alphaTmin            1e-10 \
	updateTestStepSize   yes \
	alphaTreduceFactor   0.1 \
	alphaTincreaseFactor 3 \
	nAlphaAdjustMax      3 \
	wolfeEnergy          0.0001 \
	wolfeGradient        0.9 \
	fdTest               no
electronic-scf  \
	nIterations	10000 \
	energyDiffThreshold	1e-08 \
	residualThreshold	1e-07 \
	mixFraction	0.5 \
	qMetric	0.8 \
	history	10 \
	nEigSteps	2 \
	eigDiffThreshold	1e-08 \
	mixedVariable	Density \
	qKerker	0.8 \
	qKappa	-1 \
	verbose	no \
	mixFractionMag	1.5
exchange-regularization WignerSeitzTruncated
fluid None
fluid-ex-corr (null) lda-PZ
fluid-gummel-loop 10 1.000000e-05
fluid-minimize  \
	dirUpdateScheme      PolakRibiere \
	linminMethod         DirUpdateRecommended \
	nIterations          100 \
	history              15 \
	knormThreshold       0 \
	energyDiffThreshold  0 \
	nEnergyDiff          2 \
	alphaTstart          1 \
	alphaTmin            1e-10 \
	updateTestStepSize   yes \
	alphaTreduceFactor   0.1 \
	alphaTincreaseFactor 3 \
	nAlphaAdjustMax      3 \
	wolfeEnergy          0.0001 \
	wolfeGradient        0.9 \
	fdTest               no
fluid-solvent H2O 55.338 ScalarEOS \
	epsBulk 78.4 \
	pMol 0.92466 \
	epsInf 1.77 \
	Pvap 1.06736e-10 \
	sigmaBulk 4.62e-05 \
	Rvdw 2.61727 \
	Res 1.42 \
	tauNuc 343133 \
	poleEl 15 7 1
forces-output-coords Positions
ion Na   0.000000000000000   0.000000000000000   0.000000000000000 0
ion-species SG15/$ID_ONCV_PBE.upf
ion-width 0
ionic-minimize  \
	dirUpdateScheme      L-BFGS \
	linminMethod         DirUpdateRecommended \
	nIterations          0 \
	history              15 \
	knormThreshold       0.0001 \
	energyDiffThreshold  1e-06 \
	nEnergyDiff          2 \
	alphaTstart          1 \
	alphaTmin            1e-10 \
	updateTestStepSize   yes \
	alphaTreduceFactor   0.1 \
	alphaTincreaseFactor 3 \
	nAlphaAdjustMax      3 \
	wolfeEnergy          0.0001 \
	wolfeGradient        0.9 \
	fdTest               no
kpoint   0.000000000000   0.000000000000   0.000000000000  1.00000000000000
kpoint-folding 12 12 1 
latt-move-scale 1 1 1
latt-scale 4 4 1 
lattice  \
	   4.727486978767153   -2.363743489383575    0.000000000000000  \
	  -0.000000000000000    4.094123819672498    0.000000000000000  \
	   0.000000000000000    0.000000000000000   40.000000000000000 
lattice-minimize  \
	dirUpdateScheme      L-BFGS \
	linminMethod         DirUpdateRecommended \
	nIterations          0 \
	history              15 \
	knormThreshold       0 \
	energyDiffThreshold  1e-06 \
	nEnergyDiff          2 \
	alphaTstart          1 \
	alphaTmin            1e-10 \
	updateTestStepSize   yes \
	alphaTreduceFactor   0.1 \
	alphaTincreaseFactor 3 \
	nAlphaAdjustMax      3 \
	wolfeEnergy          0.0001 \
	wolfeGradient        0.9 \
	fdTest               no
lcao-params -1 1e-06 1e-05
pcm-variant GLSSA13
spintype z-spin
subspace-rotation-factor 1 yes
symmetries automatic
symmetry-threshold 0.0001



---------- Setting up symmetries ----------

Found 24 point-group symmetries of the bravais lattice
Found 24 space-group symmetries with basis
Applied RMS atom displacement 0 bohrs to make symmetries exact.

---------- Initializing the Grid ----------
R = 
[      18.9099     -9.45497            0  ]
[            0      16.3765            0  ]
[            0            0           40  ]
unit cell volume = 12387.1
G =
[   0.332269   0.191835         -0  ]
[          0   0.383671         -0  ]
[         -0         -0    0.15708  ]
Minimum fftbox size, Smin = [  80  80  164  ]
Chosen fftbox size, S = [  80  80  168  ]

---------- Exchange Correlation functional ----------
Initalized PBE GGA exchange.
Initalized PBE GGA correlation.

---------- Setting up pseudopotentials ----------
Width of ionic core gaussian charges (only for fluid interactions / plotting) set to 0

Reading pseudopotential file '/home/gridsan/aligho/DFT/build-Nov24/pseudopotentials/SG15/Na_ONCV_PBE.upf':
  'Na' pseudopotential, 'PBE' functional
  Generated using ONCVPSP code by D. R. Hamann
  Author: Martin Schlipf and Francois Gygi  Date: 150915.
  9 valence electrons, 3 orbitals, 4 projectors, 1992 radial grid points, with lMax = 1
  Transforming local potential to a uniform radial grid of dG=0.02 with 1489 points.
  Transforming nonlocal projectors to a uniform radial grid of dG=0.02 with 432 points.
    2S    l: 0   occupation:  2.0   eigenvalue: -2.085640
    2P    l: 1   occupation:  6.0   eigenvalue: -1.053708
    3S    l: 0   occupation:  1.0   eigenvalue: -0.100838
  Transforming atomic orbitals to a uniform radial grid of dG=0.02 with 432 points.
  Core radius for overlap checks: 2.01 bohrs.
  Reading pulay file /home/gridsan/aligho/DFT/build-Nov24/pseudopotentials/SG15/Na_ONCV_PBE.pulay ... using dE_dnG = -2.946487e-03 computed for Ecut = 20.

Initialized 1 species with 1 total atoms.

Folded 1 k-points by 12x12x1 to 144 k-points.

---------- Setting up k-points, bands, fillings ----------
Reduced to 19 k-points under symmetry. 
Computing the number of bands and number of electrons
Calculating initial fillings.
nElectrons:   9.000000   nBands: 6   nStates: 38

----- Setting up reduced wavefunction bases (one per k-point) -----
average nbasis = 52924.021 , ideal nbasis = 52918.836

---------- Setting up coulomb interaction ----------
Initialized slab truncation along lattice direction 001

---------- Setting up 2D ewald sum ----------
Optimum gaussian width for ewald sums = 10.498040 bohr.
Real space sums over 289 unit cells with max indices [  8  8  0  ]
Reciprocal space sums over 81 terms with max indices [  4  4  0  ]

---------- Allocating electronic variables ----------
Initializing wave functions:  linear combination of atomic orbitals
Note: number of bands (6) exceeds available atomic orbitals (5)
Na pseudo-atom occupations:   s ( 2 1 )  p ( 6 )
[d-5-12-1:77921] 18 more processes have sent help message help-mpi-common-cuda.txt / dlopen failed
[d-5-12-1:77921] Set MCA parameter "orte_base_help_aggregate" to 0 to see all help / error messages
[d-5-12-1:77921] 18 more processes have sent help message help-mpi-btl-openib-cpc-base.txt / no cpcs for port
	FillingsUpdate:  mu: -0.101041579  nElectrons: 9.000000  magneticMoment: [ Abs: 0.28000  Tot: +0.28000 ]
LCAOMinimize: Iter:   0  F: -42.5503111707951049  |grad|_K:  1.181e-06  alpha:  1.000e+00
	FillingsUpdate:  mu: -0.101041352  nElectrons: 9.000000  magneticMoment: [ Abs: 0.28000  Tot: +0.28000 ]
LCAOMinimize: Iter:   1  F: -42.5503111717434237  |grad|_K:  5.076e-09  alpha:  9.945e-01  linmin:  2.033e-04  cgtest: -1.267e-02  t[s]:     15.12
LCAOMinimize: 	Wrong curvature in test step, increasing alphaT to 2.983484e+00.
	FillingsUpdate:  mu: -0.101041352  nElectrons: 9.000000  magneticMoment: [ Abs: 0.28000  Tot: +0.28000 ]
LCAOMinimize: Iter:   2  F: -42.5503111717438287  |grad|_K:  6.554e-11  alpha: -4.716e-02  linmin: -5.227e-03  cgtest:  2.081e-01  t[s]:     19.20
LCAOMinimize: Encountered beta<0, resetting CG.
LCAOMinimize: Converged (|Delta F|<1.000000e-06 for 2 iters).


---- Citations for features of the code used in this run ----

   Software package:
      R. Sundararaman, K. Letchworth-Weaver, K.A. Schwarz, D. Gunceler, Y. Ozhabes and T.A. Arias, 'JDFTx: software for joint density-functional theory', SoftwareX 6, 278 (2017)

   gga-PBE exchange-correlation functional:
      J.P. Perdew, K. Burke and M. Ernzerhof, Phys. Rev. Lett. 77, 3865 (1996)

   Pseudopotentials:
      M Schlipf and F Gygi, Comput. Phys. Commun. 196, 36 (2015)

   Truncated Coulomb potentials:
      R. Sundararaman and T.A. Arias, Phys. Rev. B 87, 165122 (2013)

This list may not be complete. Please suggest additional citations or
report any other bugs at https://github.com/shankar1729/jdftx/issues

Initialization completed successfully at t[s]:     19.36


-------- Electronic minimization -----------
Will mix electronic density at each iteration.
	FillingsUpdate:  mu: -0.101041352  nElectrons: 9.000000  magneticMoment: [ Abs: 0.28000  Tot: +0.28000 ]
	FillingsUpdate:  mu: -0.101068219  nElectrons: 9.000000  magneticMoment: [ Abs: 0.28000  Tot: +0.28000 ]
SCF: Cycle:  0   F: -42.550344715730589   dF: -3.354e-05   |Residual|: 1.845e-03   |deigs|: 1.698e-01  t[s]:     27.04
	FillingsUpdate:  mu: -0.101078866  nElectrons: 9.000000  magneticMoment: [ Abs: 0.28051  Tot: +0.28000 ]
SCF: Cycle:  1   F: -42.550345112511508   dF: -3.968e-07   |Residual|: 8.432e-04   |deigs|: 1.096e-02  t[s]:     33.00
	FillingsUpdate:  mu: -0.101098588  nElectrons: 9.000000  magneticMoment: [ Abs: 0.28039  Tot: +0.28000 ]
SCF: Cycle:  2   F: -42.550345235136895   dF: -1.226e-07   |Residual|: 1.820e-04   |deigs|: 1.637e-03  t[s]:     39.05
	FillingsUpdate:  mu: -0.101105482  nElectrons: 9.000000  magneticMoment: [ Abs: 0.28048  Tot: +0.28000 ]
SCF: Cycle:  3   F: -42.550345254904293   dF: -1.977e-08   |Residual|: 8.300e-05   |deigs|: 4.770e-04  t[s]:     45.28
	FillingsUpdate:  mu: -0.101110161  nElectrons: 9.000000  magneticMoment: [ Abs: 0.28044  Tot: +0.28000 ]
SCF: Cycle:  4   F: -42.550345264044111   dF: -9.140e-09   |Residual|: 5.404e-05   |deigs|: 3.926e-04  t[s]:     51.59
	FillingsUpdate:  mu: -0.101120787  nElectrons: 9.000000  magneticMoment: [ Abs: 0.28047  Tot: +0.28000 ]
SCF: Cycle:  5   F: -42.550345277111823   dF: -1.307e-08   |Residual|: 4.254e-05   |deigs|: 2.056e-04  t[s]:     58.01
	FillingsUpdate:  mu: -0.101125997  nElectrons: 9.000000  magneticMoment: [ Abs: 0.28044  Tot: +0.28000 ]
SCF: Cycle:  6   F: -42.550345283404411   dF: -6.293e-09   |Residual|: 3.046e-05   |deigs|: 2.183e-04  t[s]:     64.53
	FillingsUpdate:  mu: -0.101135859  nElectrons: 9.000000  magneticMoment: [ Abs: 0.28048  Tot: +0.28000 ]
SCF: Cycle:  7   F: -42.550345288861486   dF: -5.457e-09   |Residual|: 2.167e-05   |deigs|: 2.208e-04  t[s]:     71.19
SCF: Converged (|Delta E|<1.000000e-08 for 2 iters).


# Ionic positions in lattice coordinates:
ion Na   0.000000000000000   0.000000000000000   0.000000000000000 0

# Forces in Lattice coordinates:
force Na   0.000000000000000   0.000000000000000   0.000000000000000 0

# Energy components:
   Eewald =       -9.0240130501663280
       EH =       24.7665877221795121
     Eloc =      -60.8102123489827093
      Enl =      -12.9027021312526173
   Epulay =        0.0000012333957556
      Exc =       -6.2101722913356205
       KE =       21.6301664100164288
-------------------------------------
     Etot =      -42.5503444561455808
       TS =        0.0000008327159086
-------------------------------------
        F =      -42.5503452888614859

IonicMinimize: Iter:   0  F: -42.550345288861486  |grad|_K:  0.000e+00  t[s]:     71.45
IonicMinimize: Converged (|grad|_K<1.000000e-04).

#--- Lowdin population analysis ---
# oxidation-state Na +0.000
# magnetic-moments Na +0.280

End date and time: Sat Feb  5 22:33:28 2022  (Duration: 0-0:01:11.52)
Done!
