The alkali metal is Na
scale=2
magnetization=1.0
--------------------------------------------------------------------------
The library attempted to open the following supporting CUDA libraries,
but each of them failed.  CUDA-aware support is disabled.
libcuda.so.1: cannot open shared object file: No such file or directory
libcuda.dylib: cannot open shared object file: No such file or directory
/usr/lib64/libcuda.so.1: cannot open shared object file: No such file or directory
/usr/lib64/libcuda.dylib: cannot open shared object file: No such file or directory
If you are not interested in CUDA-aware support, then run with
--mca opal_warn_on_missing_libcuda 0 to suppress this message.  If you are interested
in CUDA-aware support, then try setting LD_LIBRARY_PATH to the location
of libcuda.so.1 to get passed this issue.
--------------------------------------------------------------------------
--------------------------------------------------------------------------
No OpenFabrics connection schemes reported that they were able to be
used on a specific port.  As such, the openib BTL (OpenFabrics
support) will be disabled for this port.

  Local host:           d-16-5-2
  Local device:         mlx5_1
  Local port:           1
  CPCs attempted:       rdmacm, udcm
--------------------------------------------------------------------------

*************** JDFTx 1.6.0 (git hash 42ebbcc2) ***************

Start date and time: Sat Feb  5 22:36:53 2022
Executable jdftx with command-line: -i Alkali.in
Running on hosts (process indices):  d-16-5-2 (0-18)
Divided in process groups (process indices):  0 (0)  1 (1)  2 (2)  3 (3)  4 (4)  5 (5)  6 (6)  7 (7)  8 (8)  9 (9)  10 (10)  11 (11)  12 (12)  13 (13)  14 (14)  15 (15)  16 (16)  17 (17)  18 (18)
Resource initialization completed at t[s]:      0.00
Run totals: 19 processes, 48 threads, 0 GPUs


Input parsed successfully to the following command list (including defaults):

basis kpoint-dependent
coords-type Lattice
core-overlap-check vector
coulomb-interaction Slab 001
davidson-band-ratio 1.1
dump End None
dump-name $INPUT.$VAR
elec-cutoff 20
elec-eigen-algo Davidson
elec-ex-corr gga-PBE
elec-initial-magnetization 1.000000 yes
elec-smearing Fermi 1e-05
electronic-minimize  \
	dirUpdateScheme      FletcherReeves \
	linminMethod         DirUpdateRecommended \
	nIterations          100 \
	history              15 \
	knormThreshold       0 \
	energyDiffThreshold  1e-08 \
	nEnergyDiff          2 \
	alphaTstart          1 \
	alphaTmin            1e-10 \
	updateTestStepSize   yes \
	alphaTreduceFactor   0.1 \
	alphaTincreaseFactor 3 \
	nAlphaAdjustMax      3 \
	wolfeEnergy          0.0001 \
	wolfeGradient        0.9 \
	fdTest               no
electronic-scf  \
	nIterations	10000 \
	energyDiffThreshold	1e-08 \
	residualThreshold	1e-07 \
	mixFraction	0.5 \
	qMetric	0.8 \
	history	10 \
	nEigSteps	2 \
	eigDiffThreshold	1e-08 \
	mixedVariable	Density \
	qKerker	0.8 \
	qKappa	-1 \
	verbose	no \
	mixFractionMag	1.5
exchange-regularization WignerSeitzTruncated
fluid None
fluid-ex-corr (null) lda-PZ
fluid-gummel-loop 10 1.000000e-05
fluid-minimize  \
	dirUpdateScheme      PolakRibiere \
	linminMethod         DirUpdateRecommended \
	nIterations          100 \
	history              15 \
	knormThreshold       0 \
	energyDiffThreshold  0 \
	nEnergyDiff          2 \
	alphaTstart          1 \
	alphaTmin            1e-10 \
	updateTestStepSize   yes \
	alphaTreduceFactor   0.1 \
	alphaTincreaseFactor 3 \
	nAlphaAdjustMax      3 \
	wolfeEnergy          0.0001 \
	wolfeGradient        0.9 \
	fdTest               no
fluid-solvent H2O 55.338 ScalarEOS \
	epsBulk 78.4 \
	pMol 0.92466 \
	epsInf 1.77 \
	Pvap 1.06736e-10 \
	sigmaBulk 4.62e-05 \
	Rvdw 2.61727 \
	Res 1.42 \
	tauNuc 343133 \
	poleEl 15 7 1
forces-output-coords Positions
ion Na   0.000000000000000   0.000000000000000   0.000000000000000 0
ion-species SG15/$ID_ONCV_PBE.upf
ion-width 0
ionic-minimize  \
	dirUpdateScheme      L-BFGS \
	linminMethod         DirUpdateRecommended \
	nIterations          0 \
	history              15 \
	knormThreshold       0.0001 \
	energyDiffThreshold  1e-06 \
	nEnergyDiff          2 \
	alphaTstart          1 \
	alphaTmin            1e-10 \
	updateTestStepSize   yes \
	alphaTreduceFactor   0.1 \
	alphaTincreaseFactor 3 \
	nAlphaAdjustMax      3 \
	wolfeEnergy          0.0001 \
	wolfeGradient        0.9 \
	fdTest               no
kpoint   0.000000000000   0.000000000000   0.000000000000  1.00000000000000
kpoint-folding 12 12 1 
latt-move-scale 1 1 1
latt-scale 2 2 1 
lattice  \
	   4.727486978767153   -2.363743489383575    0.000000000000000  \
	  -0.000000000000000    4.094123819672498    0.000000000000000  \
	   0.000000000000000    0.000000000000000   40.000000000000000 
lattice-minimize  \
	dirUpdateScheme      L-BFGS \
	linminMethod         DirUpdateRecommended \
	nIterations          0 \
	history              15 \
	knormThreshold       0 \
	energyDiffThreshold  1e-06 \
	nEnergyDiff          2 \
	alphaTstart          1 \
	alphaTmin            1e-10 \
	updateTestStepSize   yes \
	alphaTreduceFactor   0.1 \
	alphaTincreaseFactor 3 \
	nAlphaAdjustMax      3 \
	wolfeEnergy          0.0001 \
	wolfeGradient        0.9 \
	fdTest               no
lcao-params -1 1e-06 1e-05
pcm-variant GLSSA13
spintype z-spin
subspace-rotation-factor 1 yes
symmetries automatic
symmetry-threshold 0.0001



---------- Setting up symmetries ----------

Found 24 point-group symmetries of the bravais lattice
Found 24 space-group symmetries with basis
Applied RMS atom displacement 0 bohrs to make symmetries exact.

---------- Initializing the Grid ----------
R = 
[      9.45497     -4.72749            0  ]
[            0      8.18825            0  ]
[            0            0           40  ]
unit cell volume = 3096.79
G =
[   0.664538   0.383671         -0  ]
[          0   0.767342         -0  ]
[         -0         -0    0.15708  ]
Minimum fftbox size, Smin = [  40  40  164  ]
Chosen fftbox size, S = [  40  40  168  ]

---------- Exchange Correlation functional ----------
Initalized PBE GGA exchange.
Initalized PBE GGA correlation.

---------- Setting up pseudopotentials ----------
Width of ionic core gaussian charges (only for fluid interactions / plotting) set to 0

Reading pseudopotential file '/home/gridsan/aligho/DFT/build-Nov24/pseudopotentials/SG15/Na_ONCV_PBE.upf':
  'Na' pseudopotential, 'PBE' functional
  Generated using ONCVPSP code by D. R. Hamann
  Author: Martin Schlipf and Francois Gygi  Date: 150915.
  9 valence electrons, 3 orbitals, 4 projectors, 1992 radial grid points, with lMax = 1
  Transforming local potential to a uniform radial grid of dG=0.02 with 1489 points.
  Transforming nonlocal projectors to a uniform radial grid of dG=0.02 with 432 points.
    2S    l: 0   occupation:  2.0   eigenvalue: -2.085640
    2P    l: 1   occupation:  6.0   eigenvalue: -1.053708
    3S    l: 0   occupation:  1.0   eigenvalue: -0.100838
  Transforming atomic orbitals to a uniform radial grid of dG=0.02 with 432 points.
  Core radius for overlap checks: 2.01 bohrs.
  Reading pulay file /home/gridsan/aligho/DFT/build-Nov24/pseudopotentials/SG15/Na_ONCV_PBE.pulay ... using dE_dnG = -2.946487e-03 computed for Ecut = 20.

Initialized 1 species with 1 total atoms.

Folded 1 k-points by 12x12x1 to 144 k-points.

---------- Setting up k-points, bands, fillings ----------
Reduced to 19 k-points under symmetry. 
Computing the number of bands and number of electrons
Calculating initial fillings.
nElectrons:   9.000000   nBands: 6   nStates: 38

----- Setting up reduced wavefunction bases (one per k-point) -----
average nbasis = 13230.521 , ideal nbasis = 13229.709

---------- Setting up coulomb interaction ----------
Initialized slab truncation along lattice direction 001

---------- Setting up 2D ewald sum ----------
Optimum gaussian width for ewald sums = 5.249020 bohr.
Real space sums over 289 unit cells with max indices [  8  8  0  ]
Reciprocal space sums over 81 terms with max indices [  4  4  0  ]

---------- Allocating electronic variables ----------
Initializing wave functions:  linear combination of atomic orbitals
Note: number of bands (6) exceeds available atomic orbitals (5)
Na pseudo-atom occupations:   s ( 2 1 )  p ( 6 )
	FillingsUpdate:  mu: -0.100000000  nElectrons: 9.000000  magneticMoment: [ Abs: 1.00000  Tot: +1.00000 ]
LCAOMinimize: Iter:   0  F: -42.5551888320333020  |grad|_K:       -nan  alpha:  1.000e+00
LCAOMinimize: |grad|_K=-nan. Stopping ...


---- Citations for features of the code used in this run ----

   Software package:
      R. Sundararaman, K. Letchworth-Weaver, K.A. Schwarz, D. Gunceler, Y. Ozhabes and T.A. Arias, 'JDFTx: software for joint density-functional theory', SoftwareX 6, 278 (2017)

   gga-PBE exchange-correlation functional:
      J.P. Perdew, K. Burke and M. Ernzerhof, Phys. Rev. Lett. 77, 3865 (1996)

   Pseudopotentials:
      M Schlipf and F Gygi, Comput. Phys. Commun. 196, 36 (2015)

   Truncated Coulomb potentials:
      R. Sundararaman and T.A. Arias, Phys. Rev. B 87, 165122 (2013)

This list may not be complete. Please suggest additional citations or
report any other bugs at https://github.com/shankar1729/jdftx/issues

Initialization completed successfully at t[s]:      3.29


-------- Electronic minimization -----------
Will mix electronic density at each iteration.
	FillingsUpdate:  mu: -0.100000000  nElectrons: 9.000000  magneticMoment: [ Abs: 1.00000  Tot: +1.00000 ]
[d-16-5-2:59236] 18 more processes have sent help message help-mpi-common-cuda.txt / dlopen failed
[d-16-5-2:59236] Set MCA parameter "orte_base_help_aggregate" to 0 to see all help / error messages
[d-16-5-2:59236] 18 more processes have sent help message help-mpi-btl-openib-cpc-base.txt / no cpcs for port
	FillingsUpdate:  mu: -0.100000000  nElectrons: 9.000000  magneticMoment: [ Abs: 1.00000  Tot: +1.00000 ]
SCF: Cycle:  0   F: -42.560389558832988   dF: -5.201e-03   |Residual|: 1.148e-02   |deigs|: 1.652e-01  t[s]:      5.63
	FillingsUpdate:  mu: -0.100000000  nElectrons: 9.000000  magneticMoment: [ Abs: 1.00058  Tot: +1.00000 ]
SCF: Cycle:  1   F: -42.560719593124645   dF: -3.300e-04   |Residual|: 8.330e-03   |deigs|: 1.655e-02  t[s]:      7.31
	FillingsUpdate:  mu: -0.103722874  nElectrons: 9.000000  magneticMoment: [ Abs: 1.00131  Tot: +1.00000 ]
SCF: Cycle:  2   F: -42.560930785096112   dF: -2.112e-04   |Residual|: 6.754e-03   |deigs|: 7.501e-03  t[s]:      9.02
	FillingsUpdate:  mu: -0.184275237  nElectrons: 9.000000  magneticMoment: [ Abs: 1.00061  Tot: +1.00000 ]
SCF: Cycle:  3   F: -42.560966170886452   dF: -3.539e-05   |Residual|: 4.004e-03   |deigs|: 5.579e-03  t[s]:     10.82
	FillingsUpdate:  mu: -0.102449484  nElectrons: 9.000000  magneticMoment: [ Abs: 1.00118  Tot: +1.00000 ]
SCF: Cycle:  4   F: -42.560980503757598   dF: -1.433e-05   |Residual|: 1.396e-03   |deigs|: 2.398e-03  t[s]:     12.69
	FillingsUpdate:  mu: -0.101700844  nElectrons: 9.000000  magneticMoment: [ Abs: 1.00104  Tot: +1.00000 ]
SCF: Cycle:  5   F: -42.560980857014918   dF: -3.533e-07   |Residual|: 8.958e-04   |deigs|: 2.915e-03  t[s]:     14.46
	FillingsUpdate:  mu: -0.182284982  nElectrons: 9.000000  magneticMoment: [ Abs: 1.00096  Tot: +1.00000 ]
SCF: Cycle:  6   F: -42.560981126008635   dF: -2.690e-07   |Residual|: 6.921e-04   |deigs|: 1.513e-03  t[s]:     16.33
	FillingsUpdate:  mu: -0.098232018  nElectrons: 9.000000  magneticMoment: [ Abs: 1.00188  Tot: +1.00000 ]
SCF: Cycle:  7   F: -42.560982009423164   dF: -8.834e-07   |Residual|: 5.211e-04   |deigs|: 1.977e-03  t[s]:     18.15
	FillingsUpdate:  mu: -0.099047740  nElectrons: 9.000000  magneticMoment: [ Abs: 1.00156  Tot: +1.00000 ]
SCF: Cycle:  8   F: -42.560982245911568   dF: -2.365e-07   |Residual|: 4.148e-04   |deigs|: 9.477e-04  t[s]:     20.06
	FillingsUpdate:  mu: -0.098830528  nElectrons: 9.000000  magneticMoment: [ Abs: 1.00110  Tot: +1.00000 ]
SCF: Cycle:  9   F: -42.560983559342922   dF: -1.313e-06   |Residual|: 3.306e-04   |deigs|: 5.860e-04  t[s]:     22.06
	FillingsUpdate:  mu: -0.100000000  nElectrons: 9.000000  magneticMoment: [ Abs: 1.00090  Tot: +1.00000 ]
SCF: Cycle: 10   F: -42.560984338009249   dF: -7.787e-07   |Residual|: 2.707e-04   |deigs|: 5.880e-04  t[s]:     24.00
	FillingsUpdate:  mu: -0.100000000  nElectrons: 9.000000  magneticMoment: [ Abs: 1.00132  Tot: +1.00000 ]
SCF: Cycle: 11   F: -42.560984599140980   dF: -2.611e-07   |Residual|: 2.161e-04   |deigs|: 3.380e-04  t[s]:     25.93
	FillingsUpdate:  mu: -0.100000000  nElectrons: 9.000000  magneticMoment: [ Abs: 1.00166  Tot: +1.00000 ]
SCF: Cycle: 12   F: -42.560984746484657   dF: -1.473e-07   |Residual|: 1.870e-04   |deigs|: 1.271e-03  t[s]:     27.89
	FillingsUpdate:  mu: -0.094543583  nElectrons: 9.000000  magneticMoment: [ Abs: 1.00211  Tot: +1.00000 ]
SCF: Cycle: 13   F: -42.560984568285640   dF: +1.782e-07   |Residual|: 1.623e-04   |deigs|: 1.806e-03  t[s]:     29.85
	FillingsUpdate:  mu: -0.094163767  nElectrons: 9.000000  magneticMoment: [ Abs: 1.00227  Tot: +1.00000 ]
SCF: Cycle: 14   F: -42.560984532775763   dF: +3.551e-08   |Residual|: 1.477e-04   |deigs|: 5.363e-04  t[s]:     31.78
	FillingsUpdate:  mu: -0.094213341  nElectrons: 9.000000  magneticMoment: [ Abs: 1.00214  Tot: +1.00000 ]
SCF: Cycle: 15   F: -42.560984638774009   dF: -1.060e-07   |Residual|: 1.399e-04   |deigs|: 5.547e-04  t[s]:     33.72
	FillingsUpdate:  mu: -0.095818011  nElectrons: 9.000000  magneticMoment: [ Abs: 1.00183  Tot: +1.00000 ]
SCF: Cycle: 16   F: -42.560984833773091   dF: -1.950e-07   |Residual|: 1.263e-04   |deigs|: 1.508e-03  t[s]:     35.63
	FillingsUpdate:  mu: -0.095696036  nElectrons: 9.000000  magneticMoment: [ Abs: 1.00155  Tot: +1.00000 ]
SCF: Cycle: 17   F: -42.560985129743763   dF: -2.960e-07   |Residual|: 9.603e-05   |deigs|: 4.249e-04  t[s]:     37.53
	FillingsUpdate:  mu: -0.100000000  nElectrons: 9.000000  magneticMoment: [ Abs: 1.00146  Tot: +1.00000 ]
SCF: Cycle: 18   F: -42.560985266454509   dF: -1.367e-07   |Residual|: 7.789e-05   |deigs|: 3.085e-04  t[s]:     39.43
	FillingsUpdate:  mu: -0.100000000  nElectrons: 9.000000  magneticMoment: [ Abs: 1.00148  Tot: +1.00000 ]
SCF: Cycle: 19   F: -42.560985338547844   dF: -7.209e-08   |Residual|: 4.552e-05   |deigs|: 6.962e-04  t[s]:     41.33
	FillingsUpdate:  mu: -0.100000000  nElectrons: 9.000000  magneticMoment: [ Abs: 1.00135  Tot: +1.00000 ]
SCF: Cycle: 20   F: -42.560985371090588   dF: -3.254e-08   |Residual|: 2.859e-05   |deigs|: 1.480e-03  t[s]:     43.20
	FillingsUpdate:  mu: -0.091126545  nElectrons: 9.000000  magneticMoment: [ Abs: 1.00125  Tot: +1.00000 ]
SCF: Cycle: 21   F: -42.560985385446919   dF: -1.436e-08   |Residual|: 2.014e-05   |deigs|: 1.182e-03  t[s]:     45.10
	FillingsUpdate:  mu: -0.090858205  nElectrons: 9.000000  magneticMoment: [ Abs: 1.00121  Tot: +1.00000 ]
SCF: Cycle: 22   F: -42.560985388667632   dF: -3.221e-09   |Residual|: 1.409e-05   |deigs|: 3.915e-04  t[s]:     47.06
	FillingsUpdate:  mu: -0.091543563  nElectrons: 9.000000  magneticMoment: [ Abs: 1.00119  Tot: +1.00000 ]
SCF: Cycle: 23   F: -42.560985390286689   dF: -1.619e-09   |Residual|: 9.564e-06   |deigs|: 6.878e-04  t[s]:     48.95
SCF: Converged (|Delta E|<1.000000e-08 for 2 iters).


# Ionic positions in lattice coordinates:
ion Na   0.000000000000000   0.000000000000000   0.000000000000000 0

# Forces in Lattice coordinates:
force Na  -0.000000000000000  -0.000000000000000   0.000000000000000 0

# Energy components:
   Eewald =      -18.0480261003326561
       EH =       15.7773951595212854
     Eloc =      -42.7934499493344020
      Enl =      -12.9161997244916904
   Epulay =        0.0000007725295140
      Exc =       -6.2265847390055509
       KE =       21.6458793234339382
-------------------------------------
     Etot =      -42.5609852576795689
       TS =        0.0000001326071184
-------------------------------------
        F =      -42.5609853902866888

IonicMinimize: Iter:   0  F: -42.560985390286689  |grad|_K:  0.000e+00  t[s]:     49.01
IonicMinimize: Converged (|grad|_K<1.000000e-04).

#--- Lowdin population analysis ---
# oxidation-state Na +0.110
# magnetic-moments Na +0.890

End date and time: Sat Feb  5 22:37:43 2022  (Duration: 0-0:00:49.04)
Done!
scale=3
magnetization=1.0
--------------------------------------------------------------------------
The library attempted to open the following supporting CUDA libraries,
but each of them failed.  CUDA-aware support is disabled.
libcuda.so.1: cannot open shared object file: No such file or directory
libcuda.dylib: cannot open shared object file: No such file or directory
/usr/lib64/libcuda.so.1: cannot open shared object file: No such file or directory
/usr/lib64/libcuda.dylib: cannot open shared object file: No such file or directory
If you are not interested in CUDA-aware support, then run with
--mca opal_warn_on_missing_libcuda 0 to suppress this message.  If you are interested
in CUDA-aware support, then try setting LD_LIBRARY_PATH to the location
of libcuda.so.1 to get passed this issue.
--------------------------------------------------------------------------
--------------------------------------------------------------------------
No OpenFabrics connection schemes reported that they were able to be
used on a specific port.  As such, the openib BTL (OpenFabrics
support) will be disabled for this port.

  Local host:           d-16-5-2
  Local device:         mlx5_1
  Local port:           1
  CPCs attempted:       rdmacm, udcm
--------------------------------------------------------------------------

*************** JDFTx 1.6.0 (git hash 42ebbcc2) ***************

Start date and time: Sat Feb  5 22:37:44 2022
Executable jdftx with command-line: -i Alkali.in
Running on hosts (process indices):  d-16-5-2 (0-18)
Divided in process groups (process indices):  0 (0)  1 (1)  2 (2)  3 (3)  4 (4)  5 (5)  6 (6)  7 (7)  8 (8)  9 (9)  10 (10)  11 (11)  12 (12)  13 (13)  14 (14)  15 (15)  16 (16)  17 (17)  18 (18)
Resource initialization completed at t[s]:      0.00
Run totals: 19 processes, 48 threads, 0 GPUs


Input parsed successfully to the following command list (including defaults):

basis kpoint-dependent
coords-type Lattice
core-overlap-check vector
coulomb-interaction Slab 001
davidson-band-ratio 1.1
dump End None
dump-name $INPUT.$VAR
elec-cutoff 20
elec-eigen-algo Davidson
elec-ex-corr gga-PBE
elec-initial-magnetization 1.000000 yes
elec-smearing Fermi 1e-05
electronic-minimize  \
	dirUpdateScheme      FletcherReeves \
	linminMethod         DirUpdateRecommended \
	nIterations          100 \
	history              15 \
	knormThreshold       0 \
	energyDiffThreshold  1e-08 \
	nEnergyDiff          2 \
	alphaTstart          1 \
	alphaTmin            1e-10 \
	updateTestStepSize   yes \
	alphaTreduceFactor   0.1 \
	alphaTincreaseFactor 3 \
	nAlphaAdjustMax      3 \
	wolfeEnergy          0.0001 \
	wolfeGradient        0.9 \
	fdTest               no
electronic-scf  \
	nIterations	10000 \
	energyDiffThreshold	1e-08 \
	residualThreshold	1e-07 \
	mixFraction	0.5 \
	qMetric	0.8 \
	history	10 \
	nEigSteps	2 \
	eigDiffThreshold	1e-08 \
	mixedVariable	Density \
	qKerker	0.8 \
	qKappa	-1 \
	verbose	no \
	mixFractionMag	1.5
exchange-regularization WignerSeitzTruncated
fluid None
fluid-ex-corr (null) lda-PZ
fluid-gummel-loop 10 1.000000e-05
fluid-minimize  \
	dirUpdateScheme      PolakRibiere \
	linminMethod         DirUpdateRecommended \
	nIterations          100 \
	history              15 \
	knormThreshold       0 \
	energyDiffThreshold  0 \
	nEnergyDiff          2 \
	alphaTstart          1 \
	alphaTmin            1e-10 \
	updateTestStepSize   yes \
	alphaTreduceFactor   0.1 \
	alphaTincreaseFactor 3 \
	nAlphaAdjustMax      3 \
	wolfeEnergy          0.0001 \
	wolfeGradient        0.9 \
	fdTest               no
fluid-solvent H2O 55.338 ScalarEOS \
	epsBulk 78.4 \
	pMol 0.92466 \
	epsInf 1.77 \
	Pvap 1.06736e-10 \
	sigmaBulk 4.62e-05 \
	Rvdw 2.61727 \
	Res 1.42 \
	tauNuc 343133 \
	poleEl 15 7 1
forces-output-coords Positions
ion Na   0.000000000000000   0.000000000000000   0.000000000000000 0
ion-species SG15/$ID_ONCV_PBE.upf
ion-width 0
ionic-minimize  \
	dirUpdateScheme      L-BFGS \
	linminMethod         DirUpdateRecommended \
	nIterations          0 \
	history              15 \
	knormThreshold       0.0001 \
	energyDiffThreshold  1e-06 \
	nEnergyDiff          2 \
	alphaTstart          1 \
	alphaTmin            1e-10 \
	updateTestStepSize   yes \
	alphaTreduceFactor   0.1 \
	alphaTincreaseFactor 3 \
	nAlphaAdjustMax      3 \
	wolfeEnergy          0.0001 \
	wolfeGradient        0.9 \
	fdTest               no
kpoint   0.000000000000   0.000000000000   0.000000000000  1.00000000000000
kpoint-folding 12 12 1 
latt-move-scale 1 1 1
latt-scale 3 3 1 
lattice  \
	   4.727486978767153   -2.363743489383575    0.000000000000000  \
	  -0.000000000000000    4.094123819672498    0.000000000000000  \
	   0.000000000000000    0.000000000000000   40.000000000000000 
lattice-minimize  \
	dirUpdateScheme      L-BFGS \
	linminMethod         DirUpdateRecommended \
	nIterations          0 \
	history              15 \
	knormThreshold       0 \
	energyDiffThreshold  1e-06 \
	nEnergyDiff          2 \
	alphaTstart          1 \
	alphaTmin            1e-10 \
	updateTestStepSize   yes \
	alphaTreduceFactor   0.1 \
	alphaTincreaseFactor 3 \
	nAlphaAdjustMax      3 \
	wolfeEnergy          0.0001 \
	wolfeGradient        0.9 \
	fdTest               no
lcao-params -1 1e-06 1e-05
pcm-variant GLSSA13
spintype z-spin
subspace-rotation-factor 1 yes
symmetries automatic
symmetry-threshold 0.0001



---------- Setting up symmetries ----------

Found 24 point-group symmetries of the bravais lattice
Found 24 space-group symmetries with basis
Applied RMS atom displacement 0 bohrs to make symmetries exact.

---------- Initializing the Grid ----------
R = 
[      14.1825     -7.09123            0  ]
[            0      12.2824            0  ]
[            0            0           40  ]
unit cell volume = 6967.77
G =
[   0.443025   0.255781         -0  ]
[          0   0.511561         -0  ]
[         -0         -0    0.15708  ]
Minimum fftbox size, Smin = [  60  60  164  ]
Chosen fftbox size, S = [  60  60  168  ]

---------- Exchange Correlation functional ----------
Initalized PBE GGA exchange.
Initalized PBE GGA correlation.

---------- Setting up pseudopotentials ----------
Width of ionic core gaussian charges (only for fluid interactions / plotting) set to 0

Reading pseudopotential file '/home/gridsan/aligho/DFT/build-Nov24/pseudopotentials/SG15/Na_ONCV_PBE.upf':
  'Na' pseudopotential, 'PBE' functional
  Generated using ONCVPSP code by D. R. Hamann
  Author: Martin Schlipf and Francois Gygi  Date: 150915.
  9 valence electrons, 3 orbitals, 4 projectors, 1992 radial grid points, with lMax = 1
  Transforming local potential to a uniform radial grid of dG=0.02 with 1489 points.
  Transforming nonlocal projectors to a uniform radial grid of dG=0.02 with 432 points.
    2S    l: 0   occupation:  2.0   eigenvalue: -2.085640
    2P    l: 1   occupation:  6.0   eigenvalue: -1.053708
    3S    l: 0   occupation:  1.0   eigenvalue: -0.100838
  Transforming atomic orbitals to a uniform radial grid of dG=0.02 with 432 points.
  Core radius for overlap checks: 2.01 bohrs.
  Reading pulay file /home/gridsan/aligho/DFT/build-Nov24/pseudopotentials/SG15/Na_ONCV_PBE.pulay ... using dE_dnG = -2.946487e-03 computed for Ecut = 20.

Initialized 1 species with 1 total atoms.

Folded 1 k-points by 12x12x1 to 144 k-points.

---------- Setting up k-points, bands, fillings ----------
Reduced to 19 k-points under symmetry. 
Computing the number of bands and number of electrons
Calculating initial fillings.
nElectrons:   9.000000   nBands: 6   nStates: 38

----- Setting up reduced wavefunction bases (one per k-point) -----
average nbasis = 29766.104 , ideal nbasis = 29766.845

---------- Setting up coulomb interaction ----------
Initialized slab truncation along lattice direction 001

---------- Setting up 2D ewald sum ----------
Optimum gaussian width for ewald sums = 7.873530 bohr.
Real space sums over 289 unit cells with max indices [  8  8  0  ]
Reciprocal space sums over 81 terms with max indices [  4  4  0  ]

---------- Allocating electronic variables ----------
Initializing wave functions:  linear combination of atomic orbitals
Note: number of bands (6) exceeds available atomic orbitals (5)
Na pseudo-atom occupations:   s ( 2 1 )  p ( 6 )
[d-16-5-2:12236] 18 more processes have sent help message help-mpi-common-cuda.txt / dlopen failed
[d-16-5-2:12236] Set MCA parameter "orte_base_help_aggregate" to 0 to see all help / error messages
[d-16-5-2:12236] 18 more processes have sent help message help-mpi-btl-openib-cpc-base.txt / no cpcs for port
	FillingsUpdate:  mu: -0.100000000  nElectrons: 9.000000  magneticMoment: [ Abs: 1.00000  Tot: +1.00000 ]
LCAOMinimize: Iter:   0  F: -42.5572730364138891  |grad|_K:       -nan  alpha:  1.000e+00
LCAOMinimize: |grad|_K=-nan. Stopping ...


---- Citations for features of the code used in this run ----

   Software package:
      R. Sundararaman, K. Letchworth-Weaver, K.A. Schwarz, D. Gunceler, Y. Ozhabes and T.A. Arias, 'JDFTx: software for joint density-functional theory', SoftwareX 6, 278 (2017)

   gga-PBE exchange-correlation functional:
      J.P. Perdew, K. Burke and M. Ernzerhof, Phys. Rev. Lett. 77, 3865 (1996)

   Pseudopotentials:
      M Schlipf and F Gygi, Comput. Phys. Commun. 196, 36 (2015)

   Truncated Coulomb potentials:
      R. Sundararaman and T.A. Arias, Phys. Rev. B 87, 165122 (2013)

This list may not be complete. Please suggest additional citations or
report any other bugs at https://github.com/shankar1729/jdftx/issues

Initialization completed successfully at t[s]:      6.43


-------- Electronic minimization -----------
Will mix electronic density at each iteration.
	FillingsUpdate:  mu: -0.100000000  nElectrons: 9.000000  magneticMoment: [ Abs: 1.00000  Tot: +1.00000 ]
	FillingsUpdate:  mu: -0.100000000  nElectrons: 9.000000  magneticMoment: [ Abs: 1.00000  Tot: +1.00000 ]
SCF: Cycle:  0   F: -42.557574191869023   dF: -3.012e-04   |Residual|: 3.116e-03   |deigs|: 1.553e-01  t[s]:     10.91
	FillingsUpdate:  mu: -0.100000000  nElectrons: 9.000000  magneticMoment: [ Abs: 1.00363  Tot: +1.00000 ]
SCF: Cycle:  1   F: -42.557577840564015   dF: -3.649e-06   |Residual|: 1.151e-03   |deigs|: 2.083e-02  t[s]:     14.37
	FillingsUpdate:  mu: -0.100000000  nElectrons: 9.000000  magneticMoment: [ Abs: 1.00246  Tot: +1.00000 ]
SCF: Cycle:  2   F: -42.557578686106282   dF: -8.455e-07   |Residual|: 7.376e-04   |deigs|: 3.528e-03  t[s]:     17.93
	FillingsUpdate:  mu: -0.100000000  nElectrons: 9.000000  magneticMoment: [ Abs: 1.00303  Tot: +1.00000 ]
SCF: Cycle:  3   F: -42.557579347406701   dF: -6.613e-07   |Residual|: 4.593e-04   |deigs|: 1.708e-03  t[s]:     21.57
	FillingsUpdate:  mu: -0.100000000  nElectrons: 9.000000  magneticMoment: [ Abs: 1.00266  Tot: +1.00000 ]
SCF: Cycle:  4   F: -42.557579811828056   dF: -4.644e-07   |Residual|: 2.711e-04   |deigs|: 9.009e-04  t[s]:     25.21
	FillingsUpdate:  mu: -0.100000000  nElectrons: 9.000000  magneticMoment: [ Abs: 1.00255  Tot: +1.00000 ]
SCF: Cycle:  5   F: -42.557580110397055   dF: -2.986e-07   |Residual|: 1.720e-04   |deigs|: 6.846e-04  t[s]:     28.98
	FillingsUpdate:  mu: -0.100000000  nElectrons: 9.000000  magneticMoment: [ Abs: 1.00269  Tot: +1.00000 ]
SCF: Cycle:  6   F: -42.557580222318279   dF: -1.119e-07   |Residual|: 1.247e-04   |deigs|: 4.892e-04  t[s]:     32.76
	FillingsUpdate:  mu: -0.100000000  nElectrons: 9.000000  magneticMoment: [ Abs: 1.00261  Tot: +1.00000 ]
SCF: Cycle:  7   F: -42.557580274846202   dF: -5.253e-08   |Residual|: 9.829e-05   |deigs|: 8.060e-04  t[s]:     36.62
	FillingsUpdate:  mu: -0.100000000  nElectrons: 9.000000  magneticMoment: [ Abs: 1.00259  Tot: +1.00000 ]
SCF: Cycle:  8   F: -42.557580318166302   dF: -4.332e-08   |Residual|: 7.967e-05   |deigs|: 5.738e-04  t[s]:     40.54
	FillingsUpdate:  mu: -0.100000000  nElectrons: 9.000000  magneticMoment: [ Abs: 1.00266  Tot: +1.00000 ]
SCF: Cycle:  9   F: -42.557580264221997   dF: +5.394e-08   |Residual|: 7.474e-05   |deigs|: 2.922e-04  t[s]:     44.46
	FillingsUpdate:  mu: -0.100000000  nElectrons: 9.000000  magneticMoment: [ Abs: 1.00265  Tot: +1.00000 ]
SCF: Cycle: 10   F: -42.557580163338777   dF: +1.009e-07   |Residual|: 5.680e-05   |deigs|: 4.676e-04  t[s]:     48.46
	FillingsUpdate:  mu: -0.100000000  nElectrons: 9.000000  magneticMoment: [ Abs: 1.00282  Tot: +1.00000 ]
SCF: Cycle: 11   F: -42.557580220010841   dF: -5.667e-08   |Residual|: 4.196e-05   |deigs|: 1.443e-03  t[s]:     52.54
	FillingsUpdate:  mu: -0.100000000  nElectrons: 9.000000  magneticMoment: [ Abs: 1.00287  Tot: +1.00000 ]
SCF: Cycle: 12   F: -42.557580282300201   dF: -6.229e-08   |Residual|: 3.574e-05   |deigs|: 2.881e-04  t[s]:     56.56
	FillingsUpdate:  mu: -0.100000000  nElectrons: 9.000000  magneticMoment: [ Abs: 1.00297  Tot: +1.00000 ]
SCF: Cycle: 13   F: -42.557580314689766   dF: -3.239e-08   |Residual|: 3.435e-05   |deigs|: 1.089e-04  t[s]:     60.59
	FillingsUpdate:  mu: -0.100000000  nElectrons: 9.000000  magneticMoment: [ Abs: 1.00291  Tot: +1.00000 ]
SCF: Cycle: 14   F: -42.557580315348162   dF: -6.584e-10   |Residual|: 3.281e-05   |deigs|: 4.508e-04  t[s]:     64.64
	FillingsUpdate:  mu: -0.100000000  nElectrons: 9.000000  magneticMoment: [ Abs: 1.00277  Tot: +1.00000 ]
SCF: Cycle: 15   F: -42.557580324617675   dF: -9.270e-09   |Residual|: 2.856e-05   |deigs|: 1.223e-04  t[s]:     68.70
SCF: Converged (|Delta E|<1.000000e-08 for 2 iters).


# Ionic positions in lattice coordinates:
ion Na   0.000000000000000   0.000000000000000   0.000000000000000 0

# Forces in Lattice coordinates:
force Na   0.000000000000000   0.000000000000000   0.000000000000000 0

# Energy components:
   Eewald =      -12.0320174002217755
       EH =       21.8037341299112839
     Eloc =      -54.8426927386365008
      Enl =      -12.9043368684530826
   Epulay =       -0.0000003132867683
      Exc =       -6.2216555330368113
       KE =       21.6393883991059788
-------------------------------------
     Etot =      -42.5575803246176747
       TS =        0.0000000000000000
-------------------------------------
        F =      -42.5575803246176747

IonicMinimize: Iter:   0  F: -42.557580324617675  |grad|_K:  0.000e+00  t[s]:     68.85
IonicMinimize: Converged (|grad|_K<1.000000e-04).

#--- Lowdin population analysis ---
# oxidation-state Na +0.002
# magnetic-moments Na +0.998

End date and time: Sat Feb  5 22:38:53 2022  (Duration: 0-0:01:08.90)
Done!
scale=4
magnetization=1.0
--------------------------------------------------------------------------
The library attempted to open the following supporting CUDA libraries,
but each of them failed.  CUDA-aware support is disabled.
libcuda.so.1: cannot open shared object file: No such file or directory
libcuda.dylib: cannot open shared object file: No such file or directory
/usr/lib64/libcuda.so.1: cannot open shared object file: No such file or directory
/usr/lib64/libcuda.dylib: cannot open shared object file: No such file or directory
If you are not interested in CUDA-aware support, then run with
--mca opal_warn_on_missing_libcuda 0 to suppress this message.  If you are interested
in CUDA-aware support, then try setting LD_LIBRARY_PATH to the location
of libcuda.so.1 to get passed this issue.
--------------------------------------------------------------------------
--------------------------------------------------------------------------
No OpenFabrics connection schemes reported that they were able to be
used on a specific port.  As such, the openib BTL (OpenFabrics
support) will be disabled for this port.

  Local host:           d-16-5-2
  Local device:         mlx5_1
  Local port:           1
  CPCs attempted:       rdmacm, udcm
--------------------------------------------------------------------------

*************** JDFTx 1.6.0 (git hash 42ebbcc2) ***************

Start date and time: Sat Feb  5 22:38:54 2022
Executable jdftx with command-line: -i Alkali.in
Running on hosts (process indices):  d-16-5-2 (0-18)
Divided in process groups (process indices):  0 (0)  1 (1)  2 (2)  3 (3)  4 (4)  5 (5)  6 (6)  7 (7)  8 (8)  9 (9)  10 (10)  11 (11)  12 (12)  13 (13)  14 (14)  15 (15)  16 (16)  17 (17)  18 (18)
Resource initialization completed at t[s]:      0.00
Run totals: 19 processes, 48 threads, 0 GPUs


Input parsed successfully to the following command list (including defaults):

basis kpoint-dependent
coords-type Lattice
core-overlap-check vector
coulomb-interaction Slab 001
davidson-band-ratio 1.1
dump End None
dump-name $INPUT.$VAR
elec-cutoff 20
elec-eigen-algo Davidson
elec-ex-corr gga-PBE
elec-initial-magnetization 1.000000 yes
elec-smearing Fermi 1e-05
electronic-minimize  \
	dirUpdateScheme      FletcherReeves \
	linminMethod         DirUpdateRecommended \
	nIterations          100 \
	history              15 \
	knormThreshold       0 \
	energyDiffThreshold  1e-08 \
	nEnergyDiff          2 \
	alphaTstart          1 \
	alphaTmin            1e-10 \
	updateTestStepSize   yes \
	alphaTreduceFactor   0.1 \
	alphaTincreaseFactor 3 \
	nAlphaAdjustMax      3 \
	wolfeEnergy          0.0001 \
	wolfeGradient        0.9 \
	fdTest               no
electronic-scf  \
	nIterations	10000 \
	energyDiffThreshold	1e-08 \
	residualThreshold	1e-07 \
	mixFraction	0.5 \
	qMetric	0.8 \
	history	10 \
	nEigSteps	2 \
	eigDiffThreshold	1e-08 \
	mixedVariable	Density \
	qKerker	0.8 \
	qKappa	-1 \
	verbose	no \
	mixFractionMag	1.5
exchange-regularization WignerSeitzTruncated
fluid None
fluid-ex-corr (null) lda-PZ
fluid-gummel-loop 10 1.000000e-05
fluid-minimize  \
	dirUpdateScheme      PolakRibiere \
	linminMethod         DirUpdateRecommended \
	nIterations          100 \
	history              15 \
	knormThreshold       0 \
	energyDiffThreshold  0 \
	nEnergyDiff          2 \
	alphaTstart          1 \
	alphaTmin            1e-10 \
	updateTestStepSize   yes \
	alphaTreduceFactor   0.1 \
	alphaTincreaseFactor 3 \
	nAlphaAdjustMax      3 \
	wolfeEnergy          0.0001 \
	wolfeGradient        0.9 \
	fdTest               no
fluid-solvent H2O 55.338 ScalarEOS \
	epsBulk 78.4 \
	pMol 0.92466 \
	epsInf 1.77 \
	Pvap 1.06736e-10 \
	sigmaBulk 4.62e-05 \
	Rvdw 2.61727 \
	Res 1.42 \
	tauNuc 343133 \
	poleEl 15 7 1
forces-output-coords Positions
ion Na   0.000000000000000   0.000000000000000   0.000000000000000 0
ion-species SG15/$ID_ONCV_PBE.upf
ion-width 0
ionic-minimize  \
	dirUpdateScheme      L-BFGS \
	linminMethod         DirUpdateRecommended \
	nIterations          0 \
	history              15 \
	knormThreshold       0.0001 \
	energyDiffThreshold  1e-06 \
	nEnergyDiff          2 \
	alphaTstart          1 \
	alphaTmin            1e-10 \
	updateTestStepSize   yes \
	alphaTreduceFactor   0.1 \
	alphaTincreaseFactor 3 \
	nAlphaAdjustMax      3 \
	wolfeEnergy          0.0001 \
	wolfeGradient        0.9 \
	fdTest               no
kpoint   0.000000000000   0.000000000000   0.000000000000  1.00000000000000
kpoint-folding 12 12 1 
latt-move-scale 1 1 1
latt-scale 4 4 1 
lattice  \
	   4.727486978767153   -2.363743489383575    0.000000000000000  \
	  -0.000000000000000    4.094123819672498    0.000000000000000  \
	   0.000000000000000    0.000000000000000   40.000000000000000 
lattice-minimize  \
	dirUpdateScheme      L-BFGS \
	linminMethod         DirUpdateRecommended \
	nIterations          0 \
	history              15 \
	knormThreshold       0 \
	energyDiffThreshold  1e-06 \
	nEnergyDiff          2 \
	alphaTstart          1 \
	alphaTmin            1e-10 \
	updateTestStepSize   yes \
	alphaTreduceFactor   0.1 \
	alphaTincreaseFactor 3 \
	nAlphaAdjustMax      3 \
	wolfeEnergy          0.0001 \
	wolfeGradient        0.9 \
	fdTest               no
lcao-params -1 1e-06 1e-05
pcm-variant GLSSA13
spintype z-spin
subspace-rotation-factor 1 yes
symmetries automatic
symmetry-threshold 0.0001



---------- Setting up symmetries ----------

Found 24 point-group symmetries of the bravais lattice
Found 24 space-group symmetries with basis
Applied RMS atom displacement 0 bohrs to make symmetries exact.

---------- Initializing the Grid ----------
R = 
[      18.9099     -9.45497            0  ]
[            0      16.3765            0  ]
[            0            0           40  ]
unit cell volume = 12387.1
G =
[   0.332269   0.191835         -0  ]
[          0   0.383671         -0  ]
[         -0         -0    0.15708  ]
Minimum fftbox size, Smin = [  80  80  164  ]
Chosen fftbox size, S = [  80  80  168  ]

---------- Exchange Correlation functional ----------
Initalized PBE GGA exchange.
Initalized PBE GGA correlation.

---------- Setting up pseudopotentials ----------
Width of ionic core gaussian charges (only for fluid interactions / plotting) set to 0

Reading pseudopotential file '/home/gridsan/aligho/DFT/build-Nov24/pseudopotentials/SG15/Na_ONCV_PBE.upf':
  'Na' pseudopotential, 'PBE' functional
  Generated using ONCVPSP code by D. R. Hamann
  Author: Martin Schlipf and Francois Gygi  Date: 150915.
  9 valence electrons, 3 orbitals, 4 projectors, 1992 radial grid points, with lMax = 1
  Transforming local potential to a uniform radial grid of dG=0.02 with 1489 points.
  Transforming nonlocal projectors to a uniform radial grid of dG=0.02 with 432 points.
    2S    l: 0   occupation:  2.0   eigenvalue: -2.085640
    2P    l: 1   occupation:  6.0   eigenvalue: -1.053708
    3S    l: 0   occupation:  1.0   eigenvalue: -0.100838
  Transforming atomic orbitals to a uniform radial grid of dG=0.02 with 432 points.
  Core radius for overlap checks: 2.01 bohrs.
  Reading pulay file /home/gridsan/aligho/DFT/build-Nov24/pseudopotentials/SG15/Na_ONCV_PBE.pulay ... using dE_dnG = -2.946487e-03 computed for Ecut = 20.

Initialized 1 species with 1 total atoms.

Folded 1 k-points by 12x12x1 to 144 k-points.

---------- Setting up k-points, bands, fillings ----------
Reduced to 19 k-points under symmetry. 
Computing the number of bands and number of electrons
Calculating initial fillings.
nElectrons:   9.000000   nBands: 6   nStates: 38

----- Setting up reduced wavefunction bases (one per k-point) -----
average nbasis = 52924.021 , ideal nbasis = 52918.836

---------- Setting up coulomb interaction ----------
Initialized slab truncation along lattice direction 001

---------- Setting up 2D ewald sum ----------
Optimum gaussian width for ewald sums = 10.498040 bohr.
Real space sums over 289 unit cells with max indices [  8  8  0  ]
Reciprocal space sums over 81 terms with max indices [  4  4  0  ]

---------- Allocating electronic variables ----------
Initializing wave functions:  linear combination of atomic orbitals
Note: number of bands (6) exceeds available atomic orbitals (5)
Na pseudo-atom occupations:   s ( 2 1 )  p ( 6 )
[d-16-5-2:94972] 18 more processes have sent help message help-mpi-common-cuda.txt / dlopen failed
[d-16-5-2:94972] Set MCA parameter "orte_base_help_aggregate" to 0 to see all help / error messages
[d-16-5-2:94972] 18 more processes have sent help message help-mpi-btl-openib-cpc-base.txt / no cpcs for port
	FillingsUpdate:  mu: -0.100000000  nElectrons: 9.000000  magneticMoment: [ Abs: 1.00000  Tot: +1.00000 ]
LCAOMinimize: Iter:   0  F: -42.5572204567193495  |grad|_K:       -nan  alpha:  1.000e+00
LCAOMinimize: |grad|_K=-nan. Stopping ...


---- Citations for features of the code used in this run ----

   Software package:
      R. Sundararaman, K. Letchworth-Weaver, K.A. Schwarz, D. Gunceler, Y. Ozhabes and T.A. Arias, 'JDFTx: software for joint density-functional theory', SoftwareX 6, 278 (2017)

   gga-PBE exchange-correlation functional:
      J.P. Perdew, K. Burke and M. Ernzerhof, Phys. Rev. Lett. 77, 3865 (1996)

   Pseudopotentials:
      M Schlipf and F Gygi, Comput. Phys. Commun. 196, 36 (2015)

   Truncated Coulomb potentials:
      R. Sundararaman and T.A. Arias, Phys. Rev. B 87, 165122 (2013)

This list may not be complete. Please suggest additional citations or
report any other bugs at https://github.com/shankar1729/jdftx/issues

Initialization completed successfully at t[s]:     11.09


-------- Electronic minimization -----------
Will mix electronic density at each iteration.
	FillingsUpdate:  mu: -0.100000000  nElectrons: 9.000000  magneticMoment: [ Abs: 1.00000  Tot: +1.00000 ]
	FillingsUpdate:  mu: -0.100000000  nElectrons: 9.000000  magneticMoment: [ Abs: 1.00000  Tot: +1.00000 ]
SCF: Cycle:  0   F: -42.557396006450723   dF: -1.755e-04   |Residual|: 3.171e-03   |deigs|: 1.526e-01  t[s]:     18.75
	FillingsUpdate:  mu: -0.100000000  nElectrons: 9.000000  magneticMoment: [ Abs: 1.00377  Tot: +1.00000 ]
SCF: Cycle:  1   F: -42.557398296375666   dF: -2.290e-06   |Residual|: 1.343e-03   |deigs|: 1.805e-02  t[s]:     24.68
	FillingsUpdate:  mu: -0.100000000  nElectrons: 9.000000  magneticMoment: [ Abs: 1.00255  Tot: +1.00000 ]
SCF: Cycle:  2   F: -42.557398816053578   dF: -5.197e-07   |Residual|: 9.531e-04   |deigs|: 8.663e-03  t[s]:     30.73
	FillingsUpdate:  mu: -0.100000000  nElectrons: 9.000000  magneticMoment: [ Abs: 1.00323  Tot: +1.00000 ]
SCF: Cycle:  3   F: -42.557399708082890   dF: -8.920e-07   |Residual|: 5.991e-04   |deigs|: 3.511e-03  t[s]:     37.00
	FillingsUpdate:  mu: -0.100000000  nElectrons: 9.000000  magneticMoment: [ Abs: 1.00265  Tot: +1.00000 ]
SCF: Cycle:  4   F: -42.557400498208395   dF: -7.901e-07   |Residual|: 3.327e-04   |deigs|: 9.770e-04  t[s]:     43.35
	FillingsUpdate:  mu: -0.100000000  nElectrons: 9.000000  magneticMoment: [ Abs: 1.00260  Tot: +1.00000 ]
SCF: Cycle:  5   F: -42.557401026616404   dF: -5.284e-07   |Residual|: 2.160e-04   |deigs|: 4.039e-04  t[s]:     49.75
	FillingsUpdate:  mu: -0.100000000  nElectrons: 9.000000  magneticMoment: [ Abs: 1.00292  Tot: +1.00000 ]
SCF: Cycle:  6   F: -42.557401295719096   dF: -2.691e-07   |Residual|: 1.522e-04   |deigs|: 5.034e-04  t[s]:     56.36
	FillingsUpdate:  mu: -0.100000000  nElectrons: 9.000000  magneticMoment: [ Abs: 1.00296  Tot: +1.00000 ]
SCF: Cycle:  7   F: -42.557401414225708   dF: -1.185e-07   |Residual|: 9.938e-05   |deigs|: 7.317e-04  t[s]:     62.93
	FillingsUpdate:  mu: -0.100000000  nElectrons: 9.000000  magneticMoment: [ Abs: 1.00285  Tot: +1.00000 ]
SCF: Cycle:  8   F: -42.557401450159858   dF: -3.593e-08   |Residual|: 6.427e-05   |deigs|: 6.753e-04  t[s]:     69.77
	FillingsUpdate:  mu: -0.100000000  nElectrons: 9.000000  magneticMoment: [ Abs: 1.00268  Tot: +1.00000 ]
SCF: Cycle:  9   F: -42.557401443922686   dF: +6.237e-09   |Residual|: 5.789e-05   |deigs|: 3.446e-04  t[s]:     76.66
	FillingsUpdate:  mu: -0.100000000  nElectrons: 9.000000  magneticMoment: [ Abs: 1.00266  Tot: +1.00000 ]
SCF: Cycle: 10   F: -42.557401440303366   dF: +3.619e-09   |Residual|: 3.845e-05   |deigs|: 3.858e-04  t[s]:     83.70
	FillingsUpdate:  mu: -0.100000000  nElectrons: 9.000000  magneticMoment: [ Abs: 1.00268  Tot: +1.00000 ]
SCF: Cycle: 11   F: -42.557401423059908   dF: +1.724e-08   |Residual|: 3.342e-05   |deigs|: 2.999e-04  t[s]:     90.76
	FillingsUpdate:  mu: -0.100000000  nElectrons: 9.000000  magneticMoment: [ Abs: 1.00272  Tot: +1.00000 ]
SCF: Cycle: 12   F: -42.557401451196490   dF: -2.814e-08   |Residual|: 2.988e-05   |deigs|: 1.522e-04  t[s]:     97.82
	FillingsUpdate:  mu: -0.100000000  nElectrons: 9.000000  magneticMoment: [ Abs: 1.00296  Tot: +1.00000 ]
SCF: Cycle: 13   F: -42.557401441315776   dF: +9.881e-09   |Residual|: 2.548e-05   |deigs|: 1.578e-04  t[s]:    104.77
	FillingsUpdate:  mu: -0.100000000  nElectrons: 9.000000  magneticMoment: [ Abs: 1.00294  Tot: +1.00000 ]
SCF: Cycle: 14   F: -42.557401442435719   dF: -1.120e-09   |Residual|: 2.309e-05   |deigs|: 3.627e-04  t[s]:    111.74
	FillingsUpdate:  mu: -0.100000000  nElectrons: 9.000000  magneticMoment: [ Abs: 1.00290  Tot: +1.00000 ]
SCF: Cycle: 15   F: -42.557401453336283   dF: -1.090e-08   |Residual|: 2.150e-05   |deigs|: 9.635e-05  t[s]:    118.86
	FillingsUpdate:  mu: -0.100000000  nElectrons: 9.000000  magneticMoment: [ Abs: 1.00291  Tot: +1.00000 ]
SCF: Cycle: 16   F: -42.557401467833081   dF: -1.450e-08   |Residual|: 1.808e-05   |deigs|: 1.006e-04  t[s]:    125.86
	FillingsUpdate:  mu: -0.100000000  nElectrons: 9.000000  magneticMoment: [ Abs: 1.00289  Tot: +1.00000 ]
SCF: Cycle: 17   F: -42.557401477332448   dF: -9.499e-09   |Residual|: 1.458e-05   |deigs|: 3.345e-04  t[s]:    132.79
	FillingsUpdate:  mu: -0.100000000  nElectrons: 9.000000  magneticMoment: [ Abs: 1.00286  Tot: +1.00000 ]
SCF: Cycle: 18   F: -42.557401481149725   dF: -3.817e-09   |Residual|: 1.277e-05   |deigs|: 1.157e-04  t[s]:    139.79
SCF: Converged (|Delta E|<1.000000e-08 for 2 iters).


# Ionic positions in lattice coordinates:
ion Na   0.000000000000000   0.000000000000000   0.000000000000000 0

# Forces in Lattice coordinates:
force Na   0.000000000000000   0.000000000000000   0.000000000000000 0

# Energy components:
   Eewald =       -9.0240130501663280
       EH =       24.8124918682415014
     Eloc =      -60.8596209089404141
      Enl =      -12.9041617986343837
   Epulay =        0.0000012333957556
      Exc =       -6.2214911491191174
       KE =       21.6393923240732597
-------------------------------------
     Etot =      -42.5574014811497250
       TS =        0.0000000000000000
-------------------------------------
        F =      -42.5574014811497250

IonicMinimize: Iter:   0  F: -42.557401481149725  |grad|_K:  0.000e+00  t[s]:    140.05
IonicMinimize: Converged (|grad|_K<1.000000e-04).

#--- Lowdin population analysis ---
# oxidation-state Na +0.001
# magnetic-moments Na +0.999

End date and time: Sat Feb  5 22:41:14 2022  (Duration: 0-0:02:20.12)
Done!
