The alkali metal is Na
scale=2
magnetization=-0.8
--------------------------------------------------------------------------
The library attempted to open the following supporting CUDA libraries,
but each of them failed.  CUDA-aware support is disabled.
libcuda.so.1: cannot open shared object file: No such file or directory
libcuda.dylib: cannot open shared object file: No such file or directory
/usr/lib64/libcuda.so.1: cannot open shared object file: No such file or directory
/usr/lib64/libcuda.dylib: cannot open shared object file: No such file or directory
If you are not interested in CUDA-aware support, then run with
--mca opal_warn_on_missing_libcuda 0 to suppress this message.  If you are interested
in CUDA-aware support, then try setting LD_LIBRARY_PATH to the location
of libcuda.so.1 to get passed this issue.
--------------------------------------------------------------------------
--------------------------------------------------------------------------
No OpenFabrics connection schemes reported that they were able to be
used on a specific port.  As such, the openib BTL (OpenFabrics
support) will be disabled for this port.

  Local host:           d-6-7-4
  Local device:         mlx5_1
  Local port:           1
  CPCs attempted:       rdmacm, udcm
--------------------------------------------------------------------------

*************** JDFTx 1.6.0 (git hash 42ebbcc2) ***************

Start date and time: Sat Feb  5 22:20:47 2022
Executable jdftx with command-line: -i Alkali.in
Running on hosts (process indices):  d-6-7-4 (0-18)
Divided in process groups (process indices):  0 (0)  1 (1)  2 (2)  3 (3)  4 (4)  5 (5)  6 (6)  7 (7)  8 (8)  9 (9)  10 (10)  11 (11)  12 (12)  13 (13)  14 (14)  15 (15)  16 (16)  17 (17)  18 (18)
Resource initialization completed at t[s]:      0.00
Run totals: 19 processes, 48 threads, 0 GPUs


Input parsed successfully to the following command list (including defaults):

basis kpoint-dependent
coords-type Lattice
core-overlap-check vector
coulomb-interaction Slab 001
davidson-band-ratio 1.1
dump End None
dump-name $INPUT.$VAR
elec-cutoff 20
elec-eigen-algo Davidson
elec-ex-corr gga-PBE
elec-initial-magnetization -0.800000 yes
elec-smearing Fermi 1e-05
electronic-minimize  \
	dirUpdateScheme      FletcherReeves \
	linminMethod         DirUpdateRecommended \
	nIterations          100 \
	history              15 \
	knormThreshold       0 \
	energyDiffThreshold  1e-08 \
	nEnergyDiff          2 \
	alphaTstart          1 \
	alphaTmin            1e-10 \
	updateTestStepSize   yes \
	alphaTreduceFactor   0.1 \
	alphaTincreaseFactor 3 \
	nAlphaAdjustMax      3 \
	wolfeEnergy          0.0001 \
	wolfeGradient        0.9 \
	fdTest               no
electronic-scf  \
	nIterations	10000 \
	energyDiffThreshold	1e-08 \
	residualThreshold	1e-07 \
	mixFraction	0.5 \
	qMetric	0.8 \
	history	10 \
	nEigSteps	2 \
	eigDiffThreshold	1e-08 \
	mixedVariable	Density \
	qKerker	0.8 \
	qKappa	-1 \
	verbose	no \
	mixFractionMag	1.5
exchange-regularization WignerSeitzTruncated
fluid None
fluid-ex-corr (null) lda-PZ
fluid-gummel-loop 10 1.000000e-05
fluid-minimize  \
	dirUpdateScheme      PolakRibiere \
	linminMethod         DirUpdateRecommended \
	nIterations          100 \
	history              15 \
	knormThreshold       0 \
	energyDiffThreshold  0 \
	nEnergyDiff          2 \
	alphaTstart          1 \
	alphaTmin            1e-10 \
	updateTestStepSize   yes \
	alphaTreduceFactor   0.1 \
	alphaTincreaseFactor 3 \
	nAlphaAdjustMax      3 \
	wolfeEnergy          0.0001 \
	wolfeGradient        0.9 \
	fdTest               no
fluid-solvent H2O 55.338 ScalarEOS \
	epsBulk 78.4 \
	pMol 0.92466 \
	epsInf 1.77 \
	Pvap 1.06736e-10 \
	sigmaBulk 4.62e-05 \
	Rvdw 2.61727 \
	Res 1.42 \
	tauNuc 343133 \
	poleEl 15 7 1
forces-output-coords Positions
ion Na   0.000000000000000   0.000000000000000   0.000000000000000 0
ion-species SG15/$ID_ONCV_PBE.upf
ion-width 0
ionic-minimize  \
	dirUpdateScheme      L-BFGS \
	linminMethod         DirUpdateRecommended \
	nIterations          0 \
	history              15 \
	knormThreshold       0.0001 \
	energyDiffThreshold  1e-06 \
	nEnergyDiff          2 \
	alphaTstart          1 \
	alphaTmin            1e-10 \
	updateTestStepSize   yes \
	alphaTreduceFactor   0.1 \
	alphaTincreaseFactor 3 \
	nAlphaAdjustMax      3 \
	wolfeEnergy          0.0001 \
	wolfeGradient        0.9 \
	fdTest               no
kpoint   0.000000000000   0.000000000000   0.000000000000  1.00000000000000
kpoint-folding 12 12 1 
latt-move-scale 1 1 1
latt-scale 2 2 1 
lattice  \
	   4.727486978767153   -2.363743489383575    0.000000000000000  \
	  -0.000000000000000    4.094123819672498    0.000000000000000  \
	   0.000000000000000    0.000000000000000   40.000000000000000 
lattice-minimize  \
	dirUpdateScheme      L-BFGS \
	linminMethod         DirUpdateRecommended \
	nIterations          0 \
	history              15 \
	knormThreshold       0 \
	energyDiffThreshold  1e-06 \
	nEnergyDiff          2 \
	alphaTstart          1 \
	alphaTmin            1e-10 \
	updateTestStepSize   yes \
	alphaTreduceFactor   0.1 \
	alphaTincreaseFactor 3 \
	nAlphaAdjustMax      3 \
	wolfeEnergy          0.0001 \
	wolfeGradient        0.9 \
	fdTest               no
lcao-params -1 1e-06 1e-05
pcm-variant GLSSA13
spintype z-spin
subspace-rotation-factor 1 yes
symmetries automatic
symmetry-threshold 0.0001



---------- Setting up symmetries ----------

Found 24 point-group symmetries of the bravais lattice
Found 24 space-group symmetries with basis
Applied RMS atom displacement 0 bohrs to make symmetries exact.

---------- Initializing the Grid ----------
R = 
[      9.45497     -4.72749            0  ]
[            0      8.18825            0  ]
[            0            0           40  ]
unit cell volume = 3096.79
G =
[   0.664538   0.383671         -0  ]
[          0   0.767342         -0  ]
[         -0         -0    0.15708  ]
Minimum fftbox size, Smin = [  40  40  164  ]
Chosen fftbox size, S = [  40  40  168  ]

---------- Exchange Correlation functional ----------
Initalized PBE GGA exchange.
Initalized PBE GGA correlation.

---------- Setting up pseudopotentials ----------
Width of ionic core gaussian charges (only for fluid interactions / plotting) set to 0

Reading pseudopotential file '/home/gridsan/aligho/DFT/build-Nov24/pseudopotentials/SG15/Na_ONCV_PBE.upf':
  'Na' pseudopotential, 'PBE' functional
  Generated using ONCVPSP code by D. R. Hamann
  Author: Martin Schlipf and Francois Gygi  Date: 150915.
  9 valence electrons, 3 orbitals, 4 projectors, 1992 radial grid points, with lMax = 1
  Transforming local potential to a uniform radial grid of dG=0.02 with 1489 points.
  Transforming nonlocal projectors to a uniform radial grid of dG=0.02 with 432 points.
    2S    l: 0   occupation:  2.0   eigenvalue: -2.085640
    2P    l: 1   occupation:  6.0   eigenvalue: -1.053708
    3S    l: 0   occupation:  1.0   eigenvalue: -0.100838
  Transforming atomic orbitals to a uniform radial grid of dG=0.02 with 432 points.
  Core radius for overlap checks: 2.01 bohrs.
  Reading pulay file /home/gridsan/aligho/DFT/build-Nov24/pseudopotentials/SG15/Na_ONCV_PBE.pulay ... using dE_dnG = -2.946487e-03 computed for Ecut = 20.

Initialized 1 species with 1 total atoms.

Folded 1 k-points by 12x12x1 to 144 k-points.

---------- Setting up k-points, bands, fillings ----------
Reduced to 19 k-points under symmetry. 
Computing the number of bands and number of electrons
Calculating initial fillings.
nElectrons:   9.000000   nBands: 6   nStates: 38

----- Setting up reduced wavefunction bases (one per k-point) -----
average nbasis = 13230.521 , ideal nbasis = 13229.709

---------- Setting up coulomb interaction ----------
Initialized slab truncation along lattice direction 001

---------- Setting up 2D ewald sum ----------
Optimum gaussian width for ewald sums = 5.249020 bohr.
Real space sums over 289 unit cells with max indices [  8  8  0  ]
Reciprocal space sums over 81 terms with max indices [  4  4  0  ]

---------- Allocating electronic variables ----------
Initializing wave functions:  linear combination of atomic orbitals
Note: number of bands (6) exceeds available atomic orbitals (5)
Na pseudo-atom occupations:   s ( 2 1 )  p ( 6 )
	FillingsUpdate:  mu: -0.106485814  nElectrons: 9.000000  magneticMoment: [ Abs: 0.80000  Tot: -0.80000 ]
LCAOMinimize: Iter:   0  F: -42.5597137979570377  |grad|_K:  1.201e-05  alpha:  1.000e+00
	FillingsUpdate:  mu: -0.106485020  nElectrons: 9.000000  magneticMoment: [ Abs: 0.80000  Tot: -0.80000 ]
LCAOMinimize: Iter:   1  F: -42.5597138960894910  |grad|_K:  7.937e-08  alpha:  9.940e-01  linmin: -1.368e-02  cgtest:  4.098e-01  t[s]:      4.59
LCAOMinimize: Encountered beta<0, resetting CG.
[d-6-7-4:24414] 18 more processes have sent help message help-mpi-common-cuda.txt / dlopen failed
[d-6-7-4:24414] Set MCA parameter "orte_base_help_aggregate" to 0 to see all help / error messages
[d-6-7-4:24414] 18 more processes have sent help message help-mpi-btl-openib-cpc-base.txt / no cpcs for port
	FillingsUpdate:  mu: -0.106485047  nElectrons: 9.000000  magneticMoment: [ Abs: 0.80000  Tot: -0.80000 ]
LCAOMinimize: Iter:   2  F: -42.5597138960936547  |grad|_K:  2.302e-08  alpha:  1.289e+00  linmin:  9.151e-02  cgtest: -9.997e-01  t[s]:      5.76
LCAOMinimize: Converged (|Delta F|<1.000000e-06 for 2 iters).


---- Citations for features of the code used in this run ----

   Software package:
      R. Sundararaman, K. Letchworth-Weaver, K.A. Schwarz, D. Gunceler, Y. Ozhabes and T.A. Arias, 'JDFTx: software for joint density-functional theory', SoftwareX 6, 278 (2017)

   gga-PBE exchange-correlation functional:
      J.P. Perdew, K. Burke and M. Ernzerhof, Phys. Rev. Lett. 77, 3865 (1996)

   Pseudopotentials:
      M Schlipf and F Gygi, Comput. Phys. Commun. 196, 36 (2015)

   Truncated Coulomb potentials:
      R. Sundararaman and T.A. Arias, Phys. Rev. B 87, 165122 (2013)

This list may not be complete. Please suggest additional citations or
report any other bugs at https://github.com/shankar1729/jdftx/issues

Initialization completed successfully at t[s]:      5.82


-------- Electronic minimization -----------
Will mix electronic density at each iteration.
	FillingsUpdate:  mu: -0.106485047  nElectrons: 9.000000  magneticMoment: [ Abs: 0.80000  Tot: -0.80000 ]
	FillingsUpdate:  mu: -0.109143776  nElectrons: 9.000000  magneticMoment: [ Abs: 0.80000  Tot: -0.80000 ]
SCF: Cycle:  0   F: -42.565000854968339   dF: -5.287e-03   |Residual|: 1.122e-02   |deigs|: 1.697e-01  t[s]:      8.13
	FillingsUpdate:  mu: -0.109582998  nElectrons: 9.000000  magneticMoment: [ Abs: 0.80004  Tot: -0.80000 ]
SCF: Cycle:  1   F: -42.565216453215754   dF: -2.156e-04   |Residual|: 7.575e-03   |deigs|: 9.014e-03  t[s]:      9.83
	FillingsUpdate:  mu: -0.110724032  nElectrons: 9.000000  magneticMoment: [ Abs: 0.80150  Tot: -0.80000 ]
SCF: Cycle:  2   F: -42.565269875130319   dF: -5.342e-05   |Residual|: 5.180e-03   |deigs|: 6.869e-03  t[s]:     11.51
	FillingsUpdate:  mu: -0.108994793  nElectrons: 9.000000  magneticMoment: [ Abs: 0.80036  Tot: -0.80000 ]
SCF: Cycle:  3   F: -42.565292871784322   dF: -2.300e-05   |Residual|: 3.122e-03   |deigs|: 5.938e-03  t[s]:     13.20
	FillingsUpdate:  mu: -0.108201339  nElectrons: 9.000000  magneticMoment: [ Abs: 0.80025  Tot: -0.80000 ]
SCF: Cycle:  4   F: -42.565302480557207   dF: -9.609e-06   |Residual|: 1.170e-03   |deigs|: 2.107e-03  t[s]:     14.93
	FillingsUpdate:  mu: -0.108113753  nElectrons: 9.000000  magneticMoment: [ Abs: 0.80063  Tot: -0.80000 ]
SCF: Cycle:  5   F: -42.565309164603278   dF: -6.684e-06   |Residual|: 8.206e-04   |deigs|: 2.773e-03  t[s]:     16.68
	FillingsUpdate:  mu: -0.107562981  nElectrons: 9.000000  magneticMoment: [ Abs: 0.80031  Tot: -0.80000 ]
SCF: Cycle:  6   F: -42.565311118724040   dF: -1.954e-06   |Residual|: 6.462e-04   |deigs|: 2.368e-03  t[s]:     18.42
	FillingsUpdate:  mu: -0.106590505  nElectrons: 9.000000  magneticMoment: [ Abs: 0.80209  Tot: -0.80000 ]
SCF: Cycle:  7   F: -42.565309208853023   dF: +1.910e-06   |Residual|: 5.163e-04   |deigs|: 9.632e-04  t[s]:     20.22
	FillingsUpdate:  mu: -0.105833879  nElectrons: 9.000000  magneticMoment: [ Abs: 0.80232  Tot: -0.80000 ]
SCF: Cycle:  8   F: -42.565310338278181   dF: -1.129e-06   |Residual|: 4.091e-04   |deigs|: 1.217e-03  t[s]:     22.03
	FillingsUpdate:  mu: -0.105387793  nElectrons: 9.000000  magneticMoment: [ Abs: 0.80085  Tot: -0.80000 ]
SCF: Cycle:  9   F: -42.565312066619853   dF: -1.728e-06   |Residual|: 3.327e-04   |deigs|: 5.394e-04  t[s]:     23.87
	FillingsUpdate:  mu: -0.105396046  nElectrons: 9.000000  magneticMoment: [ Abs: 0.80075  Tot: -0.80000 ]
SCF: Cycle: 10   F: -42.565313553314169   dF: -1.487e-06   |Residual|: 2.430e-04   |deigs|: 2.461e-04  t[s]:     25.80
	FillingsUpdate:  mu: -0.104912746  nElectrons: 9.000000  magneticMoment: [ Abs: 0.80155  Tot: -0.80000 ]
SCF: Cycle: 11   F: -42.565312999484462   dF: +5.538e-07   |Residual|: 2.121e-04   |deigs|: 6.485e-04  t[s]:     27.68
	FillingsUpdate:  mu: -0.104539220  nElectrons: 9.000000  magneticMoment: [ Abs: 0.80136  Tot: -0.80000 ]
SCF: Cycle: 12   F: -42.565312668486307   dF: +3.310e-07   |Residual|: 2.004e-04   |deigs|: 3.637e-04  t[s]:     29.53
	FillingsUpdate:  mu: -0.104235721  nElectrons: 9.000000  magneticMoment: [ Abs: 0.80168  Tot: -0.80000 ]
SCF: Cycle: 13   F: -42.565313520268582   dF: -8.518e-07   |Residual|: 1.657e-04   |deigs|: 3.100e-04  t[s]:     31.40
	FillingsUpdate:  mu: -0.103796846  nElectrons: 9.000000  magneticMoment: [ Abs: 0.80214  Tot: -0.80000 ]
SCF: Cycle: 14   F: -42.565314167260972   dF: -6.470e-07   |Residual|: 1.570e-04   |deigs|: 4.809e-04  t[s]:     33.23
	FillingsUpdate:  mu: -0.103165763  nElectrons: 9.000000  magneticMoment: [ Abs: 0.80132  Tot: -0.80000 ]
SCF: Cycle: 15   F: -42.565314516461591   dF: -3.492e-07   |Residual|: 1.442e-04   |deigs|: 6.722e-04  t[s]:     35.04
	FillingsUpdate:  mu: -0.102752914  nElectrons: 9.000000  magneticMoment: [ Abs: 0.80111  Tot: -0.80000 ]
SCF: Cycle: 16   F: -42.565314781905109   dF: -2.654e-07   |Residual|: 1.282e-04   |deigs|: 4.034e-04  t[s]:     36.92
	FillingsUpdate:  mu: -0.102520761  nElectrons: 9.000000  magneticMoment: [ Abs: 0.80076  Tot: -0.80000 ]
SCF: Cycle: 17   F: -42.565315035047739   dF: -2.531e-07   |Residual|: 9.093e-05   |deigs|: 5.476e-04  t[s]:     38.74
	FillingsUpdate:  mu: -0.102319220  nElectrons: 9.000000  magneticMoment: [ Abs: 0.80052  Tot: -0.80000 ]
SCF: Cycle: 18   F: -42.565315156180020   dF: -1.211e-07   |Residual|: 6.045e-05   |deigs|: 3.547e-04  t[s]:     40.59
	FillingsUpdate:  mu: -0.102194356  nElectrons: 9.000000  magneticMoment: [ Abs: 0.80065  Tot: -0.80000 ]
SCF: Cycle: 19   F: -42.565315201313403   dF: -4.513e-08   |Residual|: 4.268e-05   |deigs|: 1.525e-04  t[s]:     42.43
	FillingsUpdate:  mu: -0.102151033  nElectrons: 9.000000  magneticMoment: [ Abs: 0.80070  Tot: -0.80000 ]
SCF: Cycle: 20   F: -42.565315230047510   dF: -2.873e-08   |Residual|: 2.690e-05   |deigs|: 7.040e-05  t[s]:     44.35
	FillingsUpdate:  mu: -0.102144797  nElectrons: 9.000000  magneticMoment: [ Abs: 0.80062  Tot: -0.80000 ]
SCF: Cycle: 21   F: -42.565315237758220   dF: -7.711e-09   |Residual|: 1.614e-05   |deigs|: 2.466e-04  t[s]:     46.29
	FillingsUpdate:  mu: -0.102155345  nElectrons: 9.000000  magneticMoment: [ Abs: 0.80059  Tot: -0.80000 ]
SCF: Cycle: 22   F: -42.565315242801589   dF: -5.043e-09   |Residual|: 1.074e-05   |deigs|: 2.249e-04  t[s]:     48.17
SCF: Converged (|Delta E|<1.000000e-08 for 2 iters).


# Ionic positions in lattice coordinates:
ion Na   0.000000000000000   0.000000000000000   0.000000000000000 0

# Forces in Lattice coordinates:
force Na  -0.000000000000000  -0.000000000000000   0.000000000000000 0

# Energy components:
   Eewald =      -18.0480261003326561
       EH =       15.7546420081089700
     Eloc =      -42.7685190341611872
      Enl =      -12.9148320093355444
   Epulay =        0.0000007725295140
      Exc =       -6.2224731264395778
       KE =       21.6338930489623706
-------------------------------------
     Etot =      -42.5653144406681108
       TS =        0.0000008021334778
-------------------------------------
        F =      -42.5653152428015886

IonicMinimize: Iter:   0  F: -42.565315242801589  |grad|_K:  0.000e+00  t[s]:     48.25
IonicMinimize: Converged (|grad|_K<1.000000e-04).

#--- Lowdin population analysis ---
# oxidation-state Na +0.087
# magnetic-moments Na -0.715

End date and time: Sat Feb  5 22:21:36 2022  (Duration: 0-0:00:48.27)
Done!
scale=3
magnetization=-0.8
--------------------------------------------------------------------------
The library attempted to open the following supporting CUDA libraries,
but each of them failed.  CUDA-aware support is disabled.
libcuda.so.1: cannot open shared object file: No such file or directory
libcuda.dylib: cannot open shared object file: No such file or directory
/usr/lib64/libcuda.so.1: cannot open shared object file: No such file or directory
/usr/lib64/libcuda.dylib: cannot open shared object file: No such file or directory
If you are not interested in CUDA-aware support, then run with
--mca opal_warn_on_missing_libcuda 0 to suppress this message.  If you are interested
in CUDA-aware support, then try setting LD_LIBRARY_PATH to the location
of libcuda.so.1 to get passed this issue.
--------------------------------------------------------------------------
--------------------------------------------------------------------------
No OpenFabrics connection schemes reported that they were able to be
used on a specific port.  As such, the openib BTL (OpenFabrics
support) will be disabled for this port.

  Local host:           d-6-7-4
  Local device:         mlx5_1
  Local port:           1
  CPCs attempted:       rdmacm, udcm
--------------------------------------------------------------------------

*************** JDFTx 1.6.0 (git hash 42ebbcc2) ***************

Start date and time: Sat Feb  5 22:21:37 2022
Executable jdftx with command-line: -i Alkali.in
Running on hosts (process indices):  d-6-7-4 (0-18)
Divided in process groups (process indices):  0 (0)  1 (1)  2 (2)  3 (3)  4 (4)  5 (5)  6 (6)  7 (7)  8 (8)  9 (9)  10 (10)  11 (11)  12 (12)  13 (13)  14 (14)  15 (15)  16 (16)  17 (17)  18 (18)
Resource initialization completed at t[s]:      0.00
Run totals: 19 processes, 48 threads, 0 GPUs


Input parsed successfully to the following command list (including defaults):

basis kpoint-dependent
coords-type Lattice
core-overlap-check vector
coulomb-interaction Slab 001
davidson-band-ratio 1.1
dump End None
dump-name $INPUT.$VAR
elec-cutoff 20
elec-eigen-algo Davidson
elec-ex-corr gga-PBE
elec-initial-magnetization -0.800000 yes
elec-smearing Fermi 1e-05
electronic-minimize  \
	dirUpdateScheme      FletcherReeves \
	linminMethod         DirUpdateRecommended \
	nIterations          100 \
	history              15 \
	knormThreshold       0 \
	energyDiffThreshold  1e-08 \
	nEnergyDiff          2 \
	alphaTstart          1 \
	alphaTmin            1e-10 \
	updateTestStepSize   yes \
	alphaTreduceFactor   0.1 \
	alphaTincreaseFactor 3 \
	nAlphaAdjustMax      3 \
	wolfeEnergy          0.0001 \
	wolfeGradient        0.9 \
	fdTest               no
electronic-scf  \
	nIterations	10000 \
	energyDiffThreshold	1e-08 \
	residualThreshold	1e-07 \
	mixFraction	0.5 \
	qMetric	0.8 \
	history	10 \
	nEigSteps	2 \
	eigDiffThreshold	1e-08 \
	mixedVariable	Density \
	qKerker	0.8 \
	qKappa	-1 \
	verbose	no \
	mixFractionMag	1.5
exchange-regularization WignerSeitzTruncated
fluid None
fluid-ex-corr (null) lda-PZ
fluid-gummel-loop 10 1.000000e-05
fluid-minimize  \
	dirUpdateScheme      PolakRibiere \
	linminMethod         DirUpdateRecommended \
	nIterations          100 \
	history              15 \
	knormThreshold       0 \
	energyDiffThreshold  0 \
	nEnergyDiff          2 \
	alphaTstart          1 \
	alphaTmin            1e-10 \
	updateTestStepSize   yes \
	alphaTreduceFactor   0.1 \
	alphaTincreaseFactor 3 \
	nAlphaAdjustMax      3 \
	wolfeEnergy          0.0001 \
	wolfeGradient        0.9 \
	fdTest               no
fluid-solvent H2O 55.338 ScalarEOS \
	epsBulk 78.4 \
	pMol 0.92466 \
	epsInf 1.77 \
	Pvap 1.06736e-10 \
	sigmaBulk 4.62e-05 \
	Rvdw 2.61727 \
	Res 1.42 \
	tauNuc 343133 \
	poleEl 15 7 1
forces-output-coords Positions
ion Na   0.000000000000000   0.000000000000000   0.000000000000000 0
ion-species SG15/$ID_ONCV_PBE.upf
ion-width 0
ionic-minimize  \
	dirUpdateScheme      L-BFGS \
	linminMethod         DirUpdateRecommended \
	nIterations          0 \
	history              15 \
	knormThreshold       0.0001 \
	energyDiffThreshold  1e-06 \
	nEnergyDiff          2 \
	alphaTstart          1 \
	alphaTmin            1e-10 \
	updateTestStepSize   yes \
	alphaTreduceFactor   0.1 \
	alphaTincreaseFactor 3 \
	nAlphaAdjustMax      3 \
	wolfeEnergy          0.0001 \
	wolfeGradient        0.9 \
	fdTest               no
kpoint   0.000000000000   0.000000000000   0.000000000000  1.00000000000000
kpoint-folding 12 12 1 
latt-move-scale 1 1 1
latt-scale 3 3 1 
lattice  \
	   4.727486978767153   -2.363743489383575    0.000000000000000  \
	  -0.000000000000000    4.094123819672498    0.000000000000000  \
	   0.000000000000000    0.000000000000000   40.000000000000000 
lattice-minimize  \
	dirUpdateScheme      L-BFGS \
	linminMethod         DirUpdateRecommended \
	nIterations          0 \
	history              15 \
	knormThreshold       0 \
	energyDiffThreshold  1e-06 \
	nEnergyDiff          2 \
	alphaTstart          1 \
	alphaTmin            1e-10 \
	updateTestStepSize   yes \
	alphaTreduceFactor   0.1 \
	alphaTincreaseFactor 3 \
	nAlphaAdjustMax      3 \
	wolfeEnergy          0.0001 \
	wolfeGradient        0.9 \
	fdTest               no
lcao-params -1 1e-06 1e-05
pcm-variant GLSSA13
spintype z-spin
subspace-rotation-factor 1 yes
symmetries automatic
symmetry-threshold 0.0001



---------- Setting up symmetries ----------

Found 24 point-group symmetries of the bravais lattice
Found 24 space-group symmetries with basis
Applied RMS atom displacement 0 bohrs to make symmetries exact.

---------- Initializing the Grid ----------
R = 
[      14.1825     -7.09123            0  ]
[            0      12.2824            0  ]
[            0            0           40  ]
unit cell volume = 6967.77
G =
[   0.443025   0.255781         -0  ]
[          0   0.511561         -0  ]
[         -0         -0    0.15708  ]
Minimum fftbox size, Smin = [  60  60  164  ]
Chosen fftbox size, S = [  60  60  168  ]

---------- Exchange Correlation functional ----------
Initalized PBE GGA exchange.
Initalized PBE GGA correlation.

---------- Setting up pseudopotentials ----------
Width of ionic core gaussian charges (only for fluid interactions / plotting) set to 0

Reading pseudopotential file '/home/gridsan/aligho/DFT/build-Nov24/pseudopotentials/SG15/Na_ONCV_PBE.upf':
  'Na' pseudopotential, 'PBE' functional
  Generated using ONCVPSP code by D. R. Hamann
  Author: Martin Schlipf and Francois Gygi  Date: 150915.
  9 valence electrons, 3 orbitals, 4 projectors, 1992 radial grid points, with lMax = 1
  Transforming local potential to a uniform radial grid of dG=0.02 with 1489 points.
  Transforming nonlocal projectors to a uniform radial grid of dG=0.02 with 432 points.
    2S    l: 0   occupation:  2.0   eigenvalue: -2.085640
    2P    l: 1   occupation:  6.0   eigenvalue: -1.053708
    3S    l: 0   occupation:  1.0   eigenvalue: -0.100838
  Transforming atomic orbitals to a uniform radial grid of dG=0.02 with 432 points.
  Core radius for overlap checks: 2.01 bohrs.
  Reading pulay file /home/gridsan/aligho/DFT/build-Nov24/pseudopotentials/SG15/Na_ONCV_PBE.pulay ... using dE_dnG = -2.946487e-03 computed for Ecut = 20.

Initialized 1 species with 1 total atoms.

Folded 1 k-points by 12x12x1 to 144 k-points.

---------- Setting up k-points, bands, fillings ----------
Reduced to 19 k-points under symmetry. 
Computing the number of bands and number of electrons
Calculating initial fillings.
nElectrons:   9.000000   nBands: 6   nStates: 38

----- Setting up reduced wavefunction bases (one per k-point) -----
average nbasis = 29766.104 , ideal nbasis = 29766.845

---------- Setting up coulomb interaction ----------
Initialized slab truncation along lattice direction 001

---------- Setting up 2D ewald sum ----------
Optimum gaussian width for ewald sums = 7.873530 bohr.
Real space sums over 289 unit cells with max indices [  8  8  0  ]
Reciprocal space sums over 81 terms with max indices [  4  4  0  ]

---------- Allocating electronic variables ----------
Initializing wave functions:  linear combination of atomic orbitals
Note: number of bands (6) exceeds available atomic orbitals (5)
Na pseudo-atom occupations:   s ( 2 1 )  p ( 6 )
[d-6-7-4:67466] 18 more processes have sent help message help-mpi-common-cuda.txt / dlopen failed
[d-6-7-4:67466] Set MCA parameter "orte_base_help_aggregate" to 0 to see all help / error messages
[d-6-7-4:67466] 18 more processes have sent help message help-mpi-btl-openib-cpc-base.txt / no cpcs for port
	FillingsUpdate:  mu: -0.101337161  nElectrons: 9.000000  magneticMoment: [ Abs: 0.80000  Tot: -0.80000 ]
LCAOMinimize: Iter:   0  F: -42.5553846159660836  |grad|_K:  4.281e-06  alpha:  1.000e+00
	FillingsUpdate:  mu: -0.101336583  nElectrons: 9.000000  magneticMoment: [ Abs: 0.80000  Tot: -0.80000 ]
LCAOMinimize: Iter:   1  F: -42.5553846284671948  |grad|_K:  1.842e-08  alpha:  9.972e-01  linmin: -5.596e-03  cgtest:  1.739e-01  t[s]:      8.45
LCAOMinimize: Encountered beta<0, resetting CG.
LCAOMinimize: 	Step increased F by 4.263256e-13, reducing alpha to 4.008364e-02.
LCAOMinimize: 	Step increased F by 1.350031e-13, reducing alpha to 4.008364e-03.
LCAOMinimize: 	Step increased F by 1.065814e-13, reducing alpha to 4.008364e-04.
LCAOMinimize: 	Step failed to reduce F after 3 attempts. Quitting step.
LCAOMinimize: 	Undoing step.
LCAOMinimize: 	Step failed along negative gradient direction.
LCAOMinimize: Probably at roundoff error limit. (Stopping)


---- Citations for features of the code used in this run ----

   Software package:
      R. Sundararaman, K. Letchworth-Weaver, K.A. Schwarz, D. Gunceler, Y. Ozhabes and T.A. Arias, 'JDFTx: software for joint density-functional theory', SoftwareX 6, 278 (2017)

   gga-PBE exchange-correlation functional:
      J.P. Perdew, K. Burke and M. Ernzerhof, Phys. Rev. Lett. 77, 3865 (1996)

   Pseudopotentials:
      M Schlipf and F Gygi, Comput. Phys. Commun. 196, 36 (2015)

   Truncated Coulomb potentials:
      R. Sundararaman and T.A. Arias, Phys. Rev. B 87, 165122 (2013)

This list may not be complete. Please suggest additional citations or
report any other bugs at https://github.com/shankar1729/jdftx/issues

Initialization completed successfully at t[s]:     14.81


-------- Electronic minimization -----------
Will mix electronic density at each iteration.
	FillingsUpdate:  mu: -0.101336583  nElectrons: 9.000000  magneticMoment: [ Abs: 0.80000  Tot: -0.80000 ]
	FillingsUpdate:  mu: -0.101582003  nElectrons: 9.000000  magneticMoment: [ Abs: 0.80000  Tot: -0.80000 ]
SCF: Cycle:  0   F: -42.555646740768786   dF: -2.621e-04   |Residual|: 2.441e-03   |deigs|: 1.680e-01  t[s]:     19.15
	FillingsUpdate:  mu: -0.101630350  nElectrons: 9.000000  magneticMoment: [ Abs: 0.80212  Tot: -0.80000 ]
SCF: Cycle:  1   F: -42.555649591399906   dF: -2.851e-06   |Residual|: 9.138e-04   |deigs|: 9.491e-03  t[s]:     22.61
	FillingsUpdate:  mu: -0.101528153  nElectrons: 9.000000  magneticMoment: [ Abs: 0.80152  Tot: -0.80000 ]
SCF: Cycle:  2   F: -42.555650354454478   dF: -7.631e-07   |Residual|: 4.951e-04   |deigs|: 2.231e-03  t[s]:     26.10
	FillingsUpdate:  mu: -0.101459411  nElectrons: 9.000000  magneticMoment: [ Abs: 0.80186  Tot: -0.80000 ]
SCF: Cycle:  3   F: -42.555650703637433   dF: -3.492e-07   |Residual|: 2.851e-04   |deigs|: 1.789e-03  t[s]:     29.56
	FillingsUpdate:  mu: -0.101381397  nElectrons: 9.000000  magneticMoment: [ Abs: 0.80169  Tot: -0.80000 ]
SCF: Cycle:  4   F: -42.555650854376971   dF: -1.507e-07   |Residual|: 2.102e-04   |deigs|: 1.101e-03  t[s]:     33.11
	FillingsUpdate:  mu: -0.101219289  nElectrons: 9.000000  magneticMoment: [ Abs: 0.80168  Tot: -0.80000 ]
SCF: Cycle:  5   F: -42.555650966631440   dF: -1.123e-07   |Residual|: 1.414e-04   |deigs|: 8.844e-04  t[s]:     36.75
	FillingsUpdate:  mu: -0.101153981  nElectrons: 9.000000  magneticMoment: [ Abs: 0.80172  Tot: -0.80000 ]
SCF: Cycle:  6   F: -42.555651032848353   dF: -6.622e-08   |Residual|: 1.075e-04   |deigs|: 5.450e-04  t[s]:     40.42
	FillingsUpdate:  mu: -0.101092227  nElectrons: 9.000000  magneticMoment: [ Abs: 0.80171  Tot: -0.80000 ]
SCF: Cycle:  7   F: -42.555651102379578   dF: -6.953e-08   |Residual|: 8.618e-05   |deigs|: 3.080e-04  t[s]:     44.16
	FillingsUpdate:  mu: -0.101063708  nElectrons: 9.000000  magneticMoment: [ Abs: 0.80167  Tot: -0.80000 ]
SCF: Cycle:  8   F: -42.555651130495193   dF: -2.812e-08   |Residual|: 6.984e-05   |deigs|: 2.608e-04  t[s]:     47.93
	FillingsUpdate:  mu: -0.101009391  nElectrons: 9.000000  magneticMoment: [ Abs: 0.80186  Tot: -0.80000 ]
SCF: Cycle:  9   F: -42.555651046510810   dF: +8.398e-08   |Residual|: 5.689e-05   |deigs|: 2.422e-04  t[s]:     51.74
	FillingsUpdate:  mu: -0.100986732  nElectrons: 9.000000  magneticMoment: [ Abs: 0.80181  Tot: -0.80000 ]
SCF: Cycle: 10   F: -42.555651002177115   dF: +4.433e-08   |Residual|: 4.768e-05   |deigs|: 1.671e-04  t[s]:     55.67
	FillingsUpdate:  mu: -0.100930078  nElectrons: 9.000000  magneticMoment: [ Abs: 0.80179  Tot: -0.80000 ]
SCF: Cycle: 11   F: -42.555650840853424   dF: +1.613e-07   |Residual|: 3.869e-05   |deigs|: 1.721e-04  t[s]:     59.60
	FillingsUpdate:  mu: -0.100942688  nElectrons: 9.000000  magneticMoment: [ Abs: 0.80198  Tot: -0.80000 ]
SCF: Cycle: 12   F: -42.555651117665981   dF: -2.768e-07   |Residual|: 3.958e-05   |deigs|: 8.214e-05  t[s]:     63.50
	FillingsUpdate:  mu: -0.100862824  nElectrons: 9.000000  magneticMoment: [ Abs: 0.80205  Tot: -0.80000 ]
SCF: Cycle: 13   F: -42.555651155292466   dF: -3.763e-08   |Residual|: 3.210e-05   |deigs|: 9.658e-05  t[s]:     67.36
	FillingsUpdate:  mu: -0.100769018  nElectrons: 9.000000  magneticMoment: [ Abs: 0.80201  Tot: -0.80000 ]
SCF: Cycle: 14   F: -42.555651069347313   dF: +8.595e-08   |Residual|: 3.253e-05   |deigs|: 1.144e-04  t[s]:     71.22
	FillingsUpdate:  mu: -0.100700665  nElectrons: 9.000000  magneticMoment: [ Abs: 0.80194  Tot: -0.80000 ]
SCF: Cycle: 15   F: -42.555651159368928   dF: -9.002e-08   |Residual|: 3.034e-05   |deigs|: 8.496e-05  t[s]:     75.12
	FillingsUpdate:  mu: -0.100697101  nElectrons: 9.000000  magneticMoment: [ Abs: 0.80176  Tot: -0.80000 ]
SCF: Cycle: 16   F: -42.555651205949822   dF: -4.658e-08   |Residual|: 2.272e-05   |deigs|: 4.987e-05  t[s]:     78.99
	FillingsUpdate:  mu: -0.100655511  nElectrons: 9.000000  magneticMoment: [ Abs: 0.80172  Tot: -0.80000 ]
SCF: Cycle: 17   F: -42.555651247385093   dF: -4.144e-08   |Residual|: 1.750e-05   |deigs|: 7.997e-05  t[s]:     82.90
	FillingsUpdate:  mu: -0.100614116  nElectrons: 9.000000  magneticMoment: [ Abs: 0.80170  Tot: -0.80000 ]
SCF: Cycle: 18   F: -42.555651259144945   dF: -1.176e-08   |Residual|: 1.198e-05   |deigs|: 1.804e-04  t[s]:     86.71
	FillingsUpdate:  mu: -0.100604235  nElectrons: 9.000000  magneticMoment: [ Abs: 0.80170  Tot: -0.80000 ]
SCF: Cycle: 19   F: -42.555651264585393   dF: -5.440e-09   |Residual|: 8.855e-06   |deigs|: 3.323e-05  t[s]:     90.62
	FillingsUpdate:  mu: -0.100600975  nElectrons: 9.000000  magneticMoment: [ Abs: 0.80170  Tot: -0.80000 ]
SCF: Cycle: 20   F: -42.555651269889452   dF: -5.304e-09   |Residual|: 5.709e-06   |deigs|: 1.975e-05  t[s]:     94.61
SCF: Converged (|Delta E|<1.000000e-08 for 2 iters).


# Ionic positions in lattice coordinates:
ion Na   0.000000000000000   0.000000000000000   0.000000000000000 0

# Forces in Lattice coordinates:
force Na  -0.000000000000000   0.000000000000000   0.000000000000000 0

# Energy components:
   Eewald =      -12.0320174002217755
       EH =       21.7706345586454226
     Eloc =      -54.8067854388717564
      Enl =      -12.9042458656011831
   Epulay =       -0.0000003132867683
      Exc =       -6.2156477543039541
       KE =       21.6324112721683903
-------------------------------------
     Etot =      -42.5556509414716189
       TS =        0.0000003284178367
-------------------------------------
        F =      -42.5556512698894522

IonicMinimize: Iter:   0  F: -42.555651269889452  |grad|_K:  0.000e+00  t[s]:     94.77
IonicMinimize: Converged (|grad|_K<1.000000e-04).

#--- Lowdin population analysis ---
# oxidation-state Na +0.002
# magnetic-moments Na -0.798

End date and time: Sat Feb  5 22:23:12 2022  (Duration: 0-0:01:34.81)
Done!
scale=4
magnetization=-0.8
--------------------------------------------------------------------------
The library attempted to open the following supporting CUDA libraries,
but each of them failed.  CUDA-aware support is disabled.
libcuda.so.1: cannot open shared object file: No such file or directory
libcuda.dylib: cannot open shared object file: No such file or directory
/usr/lib64/libcuda.so.1: cannot open shared object file: No such file or directory
/usr/lib64/libcuda.dylib: cannot open shared object file: No such file or directory
If you are not interested in CUDA-aware support, then run with
--mca opal_warn_on_missing_libcuda 0 to suppress this message.  If you are interested
in CUDA-aware support, then try setting LD_LIBRARY_PATH to the location
of libcuda.so.1 to get passed this issue.
--------------------------------------------------------------------------
--------------------------------------------------------------------------
No OpenFabrics connection schemes reported that they were able to be
used on a specific port.  As such, the openib BTL (OpenFabrics
support) will be disabled for this port.

  Local host:           d-6-7-4
  Local device:         mlx5_1
  Local port:           1
  CPCs attempted:       rdmacm, udcm
--------------------------------------------------------------------------

*************** JDFTx 1.6.0 (git hash 42ebbcc2) ***************

Start date and time: Sat Feb  5 22:23:13 2022
Executable jdftx with command-line: -i Alkali.in
Running on hosts (process indices):  d-6-7-4 (0-18)
Divided in process groups (process indices):  0 (0)  1 (1)  2 (2)  3 (3)  4 (4)  5 (5)  6 (6)  7 (7)  8 (8)  9 (9)  10 (10)  11 (11)  12 (12)  13 (13)  14 (14)  15 (15)  16 (16)  17 (17)  18 (18)
Resource initialization completed at t[s]:      0.00
Run totals: 19 processes, 48 threads, 0 GPUs


Input parsed successfully to the following command list (including defaults):

basis kpoint-dependent
coords-type Lattice
core-overlap-check vector
coulomb-interaction Slab 001
davidson-band-ratio 1.1
dump End None
dump-name $INPUT.$VAR
elec-cutoff 20
elec-eigen-algo Davidson
elec-ex-corr gga-PBE
elec-initial-magnetization -0.800000 yes
elec-smearing Fermi 1e-05
electronic-minimize  \
	dirUpdateScheme      FletcherReeves \
	linminMethod         DirUpdateRecommended \
	nIterations          100 \
	history              15 \
	knormThreshold       0 \
	energyDiffThreshold  1e-08 \
	nEnergyDiff          2 \
	alphaTstart          1 \
	alphaTmin            1e-10 \
	updateTestStepSize   yes \
	alphaTreduceFactor   0.1 \
	alphaTincreaseFactor 3 \
	nAlphaAdjustMax      3 \
	wolfeEnergy          0.0001 \
	wolfeGradient        0.9 \
	fdTest               no
electronic-scf  \
	nIterations	10000 \
	energyDiffThreshold	1e-08 \
	residualThreshold	1e-07 \
	mixFraction	0.5 \
	qMetric	0.8 \
	history	10 \
	nEigSteps	2 \
	eigDiffThreshold	1e-08 \
	mixedVariable	Density \
	qKerker	0.8 \
	qKappa	-1 \
	verbose	no \
	mixFractionMag	1.5
exchange-regularization WignerSeitzTruncated
fluid None
fluid-ex-corr (null) lda-PZ
fluid-gummel-loop 10 1.000000e-05
fluid-minimize  \
	dirUpdateScheme      PolakRibiere \
	linminMethod         DirUpdateRecommended \
	nIterations          100 \
	history              15 \
	knormThreshold       0 \
	energyDiffThreshold  0 \
	nEnergyDiff          2 \
	alphaTstart          1 \
	alphaTmin            1e-10 \
	updateTestStepSize   yes \
	alphaTreduceFactor   0.1 \
	alphaTincreaseFactor 3 \
	nAlphaAdjustMax      3 \
	wolfeEnergy          0.0001 \
	wolfeGradient        0.9 \
	fdTest               no
fluid-solvent H2O 55.338 ScalarEOS \
	epsBulk 78.4 \
	pMol 0.92466 \
	epsInf 1.77 \
	Pvap 1.06736e-10 \
	sigmaBulk 4.62e-05 \
	Rvdw 2.61727 \
	Res 1.42 \
	tauNuc 343133 \
	poleEl 15 7 1
forces-output-coords Positions
ion Na   0.000000000000000   0.000000000000000   0.000000000000000 0
ion-species SG15/$ID_ONCV_PBE.upf
ion-width 0
ionic-minimize  \
	dirUpdateScheme      L-BFGS \
	linminMethod         DirUpdateRecommended \
	nIterations          0 \
	history              15 \
	knormThreshold       0.0001 \
	energyDiffThreshold  1e-06 \
	nEnergyDiff          2 \
	alphaTstart          1 \
	alphaTmin            1e-10 \
	updateTestStepSize   yes \
	alphaTreduceFactor   0.1 \
	alphaTincreaseFactor 3 \
	nAlphaAdjustMax      3 \
	wolfeEnergy          0.0001 \
	wolfeGradient        0.9 \
	fdTest               no
kpoint   0.000000000000   0.000000000000   0.000000000000  1.00000000000000
kpoint-folding 12 12 1 
latt-move-scale 1 1 1
latt-scale 4 4 1 
lattice  \
	   4.727486978767153   -2.363743489383575    0.000000000000000  \
	  -0.000000000000000    4.094123819672498    0.000000000000000  \
	   0.000000000000000    0.000000000000000   40.000000000000000 
lattice-minimize  \
	dirUpdateScheme      L-BFGS \
	linminMethod         DirUpdateRecommended \
	nIterations          0 \
	history              15 \
	knormThreshold       0 \
	energyDiffThreshold  1e-06 \
	nEnergyDiff          2 \
	alphaTstart          1 \
	alphaTmin            1e-10 \
	updateTestStepSize   yes \
	alphaTreduceFactor   0.1 \
	alphaTincreaseFactor 3 \
	nAlphaAdjustMax      3 \
	wolfeEnergy          0.0001 \
	wolfeGradient        0.9 \
	fdTest               no
lcao-params -1 1e-06 1e-05
pcm-variant GLSSA13
spintype z-spin
subspace-rotation-factor 1 yes
symmetries automatic
symmetry-threshold 0.0001



---------- Setting up symmetries ----------

Found 24 point-group symmetries of the bravais lattice
Found 24 space-group symmetries with basis
Applied RMS atom displacement 0 bohrs to make symmetries exact.

---------- Initializing the Grid ----------
R = 
[      18.9099     -9.45497            0  ]
[            0      16.3765            0  ]
[            0            0           40  ]
unit cell volume = 12387.1
G =
[   0.332269   0.191835         -0  ]
[          0   0.383671         -0  ]
[         -0         -0    0.15708  ]
Minimum fftbox size, Smin = [  80  80  164  ]
Chosen fftbox size, S = [  80  80  168  ]

---------- Exchange Correlation functional ----------
Initalized PBE GGA exchange.
Initalized PBE GGA correlation.

---------- Setting up pseudopotentials ----------
Width of ionic core gaussian charges (only for fluid interactions / plotting) set to 0

Reading pseudopotential file '/home/gridsan/aligho/DFT/build-Nov24/pseudopotentials/SG15/Na_ONCV_PBE.upf':
  'Na' pseudopotential, 'PBE' functional
  Generated using ONCVPSP code by D. R. Hamann
  Author: Martin Schlipf and Francois Gygi  Date: 150915.
  9 valence electrons, 3 orbitals, 4 projectors, 1992 radial grid points, with lMax = 1
  Transforming local potential to a uniform radial grid of dG=0.02 with 1489 points.
  Transforming nonlocal projectors to a uniform radial grid of dG=0.02 with 432 points.
    2S    l: 0   occupation:  2.0   eigenvalue: -2.085640
    2P    l: 1   occupation:  6.0   eigenvalue: -1.053708
    3S    l: 0   occupation:  1.0   eigenvalue: -0.100838
  Transforming atomic orbitals to a uniform radial grid of dG=0.02 with 432 points.
  Core radius for overlap checks: 2.01 bohrs.
  Reading pulay file /home/gridsan/aligho/DFT/build-Nov24/pseudopotentials/SG15/Na_ONCV_PBE.pulay ... using dE_dnG = -2.946487e-03 computed for Ecut = 20.

Initialized 1 species with 1 total atoms.

Folded 1 k-points by 12x12x1 to 144 k-points.

---------- Setting up k-points, bands, fillings ----------
Reduced to 19 k-points under symmetry. 
Computing the number of bands and number of electrons
Calculating initial fillings.
nElectrons:   9.000000   nBands: 6   nStates: 38

----- Setting up reduced wavefunction bases (one per k-point) -----
average nbasis = 52924.021 , ideal nbasis = 52918.836

---------- Setting up coulomb interaction ----------
Initialized slab truncation along lattice direction 001

---------- Setting up 2D ewald sum ----------
Optimum gaussian width for ewald sums = 10.498040 bohr.
Real space sums over 289 unit cells with max indices [  8  8  0  ]
Reciprocal space sums over 81 terms with max indices [  4  4  0  ]

---------- Allocating electronic variables ----------
Initializing wave functions:  linear combination of atomic orbitals
Note: number of bands (6) exceeds available atomic orbitals (5)
Na pseudo-atom occupations:   s ( 2 1 )  p ( 6 )
[d-6-7-4:20172] 18 more processes have sent help message help-mpi-common-cuda.txt / dlopen failed
[d-6-7-4:20172] Set MCA parameter "orte_base_help_aggregate" to 0 to see all help / error messages
[d-6-7-4:20172] 18 more processes have sent help message help-mpi-btl-openib-cpc-base.txt / no cpcs for port
	FillingsUpdate:  mu: -0.099370133  nElectrons: 9.000000  magneticMoment: [ Abs: 0.80000  Tot: -0.80000 ]
LCAOMinimize: Iter:   0  F: -42.5542820967316118  |grad|_K:  6.444e-07  alpha:  1.000e+00
	FillingsUpdate:  mu: -0.099370005  nElectrons: 9.000000  magneticMoment: [ Abs: 0.80000  Tot: -0.80000 ]
LCAOMinimize: Iter:   1  F: -42.5542820970148199  |grad|_K:  2.629e-09  alpha:  9.960e-01  linmin: -2.693e-03  cgtest:  3.035e-01  t[s]:     14.77
LCAOMinimize: Encountered beta<0, resetting CG.
LCAOMinimize: 	Step increased F by 6.394885e-14, reducing alpha to 6.602499e-02.
LCAOMinimize: 	Step increased F by 5.684342e-14, reducing alpha to 6.602499e-03.
LCAOMinimize: 	Step increased F by 1.421085e-13, reducing alpha to 6.602499e-04.
LCAOMinimize: 	Step failed to reduce F after 3 attempts. Quitting step.
LCAOMinimize: 	Undoing step.
LCAOMinimize: 	Step failed along negative gradient direction.
LCAOMinimize: Probably at roundoff error limit. (Stopping)


---- Citations for features of the code used in this run ----

   Software package:
      R. Sundararaman, K. Letchworth-Weaver, K.A. Schwarz, D. Gunceler, Y. Ozhabes and T.A. Arias, 'JDFTx: software for joint density-functional theory', SoftwareX 6, 278 (2017)

   gga-PBE exchange-correlation functional:
      J.P. Perdew, K. Burke and M. Ernzerhof, Phys. Rev. Lett. 77, 3865 (1996)

   Pseudopotentials:
      M Schlipf and F Gygi, Comput. Phys. Commun. 196, 36 (2015)

   Truncated Coulomb potentials:
      R. Sundararaman and T.A. Arias, Phys. Rev. B 87, 165122 (2013)

This list may not be complete. Please suggest additional citations or
report any other bugs at https://github.com/shankar1729/jdftx/issues

Initialization completed successfully at t[s]:     25.85


-------- Electronic minimization -----------
Will mix electronic density at each iteration.
	FillingsUpdate:  mu: -0.099370005  nElectrons: 9.000000  magneticMoment: [ Abs: 0.80000  Tot: -0.80000 ]
	FillingsUpdate:  mu: -0.099543754  nElectrons: 9.000000  magneticMoment: [ Abs: 0.80000  Tot: -0.80000 ]
SCF: Cycle:  0   F: -42.554402255053880   dF: -1.202e-04   |Residual|: 2.492e-03   |deigs|: 1.564e-01  t[s]:     33.33
	FillingsUpdate:  mu: -0.099575951  nElectrons: 9.000000  magneticMoment: [ Abs: 0.80221  Tot: -0.80000 ]
SCF: Cycle:  1   F: -42.554403841518592   dF: -1.586e-06   |Residual|: 1.024e-03   |deigs|: 1.710e-02  t[s]:     39.16
	FillingsUpdate:  mu: -0.099407494  nElectrons: 9.000000  magneticMoment: [ Abs: 0.80157  Tot: -0.80000 ]
SCF: Cycle:  2   F: -42.554404550906277   dF: -7.094e-07   |Residual|: 6.349e-04   |deigs|: 6.786e-03  t[s]:     45.07
	FillingsUpdate:  mu: -0.099211375  nElectrons: 9.000000  magneticMoment: [ Abs: 0.80191  Tot: -0.80000 ]
SCF: Cycle:  3   F: -42.554404878649244   dF: -3.277e-07   |Residual|: 3.930e-04   |deigs|: 1.384e-03  t[s]:     51.11
	FillingsUpdate:  mu: -0.098967507  nElectrons: 9.000000  magneticMoment: [ Abs: 0.80163  Tot: -0.80000 ]
SCF: Cycle:  4   F: -42.554404941959810   dF: -6.331e-08   |Residual|: 2.352e-04   |deigs|: 5.994e-04  t[s]:     57.28
	FillingsUpdate:  mu: -0.098765905  nElectrons: 9.000000  magneticMoment: [ Abs: 0.80166  Tot: -0.80000 ]
SCF: Cycle:  5   F: -42.554404956540878   dF: -1.458e-08   |Residual|: 1.529e-04   |deigs|: 4.044e-04  t[s]:     63.54
	FillingsUpdate:  mu: -0.098711089  nElectrons: 9.000000  magneticMoment: [ Abs: 0.80169  Tot: -0.80000 ]
SCF: Cycle:  6   F: -42.554405138590162   dF: -1.820e-07   |Residual|: 1.055e-04   |deigs|: 9.730e-05  t[s]:     69.90
	FillingsUpdate:  mu: -0.098675603  nElectrons: 9.000000  magneticMoment: [ Abs: 0.80179  Tot: -0.80000 ]
SCF: Cycle:  7   F: -42.554405258443417   dF: -1.199e-07   |Residual|: 7.160e-05   |deigs|: 5.769e-05  t[s]:     76.33
	FillingsUpdate:  mu: -0.098654501  nElectrons: 9.000000  magneticMoment: [ Abs: 0.80171  Tot: -0.80000 ]
SCF: Cycle:  8   F: -42.554405312585565   dF: -5.414e-08   |Residual|: 4.880e-05   |deigs|: 5.630e-05  t[s]:     82.84
	FillingsUpdate:  mu: -0.098645052  nElectrons: 9.000000  magneticMoment: [ Abs: 0.80172  Tot: -0.80000 ]
SCF: Cycle:  9   F: -42.554405320165053   dF: -7.579e-09   |Residual|: 3.347e-05   |deigs|: 3.839e-05  t[s]:     89.59
	FillingsUpdate:  mu: -0.098640617  nElectrons: 9.000000  magneticMoment: [ Abs: 0.80168  Tot: -0.80000 ]
SCF: Cycle: 10   F: -42.554405306001797   dF: +1.416e-08   |Residual|: 2.817e-05   |deigs|: 4.437e-05  t[s]:     96.37
	FillingsUpdate:  mu: -0.098610724  nElectrons: 9.000000  magneticMoment: [ Abs: 0.80172  Tot: -0.80000 ]
SCF: Cycle: 11   F: -42.554405264764029   dF: +4.124e-08   |Residual|: 2.368e-05   |deigs|: 7.459e-05  t[s]:    103.19
	FillingsUpdate:  mu: -0.098597553  nElectrons: 9.000000  magneticMoment: [ Abs: 0.80179  Tot: -0.80000 ]
SCF: Cycle: 12   F: -42.554405270814904   dF: -6.051e-09   |Residual|: 2.164e-05   |deigs|: 5.190e-05  t[s]:    110.04
	FillingsUpdate:  mu: -0.098571944  nElectrons: 9.000000  magneticMoment: [ Abs: 0.80179  Tot: -0.80000 ]
SCF: Cycle: 13   F: -42.554405234787836   dF: +3.603e-08   |Residual|: 1.941e-05   |deigs|: 4.832e-05  t[s]:    116.85
	FillingsUpdate:  mu: -0.098547343  nElectrons: 9.000000  magneticMoment: [ Abs: 0.80185  Tot: -0.80000 ]
SCF: Cycle: 14   F: -42.554405219919353   dF: +1.487e-08   |Residual|: 1.766e-05   |deigs|: 3.497e-05  t[s]:    123.54
	FillingsUpdate:  mu: -0.098534702  nElectrons: 9.000000  magneticMoment: [ Abs: 0.80189  Tot: -0.80000 ]
SCF: Cycle: 15   F: -42.554405204245789   dF: +1.567e-08   |Residual|: 1.656e-05   |deigs|: 2.311e-05  t[s]:    130.31
	FillingsUpdate:  mu: -0.098509085  nElectrons: 9.000000  magneticMoment: [ Abs: 0.80184  Tot: -0.80000 ]
SCF: Cycle: 16   F: -42.554405252600759   dF: -4.835e-08   |Residual|: 1.353e-05   |deigs|: 3.760e-05  t[s]:    137.09
	FillingsUpdate:  mu: -0.098493023  nElectrons: 9.000000  magneticMoment: [ Abs: 0.80183  Tot: -0.80000 ]
SCF: Cycle: 17   F: -42.554405295663784   dF: -4.306e-08   |Residual|: 1.276e-05   |deigs|: 2.099e-05  t[s]:    143.86
	FillingsUpdate:  mu: -0.098476432  nElectrons: 9.000000  magneticMoment: [ Abs: 0.80180  Tot: -0.80000 ]
SCF: Cycle: 18   F: -42.554405281020721   dF: +1.464e-08   |Residual|: 1.020e-05   |deigs|: 1.938e-05  t[s]:    150.49
	FillingsUpdate:  mu: -0.098471514  nElectrons: 9.000000  magneticMoment: [ Abs: 0.80179  Tot: -0.80000 ]
SCF: Cycle: 19   F: -42.554405345414843   dF: -6.439e-08   |Residual|: 8.281e-06   |deigs|: 1.381e-05  t[s]:    157.26
	FillingsUpdate:  mu: -0.098468604  nElectrons: 9.000000  magneticMoment: [ Abs: 0.80178  Tot: -0.80000 ]
SCF: Cycle: 20   F: -42.554405308634955   dF: +3.678e-08   |Residual|: 7.010e-06   |deigs|: 6.090e-06  t[s]:    163.90
	FillingsUpdate:  mu: -0.098462849  nElectrons: 9.000000  magneticMoment: [ Abs: 0.80175  Tot: -0.80000 ]
SCF: Cycle: 21   F: -42.554405335100604   dF: -2.647e-08   |Residual|: 4.299e-06   |deigs|: 1.065e-05  t[s]:    170.54
	FillingsUpdate:  mu: -0.098460993  nElectrons: 9.000000  magneticMoment: [ Abs: 0.80173  Tot: -0.80000 ]
SCF: Cycle: 22   F: -42.554405363935672   dF: -2.884e-08   |Residual|: 3.307e-06   |deigs|: 4.641e-06  t[s]:    177.15
	FillingsUpdate:  mu: -0.098460773  nElectrons: 9.000000  magneticMoment: [ Abs: 0.80172  Tot: -0.80000 ]
SCF: Cycle: 23   F: -42.554405348339266   dF: +1.560e-08   |Residual|: 2.553e-06   |deigs|: 4.595e-06  t[s]:    183.72
	FillingsUpdate:  mu: -0.098460284  nElectrons: 9.000000  magneticMoment: [ Abs: 0.80170  Tot: -0.80000 ]
SCF: Cycle: 24   F: -42.554405361633279   dF: -1.329e-08   |Residual|: 1.698e-06   |deigs|: 4.259e-06  t[s]:    190.32
	FillingsUpdate:  mu: -0.098460373  nElectrons: 9.000000  magneticMoment: [ Abs: 0.80169  Tot: -0.80000 ]
SCF: Cycle: 25   F: -42.554405363374933   dF: -1.742e-09   |Residual|: 1.200e-06   |deigs|: 4.344e-06  t[s]:    196.97
	FillingsUpdate:  mu: -0.098460285  nElectrons: 9.000000  magneticMoment: [ Abs: 0.80169  Tot: -0.80000 ]
SCF: Cycle: 26   F: -42.554405366642939   dF: -3.268e-09   |Residual|: 8.532e-07   |deigs|: 4.276e-06  t[s]:    203.62
SCF: Converged (|Delta E|<1.000000e-08 for 2 iters).


# Ionic positions in lattice coordinates:
ion Na   0.000000000000000   0.000000000000000   0.000000000000000 0

# Forces in Lattice coordinates:
force Na   0.000000000000000   0.000000000000000   0.000000000000000 0

# Energy components:
   Eewald =       -9.0240130501663280
       EH =       24.7949265855651753
     Eloc =      -60.8405852904264606
      Enl =      -12.9034939186562383
   Epulay =        0.0000012333957556
      Exc =       -6.2168190687910254
       KE =       21.6355786751590955
-------------------------------------
     Etot =      -42.5544048339200316
       TS =        0.0000005327229054
-------------------------------------
        F =      -42.5544053666429392

IonicMinimize: Iter:   0  F: -42.554405366642939  |grad|_K:  0.000e+00  t[s]:    203.87
IonicMinimize: Converged (|grad|_K<1.000000e-04).

#--- Lowdin population analysis ---
# oxidation-state Na +0.000
# magnetic-moments Na -0.800

End date and time: Sat Feb  5 22:26:37 2022  (Duration: 0-0:03:23.94)
Done!
