The alkali metal is Na
scale=2
magnetization=0.16
--------------------------------------------------------------------------
The library attempted to open the following supporting CUDA libraries,
but each of them failed.  CUDA-aware support is disabled.
libcuda.so.1: cannot open shared object file: No such file or directory
libcuda.dylib: cannot open shared object file: No such file or directory
/usr/lib64/libcuda.so.1: cannot open shared object file: No such file or directory
/usr/lib64/libcuda.dylib: cannot open shared object file: No such file or directory
If you are not interested in CUDA-aware support, then run with
--mca opal_warn_on_missing_libcuda 0 to suppress this message.  If you are interested
in CUDA-aware support, then try setting LD_LIBRARY_PATH to the location
of libcuda.so.1 to get passed this issue.
--------------------------------------------------------------------------
--------------------------------------------------------------------------
No OpenFabrics connection schemes reported that they were able to be
used on a specific port.  As such, the openib BTL (OpenFabrics
support) will be disabled for this port.

  Local host:           d-16-1-2
  Local device:         mlx5_1
  Local port:           1
  CPCs attempted:       rdmacm, udcm
--------------------------------------------------------------------------

*************** JDFTx 1.6.0 (git hash 42ebbcc2) ***************

Start date and time: Sat Feb  5 22:29:59 2022
Executable jdftx with command-line: -i Alkali.in
Running on hosts (process indices):  d-16-1-2 (0-18)
Divided in process groups (process indices):  0 (0)  1 (1)  2 (2)  3 (3)  4 (4)  5 (5)  6 (6)  7 (7)  8 (8)  9 (9)  10 (10)  11 (11)  12 (12)  13 (13)  14 (14)  15 (15)  16 (16)  17 (17)  18 (18)
Resource initialization completed at t[s]:      0.00
Run totals: 19 processes, 48 threads, 0 GPUs


Input parsed successfully to the following command list (including defaults):

basis kpoint-dependent
coords-type Lattice
core-overlap-check vector
coulomb-interaction Slab 001
davidson-band-ratio 1.1
dump End None
dump-name $INPUT.$VAR
elec-cutoff 20
elec-eigen-algo Davidson
elec-ex-corr gga-PBE
elec-initial-magnetization 0.160000 yes
elec-smearing Fermi 1e-05
electronic-minimize  \
	dirUpdateScheme      FletcherReeves \
	linminMethod         DirUpdateRecommended \
	nIterations          100 \
	history              15 \
	knormThreshold       0 \
	energyDiffThreshold  1e-08 \
	nEnergyDiff          2 \
	alphaTstart          1 \
	alphaTmin            1e-10 \
	updateTestStepSize   yes \
	alphaTreduceFactor   0.1 \
	alphaTincreaseFactor 3 \
	nAlphaAdjustMax      3 \
	wolfeEnergy          0.0001 \
	wolfeGradient        0.9 \
	fdTest               no
electronic-scf  \
	nIterations	10000 \
	energyDiffThreshold	1e-08 \
	residualThreshold	1e-07 \
	mixFraction	0.5 \
	qMetric	0.8 \
	history	10 \
	nEigSteps	2 \
	eigDiffThreshold	1e-08 \
	mixedVariable	Density \
	qKerker	0.8 \
	qKappa	-1 \
	verbose	no \
	mixFractionMag	1.5
exchange-regularization WignerSeitzTruncated
fluid None
fluid-ex-corr (null) lda-PZ
fluid-gummel-loop 10 1.000000e-05
fluid-minimize  \
	dirUpdateScheme      PolakRibiere \
	linminMethod         DirUpdateRecommended \
	nIterations          100 \
	history              15 \
	knormThreshold       0 \
	energyDiffThreshold  0 \
	nEnergyDiff          2 \
	alphaTstart          1 \
	alphaTmin            1e-10 \
	updateTestStepSize   yes \
	alphaTreduceFactor   0.1 \
	alphaTincreaseFactor 3 \
	nAlphaAdjustMax      3 \
	wolfeEnergy          0.0001 \
	wolfeGradient        0.9 \
	fdTest               no
fluid-solvent H2O 55.338 ScalarEOS \
	epsBulk 78.4 \
	pMol 0.92466 \
	epsInf 1.77 \
	Pvap 1.06736e-10 \
	sigmaBulk 4.62e-05 \
	Rvdw 2.61727 \
	Res 1.42 \
	tauNuc 343133 \
	poleEl 15 7 1
forces-output-coords Positions
ion Na   0.000000000000000   0.000000000000000   0.000000000000000 0
ion-species SG15/$ID_ONCV_PBE.upf
ion-width 0
ionic-minimize  \
	dirUpdateScheme      L-BFGS \
	linminMethod         DirUpdateRecommended \
	nIterations          0 \
	history              15 \
	knormThreshold       0.0001 \
	energyDiffThreshold  1e-06 \
	nEnergyDiff          2 \
	alphaTstart          1 \
	alphaTmin            1e-10 \
	updateTestStepSize   yes \
	alphaTreduceFactor   0.1 \
	alphaTincreaseFactor 3 \
	nAlphaAdjustMax      3 \
	wolfeEnergy          0.0001 \
	wolfeGradient        0.9 \
	fdTest               no
kpoint   0.000000000000   0.000000000000   0.000000000000  1.00000000000000
kpoint-folding 12 12 1 
latt-move-scale 1 1 1
latt-scale 2 2 1 
lattice  \
	   4.727486978767153   -2.363743489383575    0.000000000000000  \
	  -0.000000000000000    4.094123819672498    0.000000000000000  \
	   0.000000000000000    0.000000000000000   40.000000000000000 
lattice-minimize  \
	dirUpdateScheme      L-BFGS \
	linminMethod         DirUpdateRecommended \
	nIterations          0 \
	history              15 \
	knormThreshold       0 \
	energyDiffThreshold  1e-06 \
	nEnergyDiff          2 \
	alphaTstart          1 \
	alphaTmin            1e-10 \
	updateTestStepSize   yes \
	alphaTreduceFactor   0.1 \
	alphaTincreaseFactor 3 \
	nAlphaAdjustMax      3 \
	wolfeEnergy          0.0001 \
	wolfeGradient        0.9 \
	fdTest               no
lcao-params -1 1e-06 1e-05
pcm-variant GLSSA13
spintype z-spin
subspace-rotation-factor 1 yes
symmetries automatic
symmetry-threshold 0.0001



---------- Setting up symmetries ----------

Found 24 point-group symmetries of the bravais lattice
Found 24 space-group symmetries with basis
Applied RMS atom displacement 0 bohrs to make symmetries exact.

---------- Initializing the Grid ----------
R = 
[      9.45497     -4.72749            0  ]
[            0      8.18825            0  ]
[            0            0           40  ]
unit cell volume = 3096.79
G =
[   0.664538   0.383671         -0  ]
[          0   0.767342         -0  ]
[         -0         -0    0.15708  ]
Minimum fftbox size, Smin = [  40  40  164  ]
Chosen fftbox size, S = [  40  40  168  ]

---------- Exchange Correlation functional ----------
Initalized PBE GGA exchange.
Initalized PBE GGA correlation.

---------- Setting up pseudopotentials ----------
Width of ionic core gaussian charges (only for fluid interactions / plotting) set to 0

Reading pseudopotential file '/home/gridsan/aligho/DFT/build-Nov24/pseudopotentials/SG15/Na_ONCV_PBE.upf':
  'Na' pseudopotential, 'PBE' functional
  Generated using ONCVPSP code by D. R. Hamann
  Author: Martin Schlipf and Francois Gygi  Date: 150915.
  9 valence electrons, 3 orbitals, 4 projectors, 1992 radial grid points, with lMax = 1
  Transforming local potential to a uniform radial grid of dG=0.02 with 1489 points.
  Transforming nonlocal projectors to a uniform radial grid of dG=0.02 with 432 points.
    2S    l: 0   occupation:  2.0   eigenvalue: -2.085640
    2P    l: 1   occupation:  6.0   eigenvalue: -1.053708
    3S    l: 0   occupation:  1.0   eigenvalue: -0.100838
  Transforming atomic orbitals to a uniform radial grid of dG=0.02 with 432 points.
  Core radius for overlap checks: 2.01 bohrs.
  Reading pulay file /home/gridsan/aligho/DFT/build-Nov24/pseudopotentials/SG15/Na_ONCV_PBE.pulay ... using dE_dnG = -2.946487e-03 computed for Ecut = 20.

Initialized 1 species with 1 total atoms.

Folded 1 k-points by 12x12x1 to 144 k-points.

---------- Setting up k-points, bands, fillings ----------
Reduced to 19 k-points under symmetry. 
Computing the number of bands and number of electrons
Calculating initial fillings.
nElectrons:   9.000000   nBands: 6   nStates: 38

----- Setting up reduced wavefunction bases (one per k-point) -----
average nbasis = 13230.521 , ideal nbasis = 13229.709

---------- Setting up coulomb interaction ----------
Initialized slab truncation along lattice direction 001

---------- Setting up 2D ewald sum ----------
Optimum gaussian width for ewald sums = 5.249020 bohr.
Real space sums over 289 unit cells with max indices [  8  8  0  ]
Reciprocal space sums over 81 terms with max indices [  4  4  0  ]

---------- Allocating electronic variables ----------
Initializing wave functions:  linear combination of atomic orbitals
Note: number of bands (6) exceeds available atomic orbitals (5)
Na pseudo-atom occupations:   s ( 2 1 )  p ( 6 )
	FillingsUpdate:  mu: -0.108733611  nElectrons: 9.000000  magneticMoment: [ Abs: 0.16000  Tot: +0.16000 ]
LCAOMinimize: Iter:   0  F: -42.5687913854090709  |grad|_K:  3.246e-05  alpha:  1.000e+00
	FillingsUpdate:  mu: -0.108732909  nElectrons: 9.000000  magneticMoment: [ Abs: 0.16000  Tot: +0.16000 ]
LCAOMinimize: Iter:   1  F: -42.5687920975777843  |grad|_K:  3.201e-07  alpha:  9.880e-01  linmin: -1.750e-02  cgtest:  6.910e-01  t[s]:      4.45
LCAOMinimize: Encountered beta<0, resetting CG.
[d-16-1-2:08380] 18 more processes have sent help message help-mpi-common-cuda.txt / dlopen failed
[d-16-1-2:08380] Set MCA parameter "orte_base_help_aggregate" to 0 to see all help / error messages
[d-16-1-2:08380] 18 more processes have sent help message help-mpi-btl-openib-cpc-base.txt / no cpcs for port
	FillingsUpdate:  mu: -0.108732975  nElectrons: 9.000000  magneticMoment: [ Abs: 0.16000  Tot: +0.16000 ]
LCAOMinimize: Iter:   2  F: -42.5687920976480569  |grad|_K:  1.913e-09  alpha:  1.008e+00  linmin:  3.753e-02  cgtest: -9.852e-01  t[s]:      5.69
LCAOMinimize: Converged (|Delta F|<1.000000e-06 for 2 iters).


---- Citations for features of the code used in this run ----

   Software package:
      R. Sundararaman, K. Letchworth-Weaver, K.A. Schwarz, D. Gunceler, Y. Ozhabes and T.A. Arias, 'JDFTx: software for joint density-functional theory', SoftwareX 6, 278 (2017)

   gga-PBE exchange-correlation functional:
      J.P. Perdew, K. Burke and M. Ernzerhof, Phys. Rev. Lett. 77, 3865 (1996)

   Pseudopotentials:
      M Schlipf and F Gygi, Comput. Phys. Commun. 196, 36 (2015)

   Truncated Coulomb potentials:
      R. Sundararaman and T.A. Arias, Phys. Rev. B 87, 165122 (2013)

This list may not be complete. Please suggest additional citations or
report any other bugs at https://github.com/shankar1729/jdftx/issues

Initialization completed successfully at t[s]:      5.75


-------- Electronic minimization -----------
Will mix electronic density at each iteration.
	FillingsUpdate:  mu: -0.108732975  nElectrons: 9.000000  magneticMoment: [ Abs: 0.16000  Tot: +0.16000 ]
	FillingsUpdate:  mu: -0.115958714  nElectrons: 9.000000  magneticMoment: [ Abs: 0.16000  Tot: +0.16000 ]
SCF: Cycle:  0   F: -42.572903623552733   dF: -4.112e-03   |Residual|: 7.217e-03   |deigs|: 1.706e-01  t[s]:      7.96
	FillingsUpdate:  mu: -0.116098527  nElectrons: 9.000000  magneticMoment: [ Abs: 0.16000  Tot: +0.16000 ]
SCF: Cycle:  1   F: -42.572971553163583   dF: -6.793e-05   |Residual|: 5.137e-03   |deigs|: 8.863e-03  t[s]:      9.67
	FillingsUpdate:  mu: -0.115892277  nElectrons: 9.000000  magneticMoment: [ Abs: 0.16121  Tot: +0.16000 ]
SCF: Cycle:  2   F: -42.572990553929024   dF: -1.900e-05   |Residual|: 2.351e-03   |deigs|: 6.573e-03  t[s]:     11.36
	FillingsUpdate:  mu: -0.115510187  nElectrons: 9.000000  magneticMoment: [ Abs: 0.16000  Tot: +0.16000 ]
SCF: Cycle:  3   F: -42.572995301897109   dF: -4.748e-06   |Residual|: 1.355e-03   |deigs|: 4.779e-03  t[s]:     13.04
	FillingsUpdate:  mu: -0.114983204  nElectrons: 9.000000  magneticMoment: [ Abs: 0.16001  Tot: +0.16000 ]
SCF: Cycle:  4   F: -42.572997271160830   dF: -1.969e-06   |Residual|: 8.444e-04   |deigs|: 3.247e-03  t[s]:     14.84
	FillingsUpdate:  mu: -0.114526128  nElectrons: 9.000000  magneticMoment: [ Abs: 0.16010  Tot: +0.16000 ]
SCF: Cycle:  5   F: -42.572997570138142   dF: -2.990e-07   |Residual|: 6.789e-04   |deigs|: 1.612e-03  t[s]:     16.57
	FillingsUpdate:  mu: -0.113489050  nElectrons: 9.000000  magneticMoment: [ Abs: 0.16112  Tot: +0.16000 ]
SCF: Cycle:  6   F: -42.572997457603769   dF: +1.125e-07   |Residual|: 4.871e-04   |deigs|: 1.700e-03  t[s]:     18.37
	FillingsUpdate:  mu: -0.112910836  nElectrons: 9.000000  magneticMoment: [ Abs: 0.16107  Tot: +0.16000 ]
SCF: Cycle:  7   F: -42.572997167582443   dF: +2.900e-07   |Residual|: 3.792e-04   |deigs|: 8.275e-04  t[s]:     20.30
	FillingsUpdate:  mu: -0.112329027  nElectrons: 9.000000  magneticMoment: [ Abs: 0.16059  Tot: +0.16000 ]
SCF: Cycle:  8   F: -42.572998526876106   dF: -1.359e-06   |Residual|: 3.345e-04   |deigs|: 7.905e-04  t[s]:     22.13
	FillingsUpdate:  mu: -0.112182640  nElectrons: 9.000000  magneticMoment: [ Abs: 0.16038  Tot: +0.16000 ]
SCF: Cycle:  9   F: -42.572999043815152   dF: -5.169e-07   |Residual|: 2.431e-04   |deigs|: 2.589e-04  t[s]:     24.01
	FillingsUpdate:  mu: -0.111638017  nElectrons: 9.000000  magneticMoment: [ Abs: 0.16074  Tot: +0.16000 ]
SCF: Cycle: 10   F: -42.572997702303063   dF: +1.342e-06   |Residual|: 2.260e-04   |deigs|: 4.933e-04  t[s]:     25.93
	FillingsUpdate:  mu: -0.111178644  nElectrons: 9.000000  magneticMoment: [ Abs: 0.16055  Tot: +0.16000 ]
SCF: Cycle: 11   F: -42.572997213506248   dF: +4.888e-07   |Residual|: 2.079e-04   |deigs|: 4.863e-04  t[s]:     27.74
	FillingsUpdate:  mu: -0.110523996  nElectrons: 9.000000  magneticMoment: [ Abs: 0.16081  Tot: +0.16000 ]
SCF: Cycle: 12   F: -42.572998525418058   dF: -1.312e-06   |Residual|: 1.781e-04   |deigs|: 6.385e-04  t[s]:     29.60
	FillingsUpdate:  mu: -0.110165043  nElectrons: 9.000000  magneticMoment: [ Abs: 0.16109  Tot: +0.16000 ]
SCF: Cycle: 13   F: -42.572999479752568   dF: -9.543e-07   |Residual|: 1.702e-04   |deigs|: 3.677e-04  t[s]:     31.44
	FillingsUpdate:  mu: -0.109700259  nElectrons: 9.000000  magneticMoment: [ Abs: 0.16042  Tot: +0.16000 ]
SCF: Cycle: 14   F: -42.573000208022293   dF: -7.283e-07   |Residual|: 1.456e-04   |deigs|: 5.043e-04  t[s]:     33.27
	FillingsUpdate:  mu: -0.109216240  nElectrons: 9.000000  magneticMoment: [ Abs: 0.16025  Tot: +0.16000 ]
SCF: Cycle: 15   F: -42.573000655103272   dF: -4.471e-07   |Residual|: 1.251e-04   |deigs|: 5.120e-04  t[s]:     35.04
	FillingsUpdate:  mu: -0.108929061  nElectrons: 9.000000  magneticMoment: [ Abs: 0.16026  Tot: +0.16000 ]
SCF: Cycle: 16   F: -42.573000829531246   dF: -1.744e-07   |Residual|: 7.950e-05   |deigs|: 2.817e-04  t[s]:     36.87
	FillingsUpdate:  mu: -0.108775217  nElectrons: 9.000000  magneticMoment: [ Abs: 0.16013  Tot: +0.16000 ]
SCF: Cycle: 17   F: -42.573000875676797   dF: -4.615e-08   |Residual|: 4.521e-05   |deigs|: 1.646e-04  t[s]:     38.70
	FillingsUpdate:  mu: -0.108752710  nElectrons: 9.000000  magneticMoment: [ Abs: 0.16006  Tot: +0.16000 ]
SCF: Cycle: 18   F: -42.573000884127936   dF: -8.451e-09   |Residual|: 3.170e-05   |deigs|: 9.219e-04  t[s]:     40.51
	FillingsUpdate:  mu: -0.108730124  nElectrons: 9.000000  magneticMoment: [ Abs: 0.16010  Tot: +0.16000 ]
SCF: Cycle: 19   F: -42.573000892811301   dF: -8.683e-09   |Residual|: 1.565e-05   |deigs|: 3.548e-04  t[s]:     42.39
SCF: Converged (|Delta E|<1.000000e-08 for 2 iters).


# Ionic positions in lattice coordinates:
ion Na   0.000000000000000   0.000000000000000   0.000000000000000 0

# Forces in Lattice coordinates:
force Na   0.000000000000000   0.000000000000000   0.000000000000000 0

# Energy components:
   Eewald =      -18.0480261003326561
       EH =       15.7232397259703536
     Eloc =      -42.7346826209925297
      Enl =      -12.9129264563633157
   Epulay =        0.0000007725295140
      Exc =       -6.2160758370859819
       KE =       21.6154700575406409
-------------------------------------
     Etot =      -42.5730004587339792
       TS =        0.0000004340773189
-------------------------------------
        F =      -42.5730008928113008

IonicMinimize: Iter:   0  F: -42.573000892811301  |grad|_K:  0.000e+00  t[s]:     42.46
IonicMinimize: Converged (|grad|_K<1.000000e-04).

#--- Lowdin population analysis ---
# oxidation-state Na +0.036
# magnetic-moments Na +0.144

End date and time: Sat Feb  5 22:30:41 2022  (Duration: 0-0:00:42.49)
Done!
scale=3
magnetization=0.16
--------------------------------------------------------------------------
The library attempted to open the following supporting CUDA libraries,
but each of them failed.  CUDA-aware support is disabled.
libcuda.so.1: cannot open shared object file: No such file or directory
libcuda.dylib: cannot open shared object file: No such file or directory
/usr/lib64/libcuda.so.1: cannot open shared object file: No such file or directory
/usr/lib64/libcuda.dylib: cannot open shared object file: No such file or directory
If you are not interested in CUDA-aware support, then run with
--mca opal_warn_on_missing_libcuda 0 to suppress this message.  If you are interested
in CUDA-aware support, then try setting LD_LIBRARY_PATH to the location
of libcuda.so.1 to get passed this issue.
--------------------------------------------------------------------------
--------------------------------------------------------------------------
No OpenFabrics connection schemes reported that they were able to be
used on a specific port.  As such, the openib BTL (OpenFabrics
support) will be disabled for this port.

  Local host:           d-16-1-2
  Local device:         mlx5_1
  Local port:           1
  CPCs attempted:       rdmacm, udcm
--------------------------------------------------------------------------

*************** JDFTx 1.6.0 (git hash 42ebbcc2) ***************

Start date and time: Sat Feb  5 22:30:42 2022
Executable jdftx with command-line: -i Alkali.in
Running on hosts (process indices):  d-16-1-2 (0-18)
Divided in process groups (process indices):  0 (0)  1 (1)  2 (2)  3 (3)  4 (4)  5 (5)  6 (6)  7 (7)  8 (8)  9 (9)  10 (10)  11 (11)  12 (12)  13 (13)  14 (14)  15 (15)  16 (16)  17 (17)  18 (18)
Resource initialization completed at t[s]:      0.00
Run totals: 19 processes, 48 threads, 0 GPUs


Input parsed successfully to the following command list (including defaults):

basis kpoint-dependent
coords-type Lattice
core-overlap-check vector
coulomb-interaction Slab 001
davidson-band-ratio 1.1
dump End None
dump-name $INPUT.$VAR
elec-cutoff 20
elec-eigen-algo Davidson
elec-ex-corr gga-PBE
elec-initial-magnetization 0.160000 yes
elec-smearing Fermi 1e-05
electronic-minimize  \
	dirUpdateScheme      FletcherReeves \
	linminMethod         DirUpdateRecommended \
	nIterations          100 \
	history              15 \
	knormThreshold       0 \
	energyDiffThreshold  1e-08 \
	nEnergyDiff          2 \
	alphaTstart          1 \
	alphaTmin            1e-10 \
	updateTestStepSize   yes \
	alphaTreduceFactor   0.1 \
	alphaTincreaseFactor 3 \
	nAlphaAdjustMax      3 \
	wolfeEnergy          0.0001 \
	wolfeGradient        0.9 \
	fdTest               no
electronic-scf  \
	nIterations	10000 \
	energyDiffThreshold	1e-08 \
	residualThreshold	1e-07 \
	mixFraction	0.5 \
	qMetric	0.8 \
	history	10 \
	nEigSteps	2 \
	eigDiffThreshold	1e-08 \
	mixedVariable	Density \
	qKerker	0.8 \
	qKappa	-1 \
	verbose	no \
	mixFractionMag	1.5
exchange-regularization WignerSeitzTruncated
fluid None
fluid-ex-corr (null) lda-PZ
fluid-gummel-loop 10 1.000000e-05
fluid-minimize  \
	dirUpdateScheme      PolakRibiere \
	linminMethod         DirUpdateRecommended \
	nIterations          100 \
	history              15 \
	knormThreshold       0 \
	energyDiffThreshold  0 \
	nEnergyDiff          2 \
	alphaTstart          1 \
	alphaTmin            1e-10 \
	updateTestStepSize   yes \
	alphaTreduceFactor   0.1 \
	alphaTincreaseFactor 3 \
	nAlphaAdjustMax      3 \
	wolfeEnergy          0.0001 \
	wolfeGradient        0.9 \
	fdTest               no
fluid-solvent H2O 55.338 ScalarEOS \
	epsBulk 78.4 \
	pMol 0.92466 \
	epsInf 1.77 \
	Pvap 1.06736e-10 \
	sigmaBulk 4.62e-05 \
	Rvdw 2.61727 \
	Res 1.42 \
	tauNuc 343133 \
	poleEl 15 7 1
forces-output-coords Positions
ion Na   0.000000000000000   0.000000000000000   0.000000000000000 0
ion-species SG15/$ID_ONCV_PBE.upf
ion-width 0
ionic-minimize  \
	dirUpdateScheme      L-BFGS \
	linminMethod         DirUpdateRecommended \
	nIterations          0 \
	history              15 \
	knormThreshold       0.0001 \
	energyDiffThreshold  1e-06 \
	nEnergyDiff          2 \
	alphaTstart          1 \
	alphaTmin            1e-10 \
	updateTestStepSize   yes \
	alphaTreduceFactor   0.1 \
	alphaTincreaseFactor 3 \
	nAlphaAdjustMax      3 \
	wolfeEnergy          0.0001 \
	wolfeGradient        0.9 \
	fdTest               no
kpoint   0.000000000000   0.000000000000   0.000000000000  1.00000000000000
kpoint-folding 12 12 1 
latt-move-scale 1 1 1
latt-scale 3 3 1 
lattice  \
	   4.727486978767153   -2.363743489383575    0.000000000000000  \
	  -0.000000000000000    4.094123819672498    0.000000000000000  \
	   0.000000000000000    0.000000000000000   40.000000000000000 
lattice-minimize  \
	dirUpdateScheme      L-BFGS \
	linminMethod         DirUpdateRecommended \
	nIterations          0 \
	history              15 \
	knormThreshold       0 \
	energyDiffThreshold  1e-06 \
	nEnergyDiff          2 \
	alphaTstart          1 \
	alphaTmin            1e-10 \
	updateTestStepSize   yes \
	alphaTreduceFactor   0.1 \
	alphaTincreaseFactor 3 \
	nAlphaAdjustMax      3 \
	wolfeEnergy          0.0001 \
	wolfeGradient        0.9 \
	fdTest               no
lcao-params -1 1e-06 1e-05
pcm-variant GLSSA13
spintype z-spin
subspace-rotation-factor 1 yes
symmetries automatic
symmetry-threshold 0.0001



---------- Setting up symmetries ----------

Found 24 point-group symmetries of the bravais lattice
Found 24 space-group symmetries with basis
Applied RMS atom displacement 0 bohrs to make symmetries exact.

---------- Initializing the Grid ----------
R = 
[      14.1825     -7.09123            0  ]
[            0      12.2824            0  ]
[            0            0           40  ]
unit cell volume = 6967.77
G =
[   0.443025   0.255781         -0  ]
[          0   0.511561         -0  ]
[         -0         -0    0.15708  ]
Minimum fftbox size, Smin = [  60  60  164  ]
Chosen fftbox size, S = [  60  60  168  ]

---------- Exchange Correlation functional ----------
Initalized PBE GGA exchange.
Initalized PBE GGA correlation.

---------- Setting up pseudopotentials ----------
Width of ionic core gaussian charges (only for fluid interactions / plotting) set to 0

Reading pseudopotential file '/home/gridsan/aligho/DFT/build-Nov24/pseudopotentials/SG15/Na_ONCV_PBE.upf':
  'Na' pseudopotential, 'PBE' functional
  Generated using ONCVPSP code by D. R. Hamann
  Author: Martin Schlipf and Francois Gygi  Date: 150915.
  9 valence electrons, 3 orbitals, 4 projectors, 1992 radial grid points, with lMax = 1
  Transforming local potential to a uniform radial grid of dG=0.02 with 1489 points.
  Transforming nonlocal projectors to a uniform radial grid of dG=0.02 with 432 points.
    2S    l: 0   occupation:  2.0   eigenvalue: -2.085640
    2P    l: 1   occupation:  6.0   eigenvalue: -1.053708
    3S    l: 0   occupation:  1.0   eigenvalue: -0.100838
  Transforming atomic orbitals to a uniform radial grid of dG=0.02 with 432 points.
  Core radius for overlap checks: 2.01 bohrs.
  Reading pulay file /home/gridsan/aligho/DFT/build-Nov24/pseudopotentials/SG15/Na_ONCV_PBE.pulay ... using dE_dnG = -2.946487e-03 computed for Ecut = 20.

Initialized 1 species with 1 total atoms.

Folded 1 k-points by 12x12x1 to 144 k-points.

---------- Setting up k-points, bands, fillings ----------
Reduced to 19 k-points under symmetry. 
Computing the number of bands and number of electrons
Calculating initial fillings.
nElectrons:   9.000000   nBands: 6   nStates: 38

----- Setting up reduced wavefunction bases (one per k-point) -----
average nbasis = 29766.104 , ideal nbasis = 29766.845

---------- Setting up coulomb interaction ----------
Initialized slab truncation along lattice direction 001

---------- Setting up 2D ewald sum ----------
Optimum gaussian width for ewald sums = 7.873530 bohr.
Real space sums over 289 unit cells with max indices [  8  8  0  ]
Reciprocal space sums over 81 terms with max indices [  4  4  0  ]

---------- Allocating electronic variables ----------
Initializing wave functions:  linear combination of atomic orbitals
Note: number of bands (6) exceeds available atomic orbitals (5)
Na pseudo-atom occupations:   s ( 2 1 )  p ( 6 )
[d-16-1-2:19895] 18 more processes have sent help message help-mpi-common-cuda.txt / dlopen failed
[d-16-1-2:19895] Set MCA parameter "orte_base_help_aggregate" to 0 to see all help / error messages
[d-16-1-2:19895] 18 more processes have sent help message help-mpi-btl-openib-cpc-base.txt / no cpcs for port
	FillingsUpdate:  mu: -0.102486388  nElectrons: 9.000000  magneticMoment: [ Abs: 0.16000  Tot: +0.16000 ]
LCAOMinimize: Iter:   0  F: -42.5529265571784165  |grad|_K:  8.736e-06  alpha:  1.000e+00
	FillingsUpdate:  mu: -0.102484488  nElectrons: 9.000000  magneticMoment: [ Abs: 0.16000  Tot: +0.16000 ]
LCAOMinimize: Iter:   1  F: -42.5529266090231602  |grad|_K:  4.859e-08  alpha:  9.933e-01  linmin: -7.313e-03  cgtest:  4.194e-01  t[s]:      8.51
LCAOMinimize: Encountered beta<0, resetting CG.
	FillingsUpdate:  mu: -0.102484484  nElectrons: 9.000000  magneticMoment: [ Abs: 0.16000  Tot: +0.16000 ]
LCAOMinimize: Iter:   2  F: -42.5529266090249862  |grad|_K:  2.395e-09  alpha:  9.502e-01  linmin: -2.835e-02  cgtest:  9.979e-01  t[s]:     10.88
LCAOMinimize: Encountered beta<0, resetting CG.
LCAOMinimize: Converged (|Delta F|<1.000000e-06 for 2 iters).


---- Citations for features of the code used in this run ----

   Software package:
      R. Sundararaman, K. Letchworth-Weaver, K.A. Schwarz, D. Gunceler, Y. Ozhabes and T.A. Arias, 'JDFTx: software for joint density-functional theory', SoftwareX 6, 278 (2017)

   gga-PBE exchange-correlation functional:
      J.P. Perdew, K. Burke and M. Ernzerhof, Phys. Rev. Lett. 77, 3865 (1996)

   Pseudopotentials:
      M Schlipf and F Gygi, Comput. Phys. Commun. 196, 36 (2015)

   Truncated Coulomb potentials:
      R. Sundararaman and T.A. Arias, Phys. Rev. B 87, 165122 (2013)

This list may not be complete. Please suggest additional citations or
report any other bugs at https://github.com/shankar1729/jdftx/issues

Initialization completed successfully at t[s]:     10.98


-------- Electronic minimization -----------
Will mix electronic density at each iteration.
	FillingsUpdate:  mu: -0.102484484  nElectrons: 9.000000  magneticMoment: [ Abs: 0.16000  Tot: +0.16000 ]
	FillingsUpdate:  mu: -0.102844800  nElectrons: 9.000000  magneticMoment: [ Abs: 0.16000  Tot: +0.16000 ]
SCF: Cycle:  0   F: -42.553278183629750   dF: -3.516e-04   |Residual|: 2.120e-03   |deigs|: 1.739e-01  t[s]:     15.36
	FillingsUpdate:  mu: -0.102979042  nElectrons: 9.000000  magneticMoment: [ Abs: 0.16026  Tot: +0.16000 ]
SCF: Cycle:  1   F: -42.553284344204947   dF: -6.161e-06   |Residual|: 1.323e-03   |deigs|: 5.216e-03  t[s]:     18.77
	FillingsUpdate:  mu: -0.103209780  nElectrons: 9.000000  magneticMoment: [ Abs: 0.16021  Tot: +0.16000 ]
SCF: Cycle:  2   F: -42.553287543315164   dF: -3.199e-06   |Residual|: 7.512e-04   |deigs|: 2.748e-03  t[s]:     22.28
	FillingsUpdate:  mu: -0.103324071  nElectrons: 9.000000  magneticMoment: [ Abs: 0.16035  Tot: +0.16000 ]
SCF: Cycle:  3   F: -42.553289147787552   dF: -1.604e-06   |Residual|: 5.635e-04   |deigs|: 1.352e-03  t[s]:     25.81
	FillingsUpdate:  mu: -0.103583905  nElectrons: 9.000000  magneticMoment: [ Abs: 0.16024  Tot: +0.16000 ]
SCF: Cycle:  4   F: -42.553291882032291   dF: -2.734e-06   |Residual|: 2.580e-04   |deigs|: 1.598e-03  t[s]:     29.39
	FillingsUpdate:  mu: -0.103609955  nElectrons: 9.000000  magneticMoment: [ Abs: 0.16034  Tot: +0.16000 ]
SCF: Cycle:  5   F: -42.553292249162652   dF: -3.671e-07   |Residual|: 1.633e-04   |deigs|: 1.212e-03  t[s]:     32.97
	FillingsUpdate:  mu: -0.103591814  nElectrons: 9.000000  magneticMoment: [ Abs: 0.16025  Tot: +0.16000 ]
SCF: Cycle:  6   F: -42.553292617665278   dF: -3.685e-07   |Residual|: 1.060e-04   |deigs|: 1.360e-03  t[s]:     36.64
	FillingsUpdate:  mu: -0.103570792  nElectrons: 9.000000  magneticMoment: [ Abs: 0.16030  Tot: +0.16000 ]
SCF: Cycle:  7   F: -42.553292704591286   dF: -8.693e-08   |Residual|: 7.274e-05   |deigs|: 1.312e-03  t[s]:     40.36
	FillingsUpdate:  mu: -0.103517086  nElectrons: 9.000000  magneticMoment: [ Abs: 0.16026  Tot: +0.16000 ]
SCF: Cycle:  8   F: -42.553292756350928   dF: -5.176e-08   |Residual|: 5.941e-05   |deigs|: 3.708e-04  t[s]:     44.22
	FillingsUpdate:  mu: -0.103497565  nElectrons: 9.000000  magneticMoment: [ Abs: 0.16028  Tot: +0.16000 ]
SCF: Cycle:  9   F: -42.553292760603448   dF: -4.253e-09   |Residual|: 4.595e-05   |deigs|: 2.145e-05  t[s]:     48.12
	FillingsUpdate:  mu: -0.103439162  nElectrons: 9.000000  magneticMoment: [ Abs: 0.16032  Tot: +0.16000 ]
SCF: Cycle: 10   F: -42.553292769035224   dF: -8.432e-09   |Residual|: 5.126e-05   |deigs|: 6.479e-05  t[s]:     52.09
SCF: Converged (|Delta E|<1.000000e-08 for 2 iters).


# Ionic positions in lattice coordinates:
ion Na   0.000000000000000   0.000000000000000   0.000000000000000 0

# Forces in Lattice coordinates:
force Na  -0.000000000000000   0.000000000000000   0.000000000000000 0

# Energy components:
   Eewald =      -12.0320174002217755
       EH =       21.7052508452854980
     Eloc =      -54.7360031486727223
      Enl =      -12.9047502205615725
   Epulay =       -0.0000003132867683
      Exc =       -6.2059593774838842
       KE =       21.6201872799833268
-------------------------------------
     Etot =      -42.5532923349579022
       TS =        0.0000004340773189
-------------------------------------
        F =      -42.5532927690352238

IonicMinimize: Iter:   0  F: -42.553292769035224  |grad|_K:  0.000e+00  t[s]:     52.23
IonicMinimize: Converged (|grad|_K<1.000000e-04).

#--- Lowdin population analysis ---
# oxidation-state Na +0.005
# magnetic-moments Na +0.159

End date and time: Sat Feb  5 22:31:34 2022  (Duration: 0-0:00:52.28)
Done!
scale=4
magnetization=0.16
--------------------------------------------------------------------------
The library attempted to open the following supporting CUDA libraries,
but each of them failed.  CUDA-aware support is disabled.
libcuda.so.1: cannot open shared object file: No such file or directory
libcuda.dylib: cannot open shared object file: No such file or directory
/usr/lib64/libcuda.so.1: cannot open shared object file: No such file or directory
/usr/lib64/libcuda.dylib: cannot open shared object file: No such file or directory
If you are not interested in CUDA-aware support, then run with
--mca opal_warn_on_missing_libcuda 0 to suppress this message.  If you are interested
in CUDA-aware support, then try setting LD_LIBRARY_PATH to the location
of libcuda.so.1 to get passed this issue.
--------------------------------------------------------------------------
--------------------------------------------------------------------------
No OpenFabrics connection schemes reported that they were able to be
used on a specific port.  As such, the openib BTL (OpenFabrics
support) will be disabled for this port.

  Local host:           d-16-1-2
  Local device:         mlx5_1
  Local port:           1
  CPCs attempted:       rdmacm, udcm
--------------------------------------------------------------------------

*************** JDFTx 1.6.0 (git hash 42ebbcc2) ***************

Start date and time: Sat Feb  5 22:31:35 2022
Executable jdftx with command-line: -i Alkali.in
Running on hosts (process indices):  d-16-1-2 (0-18)
Divided in process groups (process indices):  0 (0)  1 (1)  2 (2)  3 (3)  4 (4)  5 (5)  6 (6)  7 (7)  8 (8)  9 (9)  10 (10)  11 (11)  12 (12)  13 (13)  14 (14)  15 (15)  16 (16)  17 (17)  18 (18)
Resource initialization completed at t[s]:      0.00
Run totals: 19 processes, 48 threads, 0 GPUs


Input parsed successfully to the following command list (including defaults):

basis kpoint-dependent
coords-type Lattice
core-overlap-check vector
coulomb-interaction Slab 001
davidson-band-ratio 1.1
dump End None
dump-name $INPUT.$VAR
elec-cutoff 20
elec-eigen-algo Davidson
elec-ex-corr gga-PBE
elec-initial-magnetization 0.160000 yes
elec-smearing Fermi 1e-05
electronic-minimize  \
	dirUpdateScheme      FletcherReeves \
	linminMethod         DirUpdateRecommended \
	nIterations          100 \
	history              15 \
	knormThreshold       0 \
	energyDiffThreshold  1e-08 \
	nEnergyDiff          2 \
	alphaTstart          1 \
	alphaTmin            1e-10 \
	updateTestStepSize   yes \
	alphaTreduceFactor   0.1 \
	alphaTincreaseFactor 3 \
	nAlphaAdjustMax      3 \
	wolfeEnergy          0.0001 \
	wolfeGradient        0.9 \
	fdTest               no
electronic-scf  \
	nIterations	10000 \
	energyDiffThreshold	1e-08 \
	residualThreshold	1e-07 \
	mixFraction	0.5 \
	qMetric	0.8 \
	history	10 \
	nEigSteps	2 \
	eigDiffThreshold	1e-08 \
	mixedVariable	Density \
	qKerker	0.8 \
	qKappa	-1 \
	verbose	no \
	mixFractionMag	1.5
exchange-regularization WignerSeitzTruncated
fluid None
fluid-ex-corr (null) lda-PZ
fluid-gummel-loop 10 1.000000e-05
fluid-minimize  \
	dirUpdateScheme      PolakRibiere \
	linminMethod         DirUpdateRecommended \
	nIterations          100 \
	history              15 \
	knormThreshold       0 \
	energyDiffThreshold  0 \
	nEnergyDiff          2 \
	alphaTstart          1 \
	alphaTmin            1e-10 \
	updateTestStepSize   yes \
	alphaTreduceFactor   0.1 \
	alphaTincreaseFactor 3 \
	nAlphaAdjustMax      3 \
	wolfeEnergy          0.0001 \
	wolfeGradient        0.9 \
	fdTest               no
fluid-solvent H2O 55.338 ScalarEOS \
	epsBulk 78.4 \
	pMol 0.92466 \
	epsInf 1.77 \
	Pvap 1.06736e-10 \
	sigmaBulk 4.62e-05 \
	Rvdw 2.61727 \
	Res 1.42 \
	tauNuc 343133 \
	poleEl 15 7 1
forces-output-coords Positions
ion Na   0.000000000000000   0.000000000000000   0.000000000000000 0
ion-species SG15/$ID_ONCV_PBE.upf
ion-width 0
ionic-minimize  \
	dirUpdateScheme      L-BFGS \
	linminMethod         DirUpdateRecommended \
	nIterations          0 \
	history              15 \
	knormThreshold       0.0001 \
	energyDiffThreshold  1e-06 \
	nEnergyDiff          2 \
	alphaTstart          1 \
	alphaTmin            1e-10 \
	updateTestStepSize   yes \
	alphaTreduceFactor   0.1 \
	alphaTincreaseFactor 3 \
	nAlphaAdjustMax      3 \
	wolfeEnergy          0.0001 \
	wolfeGradient        0.9 \
	fdTest               no
kpoint   0.000000000000   0.000000000000   0.000000000000  1.00000000000000
kpoint-folding 12 12 1 
latt-move-scale 1 1 1
latt-scale 4 4 1 
lattice  \
	   4.727486978767153   -2.363743489383575    0.000000000000000  \
	  -0.000000000000000    4.094123819672498    0.000000000000000  \
	   0.000000000000000    0.000000000000000   40.000000000000000 
lattice-minimize  \
	dirUpdateScheme      L-BFGS \
	linminMethod         DirUpdateRecommended \
	nIterations          0 \
	history              15 \
	knormThreshold       0 \
	energyDiffThreshold  1e-06 \
	nEnergyDiff          2 \
	alphaTstart          1 \
	alphaTmin            1e-10 \
	updateTestStepSize   yes \
	alphaTreduceFactor   0.1 \
	alphaTincreaseFactor 3 \
	nAlphaAdjustMax      3 \
	wolfeEnergy          0.0001 \
	wolfeGradient        0.9 \
	fdTest               no
lcao-params -1 1e-06 1e-05
pcm-variant GLSSA13
spintype z-spin
subspace-rotation-factor 1 yes
symmetries automatic
symmetry-threshold 0.0001



---------- Setting up symmetries ----------

Found 24 point-group symmetries of the bravais lattice
Found 24 space-group symmetries with basis
Applied RMS atom displacement 0 bohrs to make symmetries exact.

---------- Initializing the Grid ----------
R = 
[      18.9099     -9.45497            0  ]
[            0      16.3765            0  ]
[            0            0           40  ]
unit cell volume = 12387.1
G =
[   0.332269   0.191835         -0  ]
[          0   0.383671         -0  ]
[         -0         -0    0.15708  ]
Minimum fftbox size, Smin = [  80  80  164  ]
Chosen fftbox size, S = [  80  80  168  ]

---------- Exchange Correlation functional ----------
Initalized PBE GGA exchange.
Initalized PBE GGA correlation.

---------- Setting up pseudopotentials ----------
Width of ionic core gaussian charges (only for fluid interactions / plotting) set to 0

Reading pseudopotential file '/home/gridsan/aligho/DFT/build-Nov24/pseudopotentials/SG15/Na_ONCV_PBE.upf':
  'Na' pseudopotential, 'PBE' functional
  Generated using ONCVPSP code by D. R. Hamann
  Author: Martin Schlipf and Francois Gygi  Date: 150915.
  9 valence electrons, 3 orbitals, 4 projectors, 1992 radial grid points, with lMax = 1
  Transforming local potential to a uniform radial grid of dG=0.02 with 1489 points.
  Transforming nonlocal projectors to a uniform radial grid of dG=0.02 with 432 points.
    2S    l: 0   occupation:  2.0   eigenvalue: -2.085640
    2P    l: 1   occupation:  6.0   eigenvalue: -1.053708
    3S    l: 0   occupation:  1.0   eigenvalue: -0.100838
  Transforming atomic orbitals to a uniform radial grid of dG=0.02 with 432 points.
  Core radius for overlap checks: 2.01 bohrs.
  Reading pulay file /home/gridsan/aligho/DFT/build-Nov24/pseudopotentials/SG15/Na_ONCV_PBE.pulay ... using dE_dnG = -2.946487e-03 computed for Ecut = 20.

Initialized 1 species with 1 total atoms.

Folded 1 k-points by 12x12x1 to 144 k-points.

---------- Setting up k-points, bands, fillings ----------
Reduced to 19 k-points under symmetry. 
Computing the number of bands and number of electrons
Calculating initial fillings.
nElectrons:   9.000000   nBands: 6   nStates: 38

----- Setting up reduced wavefunction bases (one per k-point) -----
average nbasis = 52924.021 , ideal nbasis = 52918.836

---------- Setting up coulomb interaction ----------
Initialized slab truncation along lattice direction 001

---------- Setting up 2D ewald sum ----------
Optimum gaussian width for ewald sums = 10.498040 bohr.
Real space sums over 289 unit cells with max indices [  8  8  0  ]
Reciprocal space sums over 81 terms with max indices [  4  4  0  ]

---------- Allocating electronic variables ----------
Initializing wave functions:  linear combination of atomic orbitals
Note: number of bands (6) exceeds available atomic orbitals (5)
Na pseudo-atom occupations:   s ( 2 1 )  p ( 6 )
[d-16-1-2:48332] 18 more processes have sent help message help-mpi-common-cuda.txt / dlopen failed
[d-16-1-2:48332] Set MCA parameter "orte_base_help_aggregate" to 0 to see all help / error messages
[d-16-1-2:48332] 18 more processes have sent help message help-mpi-btl-openib-cpc-base.txt / no cpcs for port
	FillingsUpdate:  mu: -0.101199512  nElectrons: 9.000000  magneticMoment: [ Abs: 0.16000  Tot: +0.16000 ]
LCAOMinimize: Iter:   0  F: -42.5499406468465367  |grad|_K:  1.209e-06  alpha:  1.000e+00
	FillingsUpdate:  mu: -0.101199287  nElectrons: 9.000000  magneticMoment: [ Abs: 0.16000  Tot: +0.16000 ]
LCAOMinimize: Iter:   1  F: -42.5499406478392004  |grad|_K:  5.129e-09  alpha:  9.936e-01  linmin: -1.531e-03  cgtest:  1.099e-01  t[s]:     14.79
LCAOMinimize: Encountered beta<0, resetting CG.
LCAOMinimize: 	Wrong curvature in test step, increasing alphaT to 2.980893e+00.
	FillingsUpdate:  mu: -0.101199286  nElectrons: 9.000000  magneticMoment: [ Abs: 0.16000  Tot: +0.16000 ]
LCAOMinimize: Iter:   2  F: -42.5499406478395983  |grad|_K:  3.026e-11  alpha: -4.902e-02  linmin: -1.077e-02  cgtest:  7.671e-01  t[s]:     18.75
LCAOMinimize: Encountered beta<0, resetting CG.
LCAOMinimize: Converged (|Delta F|<1.000000e-06 for 2 iters).


---- Citations for features of the code used in this run ----

   Software package:
      R. Sundararaman, K. Letchworth-Weaver, K.A. Schwarz, D. Gunceler, Y. Ozhabes and T.A. Arias, 'JDFTx: software for joint density-functional theory', SoftwareX 6, 278 (2017)

   gga-PBE exchange-correlation functional:
      J.P. Perdew, K. Burke and M. Ernzerhof, Phys. Rev. Lett. 77, 3865 (1996)

   Pseudopotentials:
      M Schlipf and F Gygi, Comput. Phys. Commun. 196, 36 (2015)

   Truncated Coulomb potentials:
      R. Sundararaman and T.A. Arias, Phys. Rev. B 87, 165122 (2013)

This list may not be complete. Please suggest additional citations or
report any other bugs at https://github.com/shankar1729/jdftx/issues

Initialization completed successfully at t[s]:     18.91


-------- Electronic minimization -----------
Will mix electronic density at each iteration.
	FillingsUpdate:  mu: -0.101199286  nElectrons: 9.000000  magneticMoment: [ Abs: 0.16000  Tot: +0.16000 ]
	FillingsUpdate:  mu: -0.101215995  nElectrons: 9.000000  magneticMoment: [ Abs: 0.16000  Tot: +0.16000 ]
SCF: Cycle:  0   F: -42.549965586810195   dF: -2.494e-05   |Residual|: 1.820e-03   |deigs|: 1.721e-01  t[s]:     26.44
	FillingsUpdate:  mu: -0.101242225  nElectrons: 9.000000  magneticMoment: [ Abs: 0.16029  Tot: +0.16000 ]
SCF: Cycle:  1   F: -42.549965964210308   dF: -3.774e-07   |Residual|: 8.404e-04   |deigs|: 8.773e-03  t[s]:     32.36
	FillingsUpdate:  mu: -0.101282622  nElectrons: 9.000000  magneticMoment: [ Abs: 0.16022  Tot: +0.16000 ]
SCF: Cycle:  2   F: -42.549966102477043   dF: -1.383e-07   |Residual|: 1.656e-04   |deigs|: 1.586e-03  t[s]:     38.31
	FillingsUpdate:  mu: -0.101293290  nElectrons: 9.000000  magneticMoment: [ Abs: 0.16027  Tot: +0.16000 ]
SCF: Cycle:  3   F: -42.549966112747761   dF: -1.027e-08   |Residual|: 1.024e-04   |deigs|: 5.215e-04  t[s]:     44.40
	FillingsUpdate:  mu: -0.101316509  nElectrons: 9.000000  magneticMoment: [ Abs: 0.16023  Tot: +0.16000 ]
SCF: Cycle:  4   F: -42.549966124075922   dF: -1.133e-08   |Residual|: 7.874e-05   |deigs|: 2.825e-04  t[s]:     50.61
	FillingsUpdate:  mu: -0.101342581  nElectrons: 9.000000  magneticMoment: [ Abs: 0.16026  Tot: +0.16000 ]
SCF: Cycle:  5   F: -42.549966135854746   dF: -1.178e-08   |Residual|: 5.640e-05   |deigs|: 1.589e-04  t[s]:     56.91
	FillingsUpdate:  mu: -0.101367489  nElectrons: 9.000000  magneticMoment: [ Abs: 0.16024  Tot: +0.16000 ]
SCF: Cycle:  6   F: -42.549966146714169   dF: -1.086e-08   |Residual|: 4.991e-05   |deigs|: 2.573e-04  t[s]:     63.32
	FillingsUpdate:  mu: -0.101378949  nElectrons: 9.000000  magneticMoment: [ Abs: 0.16027  Tot: +0.16000 ]
SCF: Cycle:  7   F: -42.549966150621820   dF: -3.908e-09   |Residual|: 2.285e-05   |deigs|: 3.134e-04  t[s]:     69.92
	FillingsUpdate:  mu: -0.101375187  nElectrons: 9.000000  magneticMoment: [ Abs: 0.16025  Tot: +0.16000 ]
SCF: Cycle:  8   F: -42.549966152961083   dF: -2.339e-09   |Residual|: 2.022e-05   |deigs|: 2.519e-04  t[s]:     76.60
SCF: Converged (|Delta E|<1.000000e-08 for 2 iters).


# Ionic positions in lattice coordinates:
ion Na   0.000000000000000   0.000000000000000   0.000000000000000 0

# Forces in Lattice coordinates:
force Na   0.000000000000000  -0.000000000000000   0.000000000000000 0

# Energy components:
   Eewald =       -9.0240130501663280
       EH =       24.7636633283258369
     Eloc =      -60.8070659457165377
      Enl =      -12.9026122044347229
   Epulay =        0.0000012333957556
      Exc =       -6.2095307919074116
       KE =       21.6295917149840022
-------------------------------------
     Etot =      -42.5499657155194058
       TS =        0.0000004374416747
-------------------------------------
        F =      -42.5499661529610833

IonicMinimize: Iter:   0  F: -42.549966152961083  |grad|_K:  0.000e+00  t[s]:     76.84
IonicMinimize: Converged (|grad|_K<1.000000e-04).

#--- Lowdin population analysis ---
# oxidation-state Na +0.000
# magnetic-moments Na +0.160

End date and time: Sat Feb  5 22:32:52 2022  (Duration: 0-0:01:16.92)
Done!
