The alkali metal is Na
scale=2
magnetization=0.22
--------------------------------------------------------------------------
The library attempted to open the following supporting CUDA libraries,
but each of them failed.  CUDA-aware support is disabled.
libcuda.so.1: cannot open shared object file: No such file or directory
libcuda.dylib: cannot open shared object file: No such file or directory
/usr/lib64/libcuda.so.1: cannot open shared object file: No such file or directory
/usr/lib64/libcuda.dylib: cannot open shared object file: No such file or directory
If you are not interested in CUDA-aware support, then run with
--mca opal_warn_on_missing_libcuda 0 to suppress this message.  If you are interested
in CUDA-aware support, then try setting LD_LIBRARY_PATH to the location
of libcuda.so.1 to get passed this issue.
--------------------------------------------------------------------------
--------------------------------------------------------------------------
No OpenFabrics connection schemes reported that they were able to be
used on a specific port.  As such, the openib BTL (OpenFabrics
support) will be disabled for this port.

  Local host:           d-3-11-1
  Local device:         mlx5_1
  Local port:           1
  CPCs attempted:       rdmacm, udcm
--------------------------------------------------------------------------

*************** JDFTx 1.6.0 (git hash 42ebbcc2) ***************

Start date and time: Sat Feb  5 22:30:34 2022
Executable jdftx with command-line: -i Alkali.in
Running on hosts (process indices):  d-3-11-1 (0-18)
Divided in process groups (process indices):  0 (0)  1 (1)  2 (2)  3 (3)  4 (4)  5 (5)  6 (6)  7 (7)  8 (8)  9 (9)  10 (10)  11 (11)  12 (12)  13 (13)  14 (14)  15 (15)  16 (16)  17 (17)  18 (18)
Resource initialization completed at t[s]:      0.00
Run totals: 19 processes, 48 threads, 0 GPUs


Input parsed successfully to the following command list (including defaults):

basis kpoint-dependent
coords-type Lattice
core-overlap-check vector
coulomb-interaction Slab 001
davidson-band-ratio 1.1
dump End None
dump-name $INPUT.$VAR
elec-cutoff 20
elec-eigen-algo Davidson
elec-ex-corr gga-PBE
elec-initial-magnetization 0.220000 yes
elec-smearing Fermi 1e-05
electronic-minimize  \
	dirUpdateScheme      FletcherReeves \
	linminMethod         DirUpdateRecommended \
	nIterations          100 \
	history              15 \
	knormThreshold       0 \
	energyDiffThreshold  1e-08 \
	nEnergyDiff          2 \
	alphaTstart          1 \
	alphaTmin            1e-10 \
	updateTestStepSize   yes \
	alphaTreduceFactor   0.1 \
	alphaTincreaseFactor 3 \
	nAlphaAdjustMax      3 \
	wolfeEnergy          0.0001 \
	wolfeGradient        0.9 \
	fdTest               no
electronic-scf  \
	nIterations	10000 \
	energyDiffThreshold	1e-08 \
	residualThreshold	1e-07 \
	mixFraction	0.5 \
	qMetric	0.8 \
	history	10 \
	nEigSteps	2 \
	eigDiffThreshold	1e-08 \
	mixedVariable	Density \
	qKerker	0.8 \
	qKappa	-1 \
	verbose	no \
	mixFractionMag	1.5
exchange-regularization WignerSeitzTruncated
fluid None
fluid-ex-corr (null) lda-PZ
fluid-gummel-loop 10 1.000000e-05
fluid-minimize  \
	dirUpdateScheme      PolakRibiere \
	linminMethod         DirUpdateRecommended \
	nIterations          100 \
	history              15 \
	knormThreshold       0 \
	energyDiffThreshold  0 \
	nEnergyDiff          2 \
	alphaTstart          1 \
	alphaTmin            1e-10 \
	updateTestStepSize   yes \
	alphaTreduceFactor   0.1 \
	alphaTincreaseFactor 3 \
	nAlphaAdjustMax      3 \
	wolfeEnergy          0.0001 \
	wolfeGradient        0.9 \
	fdTest               no
fluid-solvent H2O 55.338 ScalarEOS \
	epsBulk 78.4 \
	pMol 0.92466 \
	epsInf 1.77 \
	Pvap 1.06736e-10 \
	sigmaBulk 4.62e-05 \
	Rvdw 2.61727 \
	Res 1.42 \
	tauNuc 343133 \
	poleEl 15 7 1
forces-output-coords Positions
ion Na   0.000000000000000   0.000000000000000   0.000000000000000 0
ion-species SG15/$ID_ONCV_PBE.upf
ion-width 0
ionic-minimize  \
	dirUpdateScheme      L-BFGS \
	linminMethod         DirUpdateRecommended \
	nIterations          0 \
	history              15 \
	knormThreshold       0.0001 \
	energyDiffThreshold  1e-06 \
	nEnergyDiff          2 \
	alphaTstart          1 \
	alphaTmin            1e-10 \
	updateTestStepSize   yes \
	alphaTreduceFactor   0.1 \
	alphaTincreaseFactor 3 \
	nAlphaAdjustMax      3 \
	wolfeEnergy          0.0001 \
	wolfeGradient        0.9 \
	fdTest               no
kpoint   0.000000000000   0.000000000000   0.000000000000  1.00000000000000
kpoint-folding 12 12 1 
latt-move-scale 1 1 1
latt-scale 2 2 1 
lattice  \
	   4.727486978767153   -2.363743489383575    0.000000000000000  \
	  -0.000000000000000    4.094123819672498    0.000000000000000  \
	   0.000000000000000    0.000000000000000   40.000000000000000 
lattice-minimize  \
	dirUpdateScheme      L-BFGS \
	linminMethod         DirUpdateRecommended \
	nIterations          0 \
	history              15 \
	knormThreshold       0 \
	energyDiffThreshold  1e-06 \
	nEnergyDiff          2 \
	alphaTstart          1 \
	alphaTmin            1e-10 \
	updateTestStepSize   yes \
	alphaTreduceFactor   0.1 \
	alphaTincreaseFactor 3 \
	nAlphaAdjustMax      3 \
	wolfeEnergy          0.0001 \
	wolfeGradient        0.9 \
	fdTest               no
lcao-params -1 1e-06 1e-05
pcm-variant GLSSA13
spintype z-spin
subspace-rotation-factor 1 yes
symmetries automatic
symmetry-threshold 0.0001



---------- Setting up symmetries ----------

Found 24 point-group symmetries of the bravais lattice
Found 24 space-group symmetries with basis
Applied RMS atom displacement 0 bohrs to make symmetries exact.

---------- Initializing the Grid ----------
R = 
[      9.45497     -4.72749            0  ]
[            0      8.18825            0  ]
[            0            0           40  ]
unit cell volume = 3096.79
G =
[   0.664538   0.383671         -0  ]
[          0   0.767342         -0  ]
[         -0         -0    0.15708  ]
Minimum fftbox size, Smin = [  40  40  164  ]
Chosen fftbox size, S = [  40  40  168  ]

---------- Exchange Correlation functional ----------
Initalized PBE GGA exchange.
Initalized PBE GGA correlation.

---------- Setting up pseudopotentials ----------
Width of ionic core gaussian charges (only for fluid interactions / plotting) set to 0

Reading pseudopotential file '/home/gridsan/aligho/DFT/build-Nov24/pseudopotentials/SG15/Na_ONCV_PBE.upf':
  'Na' pseudopotential, 'PBE' functional
  Generated using ONCVPSP code by D. R. Hamann
  Author: Martin Schlipf and Francois Gygi  Date: 150915.
  9 valence electrons, 3 orbitals, 4 projectors, 1992 radial grid points, with lMax = 1
  Transforming local potential to a uniform radial grid of dG=0.02 with 1489 points.
  Transforming nonlocal projectors to a uniform radial grid of dG=0.02 with 432 points.
    2S    l: 0   occupation:  2.0   eigenvalue: -2.085640
    2P    l: 1   occupation:  6.0   eigenvalue: -1.053708
    3S    l: 0   occupation:  1.0   eigenvalue: -0.100838
  Transforming atomic orbitals to a uniform radial grid of dG=0.02 with 432 points.
  Core radius for overlap checks: 2.01 bohrs.
  Reading pulay file /home/gridsan/aligho/DFT/build-Nov24/pseudopotentials/SG15/Na_ONCV_PBE.pulay ... using dE_dnG = -2.946487e-03 computed for Ecut = 20.

Initialized 1 species with 1 total atoms.

Folded 1 k-points by 12x12x1 to 144 k-points.

---------- Setting up k-points, bands, fillings ----------
Reduced to 19 k-points under symmetry. 
Computing the number of bands and number of electrons
Calculating initial fillings.
nElectrons:   9.000000   nBands: 6   nStates: 38

----- Setting up reduced wavefunction bases (one per k-point) -----
average nbasis = 13230.521 , ideal nbasis = 13229.709

---------- Setting up coulomb interaction ----------
Initialized slab truncation along lattice direction 001

---------- Setting up 2D ewald sum ----------
Optimum gaussian width for ewald sums = 5.249020 bohr.
Real space sums over 289 unit cells with max indices [  8  8  0  ]
Reciprocal space sums over 81 terms with max indices [  4  4  0  ]

---------- Allocating electronic variables ----------
Initializing wave functions:  linear combination of atomic orbitals
Note: number of bands (6) exceeds available atomic orbitals (5)
Na pseudo-atom occupations:   s ( 2 1 )  p ( 6 )
	FillingsUpdate:  mu: -0.104634888  nElectrons: 9.000000  magneticMoment: [ Abs: 0.22000  Tot: +0.22000 ]
LCAOMinimize: Iter:   0  F: -42.5684230858353274  |grad|_K:  3.211e-05  alpha:  1.000e+00
	FillingsUpdate:  mu: -0.104634218  nElectrons: 9.000000  magneticMoment: [ Abs: 0.22000  Tot: +0.22000 ]
LCAOMinimize: Iter:   1  F: -42.5684237829115446  |grad|_K:  3.138e-07  alpha:  9.884e-01  linmin: -1.752e-02  cgtest:  6.878e-01  t[s]:      4.66
LCAOMinimize: Encountered beta<0, resetting CG.
[d-3-11-1:44757] 18 more processes have sent help message help-mpi-common-cuda.txt / dlopen failed
[d-3-11-1:44757] Set MCA parameter "orte_base_help_aggregate" to 0 to see all help / error messages
[d-3-11-1:44757] 18 more processes have sent help message help-mpi-btl-openib-cpc-base.txt / no cpcs for port
	FillingsUpdate:  mu: -0.104634282  nElectrons: 9.000000  magneticMoment: [ Abs: 0.22000  Tot: +0.22000 ]
LCAOMinimize: Iter:   2  F: -42.5684237829781154  |grad|_K:  4.618e-09  alpha:  9.873e-01  linmin: -3.933e-02  cgtest:  9.962e-01  t[s]:      5.88
LCAOMinimize: Encountered beta<0, resetting CG.
LCAOMinimize: Converged (|Delta F|<1.000000e-06 for 2 iters).


---- Citations for features of the code used in this run ----

   Software package:
      R. Sundararaman, K. Letchworth-Weaver, K.A. Schwarz, D. Gunceler, Y. Ozhabes and T.A. Arias, 'JDFTx: software for joint density-functional theory', SoftwareX 6, 278 (2017)

   gga-PBE exchange-correlation functional:
      J.P. Perdew, K. Burke and M. Ernzerhof, Phys. Rev. Lett. 77, 3865 (1996)

   Pseudopotentials:
      M Schlipf and F Gygi, Comput. Phys. Commun. 196, 36 (2015)

   Truncated Coulomb potentials:
      R. Sundararaman and T.A. Arias, Phys. Rev. B 87, 165122 (2013)

This list may not be complete. Please suggest additional citations or
report any other bugs at https://github.com/shankar1729/jdftx/issues

Initialization completed successfully at t[s]:      5.95


-------- Electronic minimization -----------
Will mix electronic density at each iteration.
	FillingsUpdate:  mu: -0.104634282  nElectrons: 9.000000  magneticMoment: [ Abs: 0.22000  Tot: +0.22000 ]
	FillingsUpdate:  mu: -0.111861775  nElectrons: 9.000000  magneticMoment: [ Abs: 0.22000  Tot: +0.22000 ]
SCF: Cycle:  0   F: -42.572611907836816   dF: -4.188e-03   |Residual|: 7.522e-03   |deigs|: 1.706e-01  t[s]:      8.25
	FillingsUpdate:  mu: -0.111981830  nElectrons: 9.000000  magneticMoment: [ Abs: 0.22000  Tot: +0.22000 ]
SCF: Cycle:  1   F: -42.572686136768020   dF: -7.423e-05   |Residual|: 5.284e-03   |deigs|: 8.844e-03  t[s]:     10.11
	FillingsUpdate:  mu: -0.111770610  nElectrons: 9.000000  magneticMoment: [ Abs: 0.22127  Tot: +0.22000 ]
SCF: Cycle:  2   F: -42.572704523409989   dF: -1.839e-05   |Residual|: 2.613e-03   |deigs|: 6.407e-03  t[s]:     11.92
	FillingsUpdate:  mu: -0.111436133  nElectrons: 9.000000  magneticMoment: [ Abs: 0.22001  Tot: +0.22000 ]
SCF: Cycle:  3   F: -42.572709458906672   dF: -4.935e-06   |Residual|: 1.500e-03   |deigs|: 5.120e-03  t[s]:     13.67
	FillingsUpdate:  mu: -0.110912942  nElectrons: 9.000000  magneticMoment: [ Abs: 0.22002  Tot: +0.22000 ]
SCF: Cycle:  4   F: -42.572712953218641   dF: -3.494e-06   |Residual|: 8.585e-04   |deigs|: 3.163e-03  t[s]:     15.43
	FillingsUpdate:  mu: -0.110492677  nElectrons: 9.000000  magneticMoment: [ Abs: 0.22012  Tot: +0.22000 ]
SCF: Cycle:  5   F: -42.572713372604362   dF: -4.194e-07   |Residual|: 7.015e-04   |deigs|: 1.616e-03  t[s]:     17.26
	FillingsUpdate:  mu: -0.109553079  nElectrons: 9.000000  magneticMoment: [ Abs: 0.22118  Tot: +0.22000 ]
SCF: Cycle:  6   F: -42.572713363855179   dF: +8.749e-09   |Residual|: 5.085e-04   |deigs|: 1.585e-03  t[s]:     19.19
	FillingsUpdate:  mu: -0.108859643  nElectrons: 9.000000  magneticMoment: [ Abs: 0.22143  Tot: +0.22000 ]
SCF: Cycle:  7   F: -42.572712692501781   dF: +6.714e-07   |Residual|: 3.874e-04   |deigs|: 1.106e-03  t[s]:     21.11
	FillingsUpdate:  mu: -0.108292619  nElectrons: 9.000000  magneticMoment: [ Abs: 0.22080  Tot: +0.22000 ]
SCF: Cycle:  8   F: -42.572713762335106   dF: -1.070e-06   |Residual|: 3.405e-04   |deigs|: 7.666e-04  t[s]:     23.15
	FillingsUpdate:  mu: -0.108136743  nElectrons: 9.000000  magneticMoment: [ Abs: 0.22038  Tot: +0.22000 ]
SCF: Cycle:  9   F: -42.572714619664566   dF: -8.573e-07   |Residual|: 2.496e-04   |deigs|: 1.602e-04  t[s]:     25.09
	FillingsUpdate:  mu: -0.107632485  nElectrons: 9.000000  magneticMoment: [ Abs: 0.22095  Tot: +0.22000 ]
SCF: Cycle: 10   F: -42.572713969986722   dF: +6.497e-07   |Residual|: 2.286e-04   |deigs|: 5.718e-04  t[s]:     27.03
	FillingsUpdate:  mu: -0.107166242  nElectrons: 9.000000  magneticMoment: [ Abs: 0.22080  Tot: +0.22000 ]
SCF: Cycle: 11   F: -42.572713121622279   dF: +8.484e-07   |Residual|: 2.108e-04   |deigs|: 4.973e-04  t[s]:     29.01
	FillingsUpdate:  mu: -0.106501171  nElectrons: 9.000000  magneticMoment: [ Abs: 0.22059  Tot: +0.22000 ]
SCF: Cycle: 12   F: -42.572714018873050   dF: -8.973e-07   |Residual|: 1.844e-04   |deigs|: 6.527e-04  t[s]:     30.95
	FillingsUpdate:  mu: -0.106134348  nElectrons: 9.000000  magneticMoment: [ Abs: 0.22119  Tot: +0.22000 ]
SCF: Cycle: 13   F: -42.572715252362222   dF: -1.233e-06   |Residual|: 1.694e-04   |deigs|: 3.654e-04  t[s]:     32.85
	FillingsUpdate:  mu: -0.105756957  nElectrons: 9.000000  magneticMoment: [ Abs: 0.22065  Tot: +0.22000 ]
SCF: Cycle: 14   F: -42.572715953761602   dF: -7.014e-07   |Residual|: 1.535e-04   |deigs|: 4.154e-04  t[s]:     34.71
	FillingsUpdate:  mu: -0.105267494  nElectrons: 9.000000  magneticMoment: [ Abs: 0.22007  Tot: +0.22000 ]
SCF: Cycle: 15   F: -42.572716399991243   dF: -4.462e-07   |Residual|: 1.392e-04   |deigs|: 5.326e-04  t[s]:     36.57
	FillingsUpdate:  mu: -0.104921907  nElectrons: 9.000000  magneticMoment: [ Abs: 0.22025  Tot: +0.22000 ]
SCF: Cycle: 16   F: -42.572716660961042   dF: -2.610e-07   |Residual|: 9.615e-05   |deigs|: 3.394e-04  t[s]:     38.45
	FillingsUpdate:  mu: -0.104695320  nElectrons: 9.000000  magneticMoment: [ Abs: 0.22015  Tot: +0.22000 ]
SCF: Cycle: 17   F: -42.572716748054269   dF: -8.709e-08   |Residual|: 5.212e-05   |deigs|: 1.973e-04  t[s]:     40.37
	FillingsUpdate:  mu: -0.104658128  nElectrons: 9.000000  magneticMoment: [ Abs: 0.22009  Tot: +0.22000 ]
SCF: Cycle: 18   F: -42.572716759638659   dF: -1.158e-08   |Residual|: 3.484e-05   |deigs|: 7.584e-04  t[s]:     42.24
	FillingsUpdate:  mu: -0.104633295  nElectrons: 9.000000  magneticMoment: [ Abs: 0.22011  Tot: +0.22000 ]
SCF: Cycle: 19   F: -42.572716770348457   dF: -1.071e-08   |Residual|: 1.794e-05   |deigs|: 1.959e-04  t[s]:     44.17
	FillingsUpdate:  mu: -0.104629108  nElectrons: 9.000000  magneticMoment: [ Abs: 0.22011  Tot: +0.22000 ]
SCF: Cycle: 20   F: -42.572716774188713   dF: -3.840e-09   |Residual|: 9.088e-06   |deigs|: 5.282e-04  t[s]:     46.06
	FillingsUpdate:  mu: -0.104625943  nElectrons: 9.000000  magneticMoment: [ Abs: 0.22008  Tot: +0.22000 ]
SCF: Cycle: 21   F: -42.572716775269114   dF: -1.080e-09   |Residual|: 5.006e-06   |deigs|: 2.341e-04  t[s]:     47.92
SCF: Converged (|Delta E|<1.000000e-08 for 2 iters).


# Ionic positions in lattice coordinates:
ion Na   0.000000000000000   0.000000000000000   0.000000000000000 0

# Forces in Lattice coordinates:
force Na   0.000000000000000   0.000000000000000   0.000000000000000 0

# Energy components:
   Eewald =      -18.0480261003326561
       EH =       15.7241455735660729
     Eloc =      -42.7356418530868964
      Enl =      -12.9130022993697473
   Epulay =        0.0000007725295140
      Exc =       -6.2162995669896475
       KE =       21.6161071912245220
-------------------------------------
     Etot =      -42.5727162824588348
       TS =        0.0000004928102820
-------------------------------------
        F =      -42.5727167752691145

IonicMinimize: Iter:   0  F: -42.572716775269114  |grad|_K:  0.000e+00  t[s]:     47.99
IonicMinimize: Converged (|grad|_K<1.000000e-04).

#--- Lowdin population analysis ---
# oxidation-state Na +0.038
# magnetic-moments Na +0.197

End date and time: Sat Feb  5 22:31:22 2022  (Duration: 0-0:00:48.02)
Done!
scale=3
magnetization=0.22
--------------------------------------------------------------------------
The library attempted to open the following supporting CUDA libraries,
but each of them failed.  CUDA-aware support is disabled.
libcuda.so.1: cannot open shared object file: No such file or directory
libcuda.dylib: cannot open shared object file: No such file or directory
/usr/lib64/libcuda.so.1: cannot open shared object file: No such file or directory
/usr/lib64/libcuda.dylib: cannot open shared object file: No such file or directory
If you are not interested in CUDA-aware support, then run with
--mca opal_warn_on_missing_libcuda 0 to suppress this message.  If you are interested
in CUDA-aware support, then try setting LD_LIBRARY_PATH to the location
of libcuda.so.1 to get passed this issue.
--------------------------------------------------------------------------
--------------------------------------------------------------------------
No OpenFabrics connection schemes reported that they were able to be
used on a specific port.  As such, the openib BTL (OpenFabrics
support) will be disabled for this port.

  Local host:           d-3-11-1
  Local device:         mlx5_1
  Local port:           1
  CPCs attempted:       rdmacm, udcm
--------------------------------------------------------------------------

*************** JDFTx 1.6.0 (git hash 42ebbcc2) ***************

Start date and time: Sat Feb  5 22:31:23 2022
Executable jdftx with command-line: -i Alkali.in
Running on hosts (process indices):  d-3-11-1 (0-18)
Divided in process groups (process indices):  0 (0)  1 (1)  2 (2)  3 (3)  4 (4)  5 (5)  6 (6)  7 (7)  8 (8)  9 (9)  10 (10)  11 (11)  12 (12)  13 (13)  14 (14)  15 (15)  16 (16)  17 (17)  18 (18)
Resource initialization completed at t[s]:      0.00
Run totals: 19 processes, 48 threads, 0 GPUs


Input parsed successfully to the following command list (including defaults):

basis kpoint-dependent
coords-type Lattice
core-overlap-check vector
coulomb-interaction Slab 001
davidson-band-ratio 1.1
dump End None
dump-name $INPUT.$VAR
elec-cutoff 20
elec-eigen-algo Davidson
elec-ex-corr gga-PBE
elec-initial-magnetization 0.220000 yes
elec-smearing Fermi 1e-05
electronic-minimize  \
	dirUpdateScheme      FletcherReeves \
	linminMethod         DirUpdateRecommended \
	nIterations          100 \
	history              15 \
	knormThreshold       0 \
	energyDiffThreshold  1e-08 \
	nEnergyDiff          2 \
	alphaTstart          1 \
	alphaTmin            1e-10 \
	updateTestStepSize   yes \
	alphaTreduceFactor   0.1 \
	alphaTincreaseFactor 3 \
	nAlphaAdjustMax      3 \
	wolfeEnergy          0.0001 \
	wolfeGradient        0.9 \
	fdTest               no
electronic-scf  \
	nIterations	10000 \
	energyDiffThreshold	1e-08 \
	residualThreshold	1e-07 \
	mixFraction	0.5 \
	qMetric	0.8 \
	history	10 \
	nEigSteps	2 \
	eigDiffThreshold	1e-08 \
	mixedVariable	Density \
	qKerker	0.8 \
	qKappa	-1 \
	verbose	no \
	mixFractionMag	1.5
exchange-regularization WignerSeitzTruncated
fluid None
fluid-ex-corr (null) lda-PZ
fluid-gummel-loop 10 1.000000e-05
fluid-minimize  \
	dirUpdateScheme      PolakRibiere \
	linminMethod         DirUpdateRecommended \
	nIterations          100 \
	history              15 \
	knormThreshold       0 \
	energyDiffThreshold  0 \
	nEnergyDiff          2 \
	alphaTstart          1 \
	alphaTmin            1e-10 \
	updateTestStepSize   yes \
	alphaTreduceFactor   0.1 \
	alphaTincreaseFactor 3 \
	nAlphaAdjustMax      3 \
	wolfeEnergy          0.0001 \
	wolfeGradient        0.9 \
	fdTest               no
fluid-solvent H2O 55.338 ScalarEOS \
	epsBulk 78.4 \
	pMol 0.92466 \
	epsInf 1.77 \
	Pvap 1.06736e-10 \
	sigmaBulk 4.62e-05 \
	Rvdw 2.61727 \
	Res 1.42 \
	tauNuc 343133 \
	poleEl 15 7 1
forces-output-coords Positions
ion Na   0.000000000000000   0.000000000000000   0.000000000000000 0
ion-species SG15/$ID_ONCV_PBE.upf
ion-width 0
ionic-minimize  \
	dirUpdateScheme      L-BFGS \
	linminMethod         DirUpdateRecommended \
	nIterations          0 \
	history              15 \
	knormThreshold       0.0001 \
	energyDiffThreshold  1e-06 \
	nEnergyDiff          2 \
	alphaTstart          1 \
	alphaTmin            1e-10 \
	updateTestStepSize   yes \
	alphaTreduceFactor   0.1 \
	alphaTincreaseFactor 3 \
	nAlphaAdjustMax      3 \
	wolfeEnergy          0.0001 \
	wolfeGradient        0.9 \
	fdTest               no
kpoint   0.000000000000   0.000000000000   0.000000000000  1.00000000000000
kpoint-folding 12 12 1 
latt-move-scale 1 1 1
latt-scale 3 3 1 
lattice  \
	   4.727486978767153   -2.363743489383575    0.000000000000000  \
	  -0.000000000000000    4.094123819672498    0.000000000000000  \
	   0.000000000000000    0.000000000000000   40.000000000000000 
lattice-minimize  \
	dirUpdateScheme      L-BFGS \
	linminMethod         DirUpdateRecommended \
	nIterations          0 \
	history              15 \
	knormThreshold       0 \
	energyDiffThreshold  1e-06 \
	nEnergyDiff          2 \
	alphaTstart          1 \
	alphaTmin            1e-10 \
	updateTestStepSize   yes \
	alphaTreduceFactor   0.1 \
	alphaTincreaseFactor 3 \
	nAlphaAdjustMax      3 \
	wolfeEnergy          0.0001 \
	wolfeGradient        0.9 \
	fdTest               no
lcao-params -1 1e-06 1e-05
pcm-variant GLSSA13
spintype z-spin
subspace-rotation-factor 1 yes
symmetries automatic
symmetry-threshold 0.0001



---------- Setting up symmetries ----------

Found 24 point-group symmetries of the bravais lattice
Found 24 space-group symmetries with basis
Applied RMS atom displacement 0 bohrs to make symmetries exact.

---------- Initializing the Grid ----------
R = 
[      14.1825     -7.09123            0  ]
[            0      12.2824            0  ]
[            0            0           40  ]
unit cell volume = 6967.77
G =
[   0.443025   0.255781         -0  ]
[          0   0.511561         -0  ]
[         -0         -0    0.15708  ]
Minimum fftbox size, Smin = [  60  60  164  ]
Chosen fftbox size, S = [  60  60  168  ]

---------- Exchange Correlation functional ----------
Initalized PBE GGA exchange.
Initalized PBE GGA correlation.

---------- Setting up pseudopotentials ----------
Width of ionic core gaussian charges (only for fluid interactions / plotting) set to 0

Reading pseudopotential file '/home/gridsan/aligho/DFT/build-Nov24/pseudopotentials/SG15/Na_ONCV_PBE.upf':
  'Na' pseudopotential, 'PBE' functional
  Generated using ONCVPSP code by D. R. Hamann
  Author: Martin Schlipf and Francois Gygi  Date: 150915.
  9 valence electrons, 3 orbitals, 4 projectors, 1992 radial grid points, with lMax = 1
  Transforming local potential to a uniform radial grid of dG=0.02 with 1489 points.
  Transforming nonlocal projectors to a uniform radial grid of dG=0.02 with 432 points.
    2S    l: 0   occupation:  2.0   eigenvalue: -2.085640
    2P    l: 1   occupation:  6.0   eigenvalue: -1.053708
    3S    l: 0   occupation:  1.0   eigenvalue: -0.100838
  Transforming atomic orbitals to a uniform radial grid of dG=0.02 with 432 points.
  Core radius for overlap checks: 2.01 bohrs.
  Reading pulay file /home/gridsan/aligho/DFT/build-Nov24/pseudopotentials/SG15/Na_ONCV_PBE.pulay ... using dE_dnG = -2.946487e-03 computed for Ecut = 20.

Initialized 1 species with 1 total atoms.

Folded 1 k-points by 12x12x1 to 144 k-points.

---------- Setting up k-points, bands, fillings ----------
Reduced to 19 k-points under symmetry. 
Computing the number of bands and number of electrons
Calculating initial fillings.
nElectrons:   9.000000   nBands: 6   nStates: 38

----- Setting up reduced wavefunction bases (one per k-point) -----
average nbasis = 29766.104 , ideal nbasis = 29766.845

---------- Setting up coulomb interaction ----------
Initialized slab truncation along lattice direction 001

---------- Setting up 2D ewald sum ----------
Optimum gaussian width for ewald sums = 7.873530 bohr.
Real space sums over 289 unit cells with max indices [  8  8  0  ]
Reciprocal space sums over 81 terms with max indices [  4  4  0  ]

---------- Allocating electronic variables ----------
Initializing wave functions:  linear combination of atomic orbitals
Note: number of bands (6) exceeds available atomic orbitals (5)
Na pseudo-atom occupations:   s ( 2 1 )  p ( 6 )
[d-3-11-1:75028] 18 more processes have sent help message help-mpi-common-cuda.txt / dlopen failed
[d-3-11-1:75028] Set MCA parameter "orte_base_help_aggregate" to 0 to see all help / error messages
[d-3-11-1:75028] 18 more processes have sent help message help-mpi-btl-openib-cpc-base.txt / no cpcs for port
	FillingsUpdate:  mu: -0.101990910  nElectrons: 9.000000  magneticMoment: [ Abs: 0.22000  Tot: +0.22000 ]
LCAOMinimize: Iter:   0  F: -42.5530185119499365  |grad|_K:  8.661e-06  alpha:  1.000e+00
	FillingsUpdate:  mu: -0.101989025  nElectrons: 9.000000  magneticMoment: [ Abs: 0.22000  Tot: +0.22000 ]
LCAOMinimize: Iter:   1  F: -42.5530185629192275  |grad|_K:  4.795e-08  alpha:  9.934e-01  linmin: -7.268e-03  cgtest:  4.112e-01  t[s]:      8.85
LCAOMinimize: Encountered beta<0, resetting CG.
	FillingsUpdate:  mu: -0.101989020  nElectrons: 9.000000  magneticMoment: [ Abs: 0.22000  Tot: +0.22000 ]
LCAOMinimize: Iter:   2  F: -42.5530185629210536  |grad|_K:  8.417e-09  alpha:  1.175e+00  linmin:  3.134e-02  cgtest: -9.997e-01  t[s]:     11.27
LCAOMinimize: Converged (|Delta F|<1.000000e-06 for 2 iters).


---- Citations for features of the code used in this run ----

   Software package:
      R. Sundararaman, K. Letchworth-Weaver, K.A. Schwarz, D. Gunceler, Y. Ozhabes and T.A. Arias, 'JDFTx: software for joint density-functional theory', SoftwareX 6, 278 (2017)

   gga-PBE exchange-correlation functional:
      J.P. Perdew, K. Burke and M. Ernzerhof, Phys. Rev. Lett. 77, 3865 (1996)

   Pseudopotentials:
      M Schlipf and F Gygi, Comput. Phys. Commun. 196, 36 (2015)

   Truncated Coulomb potentials:
      R. Sundararaman and T.A. Arias, Phys. Rev. B 87, 165122 (2013)

This list may not be complete. Please suggest additional citations or
report any other bugs at https://github.com/shankar1729/jdftx/issues

Initialization completed successfully at t[s]:     11.38


-------- Electronic minimization -----------
Will mix electronic density at each iteration.
	FillingsUpdate:  mu: -0.101989020  nElectrons: 9.000000  magneticMoment: [ Abs: 0.22000  Tot: +0.22000 ]
	FillingsUpdate:  mu: -0.102302891  nElectrons: 9.000000  magneticMoment: [ Abs: 0.22000  Tot: +0.22000 ]
SCF: Cycle:  0   F: -42.553361403692605   dF: -3.428e-04   |Residual|: 2.104e-03   |deigs|: 1.738e-01  t[s]:     15.86
	FillingsUpdate:  mu: -0.102428371  nElectrons: 9.000000  magneticMoment: [ Abs: 0.22036  Tot: +0.22000 ]
SCF: Cycle:  1   F: -42.553367578105686   dF: -6.174e-06   |Residual|: 1.285e-03   |deigs|: 5.257e-03  t[s]:     19.35
	FillingsUpdate:  mu: -0.102624685  nElectrons: 9.000000  magneticMoment: [ Abs: 0.22030  Tot: +0.22000 ]
SCF: Cycle:  2   F: -42.553370333575302   dF: -2.755e-06   |Residual|: 7.285e-04   |deigs|: 2.713e-03  t[s]:     22.87
	FillingsUpdate:  mu: -0.102735891  nElectrons: 9.000000  magneticMoment: [ Abs: 0.22044  Tot: +0.22000 ]
SCF: Cycle:  3   F: -42.553371837932481   dF: -1.504e-06   |Residual|: 5.648e-04   |deigs|: 1.524e-03  t[s]:     26.45
	FillingsUpdate:  mu: -0.102971003  nElectrons: 9.000000  magneticMoment: [ Abs: 0.22030  Tot: +0.22000 ]
SCF: Cycle:  4   F: -42.553374493160554   dF: -2.655e-06   |Residual|: 2.547e-04   |deigs|: 1.698e-03  t[s]:     30.16
	FillingsUpdate:  mu: -0.103010298  nElectrons: 9.000000  magneticMoment: [ Abs: 0.22044  Tot: +0.22000 ]
SCF: Cycle:  5   F: -42.553374941968393   dF: -4.488e-07   |Residual|: 1.623e-04   |deigs|: 1.036e-03  t[s]:     33.86
	FillingsUpdate:  mu: -0.102991881  nElectrons: 9.000000  magneticMoment: [ Abs: 0.22034  Tot: +0.22000 ]
SCF: Cycle:  6   F: -42.553375296602212   dF: -3.546e-07   |Residual|: 1.023e-04   |deigs|: 1.107e-03  t[s]:     37.62
	FillingsUpdate:  mu: -0.102971310  nElectrons: 9.000000  magneticMoment: [ Abs: 0.22040  Tot: +0.22000 ]
SCF: Cycle:  7   F: -42.553375400048196   dF: -1.034e-07   |Residual|: 7.241e-05   |deigs|: 1.061e-03  t[s]:     41.56
	FillingsUpdate:  mu: -0.102915516  nElectrons: 9.000000  magneticMoment: [ Abs: 0.22036  Tot: +0.22000 ]
SCF: Cycle:  8   F: -42.553375457730006   dF: -5.768e-08   |Residual|: 5.911e-05   |deigs|: 7.923e-04  t[s]:     45.50
	FillingsUpdate:  mu: -0.102893414  nElectrons: 9.000000  magneticMoment: [ Abs: 0.22038  Tot: +0.22000 ]
SCF: Cycle:  9   F: -42.553375461331534   dF: -3.602e-09   |Residual|: 4.543e-05   |deigs|: 7.134e-05  t[s]:     49.44
	FillingsUpdate:  mu: -0.102843580  nElectrons: 9.000000  magneticMoment: [ Abs: 0.22042  Tot: +0.22000 ]
SCF: Cycle: 10   F: -42.553375470661663   dF: -9.330e-09   |Residual|: 4.783e-05   |deigs|: 5.277e-05  t[s]:     53.49
SCF: Converged (|Delta E|<1.000000e-08 for 2 iters).


# Ionic positions in lattice coordinates:
ion Na   0.000000000000000   0.000000000000000   0.000000000000000 0

# Forces in Lattice coordinates:
force Na   0.000000000000000  -0.000000000000000   0.000000000000000 0

# Energy components:
   Eewald =      -12.0320174002217755
       EH =       21.7079628656015267
     Eloc =      -54.7389402885591494
      Enl =      -12.9047092317341683
   Epulay =       -0.0000003132867683
      Exc =       -6.2063223854633218
       KE =       21.6206517758122700
-------------------------------------
     Etot =      -42.5533749778513837
       TS =        0.0000004928102820
-------------------------------------
        F =      -42.5533754706616634

IonicMinimize: Iter:   0  F: -42.553375470661663  |grad|_K:  0.000e+00  t[s]:     53.64
IonicMinimize: Converged (|grad|_K<1.000000e-04).

#--- Lowdin population analysis ---
# oxidation-state Na +0.005
# magnetic-moments Na +0.219

End date and time: Sat Feb  5 22:32:16 2022  (Duration: 0-0:00:53.68)
Done!
scale=4
magnetization=0.22
--------------------------------------------------------------------------
The library attempted to open the following supporting CUDA libraries,
but each of them failed.  CUDA-aware support is disabled.
libcuda.so.1: cannot open shared object file: No such file or directory
libcuda.dylib: cannot open shared object file: No such file or directory
/usr/lib64/libcuda.so.1: cannot open shared object file: No such file or directory
/usr/lib64/libcuda.dylib: cannot open shared object file: No such file or directory
If you are not interested in CUDA-aware support, then run with
--mca opal_warn_on_missing_libcuda 0 to suppress this message.  If you are interested
in CUDA-aware support, then try setting LD_LIBRARY_PATH to the location
of libcuda.so.1 to get passed this issue.
--------------------------------------------------------------------------
--------------------------------------------------------------------------
No OpenFabrics connection schemes reported that they were able to be
used on a specific port.  As such, the openib BTL (OpenFabrics
support) will be disabled for this port.

  Local host:           d-3-11-1
  Local device:         mlx5_1
  Local port:           1
  CPCs attempted:       rdmacm, udcm
--------------------------------------------------------------------------

*************** JDFTx 1.6.0 (git hash 42ebbcc2) ***************

Start date and time: Sat Feb  5 22:32:17 2022
Executable jdftx with command-line: -i Alkali.in
Running on hosts (process indices):  d-3-11-1 (0-18)
Divided in process groups (process indices):  0 (0)  1 (1)  2 (2)  3 (3)  4 (4)  5 (5)  6 (6)  7 (7)  8 (8)  9 (9)  10 (10)  11 (11)  12 (12)  13 (13)  14 (14)  15 (15)  16 (16)  17 (17)  18 (18)
Resource initialization completed at t[s]:      0.00
Run totals: 19 processes, 48 threads, 0 GPUs


Input parsed successfully to the following command list (including defaults):

basis kpoint-dependent
coords-type Lattice
core-overlap-check vector
coulomb-interaction Slab 001
davidson-band-ratio 1.1
dump End None
dump-name $INPUT.$VAR
elec-cutoff 20
elec-eigen-algo Davidson
elec-ex-corr gga-PBE
elec-initial-magnetization 0.220000 yes
elec-smearing Fermi 1e-05
electronic-minimize  \
	dirUpdateScheme      FletcherReeves \
	linminMethod         DirUpdateRecommended \
	nIterations          100 \
	history              15 \
	knormThreshold       0 \
	energyDiffThreshold  1e-08 \
	nEnergyDiff          2 \
	alphaTstart          1 \
	alphaTmin            1e-10 \
	updateTestStepSize   yes \
	alphaTreduceFactor   0.1 \
	alphaTincreaseFactor 3 \
	nAlphaAdjustMax      3 \
	wolfeEnergy          0.0001 \
	wolfeGradient        0.9 \
	fdTest               no
electronic-scf  \
	nIterations	10000 \
	energyDiffThreshold	1e-08 \
	residualThreshold	1e-07 \
	mixFraction	0.5 \
	qMetric	0.8 \
	history	10 \
	nEigSteps	2 \
	eigDiffThreshold	1e-08 \
	mixedVariable	Density \
	qKerker	0.8 \
	qKappa	-1 \
	verbose	no \
	mixFractionMag	1.5
exchange-regularization WignerSeitzTruncated
fluid None
fluid-ex-corr (null) lda-PZ
fluid-gummel-loop 10 1.000000e-05
fluid-minimize  \
	dirUpdateScheme      PolakRibiere \
	linminMethod         DirUpdateRecommended \
	nIterations          100 \
	history              15 \
	knormThreshold       0 \
	energyDiffThreshold  0 \
	nEnergyDiff          2 \
	alphaTstart          1 \
	alphaTmin            1e-10 \
	updateTestStepSize   yes \
	alphaTreduceFactor   0.1 \
	alphaTincreaseFactor 3 \
	nAlphaAdjustMax      3 \
	wolfeEnergy          0.0001 \
	wolfeGradient        0.9 \
	fdTest               no
fluid-solvent H2O 55.338 ScalarEOS \
	epsBulk 78.4 \
	pMol 0.92466 \
	epsInf 1.77 \
	Pvap 1.06736e-10 \
	sigmaBulk 4.62e-05 \
	Rvdw 2.61727 \
	Res 1.42 \
	tauNuc 343133 \
	poleEl 15 7 1
forces-output-coords Positions
ion Na   0.000000000000000   0.000000000000000   0.000000000000000 0
ion-species SG15/$ID_ONCV_PBE.upf
ion-width 0
ionic-minimize  \
	dirUpdateScheme      L-BFGS \
	linminMethod         DirUpdateRecommended \
	nIterations          0 \
	history              15 \
	knormThreshold       0.0001 \
	energyDiffThreshold  1e-06 \
	nEnergyDiff          2 \
	alphaTstart          1 \
	alphaTmin            1e-10 \
	updateTestStepSize   yes \
	alphaTreduceFactor   0.1 \
	alphaTincreaseFactor 3 \
	nAlphaAdjustMax      3 \
	wolfeEnergy          0.0001 \
	wolfeGradient        0.9 \
	fdTest               no
kpoint   0.000000000000   0.000000000000   0.000000000000  1.00000000000000
kpoint-folding 12 12 1 
latt-move-scale 1 1 1
latt-scale 4 4 1 
lattice  \
	   4.727486978767153   -2.363743489383575    0.000000000000000  \
	  -0.000000000000000    4.094123819672498    0.000000000000000  \
	   0.000000000000000    0.000000000000000   40.000000000000000 
lattice-minimize  \
	dirUpdateScheme      L-BFGS \
	linminMethod         DirUpdateRecommended \
	nIterations          0 \
	history              15 \
	knormThreshold       0 \
	energyDiffThreshold  1e-06 \
	nEnergyDiff          2 \
	alphaTstart          1 \
	alphaTmin            1e-10 \
	updateTestStepSize   yes \
	alphaTreduceFactor   0.1 \
	alphaTincreaseFactor 3 \
	nAlphaAdjustMax      3 \
	wolfeEnergy          0.0001 \
	wolfeGradient        0.9 \
	fdTest               no
lcao-params -1 1e-06 1e-05
pcm-variant GLSSA13
spintype z-spin
subspace-rotation-factor 1 yes
symmetries automatic
symmetry-threshold 0.0001



---------- Setting up symmetries ----------

Found 24 point-group symmetries of the bravais lattice
Found 24 space-group symmetries with basis
Applied RMS atom displacement 0 bohrs to make symmetries exact.

---------- Initializing the Grid ----------
R = 
[      18.9099     -9.45497            0  ]
[            0      16.3765            0  ]
[            0            0           40  ]
unit cell volume = 12387.1
G =
[   0.332269   0.191835         -0  ]
[          0   0.383671         -0  ]
[         -0         -0    0.15708  ]
Minimum fftbox size, Smin = [  80  80  164  ]
Chosen fftbox size, S = [  80  80  168  ]

---------- Exchange Correlation functional ----------
Initalized PBE GGA exchange.
Initalized PBE GGA correlation.

---------- Setting up pseudopotentials ----------
Width of ionic core gaussian charges (only for fluid interactions / plotting) set to 0

Reading pseudopotential file '/home/gridsan/aligho/DFT/build-Nov24/pseudopotentials/SG15/Na_ONCV_PBE.upf':
  'Na' pseudopotential, 'PBE' functional
  Generated using ONCVPSP code by D. R. Hamann
  Author: Martin Schlipf and Francois Gygi  Date: 150915.
  9 valence electrons, 3 orbitals, 4 projectors, 1992 radial grid points, with lMax = 1
  Transforming local potential to a uniform radial grid of dG=0.02 with 1489 points.
  Transforming nonlocal projectors to a uniform radial grid of dG=0.02 with 432 points.
    2S    l: 0   occupation:  2.0   eigenvalue: -2.085640
    2P    l: 1   occupation:  6.0   eigenvalue: -1.053708
    3S    l: 0   occupation:  1.0   eigenvalue: -0.100838
  Transforming atomic orbitals to a uniform radial grid of dG=0.02 with 432 points.
  Core radius for overlap checks: 2.01 bohrs.
  Reading pulay file /home/gridsan/aligho/DFT/build-Nov24/pseudopotentials/SG15/Na_ONCV_PBE.pulay ... using dE_dnG = -2.946487e-03 computed for Ecut = 20.

Initialized 1 species with 1 total atoms.

Folded 1 k-points by 12x12x1 to 144 k-points.

---------- Setting up k-points, bands, fillings ----------
Reduced to 19 k-points under symmetry. 
Computing the number of bands and number of electrons
Calculating initial fillings.
nElectrons:   9.000000   nBands: 6   nStates: 38

----- Setting up reduced wavefunction bases (one per k-point) -----
average nbasis = 52924.021 , ideal nbasis = 52918.836

---------- Setting up coulomb interaction ----------
Initialized slab truncation along lattice direction 001

---------- Setting up 2D ewald sum ----------
Optimum gaussian width for ewald sums = 10.498040 bohr.
Real space sums over 289 unit cells with max indices [  8  8  0  ]
Reciprocal space sums over 81 terms with max indices [  4  4  0  ]

---------- Allocating electronic variables ----------
Initializing wave functions:  linear combination of atomic orbitals
Note: number of bands (6) exceeds available atomic orbitals (5)
Na pseudo-atom occupations:   s ( 2 1 )  p ( 6 )
[d-3-11-1:06003] 18 more processes have sent help message help-mpi-common-cuda.txt / dlopen failed
[d-3-11-1:06003] Set MCA parameter "orte_base_help_aggregate" to 0 to see all help / error messages
[d-3-11-1:06003] 18 more processes have sent help message help-mpi-btl-openib-cpc-base.txt / no cpcs for port
	FillingsUpdate:  mu: -0.101109053  nElectrons: 9.000000  magneticMoment: [ Abs: 0.22000  Tot: +0.22000 ]
LCAOMinimize: Iter:   0  F: -42.5501016281926709  |grad|_K:  1.201e-06  alpha:  1.000e+00
	FillingsUpdate:  mu: -0.101108827  nElectrons: 9.000000  magneticMoment: [ Abs: 0.22000  Tot: +0.22000 ]
LCAOMinimize: Iter:   1  F: -42.5501016291741649  |grad|_K:  5.120e-09  alpha:  9.942e-01  linmin: -2.844e-04  cgtest:  1.925e-02  t[s]:     15.31
LCAOMinimize: Encountered beta<0, resetting CG.
LCAOMinimize: 	Step increased F by 1.989520e-13, reducing alpha to 7.335948e-03.
LCAOMinimize: 	Step increased F by 7.105427e-15, reducing alpha to 7.335948e-04.
LCAOMinimize: 	Step increased F by 4.263256e-14, reducing alpha to 7.335948e-05.
LCAOMinimize: 	Step failed to reduce F after 3 attempts. Quitting step.
LCAOMinimize: 	Undoing step.
LCAOMinimize: 	Step failed along negative gradient direction.
LCAOMinimize: Probably at roundoff error limit. (Stopping)


---- Citations for features of the code used in this run ----

   Software package:
      R. Sundararaman, K. Letchworth-Weaver, K.A. Schwarz, D. Gunceler, Y. Ozhabes and T.A. Arias, 'JDFTx: software for joint density-functional theory', SoftwareX 6, 278 (2017)

   gga-PBE exchange-correlation functional:
      J.P. Perdew, K. Burke and M. Ernzerhof, Phys. Rev. Lett. 77, 3865 (1996)

   Pseudopotentials:
      M Schlipf and F Gygi, Comput. Phys. Commun. 196, 36 (2015)

   Truncated Coulomb potentials:
      R. Sundararaman and T.A. Arias, Phys. Rev. B 87, 165122 (2013)

This list may not be complete. Please suggest additional citations or
report any other bugs at https://github.com/shankar1729/jdftx/issues

Initialization completed successfully at t[s]:     26.73


-------- Electronic minimization -----------
Will mix electronic density at each iteration.
	FillingsUpdate:  mu: -0.101108827  nElectrons: 9.000000  magneticMoment: [ Abs: 0.22000  Tot: +0.22000 ]
	FillingsUpdate:  mu: -0.101128776  nElectrons: 9.000000  magneticMoment: [ Abs: 0.22000  Tot: +0.22000 ]
SCF: Cycle:  0   F: -42.550130307274820   dF: -2.868e-05   |Residual|: 1.827e-03   |deigs|: 1.710e-01  t[s]:     34.50
	FillingsUpdate:  mu: -0.101147803  nElectrons: 9.000000  magneticMoment: [ Abs: 0.22040  Tot: +0.22000 ]
SCF: Cycle:  1   F: -42.550130683765516   dF: -3.765e-07   |Residual|: 8.423e-04   |deigs|: 9.718e-03  t[s]:     40.63
	FillingsUpdate:  mu: -0.101178742  nElectrons: 9.000000  magneticMoment: [ Abs: 0.22030  Tot: +0.22000 ]
SCF: Cycle:  2   F: -42.550130814448110   dF: -1.307e-07   |Residual|: 1.664e-04   |deigs|: 1.738e-03  t[s]:     46.82
	FillingsUpdate:  mu: -0.101188535  nElectrons: 9.000000  magneticMoment: [ Abs: 0.22037  Tot: +0.22000 ]
SCF: Cycle:  3   F: -42.550130828381540   dF: -1.393e-08   |Residual|: 9.240e-05   |deigs|: 4.934e-04  t[s]:     53.09
	FillingsUpdate:  mu: -0.101200417  nElectrons: 9.000000  magneticMoment: [ Abs: 0.22033  Tot: +0.22000 ]
SCF: Cycle:  4   F: -42.550130838138557   dF: -9.757e-09   |Residual|: 6.319e-05   |deigs|: 3.499e-04  t[s]:     59.49
	FillingsUpdate:  mu: -0.101221833  nElectrons: 9.000000  magneticMoment: [ Abs: 0.22036  Tot: +0.22000 ]
SCF: Cycle:  5   F: -42.550130851193430   dF: -1.305e-08   |Residual|: 4.970e-05   |deigs|: 9.186e-05  t[s]:     66.02
	FillingsUpdate:  mu: -0.101236921  nElectrons: 9.000000  magneticMoment: [ Abs: 0.22034  Tot: +0.22000 ]
SCF: Cycle:  6   F: -42.550130859799040   dF: -8.606e-09   |Residual|: 3.571e-05   |deigs|: 1.554e-04  t[s]:     72.63
	FillingsUpdate:  mu: -0.101251457  nElectrons: 9.000000  magneticMoment: [ Abs: 0.22038  Tot: +0.22000 ]
SCF: Cycle:  7   F: -42.550130864862041   dF: -5.063e-09   |Residual|: 2.026e-05   |deigs|: 2.444e-04  t[s]:     79.25
SCF: Converged (|Delta E|<1.000000e-08 for 2 iters).


# Ionic positions in lattice coordinates:
ion Na   0.000000000000000   0.000000000000000   0.000000000000000 0

# Forces in Lattice coordinates:
force Na  -0.000000000000000   0.000000000000000   0.000000000000000 0

# Energy components:
   Eewald =       -9.0240130501663280
       EH =       24.7649215830252665
     Eloc =      -60.8084308858177423
      Enl =      -12.9026736606159833
   Epulay =        0.0000012333957556
      Exc =       -6.2098107776174913
       KE =       21.6298751864510521
-------------------------------------
     Etot =      -42.5501303713454675
       TS =        0.0000004935165758
-------------------------------------
        F =      -42.5501308648620409

IonicMinimize: Iter:   0  F: -42.550130864862041  |grad|_K:  0.000e+00  t[s]:     79.50
IonicMinimize: Converged (|grad|_K<1.000000e-04).

#--- Lowdin population analysis ---
# oxidation-state Na +0.000
# magnetic-moments Na +0.220

End date and time: Sat Feb  5 22:33:37 2022  (Duration: 0-0:01:19.59)
Done!
