The alkali metal is Na
scale=2
magnetization=-0.1
--------------------------------------------------------------------------
The library attempted to open the following supporting CUDA libraries,
but each of them failed.  CUDA-aware support is disabled.
libcuda.so.1: cannot open shared object file: No such file or directory
libcuda.dylib: cannot open shared object file: No such file or directory
/usr/lib64/libcuda.so.1: cannot open shared object file: No such file or directory
/usr/lib64/libcuda.dylib: cannot open shared object file: No such file or directory
If you are not interested in CUDA-aware support, then run with
--mca opal_warn_on_missing_libcuda 0 to suppress this message.  If you are interested
in CUDA-aware support, then try setting LD_LIBRARY_PATH to the location
of libcuda.so.1 to get passed this issue.
--------------------------------------------------------------------------
--------------------------------------------------------------------------
No OpenFabrics connection schemes reported that they were able to be
used on a specific port.  As such, the openib BTL (OpenFabrics
support) will be disabled for this port.

  Local host:           d-4-6-3
  Local device:         mlx5_1
  Local port:           1
  CPCs attempted:       rdmacm, udcm
--------------------------------------------------------------------------

*************** JDFTx 1.6.0 (git hash 42ebbcc2) ***************

Start date and time: Sat Feb  5 22:27:40 2022
Executable jdftx with command-line: -i Alkali.in
Running on hosts (process indices):  d-4-6-3 (0-18)
Divided in process groups (process indices):  0 (0)  1 (1)  2 (2)  3 (3)  4 (4)  5 (5)  6 (6)  7 (7)  8 (8)  9 (9)  10 (10)  11 (11)  12 (12)  13 (13)  14 (14)  15 (15)  16 (16)  17 (17)  18 (18)
Resource initialization completed at t[s]:      0.00
Run totals: 19 processes, 48 threads, 0 GPUs


Input parsed successfully to the following command list (including defaults):

basis kpoint-dependent
coords-type Lattice
core-overlap-check vector
coulomb-interaction Slab 001
davidson-band-ratio 1.1
dump End None
dump-name $INPUT.$VAR
elec-cutoff 20
elec-eigen-algo Davidson
elec-ex-corr gga-PBE
elec-initial-magnetization -0.100000 yes
elec-smearing Fermi 1e-05
electronic-minimize  \
	dirUpdateScheme      FletcherReeves \
	linminMethod         DirUpdateRecommended \
	nIterations          100 \
	history              15 \
	knormThreshold       0 \
	energyDiffThreshold  1e-08 \
	nEnergyDiff          2 \
	alphaTstart          1 \
	alphaTmin            1e-10 \
	updateTestStepSize   yes \
	alphaTreduceFactor   0.1 \
	alphaTincreaseFactor 3 \
	nAlphaAdjustMax      3 \
	wolfeEnergy          0.0001 \
	wolfeGradient        0.9 \
	fdTest               no
electronic-scf  \
	nIterations	10000 \
	energyDiffThreshold	1e-08 \
	residualThreshold	1e-07 \
	mixFraction	0.5 \
	qMetric	0.8 \
	history	10 \
	nEigSteps	2 \
	eigDiffThreshold	1e-08 \
	mixedVariable	Density \
	qKerker	0.8 \
	qKappa	-1 \
	verbose	no \
	mixFractionMag	1.5
exchange-regularization WignerSeitzTruncated
fluid None
fluid-ex-corr (null) lda-PZ
fluid-gummel-loop 10 1.000000e-05
fluid-minimize  \
	dirUpdateScheme      PolakRibiere \
	linminMethod         DirUpdateRecommended \
	nIterations          100 \
	history              15 \
	knormThreshold       0 \
	energyDiffThreshold  0 \
	nEnergyDiff          2 \
	alphaTstart          1 \
	alphaTmin            1e-10 \
	updateTestStepSize   yes \
	alphaTreduceFactor   0.1 \
	alphaTincreaseFactor 3 \
	nAlphaAdjustMax      3 \
	wolfeEnergy          0.0001 \
	wolfeGradient        0.9 \
	fdTest               no
fluid-solvent H2O 55.338 ScalarEOS \
	epsBulk 78.4 \
	pMol 0.92466 \
	epsInf 1.77 \
	Pvap 1.06736e-10 \
	sigmaBulk 4.62e-05 \
	Rvdw 2.61727 \
	Res 1.42 \
	tauNuc 343133 \
	poleEl 15 7 1
forces-output-coords Positions
ion Na   0.000000000000000   0.000000000000000   0.000000000000000 0
ion-species SG15/$ID_ONCV_PBE.upf
ion-width 0
ionic-minimize  \
	dirUpdateScheme      L-BFGS \
	linminMethod         DirUpdateRecommended \
	nIterations          0 \
	history              15 \
	knormThreshold       0.0001 \
	energyDiffThreshold  1e-06 \
	nEnergyDiff          2 \
	alphaTstart          1 \
	alphaTmin            1e-10 \
	updateTestStepSize   yes \
	alphaTreduceFactor   0.1 \
	alphaTincreaseFactor 3 \
	nAlphaAdjustMax      3 \
	wolfeEnergy          0.0001 \
	wolfeGradient        0.9 \
	fdTest               no
kpoint   0.000000000000   0.000000000000   0.000000000000  1.00000000000000
kpoint-folding 12 12 1 
latt-move-scale 1 1 1
latt-scale 2 2 1 
lattice  \
	   4.727486978767153   -2.363743489383575    0.000000000000000  \
	  -0.000000000000000    4.094123819672498    0.000000000000000  \
	   0.000000000000000    0.000000000000000   40.000000000000000 
lattice-minimize  \
	dirUpdateScheme      L-BFGS \
	linminMethod         DirUpdateRecommended \
	nIterations          0 \
	history              15 \
	knormThreshold       0 \
	energyDiffThreshold  1e-06 \
	nEnergyDiff          2 \
	alphaTstart          1 \
	alphaTmin            1e-10 \
	updateTestStepSize   yes \
	alphaTreduceFactor   0.1 \
	alphaTincreaseFactor 3 \
	nAlphaAdjustMax      3 \
	wolfeEnergy          0.0001 \
	wolfeGradient        0.9 \
	fdTest               no
lcao-params -1 1e-06 1e-05
pcm-variant GLSSA13
spintype z-spin
subspace-rotation-factor 1 yes
symmetries automatic
symmetry-threshold 0.0001



---------- Setting up symmetries ----------

Found 24 point-group symmetries of the bravais lattice
Found 24 space-group symmetries with basis
Applied RMS atom displacement 0 bohrs to make symmetries exact.

---------- Initializing the Grid ----------
R = 
[      9.45497     -4.72749            0  ]
[            0      8.18825            0  ]
[            0            0           40  ]
unit cell volume = 3096.79
G =
[   0.664538   0.383671         -0  ]
[          0   0.767342         -0  ]
[         -0         -0    0.15708  ]
Minimum fftbox size, Smin = [  40  40  164  ]
Chosen fftbox size, S = [  40  40  168  ]

---------- Exchange Correlation functional ----------
Initalized PBE GGA exchange.
Initalized PBE GGA correlation.

---------- Setting up pseudopotentials ----------
Width of ionic core gaussian charges (only for fluid interactions / plotting) set to 0

Reading pseudopotential file '/home/gridsan/aligho/DFT/build-Nov24/pseudopotentials/SG15/Na_ONCV_PBE.upf':
  'Na' pseudopotential, 'PBE' functional
  Generated using ONCVPSP code by D. R. Hamann
  Author: Martin Schlipf and Francois Gygi  Date: 150915.
  9 valence electrons, 3 orbitals, 4 projectors, 1992 radial grid points, with lMax = 1
  Transforming local potential to a uniform radial grid of dG=0.02 with 1489 points.
  Transforming nonlocal projectors to a uniform radial grid of dG=0.02 with 432 points.
    2S    l: 0   occupation:  2.0   eigenvalue: -2.085640
    2P    l: 1   occupation:  6.0   eigenvalue: -1.053708
    3S    l: 0   occupation:  1.0   eigenvalue: -0.100838
  Transforming atomic orbitals to a uniform radial grid of dG=0.02 with 432 points.
  Core radius for overlap checks: 2.01 bohrs.
  Reading pulay file /home/gridsan/aligho/DFT/build-Nov24/pseudopotentials/SG15/Na_ONCV_PBE.pulay ... using dE_dnG = -2.946487e-03 computed for Ecut = 20.

Initialized 1 species with 1 total atoms.

Folded 1 k-points by 12x12x1 to 144 k-points.

---------- Setting up k-points, bands, fillings ----------
Reduced to 19 k-points under symmetry. 
Computing the number of bands and number of electrons
Calculating initial fillings.
nElectrons:   9.000000   nBands: 6   nStates: 38

----- Setting up reduced wavefunction bases (one per k-point) -----
average nbasis = 13230.521 , ideal nbasis = 13229.709

---------- Setting up coulomb interaction ----------
Initialized slab truncation along lattice direction 001

---------- Setting up 2D ewald sum ----------
Optimum gaussian width for ewald sums = 5.249020 bohr.
Real space sums over 289 unit cells with max indices [  8  8  0  ]
Reciprocal space sums over 81 terms with max indices [  4  4  0  ]

---------- Allocating electronic variables ----------
Initializing wave functions:  linear combination of atomic orbitals
Note: number of bands (6) exceeds available atomic orbitals (5)
Na pseudo-atom occupations:   s ( 2 1 )  p ( 6 )
	FillingsUpdate:  mu: -0.104906021  nElectrons: 9.000000  magneticMoment: [ Abs: 0.10000  Tot: -0.10000 ]
LCAOMinimize: Iter:   0  F: -42.5688453828115030  |grad|_K:  3.081e-05  alpha:  1.000e+00
	FillingsUpdate:  mu: -0.104902468  nElectrons: 9.000000  magneticMoment: [ Abs: 0.10000  Tot: -0.10000 ]
LCAOMinimize: Iter:   1  F: -42.5688460234328900  |grad|_K:  2.951e-07  alpha:  9.867e-01  linmin: -1.770e-02  cgtest:  7.065e-01  t[s]:      4.47
LCAOMinimize: Encountered beta<0, resetting CG.
[d-4-6-3:74655] 18 more processes have sent help message help-mpi-common-cuda.txt / dlopen failed
[d-4-6-3:74655] Set MCA parameter "orte_base_help_aggregate" to 0 to see all help / error messages
[d-4-6-3:74655] 18 more processes have sent help message help-mpi-btl-openib-cpc-base.txt / no cpcs for port
	FillingsUpdate:  mu: -0.104902492  nElectrons: 9.000000  magneticMoment: [ Abs: 0.10000  Tot: -0.10000 ]
LCAOMinimize: Iter:   2  F: -42.5688460234935278  |grad|_K:  8.017e-09  alpha:  1.029e+00  linmin:  3.124e-02  cgtest: -9.994e-01  t[s]:      5.66
LCAOMinimize: Converged (|Delta F|<1.000000e-06 for 2 iters).


---- Citations for features of the code used in this run ----

   Software package:
      R. Sundararaman, K. Letchworth-Weaver, K.A. Schwarz, D. Gunceler, Y. Ozhabes and T.A. Arias, 'JDFTx: software for joint density-functional theory', SoftwareX 6, 278 (2017)

   gga-PBE exchange-correlation functional:
      J.P. Perdew, K. Burke and M. Ernzerhof, Phys. Rev. Lett. 77, 3865 (1996)

   Pseudopotentials:
      M Schlipf and F Gygi, Comput. Phys. Commun. 196, 36 (2015)

   Truncated Coulomb potentials:
      R. Sundararaman and T.A. Arias, Phys. Rev. B 87, 165122 (2013)

This list may not be complete. Please suggest additional citations or
report any other bugs at https://github.com/shankar1729/jdftx/issues

Initialization completed successfully at t[s]:      5.73


-------- Electronic minimization -----------
Will mix electronic density at each iteration.
	FillingsUpdate:  mu: -0.104902492  nElectrons: 9.000000  magneticMoment: [ Abs: 0.10000  Tot: -0.10000 ]
	FillingsUpdate:  mu: -0.112973410  nElectrons: 9.000000  magneticMoment: [ Abs: 0.10000  Tot: -0.10000 ]
SCF: Cycle:  0   F: -42.572933272845987   dF: -4.087e-03   |Residual|: 7.029e-03   |deigs|: 1.706e-01  t[s]:      7.96
	FillingsUpdate:  mu: -0.113150403  nElectrons: 9.000000  magneticMoment: [ Abs: 0.10000  Tot: -0.10000 ]
SCF: Cycle:  1   F: -42.572995585704867   dF: -6.231e-05   |Residual|: 5.054e-03   |deigs|: 8.935e-03  t[s]:      9.64
	FillingsUpdate:  mu: -0.112931683  nElectrons: 9.000000  magneticMoment: [ Abs: 0.10098  Tot: -0.10000 ]
SCF: Cycle:  2   F: -42.573014429705964   dF: -1.884e-05   |Residual|: 2.132e-03   |deigs|: 7.042e-03  t[s]:     11.38
	FillingsUpdate:  mu: -0.112469660  nElectrons: 9.000000  magneticMoment: [ Abs: 0.10000  Tot: -0.10000 ]
SCF: Cycle:  3   F: -42.573018681300631   dF: -4.252e-06   |Residual|: 1.201e-03   |deigs|: 4.391e-03  t[s]:     13.12
	FillingsUpdate:  mu: -0.111980952  nElectrons: 9.000000  magneticMoment: [ Abs: 0.10000  Tot: -0.10000 ]
SCF: Cycle:  4   F: -42.573019549791582   dF: -8.685e-07   |Residual|: 8.324e-04   |deigs|: 2.401e-03  t[s]:     14.84
	FillingsUpdate:  mu: -0.111490504  nElectrons: 9.000000  magneticMoment: [ Abs: 0.10009  Tot: -0.10000 ]
SCF: Cycle:  5   F: -42.573019849043639   dF: -2.993e-07   |Residual|: 6.537e-04   |deigs|: 2.204e-03  t[s]:     16.65
	FillingsUpdate:  mu: -0.110335135  nElectrons: 9.000000  magneticMoment: [ Abs: 0.10091  Tot: -0.10000 ]
SCF: Cycle:  6   F: -42.573019605487964   dF: +2.436e-07   |Residual|: 4.662e-04   |deigs|: 1.681e-03  t[s]:     18.42
	FillingsUpdate:  mu: -0.109928591  nElectrons: 9.000000  magneticMoment: [ Abs: 0.10068  Tot: -0.10000 ]
SCF: Cycle:  7   F: -42.573019802353151   dF: -1.969e-07   |Residual|: 3.648e-04   |deigs|: 6.758e-04  t[s]:     20.26
	FillingsUpdate:  mu: -0.109251139  nElectrons: 9.000000  magneticMoment: [ Abs: 0.10046  Tot: -0.10000 ]
SCF: Cycle:  8   F: -42.573021044397152   dF: -1.242e-06   |Residual|: 3.216e-04   |deigs|: 9.652e-04  t[s]:     22.12
	FillingsUpdate:  mu: -0.109094462  nElectrons: 9.000000  magneticMoment: [ Abs: 0.10036  Tot: -0.10000 ]
SCF: Cycle:  9   F: -42.573021314852213   dF: -2.705e-07   |Residual|: 2.377e-04   |deigs|: 1.220e-04  t[s]:     24.07
	FillingsUpdate:  mu: -0.108603144  nElectrons: 9.000000  magneticMoment: [ Abs: 0.10065  Tot: -0.10000 ]
SCF: Cycle: 10   F: -42.573019765638527   dF: +1.549e-06   |Residual|: 2.256e-04   |deigs|: 4.210e-04  t[s]:     25.99
	FillingsUpdate:  mu: -0.108116114  nElectrons: 9.000000  magneticMoment: [ Abs: 0.10031  Tot: -0.10000 ]
SCF: Cycle: 11   F: -42.573019515002379   dF: +2.506e-07   |Residual|: 2.025e-04   |deigs|: 5.482e-04  t[s]:     27.84
	FillingsUpdate:  mu: -0.107390933  nElectrons: 9.000000  magneticMoment: [ Abs: 0.10087  Tot: -0.10000 ]
SCF: Cycle: 12   F: -42.573020921364233   dF: -1.406e-06   |Residual|: 1.878e-04   |deigs|: 7.521e-04  t[s]:     29.82
	FillingsUpdate:  mu: -0.107175541  nElectrons: 9.000000  magneticMoment: [ Abs: 0.10076  Tot: -0.10000 ]
SCF: Cycle: 13   F: -42.573021798394628   dF: -8.770e-07   |Residual|: 1.694e-04   |deigs|: 1.996e-04  t[s]:     31.59
	FillingsUpdate:  mu: -0.106800509  nElectrons: 9.000000  magneticMoment: [ Abs: 0.10021  Tot: -0.10000 ]
SCF: Cycle: 14   F: -42.573022465961436   dF: -6.676e-07   |Residual|: 1.642e-04   |deigs|: 3.845e-04  t[s]:     33.46
	FillingsUpdate:  mu: -0.106382911  nElectrons: 9.000000  magneticMoment: [ Abs: 0.10012  Tot: -0.10000 ]
SCF: Cycle: 15   F: -42.573022770887256   dF: -3.049e-07   |Residual|: 1.305e-04   |deigs|: 4.556e-04  t[s]:     35.31
	FillingsUpdate:  mu: -0.105919792  nElectrons: 9.000000  magneticMoment: [ Abs: 0.10026  Tot: -0.10000 ]
SCF: Cycle: 16   F: -42.573023013853629   dF: -2.430e-07   |Residual|: 7.829e-05   |deigs|: 4.646e-04  t[s]:     37.32
	FillingsUpdate:  mu: -0.105872067  nElectrons: 9.000000  magneticMoment: [ Abs: 0.10017  Tot: -0.10000 ]
SCF: Cycle: 17   F: -42.573023042952194   dF: -2.910e-08   |Residual|: 5.162e-05   |deigs|: 6.094e-05  t[s]:     39.18
	FillingsUpdate:  mu: -0.105820928  nElectrons: 9.000000  magneticMoment: [ Abs: 0.10005  Tot: -0.10000 ]
SCF: Cycle: 18   F: -42.573023056340674   dF: -1.339e-08   |Residual|: 3.388e-05   |deigs|: 1.211e-03  t[s]:     41.04
	FillingsUpdate:  mu: -0.105793468  nElectrons: 9.000000  magneticMoment: [ Abs: 0.10007  Tot: -0.10000 ]
SCF: Cycle: 19   F: -42.573023064719671   dF: -8.379e-09   |Residual|: 1.922e-05   |deigs|: 3.728e-04  t[s]:     43.01
	FillingsUpdate:  mu: -0.105804307  nElectrons: 9.000000  magneticMoment: [ Abs: 0.10008  Tot: -0.10000 ]
SCF: Cycle: 20   F: -42.573023067597354   dF: -2.878e-09   |Residual|: 1.027e-05   |deigs|: 1.222e-04  t[s]:     44.85
SCF: Converged (|Delta E|<1.000000e-08 for 2 iters).


# Ionic positions in lattice coordinates:
ion Na   0.000000000000000   0.000000000000000   0.000000000000000 0

# Forces in Lattice coordinates:
force Na  -0.000000000000000   0.000000000000000   0.000000000000000 0

# Energy components:
   Eewald =      -18.0480261003326561
       EH =       15.7226659604037771
     Eloc =      -42.7340955133021012
      Enl =      -12.9128782066620200
   Epulay =        0.0000007725295140
      Exc =       -6.2159273944956830
       KE =       21.6152385116975125
-------------------------------------
     Etot =      -42.5730219701616619
       TS =        0.0000010974356905
-------------------------------------
        F =      -42.5730230675973544

IonicMinimize: Iter:   0  F: -42.573023067597354  |grad|_K:  0.000e+00  t[s]:     44.92
IonicMinimize: Converged (|grad|_K<1.000000e-04).

#--- Lowdin population analysis ---
# oxidation-state Na +0.035
# magnetic-moments Na -0.090

End date and time: Sat Feb  5 22:28:25 2022  (Duration: 0-0:00:44.94)
Done!
scale=3
magnetization=-0.1
--------------------------------------------------------------------------
The library attempted to open the following supporting CUDA libraries,
but each of them failed.  CUDA-aware support is disabled.
libcuda.so.1: cannot open shared object file: No such file or directory
libcuda.dylib: cannot open shared object file: No such file or directory
/usr/lib64/libcuda.so.1: cannot open shared object file: No such file or directory
/usr/lib64/libcuda.dylib: cannot open shared object file: No such file or directory
If you are not interested in CUDA-aware support, then run with
--mca opal_warn_on_missing_libcuda 0 to suppress this message.  If you are interested
in CUDA-aware support, then try setting LD_LIBRARY_PATH to the location
of libcuda.so.1 to get passed this issue.
--------------------------------------------------------------------------
--------------------------------------------------------------------------
No OpenFabrics connection schemes reported that they were able to be
used on a specific port.  As such, the openib BTL (OpenFabrics
support) will be disabled for this port.

  Local host:           d-4-6-3
  Local device:         mlx5_1
  Local port:           1
  CPCs attempted:       rdmacm, udcm
--------------------------------------------------------------------------

*************** JDFTx 1.6.0 (git hash 42ebbcc2) ***************

Start date and time: Sat Feb  5 22:28:26 2022
Executable jdftx with command-line: -i Alkali.in
Running on hosts (process indices):  d-4-6-3 (0-18)
Divided in process groups (process indices):  0 (0)  1 (1)  2 (2)  3 (3)  4 (4)  5 (5)  6 (6)  7 (7)  8 (8)  9 (9)  10 (10)  11 (11)  12 (12)  13 (13)  14 (14)  15 (15)  16 (16)  17 (17)  18 (18)
Resource initialization completed at t[s]:      0.00
Run totals: 19 processes, 48 threads, 0 GPUs


Input parsed successfully to the following command list (including defaults):

basis kpoint-dependent
coords-type Lattice
core-overlap-check vector
coulomb-interaction Slab 001
davidson-band-ratio 1.1
dump End None
dump-name $INPUT.$VAR
elec-cutoff 20
elec-eigen-algo Davidson
elec-ex-corr gga-PBE
elec-initial-magnetization -0.100000 yes
elec-smearing Fermi 1e-05
electronic-minimize  \
	dirUpdateScheme      FletcherReeves \
	linminMethod         DirUpdateRecommended \
	nIterations          100 \
	history              15 \
	knormThreshold       0 \
	energyDiffThreshold  1e-08 \
	nEnergyDiff          2 \
	alphaTstart          1 \
	alphaTmin            1e-10 \
	updateTestStepSize   yes \
	alphaTreduceFactor   0.1 \
	alphaTincreaseFactor 3 \
	nAlphaAdjustMax      3 \
	wolfeEnergy          0.0001 \
	wolfeGradient        0.9 \
	fdTest               no
electronic-scf  \
	nIterations	10000 \
	energyDiffThreshold	1e-08 \
	residualThreshold	1e-07 \
	mixFraction	0.5 \
	qMetric	0.8 \
	history	10 \
	nEigSteps	2 \
	eigDiffThreshold	1e-08 \
	mixedVariable	Density \
	qKerker	0.8 \
	qKappa	-1 \
	verbose	no \
	mixFractionMag	1.5
exchange-regularization WignerSeitzTruncated
fluid None
fluid-ex-corr (null) lda-PZ
fluid-gummel-loop 10 1.000000e-05
fluid-minimize  \
	dirUpdateScheme      PolakRibiere \
	linminMethod         DirUpdateRecommended \
	nIterations          100 \
	history              15 \
	knormThreshold       0 \
	energyDiffThreshold  0 \
	nEnergyDiff          2 \
	alphaTstart          1 \
	alphaTmin            1e-10 \
	updateTestStepSize   yes \
	alphaTreduceFactor   0.1 \
	alphaTincreaseFactor 3 \
	nAlphaAdjustMax      3 \
	wolfeEnergy          0.0001 \
	wolfeGradient        0.9 \
	fdTest               no
fluid-solvent H2O 55.338 ScalarEOS \
	epsBulk 78.4 \
	pMol 0.92466 \
	epsInf 1.77 \
	Pvap 1.06736e-10 \
	sigmaBulk 4.62e-05 \
	Rvdw 2.61727 \
	Res 1.42 \
	tauNuc 343133 \
	poleEl 15 7 1
forces-output-coords Positions
ion Na   0.000000000000000   0.000000000000000   0.000000000000000 0
ion-species SG15/$ID_ONCV_PBE.upf
ion-width 0
ionic-minimize  \
	dirUpdateScheme      L-BFGS \
	linminMethod         DirUpdateRecommended \
	nIterations          0 \
	history              15 \
	knormThreshold       0.0001 \
	energyDiffThreshold  1e-06 \
	nEnergyDiff          2 \
	alphaTstart          1 \
	alphaTmin            1e-10 \
	updateTestStepSize   yes \
	alphaTreduceFactor   0.1 \
	alphaTincreaseFactor 3 \
	nAlphaAdjustMax      3 \
	wolfeEnergy          0.0001 \
	wolfeGradient        0.9 \
	fdTest               no
kpoint   0.000000000000   0.000000000000   0.000000000000  1.00000000000000
kpoint-folding 12 12 1 
latt-move-scale 1 1 1
latt-scale 3 3 1 
lattice  \
	   4.727486978767153   -2.363743489383575    0.000000000000000  \
	  -0.000000000000000    4.094123819672498    0.000000000000000  \
	   0.000000000000000    0.000000000000000   40.000000000000000 
lattice-minimize  \
	dirUpdateScheme      L-BFGS \
	linminMethod         DirUpdateRecommended \
	nIterations          0 \
	history              15 \
	knormThreshold       0 \
	energyDiffThreshold  1e-06 \
	nEnergyDiff          2 \
	alphaTstart          1 \
	alphaTmin            1e-10 \
	updateTestStepSize   yes \
	alphaTreduceFactor   0.1 \
	alphaTincreaseFactor 3 \
	nAlphaAdjustMax      3 \
	wolfeEnergy          0.0001 \
	wolfeGradient        0.9 \
	fdTest               no
lcao-params -1 1e-06 1e-05
pcm-variant GLSSA13
spintype z-spin
subspace-rotation-factor 1 yes
symmetries automatic
symmetry-threshold 0.0001



---------- Setting up symmetries ----------

Found 24 point-group symmetries of the bravais lattice
Found 24 space-group symmetries with basis
Applied RMS atom displacement 0 bohrs to make symmetries exact.

---------- Initializing the Grid ----------
R = 
[      14.1825     -7.09123            0  ]
[            0      12.2824            0  ]
[            0            0           40  ]
unit cell volume = 6967.77
G =
[   0.443025   0.255781         -0  ]
[          0   0.511561         -0  ]
[         -0         -0    0.15708  ]
Minimum fftbox size, Smin = [  60  60  164  ]
Chosen fftbox size, S = [  60  60  168  ]

---------- Exchange Correlation functional ----------
Initalized PBE GGA exchange.
Initalized PBE GGA correlation.

---------- Setting up pseudopotentials ----------
Width of ionic core gaussian charges (only for fluid interactions / plotting) set to 0

Reading pseudopotential file '/home/gridsan/aligho/DFT/build-Nov24/pseudopotentials/SG15/Na_ONCV_PBE.upf':
  'Na' pseudopotential, 'PBE' functional
  Generated using ONCVPSP code by D. R. Hamann
  Author: Martin Schlipf and Francois Gygi  Date: 150915.
  9 valence electrons, 3 orbitals, 4 projectors, 1992 radial grid points, with lMax = 1
  Transforming local potential to a uniform radial grid of dG=0.02 with 1489 points.
  Transforming nonlocal projectors to a uniform radial grid of dG=0.02 with 432 points.
    2S    l: 0   occupation:  2.0   eigenvalue: -2.085640
    2P    l: 1   occupation:  6.0   eigenvalue: -1.053708
    3S    l: 0   occupation:  1.0   eigenvalue: -0.100838
  Transforming atomic orbitals to a uniform radial grid of dG=0.02 with 432 points.
  Core radius for overlap checks: 2.01 bohrs.
  Reading pulay file /home/gridsan/aligho/DFT/build-Nov24/pseudopotentials/SG15/Na_ONCV_PBE.pulay ... using dE_dnG = -2.946487e-03 computed for Ecut = 20.

Initialized 1 species with 1 total atoms.

Folded 1 k-points by 12x12x1 to 144 k-points.

---------- Setting up k-points, bands, fillings ----------
Reduced to 19 k-points under symmetry. 
Computing the number of bands and number of electrons
Calculating initial fillings.
nElectrons:   9.000000   nBands: 6   nStates: 38

----- Setting up reduced wavefunction bases (one per k-point) -----
average nbasis = 29766.104 , ideal nbasis = 29766.845

---------- Setting up coulomb interaction ----------
Initialized slab truncation along lattice direction 001

---------- Setting up 2D ewald sum ----------
Optimum gaussian width for ewald sums = 7.873530 bohr.
Real space sums over 289 unit cells with max indices [  8  8  0  ]
Reciprocal space sums over 81 terms with max indices [  4  4  0  ]

---------- Allocating electronic variables ----------
Initializing wave functions:  linear combination of atomic orbitals
Note: number of bands (6) exceeds available atomic orbitals (5)
Na pseudo-atom occupations:   s ( 2 1 )  p ( 6 )
[d-4-6-3:96521] 18 more processes have sent help message help-mpi-common-cuda.txt / dlopen failed
[d-4-6-3:96521] Set MCA parameter "orte_base_help_aggregate" to 0 to see all help / error messages
[d-4-6-3:96521] 18 more processes have sent help message help-mpi-btl-openib-cpc-base.txt / no cpcs for port
	FillingsUpdate:  mu: -0.101918851  nElectrons: 9.000000  magneticMoment: [ Abs: 0.10000  Tot: -0.10000 ]
LCAOMinimize: Iter:   0  F: -42.5528360984132092  |grad|_K:  8.573e-06  alpha:  1.000e+00
	FillingsUpdate:  mu: -0.101917069  nElectrons: 9.000000  magneticMoment: [ Abs: 0.10000  Tot: -0.10000 ]
LCAOMinimize: Iter:   1  F: -42.5528361483371143  |grad|_K:  4.764e-08  alpha:  9.930e-01  linmin: -7.348e-03  cgtest:  4.218e-01  t[s]:      8.69
LCAOMinimize: Encountered beta<0, resetting CG.
	FillingsUpdate:  mu: -0.101917067  nElectrons: 9.000000  magneticMoment: [ Abs: 0.10000  Tot: -0.10000 ]
LCAOMinimize: Iter:   2  F: -42.5528361483382511  |grad|_K:  1.430e-08  alpha:  6.994e-01  linmin: -2.655e-02  cgtest:  1.000e+00  t[s]:     11.12
LCAOMinimize: Encountered beta<0, resetting CG.
LCAOMinimize: Converged (|Delta F|<1.000000e-06 for 2 iters).


---- Citations for features of the code used in this run ----

   Software package:
      R. Sundararaman, K. Letchworth-Weaver, K.A. Schwarz, D. Gunceler, Y. Ozhabes and T.A. Arias, 'JDFTx: software for joint density-functional theory', SoftwareX 6, 278 (2017)

   gga-PBE exchange-correlation functional:
      J.P. Perdew, K. Burke and M. Ernzerhof, Phys. Rev. Lett. 77, 3865 (1996)

   Pseudopotentials:
      M Schlipf and F Gygi, Comput. Phys. Commun. 196, 36 (2015)

   Truncated Coulomb potentials:
      R. Sundararaman and T.A. Arias, Phys. Rev. B 87, 165122 (2013)

This list may not be complete. Please suggest additional citations or
report any other bugs at https://github.com/shankar1729/jdftx/issues

Initialization completed successfully at t[s]:     11.22


-------- Electronic minimization -----------
Will mix electronic density at each iteration.
	FillingsUpdate:  mu: -0.101917067  nElectrons: 9.000000  magneticMoment: [ Abs: 0.10000  Tot: -0.10000 ]
	FillingsUpdate:  mu: -0.102273311  nElectrons: 9.000000  magneticMoment: [ Abs: 0.10000  Tot: -0.10000 ]
SCF: Cycle:  0   F: -42.553192398744393   dF: -3.563e-04   |Residual|: 2.133e-03   |deigs|: 1.740e-01  t[s]:     15.65
	FillingsUpdate:  mu: -0.102410383  nElectrons: 9.000000  magneticMoment: [ Abs: 0.10016  Tot: -0.10000 ]
SCF: Cycle:  1   F: -42.553198300459698   dF: -5.902e-06   |Residual|: 1.344e-03   |deigs|: 5.193e-03  t[s]:     19.08
	FillingsUpdate:  mu: -0.102662666  nElectrons: 9.000000  magneticMoment: [ Abs: 0.10013  Tot: -0.10000 ]
SCF: Cycle:  2   F: -42.553201783272449   dF: -3.483e-06   |Residual|: 7.677e-04   |deigs|: 2.745e-03  t[s]:     22.56
	FillingsUpdate:  mu: -0.102792967  nElectrons: 9.000000  magneticMoment: [ Abs: 0.10027  Tot: -0.10000 ]
SCF: Cycle:  3   F: -42.553203713511230   dF: -1.930e-06   |Residual|: 5.155e-04   |deigs|: 1.273e-03  t[s]:     26.08
	FillingsUpdate:  mu: -0.103036243  nElectrons: 9.000000  magneticMoment: [ Abs: 0.10015  Tot: -0.10000 ]
SCF: Cycle:  4   F: -42.553206145541793   dF: -2.432e-06   |Residual|: 2.583e-04   |deigs|: 1.604e-03  t[s]:     29.77
	FillingsUpdate:  mu: -0.103051609  nElectrons: 9.000000  magneticMoment: [ Abs: 0.10024  Tot: -0.10000 ]
SCF: Cycle:  5   F: -42.553206509527676   dF: -3.640e-07   |Residual|: 1.675e-04   |deigs|: 1.276e-03  t[s]:     33.43
	FillingsUpdate:  mu: -0.103032094  nElectrons: 9.000000  magneticMoment: [ Abs: 0.10016  Tot: -0.10000 ]
SCF: Cycle:  6   F: -42.553206839744703   dF: -3.302e-07   |Residual|: 1.119e-04   |deigs|: 1.366e-03  t[s]:     37.18
	FillingsUpdate:  mu: -0.103004236  nElectrons: 9.000000  magneticMoment: [ Abs: 0.10020  Tot: -0.10000 ]
SCF: Cycle:  7   F: -42.553206920270469   dF: -8.053e-08   |Residual|: 7.407e-05   |deigs|: 1.306e-03  t[s]:     40.96
	FillingsUpdate:  mu: -0.102954394  nElectrons: 9.000000  magneticMoment: [ Abs: 0.10016  Tot: -0.10000 ]
SCF: Cycle:  8   F: -42.553206959560114   dF: -3.929e-08   |Residual|: 5.472e-05   |deigs|: 9.986e-05  t[s]:     44.83
	FillingsUpdate:  mu: -0.102932466  nElectrons: 9.000000  magneticMoment: [ Abs: 0.10019  Tot: -0.10000 ]
SCF: Cycle:  9   F: -42.553206966158818   dF: -6.599e-09   |Residual|: 5.207e-05   |deigs|: 1.750e-05  t[s]:     48.76
	FillingsUpdate:  mu: -0.102870579  nElectrons: 9.000000  magneticMoment: [ Abs: 0.10021  Tot: -0.10000 ]
SCF: Cycle: 10   F: -42.553206973883498   dF: -7.725e-09   |Residual|: 4.122e-05   |deigs|: 7.906e-05  t[s]:     52.86
SCF: Converged (|Delta E|<1.000000e-08 for 2 iters).


# Ionic positions in lattice coordinates:
ion Na   0.000000000000000   0.000000000000000   0.000000000000000 0

# Forces in Lattice coordinates:
force Na  -0.000000000000000   0.000000000000000   0.000000000000000 0

# Energy components:
   Eewald =      -12.0320174002217755
       EH =       21.7038931695859993
     Eloc =      -54.7345238686097346
      Enl =      -12.9047363789164926
   Epulay =       -0.0000003132867683
      Exc =       -6.2057452708732326
       KE =       21.6199241858741935
-------------------------------------
     Etot =      -42.5532058764478052
       TS =        0.0000010974356905
-------------------------------------
        F =      -42.5532069738834977

IonicMinimize: Iter:   0  F: -42.553206973883498  |grad|_K:  0.000e+00  t[s]:     53.00
IonicMinimize: Converged (|grad|_K<1.000000e-04).

#--- Lowdin population analysis ---
# oxidation-state Na +0.005
# magnetic-moments Na -0.100

End date and time: Sat Feb  5 22:29:19 2022  (Duration: 0-0:00:53.05)
Done!
scale=4
magnetization=-0.1
--------------------------------------------------------------------------
The library attempted to open the following supporting CUDA libraries,
but each of them failed.  CUDA-aware support is disabled.
libcuda.so.1: cannot open shared object file: No such file or directory
libcuda.dylib: cannot open shared object file: No such file or directory
/usr/lib64/libcuda.so.1: cannot open shared object file: No such file or directory
/usr/lib64/libcuda.dylib: cannot open shared object file: No such file or directory
If you are not interested in CUDA-aware support, then run with
--mca opal_warn_on_missing_libcuda 0 to suppress this message.  If you are interested
in CUDA-aware support, then try setting LD_LIBRARY_PATH to the location
of libcuda.so.1 to get passed this issue.
--------------------------------------------------------------------------
--------------------------------------------------------------------------
No OpenFabrics connection schemes reported that they were able to be
used on a specific port.  As such, the openib BTL (OpenFabrics
support) will be disabled for this port.

  Local host:           d-4-6-3
  Local device:         mlx5_1
  Local port:           1
  CPCs attempted:       rdmacm, udcm
--------------------------------------------------------------------------

*************** JDFTx 1.6.0 (git hash 42ebbcc2) ***************

Start date and time: Sat Feb  5 22:29:20 2022
Executable jdftx with command-line: -i Alkali.in
Running on hosts (process indices):  d-4-6-3 (0-18)
Divided in process groups (process indices):  0 (0)  1 (1)  2 (2)  3 (3)  4 (4)  5 (5)  6 (6)  7 (7)  8 (8)  9 (9)  10 (10)  11 (11)  12 (12)  13 (13)  14 (14)  15 (15)  16 (16)  17 (17)  18 (18)
Resource initialization completed at t[s]:      0.00
Run totals: 19 processes, 48 threads, 0 GPUs


Input parsed successfully to the following command list (including defaults):

basis kpoint-dependent
coords-type Lattice
core-overlap-check vector
coulomb-interaction Slab 001
davidson-band-ratio 1.1
dump End None
dump-name $INPUT.$VAR
elec-cutoff 20
elec-eigen-algo Davidson
elec-ex-corr gga-PBE
elec-initial-magnetization -0.100000 yes
elec-smearing Fermi 1e-05
electronic-minimize  \
	dirUpdateScheme      FletcherReeves \
	linminMethod         DirUpdateRecommended \
	nIterations          100 \
	history              15 \
	knormThreshold       0 \
	energyDiffThreshold  1e-08 \
	nEnergyDiff          2 \
	alphaTstart          1 \
	alphaTmin            1e-10 \
	updateTestStepSize   yes \
	alphaTreduceFactor   0.1 \
	alphaTincreaseFactor 3 \
	nAlphaAdjustMax      3 \
	wolfeEnergy          0.0001 \
	wolfeGradient        0.9 \
	fdTest               no
electronic-scf  \
	nIterations	10000 \
	energyDiffThreshold	1e-08 \
	residualThreshold	1e-07 \
	mixFraction	0.5 \
	qMetric	0.8 \
	history	10 \
	nEigSteps	2 \
	eigDiffThreshold	1e-08 \
	mixedVariable	Density \
	qKerker	0.8 \
	qKappa	-1 \
	verbose	no \
	mixFractionMag	1.5
exchange-regularization WignerSeitzTruncated
fluid None
fluid-ex-corr (null) lda-PZ
fluid-gummel-loop 10 1.000000e-05
fluid-minimize  \
	dirUpdateScheme      PolakRibiere \
	linminMethod         DirUpdateRecommended \
	nIterations          100 \
	history              15 \
	knormThreshold       0 \
	energyDiffThreshold  0 \
	nEnergyDiff          2 \
	alphaTstart          1 \
	alphaTmin            1e-10 \
	updateTestStepSize   yes \
	alphaTreduceFactor   0.1 \
	alphaTincreaseFactor 3 \
	nAlphaAdjustMax      3 \
	wolfeEnergy          0.0001 \
	wolfeGradient        0.9 \
	fdTest               no
fluid-solvent H2O 55.338 ScalarEOS \
	epsBulk 78.4 \
	pMol 0.92466 \
	epsInf 1.77 \
	Pvap 1.06736e-10 \
	sigmaBulk 4.62e-05 \
	Rvdw 2.61727 \
	Res 1.42 \
	tauNuc 343133 \
	poleEl 15 7 1
forces-output-coords Positions
ion Na   0.000000000000000   0.000000000000000   0.000000000000000 0
ion-species SG15/$ID_ONCV_PBE.upf
ion-width 0
ionic-minimize  \
	dirUpdateScheme      L-BFGS \
	linminMethod         DirUpdateRecommended \
	nIterations          0 \
	history              15 \
	knormThreshold       0.0001 \
	energyDiffThreshold  1e-06 \
	nEnergyDiff          2 \
	alphaTstart          1 \
	alphaTmin            1e-10 \
	updateTestStepSize   yes \
	alphaTreduceFactor   0.1 \
	alphaTincreaseFactor 3 \
	nAlphaAdjustMax      3 \
	wolfeEnergy          0.0001 \
	wolfeGradient        0.9 \
	fdTest               no
kpoint   0.000000000000   0.000000000000   0.000000000000  1.00000000000000
kpoint-folding 12 12 1 
latt-move-scale 1 1 1
latt-scale 4 4 1 
lattice  \
	   4.727486978767153   -2.363743489383575    0.000000000000000  \
	  -0.000000000000000    4.094123819672498    0.000000000000000  \
	   0.000000000000000    0.000000000000000   40.000000000000000 
lattice-minimize  \
	dirUpdateScheme      L-BFGS \
	linminMethod         DirUpdateRecommended \
	nIterations          0 \
	history              15 \
	knormThreshold       0 \
	energyDiffThreshold  1e-06 \
	nEnergyDiff          2 \
	alphaTstart          1 \
	alphaTmin            1e-10 \
	updateTestStepSize   yes \
	alphaTreduceFactor   0.1 \
	alphaTincreaseFactor 3 \
	nAlphaAdjustMax      3 \
	wolfeEnergy          0.0001 \
	wolfeGradient        0.9 \
	fdTest               no
lcao-params -1 1e-06 1e-05
pcm-variant GLSSA13
spintype z-spin
subspace-rotation-factor 1 yes
symmetries automatic
symmetry-threshold 0.0001



---------- Setting up symmetries ----------

Found 24 point-group symmetries of the bravais lattice
Found 24 space-group symmetries with basis
Applied RMS atom displacement 0 bohrs to make symmetries exact.

---------- Initializing the Grid ----------
R = 
[      18.9099     -9.45497            0  ]
[            0      16.3765            0  ]
[            0            0           40  ]
unit cell volume = 12387.1
G =
[   0.332269   0.191835         -0  ]
[          0   0.383671         -0  ]
[         -0         -0    0.15708  ]
Minimum fftbox size, Smin = [  80  80  164  ]
Chosen fftbox size, S = [  80  80  168  ]

---------- Exchange Correlation functional ----------
Initalized PBE GGA exchange.
Initalized PBE GGA correlation.

---------- Setting up pseudopotentials ----------
Width of ionic core gaussian charges (only for fluid interactions / plotting) set to 0

Reading pseudopotential file '/home/gridsan/aligho/DFT/build-Nov24/pseudopotentials/SG15/Na_ONCV_PBE.upf':
  'Na' pseudopotential, 'PBE' functional
  Generated using ONCVPSP code by D. R. Hamann
  Author: Martin Schlipf and Francois Gygi  Date: 150915.
  9 valence electrons, 3 orbitals, 4 projectors, 1992 radial grid points, with lMax = 1
  Transforming local potential to a uniform radial grid of dG=0.02 with 1489 points.
  Transforming nonlocal projectors to a uniform radial grid of dG=0.02 with 432 points.
    2S    l: 0   occupation:  2.0   eigenvalue: -2.085640
    2P    l: 1   occupation:  6.0   eigenvalue: -1.053708
    3S    l: 0   occupation:  1.0   eigenvalue: -0.100838
  Transforming atomic orbitals to a uniform radial grid of dG=0.02 with 432 points.
  Core radius for overlap checks: 2.01 bohrs.
  Reading pulay file /home/gridsan/aligho/DFT/build-Nov24/pseudopotentials/SG15/Na_ONCV_PBE.pulay ... using dE_dnG = -2.946487e-03 computed for Ecut = 20.

Initialized 1 species with 1 total atoms.

Folded 1 k-points by 12x12x1 to 144 k-points.

---------- Setting up k-points, bands, fillings ----------
Reduced to 19 k-points under symmetry. 
Computing the number of bands and number of electrons
Calculating initial fillings.
nElectrons:   9.000000   nBands: 6   nStates: 38

----- Setting up reduced wavefunction bases (one per k-point) -----
average nbasis = 52924.021 , ideal nbasis = 52918.836

---------- Setting up coulomb interaction ----------
Initialized slab truncation along lattice direction 001

---------- Setting up 2D ewald sum ----------
Optimum gaussian width for ewald sums = 10.498040 bohr.
Real space sums over 289 unit cells with max indices [  8  8  0  ]
Reciprocal space sums over 81 terms with max indices [  4  4  0  ]

---------- Allocating electronic variables ----------
Initializing wave functions:  linear combination of atomic orbitals
Note: number of bands (6) exceeds available atomic orbitals (5)
Na pseudo-atom occupations:   s ( 2 1 )  p ( 6 )
[d-4-6-3:27167] 18 more processes have sent help message help-mpi-common-cuda.txt / dlopen failed
[d-4-6-3:27167] Set MCA parameter "orte_base_help_aggregate" to 0 to see all help / error messages
[d-4-6-3:27167] 18 more processes have sent help message help-mpi-btl-openib-cpc-base.txt / no cpcs for port
	FillingsUpdate:  mu: -0.101186915  nElectrons: 9.000000  magneticMoment: [ Abs: 0.10000  Tot: -0.10000 ]
LCAOMinimize: Iter:   0  F: -42.5498277813203813  |grad|_K:  1.222e-06  alpha:  1.000e+00
	FillingsUpdate:  mu: -0.101186662  nElectrons: 9.000000  magneticMoment: [ Abs: 0.10000  Tot: -0.10000 ]
LCAOMinimize: Iter:   1  F: -42.5498277823362940  |grad|_K:  5.234e-09  alpha:  9.946e-01  linmin:  1.544e-03  cgtest: -1.033e-01  t[s]:     14.90
LCAOMinimize: 	Wrong curvature in test step, increasing alphaT to 2.983755e+00.
	FillingsUpdate:  mu: -0.101186662  nElectrons: 9.000000  magneticMoment: [ Abs: 0.10000  Tot: -0.10000 ]
LCAOMinimize: Iter:   2  F: -42.5498277823365783  |grad|_K:  5.408e-10  alpha: -7.370e-02  linmin: -4.634e-04  cgtest:  1.288e-01  t[s]:     18.86
LCAOMinimize: Encountered beta<0, resetting CG.
LCAOMinimize: Converged (|Delta F|<1.000000e-06 for 2 iters).


---- Citations for features of the code used in this run ----

   Software package:
      R. Sundararaman, K. Letchworth-Weaver, K.A. Schwarz, D. Gunceler, Y. Ozhabes and T.A. Arias, 'JDFTx: software for joint density-functional theory', SoftwareX 6, 278 (2017)

   gga-PBE exchange-correlation functional:
      J.P. Perdew, K. Burke and M. Ernzerhof, Phys. Rev. Lett. 77, 3865 (1996)

   Pseudopotentials:
      M Schlipf and F Gygi, Comput. Phys. Commun. 196, 36 (2015)

   Truncated Coulomb potentials:
      R. Sundararaman and T.A. Arias, Phys. Rev. B 87, 165122 (2013)

This list may not be complete. Please suggest additional citations or
report any other bugs at https://github.com/shankar1729/jdftx/issues

Initialization completed successfully at t[s]:     19.01


-------- Electronic minimization -----------
Will mix electronic density at each iteration.
	FillingsUpdate:  mu: -0.101186662  nElectrons: 9.000000  magneticMoment: [ Abs: 0.10000  Tot: -0.10000 ]
	FillingsUpdate:  mu: -0.101199835  nElectrons: 9.000000  magneticMoment: [ Abs: 0.10000  Tot: -0.10000 ]
SCF: Cycle:  0   F: -42.549850112047821   dF: -2.233e-05   |Residual|: 1.823e-03   |deigs|: 1.728e-01  t[s]:     26.51
	FillingsUpdate:  mu: -0.101231249  nElectrons: 9.000000  magneticMoment: [ Abs: 0.10018  Tot: -0.10000 ]
SCF: Cycle:  1   F: -42.549850505882183   dF: -3.938e-07   |Residual|: 8.357e-04   |deigs|: 7.881e-03  t[s]:     32.41
	FillingsUpdate:  mu: -0.101278483  nElectrons: 9.000000  magneticMoment: [ Abs: 0.10014  Tot: -0.10000 ]
SCF: Cycle:  2   F: -42.549850648129159   dF: -1.422e-07   |Residual|: 1.747e-04   |deigs|: 1.741e-03  t[s]:     38.53
	FillingsUpdate:  mu: -0.101289428  nElectrons: 9.000000  magneticMoment: [ Abs: 0.10017  Tot: -0.10000 ]
SCF: Cycle:  3   F: -42.549850656382581   dF: -8.253e-09   |Residual|: 1.086e-04   |deigs|: 4.905e-04  t[s]:     44.66
	FillingsUpdate:  mu: -0.101328860  nElectrons: 9.000000  magneticMoment: [ Abs: 0.10013  Tot: -0.10000 ]
SCF: Cycle:  4   F: -42.549850669475589   dF: -1.309e-08   |Residual|: 1.067e-04   |deigs|: 4.104e-04  t[s]:     50.84
	FillingsUpdate:  mu: -0.101349728  nElectrons: 9.000000  magneticMoment: [ Abs: 0.10017  Tot: -0.10000 ]
SCF: Cycle:  5   F: -42.549850679333467   dF: -9.858e-09   |Residual|: 6.016e-05   |deigs|: 2.428e-04  t[s]:     57.21
	FillingsUpdate:  mu: -0.101383618  nElectrons: 9.000000  magneticMoment: [ Abs: 0.10015  Tot: -0.10000 ]
SCF: Cycle:  6   F: -42.549850691182563   dF: -1.185e-08   |Residual|: 7.915e-05   |deigs|: 2.758e-04  t[s]:     63.67
	FillingsUpdate:  mu: -0.101389287  nElectrons: 9.000000  magneticMoment: [ Abs: 0.10017  Tot: -0.10000 ]
SCF: Cycle:  7   F: -42.549850694556980   dF: -3.374e-09   |Residual|: 2.724e-05   |deigs|: 2.758e-04  t[s]:     70.21
	FillingsUpdate:  mu: -0.101383159  nElectrons: 9.000000  magneticMoment: [ Abs: 0.10015  Tot: -0.10000 ]
SCF: Cycle:  8   F: -42.549850698476135   dF: -3.919e-09   |Residual|: 3.988e-05   |deigs|: 2.285e-04  t[s]:     76.88
SCF: Converged (|Delta E|<1.000000e-08 for 2 iters).


# Ionic positions in lattice coordinates:
ion Na   0.000000000000000   0.000000000000000   0.000000000000000 0

# Forces in Lattice coordinates:
force Na  -0.000000000000000   0.000000000000000   0.000000000000000 0

# Energy components:
   Eewald =       -9.0240130501663280
       EH =       24.7628978990779096
     Eloc =      -60.8062297141346875
      Enl =      -12.9025585562259444
   Epulay =        0.0000012333957556
      Exc =       -6.2093456948593904
       KE =       21.6293983009716513
-------------------------------------
     Etot =      -42.5498495819410252
       TS =        0.0000011165351079
-------------------------------------
        F =      -42.5498506984761349

IonicMinimize: Iter:   0  F: -42.549850698476135  |grad|_K:  0.000e+00  t[s]:     77.13
IonicMinimize: Converged (|grad|_K<1.000000e-04).

#--- Lowdin population analysis ---
# oxidation-state Na +0.000
# magnetic-moments Na -0.100

End date and time: Sat Feb  5 22:30:37 2022  (Duration: 0-0:01:17.21)
Done!
