The alkali metal is Na
scale=2
magnetization=0.68
--------------------------------------------------------------------------
The library attempted to open the following supporting CUDA libraries,
but each of them failed.  CUDA-aware support is disabled.
libcuda.so.1: cannot open shared object file: No such file or directory
libcuda.dylib: cannot open shared object file: No such file or directory
/usr/lib64/libcuda.so.1: cannot open shared object file: No such file or directory
/usr/lib64/libcuda.dylib: cannot open shared object file: No such file or directory
If you are not interested in CUDA-aware support, then run with
--mca opal_warn_on_missing_libcuda 0 to suppress this message.  If you are interested
in CUDA-aware support, then try setting LD_LIBRARY_PATH to the location
of libcuda.so.1 to get passed this issue.
--------------------------------------------------------------------------
--------------------------------------------------------------------------
No OpenFabrics connection schemes reported that they were able to be
used on a specific port.  As such, the openib BTL (OpenFabrics
support) will be disabled for this port.

  Local host:           d-17-1-1
  Local device:         mlx5_1
  Local port:           1
  CPCs attempted:       rdmacm, udcm
--------------------------------------------------------------------------

*************** JDFTx 1.6.0 (git hash 42ebbcc2) ***************

Start date and time: Sat Feb  5 22:33:25 2022
Executable jdftx with command-line: -i Alkali.in
Running on hosts (process indices):  d-17-1-1 (0-18)
Divided in process groups (process indices):  0 (0)  1 (1)  2 (2)  3 (3)  4 (4)  5 (5)  6 (6)  7 (7)  8 (8)  9 (9)  10 (10)  11 (11)  12 (12)  13 (13)  14 (14)  15 (15)  16 (16)  17 (17)  18 (18)
Resource initialization completed at t[s]:      0.00
Run totals: 19 processes, 48 threads, 0 GPUs


Input parsed successfully to the following command list (including defaults):

basis kpoint-dependent
coords-type Lattice
core-overlap-check vector
coulomb-interaction Slab 001
davidson-band-ratio 1.1
dump End None
dump-name $INPUT.$VAR
elec-cutoff 20
elec-eigen-algo Davidson
elec-ex-corr gga-PBE
elec-initial-magnetization 0.680000 yes
elec-smearing Fermi 1e-05
electronic-minimize  \
	dirUpdateScheme      FletcherReeves \
	linminMethod         DirUpdateRecommended \
	nIterations          100 \
	history              15 \
	knormThreshold       0 \
	energyDiffThreshold  1e-08 \
	nEnergyDiff          2 \
	alphaTstart          1 \
	alphaTmin            1e-10 \
	updateTestStepSize   yes \
	alphaTreduceFactor   0.1 \
	alphaTincreaseFactor 3 \
	nAlphaAdjustMax      3 \
	wolfeEnergy          0.0001 \
	wolfeGradient        0.9 \
	fdTest               no
electronic-scf  \
	nIterations	10000 \
	energyDiffThreshold	1e-08 \
	residualThreshold	1e-07 \
	mixFraction	0.5 \
	qMetric	0.8 \
	history	10 \
	nEigSteps	2 \
	eigDiffThreshold	1e-08 \
	mixedVariable	Density \
	qKerker	0.8 \
	qKappa	-1 \
	verbose	no \
	mixFractionMag	1.5
exchange-regularization WignerSeitzTruncated
fluid None
fluid-ex-corr (null) lda-PZ
fluid-gummel-loop 10 1.000000e-05
fluid-minimize  \
	dirUpdateScheme      PolakRibiere \
	linminMethod         DirUpdateRecommended \
	nIterations          100 \
	history              15 \
	knormThreshold       0 \
	energyDiffThreshold  0 \
	nEnergyDiff          2 \
	alphaTstart          1 \
	alphaTmin            1e-10 \
	updateTestStepSize   yes \
	alphaTreduceFactor   0.1 \
	alphaTincreaseFactor 3 \
	nAlphaAdjustMax      3 \
	wolfeEnergy          0.0001 \
	wolfeGradient        0.9 \
	fdTest               no
fluid-solvent H2O 55.338 ScalarEOS \
	epsBulk 78.4 \
	pMol 0.92466 \
	epsInf 1.77 \
	Pvap 1.06736e-10 \
	sigmaBulk 4.62e-05 \
	Rvdw 2.61727 \
	Res 1.42 \
	tauNuc 343133 \
	poleEl 15 7 1
forces-output-coords Positions
ion Na   0.000000000000000   0.000000000000000   0.000000000000000 0
ion-species SG15/$ID_ONCV_PBE.upf
ion-width 0
ionic-minimize  \
	dirUpdateScheme      L-BFGS \
	linminMethod         DirUpdateRecommended \
	nIterations          0 \
	history              15 \
	knormThreshold       0.0001 \
	energyDiffThreshold  1e-06 \
	nEnergyDiff          2 \
	alphaTstart          1 \
	alphaTmin            1e-10 \
	updateTestStepSize   yes \
	alphaTreduceFactor   0.1 \
	alphaTincreaseFactor 3 \
	nAlphaAdjustMax      3 \
	wolfeEnergy          0.0001 \
	wolfeGradient        0.9 \
	fdTest               no
kpoint   0.000000000000   0.000000000000   0.000000000000  1.00000000000000
kpoint-folding 12 12 1 
latt-move-scale 1 1 1
latt-scale 2 2 1 
lattice  \
	   4.727486978767153   -2.363743489383575    0.000000000000000  \
	  -0.000000000000000    4.094123819672498    0.000000000000000  \
	   0.000000000000000    0.000000000000000   40.000000000000000 
lattice-minimize  \
	dirUpdateScheme      L-BFGS \
	linminMethod         DirUpdateRecommended \
	nIterations          0 \
	history              15 \
	knormThreshold       0 \
	energyDiffThreshold  1e-06 \
	nEnergyDiff          2 \
	alphaTstart          1 \
	alphaTmin            1e-10 \
	updateTestStepSize   yes \
	alphaTreduceFactor   0.1 \
	alphaTincreaseFactor 3 \
	nAlphaAdjustMax      3 \
	wolfeEnergy          0.0001 \
	wolfeGradient        0.9 \
	fdTest               no
lcao-params -1 1e-06 1e-05
pcm-variant GLSSA13
spintype z-spin
subspace-rotation-factor 1 yes
symmetries automatic
symmetry-threshold 0.0001



---------- Setting up symmetries ----------

Found 24 point-group symmetries of the bravais lattice
Found 24 space-group symmetries with basis
Applied RMS atom displacement 0 bohrs to make symmetries exact.

---------- Initializing the Grid ----------
R = 
[      9.45497     -4.72749            0  ]
[            0      8.18825            0  ]
[            0            0           40  ]
unit cell volume = 3096.79
G =
[   0.664538   0.383671         -0  ]
[          0   0.767342         -0  ]
[         -0         -0    0.15708  ]
Minimum fftbox size, Smin = [  40  40  164  ]
Chosen fftbox size, S = [  40  40  168  ]

---------- Exchange Correlation functional ----------
Initalized PBE GGA exchange.
Initalized PBE GGA correlation.

---------- Setting up pseudopotentials ----------
Width of ionic core gaussian charges (only for fluid interactions / plotting) set to 0

Reading pseudopotential file '/home/gridsan/aligho/DFT/build-Nov24/pseudopotentials/SG15/Na_ONCV_PBE.upf':
  'Na' pseudopotential, 'PBE' functional
  Generated using ONCVPSP code by D. R. Hamann
  Author: Martin Schlipf and Francois Gygi  Date: 150915.
  9 valence electrons, 3 orbitals, 4 projectors, 1992 radial grid points, with lMax = 1
  Transforming local potential to a uniform radial grid of dG=0.02 with 1489 points.
  Transforming nonlocal projectors to a uniform radial grid of dG=0.02 with 432 points.
    2S    l: 0   occupation:  2.0   eigenvalue: -2.085640
    2P    l: 1   occupation:  6.0   eigenvalue: -1.053708
    3S    l: 0   occupation:  1.0   eigenvalue: -0.100838
  Transforming atomic orbitals to a uniform radial grid of dG=0.02 with 432 points.
  Core radius for overlap checks: 2.01 bohrs.
  Reading pulay file /home/gridsan/aligho/DFT/build-Nov24/pseudopotentials/SG15/Na_ONCV_PBE.pulay ... using dE_dnG = -2.946487e-03 computed for Ecut = 20.

Initialized 1 species with 1 total atoms.

Folded 1 k-points by 12x12x1 to 144 k-points.

---------- Setting up k-points, bands, fillings ----------
Reduced to 19 k-points under symmetry. 
Computing the number of bands and number of electrons
Calculating initial fillings.
nElectrons:   9.000000   nBands: 6   nStates: 38

----- Setting up reduced wavefunction bases (one per k-point) -----
average nbasis = 13230.521 , ideal nbasis = 13229.709

---------- Setting up coulomb interaction ----------
Initialized slab truncation along lattice direction 001

---------- Setting up 2D ewald sum ----------
Optimum gaussian width for ewald sums = 5.249020 bohr.
Real space sums over 289 unit cells with max indices [  8  8  0  ]
Reciprocal space sums over 81 terms with max indices [  4  4  0  ]

---------- Allocating electronic variables ----------
Initializing wave functions:  linear combination of atomic orbitals
Note: number of bands (6) exceeds available atomic orbitals (5)
Na pseudo-atom occupations:   s ( 2 1 )  p ( 6 )
	FillingsUpdate:  mu: -0.108238670  nElectrons: 9.000000  magneticMoment: [ Abs: 0.68000  Tot: +0.68000 ]
LCAOMinimize: Iter:   0  F: -42.5620504442603718  |grad|_K:  1.873e-05  alpha:  1.000e+00
	FillingsUpdate:  mu: -0.108236766  nElectrons: 9.000000  magneticMoment: [ Abs: 0.68000  Tot: +0.68000 ]
LCAOMinimize: Iter:   1  F: -42.5620506824493674  |grad|_K:  1.368e-07  alpha:  9.923e-01  linmin: -2.076e-02  cgtest:  5.538e-01  t[s]:      4.41
LCAOMinimize: Encountered beta<0, resetting CG.
[d-17-1-1:04276] 18 more processes have sent help message help-mpi-common-cuda.txt / dlopen failed
[d-17-1-1:04276] Set MCA parameter "orte_base_help_aggregate" to 0 to see all help / error messages
[d-17-1-1:04276] 18 more processes have sent help message help-mpi-btl-openib-cpc-base.txt / no cpcs for port
	FillingsUpdate:  mu: -0.108236781  nElectrons: 9.000000  magneticMoment: [ Abs: 0.68000  Tot: +0.68000 ]
LCAOMinimize: Iter:   2  F: -42.5620506824616314  |grad|_K:  1.791e-09  alpha:  1.013e+00  linmin:  9.693e-02  cgtest: -9.551e-01  t[s]:      5.55
LCAOMinimize: Converged (|Delta F|<1.000000e-06 for 2 iters).


---- Citations for features of the code used in this run ----

   Software package:
      R. Sundararaman, K. Letchworth-Weaver, K.A. Schwarz, D. Gunceler, Y. Ozhabes and T.A. Arias, 'JDFTx: software for joint density-functional theory', SoftwareX 6, 278 (2017)

   gga-PBE exchange-correlation functional:
      J.P. Perdew, K. Burke and M. Ernzerhof, Phys. Rev. Lett. 77, 3865 (1996)

   Pseudopotentials:
      M Schlipf and F Gygi, Comput. Phys. Commun. 196, 36 (2015)

   Truncated Coulomb potentials:
      R. Sundararaman and T.A. Arias, Phys. Rev. B 87, 165122 (2013)

This list may not be complete. Please suggest additional citations or
report any other bugs at https://github.com/shankar1729/jdftx/issues

Initialization completed successfully at t[s]:      5.61


-------- Electronic minimization -----------
Will mix electronic density at each iteration.
	FillingsUpdate:  mu: -0.108236781  nElectrons: 9.000000  magneticMoment: [ Abs: 0.68000  Tot: +0.68000 ]
	FillingsUpdate:  mu: -0.112240838  nElectrons: 9.000000  magneticMoment: [ Abs: 0.68000  Tot: +0.68000 ]
SCF: Cycle:  0   F: -42.567358079563405   dF: -5.307e-03   |Residual|: 1.096e-02   |deigs|: 1.701e-01  t[s]:      7.80
	FillingsUpdate:  mu: -0.112230396  nElectrons: 9.000000  magneticMoment: [ Abs: 0.68000  Tot: +0.68000 ]
SCF: Cycle:  1   F: -42.567577529731913   dF: -2.195e-04   |Residual|: 7.445e-03   |deigs|: 8.875e-03  t[s]:      9.43
	FillingsUpdate:  mu: -0.112257117  nElectrons: 9.000000  magneticMoment: [ Abs: 0.68139  Tot: +0.68000 ]
SCF: Cycle:  2   F: -42.567618246587237   dF: -4.072e-05   |Residual|: 4.739e-03   |deigs|: 6.012e-03  t[s]:     11.13
	FillingsUpdate:  mu: -0.112011752  nElectrons: 9.000000  magneticMoment: [ Abs: 0.68016  Tot: +0.68000 ]
SCF: Cycle:  3   F: -42.567620197721673   dF: -1.951e-06   |Residual|: 2.724e-03   |deigs|: 6.322e-03  t[s]:     12.80
	FillingsUpdate:  mu: -0.111936732  nElectrons: 9.000000  magneticMoment: [ Abs: 0.68018  Tot: +0.68000 ]
SCF: Cycle:  4   F: -42.567645441048356   dF: -2.524e-05   |Residual|: 1.074e-03   |deigs|: 2.933e-03  t[s]:     14.51
	FillingsUpdate:  mu: -0.111755390  nElectrons: 9.000000  magneticMoment: [ Abs: 0.68034  Tot: +0.68000 ]
SCF: Cycle:  5   F: -42.567649920385627   dF: -4.479e-06   |Residual|: 8.260e-04   |deigs|: 1.726e-03  t[s]:     16.21
	FillingsUpdate:  mu: -0.111145990  nElectrons: 9.000000  magneticMoment: [ Abs: 0.68058  Tot: +0.68000 ]
SCF: Cycle:  6   F: -42.567651447543767   dF: -1.527e-06   |Residual|: 6.180e-04   |deigs|: 1.210e-03  t[s]:     17.97
	FillingsUpdate:  mu: -0.110356538  nElectrons: 9.000000  magneticMoment: [ Abs: 0.68221  Tot: +0.68000 ]
SCF: Cycle:  7   F: -42.567650921726333   dF: +5.258e-07   |Residual|: 4.561e-04   |deigs|: 1.037e-03  t[s]:     19.76
	FillingsUpdate:  mu: -0.109527850  nElectrons: 9.000000  magneticMoment: [ Abs: 0.68220  Tot: +0.68000 ]
SCF: Cycle:  8   F: -42.567650247898335   dF: +6.738e-07   |Residual|: 3.777e-04   |deigs|: 1.081e-03  t[s]:     21.60
	FillingsUpdate:  mu: -0.109101440  nElectrons: 9.000000  magneticMoment: [ Abs: 0.68110  Tot: +0.68000 ]
SCF: Cycle:  9   F: -42.567652088398482   dF: -1.841e-06   |Residual|: 3.315e-04   |deigs|: 5.450e-04  t[s]:     23.44
	FillingsUpdate:  mu: -0.109116695  nElectrons: 9.000000  magneticMoment: [ Abs: 0.68089  Tot: +0.68000 ]
SCF: Cycle: 10   F: -42.567653370701116   dF: -1.282e-06   |Residual|: 2.243e-04   |deigs|: 2.347e-04  t[s]:     25.41
	FillingsUpdate:  mu: -0.108556141  nElectrons: 9.000000  magneticMoment: [ Abs: 0.68155  Tot: +0.68000 ]
SCF: Cycle: 11   F: -42.567653025277984   dF: +3.454e-07   |Residual|: 2.154e-04   |deigs|: 6.408e-04  t[s]:     27.25
	FillingsUpdate:  mu: -0.108009832  nElectrons: 9.000000  magneticMoment: [ Abs: 0.68106  Tot: +0.68000 ]
SCF: Cycle: 12   F: -42.567652283504792   dF: +7.418e-07   |Residual|: 1.954e-04   |deigs|: 5.724e-04  t[s]:     29.10
	FillingsUpdate:  mu: -0.107724935  nElectrons: 9.000000  magneticMoment: [ Abs: 0.68148  Tot: +0.68000 ]
SCF: Cycle: 13   F: -42.567653181479855   dF: -8.980e-07   |Residual|: 1.741e-04   |deigs|: 2.837e-04  t[s]:     31.01
	FillingsUpdate:  mu: -0.107365222  nElectrons: 9.000000  magneticMoment: [ Abs: 0.68154  Tot: +0.68000 ]
SCF: Cycle: 14   F: -42.567654042968108   dF: -8.615e-07   |Residual|: 1.567e-04   |deigs|: 3.867e-04  t[s]:     32.89
	FillingsUpdate:  mu: -0.106737010  nElectrons: 9.000000  magneticMoment: [ Abs: 0.68098  Tot: +0.68000 ]
SCF: Cycle: 15   F: -42.567654540459309   dF: -4.975e-07   |Residual|: 1.529e-04   |deigs|: 6.855e-04  t[s]:     34.73
	FillingsUpdate:  mu: -0.106329646  nElectrons: 9.000000  magneticMoment: [ Abs: 0.68067  Tot: +0.68000 ]
SCF: Cycle: 16   F: -42.567654821958790   dF: -2.815e-07   |Residual|: 1.279e-04   |deigs|: 3.976e-04  t[s]:     36.52
	FillingsUpdate:  mu: -0.106010017  nElectrons: 9.000000  magneticMoment: [ Abs: 0.68062  Tot: +0.68000 ]
SCF: Cycle: 17   F: -42.567655081058966   dF: -2.591e-07   |Residual|: 7.944e-05   |deigs|: 2.864e-04  t[s]:     38.40
	FillingsUpdate:  mu: -0.105853128  nElectrons: 9.000000  magneticMoment: [ Abs: 0.68041  Tot: +0.68000 ]
SCF: Cycle: 18   F: -42.567655169560133   dF: -8.850e-08   |Residual|: 6.146e-05   |deigs|: 6.991e-04  t[s]:     40.31
	FillingsUpdate:  mu: -0.105764445  nElectrons: 9.000000  magneticMoment: [ Abs: 0.68042  Tot: +0.68000 ]
SCF: Cycle: 19   F: -42.567655217154517   dF: -4.759e-08   |Residual|: 3.725e-05   |deigs|: 2.797e-04  t[s]:     42.18
	FillingsUpdate:  mu: -0.105728234  nElectrons: 9.000000  magneticMoment: [ Abs: 0.68049  Tot: +0.68000 ]
SCF: Cycle: 20   F: -42.567655233575969   dF: -1.642e-08   |Residual|: 2.201e-05   |deigs|: 8.321e-05  t[s]:     44.01
	FillingsUpdate:  mu: -0.105724681  nElectrons: 9.000000  magneticMoment: [ Abs: 0.68042  Tot: +0.68000 ]
SCF: Cycle: 21   F: -42.567655237887180   dF: -4.311e-09   |Residual|: 1.406e-05   |deigs|: 7.037e-04  t[s]:     45.81
	FillingsUpdate:  mu: -0.105732827  nElectrons: 9.000000  magneticMoment: [ Abs: 0.68037  Tot: +0.68000 ]
SCF: Cycle: 22   F: -42.567655240698357   dF: -2.811e-09   |Residual|: 9.886e-06   |deigs|: 7.846e-05  t[s]:     47.67
SCF: Converged (|Delta E|<1.000000e-08 for 2 iters).


# Ionic positions in lattice coordinates:
ion Na   0.000000000000000   0.000000000000000   0.000000000000000 0

# Forces in Lattice coordinates:
force Na  -0.000000000000000  -0.000000000000000   0.000000000000000 0

# Energy components:
   Eewald =      -18.0480261003326561
       EH =       15.7432484304129261
     Eloc =      -42.7560042318261324
      Enl =      -12.9145847904330839
   Epulay =        0.0000007725295140
      Exc =       -6.2205336411213459
       KE =       21.6282448710224955
-------------------------------------
     Etot =      -42.5676546897482879
       TS =        0.0000005509500668
-------------------------------------
        F =      -42.5676552406983575

IonicMinimize: Iter:   0  F: -42.567655240698357  |grad|_K:  0.000e+00  t[s]:     47.74
IonicMinimize: Converged (|grad|_K<1.000000e-04).

#--- Lowdin population analysis ---
# oxidation-state Na +0.078
# magnetic-moments Na +0.605

End date and time: Sat Feb  5 22:34:13 2022  (Duration: 0-0:00:47.76)
Done!
scale=3
magnetization=0.68
--------------------------------------------------------------------------
The library attempted to open the following supporting CUDA libraries,
but each of them failed.  CUDA-aware support is disabled.
libcuda.so.1: cannot open shared object file: No such file or directory
libcuda.dylib: cannot open shared object file: No such file or directory
/usr/lib64/libcuda.so.1: cannot open shared object file: No such file or directory
/usr/lib64/libcuda.dylib: cannot open shared object file: No such file or directory
If you are not interested in CUDA-aware support, then run with
--mca opal_warn_on_missing_libcuda 0 to suppress this message.  If you are interested
in CUDA-aware support, then try setting LD_LIBRARY_PATH to the location
of libcuda.so.1 to get passed this issue.
--------------------------------------------------------------------------
--------------------------------------------------------------------------
No OpenFabrics connection schemes reported that they were able to be
used on a specific port.  As such, the openib BTL (OpenFabrics
support) will be disabled for this port.

  Local host:           d-17-1-1
  Local device:         mlx5_1
  Local port:           1
  CPCs attempted:       rdmacm, udcm
--------------------------------------------------------------------------

*************** JDFTx 1.6.0 (git hash 42ebbcc2) ***************

Start date and time: Sat Feb  5 22:34:14 2022
Executable jdftx with command-line: -i Alkali.in
Running on hosts (process indices):  d-17-1-1 (0-18)
Divided in process groups (process indices):  0 (0)  1 (1)  2 (2)  3 (3)  4 (4)  5 (5)  6 (6)  7 (7)  8 (8)  9 (9)  10 (10)  11 (11)  12 (12)  13 (13)  14 (14)  15 (15)  16 (16)  17 (17)  18 (18)
Resource initialization completed at t[s]:      0.00
Run totals: 19 processes, 48 threads, 0 GPUs


Input parsed successfully to the following command list (including defaults):

basis kpoint-dependent
coords-type Lattice
core-overlap-check vector
coulomb-interaction Slab 001
davidson-band-ratio 1.1
dump End None
dump-name $INPUT.$VAR
elec-cutoff 20
elec-eigen-algo Davidson
elec-ex-corr gga-PBE
elec-initial-magnetization 0.680000 yes
elec-smearing Fermi 1e-05
electronic-minimize  \
	dirUpdateScheme      FletcherReeves \
	linminMethod         DirUpdateRecommended \
	nIterations          100 \
	history              15 \
	knormThreshold       0 \
	energyDiffThreshold  1e-08 \
	nEnergyDiff          2 \
	alphaTstart          1 \
	alphaTmin            1e-10 \
	updateTestStepSize   yes \
	alphaTreduceFactor   0.1 \
	alphaTincreaseFactor 3 \
	nAlphaAdjustMax      3 \
	wolfeEnergy          0.0001 \
	wolfeGradient        0.9 \
	fdTest               no
electronic-scf  \
	nIterations	10000 \
	energyDiffThreshold	1e-08 \
	residualThreshold	1e-07 \
	mixFraction	0.5 \
	qMetric	0.8 \
	history	10 \
	nEigSteps	2 \
	eigDiffThreshold	1e-08 \
	mixedVariable	Density \
	qKerker	0.8 \
	qKappa	-1 \
	verbose	no \
	mixFractionMag	1.5
exchange-regularization WignerSeitzTruncated
fluid None
fluid-ex-corr (null) lda-PZ
fluid-gummel-loop 10 1.000000e-05
fluid-minimize  \
	dirUpdateScheme      PolakRibiere \
	linminMethod         DirUpdateRecommended \
	nIterations          100 \
	history              15 \
	knormThreshold       0 \
	energyDiffThreshold  0 \
	nEnergyDiff          2 \
	alphaTstart          1 \
	alphaTmin            1e-10 \
	updateTestStepSize   yes \
	alphaTreduceFactor   0.1 \
	alphaTincreaseFactor 3 \
	nAlphaAdjustMax      3 \
	wolfeEnergy          0.0001 \
	wolfeGradient        0.9 \
	fdTest               no
fluid-solvent H2O 55.338 ScalarEOS \
	epsBulk 78.4 \
	pMol 0.92466 \
	epsInf 1.77 \
	Pvap 1.06736e-10 \
	sigmaBulk 4.62e-05 \
	Rvdw 2.61727 \
	Res 1.42 \
	tauNuc 343133 \
	poleEl 15 7 1
forces-output-coords Positions
ion Na   0.000000000000000   0.000000000000000   0.000000000000000 0
ion-species SG15/$ID_ONCV_PBE.upf
ion-width 0
ionic-minimize  \
	dirUpdateScheme      L-BFGS \
	linminMethod         DirUpdateRecommended \
	nIterations          0 \
	history              15 \
	knormThreshold       0.0001 \
	energyDiffThreshold  1e-06 \
	nEnergyDiff          2 \
	alphaTstart          1 \
	alphaTmin            1e-10 \
	updateTestStepSize   yes \
	alphaTreduceFactor   0.1 \
	alphaTincreaseFactor 3 \
	nAlphaAdjustMax      3 \
	wolfeEnergy          0.0001 \
	wolfeGradient        0.9 \
	fdTest               no
kpoint   0.000000000000   0.000000000000   0.000000000000  1.00000000000000
kpoint-folding 12 12 1 
latt-move-scale 1 1 1
latt-scale 3 3 1 
lattice  \
	   4.727486978767153   -2.363743489383575    0.000000000000000  \
	  -0.000000000000000    4.094123819672498    0.000000000000000  \
	   0.000000000000000    0.000000000000000   40.000000000000000 
lattice-minimize  \
	dirUpdateScheme      L-BFGS \
	linminMethod         DirUpdateRecommended \
	nIterations          0 \
	history              15 \
	knormThreshold       0 \
	energyDiffThreshold  1e-06 \
	nEnergyDiff          2 \
	alphaTstart          1 \
	alphaTmin            1e-10 \
	updateTestStepSize   yes \
	alphaTreduceFactor   0.1 \
	alphaTincreaseFactor 3 \
	nAlphaAdjustMax      3 \
	wolfeEnergy          0.0001 \
	wolfeGradient        0.9 \
	fdTest               no
lcao-params -1 1e-06 1e-05
pcm-variant GLSSA13
spintype z-spin
subspace-rotation-factor 1 yes
symmetries automatic
symmetry-threshold 0.0001



---------- Setting up symmetries ----------

Found 24 point-group symmetries of the bravais lattice
Found 24 space-group symmetries with basis
Applied RMS atom displacement 0 bohrs to make symmetries exact.

---------- Initializing the Grid ----------
R = 
[      14.1825     -7.09123            0  ]
[            0      12.2824            0  ]
[            0            0           40  ]
unit cell volume = 6967.77
G =
[   0.443025   0.255781         -0  ]
[          0   0.511561         -0  ]
[         -0         -0    0.15708  ]
Minimum fftbox size, Smin = [  60  60  164  ]
Chosen fftbox size, S = [  60  60  168  ]

---------- Exchange Correlation functional ----------
Initalized PBE GGA exchange.
Initalized PBE GGA correlation.

---------- Setting up pseudopotentials ----------
Width of ionic core gaussian charges (only for fluid interactions / plotting) set to 0

Reading pseudopotential file '/home/gridsan/aligho/DFT/build-Nov24/pseudopotentials/SG15/Na_ONCV_PBE.upf':
  'Na' pseudopotential, 'PBE' functional
  Generated using ONCVPSP code by D. R. Hamann
  Author: Martin Schlipf and Francois Gygi  Date: 150915.
  9 valence electrons, 3 orbitals, 4 projectors, 1992 radial grid points, with lMax = 1
  Transforming local potential to a uniform radial grid of dG=0.02 with 1489 points.
  Transforming nonlocal projectors to a uniform radial grid of dG=0.02 with 432 points.
    2S    l: 0   occupation:  2.0   eigenvalue: -2.085640
    2P    l: 1   occupation:  6.0   eigenvalue: -1.053708
    3S    l: 0   occupation:  1.0   eigenvalue: -0.100838
  Transforming atomic orbitals to a uniform radial grid of dG=0.02 with 432 points.
  Core radius for overlap checks: 2.01 bohrs.
  Reading pulay file /home/gridsan/aligho/DFT/build-Nov24/pseudopotentials/SG15/Na_ONCV_PBE.pulay ... using dE_dnG = -2.946487e-03 computed for Ecut = 20.

Initialized 1 species with 1 total atoms.

Folded 1 k-points by 12x12x1 to 144 k-points.

---------- Setting up k-points, bands, fillings ----------
Reduced to 19 k-points under symmetry. 
Computing the number of bands and number of electrons
Calculating initial fillings.
nElectrons:   9.000000   nBands: 6   nStates: 38

----- Setting up reduced wavefunction bases (one per k-point) -----
average nbasis = 29766.104 , ideal nbasis = 29766.845

---------- Setting up coulomb interaction ----------
Initialized slab truncation along lattice direction 001

---------- Setting up 2D ewald sum ----------
Optimum gaussian width for ewald sums = 7.873530 bohr.
Real space sums over 289 unit cells with max indices [  8  8  0  ]
Reciprocal space sums over 81 terms with max indices [  4  4  0  ]

---------- Allocating electronic variables ----------
Initializing wave functions:  linear combination of atomic orbitals
Note: number of bands (6) exceeds available atomic orbitals (5)
Na pseudo-atom occupations:   s ( 2 1 )  p ( 6 )
[d-17-1-1:47496] 18 more processes have sent help message help-mpi-common-cuda.txt / dlopen failed
[d-17-1-1:47496] Set MCA parameter "orte_base_help_aggregate" to 0 to see all help / error messages
[d-17-1-1:47496] 18 more processes have sent help message help-mpi-btl-openib-cpc-base.txt / no cpcs for port
	FillingsUpdate:  mu: -0.101888422  nElectrons: 9.000000  magneticMoment: [ Abs: 0.68000  Tot: +0.68000 ]
LCAOMinimize: Iter:   0  F: -42.5546457707215211  |grad|_K:  5.749e-06  alpha:  1.000e+00
	FillingsUpdate:  mu: -0.101887173  nElectrons: 9.000000  magneticMoment: [ Abs: 0.68000  Tot: +0.68000 ]
LCAOMinimize: Iter:   1  F: -42.5546457932259443  |grad|_K:  2.698e-08  alpha:  9.956e-01  linmin: -1.783e-03  cgtest:  2.718e-01  t[s]:      8.54
LCAOMinimize: Encountered beta<0, resetting CG.
	FillingsUpdate:  mu: -0.101887173  nElectrons: 9.000000  magneticMoment: [ Abs: 0.68000  Tot: +0.68000 ]
LCAOMinimize: Iter:   2  F: -42.5546457932264772  |grad|_K:  1.384e-08  alpha:  4.856e-01  linmin: -3.434e-02  cgtest:  1.000e+00  t[s]:     10.91
LCAOMinimize: Encountered beta<0, resetting CG.
LCAOMinimize: Converged (|Delta F|<1.000000e-06 for 2 iters).


---- Citations for features of the code used in this run ----

   Software package:
      R. Sundararaman, K. Letchworth-Weaver, K.A. Schwarz, D. Gunceler, Y. Ozhabes and T.A. Arias, 'JDFTx: software for joint density-functional theory', SoftwareX 6, 278 (2017)

   gga-PBE exchange-correlation functional:
      J.P. Perdew, K. Burke and M. Ernzerhof, Phys. Rev. Lett. 77, 3865 (1996)

   Pseudopotentials:
      M Schlipf and F Gygi, Comput. Phys. Commun. 196, 36 (2015)

   Truncated Coulomb potentials:
      R. Sundararaman and T.A. Arias, Phys. Rev. B 87, 165122 (2013)

This list may not be complete. Please suggest additional citations or
report any other bugs at https://github.com/shankar1729/jdftx/issues

Initialization completed successfully at t[s]:     11.01


-------- Electronic minimization -----------
Will mix electronic density at each iteration.
	FillingsUpdate:  mu: -0.101887173  nElectrons: 9.000000  magneticMoment: [ Abs: 0.68000  Tot: +0.68000 ]
	FillingsUpdate:  mu: -0.102153718  nElectrons: 9.000000  magneticMoment: [ Abs: 0.68000  Tot: +0.68000 ]
SCF: Cycle:  0   F: -42.554909081138014   dF: -2.633e-04   |Residual|: 2.220e-03   |deigs|: 1.706e-01  t[s]:     15.30
	FillingsUpdate:  mu: -0.102210340  nElectrons: 9.000000  magneticMoment: [ Abs: 0.68153  Tot: +0.68000 ]
SCF: Cycle:  1   F: -42.554912322946386   dF: -3.242e-06   |Residual|: 8.944e-04   |deigs|: 7.751e-03  t[s]:     18.64
	FillingsUpdate:  mu: -0.102166750  nElectrons: 9.000000  magneticMoment: [ Abs: 0.68118  Tot: +0.68000 ]
SCF: Cycle:  2   F: -42.554912965646942   dF: -6.427e-07   |Residual|: 4.546e-04   |deigs|: 2.616e-03  t[s]:     22.06
	FillingsUpdate:  mu: -0.102164133  nElectrons: 9.000000  magneticMoment: [ Abs: 0.68144  Tot: +0.68000 ]
SCF: Cycle:  3   F: -42.554913359600590   dF: -3.940e-07   |Residual|: 2.669e-04   |deigs|: 1.147e-03  t[s]:     25.61
	FillingsUpdate:  mu: -0.102138280  nElectrons: 9.000000  magneticMoment: [ Abs: 0.68131  Tot: +0.68000 ]
SCF: Cycle:  4   F: -42.554913605052484   dF: -2.455e-07   |Residual|: 2.073e-04   |deigs|: 6.206e-04  t[s]:     29.10
	FillingsUpdate:  mu: -0.102085318  nElectrons: 9.000000  magneticMoment: [ Abs: 0.68134  Tot: +0.68000 ]
SCF: Cycle:  5   F: -42.554913999888498   dF: -3.948e-07   |Residual|: 1.375e-04   |deigs|: 2.859e-04  t[s]:     32.71
	FillingsUpdate:  mu: -0.102040371  nElectrons: 9.000000  magneticMoment: [ Abs: 0.68133  Tot: +0.68000 ]
SCF: Cycle:  6   F: -42.554914146982178   dF: -1.471e-07   |Residual|: 9.912e-05   |deigs|: 4.113e-04  t[s]:     36.34
	FillingsUpdate:  mu: -0.102002798  nElectrons: 9.000000  magneticMoment: [ Abs: 0.68136  Tot: +0.68000 ]
SCF: Cycle:  7   F: -42.554914235983446   dF: -8.900e-08   |Residual|: 7.427e-05   |deigs|: 6.367e-04  t[s]:     40.07
	FillingsUpdate:  mu: -0.101975256  nElectrons: 9.000000  magneticMoment: [ Abs: 0.68131  Tot: +0.68000 ]
SCF: Cycle:  8   F: -42.554914285926415   dF: -4.994e-08   |Residual|: 6.088e-05   |deigs|: 8.037e-04  t[s]:     43.76
	FillingsUpdate:  mu: -0.101921350  nElectrons: 9.000000  magneticMoment: [ Abs: 0.68147  Tot: +0.68000 ]
SCF: Cycle:  9   F: -42.554914279612575   dF: +6.314e-09   |Residual|: 4.942e-05   |deigs|: 4.113e-04  t[s]:     47.61
	FillingsUpdate:  mu: -0.101897850  nElectrons: 9.000000  magneticMoment: [ Abs: 0.68141  Tot: +0.68000 ]
SCF: Cycle: 10   F: -42.554914188724567   dF: +9.089e-08   |Residual|: 4.264e-05   |deigs|: 2.641e-04  t[s]:     51.48
	FillingsUpdate:  mu: -0.101853522  nElectrons: 9.000000  magneticMoment: [ Abs: 0.68151  Tot: +0.68000 ]
SCF: Cycle: 11   F: -42.554913855132057   dF: +3.336e-07   |Residual|: 3.501e-05   |deigs|: 2.222e-04  t[s]:     55.42
	FillingsUpdate:  mu: -0.101832635  nElectrons: 9.000000  magneticMoment: [ Abs: 0.68154  Tot: +0.68000 ]
SCF: Cycle: 12   F: -42.554914293071874   dF: -4.379e-07   |Residual|: 3.185e-05   |deigs|: 7.581e-05  t[s]:     59.28
	FillingsUpdate:  mu: -0.101767448  nElectrons: 9.000000  magneticMoment: [ Abs: 0.68163  Tot: +0.68000 ]
SCF: Cycle: 13   F: -42.554914280205715   dF: +1.287e-08   |Residual|: 2.937e-05   |deigs|: 8.454e-05  t[s]:     63.07
	FillingsUpdate:  mu: -0.101668511  nElectrons: 9.000000  magneticMoment: [ Abs: 0.68160  Tot: +0.68000 ]
SCF: Cycle: 14   F: -42.554914232783410   dF: +4.742e-08   |Residual|: 2.948e-05   |deigs|: 1.148e-04  t[s]:     67.10
	FillingsUpdate:  mu: -0.101623218  nElectrons: 9.000000  magneticMoment: [ Abs: 0.68144  Tot: +0.68000 ]
SCF: Cycle: 15   F: -42.554914299772932   dF: -6.699e-08   |Residual|: 2.623e-05   |deigs|: 7.466e-05  t[s]:     70.92
	FillingsUpdate:  mu: -0.101604776  nElectrons: 9.000000  magneticMoment: [ Abs: 0.68140  Tot: +0.68000 ]
SCF: Cycle: 16   F: -42.554914327192769   dF: -2.742e-08   |Residual|: 2.169e-05   |deigs|: 4.713e-05  t[s]:     74.73
	FillingsUpdate:  mu: -0.101540957  nElectrons: 9.000000  magneticMoment: [ Abs: 0.68139  Tot: +0.68000 ]
SCF: Cycle: 17   F: -42.554914337017131   dF: -9.824e-09   |Residual|: 1.875e-05   |deigs|: 6.951e-05  t[s]:     78.65
	FillingsUpdate:  mu: -0.101517331  nElectrons: 9.000000  magneticMoment: [ Abs: 0.68135  Tot: +0.68000 ]
SCF: Cycle: 18   F: -42.554914373513093   dF: -3.650e-08   |Residual|: 1.379e-05   |deigs|: 3.469e-05  t[s]:     82.60
	FillingsUpdate:  mu: -0.101527155  nElectrons: 9.000000  magneticMoment: [ Abs: 0.68134  Tot: +0.68000 ]
SCF: Cycle: 19   F: -42.554914381270947   dF: -7.758e-09   |Residual|: 8.314e-06   |deigs|: 2.808e-05  t[s]:     86.45
	FillingsUpdate:  mu: -0.101528470  nElectrons: 9.000000  magneticMoment: [ Abs: 0.68134  Tot: +0.68000 ]
SCF: Cycle: 20   F: -42.554914384039414   dF: -2.768e-09   |Residual|: 4.932e-06   |deigs|: 1.753e-05  t[s]:     90.35
SCF: Converged (|Delta E|<1.000000e-08 for 2 iters).


# Ionic positions in lattice coordinates:
ion Na   0.000000000000000   0.000000000000000   0.000000000000000 0

# Forces in Lattice coordinates:
force Na  -0.000000000000000  -0.000000000000000   0.000000000000000 0

# Energy components:
   Eewald =      -12.0320174002217755
       EH =       21.7534951299907497
     Eloc =      -54.7882376852002082
      Enl =      -12.9043005371000827
   Epulay =       -0.0000003132867683
      Exc =       -6.2128992484501477
       KE =       21.6290464174679542
-------------------------------------
     Etot =      -42.5549136368002863
       TS =        0.0000007472391296
-------------------------------------
        F =      -42.5549143840394137

IonicMinimize: Iter:   0  F: -42.554914384039414  |grad|_K:  0.000e+00  t[s]:     90.49
IonicMinimize: Converged (|grad|_K<1.000000e-04).

#--- Lowdin population analysis ---
# oxidation-state Na +0.002
# magnetic-moments Na +0.678

End date and time: Sat Feb  5 22:35:45 2022  (Duration: 0-0:01:30.53)
Done!
scale=4
magnetization=0.68
--------------------------------------------------------------------------
The library attempted to open the following supporting CUDA libraries,
but each of them failed.  CUDA-aware support is disabled.
libcuda.so.1: cannot open shared object file: No such file or directory
libcuda.dylib: cannot open shared object file: No such file or directory
/usr/lib64/libcuda.so.1: cannot open shared object file: No such file or directory
/usr/lib64/libcuda.dylib: cannot open shared object file: No such file or directory
If you are not interested in CUDA-aware support, then run with
--mca opal_warn_on_missing_libcuda 0 to suppress this message.  If you are interested
in CUDA-aware support, then try setting LD_LIBRARY_PATH to the location
of libcuda.so.1 to get passed this issue.
--------------------------------------------------------------------------
--------------------------------------------------------------------------
No OpenFabrics connection schemes reported that they were able to be
used on a specific port.  As such, the openib BTL (OpenFabrics
support) will be disabled for this port.

  Local host:           d-17-1-1
  Local device:         mlx5_1
  Local port:           1
  CPCs attempted:       rdmacm, udcm
--------------------------------------------------------------------------

*************** JDFTx 1.6.0 (git hash 42ebbcc2) ***************

Start date and time: Sat Feb  5 22:35:46 2022
Executable jdftx with command-line: -i Alkali.in
Running on hosts (process indices):  d-17-1-1 (0-18)
Divided in process groups (process indices):  0 (0)  1 (1)  2 (2)  3 (3)  4 (4)  5 (5)  6 (6)  7 (7)  8 (8)  9 (9)  10 (10)  11 (11)  12 (12)  13 (13)  14 (14)  15 (15)  16 (16)  17 (17)  18 (18)
Resource initialization completed at t[s]:      0.00
Run totals: 19 processes, 48 threads, 0 GPUs


Input parsed successfully to the following command list (including defaults):

basis kpoint-dependent
coords-type Lattice
core-overlap-check vector
coulomb-interaction Slab 001
davidson-band-ratio 1.1
dump End None
dump-name $INPUT.$VAR
elec-cutoff 20
elec-eigen-algo Davidson
elec-ex-corr gga-PBE
elec-initial-magnetization 0.680000 yes
elec-smearing Fermi 1e-05
electronic-minimize  \
	dirUpdateScheme      FletcherReeves \
	linminMethod         DirUpdateRecommended \
	nIterations          100 \
	history              15 \
	knormThreshold       0 \
	energyDiffThreshold  1e-08 \
	nEnergyDiff          2 \
	alphaTstart          1 \
	alphaTmin            1e-10 \
	updateTestStepSize   yes \
	alphaTreduceFactor   0.1 \
	alphaTincreaseFactor 3 \
	nAlphaAdjustMax      3 \
	wolfeEnergy          0.0001 \
	wolfeGradient        0.9 \
	fdTest               no
electronic-scf  \
	nIterations	10000 \
	energyDiffThreshold	1e-08 \
	residualThreshold	1e-07 \
	mixFraction	0.5 \
	qMetric	0.8 \
	history	10 \
	nEigSteps	2 \
	eigDiffThreshold	1e-08 \
	mixedVariable	Density \
	qKerker	0.8 \
	qKappa	-1 \
	verbose	no \
	mixFractionMag	1.5
exchange-regularization WignerSeitzTruncated
fluid None
fluid-ex-corr (null) lda-PZ
fluid-gummel-loop 10 1.000000e-05
fluid-minimize  \
	dirUpdateScheme      PolakRibiere \
	linminMethod         DirUpdateRecommended \
	nIterations          100 \
	history              15 \
	knormThreshold       0 \
	energyDiffThreshold  0 \
	nEnergyDiff          2 \
	alphaTstart          1 \
	alphaTmin            1e-10 \
	updateTestStepSize   yes \
	alphaTreduceFactor   0.1 \
	alphaTincreaseFactor 3 \
	nAlphaAdjustMax      3 \
	wolfeEnergy          0.0001 \
	wolfeGradient        0.9 \
	fdTest               no
fluid-solvent H2O 55.338 ScalarEOS \
	epsBulk 78.4 \
	pMol 0.92466 \
	epsInf 1.77 \
	Pvap 1.06736e-10 \
	sigmaBulk 4.62e-05 \
	Rvdw 2.61727 \
	Res 1.42 \
	tauNuc 343133 \
	poleEl 15 7 1
forces-output-coords Positions
ion Na   0.000000000000000   0.000000000000000   0.000000000000000 0
ion-species SG15/$ID_ONCV_PBE.upf
ion-width 0
ionic-minimize  \
	dirUpdateScheme      L-BFGS \
	linminMethod         DirUpdateRecommended \
	nIterations          0 \
	history              15 \
	knormThreshold       0.0001 \
	energyDiffThreshold  1e-06 \
	nEnergyDiff          2 \
	alphaTstart          1 \
	alphaTmin            1e-10 \
	updateTestStepSize   yes \
	alphaTreduceFactor   0.1 \
	alphaTincreaseFactor 3 \
	nAlphaAdjustMax      3 \
	wolfeEnergy          0.0001 \
	wolfeGradient        0.9 \
	fdTest               no
kpoint   0.000000000000   0.000000000000   0.000000000000  1.00000000000000
kpoint-folding 12 12 1 
latt-move-scale 1 1 1
latt-scale 4 4 1 
lattice  \
	   4.727486978767153   -2.363743489383575    0.000000000000000  \
	  -0.000000000000000    4.094123819672498    0.000000000000000  \
	   0.000000000000000    0.000000000000000   40.000000000000000 
lattice-minimize  \
	dirUpdateScheme      L-BFGS \
	linminMethod         DirUpdateRecommended \
	nIterations          0 \
	history              15 \
	knormThreshold       0 \
	energyDiffThreshold  1e-06 \
	nEnergyDiff          2 \
	alphaTstart          1 \
	alphaTmin            1e-10 \
	updateTestStepSize   yes \
	alphaTreduceFactor   0.1 \
	alphaTincreaseFactor 3 \
	nAlphaAdjustMax      3 \
	wolfeEnergy          0.0001 \
	wolfeGradient        0.9 \
	fdTest               no
lcao-params -1 1e-06 1e-05
pcm-variant GLSSA13
spintype z-spin
subspace-rotation-factor 1 yes
symmetries automatic
symmetry-threshold 0.0001



---------- Setting up symmetries ----------

Found 24 point-group symmetries of the bravais lattice
Found 24 space-group symmetries with basis
Applied RMS atom displacement 0 bohrs to make symmetries exact.

---------- Initializing the Grid ----------
R = 
[      18.9099     -9.45497            0  ]
[            0      16.3765            0  ]
[            0            0           40  ]
unit cell volume = 12387.1
G =
[   0.332269   0.191835         -0  ]
[          0   0.383671         -0  ]
[         -0         -0    0.15708  ]
Minimum fftbox size, Smin = [  80  80  164  ]
Chosen fftbox size, S = [  80  80  168  ]

---------- Exchange Correlation functional ----------
Initalized PBE GGA exchange.
Initalized PBE GGA correlation.

---------- Setting up pseudopotentials ----------
Width of ionic core gaussian charges (only for fluid interactions / plotting) set to 0

Reading pseudopotential file '/home/gridsan/aligho/DFT/build-Nov24/pseudopotentials/SG15/Na_ONCV_PBE.upf':
  'Na' pseudopotential, 'PBE' functional
  Generated using ONCVPSP code by D. R. Hamann
  Author: Martin Schlipf and Francois Gygi  Date: 150915.
  9 valence electrons, 3 orbitals, 4 projectors, 1992 radial grid points, with lMax = 1
  Transforming local potential to a uniform radial grid of dG=0.02 with 1489 points.
  Transforming nonlocal projectors to a uniform radial grid of dG=0.02 with 432 points.
    2S    l: 0   occupation:  2.0   eigenvalue: -2.085640
    2P    l: 1   occupation:  6.0   eigenvalue: -1.053708
    3S    l: 0   occupation:  1.0   eigenvalue: -0.100838
  Transforming atomic orbitals to a uniform radial grid of dG=0.02 with 432 points.
  Core radius for overlap checks: 2.01 bohrs.
  Reading pulay file /home/gridsan/aligho/DFT/build-Nov24/pseudopotentials/SG15/Na_ONCV_PBE.pulay ... using dE_dnG = -2.946487e-03 computed for Ecut = 20.

Initialized 1 species with 1 total atoms.

Folded 1 k-points by 12x12x1 to 144 k-points.

---------- Setting up k-points, bands, fillings ----------
Reduced to 19 k-points under symmetry. 
Computing the number of bands and number of electrons
Calculating initial fillings.
nElectrons:   9.000000   nBands: 6   nStates: 38

----- Setting up reduced wavefunction bases (one per k-point) -----
average nbasis = 52924.021 , ideal nbasis = 52918.836

---------- Setting up coulomb interaction ----------
Initialized slab truncation along lattice direction 001

---------- Setting up 2D ewald sum ----------
Optimum gaussian width for ewald sums = 10.498040 bohr.
Real space sums over 289 unit cells with max indices [  8  8  0  ]
Reciprocal space sums over 81 terms with max indices [  4  4  0  ]

---------- Allocating electronic variables ----------
Initializing wave functions:  linear combination of atomic orbitals
Note: number of bands (6) exceeds available atomic orbitals (5)
Na pseudo-atom occupations:   s ( 2 1 )  p ( 6 )
[d-17-1-1:92448] 18 more processes have sent help message help-mpi-common-cuda.txt / dlopen failed
[d-17-1-1:92448] Set MCA parameter "orte_base_help_aggregate" to 0 to see all help / error messages
[d-17-1-1:92448] 18 more processes have sent help message help-mpi-btl-openib-cpc-base.txt / no cpcs for port
	FillingsUpdate:  mu: -0.100011050  nElectrons: 9.000000  magneticMoment: [ Abs: 0.68000  Tot: +0.68000 ]
LCAOMinimize: Iter:   0  F: -42.5530237913349652  |grad|_K:  8.089e-07  alpha:  1.000e+00
	FillingsUpdate:  mu: -0.100010895  nElectrons: 9.000000  magneticMoment: [ Abs: 0.68000  Tot: +0.68000 ]
LCAOMinimize: Iter:   1  F: -42.5530237917804754  |grad|_K:  3.453e-09  alpha:  9.954e-01  linmin: -2.426e-03  cgtest:  1.241e-01  t[s]:     14.67
LCAOMinimize: Encountered beta<0, resetting CG.
LCAOMinimize: 	Wrong curvature in test step, increasing alphaT to 2.986190e+00.
	FillingsUpdate:  mu: -0.100010895  nElectrons: 9.000000  magneticMoment: [ Abs: 0.68000  Tot: +0.68000 ]
LCAOMinimize: Iter:   2  F: -42.5530237917806033  |grad|_K:  1.538e-11  alpha: -7.107e-02  linmin: -1.474e-02  cgtest:  3.932e-01  t[s]:     18.56
LCAOMinimize: Encountered beta<0, resetting CG.
LCAOMinimize: Converged (|Delta F|<1.000000e-06 for 2 iters).


---- Citations for features of the code used in this run ----

   Software package:
      R. Sundararaman, K. Letchworth-Weaver, K.A. Schwarz, D. Gunceler, Y. Ozhabes and T.A. Arias, 'JDFTx: software for joint density-functional theory', SoftwareX 6, 278 (2017)

   gga-PBE exchange-correlation functional:
      J.P. Perdew, K. Burke and M. Ernzerhof, Phys. Rev. Lett. 77, 3865 (1996)

   Pseudopotentials:
      M Schlipf and F Gygi, Comput. Phys. Commun. 196, 36 (2015)

   Truncated Coulomb potentials:
      R. Sundararaman and T.A. Arias, Phys. Rev. B 87, 165122 (2013)

This list may not be complete. Please suggest additional citations or
report any other bugs at https://github.com/shankar1729/jdftx/issues

Initialization completed successfully at t[s]:     18.70


-------- Electronic minimization -----------
Will mix electronic density at each iteration.
	FillingsUpdate:  mu: -0.100010895  nElectrons: 9.000000  magneticMoment: [ Abs: 0.68000  Tot: +0.68000 ]
	FillingsUpdate:  mu: -0.100131302  nElectrons: 9.000000  magneticMoment: [ Abs: 0.68000  Tot: +0.68000 ]
SCF: Cycle:  0   F: -42.553117574086620   dF: -9.378e-05   |Residual|: 2.246e-03   |deigs|: 1.589e-01  t[s]:     26.10
	FillingsUpdate:  mu: -0.100135464  nElectrons: 9.000000  magneticMoment: [ Abs: 0.68162  Tot: +0.68000 ]
SCF: Cycle:  1   F: -42.553118851466301   dF: -1.277e-06   |Residual|: 9.125e-04   |deigs|: 1.693e-02  t[s]:     31.99
	FillingsUpdate:  mu: -0.100023522  nElectrons: 9.000000  magneticMoment: [ Abs: 0.68122  Tot: +0.68000 ]
SCF: Cycle:  2   F: -42.553119238632227   dF: -3.872e-07   |Residual|: 4.804e-04   |deigs|: 4.842e-03  t[s]:     37.87
	FillingsUpdate:  mu: -0.099920435  nElectrons: 9.000000  magneticMoment: [ Abs: 0.68144  Tot: +0.68000 ]
SCF: Cycle:  3   F: -42.553119409281578   dF: -1.706e-07   |Residual|: 2.832e-04   |deigs|: 8.363e-04  t[s]:     43.90
	FillingsUpdate:  mu: -0.099794121  nElectrons: 9.000000  magneticMoment: [ Abs: 0.68128  Tot: +0.68000 ]
SCF: Cycle:  4   F: -42.553119474500612   dF: -6.522e-08   |Residual|: 1.822e-04   |deigs|: 4.657e-04  t[s]:     50.06
	FillingsUpdate:  mu: -0.099634919  nElectrons: 9.000000  magneticMoment: [ Abs: 0.68131  Tot: +0.68000 ]
SCF: Cycle:  5   F: -42.553119473339848   dF: +1.161e-09   |Residual|: 1.117e-04   |deigs|: 3.974e-04  t[s]:     56.30
	FillingsUpdate:  mu: -0.099591462  nElectrons: 9.000000  magneticMoment: [ Abs: 0.68130  Tot: +0.68000 ]
SCF: Cycle:  6   F: -42.553119520252864   dF: -4.691e-08   |Residual|: 7.665e-05   |deigs|: 1.447e-04  t[s]:     62.67
	FillingsUpdate:  mu: -0.099563009  nElectrons: 9.000000  magneticMoment: [ Abs: 0.68134  Tot: +0.68000 ]
SCF: Cycle:  7   F: -42.553119573766153   dF: -5.351e-08   |Residual|: 5.459e-05   |deigs|: 1.021e-04  t[s]:     69.10
	FillingsUpdate:  mu: -0.099541821  nElectrons: 9.000000  magneticMoment: [ Abs: 0.68131  Tot: +0.68000 ]
SCF: Cycle:  8   F: -42.553119606166426   dF: -3.240e-08   |Residual|: 4.119e-05   |deigs|: 7.258e-05  t[s]:     75.71
	FillingsUpdate:  mu: -0.099532247  nElectrons: 9.000000  magneticMoment: [ Abs: 0.68134  Tot: +0.68000 ]
SCF: Cycle:  9   F: -42.553119614785764   dF: -8.619e-09   |Residual|: 2.540e-05   |deigs|: 3.795e-05  t[s]:     82.40
	FillingsUpdate:  mu: -0.099527575  nElectrons: 9.000000  magneticMoment: [ Abs: 0.68131  Tot: +0.68000 ]
SCF: Cycle: 10   F: -42.553119614580680   dF: +2.051e-10   |Residual|: 2.280e-05   |deigs|: 3.888e-05  t[s]:     89.17
	FillingsUpdate:  mu: -0.099503446  nElectrons: 9.000000  magneticMoment: [ Abs: 0.68133  Tot: +0.68000 ]
SCF: Cycle: 11   F: -42.553119589915518   dF: +2.467e-08   |Residual|: 2.052e-05   |deigs|: 5.867e-05  t[s]:     95.93
	FillingsUpdate:  mu: -0.099492803  nElectrons: 9.000000  magneticMoment: [ Abs: 0.68139  Tot: +0.68000 ]
SCF: Cycle: 12   F: -42.553119582293469   dF: +7.622e-09   |Residual|: 1.681e-05   |deigs|: 5.076e-05  t[s]:    102.74
	FillingsUpdate:  mu: -0.099480987  nElectrons: 9.000000  magneticMoment: [ Abs: 0.68140  Tot: +0.68000 ]
SCF: Cycle: 13   F: -42.553119590332528   dF: -8.039e-09   |Residual|: 1.495e-05   |deigs|: 3.771e-05  t[s]:    109.53
	FillingsUpdate:  mu: -0.099459141  nElectrons: 9.000000  magneticMoment: [ Abs: 0.68143  Tot: +0.68000 ]
SCF: Cycle: 14   F: -42.553119575794952   dF: +1.454e-08   |Residual|: 1.330e-05   |deigs|: 3.461e-05  t[s]:    116.31
	FillingsUpdate:  mu: -0.099448587  nElectrons: 9.000000  magneticMoment: [ Abs: 0.68147  Tot: +0.68000 ]
SCF: Cycle: 15   F: -42.553119547745361   dF: +2.805e-08   |Residual|: 1.281e-05   |deigs|: 1.937e-05  t[s]:    123.15
	FillingsUpdate:  mu: -0.099421635  nElectrons: 9.000000  magneticMoment: [ Abs: 0.68145  Tot: +0.68000 ]
SCF: Cycle: 16   F: -42.553119517992322   dF: +2.975e-08   |Residual|: 1.103e-05   |deigs|: 3.274e-05  t[s]:    129.90
	FillingsUpdate:  mu: -0.099413363  nElectrons: 9.000000  magneticMoment: [ Abs: 0.68142  Tot: +0.68000 ]
SCF: Cycle: 17   F: -42.553119598424530   dF: -8.043e-08   |Residual|: 9.851e-06   |deigs|: 1.491e-05  t[s]:    136.51
	FillingsUpdate:  mu: -0.099406746  nElectrons: 9.000000  magneticMoment: [ Abs: 0.68139  Tot: +0.68000 ]
SCF: Cycle: 18   F: -42.553119521717690   dF: +7.671e-08   |Residual|: 8.033e-06   |deigs|: 1.423e-05  t[s]:    143.13
	FillingsUpdate:  mu: -0.099399302  nElectrons: 9.000000  magneticMoment: [ Abs: 0.68137  Tot: +0.68000 ]
SCF: Cycle: 19   F: -42.553119618848257   dF: -9.713e-08   |Residual|: 5.729e-06   |deigs|: 1.436e-05  t[s]:    149.76
	FillingsUpdate:  mu: -0.099396992  nElectrons: 9.000000  magneticMoment: [ Abs: 0.68136  Tot: +0.68000 ]
SCF: Cycle: 20   F: -42.553119628857182   dF: -1.001e-08   |Residual|: 4.735e-06   |deigs|: 1.699e-05  t[s]:    156.21
	FillingsUpdate:  mu: -0.099392349  nElectrons: 9.000000  magneticMoment: [ Abs: 0.68135  Tot: +0.68000 ]
SCF: Cycle: 21   F: -42.553119611972072   dF: +1.689e-08   |Residual|: 3.341e-06   |deigs|: 2.125e-05  t[s]:    162.91
	FillingsUpdate:  mu: -0.099389608  nElectrons: 9.000000  magneticMoment: [ Abs: 0.68133  Tot: +0.68000 ]
SCF: Cycle: 22   F: -42.553119622009135   dF: -1.004e-08   |Residual|: 2.475e-06   |deigs|: 2.336e-05  t[s]:    169.52
	FillingsUpdate:  mu: -0.099388424  nElectrons: 9.000000  magneticMoment: [ Abs: 0.68133  Tot: +0.68000 ]
SCF: Cycle: 23   F: -42.553119632870754   dF: -1.086e-08   |Residual|: 1.609e-06   |deigs|: 2.493e-05  t[s]:    176.12
	FillingsUpdate:  mu: -0.099387447  nElectrons: 9.000000  magneticMoment: [ Abs: 0.68133  Tot: +0.68000 ]
SCF: Cycle: 24   F: -42.553119637961323   dF: -5.091e-09   |Residual|: 1.110e-06   |deigs|: 2.468e-05  t[s]:    182.74
	FillingsUpdate:  mu: -0.099387321  nElectrons: 9.000000  magneticMoment: [ Abs: 0.68132  Tot: +0.68000 ]
SCF: Cycle: 25   F: -42.553119639330944   dF: -1.370e-09   |Residual|: 7.457e-07   |deigs|: 2.306e-05  t[s]:    189.20
SCF: Converged (|Delta E|<1.000000e-08 for 2 iters).


# Ionic positions in lattice coordinates:
ion Na   0.000000000000000   0.000000000000000   0.000000000000000 0

# Forces in Lattice coordinates:
force Na   0.000000000000000  -0.000000000000000   0.000000000000000 0

# Energy components:
   Eewald =       -9.0240130501663280
       EH =       24.7862415767103492
     Eloc =      -60.8312523343880756
      Enl =      -12.9032153253254211
   Epulay =        0.0000012333957556
      Exc =       -6.2147233324988518
       KE =       21.6338428331591928
-------------------------------------
     Etot =      -42.5531183991133730
       TS =        0.0000012402175733
-------------------------------------
        F =      -42.5531196393309443

IonicMinimize: Iter:   0  F: -42.553119639330944  |grad|_K:  0.000e+00  t[s]:    189.44
IonicMinimize: Converged (|grad|_K<1.000000e-04).

#--- Lowdin population analysis ---
# oxidation-state Na +0.000
# magnetic-moments Na +0.680

End date and time: Sat Feb  5 22:38:55 2022  (Duration: 0-0:03:09.52)
Done!
