The alkali metal is Na
scale=2
magnetization=0.38
--------------------------------------------------------------------------
The library attempted to open the following supporting CUDA libraries,
but each of them failed.  CUDA-aware support is disabled.
libcuda.so.1: cannot open shared object file: No such file or directory
libcuda.dylib: cannot open shared object file: No such file or directory
/usr/lib64/libcuda.so.1: cannot open shared object file: No such file or directory
/usr/lib64/libcuda.dylib: cannot open shared object file: No such file or directory
If you are not interested in CUDA-aware support, then run with
--mca opal_warn_on_missing_libcuda 0 to suppress this message.  If you are interested
in CUDA-aware support, then try setting LD_LIBRARY_PATH to the location
of libcuda.so.1 to get passed this issue.
--------------------------------------------------------------------------
--------------------------------------------------------------------------
No OpenFabrics connection schemes reported that they were able to be
used on a specific port.  As such, the openib BTL (OpenFabrics
support) will be disabled for this port.

  Local host:           d-6-8-2
  Local device:         mlx5_1
  Local port:           1
  CPCs attempted:       rdmacm, udcm
--------------------------------------------------------------------------

*************** JDFTx 1.6.0 (git hash 42ebbcc2) ***************

Start date and time: Sat Feb  5 22:32:15 2022
Executable jdftx with command-line: -i Alkali.in
Running on hosts (process indices):  d-6-8-2 (0-18)
Divided in process groups (process indices):  0 (0)  1 (1)  2 (2)  3 (3)  4 (4)  5 (5)  6 (6)  7 (7)  8 (8)  9 (9)  10 (10)  11 (11)  12 (12)  13 (13)  14 (14)  15 (15)  16 (16)  17 (17)  18 (18)
Resource initialization completed at t[s]:      0.00
Run totals: 19 processes, 48 threads, 0 GPUs


Input parsed successfully to the following command list (including defaults):

basis kpoint-dependent
coords-type Lattice
core-overlap-check vector
coulomb-interaction Slab 001
davidson-band-ratio 1.1
dump End None
dump-name $INPUT.$VAR
elec-cutoff 20
elec-eigen-algo Davidson
elec-ex-corr gga-PBE
elec-initial-magnetization 0.380000 yes
elec-smearing Fermi 1e-05
electronic-minimize  \
	dirUpdateScheme      FletcherReeves \
	linminMethod         DirUpdateRecommended \
	nIterations          100 \
	history              15 \
	knormThreshold       0 \
	energyDiffThreshold  1e-08 \
	nEnergyDiff          2 \
	alphaTstart          1 \
	alphaTmin            1e-10 \
	updateTestStepSize   yes \
	alphaTreduceFactor   0.1 \
	alphaTincreaseFactor 3 \
	nAlphaAdjustMax      3 \
	wolfeEnergy          0.0001 \
	wolfeGradient        0.9 \
	fdTest               no
electronic-scf  \
	nIterations	10000 \
	energyDiffThreshold	1e-08 \
	residualThreshold	1e-07 \
	mixFraction	0.5 \
	qMetric	0.8 \
	history	10 \
	nEigSteps	2 \
	eigDiffThreshold	1e-08 \
	mixedVariable	Density \
	qKerker	0.8 \
	qKappa	-1 \
	verbose	no \
	mixFractionMag	1.5
exchange-regularization WignerSeitzTruncated
fluid None
fluid-ex-corr (null) lda-PZ
fluid-gummel-loop 10 1.000000e-05
fluid-minimize  \
	dirUpdateScheme      PolakRibiere \
	linminMethod         DirUpdateRecommended \
	nIterations          100 \
	history              15 \
	knormThreshold       0 \
	energyDiffThreshold  0 \
	nEnergyDiff          2 \
	alphaTstart          1 \
	alphaTmin            1e-10 \
	updateTestStepSize   yes \
	alphaTreduceFactor   0.1 \
	alphaTincreaseFactor 3 \
	nAlphaAdjustMax      3 \
	wolfeEnergy          0.0001 \
	wolfeGradient        0.9 \
	fdTest               no
fluid-solvent H2O 55.338 ScalarEOS \
	epsBulk 78.4 \
	pMol 0.92466 \
	epsInf 1.77 \
	Pvap 1.06736e-10 \
	sigmaBulk 4.62e-05 \
	Rvdw 2.61727 \
	Res 1.42 \
	tauNuc 343133 \
	poleEl 15 7 1
forces-output-coords Positions
ion Na   0.000000000000000   0.000000000000000   0.000000000000000 0
ion-species SG15/$ID_ONCV_PBE.upf
ion-width 0
ionic-minimize  \
	dirUpdateScheme      L-BFGS \
	linminMethod         DirUpdateRecommended \
	nIterations          0 \
	history              15 \
	knormThreshold       0.0001 \
	energyDiffThreshold  1e-06 \
	nEnergyDiff          2 \
	alphaTstart          1 \
	alphaTmin            1e-10 \
	updateTestStepSize   yes \
	alphaTreduceFactor   0.1 \
	alphaTincreaseFactor 3 \
	nAlphaAdjustMax      3 \
	wolfeEnergy          0.0001 \
	wolfeGradient        0.9 \
	fdTest               no
kpoint   0.000000000000   0.000000000000   0.000000000000  1.00000000000000
kpoint-folding 12 12 1 
latt-move-scale 1 1 1
latt-scale 2 2 1 
lattice  \
	   4.727486978767153   -2.363743489383575    0.000000000000000  \
	  -0.000000000000000    4.094123819672498    0.000000000000000  \
	   0.000000000000000    0.000000000000000   40.000000000000000 
lattice-minimize  \
	dirUpdateScheme      L-BFGS \
	linminMethod         DirUpdateRecommended \
	nIterations          0 \
	history              15 \
	knormThreshold       0 \
	energyDiffThreshold  1e-06 \
	nEnergyDiff          2 \
	alphaTstart          1 \
	alphaTmin            1e-10 \
	updateTestStepSize   yes \
	alphaTreduceFactor   0.1 \
	alphaTincreaseFactor 3 \
	nAlphaAdjustMax      3 \
	wolfeEnergy          0.0001 \
	wolfeGradient        0.9 \
	fdTest               no
lcao-params -1 1e-06 1e-05
pcm-variant GLSSA13
spintype z-spin
subspace-rotation-factor 1 yes
symmetries automatic
symmetry-threshold 0.0001



---------- Setting up symmetries ----------

Found 24 point-group symmetries of the bravais lattice
Found 24 space-group symmetries with basis
Applied RMS atom displacement 0 bohrs to make symmetries exact.

---------- Initializing the Grid ----------
R = 
[      9.45497     -4.72749            0  ]
[            0      8.18825            0  ]
[            0            0           40  ]
unit cell volume = 3096.79
G =
[   0.664538   0.383671         -0  ]
[          0   0.767342         -0  ]
[         -0         -0    0.15708  ]
Minimum fftbox size, Smin = [  40  40  164  ]
Chosen fftbox size, S = [  40  40  168  ]

---------- Exchange Correlation functional ----------
Initalized PBE GGA exchange.
Initalized PBE GGA correlation.

---------- Setting up pseudopotentials ----------
Width of ionic core gaussian charges (only for fluid interactions / plotting) set to 0

Reading pseudopotential file '/home/gridsan/aligho/DFT/build-Nov24/pseudopotentials/SG15/Na_ONCV_PBE.upf':
  'Na' pseudopotential, 'PBE' functional
  Generated using ONCVPSP code by D. R. Hamann
  Author: Martin Schlipf and Francois Gygi  Date: 150915.
  9 valence electrons, 3 orbitals, 4 projectors, 1992 radial grid points, with lMax = 1
  Transforming local potential to a uniform radial grid of dG=0.02 with 1489 points.
  Transforming nonlocal projectors to a uniform radial grid of dG=0.02 with 432 points.
    2S    l: 0   occupation:  2.0   eigenvalue: -2.085640
    2P    l: 1   occupation:  6.0   eigenvalue: -1.053708
    3S    l: 0   occupation:  1.0   eigenvalue: -0.100838
  Transforming atomic orbitals to a uniform radial grid of dG=0.02 with 432 points.
  Core radius for overlap checks: 2.01 bohrs.
  Reading pulay file /home/gridsan/aligho/DFT/build-Nov24/pseudopotentials/SG15/Na_ONCV_PBE.pulay ... using dE_dnG = -2.946487e-03 computed for Ecut = 20.

Initialized 1 species with 1 total atoms.

Folded 1 k-points by 12x12x1 to 144 k-points.

---------- Setting up k-points, bands, fillings ----------
Reduced to 19 k-points under symmetry. 
Computing the number of bands and number of electrons
Calculating initial fillings.
nElectrons:   9.000000   nBands: 6   nStates: 38

----- Setting up reduced wavefunction bases (one per k-point) -----
average nbasis = 13230.521 , ideal nbasis = 13229.709

---------- Setting up coulomb interaction ----------
Initialized slab truncation along lattice direction 001

---------- Setting up 2D ewald sum ----------
Optimum gaussian width for ewald sums = 5.249020 bohr.
Real space sums over 289 unit cells with max indices [  8  8  0  ]
Reciprocal space sums over 81 terms with max indices [  4  4  0  ]

---------- Allocating electronic variables ----------
Initializing wave functions:  linear combination of atomic orbitals
Note: number of bands (6) exceeds available atomic orbitals (5)
Na pseudo-atom occupations:   s ( 2 1 )  p ( 6 )
	FillingsUpdate:  mu: -0.103976465  nElectrons: 9.000000  magneticMoment: [ Abs: 0.38000  Tot: +0.38000 ]
LCAOMinimize: Iter:   0  F: -42.5665391241925022  |grad|_K:  2.952e-05  alpha:  1.000e+00
	FillingsUpdate:  mu: -0.103974896  nElectrons: 9.000000  magneticMoment: [ Abs: 0.38000  Tot: +0.38000 ]
LCAOMinimize: Iter:   1  F: -42.5665397140671615  |grad|_K:  2.718e-07  alpha:  9.899e-01  linmin: -1.922e-02  cgtest:  6.657e-01  t[s]:      4.45
LCAOMinimize: Encountered beta<0, resetting CG.
[d-6-8-2:03296] 18 more processes have sent help message help-mpi-common-cuda.txt / dlopen failed
[d-6-8-2:03296] Set MCA parameter "orte_base_help_aggregate" to 0 to see all help / error messages
[d-6-8-2:03296] 18 more processes have sent help message help-mpi-btl-openib-cpc-base.txt / no cpcs for port
	FillingsUpdate:  mu: -0.103974938  nElectrons: 9.000000  magneticMoment: [ Abs: 0.38000  Tot: +0.38000 ]
LCAOMinimize: Iter:   2  F: -42.5665397141182780  |grad|_K:  1.617e-09  alpha:  1.007e+00  linmin:  5.355e-02  cgtest: -9.222e-01  t[s]:      5.68
LCAOMinimize: Converged (|Delta F|<1.000000e-06 for 2 iters).


---- Citations for features of the code used in this run ----

   Software package:
      R. Sundararaman, K. Letchworth-Weaver, K.A. Schwarz, D. Gunceler, Y. Ozhabes and T.A. Arias, 'JDFTx: software for joint density-functional theory', SoftwareX 6, 278 (2017)

   gga-PBE exchange-correlation functional:
      J.P. Perdew, K. Burke and M. Ernzerhof, Phys. Rev. Lett. 77, 3865 (1996)

   Pseudopotentials:
      M Schlipf and F Gygi, Comput. Phys. Commun. 196, 36 (2015)

   Truncated Coulomb potentials:
      R. Sundararaman and T.A. Arias, Phys. Rev. B 87, 165122 (2013)

This list may not be complete. Please suggest additional citations or
report any other bugs at https://github.com/shankar1729/jdftx/issues

Initialization completed successfully at t[s]:      5.75


-------- Electronic minimization -----------
Will mix electronic density at each iteration.
	FillingsUpdate:  mu: -0.103974938  nElectrons: 9.000000  magneticMoment: [ Abs: 0.38000  Tot: +0.38000 ]
	FillingsUpdate:  mu: -0.111107972  nElectrons: 9.000000  magneticMoment: [ Abs: 0.38000  Tot: +0.38000 ]
SCF: Cycle:  0   F: -42.571168742533928   dF: -4.629e-03   |Residual|: 8.772e-03   |deigs|: 1.705e-01  t[s]:      7.95
	FillingsUpdate:  mu: -0.111158274  nElectrons: 9.000000  magneticMoment: [ Abs: 0.38000  Tot: +0.38000 ]
SCF: Cycle:  1   F: -42.571267423594918   dF: -9.868e-05   |Residual|: 5.945e-03   |deigs|: 8.826e-03  t[s]:      9.58
	FillingsUpdate:  mu: -0.110973697  nElectrons: 9.000000  magneticMoment: [ Abs: 0.38130  Tot: +0.38000 ]
SCF: Cycle:  2   F: -42.571284796884271   dF: -1.737e-05   |Residual|: 3.329e-03   |deigs|: 5.791e-03  t[s]:     11.29
	FillingsUpdate:  mu: -0.110785597  nElectrons: 9.000000  magneticMoment: [ Abs: 0.38003  Tot: +0.38000 ]
SCF: Cycle:  3   F: -42.571289325049733   dF: -4.528e-06   |Residual|: 1.918e-03   |deigs|: 6.051e-03  t[s]:     12.98
	FillingsUpdate:  mu: -0.110377193  nElectrons: 9.000000  magneticMoment: [ Abs: 0.38005  Tot: +0.38000 ]
SCF: Cycle:  4   F: -42.571299768559157   dF: -1.044e-05   |Residual|: 9.151e-04   |deigs|: 3.045e-03  t[s]:     14.68
	FillingsUpdate:  mu: -0.110040968  nElectrons: 9.000000  magneticMoment: [ Abs: 0.38016  Tot: +0.38000 ]
SCF: Cycle:  5   F: -42.571301097520113   dF: -1.329e-06   |Residual|: 7.468e-04   |deigs|: 1.875e-03  t[s]:     16.39
	FillingsUpdate:  mu: -0.109319067  nElectrons: 9.000000  magneticMoment: [ Abs: 0.38093  Tot: +0.38000 ]
SCF: Cycle:  6   F: -42.571301450024073   dF: -3.525e-07   |Residual|: 5.569e-04   |deigs|: 1.216e-03  t[s]:     18.13
	FillingsUpdate:  mu: -0.108507497  nElectrons: 9.000000  magneticMoment: [ Abs: 0.38207  Tot: +0.38000 ]
SCF: Cycle:  7   F: -42.571300657915671   dF: +7.921e-07   |Residual|: 4.077e-04   |deigs|: 1.103e-03  t[s]:     19.93
	FillingsUpdate:  mu: -0.107846134  nElectrons: 9.000000  magneticMoment: [ Abs: 0.38147  Tot: +0.38000 ]
SCF: Cycle:  8   F: -42.571300502141298   dF: +1.558e-07   |Residual|: 3.490e-04   |deigs|: 8.875e-04  t[s]:     21.80
	FillingsUpdate:  mu: -0.107567500  nElectrons: 9.000000  magneticMoment: [ Abs: 0.38060  Tot: +0.38000 ]
SCF: Cycle:  9   F: -42.571301995678660   dF: -1.494e-06   |Residual|: 2.882e-04   |deigs|: 3.443e-04  t[s]:     23.64
	FillingsUpdate:  mu: -0.107368594  nElectrons: 9.000000  magneticMoment: [ Abs: 0.38120  Tot: +0.38000 ]
SCF: Cycle: 10   F: -42.571303045832117   dF: -1.050e-06   |Residual|: 2.306e-04   |deigs|: 3.223e-04  t[s]:     25.57
	FillingsUpdate:  mu: -0.106857084  nElectrons: 9.000000  magneticMoment: [ Abs: 0.38129  Tot: +0.38000 ]
SCF: Cycle: 11   F: -42.571301926429634   dF: +1.119e-06   |Residual|: 2.128e-04   |deigs|: 8.485e-04  t[s]:     27.38
	FillingsUpdate:  mu: -0.106207354  nElectrons: 9.000000  magneticMoment: [ Abs: 0.38071  Tot: +0.38000 ]
SCF: Cycle: 12   F: -42.571301461359667   dF: +4.651e-07   |Residual|: 1.959e-04   |deigs|: 6.829e-04  t[s]:     29.18
	FillingsUpdate:  mu: -0.105801048  nElectrons: 9.000000  magneticMoment: [ Abs: 0.38136  Tot: +0.38000 ]
SCF: Cycle: 13   F: -42.571302843238215   dF: -1.382e-06   |Residual|: 1.716e-04   |deigs|: 3.872e-04  t[s]:     31.00
	FillingsUpdate:  mu: -0.105541792  nElectrons: 9.000000  magneticMoment: [ Abs: 0.38104  Tot: +0.38000 ]
SCF: Cycle: 14   F: -42.571303735833240   dF: -8.926e-07   |Residual|: 1.604e-04   |deigs|: 2.750e-04  t[s]:     32.81
	FillingsUpdate:  mu: -0.104982812  nElectrons: 9.000000  magneticMoment: [ Abs: 0.38059  Tot: +0.38000 ]
SCF: Cycle: 15   F: -42.571304141499546   dF: -4.057e-07   |Residual|: 1.518e-04   |deigs|: 6.135e-04  t[s]:     34.69
	FillingsUpdate:  mu: -0.104513153  nElectrons: 9.000000  magneticMoment: [ Abs: 0.38031  Tot: +0.38000 ]
SCF: Cycle: 16   F: -42.571304562000094   dF: -4.205e-07   |Residual|: 1.111e-04   |deigs|: 4.702e-04  t[s]:     36.52
	FillingsUpdate:  mu: -0.104244503  nElectrons: 9.000000  magneticMoment: [ Abs: 0.38034  Tot: +0.38000 ]
SCF: Cycle: 17   F: -42.571304723663872   dF: -1.617e-07   |Residual|: 6.817e-05   |deigs|: 2.425e-04  t[s]:     38.30
	FillingsUpdate:  mu: -0.104175772  nElectrons: 9.000000  magneticMoment: [ Abs: 0.38022  Tot: +0.38000 ]
SCF: Cycle: 18   F: -42.571304755198810   dF: -3.153e-08   |Residual|: 5.423e-05   |deigs|: 1.748e-04  t[s]:     40.11
	FillingsUpdate:  mu: -0.104111283  nElectrons: 9.000000  magneticMoment: [ Abs: 0.38025  Tot: +0.38000 ]
SCF: Cycle: 19   F: -42.571304782004276   dF: -2.681e-08   |Residual|: 2.391e-05   |deigs|: 1.030e-04  t[s]:     41.99
	FillingsUpdate:  mu: -0.104098846  nElectrons: 9.000000  magneticMoment: [ Abs: 0.38025  Tot: +0.38000 ]
SCF: Cycle: 20   F: -42.571304789187337   dF: -7.183e-09   |Residual|: 1.193e-05   |deigs|: 6.741e-05  t[s]:     43.79
	FillingsUpdate:  mu: -0.104096590  nElectrons: 9.000000  magneticMoment: [ Abs: 0.38019  Tot: +0.38000 ]
SCF: Cycle: 21   F: -42.571304790196201   dF: -1.009e-09   |Residual|: 8.098e-06   |deigs|: 9.451e-04  t[s]:     45.60
SCF: Converged (|Delta E|<1.000000e-08 for 2 iters).


# Ionic positions in lattice coordinates:
ion Na   0.000000000000000   0.000000000000000   0.000000000000000 0

# Forces in Lattice coordinates:
force Na   0.000000000000000   0.000000000000000   0.000000000000000 0

# Energy components:
   Eewald =      -18.0480261003326561
       EH =       15.7283400405895524
     Eloc =      -42.7400877146099774
      Enl =      -12.9134470286644785
   Epulay =        0.0000007725295140
      Exc =       -6.2172753773408846
       KE =       21.6191913631432655
-------------------------------------
     Etot =      -42.5713040446856681
       TS =        0.0000007455105331
-------------------------------------
        F =      -42.5713047901962014

IonicMinimize: Iter:   0  F: -42.571304790196201  |grad|_K:  0.000e+00  t[s]:     45.67
IonicMinimize: Converged (|grad|_K<1.000000e-04).

#--- Lowdin population analysis ---
# oxidation-state Na +0.050
# magnetic-moments Na +0.339

End date and time: Sat Feb  5 22:33:01 2022  (Duration: 0-0:00:45.69)
Done!
scale=3
magnetization=0.38
--------------------------------------------------------------------------
The library attempted to open the following supporting CUDA libraries,
but each of them failed.  CUDA-aware support is disabled.
libcuda.so.1: cannot open shared object file: No such file or directory
libcuda.dylib: cannot open shared object file: No such file or directory
/usr/lib64/libcuda.so.1: cannot open shared object file: No such file or directory
/usr/lib64/libcuda.dylib: cannot open shared object file: No such file or directory
If you are not interested in CUDA-aware support, then run with
--mca opal_warn_on_missing_libcuda 0 to suppress this message.  If you are interested
in CUDA-aware support, then try setting LD_LIBRARY_PATH to the location
of libcuda.so.1 to get passed this issue.
--------------------------------------------------------------------------
--------------------------------------------------------------------------
No OpenFabrics connection schemes reported that they were able to be
used on a specific port.  As such, the openib BTL (OpenFabrics
support) will be disabled for this port.

  Local host:           d-6-8-2
  Local device:         mlx5_1
  Local port:           1
  CPCs attempted:       rdmacm, udcm
--------------------------------------------------------------------------

*************** JDFTx 1.6.0 (git hash 42ebbcc2) ***************

Start date and time: Sat Feb  5 22:33:02 2022
Executable jdftx with command-line: -i Alkali.in
Running on hosts (process indices):  d-6-8-2 (0-18)
Divided in process groups (process indices):  0 (0)  1 (1)  2 (2)  3 (3)  4 (4)  5 (5)  6 (6)  7 (7)  8 (8)  9 (9)  10 (10)  11 (11)  12 (12)  13 (13)  14 (14)  15 (15)  16 (16)  17 (17)  18 (18)
Resource initialization completed at t[s]:      0.00
Run totals: 19 processes, 48 threads, 0 GPUs


Input parsed successfully to the following command list (including defaults):

basis kpoint-dependent
coords-type Lattice
core-overlap-check vector
coulomb-interaction Slab 001
davidson-band-ratio 1.1
dump End None
dump-name $INPUT.$VAR
elec-cutoff 20
elec-eigen-algo Davidson
elec-ex-corr gga-PBE
elec-initial-magnetization 0.380000 yes
elec-smearing Fermi 1e-05
electronic-minimize  \
	dirUpdateScheme      FletcherReeves \
	linminMethod         DirUpdateRecommended \
	nIterations          100 \
	history              15 \
	knormThreshold       0 \
	energyDiffThreshold  1e-08 \
	nEnergyDiff          2 \
	alphaTstart          1 \
	alphaTmin            1e-10 \
	updateTestStepSize   yes \
	alphaTreduceFactor   0.1 \
	alphaTincreaseFactor 3 \
	nAlphaAdjustMax      3 \
	wolfeEnergy          0.0001 \
	wolfeGradient        0.9 \
	fdTest               no
electronic-scf  \
	nIterations	10000 \
	energyDiffThreshold	1e-08 \
	residualThreshold	1e-07 \
	mixFraction	0.5 \
	qMetric	0.8 \
	history	10 \
	nEigSteps	2 \
	eigDiffThreshold	1e-08 \
	mixedVariable	Density \
	qKerker	0.8 \
	qKappa	-1 \
	verbose	no \
	mixFractionMag	1.5
exchange-regularization WignerSeitzTruncated
fluid None
fluid-ex-corr (null) lda-PZ
fluid-gummel-loop 10 1.000000e-05
fluid-minimize  \
	dirUpdateScheme      PolakRibiere \
	linminMethod         DirUpdateRecommended \
	nIterations          100 \
	history              15 \
	knormThreshold       0 \
	energyDiffThreshold  0 \
	nEnergyDiff          2 \
	alphaTstart          1 \
	alphaTmin            1e-10 \
	updateTestStepSize   yes \
	alphaTreduceFactor   0.1 \
	alphaTincreaseFactor 3 \
	nAlphaAdjustMax      3 \
	wolfeEnergy          0.0001 \
	wolfeGradient        0.9 \
	fdTest               no
fluid-solvent H2O 55.338 ScalarEOS \
	epsBulk 78.4 \
	pMol 0.92466 \
	epsInf 1.77 \
	Pvap 1.06736e-10 \
	sigmaBulk 4.62e-05 \
	Rvdw 2.61727 \
	Res 1.42 \
	tauNuc 343133 \
	poleEl 15 7 1
forces-output-coords Positions
ion Na   0.000000000000000   0.000000000000000   0.000000000000000 0
ion-species SG15/$ID_ONCV_PBE.upf
ion-width 0
ionic-minimize  \
	dirUpdateScheme      L-BFGS \
	linminMethod         DirUpdateRecommended \
	nIterations          0 \
	history              15 \
	knormThreshold       0.0001 \
	energyDiffThreshold  1e-06 \
	nEnergyDiff          2 \
	alphaTstart          1 \
	alphaTmin            1e-10 \
	updateTestStepSize   yes \
	alphaTreduceFactor   0.1 \
	alphaTincreaseFactor 3 \
	nAlphaAdjustMax      3 \
	wolfeEnergy          0.0001 \
	wolfeGradient        0.9 \
	fdTest               no
kpoint   0.000000000000   0.000000000000   0.000000000000  1.00000000000000
kpoint-folding 12 12 1 
latt-move-scale 1 1 1
latt-scale 3 3 1 
lattice  \
	   4.727486978767153   -2.363743489383575    0.000000000000000  \
	  -0.000000000000000    4.094123819672498    0.000000000000000  \
	   0.000000000000000    0.000000000000000   40.000000000000000 
lattice-minimize  \
	dirUpdateScheme      L-BFGS \
	linminMethod         DirUpdateRecommended \
	nIterations          0 \
	history              15 \
	knormThreshold       0 \
	energyDiffThreshold  1e-06 \
	nEnergyDiff          2 \
	alphaTstart          1 \
	alphaTmin            1e-10 \
	updateTestStepSize   yes \
	alphaTreduceFactor   0.1 \
	alphaTincreaseFactor 3 \
	nAlphaAdjustMax      3 \
	wolfeEnergy          0.0001 \
	wolfeGradient        0.9 \
	fdTest               no
lcao-params -1 1e-06 1e-05
pcm-variant GLSSA13
spintype z-spin
subspace-rotation-factor 1 yes
symmetries automatic
symmetry-threshold 0.0001



---------- Setting up symmetries ----------

Found 24 point-group symmetries of the bravais lattice
Found 24 space-group symmetries with basis
Applied RMS atom displacement 0 bohrs to make symmetries exact.

---------- Initializing the Grid ----------
R = 
[      14.1825     -7.09123            0  ]
[            0      12.2824            0  ]
[            0            0           40  ]
unit cell volume = 6967.77
G =
[   0.443025   0.255781         -0  ]
[          0   0.511561         -0  ]
[         -0         -0    0.15708  ]
Minimum fftbox size, Smin = [  60  60  164  ]
Chosen fftbox size, S = [  60  60  168  ]

---------- Exchange Correlation functional ----------
Initalized PBE GGA exchange.
Initalized PBE GGA correlation.

---------- Setting up pseudopotentials ----------
Width of ionic core gaussian charges (only for fluid interactions / plotting) set to 0

Reading pseudopotential file '/home/gridsan/aligho/DFT/build-Nov24/pseudopotentials/SG15/Na_ONCV_PBE.upf':
  'Na' pseudopotential, 'PBE' functional
  Generated using ONCVPSP code by D. R. Hamann
  Author: Martin Schlipf and Francois Gygi  Date: 150915.
  9 valence electrons, 3 orbitals, 4 projectors, 1992 radial grid points, with lMax = 1
  Transforming local potential to a uniform radial grid of dG=0.02 with 1489 points.
  Transforming nonlocal projectors to a uniform radial grid of dG=0.02 with 432 points.
    2S    l: 0   occupation:  2.0   eigenvalue: -2.085640
    2P    l: 1   occupation:  6.0   eigenvalue: -1.053708
    3S    l: 0   occupation:  1.0   eigenvalue: -0.100838
  Transforming atomic orbitals to a uniform radial grid of dG=0.02 with 432 points.
  Core radius for overlap checks: 2.01 bohrs.
  Reading pulay file /home/gridsan/aligho/DFT/build-Nov24/pseudopotentials/SG15/Na_ONCV_PBE.pulay ... using dE_dnG = -2.946487e-03 computed for Ecut = 20.

Initialized 1 species with 1 total atoms.

Folded 1 k-points by 12x12x1 to 144 k-points.

---------- Setting up k-points, bands, fillings ----------
Reduced to 19 k-points under symmetry. 
Computing the number of bands and number of electrons
Calculating initial fillings.
nElectrons:   9.000000   nBands: 6   nStates: 38

----- Setting up reduced wavefunction bases (one per k-point) -----
average nbasis = 29766.104 , ideal nbasis = 29766.845

---------- Setting up coulomb interaction ----------
Initialized slab truncation along lattice direction 001

---------- Setting up 2D ewald sum ----------
Optimum gaussian width for ewald sums = 7.873530 bohr.
Real space sums over 289 unit cells with max indices [  8  8  0  ]
Reciprocal space sums over 81 terms with max indices [  4  4  0  ]

---------- Allocating electronic variables ----------
Initializing wave functions:  linear combination of atomic orbitals
Note: number of bands (6) exceeds available atomic orbitals (5)
Na pseudo-atom occupations:   s ( 2 1 )  p ( 6 )
[d-6-8-2:34003] 18 more processes have sent help message help-mpi-common-cuda.txt / dlopen failed
[d-6-8-2:34003] Set MCA parameter "orte_base_help_aggregate" to 0 to see all help / error messages
[d-6-8-2:34003] 18 more processes have sent help message help-mpi-btl-openib-cpc-base.txt / no cpcs for port
	FillingsUpdate:  mu: -0.101747240  nElectrons: 9.000000  magneticMoment: [ Abs: 0.38000  Tot: +0.38000 ]
LCAOMinimize: Iter:   0  F: -42.5533497866858923  |grad|_K:  7.909e-06  alpha:  1.000e+00
	FillingsUpdate:  mu: -0.101745570  nElectrons: 9.000000  magneticMoment: [ Abs: 0.38000  Tot: +0.38000 ]
LCAOMinimize: Iter:   1  F: -42.5533498292231016  |grad|_K:  4.224e-08  alpha:  9.942e-01  linmin: -9.970e-04  cgtest:  3.473e-01  t[s]:      8.49
LCAOMinimize: Encountered beta<0, resetting CG.
	FillingsUpdate:  mu: -0.101745569  nElectrons: 9.000000  magneticMoment: [ Abs: 0.38000  Tot: +0.38000 ]
LCAOMinimize: Iter:   2  F: -42.5533498292244090  |grad|_K:  1.061e-08  alpha:  7.478e-01  linmin: -6.482e-03  cgtest:  9.999e-01  t[s]:     10.88
LCAOMinimize: Encountered beta<0, resetting CG.
LCAOMinimize: Converged (|Delta F|<1.000000e-06 for 2 iters).


---- Citations for features of the code used in this run ----

   Software package:
      R. Sundararaman, K. Letchworth-Weaver, K.A. Schwarz, D. Gunceler, Y. Ozhabes and T.A. Arias, 'JDFTx: software for joint density-functional theory', SoftwareX 6, 278 (2017)

   gga-PBE exchange-correlation functional:
      J.P. Perdew, K. Burke and M. Ernzerhof, Phys. Rev. Lett. 77, 3865 (1996)

   Pseudopotentials:
      M Schlipf and F Gygi, Comput. Phys. Commun. 196, 36 (2015)

   Truncated Coulomb potentials:
      R. Sundararaman and T.A. Arias, Phys. Rev. B 87, 165122 (2013)

This list may not be complete. Please suggest additional citations or
report any other bugs at https://github.com/shankar1729/jdftx/issues

Initialization completed successfully at t[s]:     10.98


-------- Electronic minimization -----------
Will mix electronic density at each iteration.
	FillingsUpdate:  mu: -0.101745569  nElectrons: 9.000000  magneticMoment: [ Abs: 0.38000  Tot: +0.38000 ]
	FillingsUpdate:  mu: -0.102069577  nElectrons: 9.000000  magneticMoment: [ Abs: 0.38000  Tot: +0.38000 ]
SCF: Cycle:  0   F: -42.553661210795994   dF: -3.114e-04   |Residual|: 2.068e-03   |deigs|: 1.734e-01  t[s]:     15.36
	FillingsUpdate:  mu: -0.102165301  nElectrons: 9.000000  magneticMoment: [ Abs: 0.38066  Tot: +0.38000 ]
SCF: Cycle:  1   F: -42.553666468459063   dF: -5.258e-06   |Residual|: 1.138e-03   |deigs|: 5.465e-03  t[s]:     18.73
	FillingsUpdate:  mu: -0.102278178  nElectrons: 9.000000  magneticMoment: [ Abs: 0.38054  Tot: +0.38000 ]
SCF: Cycle:  2   F: -42.553668118086854   dF: -1.650e-06   |Residual|: 6.411e-04   |deigs|: 2.662e-03  t[s]:     22.14
	FillingsUpdate:  mu: -0.102377077  nElectrons: 9.000000  magneticMoment: [ Abs: 0.38072  Tot: +0.38000 ]
SCF: Cycle:  3   F: -42.553669304925783   dF: -1.187e-06   |Residual|: 4.845e-04   |deigs|: 2.036e-03  t[s]:     25.65
	FillingsUpdate:  mu: -0.102513243  nElectrons: 9.000000  magneticMoment: [ Abs: 0.38052  Tot: +0.38000 ]
SCF: Cycle:  4   F: -42.553671058327488   dF: -1.753e-06   |Residual|: 2.642e-04   |deigs|: 9.959e-04  t[s]:     29.20
	FillingsUpdate:  mu: -0.102593421  nElectrons: 9.000000  magneticMoment: [ Abs: 0.38072  Tot: +0.38000 ]
SCF: Cycle:  5   F: -42.553671833370693   dF: -7.750e-07   |Residual|: 1.497e-04   |deigs|: 3.752e-04  t[s]:     32.88
	FillingsUpdate:  mu: -0.102580500  nElectrons: 9.000000  magneticMoment: [ Abs: 0.38062  Tot: +0.38000 ]
SCF: Cycle:  6   F: -42.553672118085565   dF: -2.847e-07   |Residual|: 9.597e-05   |deigs|: 1.518e-03  t[s]:     36.46
	FillingsUpdate:  mu: -0.102559305  nElectrons: 9.000000  magneticMoment: [ Abs: 0.38069  Tot: +0.38000 ]
SCF: Cycle:  7   F: -42.553672243853612   dF: -1.258e-07   |Residual|: 6.945e-05   |deigs|: 7.601e-04  t[s]:     40.21
	FillingsUpdate:  mu: -0.102505613  nElectrons: 9.000000  magneticMoment: [ Abs: 0.38063  Tot: +0.38000 ]
SCF: Cycle:  8   F: -42.553672307124799   dF: -6.327e-08   |Residual|: 5.264e-05   |deigs|: 1.124e-03  t[s]:     44.06
	FillingsUpdate:  mu: -0.102468704  nElectrons: 9.000000  magneticMoment: [ Abs: 0.38068  Tot: +0.38000 ]
SCF: Cycle:  9   F: -42.553672312175287   dF: -5.050e-09   |Residual|: 4.574e-05   |deigs|: 3.401e-04  t[s]:     47.91
	FillingsUpdate:  mu: -0.102428243  nElectrons: 9.000000  magneticMoment: [ Abs: 0.38069  Tot: +0.38000 ]
SCF: Cycle: 10   F: -42.553672317646928   dF: -5.472e-09   |Residual|: 3.920e-05   |deigs|: 1.050e-04  t[s]:     51.92
SCF: Converged (|Delta E|<1.000000e-08 for 2 iters).


# Ionic positions in lattice coordinates:
ion Na   0.000000000000000   0.000000000000000   0.000000000000000 0

# Forces in Lattice coordinates:
force Na   0.000000000000000   0.000000000000000   0.000000000000000 0

# Energy components:
   Eewald =      -12.0320174002217755
       EH =       21.7200341815412585
     Eloc =      -54.7520090829590487
      Enl =      -12.9045210340225580
   Epulay =       -0.0000003132867683
      Exc =       -6.2079189716744851
       KE =       21.6227610789529834
-------------------------------------
     Etot =      -42.5536715416703899
       TS =        0.0000007759765364
-------------------------------------
        F =      -42.5536723176469280

IonicMinimize: Iter:   0  F: -42.553672317646928  |grad|_K:  0.000e+00  t[s]:     52.06
IonicMinimize: Converged (|grad|_K<1.000000e-04).

#--- Lowdin population analysis ---
# oxidation-state Na +0.004
# magnetic-moments Na +0.379

End date and time: Sat Feb  5 22:33:54 2022  (Duration: 0-0:00:52.10)
Done!
scale=4
magnetization=0.38
--------------------------------------------------------------------------
The library attempted to open the following supporting CUDA libraries,
but each of them failed.  CUDA-aware support is disabled.
libcuda.so.1: cannot open shared object file: No such file or directory
libcuda.dylib: cannot open shared object file: No such file or directory
/usr/lib64/libcuda.so.1: cannot open shared object file: No such file or directory
/usr/lib64/libcuda.dylib: cannot open shared object file: No such file or directory
If you are not interested in CUDA-aware support, then run with
--mca opal_warn_on_missing_libcuda 0 to suppress this message.  If you are interested
in CUDA-aware support, then try setting LD_LIBRARY_PATH to the location
of libcuda.so.1 to get passed this issue.
--------------------------------------------------------------------------
--------------------------------------------------------------------------
No OpenFabrics connection schemes reported that they were able to be
used on a specific port.  As such, the openib BTL (OpenFabrics
support) will be disabled for this port.

  Local host:           d-6-8-2
  Local device:         mlx5_1
  Local port:           1
  CPCs attempted:       rdmacm, udcm
--------------------------------------------------------------------------

*************** JDFTx 1.6.0 (git hash 42ebbcc2) ***************

Start date and time: Sat Feb  5 22:33:55 2022
Executable jdftx with command-line: -i Alkali.in
Running on hosts (process indices):  d-6-8-2 (0-18)
Divided in process groups (process indices):  0 (0)  1 (1)  2 (2)  3 (3)  4 (4)  5 (5)  6 (6)  7 (7)  8 (8)  9 (9)  10 (10)  11 (11)  12 (12)  13 (13)  14 (14)  15 (15)  16 (16)  17 (17)  18 (18)
Resource initialization completed at t[s]:      0.00
Run totals: 19 processes, 48 threads, 0 GPUs


Input parsed successfully to the following command list (including defaults):

basis kpoint-dependent
coords-type Lattice
core-overlap-check vector
coulomb-interaction Slab 001
davidson-band-ratio 1.1
dump End None
dump-name $INPUT.$VAR
elec-cutoff 20
elec-eigen-algo Davidson
elec-ex-corr gga-PBE
elec-initial-magnetization 0.380000 yes
elec-smearing Fermi 1e-05
electronic-minimize  \
	dirUpdateScheme      FletcherReeves \
	linminMethod         DirUpdateRecommended \
	nIterations          100 \
	history              15 \
	knormThreshold       0 \
	energyDiffThreshold  1e-08 \
	nEnergyDiff          2 \
	alphaTstart          1 \
	alphaTmin            1e-10 \
	updateTestStepSize   yes \
	alphaTreduceFactor   0.1 \
	alphaTincreaseFactor 3 \
	nAlphaAdjustMax      3 \
	wolfeEnergy          0.0001 \
	wolfeGradient        0.9 \
	fdTest               no
electronic-scf  \
	nIterations	10000 \
	energyDiffThreshold	1e-08 \
	residualThreshold	1e-07 \
	mixFraction	0.5 \
	qMetric	0.8 \
	history	10 \
	nEigSteps	2 \
	eigDiffThreshold	1e-08 \
	mixedVariable	Density \
	qKerker	0.8 \
	qKappa	-1 \
	verbose	no \
	mixFractionMag	1.5
exchange-regularization WignerSeitzTruncated
fluid None
fluid-ex-corr (null) lda-PZ
fluid-gummel-loop 10 1.000000e-05
fluid-minimize  \
	dirUpdateScheme      PolakRibiere \
	linminMethod         DirUpdateRecommended \
	nIterations          100 \
	history              15 \
	knormThreshold       0 \
	energyDiffThreshold  0 \
	nEnergyDiff          2 \
	alphaTstart          1 \
	alphaTmin            1e-10 \
	updateTestStepSize   yes \
	alphaTreduceFactor   0.1 \
	alphaTincreaseFactor 3 \
	nAlphaAdjustMax      3 \
	wolfeEnergy          0.0001 \
	wolfeGradient        0.9 \
	fdTest               no
fluid-solvent H2O 55.338 ScalarEOS \
	epsBulk 78.4 \
	pMol 0.92466 \
	epsInf 1.77 \
	Pvap 1.06736e-10 \
	sigmaBulk 4.62e-05 \
	Rvdw 2.61727 \
	Res 1.42 \
	tauNuc 343133 \
	poleEl 15 7 1
forces-output-coords Positions
ion Na   0.000000000000000   0.000000000000000   0.000000000000000 0
ion-species SG15/$ID_ONCV_PBE.upf
ion-width 0
ionic-minimize  \
	dirUpdateScheme      L-BFGS \
	linminMethod         DirUpdateRecommended \
	nIterations          0 \
	history              15 \
	knormThreshold       0.0001 \
	energyDiffThreshold  1e-06 \
	nEnergyDiff          2 \
	alphaTstart          1 \
	alphaTmin            1e-10 \
	updateTestStepSize   yes \
	alphaTreduceFactor   0.1 \
	alphaTincreaseFactor 3 \
	nAlphaAdjustMax      3 \
	wolfeEnergy          0.0001 \
	wolfeGradient        0.9 \
	fdTest               no
kpoint   0.000000000000   0.000000000000   0.000000000000  1.00000000000000
kpoint-folding 12 12 1 
latt-move-scale 1 1 1
latt-scale 4 4 1 
lattice  \
	   4.727486978767153   -2.363743489383575    0.000000000000000  \
	  -0.000000000000000    4.094123819672498    0.000000000000000  \
	   0.000000000000000    0.000000000000000   40.000000000000000 
lattice-minimize  \
	dirUpdateScheme      L-BFGS \
	linminMethod         DirUpdateRecommended \
	nIterations          0 \
	history              15 \
	knormThreshold       0 \
	energyDiffThreshold  1e-06 \
	nEnergyDiff          2 \
	alphaTstart          1 \
	alphaTmin            1e-10 \
	updateTestStepSize   yes \
	alphaTreduceFactor   0.1 \
	alphaTincreaseFactor 3 \
	nAlphaAdjustMax      3 \
	wolfeEnergy          0.0001 \
	wolfeGradient        0.9 \
	fdTest               no
lcao-params -1 1e-06 1e-05
pcm-variant GLSSA13
spintype z-spin
subspace-rotation-factor 1 yes
symmetries automatic
symmetry-threshold 0.0001



---------- Setting up symmetries ----------

Found 24 point-group symmetries of the bravais lattice
Found 24 space-group symmetries with basis
Applied RMS atom displacement 0 bohrs to make symmetries exact.

---------- Initializing the Grid ----------
R = 
[      18.9099     -9.45497            0  ]
[            0      16.3765            0  ]
[            0            0           40  ]
unit cell volume = 12387.1
G =
[   0.332269   0.191835         -0  ]
[          0   0.383671         -0  ]
[         -0         -0    0.15708  ]
Minimum fftbox size, Smin = [  80  80  164  ]
Chosen fftbox size, S = [  80  80  168  ]

---------- Exchange Correlation functional ----------
Initalized PBE GGA exchange.
Initalized PBE GGA correlation.

---------- Setting up pseudopotentials ----------
Width of ionic core gaussian charges (only for fluid interactions / plotting) set to 0

Reading pseudopotential file '/home/gridsan/aligho/DFT/build-Nov24/pseudopotentials/SG15/Na_ONCV_PBE.upf':
  'Na' pseudopotential, 'PBE' functional
  Generated using ONCVPSP code by D. R. Hamann
  Author: Martin Schlipf and Francois Gygi  Date: 150915.
  9 valence electrons, 3 orbitals, 4 projectors, 1992 radial grid points, with lMax = 1
  Transforming local potential to a uniform radial grid of dG=0.02 with 1489 points.
  Transforming nonlocal projectors to a uniform radial grid of dG=0.02 with 432 points.
    2S    l: 0   occupation:  2.0   eigenvalue: -2.085640
    2P    l: 1   occupation:  6.0   eigenvalue: -1.053708
    3S    l: 0   occupation:  1.0   eigenvalue: -0.100838
  Transforming atomic orbitals to a uniform radial grid of dG=0.02 with 432 points.
  Core radius for overlap checks: 2.01 bohrs.
  Reading pulay file /home/gridsan/aligho/DFT/build-Nov24/pseudopotentials/SG15/Na_ONCV_PBE.pulay ... using dE_dnG = -2.946487e-03 computed for Ecut = 20.

Initialized 1 species with 1 total atoms.

Folded 1 k-points by 12x12x1 to 144 k-points.

---------- Setting up k-points, bands, fillings ----------
Reduced to 19 k-points under symmetry. 
Computing the number of bands and number of electrons
Calculating initial fillings.
nElectrons:   9.000000   nBands: 6   nStates: 38

----- Setting up reduced wavefunction bases (one per k-point) -----
average nbasis = 52924.021 , ideal nbasis = 52918.836

---------- Setting up coulomb interaction ----------
Initialized slab truncation along lattice direction 001

---------- Setting up 2D ewald sum ----------
Optimum gaussian width for ewald sums = 10.498040 bohr.
Real space sums over 289 unit cells with max indices [  8  8  0  ]
Reciprocal space sums over 81 terms with max indices [  4  4  0  ]

---------- Allocating electronic variables ----------
Initializing wave functions:  linear combination of atomic orbitals
Note: number of bands (6) exceeds available atomic orbitals (5)
Na pseudo-atom occupations:   s ( 2 1 )  p ( 6 )
[d-6-8-2:62702] 18 more processes have sent help message help-mpi-common-cuda.txt / dlopen failed
[d-6-8-2:62702] Set MCA parameter "orte_base_help_aggregate" to 0 to see all help / error messages
[d-6-8-2:62702] 18 more processes have sent help message help-mpi-btl-openib-cpc-base.txt / no cpcs for port
	FillingsUpdate:  mu: -0.100833540  nElectrons: 9.000000  magneticMoment: [ Abs: 0.38000  Tot: +0.38000 ]
LCAOMinimize: Iter:   0  F: -42.5507743279010739  |grad|_K:  1.116e-06  alpha:  1.000e+00
	FillingsUpdate:  mu: -0.100833323  nElectrons: 9.000000  magneticMoment: [ Abs: 0.38000  Tot: +0.38000 ]
LCAOMinimize: Iter:   1  F: -42.5507743287489006  |grad|_K:  4.820e-09  alpha:  9.945e-01  linmin: -2.628e-04  cgtest:  5.649e-02  t[s]:     14.73
LCAOMinimize: Encountered beta<0, resetting CG.
LCAOMinimize: 	Wrong curvature in test step, increasing alphaT to 2.983394e+00.
	FillingsUpdate:  mu: -0.100833323  nElectrons: 9.000000  magneticMoment: [ Abs: 0.38000  Tot: +0.38000 ]
LCAOMinimize: Iter:   2  F: -42.5507743287492985  |grad|_K:  2.433e-11  alpha: -4.253e-02  linmin: -3.468e-03  cgtest:  5.606e-01  t[s]:     18.68
LCAOMinimize: Encountered beta<0, resetting CG.
LCAOMinimize: Converged (|Delta F|<1.000000e-06 for 2 iters).


---- Citations for features of the code used in this run ----

   Software package:
      R. Sundararaman, K. Letchworth-Weaver, K.A. Schwarz, D. Gunceler, Y. Ozhabes and T.A. Arias, 'JDFTx: software for joint density-functional theory', SoftwareX 6, 278 (2017)

   gga-PBE exchange-correlation functional:
      J.P. Perdew, K. Burke and M. Ernzerhof, Phys. Rev. Lett. 77, 3865 (1996)

   Pseudopotentials:
      M Schlipf and F Gygi, Comput. Phys. Commun. 196, 36 (2015)

   Truncated Coulomb potentials:
      R. Sundararaman and T.A. Arias, Phys. Rev. B 87, 165122 (2013)

This list may not be complete. Please suggest additional citations or
report any other bugs at https://github.com/shankar1729/jdftx/issues

Initialization completed successfully at t[s]:     18.83


-------- Electronic minimization -----------
Will mix electronic density at each iteration.
	FillingsUpdate:  mu: -0.100833323  nElectrons: 9.000000  magneticMoment: [ Abs: 0.38000  Tot: +0.38000 ]
	FillingsUpdate:  mu: -0.100873930  nElectrons: 9.000000  magneticMoment: [ Abs: 0.38000  Tot: +0.38000 ]
SCF: Cycle:  0   F: -42.550818594296864   dF: -4.427e-05   |Residual|: 1.899e-03   |deigs|: 1.674e-01  t[s]:     26.31
	FillingsUpdate:  mu: -0.100869772  nElectrons: 9.000000  magneticMoment: [ Abs: 0.38072  Tot: +0.38000 ]
SCF: Cycle:  1   F: -42.550819092723536   dF: -4.984e-07   |Residual|: 8.416e-04   |deigs|: 1.291e-02  t[s]:     32.19
	FillingsUpdate:  mu: -0.100867535  nElectrons: 9.000000  magneticMoment: [ Abs: 0.38055  Tot: +0.38000 ]
SCF: Cycle:  2   F: -42.550819210853113   dF: -1.181e-07   |Residual|: 2.305e-04   |deigs|: 1.794e-03  t[s]:     38.14
	FillingsUpdate:  mu: -0.100863793  nElectrons: 9.000000  magneticMoment: [ Abs: 0.38067  Tot: +0.38000 ]
SCF: Cycle:  3   F: -42.550819245719282   dF: -3.487e-08   |Residual|: 8.592e-05   |deigs|: 3.028e-04  t[s]:     44.20
	FillingsUpdate:  mu: -0.100858702  nElectrons: 9.000000  magneticMoment: [ Abs: 0.38063  Tot: +0.38000 ]
SCF: Cycle:  4   F: -42.550819256886435   dF: -1.117e-08   |Residual|: 5.633e-05   |deigs|: 2.665e-04  t[s]:     50.33
	FillingsUpdate:  mu: -0.100847992  nElectrons: 9.000000  magneticMoment: [ Abs: 0.38065  Tot: +0.38000 ]
SCF: Cycle:  5   F: -42.550819271636627   dF: -1.475e-08   |Residual|: 4.044e-05   |deigs|: 2.595e-04  t[s]:     56.64
	FillingsUpdate:  mu: -0.100840267  nElectrons: 9.000000  magneticMoment: [ Abs: 0.38063  Tot: +0.38000 ]
SCF: Cycle:  6   F: -42.550819275598862   dF: -3.962e-09   |Residual|: 2.739e-05   |deigs|: 1.918e-04  t[s]:     63.01
	FillingsUpdate:  mu: -0.100825211  nElectrons: 9.000000  magneticMoment: [ Abs: 0.38064  Tot: +0.38000 ]
SCF: Cycle:  7   F: -42.550819277832304   dF: -2.233e-09   |Residual|: 2.399e-05   |deigs|: 2.011e-04  t[s]:     69.55
SCF: Converged (|Delta E|<1.000000e-08 for 2 iters).


# Ionic positions in lattice coordinates:
ion Na   0.000000000000000   0.000000000000000   0.000000000000000 0

# Forces in Lattice coordinates:
force Na  -0.000000000000000  -0.000000000000000   0.000000000000000 0

# Energy components:
   Eewald =       -9.0240130501663280
       EH =       24.7701716099457805
     Eloc =      -60.8140458918505615
      Enl =      -12.9027727687426328
   Epulay =        0.0000012333957556
      Exc =       -6.2109652239100219
       KE =       21.6308064787089407
-------------------------------------
     Etot =      -42.5508176126190634
       TS =        0.0000016652132397
-------------------------------------
        F =      -42.5508192778323036

IonicMinimize: Iter:   0  F: -42.550819277832304  |grad|_K:  0.000e+00  t[s]:     69.80
IonicMinimize: Converged (|grad|_K<1.000000e-04).

#--- Lowdin population analysis ---
# oxidation-state Na +0.000
# magnetic-moments Na +0.380

End date and time: Sat Feb  5 22:35:05 2022  (Duration: 0-0:01:09.87)
Done!
