The alkali metal is Na
scale=2
magnetization=0.04
--------------------------------------------------------------------------
The library attempted to open the following supporting CUDA libraries,
but each of them failed.  CUDA-aware support is disabled.
libcuda.so.1: cannot open shared object file: No such file or directory
libcuda.dylib: cannot open shared object file: No such file or directory
/usr/lib64/libcuda.so.1: cannot open shared object file: No such file or directory
/usr/lib64/libcuda.dylib: cannot open shared object file: No such file or directory
If you are not interested in CUDA-aware support, then run with
--mca opal_warn_on_missing_libcuda 0 to suppress this message.  If you are interested
in CUDA-aware support, then try setting LD_LIBRARY_PATH to the location
of libcuda.so.1 to get passed this issue.
--------------------------------------------------------------------------
--------------------------------------------------------------------------
No OpenFabrics connection schemes reported that they were able to be
used on a specific port.  As such, the openib BTL (OpenFabrics
support) will be disabled for this port.

  Local host:           d-3-7-1
  Local device:         mlx5_1
  Local port:           1
  CPCs attempted:       rdmacm, udcm
--------------------------------------------------------------------------

*************** JDFTx 1.6.0 (git hash 42ebbcc2) ***************

Start date and time: Sat Feb  5 22:29:25 2022
Executable jdftx with command-line: -i Alkali.in
Running on hosts (process indices):  d-3-7-1 (0-18)
Divided in process groups (process indices):  0 (0)  1 (1)  2 (2)  3 (3)  4 (4)  5 (5)  6 (6)  7 (7)  8 (8)  9 (9)  10 (10)  11 (11)  12 (12)  13 (13)  14 (14)  15 (15)  16 (16)  17 (17)  18 (18)
Resource initialization completed at t[s]:      0.00
Run totals: 19 processes, 48 threads, 0 GPUs


Input parsed successfully to the following command list (including defaults):

basis kpoint-dependent
coords-type Lattice
core-overlap-check vector
coulomb-interaction Slab 001
davidson-band-ratio 1.1
dump End None
dump-name $INPUT.$VAR
elec-cutoff 20
elec-eigen-algo Davidson
elec-ex-corr gga-PBE
elec-initial-magnetization 0.040000 yes
elec-smearing Fermi 1e-05
electronic-minimize  \
	dirUpdateScheme      FletcherReeves \
	linminMethod         DirUpdateRecommended \
	nIterations          100 \
	history              15 \
	knormThreshold       0 \
	energyDiffThreshold  1e-08 \
	nEnergyDiff          2 \
	alphaTstart          1 \
	alphaTmin            1e-10 \
	updateTestStepSize   yes \
	alphaTreduceFactor   0.1 \
	alphaTincreaseFactor 3 \
	nAlphaAdjustMax      3 \
	wolfeEnergy          0.0001 \
	wolfeGradient        0.9 \
	fdTest               no
electronic-scf  \
	nIterations	10000 \
	energyDiffThreshold	1e-08 \
	residualThreshold	1e-07 \
	mixFraction	0.5 \
	qMetric	0.8 \
	history	10 \
	nEigSteps	2 \
	eigDiffThreshold	1e-08 \
	mixedVariable	Density \
	qKerker	0.8 \
	qKappa	-1 \
	verbose	no \
	mixFractionMag	1.5
exchange-regularization WignerSeitzTruncated
fluid None
fluid-ex-corr (null) lda-PZ
fluid-gummel-loop 10 1.000000e-05
fluid-minimize  \
	dirUpdateScheme      PolakRibiere \
	linminMethod         DirUpdateRecommended \
	nIterations          100 \
	history              15 \
	knormThreshold       0 \
	energyDiffThreshold  0 \
	nEnergyDiff          2 \
	alphaTstart          1 \
	alphaTmin            1e-10 \
	updateTestStepSize   yes \
	alphaTreduceFactor   0.1 \
	alphaTincreaseFactor 3 \
	nAlphaAdjustMax      3 \
	wolfeEnergy          0.0001 \
	wolfeGradient        0.9 \
	fdTest               no
fluid-solvent H2O 55.338 ScalarEOS \
	epsBulk 78.4 \
	pMol 0.92466 \
	epsInf 1.77 \
	Pvap 1.06736e-10 \
	sigmaBulk 4.62e-05 \
	Rvdw 2.61727 \
	Res 1.42 \
	tauNuc 343133 \
	poleEl 15 7 1
forces-output-coords Positions
ion Na   0.000000000000000   0.000000000000000   0.000000000000000 0
ion-species SG15/$ID_ONCV_PBE.upf
ion-width 0
ionic-minimize  \
	dirUpdateScheme      L-BFGS \
	linminMethod         DirUpdateRecommended \
	nIterations          0 \
	history              15 \
	knormThreshold       0.0001 \
	energyDiffThreshold  1e-06 \
	nEnergyDiff          2 \
	alphaTstart          1 \
	alphaTmin            1e-10 \
	updateTestStepSize   yes \
	alphaTreduceFactor   0.1 \
	alphaTincreaseFactor 3 \
	nAlphaAdjustMax      3 \
	wolfeEnergy          0.0001 \
	wolfeGradient        0.9 \
	fdTest               no
kpoint   0.000000000000   0.000000000000   0.000000000000  1.00000000000000
kpoint-folding 12 12 1 
latt-move-scale 1 1 1
latt-scale 2 2 1 
lattice  \
	   4.727486978767153   -2.363743489383575    0.000000000000000  \
	  -0.000000000000000    4.094123819672498    0.000000000000000  \
	   0.000000000000000    0.000000000000000   40.000000000000000 
lattice-minimize  \
	dirUpdateScheme      L-BFGS \
	linminMethod         DirUpdateRecommended \
	nIterations          0 \
	history              15 \
	knormThreshold       0 \
	energyDiffThreshold  1e-06 \
	nEnergyDiff          2 \
	alphaTstart          1 \
	alphaTmin            1e-10 \
	updateTestStepSize   yes \
	alphaTreduceFactor   0.1 \
	alphaTincreaseFactor 3 \
	nAlphaAdjustMax      3 \
	wolfeEnergy          0.0001 \
	wolfeGradient        0.9 \
	fdTest               no
lcao-params -1 1e-06 1e-05
pcm-variant GLSSA13
spintype z-spin
subspace-rotation-factor 1 yes
symmetries automatic
symmetry-threshold 0.0001



---------- Setting up symmetries ----------

Found 24 point-group symmetries of the bravais lattice
Found 24 space-group symmetries with basis
Applied RMS atom displacement 0 bohrs to make symmetries exact.

---------- Initializing the Grid ----------
R = 
[      9.45497     -4.72749            0  ]
[            0      8.18825            0  ]
[            0            0           40  ]
unit cell volume = 3096.79
G =
[   0.664538   0.383671         -0  ]
[          0   0.767342         -0  ]
[         -0         -0    0.15708  ]
Minimum fftbox size, Smin = [  40  40  164  ]
Chosen fftbox size, S = [  40  40  168  ]

---------- Exchange Correlation functional ----------
Initalized PBE GGA exchange.
Initalized PBE GGA correlation.

---------- Setting up pseudopotentials ----------
Width of ionic core gaussian charges (only for fluid interactions / plotting) set to 0

Reading pseudopotential file '/home/gridsan/aligho/DFT/build-Nov24/pseudopotentials/SG15/Na_ONCV_PBE.upf':
  'Na' pseudopotential, 'PBE' functional
  Generated using ONCVPSP code by D. R. Hamann
  Author: Martin Schlipf and Francois Gygi  Date: 150915.
  9 valence electrons, 3 orbitals, 4 projectors, 1992 radial grid points, with lMax = 1
  Transforming local potential to a uniform radial grid of dG=0.02 with 1489 points.
  Transforming nonlocal projectors to a uniform radial grid of dG=0.02 with 432 points.
    2S    l: 0   occupation:  2.0   eigenvalue: -2.085640
    2P    l: 1   occupation:  6.0   eigenvalue: -1.053708
    3S    l: 0   occupation:  1.0   eigenvalue: -0.100838
  Transforming atomic orbitals to a uniform radial grid of dG=0.02 with 432 points.
  Core radius for overlap checks: 2.01 bohrs.
  Reading pulay file /home/gridsan/aligho/DFT/build-Nov24/pseudopotentials/SG15/Na_ONCV_PBE.pulay ... using dE_dnG = -2.946487e-03 computed for Ecut = 20.

Initialized 1 species with 1 total atoms.

Folded 1 k-points by 12x12x1 to 144 k-points.

---------- Setting up k-points, bands, fillings ----------
Reduced to 19 k-points under symmetry. 
Computing the number of bands and number of electrons
Calculating initial fillings.
nElectrons:   9.000000   nBands: 6   nStates: 38

----- Setting up reduced wavefunction bases (one per k-point) -----
average nbasis = 13230.521 , ideal nbasis = 13229.709

---------- Setting up coulomb interaction ----------
Initialized slab truncation along lattice direction 001

---------- Setting up 2D ewald sum ----------
Optimum gaussian width for ewald sums = 5.249020 bohr.
Real space sums over 289 unit cells with max indices [  8  8  0  ]
Reciprocal space sums over 81 terms with max indices [  4  4  0  ]

---------- Allocating electronic variables ----------
Initializing wave functions:  linear combination of atomic orbitals
Note: number of bands (6) exceeds available atomic orbitals (5)
Na pseudo-atom occupations:   s ( 2 1 )  p ( 6 )
	FillingsUpdate:  mu: -0.104935631  nElectrons: 9.000000  magneticMoment: [ Abs: 0.04000  Tot: +0.04000 ]
LCAOMinimize: Iter:   0  F: -42.5689221228301804  |grad|_K:  3.190e-05  alpha:  1.000e+00
	FillingsUpdate:  mu: -0.104933845  nElectrons: 9.000000  magneticMoment: [ Abs: 0.04000  Tot: +0.04000 ]
[d-3-7-1:68484] 18 more processes have sent help message help-mpi-common-cuda.txt / dlopen failed
[d-3-7-1:68484] Set MCA parameter "orte_base_help_aggregate" to 0 to see all help / error messages
[d-3-7-1:68484] 18 more processes have sent help message help-mpi-btl-openib-cpc-base.txt / no cpcs for port
LCAOMinimize: Iter:   1  F: -42.5689228098798154  |grad|_K:  3.115e-07  alpha:  9.874e-01  linmin: -1.688e-02  cgtest:  6.969e-01  t[s]:      4.65
LCAOMinimize: Encountered beta<0, resetting CG.
	FillingsUpdate:  mu: -0.104933897  nElectrons: 9.000000  magneticMoment: [ Abs: 0.04000  Tot: +0.04000 ]
LCAOMinimize: Iter:   2  F: -42.5689228099459598  |grad|_K:  3.492e-09  alpha:  1.013e+00  linmin:  3.275e-02  cgtest: -9.984e-01  t[s]:      5.86
LCAOMinimize: Converged (|Delta F|<1.000000e-06 for 2 iters).


---- Citations for features of the code used in this run ----

   Software package:
      R. Sundararaman, K. Letchworth-Weaver, K.A. Schwarz, D. Gunceler, Y. Ozhabes and T.A. Arias, 'JDFTx: software for joint density-functional theory', SoftwareX 6, 278 (2017)

   gga-PBE exchange-correlation functional:
      J.P. Perdew, K. Burke and M. Ernzerhof, Phys. Rev. Lett. 77, 3865 (1996)

   Pseudopotentials:
      M Schlipf and F Gygi, Comput. Phys. Commun. 196, 36 (2015)

   Truncated Coulomb potentials:
      R. Sundararaman and T.A. Arias, Phys. Rev. B 87, 165122 (2013)

This list may not be complete. Please suggest additional citations or
report any other bugs at https://github.com/shankar1729/jdftx/issues

Initialization completed successfully at t[s]:      5.92


-------- Electronic minimization -----------
Will mix electronic density at each iteration.
	FillingsUpdate:  mu: -0.104933897  nElectrons: 9.000000  magneticMoment: [ Abs: 0.04000  Tot: +0.04000 ]
	FillingsUpdate:  mu: -0.113033720  nElectrons: 9.000000  magneticMoment: [ Abs: 0.04000  Tot: +0.04000 ]
SCF: Cycle:  0   F: -42.572990021121498   dF: -4.067e-03   |Residual|: 6.920e-03   |deigs|: 1.706e-01  t[s]:      8.37
	FillingsUpdate:  mu: -0.113206692  nElectrons: 9.000000  magneticMoment: [ Abs: 0.04000  Tot: +0.04000 ]
SCF: Cycle:  1   F: -42.573050186210985   dF: -6.017e-05   |Residual|: 5.004e-03   |deigs|: 8.921e-03  t[s]:     10.11
	FillingsUpdate:  mu: -0.112970878  nElectrons: 9.000000  magneticMoment: [ Abs: 0.04045  Tot: +0.04000 ]
SCF: Cycle:  2   F: -42.573070650925281   dF: -2.046e-05   |Residual|: 1.985e-03   |deigs|: 6.932e-03  t[s]:     11.85
	FillingsUpdate:  mu: -0.112321705  nElectrons: 9.000000  magneticMoment: [ Abs: 0.04000  Tot: +0.04000 ]
SCF: Cycle:  3   F: -42.573074225047797   dF: -3.574e-06   |Residual|: 9.934e-04   |deigs|: 4.186e-03  t[s]:     13.61
	FillingsUpdate:  mu: -0.111998677  nElectrons: 9.000000  magneticMoment: [ Abs: 0.04000  Tot: +0.04000 ]
SCF: Cycle:  4   F: -42.573074730988161   dF: -5.059e-07   |Residual|: 8.236e-04   |deigs|: 3.301e-03  t[s]:     15.37
	FillingsUpdate:  mu: -0.111273553  nElectrons: 9.000000  magneticMoment: [ Abs: 0.04017  Tot: +0.04000 ]
SCF: Cycle:  5   F: -42.573075095750355   dF: -3.648e-07   |Residual|: 5.971e-04   |deigs|: 2.331e-03  t[s]:     17.19
	FillingsUpdate:  mu: -0.110242976  nElectrons: 9.000000  magneticMoment: [ Abs: 0.04037  Tot: +0.04000 ]
SCF: Cycle:  6   F: -42.573074833890018   dF: +2.619e-07   |Residual|: 4.312e-04   |deigs|: 1.392e-03  t[s]:     19.04
	FillingsUpdate:  mu: -0.109879583  nElectrons: 9.000000  magneticMoment: [ Abs: 0.04036  Tot: +0.04000 ]
SCF: Cycle:  7   F: -42.573075465895634   dF: -6.320e-07   |Residual|: 3.458e-04   |deigs|: 5.338e-04  t[s]:     20.94
	FillingsUpdate:  mu: -0.109175210  nElectrons: 9.000000  magneticMoment: [ Abs: 0.04022  Tot: +0.04000 ]
SCF: Cycle:  8   F: -42.573076008843117   dF: -5.429e-07   |Residual|: 3.155e-04   |deigs|: 9.388e-04  t[s]:     22.90
	FillingsUpdate:  mu: -0.108897607  nElectrons: 9.000000  magneticMoment: [ Abs: 0.04021  Tot: +0.04000 ]
SCF: Cycle:  9   F: -42.573075875583790   dF: +1.333e-07   |Residual|: 2.329e-04   |deigs|: 1.772e-04  t[s]:     24.79
	FillingsUpdate:  mu: -0.108491773  nElectrons: 9.000000  magneticMoment: [ Abs: 0.04039  Tot: +0.04000 ]
SCF: Cycle: 10   F: -42.573074849429830   dF: +1.026e-06   |Residual|: 2.288e-04   |deigs|: 2.976e-04  t[s]:     26.78
	FillingsUpdate:  mu: -0.107920606  nElectrons: 9.000000  magneticMoment: [ Abs: 0.04022  Tot: +0.04000 ]
SCF: Cycle: 11   F: -42.573075389868258   dF: -5.404e-07   |Residual|: 1.909e-04   |deigs|: 7.837e-04  t[s]:     28.70
	FillingsUpdate:  mu: -0.107367797  nElectrons: 9.000000  magneticMoment: [ Abs: 0.04049  Tot: +0.04000 ]
SCF: Cycle: 12   F: -42.573076486557930   dF: -1.097e-06   |Residual|: 1.881e-04   |deigs|: 8.745e-04  t[s]:     30.60
	FillingsUpdate:  mu: -0.107055177  nElectrons: 9.000000  magneticMoment: [ Abs: 0.04027  Tot: +0.04000 ]
SCF: Cycle: 13   F: -42.573077220670484   dF: -7.341e-07   |Residual|: 1.621e-04   |deigs|: 2.759e-04  t[s]:     32.47
	FillingsUpdate:  mu: -0.106575684  nElectrons: 9.000000  magneticMoment: [ Abs: 0.04021  Tot: +0.04000 ]
SCF: Cycle: 14   F: -42.573077835473171   dF: -6.148e-07   |Residual|: 1.476e-04   |deigs|: 5.042e-04  t[s]:     34.34
	FillingsUpdate:  mu: -0.106151501  nElectrons: 9.000000  magneticMoment: [ Abs: 0.04013  Tot: +0.04000 ]
SCF: Cycle: 15   F: -42.573078135305394   dF: -2.998e-07   |Residual|: 1.025e-04   |deigs|: 4.816e-04  t[s]:     36.29
	FillingsUpdate:  mu: -0.106016876  nElectrons: 9.000000  magneticMoment: [ Abs: 0.04013  Tot: +0.04000 ]
SCF: Cycle: 16   F: -42.573078207875895   dF: -7.257e-08   |Residual|: 7.459e-05   |deigs|: 1.345e-04  t[s]:     38.21
	FillingsUpdate:  mu: -0.105943072  nElectrons: 9.000000  magneticMoment: [ Abs: 0.04005  Tot: +0.04000 ]
SCF: Cycle: 17   F: -42.573078234584983   dF: -2.671e-08   |Residual|: 4.190e-05   |deigs|: 3.666e-04  t[s]:     40.18
	FillingsUpdate:  mu: -0.105889072  nElectrons: 9.000000  magneticMoment: [ Abs: 0.04003  Tot: +0.04000 ]
SCF: Cycle: 18   F: -42.573078246004563   dF: -1.142e-08   |Residual|: 2.774e-05   |deigs|: 8.193e-04  t[s]:     42.09
	FillingsUpdate:  mu: -0.105851048  nElectrons: 9.000000  magneticMoment: [ Abs: 0.04005  Tot: +0.04000 ]
SCF: Cycle: 19   F: -42.573078251752023   dF: -5.747e-09   |Residual|: 1.683e-05   |deigs|: 9.200e-05  t[s]:     44.01
	FillingsUpdate:  mu: -0.105844061  nElectrons: 9.000000  magneticMoment: [ Abs: 0.04002  Tot: +0.04000 ]
SCF: Cycle: 20   F: -42.573078255219791   dF: -3.468e-09   |Residual|: 5.686e-06   |deigs|: 3.222e-05  t[s]:     45.97
SCF: Converged (|Delta E|<1.000000e-08 for 2 iters).


# Ionic positions in lattice coordinates:
ion Na   0.000000000000000   0.000000000000000   0.000000000000000 0

# Forces in Lattice coordinates:
force Na   0.000000000000000   0.000000000000000   0.000000000000000 0

# Energy components:
   Eewald =      -18.0480261003326561
       EH =       15.7222990941444198
     Eloc =      -42.7337111905128708
      Enl =      -12.9128506977245276
   Epulay =        0.0000007725295140
      Exc =       -6.2158436859229580
       KE =       21.6150544388138215
-------------------------------------
     Etot =      -42.5730773690052686
       TS =        0.0000008862145228
-------------------------------------
        F =      -42.5730782552197908

IonicMinimize: Iter:   0  F: -42.573078255219791  |grad|_K:  0.000e+00  t[s]:     46.05
IonicMinimize: Converged (|grad|_K<1.000000e-04).

#--- Lowdin population analysis ---
# oxidation-state Na +0.034
# magnetic-moments Na +0.036

End date and time: Sat Feb  5 22:30:11 2022  (Duration: 0-0:00:46.07)
Done!
scale=3
magnetization=0.04
--------------------------------------------------------------------------
The library attempted to open the following supporting CUDA libraries,
but each of them failed.  CUDA-aware support is disabled.
libcuda.so.1: cannot open shared object file: No such file or directory
libcuda.dylib: cannot open shared object file: No such file or directory
/usr/lib64/libcuda.so.1: cannot open shared object file: No such file or directory
/usr/lib64/libcuda.dylib: cannot open shared object file: No such file or directory
If you are not interested in CUDA-aware support, then run with
--mca opal_warn_on_missing_libcuda 0 to suppress this message.  If you are interested
in CUDA-aware support, then try setting LD_LIBRARY_PATH to the location
of libcuda.so.1 to get passed this issue.
--------------------------------------------------------------------------
--------------------------------------------------------------------------
No OpenFabrics connection schemes reported that they were able to be
used on a specific port.  As such, the openib BTL (OpenFabrics
support) will be disabled for this port.

  Local host:           d-3-7-1
  Local device:         mlx5_1
  Local port:           1
  CPCs attempted:       rdmacm, udcm
--------------------------------------------------------------------------

*************** JDFTx 1.6.0 (git hash 42ebbcc2) ***************

Start date and time: Sat Feb  5 22:30:12 2022
Executable jdftx with command-line: -i Alkali.in
Running on hosts (process indices):  d-3-7-1 (0-18)
Divided in process groups (process indices):  0 (0)  1 (1)  2 (2)  3 (3)  4 (4)  5 (5)  6 (6)  7 (7)  8 (8)  9 (9)  10 (10)  11 (11)  12 (12)  13 (13)  14 (14)  15 (15)  16 (16)  17 (17)  18 (18)
Resource initialization completed at t[s]:      0.00
Run totals: 19 processes, 48 threads, 0 GPUs


Input parsed successfully to the following command list (including defaults):

basis kpoint-dependent
coords-type Lattice
core-overlap-check vector
coulomb-interaction Slab 001
davidson-band-ratio 1.1
dump End None
dump-name $INPUT.$VAR
elec-cutoff 20
elec-eigen-algo Davidson
elec-ex-corr gga-PBE
elec-initial-magnetization 0.040000 yes
elec-smearing Fermi 1e-05
electronic-minimize  \
	dirUpdateScheme      FletcherReeves \
	linminMethod         DirUpdateRecommended \
	nIterations          100 \
	history              15 \
	knormThreshold       0 \
	energyDiffThreshold  1e-08 \
	nEnergyDiff          2 \
	alphaTstart          1 \
	alphaTmin            1e-10 \
	updateTestStepSize   yes \
	alphaTreduceFactor   0.1 \
	alphaTincreaseFactor 3 \
	nAlphaAdjustMax      3 \
	wolfeEnergy          0.0001 \
	wolfeGradient        0.9 \
	fdTest               no
electronic-scf  \
	nIterations	10000 \
	energyDiffThreshold	1e-08 \
	residualThreshold	1e-07 \
	mixFraction	0.5 \
	qMetric	0.8 \
	history	10 \
	nEigSteps	2 \
	eigDiffThreshold	1e-08 \
	mixedVariable	Density \
	qKerker	0.8 \
	qKappa	-1 \
	verbose	no \
	mixFractionMag	1.5
exchange-regularization WignerSeitzTruncated
fluid None
fluid-ex-corr (null) lda-PZ
fluid-gummel-loop 10 1.000000e-05
fluid-minimize  \
	dirUpdateScheme      PolakRibiere \
	linminMethod         DirUpdateRecommended \
	nIterations          100 \
	history              15 \
	knormThreshold       0 \
	energyDiffThreshold  0 \
	nEnergyDiff          2 \
	alphaTstart          1 \
	alphaTmin            1e-10 \
	updateTestStepSize   yes \
	alphaTreduceFactor   0.1 \
	alphaTincreaseFactor 3 \
	nAlphaAdjustMax      3 \
	wolfeEnergy          0.0001 \
	wolfeGradient        0.9 \
	fdTest               no
fluid-solvent H2O 55.338 ScalarEOS \
	epsBulk 78.4 \
	pMol 0.92466 \
	epsInf 1.77 \
	Pvap 1.06736e-10 \
	sigmaBulk 4.62e-05 \
	Rvdw 2.61727 \
	Res 1.42 \
	tauNuc 343133 \
	poleEl 15 7 1
forces-output-coords Positions
ion Na   0.000000000000000   0.000000000000000   0.000000000000000 0
ion-species SG15/$ID_ONCV_PBE.upf
ion-width 0
ionic-minimize  \
	dirUpdateScheme      L-BFGS \
	linminMethod         DirUpdateRecommended \
	nIterations          0 \
	history              15 \
	knormThreshold       0.0001 \
	energyDiffThreshold  1e-06 \
	nEnergyDiff          2 \
	alphaTstart          1 \
	alphaTmin            1e-10 \
	updateTestStepSize   yes \
	alphaTreduceFactor   0.1 \
	alphaTincreaseFactor 3 \
	nAlphaAdjustMax      3 \
	wolfeEnergy          0.0001 \
	wolfeGradient        0.9 \
	fdTest               no
kpoint   0.000000000000   0.000000000000   0.000000000000  1.00000000000000
kpoint-folding 12 12 1 
latt-move-scale 1 1 1
latt-scale 3 3 1 
lattice  \
	   4.727486978767153   -2.363743489383575    0.000000000000000  \
	  -0.000000000000000    4.094123819672498    0.000000000000000  \
	   0.000000000000000    0.000000000000000   40.000000000000000 
lattice-minimize  \
	dirUpdateScheme      L-BFGS \
	linminMethod         DirUpdateRecommended \
	nIterations          0 \
	history              15 \
	knormThreshold       0 \
	energyDiffThreshold  1e-06 \
	nEnergyDiff          2 \
	alphaTstart          1 \
	alphaTmin            1e-10 \
	updateTestStepSize   yes \
	alphaTreduceFactor   0.1 \
	alphaTincreaseFactor 3 \
	nAlphaAdjustMax      3 \
	wolfeEnergy          0.0001 \
	wolfeGradient        0.9 \
	fdTest               no
lcao-params -1 1e-06 1e-05
pcm-variant GLSSA13
spintype z-spin
subspace-rotation-factor 1 yes
symmetries automatic
symmetry-threshold 0.0001



---------- Setting up symmetries ----------

Found 24 point-group symmetries of the bravais lattice
Found 24 space-group symmetries with basis
Applied RMS atom displacement 0 bohrs to make symmetries exact.

---------- Initializing the Grid ----------
R = 
[      14.1825     -7.09123            0  ]
[            0      12.2824            0  ]
[            0            0           40  ]
unit cell volume = 6967.77
G =
[   0.443025   0.255781         -0  ]
[          0   0.511561         -0  ]
[         -0         -0    0.15708  ]
Minimum fftbox size, Smin = [  60  60  164  ]
Chosen fftbox size, S = [  60  60  168  ]

---------- Exchange Correlation functional ----------
Initalized PBE GGA exchange.
Initalized PBE GGA correlation.

---------- Setting up pseudopotentials ----------
Width of ionic core gaussian charges (only for fluid interactions / plotting) set to 0

Reading pseudopotential file '/home/gridsan/aligho/DFT/build-Nov24/pseudopotentials/SG15/Na_ONCV_PBE.upf':
  'Na' pseudopotential, 'PBE' functional
  Generated using ONCVPSP code by D. R. Hamann
  Author: Martin Schlipf and Francois Gygi  Date: 150915.
  9 valence electrons, 3 orbitals, 4 projectors, 1992 radial grid points, with lMax = 1
  Transforming local potential to a uniform radial grid of dG=0.02 with 1489 points.
  Transforming nonlocal projectors to a uniform radial grid of dG=0.02 with 432 points.
    2S    l: 0   occupation:  2.0   eigenvalue: -2.085640
    2P    l: 1   occupation:  6.0   eigenvalue: -1.053708
    3S    l: 0   occupation:  1.0   eigenvalue: -0.100838
  Transforming atomic orbitals to a uniform radial grid of dG=0.02 with 432 points.
  Core radius for overlap checks: 2.01 bohrs.
  Reading pulay file /home/gridsan/aligho/DFT/build-Nov24/pseudopotentials/SG15/Na_ONCV_PBE.pulay ... using dE_dnG = -2.946487e-03 computed for Ecut = 20.

Initialized 1 species with 1 total atoms.

Folded 1 k-points by 12x12x1 to 144 k-points.

---------- Setting up k-points, bands, fillings ----------
Reduced to 19 k-points under symmetry. 
Computing the number of bands and number of electrons
Calculating initial fillings.
nElectrons:   9.000000   nBands: 6   nStates: 38

----- Setting up reduced wavefunction bases (one per k-point) -----
average nbasis = 29766.104 , ideal nbasis = 29766.845

---------- Setting up coulomb interaction ----------
Initialized slab truncation along lattice direction 001

---------- Setting up 2D ewald sum ----------
Optimum gaussian width for ewald sums = 7.873530 bohr.
Real space sums over 289 unit cells with max indices [  8  8  0  ]
Reciprocal space sums over 81 terms with max indices [  4  4  0  ]

---------- Allocating electronic variables ----------
Initializing wave functions:  linear combination of atomic orbitals
Note: number of bands (6) exceeds available atomic orbitals (5)
Na pseudo-atom occupations:   s ( 2 1 )  p ( 6 )
[d-3-7-1:89268] 18 more processes have sent help message help-mpi-common-cuda.txt / dlopen failed
[d-3-7-1:89268] Set MCA parameter "orte_base_help_aggregate" to 0 to see all help / error messages
[d-3-7-1:89268] 18 more processes have sent help message help-mpi-btl-openib-cpc-base.txt / no cpcs for port
	FillingsUpdate:  mu: -0.101945340  nElectrons: 9.000000  magneticMoment: [ Abs: 0.04000  Tot: +0.04000 ]
LCAOMinimize: Iter:   0  F: -42.5527915108718560  |grad|_K:  8.640e-06  alpha:  1.000e+00
	FillingsUpdate:  mu: -0.101943476  nElectrons: 9.000000  magneticMoment: [ Abs: 0.04000  Tot: +0.04000 ]
LCAOMinimize: Iter:   1  F: -42.5527915615691228  |grad|_K:  4.837e-08  alpha:  9.930e-01  linmin: -7.291e-03  cgtest:  4.251e-01  t[s]:      8.83
LCAOMinimize: Encountered beta<0, resetting CG.
	FillingsUpdate:  mu: -0.101943473  nElectrons: 9.000000  magneticMoment: [ Abs: 0.04000  Tot: +0.04000 ]
LCAOMinimize: Iter:   2  F: -42.5527915615700820  |grad|_K:  1.279e-08  alpha:  7.353e-01  linmin: -2.628e-02  cgtest:  1.000e+00  t[s]:     11.30
LCAOMinimize: Encountered beta<0, resetting CG.
LCAOMinimize: Converged (|Delta F|<1.000000e-06 for 2 iters).


---- Citations for features of the code used in this run ----

   Software package:
      R. Sundararaman, K. Letchworth-Weaver, K.A. Schwarz, D. Gunceler, Y. Ozhabes and T.A. Arias, 'JDFTx: software for joint density-functional theory', SoftwareX 6, 278 (2017)

   gga-PBE exchange-correlation functional:
      J.P. Perdew, K. Burke and M. Ernzerhof, Phys. Rev. Lett. 77, 3865 (1996)

   Pseudopotentials:
      M Schlipf and F Gygi, Comput. Phys. Commun. 196, 36 (2015)

   Truncated Coulomb potentials:
      R. Sundararaman and T.A. Arias, Phys. Rev. B 87, 165122 (2013)

This list may not be complete. Please suggest additional citations or
report any other bugs at https://github.com/shankar1729/jdftx/issues

Initialization completed successfully at t[s]:     11.41


-------- Electronic minimization -----------
Will mix electronic density at each iteration.
	FillingsUpdate:  mu: -0.101943473  nElectrons: 9.000000  magneticMoment: [ Abs: 0.04000  Tot: +0.04000 ]
	FillingsUpdate:  mu: -0.102299190  nElectrons: 9.000000  magneticMoment: [ Abs: 0.04000  Tot: +0.04000 ]
SCF: Cycle:  0   F: -42.553151736266180   dF: -3.602e-04   |Residual|: 2.145e-03   |deigs|: 1.741e-01  t[s]:     15.88
	FillingsUpdate:  mu: -0.102438391  nElectrons: 9.000000  magneticMoment: [ Abs: 0.04006  Tot: +0.04000 ]
SCF: Cycle:  1   F: -42.553157333157685   dF: -5.597e-06   |Residual|: 1.356e-03   |deigs|: 5.174e-03  t[s]:     19.37
	FillingsUpdate:  mu: -0.102704115  nElectrons: 9.000000  magneticMoment: [ Abs: 0.04005  Tot: +0.04000 ]
SCF: Cycle:  2   F: -42.553160869292952   dF: -3.536e-06   |Residual|: 7.782e-04   |deigs|: 2.772e-03  t[s]:     22.93
	FillingsUpdate:  mu: -0.102933284  nElectrons: 9.000000  magneticMoment: [ Abs: 0.04023  Tot: +0.04000 ]
SCF: Cycle:  3   F: -42.553164005138271   dF: -3.136e-06   |Residual|: 4.925e-04   |deigs|: 1.353e-03  t[s]:     26.55
	FillingsUpdate:  mu: -0.103083184  nElectrons: 9.000000  magneticMoment: [ Abs: 0.04006  Tot: +0.04000 ]
SCF: Cycle:  4   F: -42.553165235048539   dF: -1.230e-06   |Residual|: 2.413e-04   |deigs|: 1.647e-03  t[s]:     30.18
	FillingsUpdate:  mu: -0.103094309  nElectrons: 9.000000  magneticMoment: [ Abs: 0.04015  Tot: +0.04000 ]
SCF: Cycle:  5   F: -42.553165766818594   dF: -5.318e-07   |Residual|: 2.485e-04   |deigs|: 1.555e-03  t[s]:     33.90
	FillingsUpdate:  mu: -0.103076963  nElectrons: 9.000000  magneticMoment: [ Abs: 0.04007  Tot: +0.04000 ]
SCF: Cycle:  6   F: -42.553165924111930   dF: -1.573e-07   |Residual|: 1.386e-04   |deigs|: 1.225e-03  t[s]:     37.66
	FillingsUpdate:  mu: -0.103024266  nElectrons: 9.000000  magneticMoment: [ Abs: 0.04012  Tot: +0.04000 ]
SCF: Cycle:  7   F: -42.553166024041886   dF: -9.993e-08   |Residual|: 1.185e-04   |deigs|: 9.897e-04  t[s]:     41.53
	FillingsUpdate:  mu: -0.102995205  nElectrons: 9.000000  magneticMoment: [ Abs: 0.04006  Tot: +0.04000 ]
SCF: Cycle:  8   F: -42.553166037176922   dF: -1.314e-08   |Residual|: 5.643e-05   |deigs|: 4.724e-05  t[s]:     45.41
	FillingsUpdate:  mu: -0.102960546  nElectrons: 9.000000  magneticMoment: [ Abs: 0.04011  Tot: +0.04000 ]
SCF: Cycle:  9   F: -42.553166047323089   dF: -1.015e-08   |Residual|: 1.119e-04   |deigs|: 2.286e-05  t[s]:     49.39
	FillingsUpdate:  mu: -0.102909326  nElectrons: 9.000000  magneticMoment: [ Abs: 0.04008  Tot: +0.04000 ]
SCF: Cycle: 10   F: -42.553166052351543   dF: -5.028e-09   |Residual|: 4.324e-05   |deigs|: 8.919e-05  t[s]:     53.51
	FillingsUpdate:  mu: -0.102874127  nElectrons: 9.000000  magneticMoment: [ Abs: 0.04007  Tot: +0.04000 ]
SCF: Cycle: 11   F: -42.553166055822267   dF: -3.471e-09   |Residual|: 8.370e-05   |deigs|: 6.822e-05  t[s]:     57.58
SCF: Converged (|Delta E|<1.000000e-08 for 2 iters).


# Ionic positions in lattice coordinates:
ion Na   0.000000000000000   0.000000000000000   0.000000000000000 0

# Forces in Lattice coordinates:
force Na   0.000000000000000   0.000000000000000   0.000000000000000 0

# Energy components:
   Eewald =      -12.0320174002217755
       EH =       21.7028901187100303
     Eloc =      -54.7333721100828754
      Enl =      -12.9046224038883572
   Epulay =       -0.0000003132867683
      Exc =       -6.2055899802414016
       KE =       21.6195469194034118
-------------------------------------
     Etot =      -42.5531651696077446
       TS =        0.0000008862145228
-------------------------------------
        F =      -42.5531660558222669

IonicMinimize: Iter:   0  F: -42.553166055822267  |grad|_K:  0.000e+00  t[s]:     57.73
IonicMinimize: Converged (|grad|_K<1.000000e-04).

#--- Lowdin population analysis ---
# oxidation-state Na +0.005
# magnetic-moments Na +0.040

End date and time: Sat Feb  5 22:31:10 2022  (Duration: 0-0:00:57.78)
Done!
scale=4
magnetization=0.04
--------------------------------------------------------------------------
The library attempted to open the following supporting CUDA libraries,
but each of them failed.  CUDA-aware support is disabled.
libcuda.so.1: cannot open shared object file: No such file or directory
libcuda.dylib: cannot open shared object file: No such file or directory
/usr/lib64/libcuda.so.1: cannot open shared object file: No such file or directory
/usr/lib64/libcuda.dylib: cannot open shared object file: No such file or directory
If you are not interested in CUDA-aware support, then run with
--mca opal_warn_on_missing_libcuda 0 to suppress this message.  If you are interested
in CUDA-aware support, then try setting LD_LIBRARY_PATH to the location
of libcuda.so.1 to get passed this issue.
--------------------------------------------------------------------------
--------------------------------------------------------------------------
No OpenFabrics connection schemes reported that they were able to be
used on a specific port.  As such, the openib BTL (OpenFabrics
support) will be disabled for this port.

  Local host:           d-3-7-1
  Local device:         mlx5_1
  Local port:           1
  CPCs attempted:       rdmacm, udcm
--------------------------------------------------------------------------

*************** JDFTx 1.6.0 (git hash 42ebbcc2) ***************

Start date and time: Sat Feb  5 22:31:11 2022
Executable jdftx with command-line: -i Alkali.in
Running on hosts (process indices):  d-3-7-1 (0-18)
Divided in process groups (process indices):  0 (0)  1 (1)  2 (2)  3 (3)  4 (4)  5 (5)  6 (6)  7 (7)  8 (8)  9 (9)  10 (10)  11 (11)  12 (12)  13 (13)  14 (14)  15 (15)  16 (16)  17 (17)  18 (18)
Resource initialization completed at t[s]:      0.00
Run totals: 19 processes, 48 threads, 0 GPUs


Input parsed successfully to the following command list (including defaults):

basis kpoint-dependent
coords-type Lattice
core-overlap-check vector
coulomb-interaction Slab 001
davidson-band-ratio 1.1
dump End None
dump-name $INPUT.$VAR
elec-cutoff 20
elec-eigen-algo Davidson
elec-ex-corr gga-PBE
elec-initial-magnetization 0.040000 yes
elec-smearing Fermi 1e-05
electronic-minimize  \
	dirUpdateScheme      FletcherReeves \
	linminMethod         DirUpdateRecommended \
	nIterations          100 \
	history              15 \
	knormThreshold       0 \
	energyDiffThreshold  1e-08 \
	nEnergyDiff          2 \
	alphaTstart          1 \
	alphaTmin            1e-10 \
	updateTestStepSize   yes \
	alphaTreduceFactor   0.1 \
	alphaTincreaseFactor 3 \
	nAlphaAdjustMax      3 \
	wolfeEnergy          0.0001 \
	wolfeGradient        0.9 \
	fdTest               no
electronic-scf  \
	nIterations	10000 \
	energyDiffThreshold	1e-08 \
	residualThreshold	1e-07 \
	mixFraction	0.5 \
	qMetric	0.8 \
	history	10 \
	nEigSteps	2 \
	eigDiffThreshold	1e-08 \
	mixedVariable	Density \
	qKerker	0.8 \
	qKappa	-1 \
	verbose	no \
	mixFractionMag	1.5
exchange-regularization WignerSeitzTruncated
fluid None
fluid-ex-corr (null) lda-PZ
fluid-gummel-loop 10 1.000000e-05
fluid-minimize  \
	dirUpdateScheme      PolakRibiere \
	linminMethod         DirUpdateRecommended \
	nIterations          100 \
	history              15 \
	knormThreshold       0 \
	energyDiffThreshold  0 \
	nEnergyDiff          2 \
	alphaTstart          1 \
	alphaTmin            1e-10 \
	updateTestStepSize   yes \
	alphaTreduceFactor   0.1 \
	alphaTincreaseFactor 3 \
	nAlphaAdjustMax      3 \
	wolfeEnergy          0.0001 \
	wolfeGradient        0.9 \
	fdTest               no
fluid-solvent H2O 55.338 ScalarEOS \
	epsBulk 78.4 \
	pMol 0.92466 \
	epsInf 1.77 \
	Pvap 1.06736e-10 \
	sigmaBulk 4.62e-05 \
	Rvdw 2.61727 \
	Res 1.42 \
	tauNuc 343133 \
	poleEl 15 7 1
forces-output-coords Positions
ion Na   0.000000000000000   0.000000000000000   0.000000000000000 0
ion-species SG15/$ID_ONCV_PBE.upf
ion-width 0
ionic-minimize  \
	dirUpdateScheme      L-BFGS \
	linminMethod         DirUpdateRecommended \
	nIterations          0 \
	history              15 \
	knormThreshold       0.0001 \
	energyDiffThreshold  1e-06 \
	nEnergyDiff          2 \
	alphaTstart          1 \
	alphaTmin            1e-10 \
	updateTestStepSize   yes \
	alphaTreduceFactor   0.1 \
	alphaTincreaseFactor 3 \
	nAlphaAdjustMax      3 \
	wolfeEnergy          0.0001 \
	wolfeGradient        0.9 \
	fdTest               no
kpoint   0.000000000000   0.000000000000   0.000000000000  1.00000000000000
kpoint-folding 12 12 1 
latt-move-scale 1 1 1
latt-scale 4 4 1 
lattice  \
	   4.727486978767153   -2.363743489383575    0.000000000000000  \
	  -0.000000000000000    4.094123819672498    0.000000000000000  \
	   0.000000000000000    0.000000000000000   40.000000000000000 
lattice-minimize  \
	dirUpdateScheme      L-BFGS \
	linminMethod         DirUpdateRecommended \
	nIterations          0 \
	history              15 \
	knormThreshold       0 \
	energyDiffThreshold  1e-06 \
	nEnergyDiff          2 \
	alphaTstart          1 \
	alphaTmin            1e-10 \
	updateTestStepSize   yes \
	alphaTreduceFactor   0.1 \
	alphaTincreaseFactor 3 \
	nAlphaAdjustMax      3 \
	wolfeEnergy          0.0001 \
	wolfeGradient        0.9 \
	fdTest               no
lcao-params -1 1e-06 1e-05
pcm-variant GLSSA13
spintype z-spin
subspace-rotation-factor 1 yes
symmetries automatic
symmetry-threshold 0.0001



---------- Setting up symmetries ----------

Found 24 point-group symmetries of the bravais lattice
Found 24 space-group symmetries with basis
Applied RMS atom displacement 0 bohrs to make symmetries exact.

---------- Initializing the Grid ----------
R = 
[      18.9099     -9.45497            0  ]
[            0      16.3765            0  ]
[            0            0           40  ]
unit cell volume = 12387.1
G =
[   0.332269   0.191835         -0  ]
[          0   0.383671         -0  ]
[         -0         -0    0.15708  ]
Minimum fftbox size, Smin = [  80  80  164  ]
Chosen fftbox size, S = [  80  80  168  ]

---------- Exchange Correlation functional ----------
Initalized PBE GGA exchange.
Initalized PBE GGA correlation.

---------- Setting up pseudopotentials ----------
Width of ionic core gaussian charges (only for fluid interactions / plotting) set to 0

Reading pseudopotential file '/home/gridsan/aligho/DFT/build-Nov24/pseudopotentials/SG15/Na_ONCV_PBE.upf':
  'Na' pseudopotential, 'PBE' functional
  Generated using ONCVPSP code by D. R. Hamann
  Author: Martin Schlipf and Francois Gygi  Date: 150915.
  9 valence electrons, 3 orbitals, 4 projectors, 1992 radial grid points, with lMax = 1
  Transforming local potential to a uniform radial grid of dG=0.02 with 1489 points.
  Transforming nonlocal projectors to a uniform radial grid of dG=0.02 with 432 points.
    2S    l: 0   occupation:  2.0   eigenvalue: -2.085640
    2P    l: 1   occupation:  6.0   eigenvalue: -1.053708
    3S    l: 0   occupation:  1.0   eigenvalue: -0.100838
  Transforming atomic orbitals to a uniform radial grid of dG=0.02 with 432 points.
  Core radius for overlap checks: 2.01 bohrs.
  Reading pulay file /home/gridsan/aligho/DFT/build-Nov24/pseudopotentials/SG15/Na_ONCV_PBE.pulay ... using dE_dnG = -2.946487e-03 computed for Ecut = 20.

Initialized 1 species with 1 total atoms.

Folded 1 k-points by 12x12x1 to 144 k-points.

---------- Setting up k-points, bands, fillings ----------
Reduced to 19 k-points under symmetry. 
Computing the number of bands and number of electrons
Calculating initial fillings.
nElectrons:   9.000000   nBands: 6   nStates: 38

----- Setting up reduced wavefunction bases (one per k-point) -----
average nbasis = 52924.021 , ideal nbasis = 52918.836

---------- Setting up coulomb interaction ----------
Initialized slab truncation along lattice direction 001

---------- Setting up 2D ewald sum ----------
Optimum gaussian width for ewald sums = 10.498040 bohr.
Real space sums over 289 unit cells with max indices [  8  8  0  ]
Reciprocal space sums over 81 terms with max indices [  4  4  0  ]

---------- Allocating electronic variables ----------
Initializing wave functions:  linear combination of atomic orbitals
Note: number of bands (6) exceeds available atomic orbitals (5)
Na pseudo-atom occupations:   s ( 2 1 )  p ( 6 )
[d-3-7-1:30672] 18 more processes have sent help message help-mpi-common-cuda.txt / dlopen failed
[d-3-7-1:30672] Set MCA parameter "orte_base_help_aggregate" to 0 to see all help / error messages
[d-3-7-1:30672] 18 more processes have sent help message help-mpi-btl-openib-cpc-base.txt / no cpcs for port
	FillingsUpdate:  mu: -0.101211527  nElectrons: 9.000000  magneticMoment: [ Abs: 0.04000  Tot: +0.04000 ]
LCAOMinimize: Iter:   0  F: -42.5497669984248788  |grad|_K:  1.214e-06  alpha:  1.000e+00
	FillingsUpdate:  mu: -0.101211288  nElectrons: 9.000000  magneticMoment: [ Abs: 0.04000  Tot: +0.04000 ]
LCAOMinimize: Iter:   1  F: -42.5497669994260903  |grad|_K:  5.123e-09  alpha:  9.936e-01  linmin: -8.038e-04  cgtest:  1.014e-01  t[s]:     14.97
LCAOMinimize: Encountered beta<0, resetting CG.
LCAOMinimize: 	Step increased F by 4.618528e-13, reducing alpha to 1.385583e-02.
LCAOMinimize: 	Step increased F by 4.973799e-14, reducing alpha to 1.385583e-03.
LCAOMinimize: 	Step increased F by 6.394885e-14, reducing alpha to 1.385583e-04.
LCAOMinimize: 	Step failed to reduce F after 3 attempts. Quitting step.
LCAOMinimize: 	Undoing step.
LCAOMinimize: 	Step failed along negative gradient direction.
LCAOMinimize: Probably at roundoff error limit. (Stopping)


---- Citations for features of the code used in this run ----

   Software package:
      R. Sundararaman, K. Letchworth-Weaver, K.A. Schwarz, D. Gunceler, Y. Ozhabes and T.A. Arias, 'JDFTx: software for joint density-functional theory', SoftwareX 6, 278 (2017)

   gga-PBE exchange-correlation functional:
      J.P. Perdew, K. Burke and M. Ernzerhof, Phys. Rev. Lett. 77, 3865 (1996)

   Pseudopotentials:
      M Schlipf and F Gygi, Comput. Phys. Commun. 196, 36 (2015)

   Truncated Coulomb potentials:
      R. Sundararaman and T.A. Arias, Phys. Rev. B 87, 165122 (2013)

This list may not be complete. Please suggest additional citations or
report any other bugs at https://github.com/shankar1729/jdftx/issues

Initialization completed successfully at t[s]:     26.30


-------- Electronic minimization -----------
Will mix electronic density at each iteration.
	FillingsUpdate:  mu: -0.101211288  nElectrons: 9.000000  magneticMoment: [ Abs: 0.04000  Tot: +0.04000 ]
	FillingsUpdate:  mu: -0.101223038  nElectrons: 9.000000  magneticMoment: [ Abs: 0.04000  Tot: +0.04000 ]
SCF: Cycle:  0   F: -42.549787941236723   dF: -2.094e-05   |Residual|: 1.829e-03   |deigs|: 1.734e-01  t[s]:     33.95
	FillingsUpdate:  mu: -0.101257217  nElectrons: 9.000000  magneticMoment: [ Abs: 0.04007  Tot: +0.04000 ]
SCF: Cycle:  1   F: -42.549788350616133   dF: -4.094e-07   |Residual|: 8.307e-04   |deigs|: 7.205e-03  t[s]:     40.02
	FillingsUpdate:  mu: -0.101308060  nElectrons: 9.000000  magneticMoment: [ Abs: 0.04005  Tot: +0.04000 ]
SCF: Cycle:  2   F: -42.549788494905187   dF: -1.443e-07   |Residual|: 1.803e-04   |deigs|: 1.716e-03  t[s]:     46.12
	FillingsUpdate:  mu: -0.101322986  nElectrons: 9.000000  magneticMoment: [ Abs: 0.04007  Tot: +0.04000 ]
SCF: Cycle:  3   F: -42.549788503265226   dF: -8.360e-09   |Residual|: 1.020e-04   |deigs|: 4.757e-04  t[s]:     52.35
	FillingsUpdate:  mu: -0.101374067  nElectrons: 9.000000  magneticMoment: [ Abs: 0.04005  Tot: +0.04000 ]
SCF: Cycle:  4   F: -42.549788516974267   dF: -1.371e-08   |Residual|: 1.260e-04   |deigs|: 3.467e-04  t[s]:     58.61
	FillingsUpdate:  mu: -0.101388405  nElectrons: 9.000000  magneticMoment: [ Abs: 0.04008  Tot: +0.04000 ]
SCF: Cycle:  5   F: -42.549788527157389   dF: -1.018e-08   |Residual|: 5.603e-05   |deigs|: 1.634e-04  t[s]:     65.06
	FillingsUpdate:  mu: -0.101427739  nElectrons: 9.000000  magneticMoment: [ Abs: 0.04006  Tot: +0.04000 ]
SCF: Cycle:  6   F: -42.549788537358872   dF: -1.020e-08   |Residual|: 9.564e-05   |deigs|: 2.565e-04  t[s]:     71.52
	FillingsUpdate:  mu: -0.101426893  nElectrons: 9.000000  magneticMoment: [ Abs: 0.04007  Tot: +0.04000 ]
SCF: Cycle:  7   F: -42.549788540478552   dF: -3.120e-09   |Residual|: 3.143e-05   |deigs|: 2.538e-04  t[s]:     78.15
	FillingsUpdate:  mu: -0.101418965  nElectrons: 9.000000  magneticMoment: [ Abs: 0.04006  Tot: +0.04000 ]
SCF: Cycle:  8   F: -42.549788545907241   dF: -5.429e-09   |Residual|: 3.959e-05   |deigs|: 2.449e-04  t[s]:     84.87
SCF: Converged (|Delta E|<1.000000e-08 for 2 iters).


# Ionic positions in lattice coordinates:
ion Na   0.000000000000000   0.000000000000000   0.000000000000000 0

# Forces in Lattice coordinates:
force Na   0.000000000000000   0.000000000000000   0.000000000000000 0

# Energy components:
   Eewald =       -9.0240130501663280
       EH =       24.7625000651927927
     Eloc =      -60.8058026945160393
      Enl =      -12.9025450569653959
   Epulay =        0.0000012333957556
      Exc =       -6.2092493314095023
       KE =       21.6293212680177795
-------------------------------------
     Etot =      -42.5497875664509309
       TS =        0.0000009794563122
-------------------------------------
        F =      -42.5497885459072407

IonicMinimize: Iter:   0  F: -42.549788545907241  |grad|_K:  0.000e+00  t[s]:     85.13
IonicMinimize: Converged (|grad|_K<1.000000e-04).

#--- Lowdin population analysis ---
# oxidation-state Na +0.000
# magnetic-moments Na +0.040

End date and time: Sat Feb  5 22:32:36 2022  (Duration: 0-0:01:25.21)
Done!
