The alkali metal is Na
scale=2
magnetization=-0.2
--------------------------------------------------------------------------
The library attempted to open the following supporting CUDA libraries,
but each of them failed.  CUDA-aware support is disabled.
libcuda.so.1: cannot open shared object file: No such file or directory
libcuda.dylib: cannot open shared object file: No such file or directory
/usr/lib64/libcuda.so.1: cannot open shared object file: No such file or directory
/usr/lib64/libcuda.dylib: cannot open shared object file: No such file or directory
If you are not interested in CUDA-aware support, then run with
--mca opal_warn_on_missing_libcuda 0 to suppress this message.  If you are interested
in CUDA-aware support, then try setting LD_LIBRARY_PATH to the location
of libcuda.so.1 to get passed this issue.
--------------------------------------------------------------------------
--------------------------------------------------------------------------
No OpenFabrics connection schemes reported that they were able to be
used on a specific port.  As such, the openib BTL (OpenFabrics
support) will be disabled for this port.

  Local host:           d-5-12-1
  Local device:         mlx5_1
  Local port:           1
  CPCs attempted:       rdmacm, udcm
--------------------------------------------------------------------------

*************** JDFTx 1.6.0 (git hash 42ebbcc2) ***************

Start date and time: Sat Feb  5 22:27:05 2022
Executable jdftx with command-line: -i Alkali.in
Running on hosts (process indices):  d-5-12-1 (0-18)
Divided in process groups (process indices):  0 (0)  1 (1)  2 (2)  3 (3)  4 (4)  5 (5)  6 (6)  7 (7)  8 (8)  9 (9)  10 (10)  11 (11)  12 (12)  13 (13)  14 (14)  15 (15)  16 (16)  17 (17)  18 (18)
Resource initialization completed at t[s]:      0.00
Run totals: 19 processes, 48 threads, 0 GPUs


Input parsed successfully to the following command list (including defaults):

basis kpoint-dependent
coords-type Lattice
core-overlap-check vector
coulomb-interaction Slab 001
davidson-band-ratio 1.1
dump End None
dump-name $INPUT.$VAR
elec-cutoff 20
elec-eigen-algo Davidson
elec-ex-corr gga-PBE
elec-initial-magnetization -0.200000 yes
elec-smearing Fermi 1e-05
electronic-minimize  \
	dirUpdateScheme      FletcherReeves \
	linminMethod         DirUpdateRecommended \
	nIterations          100 \
	history              15 \
	knormThreshold       0 \
	energyDiffThreshold  1e-08 \
	nEnergyDiff          2 \
	alphaTstart          1 \
	alphaTmin            1e-10 \
	updateTestStepSize   yes \
	alphaTreduceFactor   0.1 \
	alphaTincreaseFactor 3 \
	nAlphaAdjustMax      3 \
	wolfeEnergy          0.0001 \
	wolfeGradient        0.9 \
	fdTest               no
electronic-scf  \
	nIterations	10000 \
	energyDiffThreshold	1e-08 \
	residualThreshold	1e-07 \
	mixFraction	0.5 \
	qMetric	0.8 \
	history	10 \
	nEigSteps	2 \
	eigDiffThreshold	1e-08 \
	mixedVariable	Density \
	qKerker	0.8 \
	qKappa	-1 \
	verbose	no \
	mixFractionMag	1.5
exchange-regularization WignerSeitzTruncated
fluid None
fluid-ex-corr (null) lda-PZ
fluid-gummel-loop 10 1.000000e-05
fluid-minimize  \
	dirUpdateScheme      PolakRibiere \
	linminMethod         DirUpdateRecommended \
	nIterations          100 \
	history              15 \
	knormThreshold       0 \
	energyDiffThreshold  0 \
	nEnergyDiff          2 \
	alphaTstart          1 \
	alphaTmin            1e-10 \
	updateTestStepSize   yes \
	alphaTreduceFactor   0.1 \
	alphaTincreaseFactor 3 \
	nAlphaAdjustMax      3 \
	wolfeEnergy          0.0001 \
	wolfeGradient        0.9 \
	fdTest               no
fluid-solvent H2O 55.338 ScalarEOS \
	epsBulk 78.4 \
	pMol 0.92466 \
	epsInf 1.77 \
	Pvap 1.06736e-10 \
	sigmaBulk 4.62e-05 \
	Rvdw 2.61727 \
	Res 1.42 \
	tauNuc 343133 \
	poleEl 15 7 1
forces-output-coords Positions
ion Na   0.000000000000000   0.000000000000000   0.000000000000000 0
ion-species SG15/$ID_ONCV_PBE.upf
ion-width 0
ionic-minimize  \
	dirUpdateScheme      L-BFGS \
	linminMethod         DirUpdateRecommended \
	nIterations          0 \
	history              15 \
	knormThreshold       0.0001 \
	energyDiffThreshold  1e-06 \
	nEnergyDiff          2 \
	alphaTstart          1 \
	alphaTmin            1e-10 \
	updateTestStepSize   yes \
	alphaTreduceFactor   0.1 \
	alphaTincreaseFactor 3 \
	nAlphaAdjustMax      3 \
	wolfeEnergy          0.0001 \
	wolfeGradient        0.9 \
	fdTest               no
kpoint   0.000000000000   0.000000000000   0.000000000000  1.00000000000000
kpoint-folding 12 12 1 
latt-move-scale 1 1 1
latt-scale 2 2 1 
lattice  \
	   4.727486978767153   -2.363743489383575    0.000000000000000  \
	  -0.000000000000000    4.094123819672498    0.000000000000000  \
	   0.000000000000000    0.000000000000000   40.000000000000000 
lattice-minimize  \
	dirUpdateScheme      L-BFGS \
	linminMethod         DirUpdateRecommended \
	nIterations          0 \
	history              15 \
	knormThreshold       0 \
	energyDiffThreshold  1e-06 \
	nEnergyDiff          2 \
	alphaTstart          1 \
	alphaTmin            1e-10 \
	updateTestStepSize   yes \
	alphaTreduceFactor   0.1 \
	alphaTincreaseFactor 3 \
	nAlphaAdjustMax      3 \
	wolfeEnergy          0.0001 \
	wolfeGradient        0.9 \
	fdTest               no
lcao-params -1 1e-06 1e-05
pcm-variant GLSSA13
spintype z-spin
subspace-rotation-factor 1 yes
symmetries automatic
symmetry-threshold 0.0001



---------- Setting up symmetries ----------

Found 24 point-group symmetries of the bravais lattice
Found 24 space-group symmetries with basis
Applied RMS atom displacement 0 bohrs to make symmetries exact.

---------- Initializing the Grid ----------
R = 
[      9.45497     -4.72749            0  ]
[            0      8.18825            0  ]
[            0            0           40  ]
unit cell volume = 3096.79
G =
[   0.664538   0.383671         -0  ]
[          0   0.767342         -0  ]
[         -0         -0    0.15708  ]
Minimum fftbox size, Smin = [  40  40  164  ]
Chosen fftbox size, S = [  40  40  168  ]

---------- Exchange Correlation functional ----------
Initalized PBE GGA exchange.
Initalized PBE GGA correlation.

---------- Setting up pseudopotentials ----------
Width of ionic core gaussian charges (only for fluid interactions / plotting) set to 0

Reading pseudopotential file '/home/gridsan/aligho/DFT/build-Nov24/pseudopotentials/SG15/Na_ONCV_PBE.upf':
  'Na' pseudopotential, 'PBE' functional
  Generated using ONCVPSP code by D. R. Hamann
  Author: Martin Schlipf and Francois Gygi  Date: 150915.
  9 valence electrons, 3 orbitals, 4 projectors, 1992 radial grid points, with lMax = 1
  Transforming local potential to a uniform radial grid of dG=0.02 with 1489 points.
  Transforming nonlocal projectors to a uniform radial grid of dG=0.02 with 432 points.
    2S    l: 0   occupation:  2.0   eigenvalue: -2.085640
    2P    l: 1   occupation:  6.0   eigenvalue: -1.053708
    3S    l: 0   occupation:  1.0   eigenvalue: -0.100838
  Transforming atomic orbitals to a uniform radial grid of dG=0.02 with 432 points.
  Core radius for overlap checks: 2.01 bohrs.
  Reading pulay file /home/gridsan/aligho/DFT/build-Nov24/pseudopotentials/SG15/Na_ONCV_PBE.pulay ... using dE_dnG = -2.946487e-03 computed for Ecut = 20.

Initialized 1 species with 1 total atoms.

Folded 1 k-points by 12x12x1 to 144 k-points.

---------- Setting up k-points, bands, fillings ----------
Reduced to 19 k-points under symmetry. 
Computing the number of bands and number of electrons
Calculating initial fillings.
nElectrons:   9.000000   nBands: 6   nStates: 38

----- Setting up reduced wavefunction bases (one per k-point) -----
average nbasis = 13230.521 , ideal nbasis = 13229.709

---------- Setting up coulomb interaction ----------
Initialized slab truncation along lattice direction 001

---------- Setting up 2D ewald sum ----------
Optimum gaussian width for ewald sums = 5.249020 bohr.
Real space sums over 289 unit cells with max indices [  8  8  0  ]
Reciprocal space sums over 81 terms with max indices [  4  4  0  ]

---------- Allocating electronic variables ----------
Initializing wave functions:  linear combination of atomic orbitals
Note: number of bands (6) exceeds available atomic orbitals (5)
Na pseudo-atom occupations:   s ( 2 1 )  p ( 6 )
	FillingsUpdate:  mu: -0.104677723  nElectrons: 9.000000  magneticMoment: [ Abs: 0.20000  Tot: -0.20000 ]
LCAOMinimize: Iter:   0  F: -42.5685664942859887  |grad|_K:  3.018e-05  alpha:  1.000e+00
	FillingsUpdate:  mu: -0.104673233  nElectrons: 9.000000  magneticMoment: [ Abs: 0.20000  Tot: -0.20000 ]
LCAOMinimize: Iter:   1  F: -42.5685671089126316  |grad|_K:  2.852e-07  alpha:  9.867e-01  linmin: -1.727e-02  cgtest:  7.061e-01  t[s]:      4.53
LCAOMinimize: Encountered beta<0, resetting CG.
[d-5-12-1:66592] 18 more processes have sent help message help-mpi-common-cuda.txt / dlopen failed
[d-5-12-1:66592] Set MCA parameter "orte_base_help_aggregate" to 0 to see all help / error messages
[d-5-12-1:66592] 18 more processes have sent help message help-mpi-btl-openib-cpc-base.txt / no cpcs for port
	FillingsUpdate:  mu: -0.104673242  nElectrons: 9.000000  magneticMoment: [ Abs: 0.20000  Tot: -0.20000 ]
LCAOMinimize: Iter:   2  F: -42.5685671089685798  |grad|_K:  8.771e-10  alpha:  9.983e-01  linmin: -2.893e-02  cgtest:  9.516e-01  t[s]:      5.71
LCAOMinimize: Encountered beta<0, resetting CG.
LCAOMinimize: Converged (|Delta F|<1.000000e-06 for 2 iters).


---- Citations for features of the code used in this run ----

   Software package:
      R. Sundararaman, K. Letchworth-Weaver, K.A. Schwarz, D. Gunceler, Y. Ozhabes and T.A. Arias, 'JDFTx: software for joint density-functional theory', SoftwareX 6, 278 (2017)

   gga-PBE exchange-correlation functional:
      J.P. Perdew, K. Burke and M. Ernzerhof, Phys. Rev. Lett. 77, 3865 (1996)

   Pseudopotentials:
      M Schlipf and F Gygi, Comput. Phys. Commun. 196, 36 (2015)

   Truncated Coulomb potentials:
      R. Sundararaman and T.A. Arias, Phys. Rev. B 87, 165122 (2013)

This list may not be complete. Please suggest additional citations or
report any other bugs at https://github.com/shankar1729/jdftx/issues

Initialization completed successfully at t[s]:      5.78


-------- Electronic minimization -----------
Will mix electronic density at each iteration.
	FillingsUpdate:  mu: -0.104673242  nElectrons: 9.000000  magneticMoment: [ Abs: 0.20000  Tot: -0.20000 ]
	FillingsUpdate:  mu: -0.111919111  nElectrons: 9.000000  magneticMoment: [ Abs: 0.20000  Tot: -0.20000 ]
SCF: Cycle:  0   F: -42.572732384515355   dF: -4.165e-03   |Residual|: 7.403e-03   |deigs|: 1.706e-01  t[s]:      8.07
	FillingsUpdate:  mu: -0.112047579  nElectrons: 9.000000  magneticMoment: [ Abs: 0.20000  Tot: -0.20000 ]
SCF: Cycle:  1   F: -42.572803990489909   dF: -7.161e-05   |Residual|: 5.228e-03   |deigs|: 8.868e-03  t[s]:      9.77
	FillingsUpdate:  mu: -0.111825888  nElectrons: 9.000000  magneticMoment: [ Abs: 0.20127  Tot: -0.20000 ]
SCF: Cycle:  2   F: -42.572821131010379   dF: -1.714e-05   |Residual|: 2.528e-03   |deigs|: 6.866e-03  t[s]:     11.63
	FillingsUpdate:  mu: -0.111479759  nElectrons: 9.000000  magneticMoment: [ Abs: 0.20001  Tot: -0.20000 ]
SCF: Cycle:  3   F: -42.572826131703806   dF: -5.001e-06   |Residual|: 1.459e-03   |deigs|: 4.309e-03  t[s]:     13.38
	FillingsUpdate:  mu: -0.110948670  nElectrons: 9.000000  magneticMoment: [ Abs: 0.20001  Tot: -0.20000 ]
SCF: Cycle:  4   F: -42.572829036580274   dF: -2.905e-06   |Residual|: 8.530e-04   |deigs|: 1.200e-03  t[s]:     15.19
	FillingsUpdate:  mu: -0.110545032  nElectrons: 9.000000  magneticMoment: [ Abs: 0.20009  Tot: -0.20000 ]
SCF: Cycle:  5   F: -42.572829348659567   dF: -3.121e-07   |Residual|: 7.007e-04   |deigs|: 3.938e-03  t[s]:     16.99
	FillingsUpdate:  mu: -0.109543543  nElectrons: 9.000000  magneticMoment: [ Abs: 0.20123  Tot: -0.20000 ]
SCF: Cycle:  6   F: -42.572829308035537   dF: +4.062e-08   |Residual|: 5.030e-04   |deigs|: 1.783e-03  t[s]:     18.84
	FillingsUpdate:  mu: -0.108895757  nElectrons: 9.000000  magneticMoment: [ Abs: 0.20134  Tot: -0.20000 ]
SCF: Cycle:  7   F: -42.572828738029024   dF: +5.700e-07   |Residual|: 3.825e-04   |deigs|: 8.914e-04  t[s]:     20.71
	FillingsUpdate:  mu: -0.108305676  nElectrons: 9.000000  magneticMoment: [ Abs: 0.20076  Tot: -0.20000 ]
SCF: Cycle:  8   F: -42.572829955621835   dF: -1.218e-06   |Residual|: 3.391e-04   |deigs|: 7.934e-04  t[s]:     22.58
	FillingsUpdate:  mu: -0.108170512  nElectrons: 9.000000  magneticMoment: [ Abs: 0.20039  Tot: -0.20000 ]
SCF: Cycle:  9   F: -42.572830735116540   dF: -7.795e-07   |Residual|: 2.439e-04   |deigs|: 1.715e-04  t[s]:     24.48
	FillingsUpdate:  mu: -0.107652214  nElectrons: 9.000000  magneticMoment: [ Abs: 0.20092  Tot: -0.20000 ]
SCF: Cycle: 10   F: -42.572829746893603   dF: +9.882e-07   |Residual|: 2.298e-04   |deigs|: 4.656e-04  t[s]:     26.38
	FillingsUpdate:  mu: -0.107182306  nElectrons: 9.000000  magneticMoment: [ Abs: 0.20073  Tot: -0.20000 ]
SCF: Cycle: 11   F: -42.572829048752183   dF: +6.981e-07   |Residual|: 2.093e-04   |deigs|: 5.031e-04  t[s]:     28.36
	FillingsUpdate:  mu: -0.106509567  nElectrons: 9.000000  magneticMoment: [ Abs: 0.20076  Tot: -0.20000 ]
SCF: Cycle: 12   F: -42.572830137377196   dF: -1.089e-06   |Residual|: 1.811e-04   |deigs|: 6.560e-04  t[s]:     30.26
	FillingsUpdate:  mu: -0.106162851  nElectrons: 9.000000  magneticMoment: [ Abs: 0.20118  Tot: -0.20000 ]
SCF: Cycle: 13   F: -42.572831206021796   dF: -1.069e-06   |Residual|: 1.696e-04   |deigs|: 3.575e-04  t[s]:     32.16
	FillingsUpdate:  mu: -0.105765133  nElectrons: 9.000000  magneticMoment: [ Abs: 0.20059  Tot: -0.20000 ]
SCF: Cycle: 14   F: -42.572831929897141   dF: -7.239e-07   |Residual|: 1.510e-04   |deigs|: 4.416e-04  t[s]:     34.07
	FillingsUpdate:  mu: -0.105235869  nElectrons: 9.000000  magneticMoment: [ Abs: 0.20016  Tot: -0.20000 ]
SCF: Cycle: 15   F: -42.572832402820950   dF: -4.729e-07   |Residual|: 1.320e-04   |deigs|: 5.714e-04  t[s]:     35.93
	FillingsUpdate:  mu: -0.104928280  nElectrons: 9.000000  magneticMoment: [ Abs: 0.20028  Tot: -0.20000 ]
SCF: Cycle: 16   F: -42.572832618171418   dF: -2.154e-07   |Residual|: 8.945e-05   |deigs|: 3.116e-04  t[s]:     37.84
	FillingsUpdate:  mu: -0.104735549  nElectrons: 9.000000  magneticMoment: [ Abs: 0.20016  Tot: -0.20000 ]
SCF: Cycle: 17   F: -42.572832685253552   dF: -6.708e-08   |Residual|: 5.019e-05   |deigs|: 1.933e-04  t[s]:     39.74
	FillingsUpdate:  mu: -0.104702473  nElectrons: 9.000000  magneticMoment: [ Abs: 0.20009  Tot: -0.20000 ]
SCF: Cycle: 18   F: -42.572832695898903   dF: -1.065e-08   |Residual|: 3.280e-05   |deigs|: 8.054e-04  t[s]:     41.68
	FillingsUpdate:  mu: -0.104677035  nElectrons: 9.000000  magneticMoment: [ Abs: 0.20011  Tot: -0.20000 ]
SCF: Cycle: 19   F: -42.572832705780769   dF: -9.882e-09   |Residual|: 1.772e-05   |deigs|: 1.099e-04  t[s]:     43.56
	FillingsUpdate:  mu: -0.104675992  nElectrons: 9.000000  magneticMoment: [ Abs: 0.20011  Tot: -0.20000 ]
SCF: Cycle: 20   F: -42.572832709155847   dF: -3.375e-09   |Residual|: 9.086e-06   |deigs|: 5.418e-04  t[s]:     45.40
SCF: Converged (|Delta E|<1.000000e-08 for 2 iters).


# Ionic positions in lattice coordinates:
ion Na   0.000000000000000   0.000000000000000   0.000000000000000 0

# Forces in Lattice coordinates:
force Na  -0.000000000000000   0.000000000000000   0.000000000000000 0

# Energy components:
   Eewald =      -18.0480261003326561
       EH =       15.7237895894665520
     Eloc =      -42.7352610895115745
      Enl =      -12.9129733667169226
   Epulay =        0.0000007725295140
      Exc =       -6.2162154467389161
       KE =       21.6158534436083976
-------------------------------------
     Etot =      -42.5728321976956181
       TS =        0.0000005114602277
-------------------------------------
        F =      -42.5728327091558469

IonicMinimize: Iter:   0  F: -42.572832709155847  |grad|_K:  0.000e+00  t[s]:     45.47
IonicMinimize: Converged (|grad|_K<1.000000e-04).

#--- Lowdin population analysis ---
# oxidation-state Na +0.037
# magnetic-moments Na -0.180

End date and time: Sat Feb  5 22:27:50 2022  (Duration: 0-0:00:45.49)
Done!
scale=3
magnetization=-0.2
--------------------------------------------------------------------------
The library attempted to open the following supporting CUDA libraries,
but each of them failed.  CUDA-aware support is disabled.
libcuda.so.1: cannot open shared object file: No such file or directory
libcuda.dylib: cannot open shared object file: No such file or directory
/usr/lib64/libcuda.so.1: cannot open shared object file: No such file or directory
/usr/lib64/libcuda.dylib: cannot open shared object file: No such file or directory
If you are not interested in CUDA-aware support, then run with
--mca opal_warn_on_missing_libcuda 0 to suppress this message.  If you are interested
in CUDA-aware support, then try setting LD_LIBRARY_PATH to the location
of libcuda.so.1 to get passed this issue.
--------------------------------------------------------------------------
--------------------------------------------------------------------------
No OpenFabrics connection schemes reported that they were able to be
used on a specific port.  As such, the openib BTL (OpenFabrics
support) will be disabled for this port.

  Local host:           d-5-12-1
  Local device:         mlx5_1
  Local port:           1
  CPCs attempted:       rdmacm, udcm
--------------------------------------------------------------------------

*************** JDFTx 1.6.0 (git hash 42ebbcc2) ***************

Start date and time: Sat Feb  5 22:27:51 2022
Executable jdftx with command-line: -i Alkali.in
Running on hosts (process indices):  d-5-12-1 (0-18)
Divided in process groups (process indices):  0 (0)  1 (1)  2 (2)  3 (3)  4 (4)  5 (5)  6 (6)  7 (7)  8 (8)  9 (9)  10 (10)  11 (11)  12 (12)  13 (13)  14 (14)  15 (15)  16 (16)  17 (17)  18 (18)
Resource initialization completed at t[s]:      0.00
Run totals: 19 processes, 48 threads, 0 GPUs


Input parsed successfully to the following command list (including defaults):

basis kpoint-dependent
coords-type Lattice
core-overlap-check vector
coulomb-interaction Slab 001
davidson-band-ratio 1.1
dump End None
dump-name $INPUT.$VAR
elec-cutoff 20
elec-eigen-algo Davidson
elec-ex-corr gga-PBE
elec-initial-magnetization -0.200000 yes
elec-smearing Fermi 1e-05
electronic-minimize  \
	dirUpdateScheme      FletcherReeves \
	linminMethod         DirUpdateRecommended \
	nIterations          100 \
	history              15 \
	knormThreshold       0 \
	energyDiffThreshold  1e-08 \
	nEnergyDiff          2 \
	alphaTstart          1 \
	alphaTmin            1e-10 \
	updateTestStepSize   yes \
	alphaTreduceFactor   0.1 \
	alphaTincreaseFactor 3 \
	nAlphaAdjustMax      3 \
	wolfeEnergy          0.0001 \
	wolfeGradient        0.9 \
	fdTest               no
electronic-scf  \
	nIterations	10000 \
	energyDiffThreshold	1e-08 \
	residualThreshold	1e-07 \
	mixFraction	0.5 \
	qMetric	0.8 \
	history	10 \
	nEigSteps	2 \
	eigDiffThreshold	1e-08 \
	mixedVariable	Density \
	qKerker	0.8 \
	qKappa	-1 \
	verbose	no \
	mixFractionMag	1.5
exchange-regularization WignerSeitzTruncated
fluid None
fluid-ex-corr (null) lda-PZ
fluid-gummel-loop 10 1.000000e-05
fluid-minimize  \
	dirUpdateScheme      PolakRibiere \
	linminMethod         DirUpdateRecommended \
	nIterations          100 \
	history              15 \
	knormThreshold       0 \
	energyDiffThreshold  0 \
	nEnergyDiff          2 \
	alphaTstart          1 \
	alphaTmin            1e-10 \
	updateTestStepSize   yes \
	alphaTreduceFactor   0.1 \
	alphaTincreaseFactor 3 \
	nAlphaAdjustMax      3 \
	wolfeEnergy          0.0001 \
	wolfeGradient        0.9 \
	fdTest               no
fluid-solvent H2O 55.338 ScalarEOS \
	epsBulk 78.4 \
	pMol 0.92466 \
	epsInf 1.77 \
	Pvap 1.06736e-10 \
	sigmaBulk 4.62e-05 \
	Rvdw 2.61727 \
	Res 1.42 \
	tauNuc 343133 \
	poleEl 15 7 1
forces-output-coords Positions
ion Na   0.000000000000000   0.000000000000000   0.000000000000000 0
ion-species SG15/$ID_ONCV_PBE.upf
ion-width 0
ionic-minimize  \
	dirUpdateScheme      L-BFGS \
	linminMethod         DirUpdateRecommended \
	nIterations          0 \
	history              15 \
	knormThreshold       0.0001 \
	energyDiffThreshold  1e-06 \
	nEnergyDiff          2 \
	alphaTstart          1 \
	alphaTmin            1e-10 \
	updateTestStepSize   yes \
	alphaTreduceFactor   0.1 \
	alphaTincreaseFactor 3 \
	nAlphaAdjustMax      3 \
	wolfeEnergy          0.0001 \
	wolfeGradient        0.9 \
	fdTest               no
kpoint   0.000000000000   0.000000000000   0.000000000000  1.00000000000000
kpoint-folding 12 12 1 
latt-move-scale 1 1 1
latt-scale 3 3 1 
lattice  \
	   4.727486978767153   -2.363743489383575    0.000000000000000  \
	  -0.000000000000000    4.094123819672498    0.000000000000000  \
	   0.000000000000000    0.000000000000000   40.000000000000000 
lattice-minimize  \
	dirUpdateScheme      L-BFGS \
	linminMethod         DirUpdateRecommended \
	nIterations          0 \
	history              15 \
	knormThreshold       0 \
	energyDiffThreshold  1e-06 \
	nEnergyDiff          2 \
	alphaTstart          1 \
	alphaTmin            1e-10 \
	updateTestStepSize   yes \
	alphaTreduceFactor   0.1 \
	alphaTincreaseFactor 3 \
	nAlphaAdjustMax      3 \
	wolfeEnergy          0.0001 \
	wolfeGradient        0.9 \
	fdTest               no
lcao-params -1 1e-06 1e-05
pcm-variant GLSSA13
spintype z-spin
subspace-rotation-factor 1 yes
symmetries automatic
symmetry-threshold 0.0001



---------- Setting up symmetries ----------

Found 24 point-group symmetries of the bravais lattice
Found 24 space-group symmetries with basis
Applied RMS atom displacement 0 bohrs to make symmetries exact.

---------- Initializing the Grid ----------
R = 
[      14.1825     -7.09123            0  ]
[            0      12.2824            0  ]
[            0            0           40  ]
unit cell volume = 6967.77
G =
[   0.443025   0.255781         -0  ]
[          0   0.511561         -0  ]
[         -0         -0    0.15708  ]
Minimum fftbox size, Smin = [  60  60  164  ]
Chosen fftbox size, S = [  60  60  168  ]

---------- Exchange Correlation functional ----------
Initalized PBE GGA exchange.
Initalized PBE GGA correlation.

---------- Setting up pseudopotentials ----------
Width of ionic core gaussian charges (only for fluid interactions / plotting) set to 0

Reading pseudopotential file '/home/gridsan/aligho/DFT/build-Nov24/pseudopotentials/SG15/Na_ONCV_PBE.upf':
  'Na' pseudopotential, 'PBE' functional
  Generated using ONCVPSP code by D. R. Hamann
  Author: Martin Schlipf and Francois Gygi  Date: 150915.
  9 valence electrons, 3 orbitals, 4 projectors, 1992 radial grid points, with lMax = 1
  Transforming local potential to a uniform radial grid of dG=0.02 with 1489 points.
  Transforming nonlocal projectors to a uniform radial grid of dG=0.02 with 432 points.
    2S    l: 0   occupation:  2.0   eigenvalue: -2.085640
    2P    l: 1   occupation:  6.0   eigenvalue: -1.053708
    3S    l: 0   occupation:  1.0   eigenvalue: -0.100838
  Transforming atomic orbitals to a uniform radial grid of dG=0.02 with 432 points.
  Core radius for overlap checks: 2.01 bohrs.
  Reading pulay file /home/gridsan/aligho/DFT/build-Nov24/pseudopotentials/SG15/Na_ONCV_PBE.pulay ... using dE_dnG = -2.946487e-03 computed for Ecut = 20.

Initialized 1 species with 1 total atoms.

Folded 1 k-points by 12x12x1 to 144 k-points.

---------- Setting up k-points, bands, fillings ----------
Reduced to 19 k-points under symmetry. 
Computing the number of bands and number of electrons
Calculating initial fillings.
nElectrons:   9.000000   nBands: 6   nStates: 38

----- Setting up reduced wavefunction bases (one per k-point) -----
average nbasis = 29766.104 , ideal nbasis = 29766.845

---------- Setting up coulomb interaction ----------
Initialized slab truncation along lattice direction 001

---------- Setting up 2D ewald sum ----------
Optimum gaussian width for ewald sums = 7.873530 bohr.
Real space sums over 289 unit cells with max indices [  8  8  0  ]
Reciprocal space sums over 81 terms with max indices [  4  4  0  ]

---------- Allocating electronic variables ----------
Initializing wave functions:  linear combination of atomic orbitals
Note: number of bands (6) exceeds available atomic orbitals (5)
Na pseudo-atom occupations:   s ( 2 1 )  p ( 6 )
[d-5-12-1:87030] 18 more processes have sent help message help-mpi-common-cuda.txt / dlopen failed
[d-5-12-1:87030] Set MCA parameter "orte_base_help_aggregate" to 0 to see all help / error messages
[d-5-12-1:87030] 18 more processes have sent help message help-mpi-btl-openib-cpc-base.txt / no cpcs for port
	FillingsUpdate:  mu: -0.102021996  nElectrons: 9.000000  magneticMoment: [ Abs: 0.20000  Tot: -0.20000 ]
LCAOMinimize: Iter:   0  F: -42.5529852147189658  |grad|_K:  8.449e-06  alpha:  1.000e+00
	FillingsUpdate:  mu: -0.102020322  nElectrons: 9.000000  magneticMoment: [ Abs: 0.20000  Tot: -0.20000 ]
LCAOMinimize: Iter:   1  F: -42.5529852632108714  |grad|_K:  4.646e-08  alpha:  9.932e-01  linmin: -7.150e-03  cgtest:  4.104e-01  t[s]:      8.87
LCAOMinimize: Encountered beta<0, resetting CG.
	FillingsUpdate:  mu: -0.102020317  nElectrons: 9.000000  magneticMoment: [ Abs: 0.20000  Tot: -0.20000 ]
LCAOMinimize: Iter:   2  F: -42.5529852632119017  |grad|_K:  3.498e-08  alpha:  1.752e+00  linmin:  2.768e-02  cgtest: -1.000e+00  t[s]:     11.30
LCAOMinimize: Converged (|Delta F|<1.000000e-06 for 2 iters).


---- Citations for features of the code used in this run ----

   Software package:
      R. Sundararaman, K. Letchworth-Weaver, K.A. Schwarz, D. Gunceler, Y. Ozhabes and T.A. Arias, 'JDFTx: software for joint density-functional theory', SoftwareX 6, 278 (2017)

   gga-PBE exchange-correlation functional:
      J.P. Perdew, K. Burke and M. Ernzerhof, Phys. Rev. Lett. 77, 3865 (1996)

   Pseudopotentials:
      M Schlipf and F Gygi, Comput. Phys. Commun. 196, 36 (2015)

   Truncated Coulomb potentials:
      R. Sundararaman and T.A. Arias, Phys. Rev. B 87, 165122 (2013)

This list may not be complete. Please suggest additional citations or
report any other bugs at https://github.com/shankar1729/jdftx/issues

Initialization completed successfully at t[s]:     11.40


-------- Electronic minimization -----------
Will mix electronic density at each iteration.
	FillingsUpdate:  mu: -0.102020317  nElectrons: 9.000000  magneticMoment: [ Abs: 0.20000  Tot: -0.20000 ]
	FillingsUpdate:  mu: -0.102333141  nElectrons: 9.000000  magneticMoment: [ Abs: 0.20000  Tot: -0.20000 ]
SCF: Cycle:  0   F: -42.553331441659140   dF: -3.462e-04   |Residual|: 2.110e-03   |deigs|: 1.739e-01  t[s]:     15.93
	FillingsUpdate:  mu: -0.102461713  nElectrons: 9.000000  magneticMoment: [ Abs: 0.20033  Tot: -0.20000 ]
SCF: Cycle:  1   F: -42.553337623713162   dF: -6.182e-06   |Residual|: 1.300e-03   |deigs|: 5.225e-03  t[s]:     19.38
	FillingsUpdate:  mu: -0.102669152  nElectrons: 9.000000  magneticMoment: [ Abs: 0.20027  Tot: -0.20000 ]
SCF: Cycle:  2   F: -42.553340523748602   dF: -2.900e-06   |Residual|: 7.370e-04   |deigs|: 2.736e-03  t[s]:     22.94
	FillingsUpdate:  mu: -0.102780484  nElectrons: 9.000000  magneticMoment: [ Abs: 0.20041  Tot: -0.20000 ]
SCF: Cycle:  3   F: -42.553342052633013   dF: -1.529e-06   |Residual|: 5.678e-04   |deigs|: 1.513e-03  t[s]:     26.62
	FillingsUpdate:  mu: -0.103024149  nElectrons: 9.000000  magneticMoment: [ Abs: 0.20027  Tot: -0.20000 ]
SCF: Cycle:  4   F: -42.553344758733886   dF: -2.706e-06   |Residual|: 2.555e-04   |deigs|: 1.556e-03  t[s]:     30.25
	FillingsUpdate:  mu: -0.103058148  nElectrons: 9.000000  magneticMoment: [ Abs: 0.20041  Tot: -0.20000 ]
SCF: Cycle:  5   F: -42.553345176607216   dF: -4.179e-07   |Residual|: 1.633e-04   |deigs|: 9.776e-04  t[s]:     33.96
	FillingsUpdate:  mu: -0.103039096  nElectrons: 9.000000  magneticMoment: [ Abs: 0.20031  Tot: -0.20000 ]
SCF: Cycle:  6   F: -42.553345539080723   dF: -3.625e-07   |Residual|: 1.033e-04   |deigs|: 9.360e-04  t[s]:     37.81
	FillingsUpdate:  mu: -0.103018609  nElectrons: 9.000000  magneticMoment: [ Abs: 0.20036  Tot: -0.20000 ]
SCF: Cycle:  7   F: -42.553345636956891   dF: -9.788e-08   |Residual|: 7.250e-05   |deigs|: 1.267e-03  t[s]:     41.60
	FillingsUpdate:  mu: -0.102963311  nElectrons: 9.000000  magneticMoment: [ Abs: 0.20032  Tot: -0.20000 ]
SCF: Cycle:  8   F: -42.553345692905758   dF: -5.595e-08   |Residual|: 6.023e-05   |deigs|: 5.930e-04  t[s]:     45.50
	FillingsUpdate:  mu: -0.102941988  nElectrons: 9.000000  magneticMoment: [ Abs: 0.20035  Tot: -0.20000 ]
SCF: Cycle:  9   F: -42.553345696525334   dF: -3.620e-09   |Residual|: 4.534e-05   |deigs|: 1.766e-04  t[s]:     49.41
	FillingsUpdate:  mu: -0.102888096  nElectrons: 9.000000  magneticMoment: [ Abs: 0.20039  Tot: -0.20000 ]
SCF: Cycle: 10   F: -42.553345705538781   dF: -9.013e-09   |Residual|: 5.211e-05   |deigs|: 1.953e-04  t[s]:     53.48
SCF: Converged (|Delta E|<1.000000e-08 for 2 iters).


# Ionic positions in lattice coordinates:
ion Na   0.000000000000000   0.000000000000000   0.000000000000000 0

# Forces in Lattice coordinates:
force Na   0.000000000000000   0.000000000000000   0.000000000000000 0

# Energy components:
   Eewald =      -12.0320174002217755
       EH =       21.7069507609678283
     Eloc =      -54.7378468425910185
      Enl =      -12.9047309779097397
   Epulay =       -0.0000003132867683
      Exc =       -6.2061883764071988
       KE =       21.6204879553701304
-------------------------------------
     Etot =      -42.5533451940785525
       TS =        0.0000005114602277
-------------------------------------
        F =      -42.5533457055387814

IonicMinimize: Iter:   0  F: -42.553345705538781  |grad|_K:  0.000e+00  t[s]:     53.63
IonicMinimize: Converged (|grad|_K<1.000000e-04).

#--- Lowdin population analysis ---
# oxidation-state Na +0.005
# magnetic-moments Na -0.199

End date and time: Sat Feb  5 22:28:45 2022  (Duration: 0-0:00:53.68)
Done!
scale=4
magnetization=-0.2
--------------------------------------------------------------------------
The library attempted to open the following supporting CUDA libraries,
but each of them failed.  CUDA-aware support is disabled.
libcuda.so.1: cannot open shared object file: No such file or directory
libcuda.dylib: cannot open shared object file: No such file or directory
/usr/lib64/libcuda.so.1: cannot open shared object file: No such file or directory
/usr/lib64/libcuda.dylib: cannot open shared object file: No such file or directory
If you are not interested in CUDA-aware support, then run with
--mca opal_warn_on_missing_libcuda 0 to suppress this message.  If you are interested
in CUDA-aware support, then try setting LD_LIBRARY_PATH to the location
of libcuda.so.1 to get passed this issue.
--------------------------------------------------------------------------
--------------------------------------------------------------------------
No OpenFabrics connection schemes reported that they were able to be
used on a specific port.  As such, the openib BTL (OpenFabrics
support) will be disabled for this port.

  Local host:           d-5-12-1
  Local device:         mlx5_1
  Local port:           1
  CPCs attempted:       rdmacm, udcm
--------------------------------------------------------------------------

*************** JDFTx 1.6.0 (git hash 42ebbcc2) ***************

Start date and time: Sat Feb  5 22:28:46 2022
Executable jdftx with command-line: -i Alkali.in
Running on hosts (process indices):  d-5-12-1 (0-18)
Divided in process groups (process indices):  0 (0)  1 (1)  2 (2)  3 (3)  4 (4)  5 (5)  6 (6)  7 (7)  8 (8)  9 (9)  10 (10)  11 (11)  12 (12)  13 (13)  14 (14)  15 (15)  16 (16)  17 (17)  18 (18)
Resource initialization completed at t[s]:      0.00
Run totals: 19 processes, 48 threads, 0 GPUs


Input parsed successfully to the following command list (including defaults):

basis kpoint-dependent
coords-type Lattice
core-overlap-check vector
coulomb-interaction Slab 001
davidson-band-ratio 1.1
dump End None
dump-name $INPUT.$VAR
elec-cutoff 20
elec-eigen-algo Davidson
elec-ex-corr gga-PBE
elec-initial-magnetization -0.200000 yes
elec-smearing Fermi 1e-05
electronic-minimize  \
	dirUpdateScheme      FletcherReeves \
	linminMethod         DirUpdateRecommended \
	nIterations          100 \
	history              15 \
	knormThreshold       0 \
	energyDiffThreshold  1e-08 \
	nEnergyDiff          2 \
	alphaTstart          1 \
	alphaTmin            1e-10 \
	updateTestStepSize   yes \
	alphaTreduceFactor   0.1 \
	alphaTincreaseFactor 3 \
	nAlphaAdjustMax      3 \
	wolfeEnergy          0.0001 \
	wolfeGradient        0.9 \
	fdTest               no
electronic-scf  \
	nIterations	10000 \
	energyDiffThreshold	1e-08 \
	residualThreshold	1e-07 \
	mixFraction	0.5 \
	qMetric	0.8 \
	history	10 \
	nEigSteps	2 \
	eigDiffThreshold	1e-08 \
	mixedVariable	Density \
	qKerker	0.8 \
	qKappa	-1 \
	verbose	no \
	mixFractionMag	1.5
exchange-regularization WignerSeitzTruncated
fluid None
fluid-ex-corr (null) lda-PZ
fluid-gummel-loop 10 1.000000e-05
fluid-minimize  \
	dirUpdateScheme      PolakRibiere \
	linminMethod         DirUpdateRecommended \
	nIterations          100 \
	history              15 \
	knormThreshold       0 \
	energyDiffThreshold  0 \
	nEnergyDiff          2 \
	alphaTstart          1 \
	alphaTmin            1e-10 \
	updateTestStepSize   yes \
	alphaTreduceFactor   0.1 \
	alphaTincreaseFactor 3 \
	nAlphaAdjustMax      3 \
	wolfeEnergy          0.0001 \
	wolfeGradient        0.9 \
	fdTest               no
fluid-solvent H2O 55.338 ScalarEOS \
	epsBulk 78.4 \
	pMol 0.92466 \
	epsInf 1.77 \
	Pvap 1.06736e-10 \
	sigmaBulk 4.62e-05 \
	Rvdw 2.61727 \
	Res 1.42 \
	tauNuc 343133 \
	poleEl 15 7 1
forces-output-coords Positions
ion Na   0.000000000000000   0.000000000000000   0.000000000000000 0
ion-species SG15/$ID_ONCV_PBE.upf
ion-width 0
ionic-minimize  \
	dirUpdateScheme      L-BFGS \
	linminMethod         DirUpdateRecommended \
	nIterations          0 \
	history              15 \
	knormThreshold       0.0001 \
	energyDiffThreshold  1e-06 \
	nEnergyDiff          2 \
	alphaTstart          1 \
	alphaTmin            1e-10 \
	updateTestStepSize   yes \
	alphaTreduceFactor   0.1 \
	alphaTincreaseFactor 3 \
	nAlphaAdjustMax      3 \
	wolfeEnergy          0.0001 \
	wolfeGradient        0.9 \
	fdTest               no
kpoint   0.000000000000   0.000000000000   0.000000000000  1.00000000000000
kpoint-folding 12 12 1 
latt-move-scale 1 1 1
latt-scale 4 4 1 
lattice  \
	   4.727486978767153   -2.363743489383575    0.000000000000000  \
	  -0.000000000000000    4.094123819672498    0.000000000000000  \
	   0.000000000000000    0.000000000000000   40.000000000000000 
lattice-minimize  \
	dirUpdateScheme      L-BFGS \
	linminMethod         DirUpdateRecommended \
	nIterations          0 \
	history              15 \
	knormThreshold       0 \
	energyDiffThreshold  1e-06 \
	nEnergyDiff          2 \
	alphaTstart          1 \
	alphaTmin            1e-10 \
	updateTestStepSize   yes \
	alphaTreduceFactor   0.1 \
	alphaTincreaseFactor 3 \
	nAlphaAdjustMax      3 \
	wolfeEnergy          0.0001 \
	wolfeGradient        0.9 \
	fdTest               no
lcao-params -1 1e-06 1e-05
pcm-variant GLSSA13
spintype z-spin
subspace-rotation-factor 1 yes
symmetries automatic
symmetry-threshold 0.0001



---------- Setting up symmetries ----------

Found 24 point-group symmetries of the bravais lattice
Found 24 space-group symmetries with basis
Applied RMS atom displacement 0 bohrs to make symmetries exact.

---------- Initializing the Grid ----------
R = 
[      18.9099     -9.45497            0  ]
[            0      16.3765            0  ]
[            0            0           40  ]
unit cell volume = 12387.1
G =
[   0.332269   0.191835         -0  ]
[          0   0.383671         -0  ]
[         -0         -0    0.15708  ]
Minimum fftbox size, Smin = [  80  80  164  ]
Chosen fftbox size, S = [  80  80  168  ]

---------- Exchange Correlation functional ----------
Initalized PBE GGA exchange.
Initalized PBE GGA correlation.

---------- Setting up pseudopotentials ----------
Width of ionic core gaussian charges (only for fluid interactions / plotting) set to 0

Reading pseudopotential file '/home/gridsan/aligho/DFT/build-Nov24/pseudopotentials/SG15/Na_ONCV_PBE.upf':
  'Na' pseudopotential, 'PBE' functional
  Generated using ONCVPSP code by D. R. Hamann
  Author: Martin Schlipf and Francois Gygi  Date: 150915.
  9 valence electrons, 3 orbitals, 4 projectors, 1992 radial grid points, with lMax = 1
  Transforming local potential to a uniform radial grid of dG=0.02 with 1489 points.
  Transforming nonlocal projectors to a uniform radial grid of dG=0.02 with 432 points.
    2S    l: 0   occupation:  2.0   eigenvalue: -2.085640
    2P    l: 1   occupation:  6.0   eigenvalue: -1.053708
    3S    l: 0   occupation:  1.0   eigenvalue: -0.100838
  Transforming atomic orbitals to a uniform radial grid of dG=0.02 with 432 points.
  Core radius for overlap checks: 2.01 bohrs.
  Reading pulay file /home/gridsan/aligho/DFT/build-Nov24/pseudopotentials/SG15/Na_ONCV_PBE.pulay ... using dE_dnG = -2.946487e-03 computed for Ecut = 20.

Initialized 1 species with 1 total atoms.

Folded 1 k-points by 12x12x1 to 144 k-points.

---------- Setting up k-points, bands, fillings ----------
Reduced to 19 k-points under symmetry. 
Computing the number of bands and number of electrons
Calculating initial fillings.
nElectrons:   9.000000   nBands: 6   nStates: 38

----- Setting up reduced wavefunction bases (one per k-point) -----
average nbasis = 52924.021 , ideal nbasis = 52918.836

---------- Setting up coulomb interaction ----------
Initialized slab truncation along lattice direction 001

---------- Setting up 2D ewald sum ----------
Optimum gaussian width for ewald sums = 10.498040 bohr.
Real space sums over 289 unit cells with max indices [  8  8  0  ]
Reciprocal space sums over 81 terms with max indices [  4  4  0  ]

---------- Allocating electronic variables ----------
Initializing wave functions:  linear combination of atomic orbitals
Note: number of bands (6) exceeds available atomic orbitals (5)
Na pseudo-atom occupations:   s ( 2 1 )  p ( 6 )
[d-5-12-1:17362] 18 more processes have sent help message help-mpi-common-cuda.txt / dlopen failed
[d-5-12-1:17362] Set MCA parameter "orte_base_help_aggregate" to 0 to see all help / error messages
[d-5-12-1:17362] 18 more processes have sent help message help-mpi-btl-openib-cpc-base.txt / no cpcs for port
	FillingsUpdate:  mu: -0.101134247  nElectrons: 9.000000  magneticMoment: [ Abs: 0.20000  Tot: -0.20000 ]
LCAOMinimize: Iter:   0  F: -42.5500423792932878  |grad|_K:  1.221e-06  alpha:  1.000e+00
	FillingsUpdate:  mu: -0.101133989  nElectrons: 9.000000  magneticMoment: [ Abs: 0.20000  Tot: -0.20000 ]
LCAOMinimize: Iter:   1  F: -42.5500423803068344  |grad|_K:  5.309e-09  alpha:  9.939e-01  linmin: -1.450e-03  cgtest:  1.030e-01  t[s]:     14.98
LCAOMinimize: Encountered beta<0, resetting CG.
LCAOMinimize: 	Wrong curvature in test step, increasing alphaT to 2.981774e+00.
	FillingsUpdate:  mu: -0.101133988  nElectrons: 9.000000  magneticMoment: [ Abs: 0.20000  Tot: -0.20000 ]
LCAOMinimize: Iter:   2  F: -42.5500423803070689  |grad|_K:  3.000e-11  alpha: -9.573e-02  linmin: -1.120e-02  cgtest:  7.101e-01  t[s]:     19.05
LCAOMinimize: Encountered beta<0, resetting CG.
LCAOMinimize: Converged (|Delta F|<1.000000e-06 for 2 iters).


---- Citations for features of the code used in this run ----

   Software package:
      R. Sundararaman, K. Letchworth-Weaver, K.A. Schwarz, D. Gunceler, Y. Ozhabes and T.A. Arias, 'JDFTx: software for joint density-functional theory', SoftwareX 6, 278 (2017)

   gga-PBE exchange-correlation functional:
      J.P. Perdew, K. Burke and M. Ernzerhof, Phys. Rev. Lett. 77, 3865 (1996)

   Pseudopotentials:
      M Schlipf and F Gygi, Comput. Phys. Commun. 196, 36 (2015)

   Truncated Coulomb potentials:
      R. Sundararaman and T.A. Arias, Phys. Rev. B 87, 165122 (2013)

This list may not be complete. Please suggest additional citations or
report any other bugs at https://github.com/shankar1729/jdftx/issues

Initialization completed successfully at t[s]:     19.21


-------- Electronic minimization -----------
Will mix electronic density at each iteration.
	FillingsUpdate:  mu: -0.101133988  nElectrons: 9.000000  magneticMoment: [ Abs: 0.20000  Tot: -0.20000 ]
	FillingsUpdate:  mu: -0.101152378  nElectrons: 9.000000  magneticMoment: [ Abs: 0.20000  Tot: -0.20000 ]
SCF: Cycle:  0   F: -42.550069680968804   dF: -2.730e-05   |Residual|: 1.824e-03   |deigs|: 1.714e-01  t[s]:     26.85
	FillingsUpdate:  mu: -0.101174118  nElectrons: 9.000000  magneticMoment: [ Abs: 0.20036  Tot: -0.20000 ]
SCF: Cycle:  1   F: -42.550070057702101   dF: -3.767e-07   |Residual|: 8.417e-04   |deigs|: 9.298e-03  t[s]:     32.84
	FillingsUpdate:  mu: -0.101208430  nElectrons: 9.000000  magneticMoment: [ Abs: 0.20028  Tot: -0.20000 ]
SCF: Cycle:  2   F: -42.550070191224336   dF: -1.335e-07   |Residual|: 1.643e-04   |deigs|: 1.787e-03  t[s]:     38.92
	FillingsUpdate:  mu: -0.101218699  nElectrons: 9.000000  magneticMoment: [ Abs: 0.20033  Tot: -0.20000 ]
SCF: Cycle:  3   F: -42.550070203695988   dF: -1.247e-08   |Residual|: 9.588e-05   |deigs|: 4.064e-04  t[s]:     45.15
	FillingsUpdate:  mu: -0.101233775  nElectrons: 9.000000  magneticMoment: [ Abs: 0.20030  Tot: -0.20000 ]
SCF: Cycle:  4   F: -42.550070213853957   dF: -1.016e-08   |Residual|: 6.731e-05   |deigs|: 4.152e-04  t[s]:     51.49
	FillingsUpdate:  mu: -0.101257741  nElectrons: 9.000000  magneticMoment: [ Abs: 0.20033  Tot: -0.20000 ]
SCF: Cycle:  5   F: -42.550070226608035   dF: -1.275e-08   |Residual|: 5.197e-05   |deigs|: 2.360e-04  t[s]:     57.99
	FillingsUpdate:  mu: -0.101276227  nElectrons: 9.000000  magneticMoment: [ Abs: 0.20030  Tot: -0.20000 ]
SCF: Cycle:  6   F: -42.550070236041421   dF: -9.433e-09   |Residual|: 3.872e-05   |deigs|: 2.596e-04  t[s]:     64.50
	FillingsUpdate:  mu: -0.101290210  nElectrons: 9.000000  magneticMoment: [ Abs: 0.20034  Tot: -0.20000 ]
SCF: Cycle:  7   F: -42.550070240715883   dF: -4.674e-09   |Residual|: 2.064e-05   |deigs|: 2.916e-04  t[s]:     71.15
SCF: Converged (|Delta E|<1.000000e-08 for 2 iters).


# Ionic positions in lattice coordinates:
ion Na   0.000000000000000   0.000000000000000   0.000000000000000 0

# Forces in Lattice coordinates:
force Na  -0.000000000000000  -0.000000000000000   0.000000000000000 0

# Energy components:
   Eewald =       -9.0240130501663280
       EH =       24.7644767046337684
     Eloc =      -60.8079556651848563
      Enl =      -12.9026667399635961
   Epulay =        0.0000012333957556
      Exc =       -6.2097116608629381
       KE =       21.6297994501909372
-------------------------------------
     Etot =      -42.5500697279572577
       TS =        0.0000005127586264
-------------------------------------
        F =      -42.5500702407158826

IonicMinimize: Iter:   0  F: -42.550070240715883  |grad|_K:  0.000e+00  t[s]:     71.40
IonicMinimize: Converged (|grad|_K<1.000000e-04).

#--- Lowdin population analysis ---
# oxidation-state Na +0.000
# magnetic-moments Na -0.200

End date and time: Sat Feb  5 22:29:57 2022  (Duration: 0-0:01:11.48)
Done!
