The alkali metal is Na
scale=2
magnetization=0.42
--------------------------------------------------------------------------
The library attempted to open the following supporting CUDA libraries,
but each of them failed.  CUDA-aware support is disabled.
libcuda.so.1: cannot open shared object file: No such file or directory
libcuda.dylib: cannot open shared object file: No such file or directory
/usr/lib64/libcuda.so.1: cannot open shared object file: No such file or directory
/usr/lib64/libcuda.dylib: cannot open shared object file: No such file or directory
If you are not interested in CUDA-aware support, then run with
--mca opal_warn_on_missing_libcuda 0 to suppress this message.  If you are interested
in CUDA-aware support, then try setting LD_LIBRARY_PATH to the location
of libcuda.so.1 to get passed this issue.
--------------------------------------------------------------------------
--------------------------------------------------------------------------
No OpenFabrics connection schemes reported that they were able to be
used on a specific port.  As such, the openib BTL (OpenFabrics
support) will be disabled for this port.

  Local host:           d-6-12-3
  Local device:         mlx5_1
  Local port:           1
  CPCs attempted:       rdmacm, udcm
--------------------------------------------------------------------------

*************** JDFTx 1.6.0 (git hash 42ebbcc2) ***************

Start date and time: Sat Feb  5 22:32:15 2022
Executable jdftx with command-line: -i Alkali.in
Running on hosts (process indices):  d-6-12-3 (0-18)
Divided in process groups (process indices):  0 (0)  1 (1)  2 (2)  3 (3)  4 (4)  5 (5)  6 (6)  7 (7)  8 (8)  9 (9)  10 (10)  11 (11)  12 (12)  13 (13)  14 (14)  15 (15)  16 (16)  17 (17)  18 (18)
Resource initialization completed at t[s]:      0.00
Run totals: 19 processes, 48 threads, 0 GPUs


Input parsed successfully to the following command list (including defaults):

basis kpoint-dependent
coords-type Lattice
core-overlap-check vector
coulomb-interaction Slab 001
davidson-band-ratio 1.1
dump End None
dump-name $INPUT.$VAR
elec-cutoff 20
elec-eigen-algo Davidson
elec-ex-corr gga-PBE
elec-initial-magnetization 0.420000 yes
elec-smearing Fermi 1e-05
electronic-minimize  \
	dirUpdateScheme      FletcherReeves \
	linminMethod         DirUpdateRecommended \
	nIterations          100 \
	history              15 \
	knormThreshold       0 \
	energyDiffThreshold  1e-08 \
	nEnergyDiff          2 \
	alphaTstart          1 \
	alphaTmin            1e-10 \
	updateTestStepSize   yes \
	alphaTreduceFactor   0.1 \
	alphaTincreaseFactor 3 \
	nAlphaAdjustMax      3 \
	wolfeEnergy          0.0001 \
	wolfeGradient        0.9 \
	fdTest               no
electronic-scf  \
	nIterations	10000 \
	energyDiffThreshold	1e-08 \
	residualThreshold	1e-07 \
	mixFraction	0.5 \
	qMetric	0.8 \
	history	10 \
	nEigSteps	2 \
	eigDiffThreshold	1e-08 \
	mixedVariable	Density \
	qKerker	0.8 \
	qKappa	-1 \
	verbose	no \
	mixFractionMag	1.5
exchange-regularization WignerSeitzTruncated
fluid None
fluid-ex-corr (null) lda-PZ
fluid-gummel-loop 10 1.000000e-05
fluid-minimize  \
	dirUpdateScheme      PolakRibiere \
	linminMethod         DirUpdateRecommended \
	nIterations          100 \
	history              15 \
	knormThreshold       0 \
	energyDiffThreshold  0 \
	nEnergyDiff          2 \
	alphaTstart          1 \
	alphaTmin            1e-10 \
	updateTestStepSize   yes \
	alphaTreduceFactor   0.1 \
	alphaTincreaseFactor 3 \
	nAlphaAdjustMax      3 \
	wolfeEnergy          0.0001 \
	wolfeGradient        0.9 \
	fdTest               no
fluid-solvent H2O 55.338 ScalarEOS \
	epsBulk 78.4 \
	pMol 0.92466 \
	epsInf 1.77 \
	Pvap 1.06736e-10 \
	sigmaBulk 4.62e-05 \
	Rvdw 2.61727 \
	Res 1.42 \
	tauNuc 343133 \
	poleEl 15 7 1
forces-output-coords Positions
ion Na   0.000000000000000   0.000000000000000   0.000000000000000 0
ion-species SG15/$ID_ONCV_PBE.upf
ion-width 0
ionic-minimize  \
	dirUpdateScheme      L-BFGS \
	linminMethod         DirUpdateRecommended \
	nIterations          0 \
	history              15 \
	knormThreshold       0.0001 \
	energyDiffThreshold  1e-06 \
	nEnergyDiff          2 \
	alphaTstart          1 \
	alphaTmin            1e-10 \
	updateTestStepSize   yes \
	alphaTreduceFactor   0.1 \
	alphaTincreaseFactor 3 \
	nAlphaAdjustMax      3 \
	wolfeEnergy          0.0001 \
	wolfeGradient        0.9 \
	fdTest               no
kpoint   0.000000000000   0.000000000000   0.000000000000  1.00000000000000
kpoint-folding 12 12 1 
latt-move-scale 1 1 1
latt-scale 2 2 1 
lattice  \
	   4.727486978767153   -2.363743489383575    0.000000000000000  \
	  -0.000000000000000    4.094123819672498    0.000000000000000  \
	   0.000000000000000    0.000000000000000   40.000000000000000 
lattice-minimize  \
	dirUpdateScheme      L-BFGS \
	linminMethod         DirUpdateRecommended \
	nIterations          0 \
	history              15 \
	knormThreshold       0 \
	energyDiffThreshold  1e-06 \
	nEnergyDiff          2 \
	alphaTstart          1 \
	alphaTmin            1e-10 \
	updateTestStepSize   yes \
	alphaTreduceFactor   0.1 \
	alphaTincreaseFactor 3 \
	nAlphaAdjustMax      3 \
	wolfeEnergy          0.0001 \
	wolfeGradient        0.9 \
	fdTest               no
lcao-params -1 1e-06 1e-05
pcm-variant GLSSA13
spintype z-spin
subspace-rotation-factor 1 yes
symmetries automatic
symmetry-threshold 0.0001



---------- Setting up symmetries ----------

Found 24 point-group symmetries of the bravais lattice
Found 24 space-group symmetries with basis
Applied RMS atom displacement 0 bohrs to make symmetries exact.

---------- Initializing the Grid ----------
R = 
[      9.45497     -4.72749            0  ]
[            0      8.18825            0  ]
[            0            0           40  ]
unit cell volume = 3096.79
G =
[   0.664538   0.383671         -0  ]
[          0   0.767342         -0  ]
[         -0         -0    0.15708  ]
Minimum fftbox size, Smin = [  40  40  164  ]
Chosen fftbox size, S = [  40  40  168  ]

---------- Exchange Correlation functional ----------
Initalized PBE GGA exchange.
Initalized PBE GGA correlation.

---------- Setting up pseudopotentials ----------
Width of ionic core gaussian charges (only for fluid interactions / plotting) set to 0

Reading pseudopotential file '/home/gridsan/aligho/DFT/build-Nov24/pseudopotentials/SG15/Na_ONCV_PBE.upf':
  'Na' pseudopotential, 'PBE' functional
  Generated using ONCVPSP code by D. R. Hamann
  Author: Martin Schlipf and Francois Gygi  Date: 150915.
  9 valence electrons, 3 orbitals, 4 projectors, 1992 radial grid points, with lMax = 1
  Transforming local potential to a uniform radial grid of dG=0.02 with 1489 points.
  Transforming nonlocal projectors to a uniform radial grid of dG=0.02 with 432 points.
    2S    l: 0   occupation:  2.0   eigenvalue: -2.085640
    2P    l: 1   occupation:  6.0   eigenvalue: -1.053708
    3S    l: 0   occupation:  1.0   eigenvalue: -0.100838
  Transforming atomic orbitals to a uniform radial grid of dG=0.02 with 432 points.
  Core radius for overlap checks: 2.01 bohrs.
  Reading pulay file /home/gridsan/aligho/DFT/build-Nov24/pseudopotentials/SG15/Na_ONCV_PBE.pulay ... using dE_dnG = -2.946487e-03 computed for Ecut = 20.

Initialized 1 species with 1 total atoms.

Folded 1 k-points by 12x12x1 to 144 k-points.

---------- Setting up k-points, bands, fillings ----------
Reduced to 19 k-points under symmetry. 
Computing the number of bands and number of electrons
Calculating initial fillings.
nElectrons:   9.000000   nBands: 6   nStates: 38

----- Setting up reduced wavefunction bases (one per k-point) -----
average nbasis = 13230.521 , ideal nbasis = 13229.709

---------- Setting up coulomb interaction ----------
Initialized slab truncation along lattice direction 001

---------- Setting up 2D ewald sum ----------
Optimum gaussian width for ewald sums = 5.249020 bohr.
Real space sums over 289 unit cells with max indices [  8  8  0  ]
Reciprocal space sums over 81 terms with max indices [  4  4  0  ]

---------- Allocating electronic variables ----------
Initializing wave functions:  linear combination of atomic orbitals
Note: number of bands (6) exceeds available atomic orbitals (5)
Na pseudo-atom occupations:   s ( 2 1 )  p ( 6 )
	FillingsUpdate:  mu: -0.104998110  nElectrons: 9.000000  magneticMoment: [ Abs: 0.42000  Tot: +0.42000 ]
LCAOMinimize: Iter:   0  F: -42.5660387532467013  |grad|_K:  2.893e-05  alpha:  1.000e+00
	FillingsUpdate:  mu: -0.104996190  nElectrons: 9.000000  magneticMoment: [ Abs: 0.42000  Tot: +0.42000 ]
LCAOMinimize: Iter:   1  F: -42.5660393200076683  |grad|_K:  2.615e-07  alpha:  9.904e-01  linmin: -1.956e-02  cgtest:  6.609e-01  t[s]:      4.51
LCAOMinimize: Encountered beta<0, resetting CG.
[d-6-12-3:05182] 18 more processes have sent help message help-mpi-common-cuda.txt / dlopen failed
[d-6-12-3:05182] Set MCA parameter "orte_base_help_aggregate" to 0 to see all help / error messages
[d-6-12-3:05182] 18 more processes have sent help message help-mpi-btl-openib-cpc-base.txt / no cpcs for port
	FillingsUpdate:  mu: -0.104996225  nElectrons: 9.000000  magneticMoment: [ Abs: 0.42000  Tot: +0.42000 ]
LCAOMinimize: Iter:   2  F: -42.5660393200551113  |grad|_K:  2.905e-09  alpha:  1.012e+00  linmin:  6.065e-02  cgtest: -9.715e-01  t[s]:      5.86
LCAOMinimize: Converged (|Delta F|<1.000000e-06 for 2 iters).


---- Citations for features of the code used in this run ----

   Software package:
      R. Sundararaman, K. Letchworth-Weaver, K.A. Schwarz, D. Gunceler, Y. Ozhabes and T.A. Arias, 'JDFTx: software for joint density-functional theory', SoftwareX 6, 278 (2017)

   gga-PBE exchange-correlation functional:
      J.P. Perdew, K. Burke and M. Ernzerhof, Phys. Rev. Lett. 77, 3865 (1996)

   Pseudopotentials:
      M Schlipf and F Gygi, Comput. Phys. Commun. 196, 36 (2015)

   Truncated Coulomb potentials:
      R. Sundararaman and T.A. Arias, Phys. Rev. B 87, 165122 (2013)

This list may not be complete. Please suggest additional citations or
report any other bugs at https://github.com/shankar1729/jdftx/issues

Initialization completed successfully at t[s]:      5.92


-------- Electronic minimization -----------
Will mix electronic density at each iteration.
	FillingsUpdate:  mu: -0.104996225  nElectrons: 9.000000  magneticMoment: [ Abs: 0.42000  Tot: +0.42000 ]
	FillingsUpdate:  mu: -0.111890462  nElectrons: 9.000000  magneticMoment: [ Abs: 0.42000  Tot: +0.42000 ]
SCF: Cycle:  0   F: -42.570780864554301   dF: -4.742e-03   |Residual|: 9.108e-03   |deigs|: 1.704e-01  t[s]:      8.28
	FillingsUpdate:  mu: -0.111897521  nElectrons: 9.000000  magneticMoment: [ Abs: 0.42000  Tot: +0.42000 ]
SCF: Cycle:  1   F: -42.570890951552514   dF: -1.101e-04   |Residual|: 6.142e-03   |deigs|: 8.823e-03  t[s]:      9.98
	FillingsUpdate:  mu: -0.111699965  nElectrons: 9.000000  magneticMoment: [ Abs: 0.42131  Tot: +0.42000 ]
SCF: Cycle:  2   F: -42.570907996229977   dF: -1.704e-05   |Residual|: 3.497e-03   |deigs|: 5.748e-03  t[s]:     11.69
	FillingsUpdate:  mu: -0.111551381  nElectrons: 9.000000  magneticMoment: [ Abs: 0.42004  Tot: +0.42000 ]
SCF: Cycle:  3   F: -42.570912479952213   dF: -4.484e-06   |Residual|: 2.029e-03   |deigs|: 6.253e-03  t[s]:     13.43
	FillingsUpdate:  mu: -0.111191304  nElectrons: 9.000000  magneticMoment: [ Abs: 0.42006  Tot: +0.42000 ]
SCF: Cycle:  4   F: -42.570925482126427   dF: -1.300e-05   |Residual|: 9.344e-04   |deigs|: 3.051e-03  t[s]:     15.27
	FillingsUpdate:  mu: -0.110873512  nElectrons: 9.000000  magneticMoment: [ Abs: 0.42017  Tot: +0.42000 ]
SCF: Cycle:  5   F: -42.570927150599950   dF: -1.668e-06   |Residual|: 7.577e-04   |deigs|: 1.897e-03  t[s]:     17.09
	FillingsUpdate:  mu: -0.110186419  nElectrons: 9.000000  magneticMoment: [ Abs: 0.42086  Tot: +0.42000 ]
SCF: Cycle:  6   F: -42.570927622044259   dF: -4.714e-07   |Residual|: 5.672e-04   |deigs|: 1.164e-03  t[s]:     18.93
	FillingsUpdate:  mu: -0.109369200  nElectrons: 9.000000  magneticMoment: [ Abs: 0.42216  Tot: +0.42000 ]
SCF: Cycle:  7   F: -42.570926893373048   dF: +7.287e-07   |Residual|: 4.142e-04   |deigs|: 1.109e-03  t[s]:     20.84
	FillingsUpdate:  mu: -0.108680463  nElectrons: 9.000000  magneticMoment: [ Abs: 0.42162  Tot: +0.42000 ]
SCF: Cycle:  8   F: -42.570926468959492   dF: +4.244e-07   |Residual|: 3.516e-04   |deigs|: 9.188e-04  t[s]:     22.78
	FillingsUpdate:  mu: -0.108369773  nElectrons: 9.000000  magneticMoment: [ Abs: 0.42070  Tot: +0.42000 ]
SCF: Cycle:  9   F: -42.570928047413943   dF: -1.578e-06   |Residual|: 2.976e-04   |deigs|: 3.948e-04  t[s]:     24.67
	FillingsUpdate:  mu: -0.108251216  nElectrons: 9.000000  magneticMoment: [ Abs: 0.42118  Tot: +0.42000 ]
SCF: Cycle: 10   F: -42.570929337005410   dF: -1.290e-06   |Residual|: 2.314e-04   |deigs|: 1.805e-04  t[s]:     26.64
	FillingsUpdate:  mu: -0.107719427  nElectrons: 9.000000  magneticMoment: [ Abs: 0.42136  Tot: +0.42000 ]
SCF: Cycle: 11   F: -42.570928361270731   dF: +9.757e-07   |Residual|: 2.136e-04   |deigs|: 6.761e-04  t[s]:     28.53
	FillingsUpdate:  mu: -0.107081154  nElectrons: 9.000000  magneticMoment: [ Abs: 0.42080  Tot: +0.42000 ]
SCF: Cycle: 12   F: -42.570927720216908   dF: +6.411e-07   |Residual|: 1.959e-04   |deigs|: 6.760e-04  t[s]:     30.41
	FillingsUpdate:  mu: -0.106682872  nElectrons: 9.000000  magneticMoment: [ Abs: 0.42135  Tot: +0.42000 ]
SCF: Cycle: 13   F: -42.570928975631801   dF: -1.255e-06   |Residual|: 1.723e-04   |deigs|: 3.939e-04  t[s]:     32.30
	FillingsUpdate:  mu: -0.106410990  nElectrons: 9.000000  magneticMoment: [ Abs: 0.42109  Tot: +0.42000 ]
SCF: Cycle: 14   F: -42.570929885675987   dF: -9.100e-07   |Residual|: 1.610e-04   |deigs|: 3.002e-04  t[s]:     34.21
	FillingsUpdate:  mu: -0.105796871  nElectrons: 9.000000  magneticMoment: [ Abs: 0.42066  Tot: +0.42000 ]
SCF: Cycle: 15   F: -42.570930295103409   dF: -4.094e-07   |Residual|: 1.503e-04   |deigs|: 6.696e-04  t[s]:     36.08
	FillingsUpdate:  mu: -0.105351842  nElectrons: 9.000000  magneticMoment: [ Abs: 0.42034  Tot: +0.42000 ]
SCF: Cycle: 16   F: -42.570930715128142   dF: -4.200e-07   |Residual|: 1.130e-04   |deigs|: 4.399e-04  t[s]:     37.98
	FillingsUpdate:  mu: -0.105095643  nElectrons: 9.000000  magneticMoment: [ Abs: 0.42036  Tot: +0.42000 ]
SCF: Cycle: 17   F: -42.570930892936744   dF: -1.778e-07   |Residual|: 7.238e-05   |deigs|: 2.358e-04  t[s]:     39.92
	FillingsUpdate:  mu: -0.105014264  nElectrons: 9.000000  magneticMoment: [ Abs: 0.42022  Tot: +0.42000 ]
SCF: Cycle: 18   F: -42.570930934232067   dF: -4.130e-08   |Residual|: 5.788e-05   |deigs|: 1.504e-04  t[s]:     41.86
	FillingsUpdate:  mu: -0.104936744  nElectrons: 9.000000  magneticMoment: [ Abs: 0.42031  Tot: +0.42000 ]
SCF: Cycle: 19   F: -42.570930968678233   dF: -3.445e-08   |Residual|: 2.527e-05   |deigs|: 1.163e-04  t[s]:     43.76
	FillingsUpdate:  mu: -0.104912896  nElectrons: 9.000000  magneticMoment: [ Abs: 0.42027  Tot: +0.42000 ]
SCF: Cycle: 20   F: -42.570930976811866   dF: -8.134e-09   |Residual|: 1.324e-05   |deigs|: 7.256e-05  t[s]:     45.63
	FillingsUpdate:  mu: -0.104910190  nElectrons: 9.000000  magneticMoment: [ Abs: 0.42019  Tot: +0.42000 ]
SCF: Cycle: 21   F: -42.570930977769684   dF: -9.578e-10   |Residual|: 9.029e-06   |deigs|: 8.860e-04  t[s]:     47.53
SCF: Converged (|Delta E|<1.000000e-08 for 2 iters).


# Ionic positions in lattice coordinates:
ion Na   0.000000000000000   0.000000000000000   0.000000000000000 0

# Forces in Lattice coordinates:
force Na  -0.000000000000000   0.000000000000000   0.000000000000000 0

# Energy components:
   Eewald =      -18.0480261003326561
       EH =       15.7296833951045443
     Eloc =      -42.7415038680607680
      Enl =      -12.9135830524632826
   Epulay =        0.0000007725295140
      Exc =       -6.2175964546959737
       KE =       21.6200951133628436
-------------------------------------
     Etot =      -42.5709301945557783
       TS =        0.0000007832139037
-------------------------------------
        F =      -42.5709309777696845

IonicMinimize: Iter:   0  F: -42.570930977769684  |grad|_K:  0.000e+00  t[s]:     47.60
IonicMinimize: Converged (|grad|_K<1.000000e-04).

#--- Lowdin population analysis ---
# oxidation-state Na +0.053
# magnetic-moments Na +0.375

End date and time: Sat Feb  5 22:33:03 2022  (Duration: 0-0:00:47.62)
Done!
scale=3
magnetization=0.42
--------------------------------------------------------------------------
The library attempted to open the following supporting CUDA libraries,
but each of them failed.  CUDA-aware support is disabled.
libcuda.so.1: cannot open shared object file: No such file or directory
libcuda.dylib: cannot open shared object file: No such file or directory
/usr/lib64/libcuda.so.1: cannot open shared object file: No such file or directory
/usr/lib64/libcuda.dylib: cannot open shared object file: No such file or directory
If you are not interested in CUDA-aware support, then run with
--mca opal_warn_on_missing_libcuda 0 to suppress this message.  If you are interested
in CUDA-aware support, then try setting LD_LIBRARY_PATH to the location
of libcuda.so.1 to get passed this issue.
--------------------------------------------------------------------------
--------------------------------------------------------------------------
No OpenFabrics connection schemes reported that they were able to be
used on a specific port.  As such, the openib BTL (OpenFabrics
support) will be disabled for this port.

  Local host:           d-6-12-3
  Local device:         mlx5_1
  Local port:           1
  CPCs attempted:       rdmacm, udcm
--------------------------------------------------------------------------

*************** JDFTx 1.6.0 (git hash 42ebbcc2) ***************

Start date and time: Sat Feb  5 22:33:04 2022
Executable jdftx with command-line: -i Alkali.in
Running on hosts (process indices):  d-6-12-3 (0-18)
Divided in process groups (process indices):  0 (0)  1 (1)  2 (2)  3 (3)  4 (4)  5 (5)  6 (6)  7 (7)  8 (8)  9 (9)  10 (10)  11 (11)  12 (12)  13 (13)  14 (14)  15 (15)  16 (16)  17 (17)  18 (18)
Resource initialization completed at t[s]:      0.00
Run totals: 19 processes, 48 threads, 0 GPUs


Input parsed successfully to the following command list (including defaults):

basis kpoint-dependent
coords-type Lattice
core-overlap-check vector
coulomb-interaction Slab 001
davidson-band-ratio 1.1
dump End None
dump-name $INPUT.$VAR
elec-cutoff 20
elec-eigen-algo Davidson
elec-ex-corr gga-PBE
elec-initial-magnetization 0.420000 yes
elec-smearing Fermi 1e-05
electronic-minimize  \
	dirUpdateScheme      FletcherReeves \
	linminMethod         DirUpdateRecommended \
	nIterations          100 \
	history              15 \
	knormThreshold       0 \
	energyDiffThreshold  1e-08 \
	nEnergyDiff          2 \
	alphaTstart          1 \
	alphaTmin            1e-10 \
	updateTestStepSize   yes \
	alphaTreduceFactor   0.1 \
	alphaTincreaseFactor 3 \
	nAlphaAdjustMax      3 \
	wolfeEnergy          0.0001 \
	wolfeGradient        0.9 \
	fdTest               no
electronic-scf  \
	nIterations	10000 \
	energyDiffThreshold	1e-08 \
	residualThreshold	1e-07 \
	mixFraction	0.5 \
	qMetric	0.8 \
	history	10 \
	nEigSteps	2 \
	eigDiffThreshold	1e-08 \
	mixedVariable	Density \
	qKerker	0.8 \
	qKappa	-1 \
	verbose	no \
	mixFractionMag	1.5
exchange-regularization WignerSeitzTruncated
fluid None
fluid-ex-corr (null) lda-PZ
fluid-gummel-loop 10 1.000000e-05
fluid-minimize  \
	dirUpdateScheme      PolakRibiere \
	linminMethod         DirUpdateRecommended \
	nIterations          100 \
	history              15 \
	knormThreshold       0 \
	energyDiffThreshold  0 \
	nEnergyDiff          2 \
	alphaTstart          1 \
	alphaTmin            1e-10 \
	updateTestStepSize   yes \
	alphaTreduceFactor   0.1 \
	alphaTincreaseFactor 3 \
	nAlphaAdjustMax      3 \
	wolfeEnergy          0.0001 \
	wolfeGradient        0.9 \
	fdTest               no
fluid-solvent H2O 55.338 ScalarEOS \
	epsBulk 78.4 \
	pMol 0.92466 \
	epsInf 1.77 \
	Pvap 1.06736e-10 \
	sigmaBulk 4.62e-05 \
	Rvdw 2.61727 \
	Res 1.42 \
	tauNuc 343133 \
	poleEl 15 7 1
forces-output-coords Positions
ion Na   0.000000000000000   0.000000000000000   0.000000000000000 0
ion-species SG15/$ID_ONCV_PBE.upf
ion-width 0
ionic-minimize  \
	dirUpdateScheme      L-BFGS \
	linminMethod         DirUpdateRecommended \
	nIterations          0 \
	history              15 \
	knormThreshold       0.0001 \
	energyDiffThreshold  1e-06 \
	nEnergyDiff          2 \
	alphaTstart          1 \
	alphaTmin            1e-10 \
	updateTestStepSize   yes \
	alphaTreduceFactor   0.1 \
	alphaTincreaseFactor 3 \
	nAlphaAdjustMax      3 \
	wolfeEnergy          0.0001 \
	wolfeGradient        0.9 \
	fdTest               no
kpoint   0.000000000000   0.000000000000   0.000000000000  1.00000000000000
kpoint-folding 12 12 1 
latt-move-scale 1 1 1
latt-scale 3 3 1 
lattice  \
	   4.727486978767153   -2.363743489383575    0.000000000000000  \
	  -0.000000000000000    4.094123819672498    0.000000000000000  \
	   0.000000000000000    0.000000000000000   40.000000000000000 
lattice-minimize  \
	dirUpdateScheme      L-BFGS \
	linminMethod         DirUpdateRecommended \
	nIterations          0 \
	history              15 \
	knormThreshold       0 \
	energyDiffThreshold  1e-06 \
	nEnergyDiff          2 \
	alphaTstart          1 \
	alphaTmin            1e-10 \
	updateTestStepSize   yes \
	alphaTreduceFactor   0.1 \
	alphaTincreaseFactor 3 \
	nAlphaAdjustMax      3 \
	wolfeEnergy          0.0001 \
	wolfeGradient        0.9 \
	fdTest               no
lcao-params -1 1e-06 1e-05
pcm-variant GLSSA13
spintype z-spin
subspace-rotation-factor 1 yes
symmetries automatic
symmetry-threshold 0.0001



---------- Setting up symmetries ----------

Found 24 point-group symmetries of the bravais lattice
Found 24 space-group symmetries with basis
Applied RMS atom displacement 0 bohrs to make symmetries exact.

---------- Initializing the Grid ----------
R = 
[      14.1825     -7.09123            0  ]
[            0      12.2824            0  ]
[            0            0           40  ]
unit cell volume = 6967.77
G =
[   0.443025   0.255781         -0  ]
[          0   0.511561         -0  ]
[         -0         -0    0.15708  ]
Minimum fftbox size, Smin = [  60  60  164  ]
Chosen fftbox size, S = [  60  60  168  ]

---------- Exchange Correlation functional ----------
Initalized PBE GGA exchange.
Initalized PBE GGA correlation.

---------- Setting up pseudopotentials ----------
Width of ionic core gaussian charges (only for fluid interactions / plotting) set to 0

Reading pseudopotential file '/home/gridsan/aligho/DFT/build-Nov24/pseudopotentials/SG15/Na_ONCV_PBE.upf':
  'Na' pseudopotential, 'PBE' functional
  Generated using ONCVPSP code by D. R. Hamann
  Author: Martin Schlipf and Francois Gygi  Date: 150915.
  9 valence electrons, 3 orbitals, 4 projectors, 1992 radial grid points, with lMax = 1
  Transforming local potential to a uniform radial grid of dG=0.02 with 1489 points.
  Transforming nonlocal projectors to a uniform radial grid of dG=0.02 with 432 points.
    2S    l: 0   occupation:  2.0   eigenvalue: -2.085640
    2P    l: 1   occupation:  6.0   eigenvalue: -1.053708
    3S    l: 0   occupation:  1.0   eigenvalue: -0.100838
  Transforming atomic orbitals to a uniform radial grid of dG=0.02 with 432 points.
  Core radius for overlap checks: 2.01 bohrs.
  Reading pulay file /home/gridsan/aligho/DFT/build-Nov24/pseudopotentials/SG15/Na_ONCV_PBE.pulay ... using dE_dnG = -2.946487e-03 computed for Ecut = 20.

Initialized 1 species with 1 total atoms.

Folded 1 k-points by 12x12x1 to 144 k-points.

---------- Setting up k-points, bands, fillings ----------
Reduced to 19 k-points under symmetry. 
Computing the number of bands and number of electrons
Calculating initial fillings.
nElectrons:   9.000000   nBands: 6   nStates: 38

----- Setting up reduced wavefunction bases (one per k-point) -----
average nbasis = 29766.104 , ideal nbasis = 29766.845

---------- Setting up coulomb interaction ----------
Initialized slab truncation along lattice direction 001

---------- Setting up 2D ewald sum ----------
Optimum gaussian width for ewald sums = 7.873530 bohr.
Real space sums over 289 unit cells with max indices [  8  8  0  ]
Reciprocal space sums over 81 terms with max indices [  4  4  0  ]

---------- Allocating electronic variables ----------
Initializing wave functions:  linear combination of atomic orbitals
Note: number of bands (6) exceeds available atomic orbitals (5)
Na pseudo-atom occupations:   s ( 2 1 )  p ( 6 )
[d-6-12-3:35344] 18 more processes have sent help message help-mpi-common-cuda.txt / dlopen failed
[d-6-12-3:35344] Set MCA parameter "orte_base_help_aggregate" to 0 to see all help / error messages
[d-6-12-3:35344] 18 more processes have sent help message help-mpi-btl-openib-cpc-base.txt / no cpcs for port
	FillingsUpdate:  mu: -0.101824833  nElectrons: 9.000000  magneticMoment: [ Abs: 0.42000  Tot: +0.42000 ]
LCAOMinimize: Iter:   0  F: -42.5534790442670996  |grad|_K:  7.721e-06  alpha:  1.000e+00
	FillingsUpdate:  mu: -0.101823200  nElectrons: 9.000000  magneticMoment: [ Abs: 0.42000  Tot: +0.42000 ]
LCAOMinimize: Iter:   1  F: -42.5534790848104834  |grad|_K:  4.121e-08  alpha:  9.943e-01  linmin: -1.686e-03  cgtest:  3.578e-01  t[s]:      8.75
LCAOMinimize: Encountered beta<0, resetting CG.
	FillingsUpdate:  mu: -0.101823198  nElectrons: 9.000000  magneticMoment: [ Abs: 0.42000  Tot: +0.42000 ]
LCAOMinimize: Iter:   2  F: -42.5534790848118689  |grad|_K:  1.266e-09  alpha:  1.029e+00  linmin:  1.182e-02  cgtest: -9.906e-01  t[s]:     11.18
LCAOMinimize: Converged (|Delta F|<1.000000e-06 for 2 iters).


---- Citations for features of the code used in this run ----

   Software package:
      R. Sundararaman, K. Letchworth-Weaver, K.A. Schwarz, D. Gunceler, Y. Ozhabes and T.A. Arias, 'JDFTx: software for joint density-functional theory', SoftwareX 6, 278 (2017)

   gga-PBE exchange-correlation functional:
      J.P. Perdew, K. Burke and M. Ernzerhof, Phys. Rev. Lett. 77, 3865 (1996)

   Pseudopotentials:
      M Schlipf and F Gygi, Comput. Phys. Commun. 196, 36 (2015)

   Truncated Coulomb potentials:
      R. Sundararaman and T.A. Arias, Phys. Rev. B 87, 165122 (2013)

This list may not be complete. Please suggest additional citations or
report any other bugs at https://github.com/shankar1729/jdftx/issues

Initialization completed successfully at t[s]:     11.28


-------- Electronic minimization -----------
Will mix electronic density at each iteration.
	FillingsUpdate:  mu: -0.101823198  nElectrons: 9.000000  magneticMoment: [ Abs: 0.42000  Tot: +0.42000 ]
	FillingsUpdate:  mu: -0.102148916  nElectrons: 9.000000  magneticMoment: [ Abs: 0.42000  Tot: +0.42000 ]
SCF: Cycle:  0   F: -42.553782377818969   dF: -3.033e-04   |Residual|: 2.066e-03   |deigs|: 1.732e-01  t[s]:     15.75
	FillingsUpdate:  mu: -0.102236856  nElectrons: 9.000000  magneticMoment: [ Abs: 0.42074  Tot: +0.42000 ]
SCF: Cycle:  1   F: -42.553787329448497   dF: -4.952e-06   |Residual|: 1.097e-03   |deigs|: 5.559e-03  t[s]:     19.29
	FillingsUpdate:  mu: -0.102330071  nElectrons: 9.000000  magneticMoment: [ Abs: 0.42060  Tot: +0.42000 ]
SCF: Cycle:  2   F: -42.553788758871335   dF: -1.429e-06   |Residual|: 6.134e-04   |deigs|: 2.723e-03  t[s]:     22.79
	FillingsUpdate:  mu: -0.102421380  nElectrons: 9.000000  magneticMoment: [ Abs: 0.42080  Tot: +0.42000 ]
SCF: Cycle:  3   F: -42.553789832007070   dF: -1.073e-06   |Residual|: 4.553e-04   |deigs|: 2.072e-03  t[s]:     26.37
	FillingsUpdate:  mu: -0.102529924  nElectrons: 9.000000  magneticMoment: [ Abs: 0.42061  Tot: +0.42000 ]
SCF: Cycle:  4   F: -42.553791315367057   dF: -1.483e-06   |Residual|: 2.657e-04   |deigs|: 7.845e-04  t[s]:     30.00
	FillingsUpdate:  mu: -0.102614167  nElectrons: 9.000000  magneticMoment: [ Abs: 0.42079  Tot: +0.42000 ]
SCF: Cycle:  5   F: -42.553792145599651   dF: -8.302e-07   |Residual|: 1.461e-04   |deigs|: 3.658e-04  t[s]:     33.73
	FillingsUpdate:  mu: -0.102601910  nElectrons: 9.000000  magneticMoment: [ Abs: 0.42070  Tot: +0.42000 ]
SCF: Cycle:  6   F: -42.553792417830600   dF: -2.722e-07   |Residual|: 9.448e-05   |deigs|: 1.526e-03  t[s]:     37.45
	FillingsUpdate:  mu: -0.102581144  nElectrons: 9.000000  magneticMoment: [ Abs: 0.42077  Tot: +0.42000 ]
SCF: Cycle:  7   F: -42.553792539921162   dF: -1.221e-07   |Residual|: 6.867e-05   |deigs|: 1.245e-03  t[s]:     41.18
	FillingsUpdate:  mu: -0.102529126  nElectrons: 9.000000  magneticMoment: [ Abs: 0.42071  Tot: +0.42000 ]
SCF: Cycle:  8   F: -42.553792602825247   dF: -6.290e-08   |Residual|: 5.244e-05   |deigs|: 7.552e-04  t[s]:     45.06
	FillingsUpdate:  mu: -0.102486363  nElectrons: 9.000000  magneticMoment: [ Abs: 0.42076  Tot: +0.42000 ]
SCF: Cycle:  9   F: -42.553792608906022   dF: -6.081e-09   |Residual|: 4.596e-05   |deigs|: 3.493e-04  t[s]:     48.96
	FillingsUpdate:  mu: -0.102446997  nElectrons: 9.000000  magneticMoment: [ Abs: 0.42077  Tot: +0.42000 ]
SCF: Cycle: 10   F: -42.553792611610284   dF: -2.704e-09   |Residual|: 3.949e-05   |deigs|: 1.460e-04  t[s]:     52.99
SCF: Converged (|Delta E|<1.000000e-08 for 2 iters).


# Ionic positions in lattice coordinates:
ion Na   0.000000000000000   0.000000000000000   0.000000000000000 0

# Forces in Lattice coordinates:
force Na   0.000000000000000  -0.000000000000000   0.000000000000000 0

# Energy components:
   Eewald =      -12.0320174002217755
       EH =       21.7236610068814109
     Eloc =      -54.7559357653714542
      Enl =      -12.9044822729811841
   Epulay =       -0.0000003132867683
      Exc =       -6.2084281189684178
       KE =       21.6234110465210883
-------------------------------------
     Etot =      -42.5537918174271113
       TS =        0.0000007941831713
-------------------------------------
        F =      -42.5537926116102838

IonicMinimize: Iter:   0  F: -42.553792611610284  |grad|_K:  0.000e+00  t[s]:     53.14
IonicMinimize: Converged (|grad|_K<1.000000e-04).

#--- Lowdin population analysis ---
# oxidation-state Na +0.004
# magnetic-moments Na +0.419

End date and time: Sat Feb  5 22:33:57 2022  (Duration: 0-0:00:53.19)
Done!
scale=4
magnetization=0.42
--------------------------------------------------------------------------
The library attempted to open the following supporting CUDA libraries,
but each of them failed.  CUDA-aware support is disabled.
libcuda.so.1: cannot open shared object file: No such file or directory
libcuda.dylib: cannot open shared object file: No such file or directory
/usr/lib64/libcuda.so.1: cannot open shared object file: No such file or directory
/usr/lib64/libcuda.dylib: cannot open shared object file: No such file or directory
If you are not interested in CUDA-aware support, then run with
--mca opal_warn_on_missing_libcuda 0 to suppress this message.  If you are interested
in CUDA-aware support, then try setting LD_LIBRARY_PATH to the location
of libcuda.so.1 to get passed this issue.
--------------------------------------------------------------------------
--------------------------------------------------------------------------
No OpenFabrics connection schemes reported that they were able to be
used on a specific port.  As such, the openib BTL (OpenFabrics
support) will be disabled for this port.

  Local host:           d-6-12-3
  Local device:         mlx5_1
  Local port:           1
  CPCs attempted:       rdmacm, udcm
--------------------------------------------------------------------------

*************** JDFTx 1.6.0 (git hash 42ebbcc2) ***************

Start date and time: Sat Feb  5 22:33:58 2022
Executable jdftx with command-line: -i Alkali.in
Running on hosts (process indices):  d-6-12-3 (0-18)
Divided in process groups (process indices):  0 (0)  1 (1)  2 (2)  3 (3)  4 (4)  5 (5)  6 (6)  7 (7)  8 (8)  9 (9)  10 (10)  11 (11)  12 (12)  13 (13)  14 (14)  15 (15)  16 (16)  17 (17)  18 (18)
Resource initialization completed at t[s]:      0.00
Run totals: 19 processes, 48 threads, 0 GPUs


Input parsed successfully to the following command list (including defaults):

basis kpoint-dependent
coords-type Lattice
core-overlap-check vector
coulomb-interaction Slab 001
davidson-band-ratio 1.1
dump End None
dump-name $INPUT.$VAR
elec-cutoff 20
elec-eigen-algo Davidson
elec-ex-corr gga-PBE
elec-initial-magnetization 0.420000 yes
elec-smearing Fermi 1e-05
electronic-minimize  \
	dirUpdateScheme      FletcherReeves \
	linminMethod         DirUpdateRecommended \
	nIterations          100 \
	history              15 \
	knormThreshold       0 \
	energyDiffThreshold  1e-08 \
	nEnergyDiff          2 \
	alphaTstart          1 \
	alphaTmin            1e-10 \
	updateTestStepSize   yes \
	alphaTreduceFactor   0.1 \
	alphaTincreaseFactor 3 \
	nAlphaAdjustMax      3 \
	wolfeEnergy          0.0001 \
	wolfeGradient        0.9 \
	fdTest               no
electronic-scf  \
	nIterations	10000 \
	energyDiffThreshold	1e-08 \
	residualThreshold	1e-07 \
	mixFraction	0.5 \
	qMetric	0.8 \
	history	10 \
	nEigSteps	2 \
	eigDiffThreshold	1e-08 \
	mixedVariable	Density \
	qKerker	0.8 \
	qKappa	-1 \
	verbose	no \
	mixFractionMag	1.5
exchange-regularization WignerSeitzTruncated
fluid None
fluid-ex-corr (null) lda-PZ
fluid-gummel-loop 10 1.000000e-05
fluid-minimize  \
	dirUpdateScheme      PolakRibiere \
	linminMethod         DirUpdateRecommended \
	nIterations          100 \
	history              15 \
	knormThreshold       0 \
	energyDiffThreshold  0 \
	nEnergyDiff          2 \
	alphaTstart          1 \
	alphaTmin            1e-10 \
	updateTestStepSize   yes \
	alphaTreduceFactor   0.1 \
	alphaTincreaseFactor 3 \
	nAlphaAdjustMax      3 \
	wolfeEnergy          0.0001 \
	wolfeGradient        0.9 \
	fdTest               no
fluid-solvent H2O 55.338 ScalarEOS \
	epsBulk 78.4 \
	pMol 0.92466 \
	epsInf 1.77 \
	Pvap 1.06736e-10 \
	sigmaBulk 4.62e-05 \
	Rvdw 2.61727 \
	Res 1.42 \
	tauNuc 343133 \
	poleEl 15 7 1
forces-output-coords Positions
ion Na   0.000000000000000   0.000000000000000   0.000000000000000 0
ion-species SG15/$ID_ONCV_PBE.upf
ion-width 0
ionic-minimize  \
	dirUpdateScheme      L-BFGS \
	linminMethod         DirUpdateRecommended \
	nIterations          0 \
	history              15 \
	knormThreshold       0.0001 \
	energyDiffThreshold  1e-06 \
	nEnergyDiff          2 \
	alphaTstart          1 \
	alphaTmin            1e-10 \
	updateTestStepSize   yes \
	alphaTreduceFactor   0.1 \
	alphaTincreaseFactor 3 \
	nAlphaAdjustMax      3 \
	wolfeEnergy          0.0001 \
	wolfeGradient        0.9 \
	fdTest               no
kpoint   0.000000000000   0.000000000000   0.000000000000  1.00000000000000
kpoint-folding 12 12 1 
latt-move-scale 1 1 1
latt-scale 4 4 1 
lattice  \
	   4.727486978767153   -2.363743489383575    0.000000000000000  \
	  -0.000000000000000    4.094123819672498    0.000000000000000  \
	   0.000000000000000    0.000000000000000   40.000000000000000 
lattice-minimize  \
	dirUpdateScheme      L-BFGS \
	linminMethod         DirUpdateRecommended \
	nIterations          0 \
	history              15 \
	knormThreshold       0 \
	energyDiffThreshold  1e-06 \
	nEnergyDiff          2 \
	alphaTstart          1 \
	alphaTmin            1e-10 \
	updateTestStepSize   yes \
	alphaTreduceFactor   0.1 \
	alphaTincreaseFactor 3 \
	nAlphaAdjustMax      3 \
	wolfeEnergy          0.0001 \
	wolfeGradient        0.9 \
	fdTest               no
lcao-params -1 1e-06 1e-05
pcm-variant GLSSA13
spintype z-spin
subspace-rotation-factor 1 yes
symmetries automatic
symmetry-threshold 0.0001



---------- Setting up symmetries ----------

Found 24 point-group symmetries of the bravais lattice
Found 24 space-group symmetries with basis
Applied RMS atom displacement 0 bohrs to make symmetries exact.

---------- Initializing the Grid ----------
R = 
[      18.9099     -9.45497            0  ]
[            0      16.3765            0  ]
[            0            0           40  ]
unit cell volume = 12387.1
G =
[   0.332269   0.191835         -0  ]
[          0   0.383671         -0  ]
[         -0         -0    0.15708  ]
Minimum fftbox size, Smin = [  80  80  164  ]
Chosen fftbox size, S = [  80  80  168  ]

---------- Exchange Correlation functional ----------
Initalized PBE GGA exchange.
Initalized PBE GGA correlation.

---------- Setting up pseudopotentials ----------
Width of ionic core gaussian charges (only for fluid interactions / plotting) set to 0

Reading pseudopotential file '/home/gridsan/aligho/DFT/build-Nov24/pseudopotentials/SG15/Na_ONCV_PBE.upf':
  'Na' pseudopotential, 'PBE' functional
  Generated using ONCVPSP code by D. R. Hamann
  Author: Martin Schlipf and Francois Gygi  Date: 150915.
  9 valence electrons, 3 orbitals, 4 projectors, 1992 radial grid points, with lMax = 1
  Transforming local potential to a uniform radial grid of dG=0.02 with 1489 points.
  Transforming nonlocal projectors to a uniform radial grid of dG=0.02 with 432 points.
    2S    l: 0   occupation:  2.0   eigenvalue: -2.085640
    2P    l: 1   occupation:  6.0   eigenvalue: -1.053708
    3S    l: 0   occupation:  1.0   eigenvalue: -0.100838
  Transforming atomic orbitals to a uniform radial grid of dG=0.02 with 432 points.
  Core radius for overlap checks: 2.01 bohrs.
  Reading pulay file /home/gridsan/aligho/DFT/build-Nov24/pseudopotentials/SG15/Na_ONCV_PBE.pulay ... using dE_dnG = -2.946487e-03 computed for Ecut = 20.

Initialized 1 species with 1 total atoms.

Folded 1 k-points by 12x12x1 to 144 k-points.

---------- Setting up k-points, bands, fillings ----------
Reduced to 19 k-points under symmetry. 
Computing the number of bands and number of electrons
Calculating initial fillings.
nElectrons:   9.000000   nBands: 6   nStates: 38

----- Setting up reduced wavefunction bases (one per k-point) -----
average nbasis = 52924.021 , ideal nbasis = 52918.836

---------- Setting up coulomb interaction ----------
Initialized slab truncation along lattice direction 001

---------- Setting up 2D ewald sum ----------
Optimum gaussian width for ewald sums = 10.498040 bohr.
Real space sums over 289 unit cells with max indices [  8  8  0  ]
Reciprocal space sums over 81 terms with max indices [  4  4  0  ]

---------- Allocating electronic variables ----------
Initializing wave functions:  linear combination of atomic orbitals
Note: number of bands (6) exceeds available atomic orbitals (5)
Na pseudo-atom occupations:   s ( 2 1 )  p ( 6 )
[d-6-12-3:64215] 18 more processes have sent help message help-mpi-common-cuda.txt / dlopen failed
[d-6-12-3:64215] Set MCA parameter "orte_base_help_aggregate" to 0 to see all help / error messages
[d-6-12-3:64215] 18 more processes have sent help message help-mpi-btl-openib-cpc-base.txt / no cpcs for port
	FillingsUpdate:  mu: -0.100746125  nElectrons: 9.000000  magneticMoment: [ Abs: 0.42000  Tot: +0.42000 ]
LCAOMinimize: Iter:   0  F: -42.5510009116494743  |grad|_K:  1.088e-06  alpha:  1.000e+00
	FillingsUpdate:  mu: -0.100745912  nElectrons: 9.000000  magneticMoment: [ Abs: 0.42000  Tot: +0.42000 ]
LCAOMinimize: Iter:   1  F: -42.5510009124550024  |grad|_K:  4.697e-09  alpha:  9.949e-01  linmin:  9.862e-05  cgtest: -2.417e-02  t[s]:     14.94
	FillingsUpdate:  mu: -0.100745912  nElectrons: 9.000000  magneticMoment: [ Abs: 0.42000  Tot: +0.42000 ]
LCAOMinimize: Iter:   2  F: -42.5510009124553008  |grad|_K:  4.613e-09  alpha:  1.796e-02  linmin: -6.710e-03  cgtest:  1.000e+00  t[s]:     18.95
LCAOMinimize: Encountered beta<0, resetting CG.
LCAOMinimize: Converged (|Delta F|<1.000000e-06 for 2 iters).


---- Citations for features of the code used in this run ----

   Software package:
      R. Sundararaman, K. Letchworth-Weaver, K.A. Schwarz, D. Gunceler, Y. Ozhabes and T.A. Arias, 'JDFTx: software for joint density-functional theory', SoftwareX 6, 278 (2017)

   gga-PBE exchange-correlation functional:
      J.P. Perdew, K. Burke and M. Ernzerhof, Phys. Rev. Lett. 77, 3865 (1996)

   Pseudopotentials:
      M Schlipf and F Gygi, Comput. Phys. Commun. 196, 36 (2015)

   Truncated Coulomb potentials:
      R. Sundararaman and T.A. Arias, Phys. Rev. B 87, 165122 (2013)

This list may not be complete. Please suggest additional citations or
report any other bugs at https://github.com/shankar1729/jdftx/issues

Initialization completed successfully at t[s]:     19.11


-------- Electronic minimization -----------
Will mix electronic density at each iteration.
	FillingsUpdate:  mu: -0.100745912  nElectrons: 9.000000  magneticMoment: [ Abs: 0.42000  Tot: +0.42000 ]
	FillingsUpdate:  mu: -0.100793901  nElectrons: 9.000000  magneticMoment: [ Abs: 0.42000  Tot: +0.42000 ]
SCF: Cycle:  0   F: -42.551050358430565   dF: -4.945e-05   |Residual|: 1.928e-03   |deigs|: 1.663e-01  t[s]:     26.85
	FillingsUpdate:  mu: -0.100784857  nElectrons: 9.000000  magneticMoment: [ Abs: 0.42081  Tot: +0.42000 ]
SCF: Cycle:  1   F: -42.551050925749976   dF: -5.673e-07   |Residual|: 8.411e-04   |deigs|: 1.363e-02  t[s]:     32.85
	FillingsUpdate:  mu: -0.100772315  nElectrons: 9.000000  magneticMoment: [ Abs: 0.42062  Tot: +0.42000 ]
SCF: Cycle:  2   F: -42.551051047840780   dF: -1.221e-07   |Residual|: 2.544e-04   |deigs|: 1.870e-03  t[s]:     38.97
	FillingsUpdate:  mu: -0.100762028  nElectrons: 9.000000  magneticMoment: [ Abs: 0.42075  Tot: +0.42000 ]
SCF: Cycle:  3   F: -42.551051091043234   dF: -4.320e-08   |Residual|: 9.817e-05   |deigs|: 3.781e-04  t[s]:     45.18
	FillingsUpdate:  mu: -0.100751865  nElectrons: 9.000000  magneticMoment: [ Abs: 0.42071  Tot: +0.42000 ]
SCF: Cycle:  4   F: -42.551051104549487   dF: -1.351e-08   |Residual|: 6.703e-05   |deigs|: 2.966e-04  t[s]:     51.49
	FillingsUpdate:  mu: -0.100728332  nElectrons: 9.000000  magneticMoment: [ Abs: 0.42073  Tot: +0.42000 ]
SCF: Cycle:  5   F: -42.551051120983622   dF: -1.643e-08   |Residual|: 4.709e-05   |deigs|: 2.570e-04  t[s]:     57.89
	FillingsUpdate:  mu: -0.100714887  nElectrons: 9.000000  magneticMoment: [ Abs: 0.42070  Tot: +0.42000 ]
SCF: Cycle:  6   F: -42.551051124147854   dF: -3.164e-09   |Residual|: 3.026e-05   |deigs|: 2.007e-04  t[s]:     64.48
	FillingsUpdate:  mu: -0.100694533  nElectrons: 9.000000  magneticMoment: [ Abs: 0.42072  Tot: +0.42000 ]
SCF: Cycle:  7   F: -42.551051125257587   dF: -1.110e-09   |Residual|: 2.533e-05   |deigs|: 1.864e-04  t[s]:     71.17
SCF: Converged (|Delta E|<1.000000e-08 for 2 iters).


# Ionic positions in lattice coordinates:
ion Na   0.000000000000000   0.000000000000000   0.000000000000000 0

# Forces in Lattice coordinates:
force Na   0.000000000000000   0.000000000000000   0.000000000000000 0

# Energy components:
   Eewald =       -9.0240130501663280
       EH =       24.7718618289172063
     Eloc =      -60.8158565934971236
      Enl =      -12.9028134686904004
   Epulay =        0.0000012333957556
      Exc =       -6.2113472609404621
       KE =       21.6311179099176769
-------------------------------------
     Etot =      -42.5510494010636791
       TS =        0.0000017241939063
-------------------------------------
        F =      -42.5510511252575867

IonicMinimize: Iter:   0  F: -42.551051125257587  |grad|_K:  0.000e+00  t[s]:     71.42
IonicMinimize: Converged (|grad|_K<1.000000e-04).

#--- Lowdin population analysis ---
# oxidation-state Na +0.000
# magnetic-moments Na +0.420

End date and time: Sat Feb  5 22:35:10 2022  (Duration: 0-0:01:11.50)
Done!
