The alkali metal is Na
scale=2
magnetization=0.1
--------------------------------------------------------------------------
The library attempted to open the following supporting CUDA libraries,
but each of them failed.  CUDA-aware support is disabled.
libcuda.so.1: cannot open shared object file: No such file or directory
libcuda.dylib: cannot open shared object file: No such file or directory
/usr/lib64/libcuda.so.1: cannot open shared object file: No such file or directory
/usr/lib64/libcuda.dylib: cannot open shared object file: No such file or directory
If you are not interested in CUDA-aware support, then run with
--mca opal_warn_on_missing_libcuda 0 to suppress this message.  If you are interested
in CUDA-aware support, then try setting LD_LIBRARY_PATH to the location
of libcuda.so.1 to get passed this issue.
--------------------------------------------------------------------------
--------------------------------------------------------------------------
No OpenFabrics connection schemes reported that they were able to be
used on a specific port.  As such, the openib BTL (OpenFabrics
support) will be disabled for this port.

  Local host:           d-3-13-4
  Local device:         mlx5_1
  Local port:           1
  CPCs attempted:       rdmacm, udcm
--------------------------------------------------------------------------

*************** JDFTx 1.6.0 (git hash 42ebbcc2) ***************

Start date and time: Sat Feb  5 22:29:59 2022
Executable jdftx with command-line: -i Alkali.in
Running on hosts (process indices):  d-3-13-4 (0-18)
Divided in process groups (process indices):  0 (0)  1 (1)  2 (2)  3 (3)  4 (4)  5 (5)  6 (6)  7 (7)  8 (8)  9 (9)  10 (10)  11 (11)  12 (12)  13 (13)  14 (14)  15 (15)  16 (16)  17 (17)  18 (18)
Resource initialization completed at t[s]:      0.00
Run totals: 19 processes, 48 threads, 0 GPUs


Input parsed successfully to the following command list (including defaults):

basis kpoint-dependent
coords-type Lattice
core-overlap-check vector
coulomb-interaction Slab 001
davidson-band-ratio 1.1
dump End None
dump-name $INPUT.$VAR
elec-cutoff 20
elec-eigen-algo Davidson
elec-ex-corr gga-PBE
elec-initial-magnetization 0.100000 yes
elec-smearing Fermi 1e-05
electronic-minimize  \
	dirUpdateScheme      FletcherReeves \
	linminMethod         DirUpdateRecommended \
	nIterations          100 \
	history              15 \
	knormThreshold       0 \
	energyDiffThreshold  1e-08 \
	nEnergyDiff          2 \
	alphaTstart          1 \
	alphaTmin            1e-10 \
	updateTestStepSize   yes \
	alphaTreduceFactor   0.1 \
	alphaTincreaseFactor 3 \
	nAlphaAdjustMax      3 \
	wolfeEnergy          0.0001 \
	wolfeGradient        0.9 \
	fdTest               no
electronic-scf  \
	nIterations	10000 \
	energyDiffThreshold	1e-08 \
	residualThreshold	1e-07 \
	mixFraction	0.5 \
	qMetric	0.8 \
	history	10 \
	nEigSteps	2 \
	eigDiffThreshold	1e-08 \
	mixedVariable	Density \
	qKerker	0.8 \
	qKappa	-1 \
	verbose	no \
	mixFractionMag	1.5
exchange-regularization WignerSeitzTruncated
fluid None
fluid-ex-corr (null) lda-PZ
fluid-gummel-loop 10 1.000000e-05
fluid-minimize  \
	dirUpdateScheme      PolakRibiere \
	linminMethod         DirUpdateRecommended \
	nIterations          100 \
	history              15 \
	knormThreshold       0 \
	energyDiffThreshold  0 \
	nEnergyDiff          2 \
	alphaTstart          1 \
	alphaTmin            1e-10 \
	updateTestStepSize   yes \
	alphaTreduceFactor   0.1 \
	alphaTincreaseFactor 3 \
	nAlphaAdjustMax      3 \
	wolfeEnergy          0.0001 \
	wolfeGradient        0.9 \
	fdTest               no
fluid-solvent H2O 55.338 ScalarEOS \
	epsBulk 78.4 \
	pMol 0.92466 \
	epsInf 1.77 \
	Pvap 1.06736e-10 \
	sigmaBulk 4.62e-05 \
	Rvdw 2.61727 \
	Res 1.42 \
	tauNuc 343133 \
	poleEl 15 7 1
forces-output-coords Positions
ion Na   0.000000000000000   0.000000000000000   0.000000000000000 0
ion-species SG15/$ID_ONCV_PBE.upf
ion-width 0
ionic-minimize  \
	dirUpdateScheme      L-BFGS \
	linminMethod         DirUpdateRecommended \
	nIterations          0 \
	history              15 \
	knormThreshold       0.0001 \
	energyDiffThreshold  1e-06 \
	nEnergyDiff          2 \
	alphaTstart          1 \
	alphaTmin            1e-10 \
	updateTestStepSize   yes \
	alphaTreduceFactor   0.1 \
	alphaTincreaseFactor 3 \
	nAlphaAdjustMax      3 \
	wolfeEnergy          0.0001 \
	wolfeGradient        0.9 \
	fdTest               no
kpoint   0.000000000000   0.000000000000   0.000000000000  1.00000000000000
kpoint-folding 12 12 1 
latt-move-scale 1 1 1
latt-scale 2 2 1 
lattice  \
	   4.727486978767153   -2.363743489383575    0.000000000000000  \
	  -0.000000000000000    4.094123819672498    0.000000000000000  \
	   0.000000000000000    0.000000000000000   40.000000000000000 
lattice-minimize  \
	dirUpdateScheme      L-BFGS \
	linminMethod         DirUpdateRecommended \
	nIterations          0 \
	history              15 \
	knormThreshold       0 \
	energyDiffThreshold  1e-06 \
	nEnergyDiff          2 \
	alphaTstart          1 \
	alphaTmin            1e-10 \
	updateTestStepSize   yes \
	alphaTreduceFactor   0.1 \
	alphaTincreaseFactor 3 \
	nAlphaAdjustMax      3 \
	wolfeEnergy          0.0001 \
	wolfeGradient        0.9 \
	fdTest               no
lcao-params -1 1e-06 1e-05
pcm-variant GLSSA13
spintype z-spin
subspace-rotation-factor 1 yes
symmetries automatic
symmetry-threshold 0.0001



---------- Setting up symmetries ----------

Found 24 point-group symmetries of the bravais lattice
Found 24 space-group symmetries with basis
Applied RMS atom displacement 0 bohrs to make symmetries exact.

---------- Initializing the Grid ----------
R = 
[      9.45497     -4.72749            0  ]
[            0      8.18825            0  ]
[            0            0           40  ]
unit cell volume = 3096.79
G =
[   0.664538   0.383671         -0  ]
[          0   0.767342         -0  ]
[         -0         -0    0.15708  ]
Minimum fftbox size, Smin = [  40  40  164  ]
Chosen fftbox size, S = [  40  40  168  ]

---------- Exchange Correlation functional ----------
Initalized PBE GGA exchange.
Initalized PBE GGA correlation.

---------- Setting up pseudopotentials ----------
Width of ionic core gaussian charges (only for fluid interactions / plotting) set to 0

Reading pseudopotential file '/home/gridsan/aligho/DFT/build-Nov24/pseudopotentials/SG15/Na_ONCV_PBE.upf':
  'Na' pseudopotential, 'PBE' functional
  Generated using ONCVPSP code by D. R. Hamann
  Author: Martin Schlipf and Francois Gygi  Date: 150915.
  9 valence electrons, 3 orbitals, 4 projectors, 1992 radial grid points, with lMax = 1
  Transforming local potential to a uniform radial grid of dG=0.02 with 1489 points.
  Transforming nonlocal projectors to a uniform radial grid of dG=0.02 with 432 points.
    2S    l: 0   occupation:  2.0   eigenvalue: -2.085640
    2P    l: 1   occupation:  6.0   eigenvalue: -1.053708
    3S    l: 0   occupation:  1.0   eigenvalue: -0.100838
  Transforming atomic orbitals to a uniform radial grid of dG=0.02 with 432 points.
  Core radius for overlap checks: 2.01 bohrs.
  Reading pulay file /home/gridsan/aligho/DFT/build-Nov24/pseudopotentials/SG15/Na_ONCV_PBE.pulay ... using dE_dnG = -2.946487e-03 computed for Ecut = 20.

Initialized 1 species with 1 total atoms.

Folded 1 k-points by 12x12x1 to 144 k-points.

---------- Setting up k-points, bands, fillings ----------
Reduced to 19 k-points under symmetry. 
Computing the number of bands and number of electrons
Calculating initial fillings.
nElectrons:   9.000000   nBands: 6   nStates: 38

----- Setting up reduced wavefunction bases (one per k-point) -----
average nbasis = 13230.521 , ideal nbasis = 13229.709

---------- Setting up coulomb interaction ----------
Initialized slab truncation along lattice direction 001

---------- Setting up 2D ewald sum ----------
Optimum gaussian width for ewald sums = 5.249020 bohr.
Real space sums over 289 unit cells with max indices [  8  8  0  ]
Reciprocal space sums over 81 terms with max indices [  4  4  0  ]

---------- Allocating electronic variables ----------
Initializing wave functions:  linear combination of atomic orbitals
Note: number of bands (6) exceeds available atomic orbitals (5)
Na pseudo-atom occupations:   s ( 2 1 )  p ( 6 )
	FillingsUpdate:  mu: -0.104898344  nElectrons: 9.000000  magneticMoment: [ Abs: 0.10000  Tot: +0.10000 ]
LCAOMinimize: Iter:   0  F: -42.5688464935215691  |grad|_K:  3.214e-05  alpha:  1.000e+00
	FillingsUpdate:  mu: -0.104896969  nElectrons: 9.000000  magneticMoment: [ Abs: 0.10000  Tot: +0.10000 ]
LCAOMinimize: Iter:   1  F: -42.5688471912680413  |grad|_K:  3.154e-07  alpha:  9.877e-01  linmin: -1.708e-02  cgtest:  6.936e-01  t[s]:      4.39
LCAOMinimize: Encountered beta<0, resetting CG.
[d-3-13-4:46858] 18 more processes have sent help message help-mpi-common-cuda.txt / dlopen failed
[d-3-13-4:46858] Set MCA parameter "orte_base_help_aggregate" to 0 to see all help / error messages
[d-3-13-4:46858] 18 more processes have sent help message help-mpi-btl-openib-cpc-base.txt / no cpcs for port
	FillingsUpdate:  mu: -0.104897026  nElectrons: 9.000000  magneticMoment: [ Abs: 0.10000  Tot: +0.10000 ]
LCAOMinimize: Iter:   2  F: -42.5688471913358839  |grad|_K:  4.228e-10  alpha:  1.001e+00  linmin: -2.941e-02  cgtest:  8.071e-01  t[s]:      5.68
LCAOMinimize: Encountered beta<0, resetting CG.
LCAOMinimize: Converged (|Delta F|<1.000000e-06 for 2 iters).


---- Citations for features of the code used in this run ----

   Software package:
      R. Sundararaman, K. Letchworth-Weaver, K.A. Schwarz, D. Gunceler, Y. Ozhabes and T.A. Arias, 'JDFTx: software for joint density-functional theory', SoftwareX 6, 278 (2017)

   gga-PBE exchange-correlation functional:
      J.P. Perdew, K. Burke and M. Ernzerhof, Phys. Rev. Lett. 77, 3865 (1996)

   Pseudopotentials:
      M Schlipf and F Gygi, Comput. Phys. Commun. 196, 36 (2015)

   Truncated Coulomb potentials:
      R. Sundararaman and T.A. Arias, Phys. Rev. B 87, 165122 (2013)

This list may not be complete. Please suggest additional citations or
report any other bugs at https://github.com/shankar1729/jdftx/issues

Initialization completed successfully at t[s]:      5.75


-------- Electronic minimization -----------
Will mix electronic density at each iteration.
	FillingsUpdate:  mu: -0.104897026  nElectrons: 9.000000  magneticMoment: [ Abs: 0.10000  Tot: +0.10000 ]
	FillingsUpdate:  mu: -0.112995358  nElectrons: 9.000000  magneticMoment: [ Abs: 0.10000  Tot: +0.10000 ]
SCF: Cycle:  0   F: -42.572931981540215   dF: -4.085e-03   |Residual|: 7.033e-03   |deigs|: 1.706e-01  t[s]:      8.01
	FillingsUpdate:  mu: -0.113154468  nElectrons: 9.000000  magneticMoment: [ Abs: 0.10000  Tot: +0.10000 ]
SCF: Cycle:  1   F: -42.572994602315667   dF: -6.262e-05   |Residual|: 5.055e-03   |deigs|: 8.895e-03  t[s]:      9.70
	FillingsUpdate:  mu: -0.112933707  nElectrons: 9.000000  magneticMoment: [ Abs: 0.10097  Tot: +0.10000 ]
SCF: Cycle:  2   F: -42.573014289968427   dF: -1.969e-05   |Residual|: 2.129e-03   |deigs|: 6.775e-03  t[s]:     11.47
	FillingsUpdate:  mu: -0.112466170  nElectrons: 9.000000  magneticMoment: [ Abs: 0.10000  Tot: +0.10000 ]
SCF: Cycle:  3   F: -42.573018601098099   dF: -4.311e-06   |Residual|: 1.190e-03   |deigs|: 4.440e-03  t[s]:     13.15
	FillingsUpdate:  mu: -0.111984203  nElectrons: 9.000000  magneticMoment: [ Abs: 0.10000  Tot: +0.10000 ]
SCF: Cycle:  4   F: -42.573019534016915   dF: -9.329e-07   |Residual|: 8.320e-04   |deigs|: 3.255e-03  t[s]:     14.99
	FillingsUpdate:  mu: -0.111457151  nElectrons: 9.000000  magneticMoment: [ Abs: 0.10016  Tot: +0.10000 ]
SCF: Cycle:  5   F: -42.573019862856484   dF: -3.288e-07   |Residual|: 6.433e-04   |deigs|: 1.766e-03  t[s]:     16.87
	FillingsUpdate:  mu: -0.110346389  nElectrons: 9.000000  magneticMoment: [ Abs: 0.10087  Tot: +0.10000 ]
SCF: Cycle:  6   F: -42.573019619576563   dF: +2.433e-07   |Residual|: 4.660e-04   |deigs|: 1.718e-03  t[s]:     18.68
	FillingsUpdate:  mu: -0.109919974  nElectrons: 9.000000  magneticMoment: [ Abs: 0.10068  Tot: +0.10000 ]
SCF: Cycle:  7   F: -42.573019786082689   dF: -1.665e-07   |Residual|: 3.660e-04   |deigs|: 6.260e-04  t[s]:     20.58
	FillingsUpdate:  mu: -0.109261936  nElectrons: 9.000000  magneticMoment: [ Abs: 0.10044  Tot: +0.10000 ]
SCF: Cycle:  8   F: -42.573021099082034   dF: -1.313e-06   |Residual|: 3.234e-04   |deigs|: 8.911e-04  t[s]:     22.50
	FillingsUpdate:  mu: -0.109102770  nElectrons: 9.000000  magneticMoment: [ Abs: 0.10035  Tot: +0.10000 ]
SCF: Cycle:  9   F: -42.573021270491658   dF: -1.714e-07   |Residual|: 2.410e-04   |deigs|: 1.332e-04  t[s]:     24.35
	FillingsUpdate:  mu: -0.108584780  nElectrons: 9.000000  magneticMoment: [ Abs: 0.10060  Tot: +0.10000 ]
SCF: Cycle: 10   F: -42.573019678040609   dF: +1.592e-06   |Residual|: 2.232e-04   |deigs|: 4.455e-04  t[s]:     26.39
	FillingsUpdate:  mu: -0.108125039  nElectrons: 9.000000  magneticMoment: [ Abs: 0.10032  Tot: +0.10000 ]
SCF: Cycle: 11   F: -42.573019505905719   dF: +1.721e-07   |Residual|: 2.033e-04   |deigs|: 5.067e-04  t[s]:     28.20
	FillingsUpdate:  mu: -0.107412842  nElectrons: 9.000000  magneticMoment: [ Abs: 0.10086  Tot: +0.10000 ]
SCF: Cycle: 12   F: -42.573020945688675   dF: -1.440e-06   |Residual|: 1.848e-04   |deigs|: 7.317e-04  t[s]:     30.16
	FillingsUpdate:  mu: -0.107159073  nElectrons: 9.000000  magneticMoment: [ Abs: 0.10079  Tot: +0.10000 ]
SCF: Cycle: 13   F: -42.573021780673642   dF: -8.350e-07   |Residual|: 1.694e-04   |deigs|: 2.526e-04  t[s]:     31.98
	FillingsUpdate:  mu: -0.106724467  nElectrons: 9.000000  magneticMoment: [ Abs: 0.10020  Tot: +0.10000 ]
SCF: Cycle: 14   F: -42.573022530431906   dF: -7.498e-07   |Residual|: 1.556e-04   |deigs|: 4.458e-04  t[s]:     33.88
	FillingsUpdate:  mu: -0.106311911  nElectrons: 9.000000  magneticMoment: [ Abs: 0.10019  Tot: +0.10000 ]
SCF: Cycle: 15   F: -42.573022831727002   dF: -3.013e-07   |Residual|: 1.226e-04   |deigs|: 4.433e-04  t[s]:     35.70
	FillingsUpdate:  mu: -0.105916460  nElectrons: 9.000000  magneticMoment: [ Abs: 0.10027  Tot: +0.10000 ]
SCF: Cycle: 16   F: -42.573023014580166   dF: -1.829e-07   |Residual|: 7.659e-05   |deigs|: 4.002e-04  t[s]:     37.54
	FillingsUpdate:  mu: -0.105867139  nElectrons: 9.000000  magneticMoment: [ Abs: 0.10015  Tot: +0.10000 ]
SCF: Cycle: 17   F: -42.573023043878344   dF: -2.930e-08   |Residual|: 4.981e-05   |deigs|: 8.591e-04  t[s]:     39.42
	FillingsUpdate:  mu: -0.105821050  nElectrons: 9.000000  magneticMoment: [ Abs: 0.10004  Tot: +0.10000 ]
SCF: Cycle: 18   F: -42.573023056681173   dF: -1.280e-08   |Residual|: 3.215e-05   |deigs|: 1.118e-03  t[s]:     41.34
	FillingsUpdate:  mu: -0.105792857  nElectrons: 9.000000  magneticMoment: [ Abs: 0.10009  Tot: +0.10000 ]
SCF: Cycle: 19   F: -42.573023065599976   dF: -8.919e-09   |Residual|: 1.688e-05   |deigs|: 5.683e-05  t[s]:     43.29
	FillingsUpdate:  mu: -0.105797571  nElectrons: 9.000000  magneticMoment: [ Abs: 0.10008  Tot: +0.10000 ]
SCF: Cycle: 20   F: -42.573023067848254   dF: -2.248e-09   |Residual|: 9.355e-06   |deigs|: 9.617e-06  t[s]:     45.17
SCF: Converged (|Delta E|<1.000000e-08 for 2 iters).


# Ionic positions in lattice coordinates:
ion Na   0.000000000000000   0.000000000000000   0.000000000000000 0

# Forces in Lattice coordinates:
force Na   0.000000000000000   0.000000000000000   0.000000000000000 0

# Energy components:
   Eewald =      -18.0480261003326561
       EH =       15.7226585445356424
     Eloc =      -42.7340878826019903
      Enl =      -12.9128779738394286
   Epulay =        0.0000007725295140
      Exc =       -6.2159270143694840
       KE =       21.6152376836658462
-------------------------------------
     Etot =      -42.5730219704125616
       TS =        0.0000010974356905
-------------------------------------
        F =      -42.5730230678482542

IonicMinimize: Iter:   0  F: -42.573023067848254  |grad|_K:  0.000e+00  t[s]:     45.24
IonicMinimize: Converged (|grad|_K<1.000000e-04).

#--- Lowdin population analysis ---
# oxidation-state Na +0.035
# magnetic-moments Na +0.090

End date and time: Sat Feb  5 22:30:44 2022  (Duration: 0-0:00:45.27)
Done!
scale=3
magnetization=0.1
--------------------------------------------------------------------------
The library attempted to open the following supporting CUDA libraries,
but each of them failed.  CUDA-aware support is disabled.
libcuda.so.1: cannot open shared object file: No such file or directory
libcuda.dylib: cannot open shared object file: No such file or directory
/usr/lib64/libcuda.so.1: cannot open shared object file: No such file or directory
/usr/lib64/libcuda.dylib: cannot open shared object file: No such file or directory
If you are not interested in CUDA-aware support, then run with
--mca opal_warn_on_missing_libcuda 0 to suppress this message.  If you are interested
in CUDA-aware support, then try setting LD_LIBRARY_PATH to the location
of libcuda.so.1 to get passed this issue.
--------------------------------------------------------------------------
--------------------------------------------------------------------------
No OpenFabrics connection schemes reported that they were able to be
used on a specific port.  As such, the openib BTL (OpenFabrics
support) will be disabled for this port.

  Local host:           d-3-13-4
  Local device:         mlx5_1
  Local port:           1
  CPCs attempted:       rdmacm, udcm
--------------------------------------------------------------------------

*************** JDFTx 1.6.0 (git hash 42ebbcc2) ***************

Start date and time: Sat Feb  5 22:30:45 2022
Executable jdftx with command-line: -i Alkali.in
Running on hosts (process indices):  d-3-13-4 (0-18)
Divided in process groups (process indices):  0 (0)  1 (1)  2 (2)  3 (3)  4 (4)  5 (5)  6 (6)  7 (7)  8 (8)  9 (9)  10 (10)  11 (11)  12 (12)  13 (13)  14 (14)  15 (15)  16 (16)  17 (17)  18 (18)
Resource initialization completed at t[s]:      0.00
Run totals: 19 processes, 48 threads, 0 GPUs


Input parsed successfully to the following command list (including defaults):

basis kpoint-dependent
coords-type Lattice
core-overlap-check vector
coulomb-interaction Slab 001
davidson-band-ratio 1.1
dump End None
dump-name $INPUT.$VAR
elec-cutoff 20
elec-eigen-algo Davidson
elec-ex-corr gga-PBE
elec-initial-magnetization 0.100000 yes
elec-smearing Fermi 1e-05
electronic-minimize  \
	dirUpdateScheme      FletcherReeves \
	linminMethod         DirUpdateRecommended \
	nIterations          100 \
	history              15 \
	knormThreshold       0 \
	energyDiffThreshold  1e-08 \
	nEnergyDiff          2 \
	alphaTstart          1 \
	alphaTmin            1e-10 \
	updateTestStepSize   yes \
	alphaTreduceFactor   0.1 \
	alphaTincreaseFactor 3 \
	nAlphaAdjustMax      3 \
	wolfeEnergy          0.0001 \
	wolfeGradient        0.9 \
	fdTest               no
electronic-scf  \
	nIterations	10000 \
	energyDiffThreshold	1e-08 \
	residualThreshold	1e-07 \
	mixFraction	0.5 \
	qMetric	0.8 \
	history	10 \
	nEigSteps	2 \
	eigDiffThreshold	1e-08 \
	mixedVariable	Density \
	qKerker	0.8 \
	qKappa	-1 \
	verbose	no \
	mixFractionMag	1.5
exchange-regularization WignerSeitzTruncated
fluid None
fluid-ex-corr (null) lda-PZ
fluid-gummel-loop 10 1.000000e-05
fluid-minimize  \
	dirUpdateScheme      PolakRibiere \
	linminMethod         DirUpdateRecommended \
	nIterations          100 \
	history              15 \
	knormThreshold       0 \
	energyDiffThreshold  0 \
	nEnergyDiff          2 \
	alphaTstart          1 \
	alphaTmin            1e-10 \
	updateTestStepSize   yes \
	alphaTreduceFactor   0.1 \
	alphaTincreaseFactor 3 \
	nAlphaAdjustMax      3 \
	wolfeEnergy          0.0001 \
	wolfeGradient        0.9 \
	fdTest               no
fluid-solvent H2O 55.338 ScalarEOS \
	epsBulk 78.4 \
	pMol 0.92466 \
	epsInf 1.77 \
	Pvap 1.06736e-10 \
	sigmaBulk 4.62e-05 \
	Rvdw 2.61727 \
	Res 1.42 \
	tauNuc 343133 \
	poleEl 15 7 1
forces-output-coords Positions
ion Na   0.000000000000000   0.000000000000000   0.000000000000000 0
ion-species SG15/$ID_ONCV_PBE.upf
ion-width 0
ionic-minimize  \
	dirUpdateScheme      L-BFGS \
	linminMethod         DirUpdateRecommended \
	nIterations          0 \
	history              15 \
	knormThreshold       0.0001 \
	energyDiffThreshold  1e-06 \
	nEnergyDiff          2 \
	alphaTstart          1 \
	alphaTmin            1e-10 \
	updateTestStepSize   yes \
	alphaTreduceFactor   0.1 \
	alphaTincreaseFactor 3 \
	nAlphaAdjustMax      3 \
	wolfeEnergy          0.0001 \
	wolfeGradient        0.9 \
	fdTest               no
kpoint   0.000000000000   0.000000000000   0.000000000000  1.00000000000000
kpoint-folding 12 12 1 
latt-move-scale 1 1 1
latt-scale 3 3 1 
lattice  \
	   4.727486978767153   -2.363743489383575    0.000000000000000  \
	  -0.000000000000000    4.094123819672498    0.000000000000000  \
	   0.000000000000000    0.000000000000000   40.000000000000000 
lattice-minimize  \
	dirUpdateScheme      L-BFGS \
	linminMethod         DirUpdateRecommended \
	nIterations          0 \
	history              15 \
	knormThreshold       0 \
	energyDiffThreshold  1e-06 \
	nEnergyDiff          2 \
	alphaTstart          1 \
	alphaTmin            1e-10 \
	updateTestStepSize   yes \
	alphaTreduceFactor   0.1 \
	alphaTincreaseFactor 3 \
	nAlphaAdjustMax      3 \
	wolfeEnergy          0.0001 \
	wolfeGradient        0.9 \
	fdTest               no
lcao-params -1 1e-06 1e-05
pcm-variant GLSSA13
spintype z-spin
subspace-rotation-factor 1 yes
symmetries automatic
symmetry-threshold 0.0001



---------- Setting up symmetries ----------

Found 24 point-group symmetries of the bravais lattice
Found 24 space-group symmetries with basis
Applied RMS atom displacement 0 bohrs to make symmetries exact.

---------- Initializing the Grid ----------
R = 
[      14.1825     -7.09123            0  ]
[            0      12.2824            0  ]
[            0            0           40  ]
unit cell volume = 6967.77
G =
[   0.443025   0.255781         -0  ]
[          0   0.511561         -0  ]
[         -0         -0    0.15708  ]
Minimum fftbox size, Smin = [  60  60  164  ]
Chosen fftbox size, S = [  60  60  168  ]

---------- Exchange Correlation functional ----------
Initalized PBE GGA exchange.
Initalized PBE GGA correlation.

---------- Setting up pseudopotentials ----------
Width of ionic core gaussian charges (only for fluid interactions / plotting) set to 0

Reading pseudopotential file '/home/gridsan/aligho/DFT/build-Nov24/pseudopotentials/SG15/Na_ONCV_PBE.upf':
  'Na' pseudopotential, 'PBE' functional
  Generated using ONCVPSP code by D. R. Hamann
  Author: Martin Schlipf and Francois Gygi  Date: 150915.
  9 valence electrons, 3 orbitals, 4 projectors, 1992 radial grid points, with lMax = 1
  Transforming local potential to a uniform radial grid of dG=0.02 with 1489 points.
  Transforming nonlocal projectors to a uniform radial grid of dG=0.02 with 432 points.
    2S    l: 0   occupation:  2.0   eigenvalue: -2.085640
    2P    l: 1   occupation:  6.0   eigenvalue: -1.053708
    3S    l: 0   occupation:  1.0   eigenvalue: -0.100838
  Transforming atomic orbitals to a uniform radial grid of dG=0.02 with 432 points.
  Core radius for overlap checks: 2.01 bohrs.
  Reading pulay file /home/gridsan/aligho/DFT/build-Nov24/pseudopotentials/SG15/Na_ONCV_PBE.pulay ... using dE_dnG = -2.946487e-03 computed for Ecut = 20.

Initialized 1 species with 1 total atoms.

Folded 1 k-points by 12x12x1 to 144 k-points.

---------- Setting up k-points, bands, fillings ----------
Reduced to 19 k-points under symmetry. 
Computing the number of bands and number of electrons
Calculating initial fillings.
nElectrons:   9.000000   nBands: 6   nStates: 38

----- Setting up reduced wavefunction bases (one per k-point) -----
average nbasis = 29766.104 , ideal nbasis = 29766.845

---------- Setting up coulomb interaction ----------
Initialized slab truncation along lattice direction 001

---------- Setting up 2D ewald sum ----------
Optimum gaussian width for ewald sums = 7.873530 bohr.
Real space sums over 289 unit cells with max indices [  8  8  0  ]
Reciprocal space sums over 81 terms with max indices [  4  4  0  ]

---------- Allocating electronic variables ----------
Initializing wave functions:  linear combination of atomic orbitals
Note: number of bands (6) exceeds available atomic orbitals (5)
Na pseudo-atom occupations:   s ( 2 1 )  p ( 6 )
[d-3-13-4:69378] 18 more processes have sent help message help-mpi-common-cuda.txt / dlopen failed
[d-3-13-4:69378] Set MCA parameter "orte_base_help_aggregate" to 0 to see all help / error messages
[d-3-13-4:69378] 18 more processes have sent help message help-mpi-btl-openib-cpc-base.txt / no cpcs for port
	FillingsUpdate:  mu: -0.101919523  nElectrons: 9.000000  magneticMoment: [ Abs: 0.10000  Tot: +0.10000 ]
LCAOMinimize: Iter:   0  F: -42.5528360634504068  |grad|_K:  8.679e-06  alpha:  1.000e+00
	FillingsUpdate:  mu: -0.101917626  nElectrons: 9.000000  magneticMoment: [ Abs: 0.10000  Tot: +0.10000 ]
LCAOMinimize: Iter:   1  F: -42.5528361146135339  |grad|_K:  4.846e-08  alpha:  9.931e-01  linmin: -7.351e-03  cgtest:  4.228e-01  t[s]:      8.62
LCAOMinimize: Encountered beta<0, resetting CG.
	FillingsUpdate:  mu: -0.101917619  nElectrons: 9.000000  magneticMoment: [ Abs: 0.10000  Tot: +0.10000 ]
LCAOMinimize: Iter:   2  F: -42.5528361146140810  |grad|_K:  4.014e-08  alpha:  1.827e+00  linmin:  2.760e-02  cgtest: -1.000e+00  t[s]:     11.07
LCAOMinimize: Converged (|Delta F|<1.000000e-06 for 2 iters).


---- Citations for features of the code used in this run ----

   Software package:
      R. Sundararaman, K. Letchworth-Weaver, K.A. Schwarz, D. Gunceler, Y. Ozhabes and T.A. Arias, 'JDFTx: software for joint density-functional theory', SoftwareX 6, 278 (2017)

   gga-PBE exchange-correlation functional:
      J.P. Perdew, K. Burke and M. Ernzerhof, Phys. Rev. Lett. 77, 3865 (1996)

   Pseudopotentials:
      M Schlipf and F Gygi, Comput. Phys. Commun. 196, 36 (2015)

   Truncated Coulomb potentials:
      R. Sundararaman and T.A. Arias, Phys. Rev. B 87, 165122 (2013)

This list may not be complete. Please suggest additional citations or
report any other bugs at https://github.com/shankar1729/jdftx/issues

Initialization completed successfully at t[s]:     11.18


-------- Electronic minimization -----------
Will mix electronic density at each iteration.
	FillingsUpdate:  mu: -0.101917619  nElectrons: 9.000000  magneticMoment: [ Abs: 0.10000  Tot: +0.10000 ]
	FillingsUpdate:  mu: -0.102273487  nElectrons: 9.000000  magneticMoment: [ Abs: 0.10000  Tot: +0.10000 ]
SCF: Cycle:  0   F: -42.553192387169254   dF: -3.563e-04   |Residual|: 2.133e-03   |deigs|: 1.740e-01  t[s]:     15.56
	FillingsUpdate:  mu: -0.102410596  nElectrons: 9.000000  magneticMoment: [ Abs: 0.10016  Tot: +0.10000 ]
SCF: Cycle:  1   F: -42.553198295815143   dF: -5.909e-06   |Residual|: 1.344e-03   |deigs|: 5.189e-03  t[s]:     19.01
	FillingsUpdate:  mu: -0.102662673  nElectrons: 9.000000  magneticMoment: [ Abs: 0.10013  Tot: +0.10000 ]
SCF: Cycle:  2   F: -42.553201782101524   dF: -3.486e-06   |Residual|: 7.675e-04   |deigs|: 2.767e-03  t[s]:     22.55
	FillingsUpdate:  mu: -0.102793085  nElectrons: 9.000000  magneticMoment: [ Abs: 0.10027  Tot: +0.10000 ]
SCF: Cycle:  3   F: -42.553203716200514   dF: -1.934e-06   |Residual|: 5.153e-04   |deigs|: 1.283e-03  t[s]:     26.14
	FillingsUpdate:  mu: -0.103036138  nElectrons: 9.000000  magneticMoment: [ Abs: 0.10016  Tot: +0.10000 ]
SCF: Cycle:  4   F: -42.553206145845600   dF: -2.430e-06   |Residual|: 2.582e-04   |deigs|: 1.675e-03  t[s]:     29.79
	FillingsUpdate:  mu: -0.103051496  nElectrons: 9.000000  magneticMoment: [ Abs: 0.10025  Tot: +0.10000 ]
SCF: Cycle:  5   F: -42.553206509514240   dF: -3.637e-07   |Residual|: 1.674e-04   |deigs|: 1.257e-03  t[s]:     33.40
	FillingsUpdate:  mu: -0.103031974  nElectrons: 9.000000  magneticMoment: [ Abs: 0.10017  Tot: +0.10000 ]
SCF: Cycle:  6   F: -42.553206839317518   dF: -3.298e-07   |Residual|: 1.116e-04   |deigs|: 1.484e-03  t[s]:     37.08
	FillingsUpdate:  mu: -0.103003507  nElectrons: 9.000000  magneticMoment: [ Abs: 0.10020  Tot: +0.10000 ]
SCF: Cycle:  7   F: -42.553206920844062   dF: -8.153e-08   |Residual|: 7.477e-05   |deigs|: 7.729e-04  t[s]:     40.79
	FillingsUpdate:  mu: -0.102954234  nElectrons: 9.000000  magneticMoment: [ Abs: 0.10016  Tot: +0.10000 ]
SCF: Cycle:  8   F: -42.553206959464418   dF: -3.862e-08   |Residual|: 5.418e-05   |deigs|: 6.966e-04  t[s]:     44.67
	FillingsUpdate:  mu: -0.102931817  nElectrons: 9.000000  magneticMoment: [ Abs: 0.10020  Tot: +0.10000 ]
SCF: Cycle:  9   F: -42.553206966426167   dF: -6.962e-09   |Residual|: 5.289e-05   |deigs|: 4.111e-05  t[s]:     48.54
	FillingsUpdate:  mu: -0.102870702  nElectrons: 9.000000  magneticMoment: [ Abs: 0.10021  Tot: +0.10000 ]
SCF: Cycle: 10   F: -42.553206973742299   dF: -7.316e-09   |Residual|: 3.921e-05   |deigs|: 7.880e-05  t[s]:     52.52
SCF: Converged (|Delta E|<1.000000e-08 for 2 iters).


# Ionic positions in lattice coordinates:
ion Na   0.000000000000000   0.000000000000000   0.000000000000000 0

# Forces in Lattice coordinates:
force Na   0.000000000000000   0.000000000000000   0.000000000000000 0

# Energy components:
   Eewald =      -12.0320174002217755
       EH =       21.7038875273479661
     Eloc =      -54.7345160686282100
      Enl =      -12.9047331026303151
   Epulay =       -0.0000003132867683
      Exc =       -6.2057442766148085
       KE =       21.6199177577273041
-------------------------------------
     Etot =      -42.5532058763066061
       TS =        0.0000010974356905
-------------------------------------
        F =      -42.5532069737422987

IonicMinimize: Iter:   0  F: -42.553206973742299  |grad|_K:  0.000e+00  t[s]:     52.66
IonicMinimize: Converged (|grad|_K<1.000000e-04).

#--- Lowdin population analysis ---
# oxidation-state Na +0.005
# magnetic-moments Na +0.100

End date and time: Sat Feb  5 22:31:38 2022  (Duration: 0-0:00:52.71)
Done!
scale=4
magnetization=0.1
--------------------------------------------------------------------------
The library attempted to open the following supporting CUDA libraries,
but each of them failed.  CUDA-aware support is disabled.
libcuda.so.1: cannot open shared object file: No such file or directory
libcuda.dylib: cannot open shared object file: No such file or directory
/usr/lib64/libcuda.so.1: cannot open shared object file: No such file or directory
/usr/lib64/libcuda.dylib: cannot open shared object file: No such file or directory
If you are not interested in CUDA-aware support, then run with
--mca opal_warn_on_missing_libcuda 0 to suppress this message.  If you are interested
in CUDA-aware support, then try setting LD_LIBRARY_PATH to the location
of libcuda.so.1 to get passed this issue.
--------------------------------------------------------------------------
--------------------------------------------------------------------------
No OpenFabrics connection schemes reported that they were able to be
used on a specific port.  As such, the openib BTL (OpenFabrics
support) will be disabled for this port.

  Local host:           d-3-13-4
  Local device:         mlx5_1
  Local port:           1
  CPCs attempted:       rdmacm, udcm
--------------------------------------------------------------------------

*************** JDFTx 1.6.0 (git hash 42ebbcc2) ***************

Start date and time: Sat Feb  5 22:31:39 2022
Executable jdftx with command-line: -i Alkali.in
Running on hosts (process indices):  d-3-13-4 (0-18)
Divided in process groups (process indices):  0 (0)  1 (1)  2 (2)  3 (3)  4 (4)  5 (5)  6 (6)  7 (7)  8 (8)  9 (9)  10 (10)  11 (11)  12 (12)  13 (13)  14 (14)  15 (15)  16 (16)  17 (17)  18 (18)
Resource initialization completed at t[s]:      0.00
Run totals: 19 processes, 48 threads, 0 GPUs


Input parsed successfully to the following command list (including defaults):

basis kpoint-dependent
coords-type Lattice
core-overlap-check vector
coulomb-interaction Slab 001
davidson-band-ratio 1.1
dump End None
dump-name $INPUT.$VAR
elec-cutoff 20
elec-eigen-algo Davidson
elec-ex-corr gga-PBE
elec-initial-magnetization 0.100000 yes
elec-smearing Fermi 1e-05
electronic-minimize  \
	dirUpdateScheme      FletcherReeves \
	linminMethod         DirUpdateRecommended \
	nIterations          100 \
	history              15 \
	knormThreshold       0 \
	energyDiffThreshold  1e-08 \
	nEnergyDiff          2 \
	alphaTstart          1 \
	alphaTmin            1e-10 \
	updateTestStepSize   yes \
	alphaTreduceFactor   0.1 \
	alphaTincreaseFactor 3 \
	nAlphaAdjustMax      3 \
	wolfeEnergy          0.0001 \
	wolfeGradient        0.9 \
	fdTest               no
electronic-scf  \
	nIterations	10000 \
	energyDiffThreshold	1e-08 \
	residualThreshold	1e-07 \
	mixFraction	0.5 \
	qMetric	0.8 \
	history	10 \
	nEigSteps	2 \
	eigDiffThreshold	1e-08 \
	mixedVariable	Density \
	qKerker	0.8 \
	qKappa	-1 \
	verbose	no \
	mixFractionMag	1.5
exchange-regularization WignerSeitzTruncated
fluid None
fluid-ex-corr (null) lda-PZ
fluid-gummel-loop 10 1.000000e-05
fluid-minimize  \
	dirUpdateScheme      PolakRibiere \
	linminMethod         DirUpdateRecommended \
	nIterations          100 \
	history              15 \
	knormThreshold       0 \
	energyDiffThreshold  0 \
	nEnergyDiff          2 \
	alphaTstart          1 \
	alphaTmin            1e-10 \
	updateTestStepSize   yes \
	alphaTreduceFactor   0.1 \
	alphaTincreaseFactor 3 \
	nAlphaAdjustMax      3 \
	wolfeEnergy          0.0001 \
	wolfeGradient        0.9 \
	fdTest               no
fluid-solvent H2O 55.338 ScalarEOS \
	epsBulk 78.4 \
	pMol 0.92466 \
	epsInf 1.77 \
	Pvap 1.06736e-10 \
	sigmaBulk 4.62e-05 \
	Rvdw 2.61727 \
	Res 1.42 \
	tauNuc 343133 \
	poleEl 15 7 1
forces-output-coords Positions
ion Na   0.000000000000000   0.000000000000000   0.000000000000000 0
ion-species SG15/$ID_ONCV_PBE.upf
ion-width 0
ionic-minimize  \
	dirUpdateScheme      L-BFGS \
	linminMethod         DirUpdateRecommended \
	nIterations          0 \
	history              15 \
	knormThreshold       0.0001 \
	energyDiffThreshold  1e-06 \
	nEnergyDiff          2 \
	alphaTstart          1 \
	alphaTmin            1e-10 \
	updateTestStepSize   yes \
	alphaTreduceFactor   0.1 \
	alphaTincreaseFactor 3 \
	nAlphaAdjustMax      3 \
	wolfeEnergy          0.0001 \
	wolfeGradient        0.9 \
	fdTest               no
kpoint   0.000000000000   0.000000000000   0.000000000000  1.00000000000000
kpoint-folding 12 12 1 
latt-move-scale 1 1 1
latt-scale 4 4 1 
lattice  \
	   4.727486978767153   -2.363743489383575    0.000000000000000  \
	  -0.000000000000000    4.094123819672498    0.000000000000000  \
	   0.000000000000000    0.000000000000000   40.000000000000000 
lattice-minimize  \
	dirUpdateScheme      L-BFGS \
	linminMethod         DirUpdateRecommended \
	nIterations          0 \
	history              15 \
	knormThreshold       0 \
	energyDiffThreshold  1e-06 \
	nEnergyDiff          2 \
	alphaTstart          1 \
	alphaTmin            1e-10 \
	updateTestStepSize   yes \
	alphaTreduceFactor   0.1 \
	alphaTincreaseFactor 3 \
	nAlphaAdjustMax      3 \
	wolfeEnergy          0.0001 \
	wolfeGradient        0.9 \
	fdTest               no
lcao-params -1 1e-06 1e-05
pcm-variant GLSSA13
spintype z-spin
subspace-rotation-factor 1 yes
symmetries automatic
symmetry-threshold 0.0001



---------- Setting up symmetries ----------

Found 24 point-group symmetries of the bravais lattice
Found 24 space-group symmetries with basis
Applied RMS atom displacement 0 bohrs to make symmetries exact.

---------- Initializing the Grid ----------
R = 
[      18.9099     -9.45497            0  ]
[            0      16.3765            0  ]
[            0            0           40  ]
unit cell volume = 12387.1
G =
[   0.332269   0.191835         -0  ]
[          0   0.383671         -0  ]
[         -0         -0    0.15708  ]
Minimum fftbox size, Smin = [  80  80  164  ]
Chosen fftbox size, S = [  80  80  168  ]

---------- Exchange Correlation functional ----------
Initalized PBE GGA exchange.
Initalized PBE GGA correlation.

---------- Setting up pseudopotentials ----------
Width of ionic core gaussian charges (only for fluid interactions / plotting) set to 0

Reading pseudopotential file '/home/gridsan/aligho/DFT/build-Nov24/pseudopotentials/SG15/Na_ONCV_PBE.upf':
  'Na' pseudopotential, 'PBE' functional
  Generated using ONCVPSP code by D. R. Hamann
  Author: Martin Schlipf and Francois Gygi  Date: 150915.
  9 valence electrons, 3 orbitals, 4 projectors, 1992 radial grid points, with lMax = 1
  Transforming local potential to a uniform radial grid of dG=0.02 with 1489 points.
  Transforming nonlocal projectors to a uniform radial grid of dG=0.02 with 432 points.
    2S    l: 0   occupation:  2.0   eigenvalue: -2.085640
    2P    l: 1   occupation:  6.0   eigenvalue: -1.053708
    3S    l: 0   occupation:  1.0   eigenvalue: -0.100838
  Transforming atomic orbitals to a uniform radial grid of dG=0.02 with 432 points.
  Core radius for overlap checks: 2.01 bohrs.
  Reading pulay file /home/gridsan/aligho/DFT/build-Nov24/pseudopotentials/SG15/Na_ONCV_PBE.pulay ... using dE_dnG = -2.946487e-03 computed for Ecut = 20.

Initialized 1 species with 1 total atoms.

Folded 1 k-points by 12x12x1 to 144 k-points.

---------- Setting up k-points, bands, fillings ----------
Reduced to 19 k-points under symmetry. 
Computing the number of bands and number of electrons
Calculating initial fillings.
nElectrons:   9.000000   nBands: 6   nStates: 38

----- Setting up reduced wavefunction bases (one per k-point) -----
average nbasis = 52924.021 , ideal nbasis = 52918.836

---------- Setting up coulomb interaction ----------
Initialized slab truncation along lattice direction 001

---------- Setting up 2D ewald sum ----------
Optimum gaussian width for ewald sums = 10.498040 bohr.
Real space sums over 289 unit cells with max indices [  8  8  0  ]
Reciprocal space sums over 81 terms with max indices [  4  4  0  ]

---------- Allocating electronic variables ----------
Initializing wave functions:  linear combination of atomic orbitals
Note: number of bands (6) exceeds available atomic orbitals (5)
Na pseudo-atom occupations:   s ( 2 1 )  p ( 6 )
[d-3-13-4:97715] 18 more processes have sent help message help-mpi-common-cuda.txt / dlopen failed
[d-3-13-4:97715] Set MCA parameter "orte_base_help_aggregate" to 0 to see all help / error messages
[d-3-13-4:97715] 18 more processes have sent help message help-mpi-btl-openib-cpc-base.txt / no cpcs for port
	FillingsUpdate:  mu: -0.101186987  nElectrons: 9.000000  magneticMoment: [ Abs: 0.10000  Tot: +0.10000 ]
LCAOMinimize: Iter:   0  F: -42.5498277820333541  |grad|_K:  1.211e-06  alpha:  1.000e+00
	FillingsUpdate:  mu: -0.101186755  nElectrons: 9.000000  magneticMoment: [ Abs: 0.10000  Tot: +0.10000 ]
LCAOMinimize: Iter:   1  F: -42.5498277830291372  |grad|_K:  5.130e-09  alpha:  9.935e-01  linmin: -1.687e-03  cgtest:  1.248e-01  t[s]:     14.83
LCAOMinimize: Encountered beta<0, resetting CG.
LCAOMinimize: 	Wrong curvature in test step, increasing alphaT to 2.980534e+00.
	FillingsUpdate:  mu: -0.101186754  nElectrons: 9.000000  magneticMoment: [ Abs: 0.10000  Tot: +0.10000 ]
LCAOMinimize: Iter:   2  F: -42.5498277830296345  |grad|_K:  3.093e-11  alpha: -3.847e-02  linmin: -1.049e-02  cgtest:  7.916e-01  t[s]:     18.87
LCAOMinimize: Encountered beta<0, resetting CG.
LCAOMinimize: Converged (|Delta F|<1.000000e-06 for 2 iters).


---- Citations for features of the code used in this run ----

   Software package:
      R. Sundararaman, K. Letchworth-Weaver, K.A. Schwarz, D. Gunceler, Y. Ozhabes and T.A. Arias, 'JDFTx: software for joint density-functional theory', SoftwareX 6, 278 (2017)

   gga-PBE exchange-correlation functional:
      J.P. Perdew, K. Burke and M. Ernzerhof, Phys. Rev. Lett. 77, 3865 (1996)

   Pseudopotentials:
      M Schlipf and F Gygi, Comput. Phys. Commun. 196, 36 (2015)

   Truncated Coulomb potentials:
      R. Sundararaman and T.A. Arias, Phys. Rev. B 87, 165122 (2013)

This list may not be complete. Please suggest additional citations or
report any other bugs at https://github.com/shankar1729/jdftx/issues

Initialization completed successfully at t[s]:     19.03


-------- Electronic minimization -----------
Will mix electronic density at each iteration.
	FillingsUpdate:  mu: -0.101186754  nElectrons: 9.000000  magneticMoment: [ Abs: 0.10000  Tot: +0.10000 ]
	FillingsUpdate:  mu: -0.101199933  nElectrons: 9.000000  magneticMoment: [ Abs: 0.10000  Tot: +0.10000 ]
SCF: Cycle:  0   F: -42.549850113191020   dF: -2.233e-05   |Residual|: 1.822e-03   |deigs|: 1.728e-01  t[s]:     26.58
	FillingsUpdate:  mu: -0.101231298  nElectrons: 9.000000  magneticMoment: [ Abs: 0.10018  Tot: +0.10000 ]
SCF: Cycle:  1   F: -42.549850505926237   dF: -3.927e-07   |Residual|: 8.357e-04   |deigs|: 7.958e-03  t[s]:     32.56
	FillingsUpdate:  mu: -0.101278528  nElectrons: 9.000000  magneticMoment: [ Abs: 0.10014  Tot: +0.10000 ]
SCF: Cycle:  2   F: -42.549850648095308   dF: -1.422e-07   |Residual|: 1.747e-04   |deigs|: 1.542e-03  t[s]:     38.58
	FillingsUpdate:  mu: -0.101289472  nElectrons: 9.000000  magneticMoment: [ Abs: 0.10017  Tot: +0.10000 ]
SCF: Cycle:  3   F: -42.549850656362452   dF: -8.267e-09   |Residual|: 1.085e-04   |deigs|: 5.389e-04  t[s]:     44.79
	FillingsUpdate:  mu: -0.101328904  nElectrons: 9.000000  magneticMoment: [ Abs: 0.10013  Tot: +0.10000 ]
SCF: Cycle:  4   F: -42.549850669454955   dF: -1.309e-08   |Residual|: 1.068e-04   |deigs|: 2.464e-04  t[s]:     50.99
	FillingsUpdate:  mu: -0.101349761  nElectrons: 9.000000  magneticMoment: [ Abs: 0.10017  Tot: +0.10000 ]
SCF: Cycle:  5   F: -42.549850679310289   dF: -9.855e-09   |Residual|: 6.017e-05   |deigs|: 1.581e-04  t[s]:     57.34
	FillingsUpdate:  mu: -0.101383653  nElectrons: 9.000000  magneticMoment: [ Abs: 0.10015  Tot: +0.10000 ]
SCF: Cycle:  6   F: -42.549850691170157   dF: -1.186e-08   |Residual|: 7.917e-05   |deigs|: 2.521e-04  t[s]:     63.81
	FillingsUpdate:  mu: -0.101389321  nElectrons: 9.000000  magneticMoment: [ Abs: 0.10017  Tot: +0.10000 ]
SCF: Cycle:  7   F: -42.549850694546443   dF: -3.376e-09   |Residual|: 2.732e-05   |deigs|: 2.516e-04  t[s]:     70.45
	FillingsUpdate:  mu: -0.101383168  nElectrons: 9.000000  magneticMoment: [ Abs: 0.10015  Tot: +0.10000 ]
SCF: Cycle:  8   F: -42.549850698470919   dF: -3.924e-09   |Residual|: 3.990e-05   |deigs|: 2.542e-04  t[s]:     77.11
SCF: Converged (|Delta E|<1.000000e-08 for 2 iters).


# Ionic positions in lattice coordinates:
ion Na   0.000000000000000   0.000000000000000   0.000000000000000 0

# Forces in Lattice coordinates:
force Na  -0.000000000000000   0.000000000000000   0.000000000000000 0

# Energy components:
   Eewald =       -9.0240130501663280
       EH =       24.7628978287295354
     Eloc =      -60.8062296467490100
      Enl =      -12.9025585892572359
   Epulay =        0.0000012333957556
      Exc =       -6.2093456943143490
       KE =       21.6293983364257798
-------------------------------------
     Etot =      -42.5498495819358453
       TS =        0.0000011165350747
-------------------------------------
        F =      -42.5498506984709195

IonicMinimize: Iter:   0  F: -42.549850698470919  |grad|_K:  0.000e+00  t[s]:     77.36
IonicMinimize: Converged (|grad|_K<1.000000e-04).

#--- Lowdin population analysis ---
# oxidation-state Na +0.000
# magnetic-moments Na +0.100

End date and time: Sat Feb  5 22:32:56 2022  (Duration: 0-0:01:17.44)
Done!
