The alkali metal is Na
scale=2
magnetization=0.48
--------------------------------------------------------------------------
The library attempted to open the following supporting CUDA libraries,
but each of them failed.  CUDA-aware support is disabled.
libcuda.so.1: cannot open shared object file: No such file or directory
libcuda.dylib: cannot open shared object file: No such file or directory
/usr/lib64/libcuda.so.1: cannot open shared object file: No such file or directory
/usr/lib64/libcuda.dylib: cannot open shared object file: No such file or directory
If you are not interested in CUDA-aware support, then run with
--mca opal_warn_on_missing_libcuda 0 to suppress this message.  If you are interested
in CUDA-aware support, then try setting LD_LIBRARY_PATH to the location
of libcuda.so.1 to get passed this issue.
--------------------------------------------------------------------------
--------------------------------------------------------------------------
No OpenFabrics connection schemes reported that they were able to be
used on a specific port.  As such, the openib BTL (OpenFabrics
support) will be disabled for this port.

  Local host:           d-16-12-1
  Local device:         mlx5_1
  Local port:           1
  CPCs attempted:       rdmacm, udcm
--------------------------------------------------------------------------

*************** JDFTx 1.6.0 (git hash 42ebbcc2) ***************

Start date and time: Sat Feb  5 22:32:15 2022
Executable jdftx with command-line: -i Alkali.in
Running on hosts (process indices):  d-16-12-1 (0-18)
Divided in process groups (process indices):  0 (0)  1 (1)  2 (2)  3 (3)  4 (4)  5 (5)  6 (6)  7 (7)  8 (8)  9 (9)  10 (10)  11 (11)  12 (12)  13 (13)  14 (14)  15 (15)  16 (16)  17 (17)  18 (18)
Resource initialization completed at t[s]:      0.00
Run totals: 19 processes, 48 threads, 0 GPUs


Input parsed successfully to the following command list (including defaults):

basis kpoint-dependent
coords-type Lattice
core-overlap-check vector
coulomb-interaction Slab 001
davidson-band-ratio 1.1
dump End None
dump-name $INPUT.$VAR
elec-cutoff 20
elec-eigen-algo Davidson
elec-ex-corr gga-PBE
elec-initial-magnetization 0.480000 yes
elec-smearing Fermi 1e-05
electronic-minimize  \
	dirUpdateScheme      FletcherReeves \
	linminMethod         DirUpdateRecommended \
	nIterations          100 \
	history              15 \
	knormThreshold       0 \
	energyDiffThreshold  1e-08 \
	nEnergyDiff          2 \
	alphaTstart          1 \
	alphaTmin            1e-10 \
	updateTestStepSize   yes \
	alphaTreduceFactor   0.1 \
	alphaTincreaseFactor 3 \
	nAlphaAdjustMax      3 \
	wolfeEnergy          0.0001 \
	wolfeGradient        0.9 \
	fdTest               no
electronic-scf  \
	nIterations	10000 \
	energyDiffThreshold	1e-08 \
	residualThreshold	1e-07 \
	mixFraction	0.5 \
	qMetric	0.8 \
	history	10 \
	nEigSteps	2 \
	eigDiffThreshold	1e-08 \
	mixedVariable	Density \
	qKerker	0.8 \
	qKappa	-1 \
	verbose	no \
	mixFractionMag	1.5
exchange-regularization WignerSeitzTruncated
fluid None
fluid-ex-corr (null) lda-PZ
fluid-gummel-loop 10 1.000000e-05
fluid-minimize  \
	dirUpdateScheme      PolakRibiere \
	linminMethod         DirUpdateRecommended \
	nIterations          100 \
	history              15 \
	knormThreshold       0 \
	energyDiffThreshold  0 \
	nEnergyDiff          2 \
	alphaTstart          1 \
	alphaTmin            1e-10 \
	updateTestStepSize   yes \
	alphaTreduceFactor   0.1 \
	alphaTincreaseFactor 3 \
	nAlphaAdjustMax      3 \
	wolfeEnergy          0.0001 \
	wolfeGradient        0.9 \
	fdTest               no
fluid-solvent H2O 55.338 ScalarEOS \
	epsBulk 78.4 \
	pMol 0.92466 \
	epsInf 1.77 \
	Pvap 1.06736e-10 \
	sigmaBulk 4.62e-05 \
	Rvdw 2.61727 \
	Res 1.42 \
	tauNuc 343133 \
	poleEl 15 7 1
forces-output-coords Positions
ion Na   0.000000000000000   0.000000000000000   0.000000000000000 0
ion-species SG15/$ID_ONCV_PBE.upf
ion-width 0
ionic-minimize  \
	dirUpdateScheme      L-BFGS \
	linminMethod         DirUpdateRecommended \
	nIterations          0 \
	history              15 \
	knormThreshold       0.0001 \
	energyDiffThreshold  1e-06 \
	nEnergyDiff          2 \
	alphaTstart          1 \
	alphaTmin            1e-10 \
	updateTestStepSize   yes \
	alphaTreduceFactor   0.1 \
	alphaTincreaseFactor 3 \
	nAlphaAdjustMax      3 \
	wolfeEnergy          0.0001 \
	wolfeGradient        0.9 \
	fdTest               no
kpoint   0.000000000000   0.000000000000   0.000000000000  1.00000000000000
kpoint-folding 12 12 1 
latt-move-scale 1 1 1
latt-scale 2 2 1 
lattice  \
	   4.727486978767153   -2.363743489383575    0.000000000000000  \
	  -0.000000000000000    4.094123819672498    0.000000000000000  \
	   0.000000000000000    0.000000000000000   40.000000000000000 
lattice-minimize  \
	dirUpdateScheme      L-BFGS \
	linminMethod         DirUpdateRecommended \
	nIterations          0 \
	history              15 \
	knormThreshold       0 \
	energyDiffThreshold  1e-06 \
	nEnergyDiff          2 \
	alphaTstart          1 \
	alphaTmin            1e-10 \
	updateTestStepSize   yes \
	alphaTreduceFactor   0.1 \
	alphaTincreaseFactor 3 \
	nAlphaAdjustMax      3 \
	wolfeEnergy          0.0001 \
	wolfeGradient        0.9 \
	fdTest               no
lcao-params -1 1e-06 1e-05
pcm-variant GLSSA13
spintype z-spin
subspace-rotation-factor 1 yes
symmetries automatic
symmetry-threshold 0.0001



---------- Setting up symmetries ----------

Found 24 point-group symmetries of the bravais lattice
Found 24 space-group symmetries with basis
Applied RMS atom displacement 0 bohrs to make symmetries exact.

---------- Initializing the Grid ----------
R = 
[      9.45497     -4.72749            0  ]
[            0      8.18825            0  ]
[            0            0           40  ]
unit cell volume = 3096.79
G =
[   0.664538   0.383671         -0  ]
[          0   0.767342         -0  ]
[         -0         -0    0.15708  ]
Minimum fftbox size, Smin = [  40  40  164  ]
Chosen fftbox size, S = [  40  40  168  ]

---------- Exchange Correlation functional ----------
Initalized PBE GGA exchange.
Initalized PBE GGA correlation.

---------- Setting up pseudopotentials ----------
Width of ionic core gaussian charges (only for fluid interactions / plotting) set to 0

Reading pseudopotential file '/home/gridsan/aligho/DFT/build-Nov24/pseudopotentials/SG15/Na_ONCV_PBE.upf':
  'Na' pseudopotential, 'PBE' functional
  Generated using ONCVPSP code by D. R. Hamann
  Author: Martin Schlipf and Francois Gygi  Date: 150915.
  9 valence electrons, 3 orbitals, 4 projectors, 1992 radial grid points, with lMax = 1
  Transforming local potential to a uniform radial grid of dG=0.02 with 1489 points.
  Transforming nonlocal projectors to a uniform radial grid of dG=0.02 with 432 points.
    2S    l: 0   occupation:  2.0   eigenvalue: -2.085640
    2P    l: 1   occupation:  6.0   eigenvalue: -1.053708
    3S    l: 0   occupation:  1.0   eigenvalue: -0.100838
  Transforming atomic orbitals to a uniform radial grid of dG=0.02 with 432 points.
  Core radius for overlap checks: 2.01 bohrs.
  Reading pulay file /home/gridsan/aligho/DFT/build-Nov24/pseudopotentials/SG15/Na_ONCV_PBE.pulay ... using dE_dnG = -2.946487e-03 computed for Ecut = 20.

Initialized 1 species with 1 total atoms.

Folded 1 k-points by 12x12x1 to 144 k-points.

---------- Setting up k-points, bands, fillings ----------
Reduced to 19 k-points under symmetry. 
Computing the number of bands and number of electrons
Calculating initial fillings.
nElectrons:   9.000000   nBands: 6   nStates: 38

----- Setting up reduced wavefunction bases (one per k-point) -----
average nbasis = 13230.521 , ideal nbasis = 13229.709

---------- Setting up coulomb interaction ----------
Initialized slab truncation along lattice direction 001

---------- Setting up 2D ewald sum ----------
Optimum gaussian width for ewald sums = 5.249020 bohr.
Real space sums over 289 unit cells with max indices [  8  8  0  ]
Reciprocal space sums over 81 terms with max indices [  4  4  0  ]

---------- Allocating electronic variables ----------
Initializing wave functions:  linear combination of atomic orbitals
Note: number of bands (6) exceeds available atomic orbitals (5)
Na pseudo-atom occupations:   s ( 2 1 )  p ( 6 )
	FillingsUpdate:  mu: -0.104697197  nElectrons: 9.000000  magneticMoment: [ Abs: 0.48000  Tot: +0.48000 ]
LCAOMinimize: Iter:   0  F: -42.5652894381282536  |grad|_K:  2.815e-05  alpha:  1.000e+00
	FillingsUpdate:  mu: -0.104694796  nElectrons: 9.000000  magneticMoment: [ Abs: 0.48000  Tot: +0.48000 ]
LCAOMinimize: Iter:   1  F: -42.5652899755081009  |grad|_K:  2.468e-07  alpha:  9.912e-01  linmin: -2.031e-02  cgtest:  6.549e-01  t[s]:      4.55
LCAOMinimize: Encountered beta<0, resetting CG.
[d-16-12-1:24804] 18 more processes have sent help message help-mpi-common-cuda.txt / dlopen failed
[d-16-12-1:24804] Set MCA parameter "orte_base_help_aggregate" to 0 to see all help / error messages
[d-16-12-1:24804] 18 more processes have sent help message help-mpi-btl-openib-cpc-base.txt / no cpcs for port
	FillingsUpdate:  mu: -0.104694822  nElectrons: 9.000000  magneticMoment: [ Abs: 0.48000  Tot: +0.48000 ]
LCAOMinimize: Iter:   2  F: -42.5652899755501224  |grad|_K:  1.775e-09  alpha:  9.949e-01  linmin: -6.651e-02  cgtest:  9.029e-01  t[s]:      5.76
LCAOMinimize: Encountered beta<0, resetting CG.
LCAOMinimize: Converged (|Delta F|<1.000000e-06 for 2 iters).


---- Citations for features of the code used in this run ----

   Software package:
      R. Sundararaman, K. Letchworth-Weaver, K.A. Schwarz, D. Gunceler, Y. Ozhabes and T.A. Arias, 'JDFTx: software for joint density-functional theory', SoftwareX 6, 278 (2017)

   gga-PBE exchange-correlation functional:
      J.P. Perdew, K. Burke and M. Ernzerhof, Phys. Rev. Lett. 77, 3865 (1996)

   Pseudopotentials:
      M Schlipf and F Gygi, Comput. Phys. Commun. 196, 36 (2015)

   Truncated Coulomb potentials:
      R. Sundararaman and T.A. Arias, Phys. Rev. B 87, 165122 (2013)

This list may not be complete. Please suggest additional citations or
report any other bugs at https://github.com/shankar1729/jdftx/issues

Initialization completed successfully at t[s]:      5.83


-------- Electronic minimization -----------
Will mix electronic density at each iteration.
	FillingsUpdate:  mu: -0.104694822  nElectrons: 9.000000  magneticMoment: [ Abs: 0.48000  Tot: +0.48000 ]
	FillingsUpdate:  mu: -0.111553737  nElectrons: 9.000000  magneticMoment: [ Abs: 0.48000  Tot: +0.48000 ]
SCF: Cycle:  0   F: -42.570208979143615   dF: -4.919e-03   |Residual|: 9.628e-03   |deigs|: 1.704e-01  t[s]:      8.13
	FillingsUpdate:  mu: -0.111507907  nElectrons: 9.000000  magneticMoment: [ Abs: 0.48000  Tot: +0.48000 ]
SCF: Cycle:  1   F: -42.570337061298595   dF: -1.281e-04   |Residual|: 6.455e-03   |deigs|: 8.822e-03  t[s]:      9.88
	FillingsUpdate:  mu: -0.111292379  nElectrons: 9.000000  magneticMoment: [ Abs: 0.48134  Tot: +0.48000 ]
SCF: Cycle:  2   F: -42.570353520240666   dF: -1.646e-05   |Residual|: 3.756e-03   |deigs|: 5.865e-03  t[s]:     11.67
	FillingsUpdate:  mu: -0.111202455  nElectrons: 9.000000  magneticMoment: [ Abs: 0.48005  Tot: +0.48000 ]
SCF: Cycle:  3   F: -42.570358054100886   dF: -4.534e-06   |Residual|: 2.197e-03   |deigs|: 6.191e-03  t[s]:     13.42
	FillingsUpdate:  mu: -0.110919056  nElectrons: 9.000000  magneticMoment: [ Abs: 0.48008  Tot: +0.48000 ]
SCF: Cycle:  4   F: -42.570375440323950   dF: -1.739e-05   |Residual|: 9.676e-04   |deigs|: 3.032e-03  t[s]:     15.22
	FillingsUpdate:  mu: -0.110627441  nElectrons: 9.000000  magneticMoment: [ Abs: 0.48019  Tot: +0.48000 ]
SCF: Cycle:  5   F: -42.570377851185903   dF: -2.411e-06   |Residual|: 7.748e-04   |deigs|: 1.894e-03  t[s]:     17.10
	FillingsUpdate:  mu: -0.109971735  nElectrons: 9.000000  magneticMoment: [ Abs: 0.48079  Tot: +0.48000 ]
SCF: Cycle:  6   F: -42.570378499784795   dF: -6.486e-07   |Residual|: 5.826e-04   |deigs|: 1.125e-03  t[s]:     18.94
	FillingsUpdate:  mu: -0.109157811  nElectrons: 9.000000  magneticMoment: [ Abs: 0.48226  Tot: +0.48000 ]
SCF: Cycle:  7   F: -42.570377860663655   dF: +6.391e-07   |Residual|: 4.253e-04   |deigs|: 1.102e-03  t[s]:     20.76
	FillingsUpdate:  mu: -0.108428403  nElectrons: 9.000000  magneticMoment: [ Abs: 0.48182  Tot: +0.48000 ]
SCF: Cycle:  8   F: -42.570377135394693   dF: +7.253e-07   |Residual|: 3.565e-04   |deigs|: 9.697e-04  t[s]:     22.74
	FillingsUpdate:  mu: -0.108077123  nElectrons: 9.000000  magneticMoment: [ Abs: 0.48085  Tot: +0.48000 ]
SCF: Cycle:  9   F: -42.570378786377724   dF: -1.651e-06   |Residual|: 3.098e-04   |deigs|: 5.950e-04  t[s]:     24.68
	FillingsUpdate:  mu: -0.108044619  nElectrons: 9.000000  magneticMoment: [ Abs: 0.48111  Tot: +0.48000 ]
SCF: Cycle: 10   F: -42.570380270351407   dF: -1.484e-06   |Residual|: 2.316e-04   |deigs|: 3.861e-04  t[s]:     26.67
	FillingsUpdate:  mu: -0.107486243  nElectrons: 9.000000  magneticMoment: [ Abs: 0.48144  Tot: +0.48000 ]
SCF: Cycle: 11   F: -42.570379570021160   dF: +7.003e-07   |Residual|: 2.147e-04   |deigs|: 6.156e-04  t[s]:     28.60
	FillingsUpdate:  mu: -0.106865947  nElectrons: 9.000000  magneticMoment: [ Abs: 0.48087  Tot: +0.48000 ]
SCF: Cycle: 12   F: -42.570378740881289   dF: +8.291e-07   |Residual|: 1.955e-04   |deigs|: 6.605e-04  t[s]:     30.58
	FillingsUpdate:  mu: -0.106486833  nElectrons: 9.000000  magneticMoment: [ Abs: 0.48133  Tot: +0.48000 ]
SCF: Cycle: 13   F: -42.570379836611195   dF: -1.096e-06   |Residual|: 1.737e-04   |deigs|: 3.584e-04  t[s]:     32.51
	FillingsUpdate:  mu: -0.106173955  nElectrons: 9.000000  magneticMoment: [ Abs: 0.48117  Tot: +0.48000 ]
SCF: Cycle: 14   F: -42.570380756562152   dF: -9.200e-07   |Residual|: 1.608e-04   |deigs|: 3.273e-04  t[s]:     34.47
	FillingsUpdate:  mu: -0.105540897  nElectrons: 9.000000  magneticMoment: [ Abs: 0.48074  Tot: +0.48000 ]
SCF: Cycle: 15   F: -42.570381231326714   dF: -4.748e-07   |Residual|: 1.493e-04   |deigs|: 6.872e-04  t[s]:     36.38
	FillingsUpdate:  mu: -0.105102951  nElectrons: 9.000000  magneticMoment: [ Abs: 0.48038  Tot: +0.48000 ]
SCF: Cycle: 16   F: -42.570381628625093   dF: -3.973e-07   |Residual|: 1.160e-04   |deigs|: 4.201e-04  t[s]:     38.30
	FillingsUpdate:  mu: -0.104849449  nElectrons: 9.000000  magneticMoment: [ Abs: 0.48041  Tot: +0.48000 ]
SCF: Cycle: 17   F: -42.570381815138802   dF: -1.865e-07   |Residual|: 7.778e-05   |deigs|: 2.207e-04  t[s]:     40.19
	FillingsUpdate:  mu: -0.104757925  nElectrons: 9.000000  magneticMoment: [ Abs: 0.48023  Tot: +0.48000 ]
SCF: Cycle: 18   F: -42.570381871240464   dF: -5.610e-08   |Residual|: 6.171e-05   |deigs|: 4.870e-04  t[s]:     42.11
	FillingsUpdate:  mu: -0.104669300  nElectrons: 9.000000  magneticMoment: [ Abs: 0.48034  Tot: +0.48000 ]
SCF: Cycle: 19   F: -42.570381914247157   dF: -4.301e-08   |Residual|: 2.922e-05   |deigs|: 3.252e-04  t[s]:     44.02
	FillingsUpdate:  mu: -0.104633257  nElectrons: 9.000000  magneticMoment: [ Abs: 0.48032  Tot: +0.48000 ]
SCF: Cycle: 20   F: -42.570381924254093   dF: -1.001e-08   |Residual|: 1.551e-05   |deigs|: 8.794e-05  t[s]:     45.90
	FillingsUpdate:  mu: -0.104631738  nElectrons: 9.000000  magneticMoment: [ Abs: 0.48023  Tot: +0.48000 ]
SCF: Cycle: 21   F: -42.570381925291073   dF: -1.037e-09   |Residual|: 1.025e-05   |deigs|: 8.675e-04  t[s]:     47.82
	FillingsUpdate:  mu: -0.104635610  nElectrons: 9.000000  magneticMoment: [ Abs: 0.48017  Tot: +0.48000 ]
SCF: Cycle: 22   F: -42.570381927019959   dF: -1.729e-09   |Residual|: 6.498e-06   |deigs|: 1.406e-04  t[s]:     49.77
SCF: Converged (|Delta E|<1.000000e-08 for 2 iters).


# Ionic positions in lattice coordinates:
ion Na   0.000000000000000   0.000000000000000   0.000000000000000 0

# Forces in Lattice coordinates:
force Na   0.000000000000000   0.000000000000000   0.000000000000000 0

# Energy components:
   Eewald =      -18.0480261003326561
       EH =       15.7318579385036017
     Eloc =      -42.7437894050356206
      Enl =      -12.9138157921403618
   Epulay =        0.0000007725295140
      Exc =       -6.2181341591515178
       KE =       21.6215253486715788
-------------------------------------
     Etot =      -42.5703813969554687
       TS =        0.0000005300644922
-------------------------------------
        F =      -42.5703819270199588

IonicMinimize: Iter:   0  F: -42.570381927019959  |grad|_K:  0.000e+00  t[s]:     49.85
IonicMinimize: Converged (|grad|_K<1.000000e-04).

#--- Lowdin population analysis ---
# oxidation-state Na +0.058
# magnetic-moments Na +0.428

End date and time: Sat Feb  5 22:33:05 2022  (Duration: 0-0:00:49.87)
Done!
scale=3
magnetization=0.48
--------------------------------------------------------------------------
The library attempted to open the following supporting CUDA libraries,
but each of them failed.  CUDA-aware support is disabled.
libcuda.so.1: cannot open shared object file: No such file or directory
libcuda.dylib: cannot open shared object file: No such file or directory
/usr/lib64/libcuda.so.1: cannot open shared object file: No such file or directory
/usr/lib64/libcuda.dylib: cannot open shared object file: No such file or directory
If you are not interested in CUDA-aware support, then run with
--mca opal_warn_on_missing_libcuda 0 to suppress this message.  If you are interested
in CUDA-aware support, then try setting LD_LIBRARY_PATH to the location
of libcuda.so.1 to get passed this issue.
--------------------------------------------------------------------------
--------------------------------------------------------------------------
No OpenFabrics connection schemes reported that they were able to be
used on a specific port.  As such, the openib BTL (OpenFabrics
support) will be disabled for this port.

  Local host:           d-16-12-1
  Local device:         mlx5_1
  Local port:           1
  CPCs attempted:       rdmacm, udcm
--------------------------------------------------------------------------

*************** JDFTx 1.6.0 (git hash 42ebbcc2) ***************

Start date and time: Sat Feb  5 22:33:06 2022
Executable jdftx with command-line: -i Alkali.in
Running on hosts (process indices):  d-16-12-1 (0-18)
Divided in process groups (process indices):  0 (0)  1 (1)  2 (2)  3 (3)  4 (4)  5 (5)  6 (6)  7 (7)  8 (8)  9 (9)  10 (10)  11 (11)  12 (12)  13 (13)  14 (14)  15 (15)  16 (16)  17 (17)  18 (18)
Resource initialization completed at t[s]:      0.00
Run totals: 19 processes, 48 threads, 0 GPUs


Input parsed successfully to the following command list (including defaults):

basis kpoint-dependent
coords-type Lattice
core-overlap-check vector
coulomb-interaction Slab 001
davidson-band-ratio 1.1
dump End None
dump-name $INPUT.$VAR
elec-cutoff 20
elec-eigen-algo Davidson
elec-ex-corr gga-PBE
elec-initial-magnetization 0.480000 yes
elec-smearing Fermi 1e-05
electronic-minimize  \
	dirUpdateScheme      FletcherReeves \
	linminMethod         DirUpdateRecommended \
	nIterations          100 \
	history              15 \
	knormThreshold       0 \
	energyDiffThreshold  1e-08 \
	nEnergyDiff          2 \
	alphaTstart          1 \
	alphaTmin            1e-10 \
	updateTestStepSize   yes \
	alphaTreduceFactor   0.1 \
	alphaTincreaseFactor 3 \
	nAlphaAdjustMax      3 \
	wolfeEnergy          0.0001 \
	wolfeGradient        0.9 \
	fdTest               no
electronic-scf  \
	nIterations	10000 \
	energyDiffThreshold	1e-08 \
	residualThreshold	1e-07 \
	mixFraction	0.5 \
	qMetric	0.8 \
	history	10 \
	nEigSteps	2 \
	eigDiffThreshold	1e-08 \
	mixedVariable	Density \
	qKerker	0.8 \
	qKappa	-1 \
	verbose	no \
	mixFractionMag	1.5
exchange-regularization WignerSeitzTruncated
fluid None
fluid-ex-corr (null) lda-PZ
fluid-gummel-loop 10 1.000000e-05
fluid-minimize  \
	dirUpdateScheme      PolakRibiere \
	linminMethod         DirUpdateRecommended \
	nIterations          100 \
	history              15 \
	knormThreshold       0 \
	energyDiffThreshold  0 \
	nEnergyDiff          2 \
	alphaTstart          1 \
	alphaTmin            1e-10 \
	updateTestStepSize   yes \
	alphaTreduceFactor   0.1 \
	alphaTincreaseFactor 3 \
	nAlphaAdjustMax      3 \
	wolfeEnergy          0.0001 \
	wolfeGradient        0.9 \
	fdTest               no
fluid-solvent H2O 55.338 ScalarEOS \
	epsBulk 78.4 \
	pMol 0.92466 \
	epsInf 1.77 \
	Pvap 1.06736e-10 \
	sigmaBulk 4.62e-05 \
	Rvdw 2.61727 \
	Res 1.42 \
	tauNuc 343133 \
	poleEl 15 7 1
forces-output-coords Positions
ion Na   0.000000000000000   0.000000000000000   0.000000000000000 0
ion-species SG15/$ID_ONCV_PBE.upf
ion-width 0
ionic-minimize  \
	dirUpdateScheme      L-BFGS \
	linminMethod         DirUpdateRecommended \
	nIterations          0 \
	history              15 \
	knormThreshold       0.0001 \
	energyDiffThreshold  1e-06 \
	nEnergyDiff          2 \
	alphaTstart          1 \
	alphaTmin            1e-10 \
	updateTestStepSize   yes \
	alphaTreduceFactor   0.1 \
	alphaTincreaseFactor 3 \
	nAlphaAdjustMax      3 \
	wolfeEnergy          0.0001 \
	wolfeGradient        0.9 \
	fdTest               no
kpoint   0.000000000000   0.000000000000   0.000000000000  1.00000000000000
kpoint-folding 12 12 1 
latt-move-scale 1 1 1
latt-scale 3 3 1 
lattice  \
	   4.727486978767153   -2.363743489383575    0.000000000000000  \
	  -0.000000000000000    4.094123819672498    0.000000000000000  \
	   0.000000000000000    0.000000000000000   40.000000000000000 
lattice-minimize  \
	dirUpdateScheme      L-BFGS \
	linminMethod         DirUpdateRecommended \
	nIterations          0 \
	history              15 \
	knormThreshold       0 \
	energyDiffThreshold  1e-06 \
	nEnergyDiff          2 \
	alphaTstart          1 \
	alphaTmin            1e-10 \
	updateTestStepSize   yes \
	alphaTreduceFactor   0.1 \
	alphaTincreaseFactor 3 \
	nAlphaAdjustMax      3 \
	wolfeEnergy          0.0001 \
	wolfeGradient        0.9 \
	fdTest               no
lcao-params -1 1e-06 1e-05
pcm-variant GLSSA13
spintype z-spin
subspace-rotation-factor 1 yes
symmetries automatic
symmetry-threshold 0.0001



---------- Setting up symmetries ----------

Found 24 point-group symmetries of the bravais lattice
Found 24 space-group symmetries with basis
Applied RMS atom displacement 0 bohrs to make symmetries exact.

---------- Initializing the Grid ----------
R = 
[      14.1825     -7.09123            0  ]
[            0      12.2824            0  ]
[            0            0           40  ]
unit cell volume = 6967.77
G =
[   0.443025   0.255781         -0  ]
[          0   0.511561         -0  ]
[         -0         -0    0.15708  ]
Minimum fftbox size, Smin = [  60  60  164  ]
Chosen fftbox size, S = [  60  60  168  ]

---------- Exchange Correlation functional ----------
Initalized PBE GGA exchange.
Initalized PBE GGA correlation.

---------- Setting up pseudopotentials ----------
Width of ionic core gaussian charges (only for fluid interactions / plotting) set to 0

Reading pseudopotential file '/home/gridsan/aligho/DFT/build-Nov24/pseudopotentials/SG15/Na_ONCV_PBE.upf':
  'Na' pseudopotential, 'PBE' functional
  Generated using ONCVPSP code by D. R. Hamann
  Author: Martin Schlipf and Francois Gygi  Date: 150915.
  9 valence electrons, 3 orbitals, 4 projectors, 1992 radial grid points, with lMax = 1
  Transforming local potential to a uniform radial grid of dG=0.02 with 1489 points.
  Transforming nonlocal projectors to a uniform radial grid of dG=0.02 with 432 points.
    2S    l: 0   occupation:  2.0   eigenvalue: -2.085640
    2P    l: 1   occupation:  6.0   eigenvalue: -1.053708
    3S    l: 0   occupation:  1.0   eigenvalue: -0.100838
  Transforming atomic orbitals to a uniform radial grid of dG=0.02 with 432 points.
  Core radius for overlap checks: 2.01 bohrs.
  Reading pulay file /home/gridsan/aligho/DFT/build-Nov24/pseudopotentials/SG15/Na_ONCV_PBE.pulay ... using dE_dnG = -2.946487e-03 computed for Ecut = 20.

Initialized 1 species with 1 total atoms.

Folded 1 k-points by 12x12x1 to 144 k-points.

---------- Setting up k-points, bands, fillings ----------
Reduced to 19 k-points under symmetry. 
Computing the number of bands and number of electrons
Calculating initial fillings.
nElectrons:   9.000000   nBands: 6   nStates: 38

----- Setting up reduced wavefunction bases (one per k-point) -----
average nbasis = 29766.104 , ideal nbasis = 29766.845

---------- Setting up coulomb interaction ----------
Initialized slab truncation along lattice direction 001

---------- Setting up 2D ewald sum ----------
Optimum gaussian width for ewald sums = 7.873530 bohr.
Real space sums over 289 unit cells with max indices [  8  8  0  ]
Reciprocal space sums over 81 terms with max indices [  4  4  0  ]

---------- Allocating electronic variables ----------
Initializing wave functions:  linear combination of atomic orbitals
Note: number of bands (6) exceeds available atomic orbitals (5)
Na pseudo-atom occupations:   s ( 2 1 )  p ( 6 )
[d-16-12-1:65783] 18 more processes have sent help message help-mpi-common-cuda.txt / dlopen failed
[d-16-12-1:65783] Set MCA parameter "orte_base_help_aggregate" to 0 to see all help / error messages
[d-16-12-1:65783] 18 more processes have sent help message help-mpi-btl-openib-cpc-base.txt / no cpcs for port
	FillingsUpdate:  mu: -0.101628647  nElectrons: 9.000000  magneticMoment: [ Abs: 0.48000  Tot: +0.48000 ]
LCAOMinimize: Iter:   0  F: -42.5537089882787569  |grad|_K:  7.490e-06  alpha:  1.000e+00
	FillingsUpdate:  mu: -0.101627033  nElectrons: 9.000000  magneticMoment: [ Abs: 0.48000  Tot: +0.48000 ]
LCAOMinimize: Iter:   1  F: -42.5537090264331184  |grad|_K:  3.970e-08  alpha:  9.944e-01  linmin: -1.434e-03  cgtest:  3.728e-01  t[s]:      8.87
LCAOMinimize: Encountered beta<0, resetting CG.
	FillingsUpdate:  mu: -0.101627032  nElectrons: 9.000000  magneticMoment: [ Abs: 0.48000  Tot: +0.48000 ]
LCAOMinimize: Iter:   2  F: -42.5537090264339497  |grad|_K:  1.234e-08  alpha:  6.884e-01  linmin: -1.012e-02  cgtest:  1.000e+00  t[s]:     11.29
LCAOMinimize: Encountered beta<0, resetting CG.
LCAOMinimize: Converged (|Delta F|<1.000000e-06 for 2 iters).


---- Citations for features of the code used in this run ----

   Software package:
      R. Sundararaman, K. Letchworth-Weaver, K.A. Schwarz, D. Gunceler, Y. Ozhabes and T.A. Arias, 'JDFTx: software for joint density-functional theory', SoftwareX 6, 278 (2017)

   gga-PBE exchange-correlation functional:
      J.P. Perdew, K. Burke and M. Ernzerhof, Phys. Rev. Lett. 77, 3865 (1996)

   Pseudopotentials:
      M Schlipf and F Gygi, Comput. Phys. Commun. 196, 36 (2015)

   Truncated Coulomb potentials:
      R. Sundararaman and T.A. Arias, Phys. Rev. B 87, 165122 (2013)

This list may not be complete. Please suggest additional citations or
report any other bugs at https://github.com/shankar1729/jdftx/issues

Initialization completed successfully at t[s]:     11.40


-------- Electronic minimization -----------
Will mix electronic density at each iteration.
	FillingsUpdate:  mu: -0.101627032  nElectrons: 9.000000  magneticMoment: [ Abs: 0.48000  Tot: +0.48000 ]
	FillingsUpdate:  mu: -0.101954301  nElectrons: 9.000000  magneticMoment: [ Abs: 0.48000  Tot: +0.48000 ]
SCF: Cycle:  0   F: -42.554000664731944   dF: -2.916e-04   |Residual|: 2.071e-03   |deigs|: 1.728e-01  t[s]:     15.89
	FillingsUpdate:  mu: -0.102031298  nElectrons: 9.000000  magneticMoment: [ Abs: 0.48088  Tot: +0.48000 ]
SCF: Cycle:  1   F: -42.554005150405594   dF: -4.486e-06   |Residual|: 1.035e-03   |deigs|: 5.762e-03  t[s]:     19.37
	FillingsUpdate:  mu: -0.102093907  nElectrons: 9.000000  magneticMoment: [ Abs: 0.48072  Tot: +0.48000 ]
SCF: Cycle:  2   F: -42.554006294337462   dF: -1.144e-06   |Residual|: 5.692e-04   |deigs|: 2.988e-03  t[s]:     22.93
	FillingsUpdate:  mu: -0.102169011  nElectrons: 9.000000  magneticMoment: [ Abs: 0.48093  Tot: +0.48000 ]
SCF: Cycle:  3   F: -42.554007191334094   dF: -8.970e-07   |Residual|: 4.078e-04   |deigs|: 1.455e-03  t[s]:     26.54
	FillingsUpdate:  mu: -0.102235947  nElectrons: 9.000000  magneticMoment: [ Abs: 0.48075  Tot: +0.48000 ]
SCF: Cycle:  4   F: -42.554008281352125   dF: -1.090e-06   |Residual|: 2.627e-04   |deigs|: 7.160e-04  t[s]:     30.29
	FillingsUpdate:  mu: -0.102313341  nElectrons: 9.000000  magneticMoment: [ Abs: 0.48090  Tot: +0.48000 ]
SCF: Cycle:  5   F: -42.554009149627930   dF: -8.683e-07   |Residual|: 1.418e-04   |deigs|: 3.608e-04  t[s]:     34.03
	FillingsUpdate:  mu: -0.102299275  nElectrons: 9.000000  magneticMoment: [ Abs: 0.48083  Tot: +0.48000 ]
SCF: Cycle:  6   F: -42.554009395226707   dF: -2.456e-07   |Residual|: 9.215e-05   |deigs|: 1.606e-03  t[s]:     37.85
	FillingsUpdate:  mu: -0.102278315  nElectrons: 9.000000  magneticMoment: [ Abs: 0.48089  Tot: +0.48000 ]
SCF: Cycle:  7   F: -42.554009513233197   dF: -1.180e-07   |Residual|: 6.773e-05   |deigs|: 9.527e-04  t[s]:     41.68
	FillingsUpdate:  mu: -0.102229882  nElectrons: 9.000000  magneticMoment: [ Abs: 0.48083  Tot: +0.48000 ]
SCF: Cycle:  8   F: -42.554009572191390   dF: -5.896e-08   |Residual|: 5.277e-05   |deigs|: 5.055e-04  t[s]:     45.65
	FillingsUpdate:  mu: -0.102175531  nElectrons: 9.000000  magneticMoment: [ Abs: 0.48090  Tot: +0.48000 ]
SCF: Cycle:  9   F: -42.554009581515871   dF: -9.324e-09   |Residual|: 4.639e-05   |deigs|: 2.809e-04  t[s]:     49.67
	FillingsUpdate:  mu: -0.102138998  nElectrons: 9.000000  magneticMoment: [ Abs: 0.48088  Tot: +0.48000 ]
SCF: Cycle: 10   F: -42.554009579030037   dF: +2.486e-09   |Residual|: 4.057e-05   |deigs|: 1.442e-04  t[s]:     53.74
	FillingsUpdate:  mu: -0.102076332  nElectrons: 9.000000  magneticMoment: [ Abs: 0.48099  Tot: +0.48000 ]
SCF: Cycle: 11   F: -42.554009473962154   dF: +1.051e-07   |Residual|: 3.110e-05   |deigs|: 8.416e-05  t[s]:     57.81
	FillingsUpdate:  mu: -0.102048071  nElectrons: 9.000000  magneticMoment: [ Abs: 0.48100  Tot: +0.48000 ]
SCF: Cycle: 12   F: -42.554009564292123   dF: -9.033e-08   |Residual|: 2.785e-05   |deigs|: 3.539e-05  t[s]:     61.78
	FillingsUpdate:  mu: -0.102009840  nElectrons: 9.000000  magneticMoment: [ Abs: 0.48098  Tot: +0.48000 ]
SCF: Cycle: 13   F: -42.554009586040969   dF: -2.175e-08   |Residual|: 2.571e-05   |deigs|: 4.351e-05  t[s]:     65.71
	FillingsUpdate:  mu: -0.101948447  nElectrons: 9.000000  magneticMoment: [ Abs: 0.48095  Tot: +0.48000 ]
SCF: Cycle: 14   F: -42.554009573754996   dF: +1.229e-08   |Residual|: 2.453e-05   |deigs|: 6.698e-05  t[s]:     69.84
	FillingsUpdate:  mu: -0.101897548  nElectrons: 9.000000  magneticMoment: [ Abs: 0.48090  Tot: +0.48000 ]
SCF: Cycle: 15   F: -42.554009574872005   dF: -1.117e-09   |Residual|: 2.261e-05   |deigs|: 5.752e-05  t[s]:     73.94
	FillingsUpdate:  mu: -0.101859554  nElectrons: 9.000000  magneticMoment: [ Abs: 0.48091  Tot: +0.48000 ]
SCF: Cycle: 16   F: -42.554009589431949   dF: -1.456e-08   |Residual|: 1.974e-05   |deigs|: 4.616e-05  t[s]:     78.05
	FillingsUpdate:  mu: -0.101827696  nElectrons: 9.000000  magneticMoment: [ Abs: 0.48088  Tot: +0.48000 ]
SCF: Cycle: 17   F: -42.554009611910345   dF: -2.248e-08   |Residual|: 1.567e-05   |deigs|: 4.386e-05  t[s]:     82.15
	FillingsUpdate:  mu: -0.101816097  nElectrons: 9.000000  magneticMoment: [ Abs: 0.48087  Tot: +0.48000 ]
SCF: Cycle: 18   F: -42.554009629541980   dF: -1.763e-08   |Residual|: 8.913e-06   |deigs|: 3.168e-05  t[s]:     86.13
	FillingsUpdate:  mu: -0.101808176  nElectrons: 9.000000  magneticMoment: [ Abs: 0.48087  Tot: +0.48000 ]
SCF: Cycle: 19   F: -42.554009636638867   dF: -7.097e-09   |Residual|: 5.216e-06   |deigs|: 2.820e-05  t[s]:     90.18
	FillingsUpdate:  mu: -0.101806250  nElectrons: 9.000000  magneticMoment: [ Abs: 0.48087  Tot: +0.48000 ]
SCF: Cycle: 20   F: -42.554009638726825   dF: -2.088e-09   |Residual|: 3.050e-06   |deigs|: 2.444e-05  t[s]:     94.12
SCF: Converged (|Delta E|<1.000000e-08 for 2 iters).


# Ionic positions in lattice coordinates:
ion Na   0.000000000000000   0.000000000000000   0.000000000000000 0

# Forces in Lattice coordinates:
force Na   0.000000000000000  -0.000000000000000   0.000000000000000 0

# Energy components:
   Eewald =      -12.0320174002217755
       EH =       21.7291083897662283
     Eloc =      -54.7618431458915964
      Enl =      -12.9044553257821413
   Epulay =       -0.0000003132867683
      Exc =       -6.2092514911408152
       KE =       21.6244501808634126
-------------------------------------
     Etot =      -42.5540091056934457
       TS =        0.0000005330333827
-------------------------------------
        F =      -42.5540096387268250

IonicMinimize: Iter:   0  F: -42.554009638726825  |grad|_K:  0.000e+00  t[s]:     94.27
IonicMinimize: Converged (|grad|_K<1.000000e-04).

#--- Lowdin population analysis ---
# oxidation-state Na +0.003
# magnetic-moments Na +0.479

End date and time: Sat Feb  5 22:34:41 2022  (Duration: 0-0:01:34.32)
Done!
scale=4
magnetization=0.48
--------------------------------------------------------------------------
The library attempted to open the following supporting CUDA libraries,
but each of them failed.  CUDA-aware support is disabled.
libcuda.so.1: cannot open shared object file: No such file or directory
libcuda.dylib: cannot open shared object file: No such file or directory
/usr/lib64/libcuda.so.1: cannot open shared object file: No such file or directory
/usr/lib64/libcuda.dylib: cannot open shared object file: No such file or directory
If you are not interested in CUDA-aware support, then run with
--mca opal_warn_on_missing_libcuda 0 to suppress this message.  If you are interested
in CUDA-aware support, then try setting LD_LIBRARY_PATH to the location
of libcuda.so.1 to get passed this issue.
--------------------------------------------------------------------------
--------------------------------------------------------------------------
No OpenFabrics connection schemes reported that they were able to be
used on a specific port.  As such, the openib BTL (OpenFabrics
support) will be disabled for this port.

  Local host:           d-16-12-1
  Local device:         mlx5_1
  Local port:           1
  CPCs attempted:       rdmacm, udcm
--------------------------------------------------------------------------

*************** JDFTx 1.6.0 (git hash 42ebbcc2) ***************

Start date and time: Sat Feb  5 22:34:42 2022
Executable jdftx with command-line: -i Alkali.in
Running on hosts (process indices):  d-16-12-1 (0-18)
Divided in process groups (process indices):  0 (0)  1 (1)  2 (2)  3 (3)  4 (4)  5 (5)  6 (6)  7 (7)  8 (8)  9 (9)  10 (10)  11 (11)  12 (12)  13 (13)  14 (14)  15 (15)  16 (16)  17 (17)  18 (18)
Resource initialization completed at t[s]:      0.00
Run totals: 19 processes, 48 threads, 0 GPUs


Input parsed successfully to the following command list (including defaults):

basis kpoint-dependent
coords-type Lattice
core-overlap-check vector
coulomb-interaction Slab 001
davidson-band-ratio 1.1
dump End None
dump-name $INPUT.$VAR
elec-cutoff 20
elec-eigen-algo Davidson
elec-ex-corr gga-PBE
elec-initial-magnetization 0.480000 yes
elec-smearing Fermi 1e-05
electronic-minimize  \
	dirUpdateScheme      FletcherReeves \
	linminMethod         DirUpdateRecommended \
	nIterations          100 \
	history              15 \
	knormThreshold       0 \
	energyDiffThreshold  1e-08 \
	nEnergyDiff          2 \
	alphaTstart          1 \
	alphaTmin            1e-10 \
	updateTestStepSize   yes \
	alphaTreduceFactor   0.1 \
	alphaTincreaseFactor 3 \
	nAlphaAdjustMax      3 \
	wolfeEnergy          0.0001 \
	wolfeGradient        0.9 \
	fdTest               no
electronic-scf  \
	nIterations	10000 \
	energyDiffThreshold	1e-08 \
	residualThreshold	1e-07 \
	mixFraction	0.5 \
	qMetric	0.8 \
	history	10 \
	nEigSteps	2 \
	eigDiffThreshold	1e-08 \
	mixedVariable	Density \
	qKerker	0.8 \
	qKappa	-1 \
	verbose	no \
	mixFractionMag	1.5
exchange-regularization WignerSeitzTruncated
fluid None
fluid-ex-corr (null) lda-PZ
fluid-gummel-loop 10 1.000000e-05
fluid-minimize  \
	dirUpdateScheme      PolakRibiere \
	linminMethod         DirUpdateRecommended \
	nIterations          100 \
	history              15 \
	knormThreshold       0 \
	energyDiffThreshold  0 \
	nEnergyDiff          2 \
	alphaTstart          1 \
	alphaTmin            1e-10 \
	updateTestStepSize   yes \
	alphaTreduceFactor   0.1 \
	alphaTincreaseFactor 3 \
	nAlphaAdjustMax      3 \
	wolfeEnergy          0.0001 \
	wolfeGradient        0.9 \
	fdTest               no
fluid-solvent H2O 55.338 ScalarEOS \
	epsBulk 78.4 \
	pMol 0.92466 \
	epsInf 1.77 \
	Pvap 1.06736e-10 \
	sigmaBulk 4.62e-05 \
	Rvdw 2.61727 \
	Res 1.42 \
	tauNuc 343133 \
	poleEl 15 7 1
forces-output-coords Positions
ion Na   0.000000000000000   0.000000000000000   0.000000000000000 0
ion-species SG15/$ID_ONCV_PBE.upf
ion-width 0
ionic-minimize  \
	dirUpdateScheme      L-BFGS \
	linminMethod         DirUpdateRecommended \
	nIterations          0 \
	history              15 \
	knormThreshold       0.0001 \
	energyDiffThreshold  1e-06 \
	nEnergyDiff          2 \
	alphaTstart          1 \
	alphaTmin            1e-10 \
	updateTestStepSize   yes \
	alphaTreduceFactor   0.1 \
	alphaTincreaseFactor 3 \
	nAlphaAdjustMax      3 \
	wolfeEnergy          0.0001 \
	wolfeGradient        0.9 \
	fdTest               no
kpoint   0.000000000000   0.000000000000   0.000000000000  1.00000000000000
kpoint-folding 12 12 1 
latt-move-scale 1 1 1
latt-scale 4 4 1 
lattice  \
	   4.727486978767153   -2.363743489383575    0.000000000000000  \
	  -0.000000000000000    4.094123819672498    0.000000000000000  \
	   0.000000000000000    0.000000000000000   40.000000000000000 
lattice-minimize  \
	dirUpdateScheme      L-BFGS \
	linminMethod         DirUpdateRecommended \
	nIterations          0 \
	history              15 \
	knormThreshold       0 \
	energyDiffThreshold  1e-06 \
	nEnergyDiff          2 \
	alphaTstart          1 \
	alphaTmin            1e-10 \
	updateTestStepSize   yes \
	alphaTreduceFactor   0.1 \
	alphaTincreaseFactor 3 \
	nAlphaAdjustMax      3 \
	wolfeEnergy          0.0001 \
	wolfeGradient        0.9 \
	fdTest               no
lcao-params -1 1e-06 1e-05
pcm-variant GLSSA13
spintype z-spin
subspace-rotation-factor 1 yes
symmetries automatic
symmetry-threshold 0.0001



---------- Setting up symmetries ----------

Found 24 point-group symmetries of the bravais lattice
Found 24 space-group symmetries with basis
Applied RMS atom displacement 0 bohrs to make symmetries exact.

---------- Initializing the Grid ----------
R = 
[      18.9099     -9.45497            0  ]
[            0      16.3765            0  ]
[            0            0           40  ]
unit cell volume = 12387.1
G =
[   0.332269   0.191835         -0  ]
[          0   0.383671         -0  ]
[         -0         -0    0.15708  ]
Minimum fftbox size, Smin = [  80  80  164  ]
Chosen fftbox size, S = [  80  80  168  ]

---------- Exchange Correlation functional ----------
Initalized PBE GGA exchange.
Initalized PBE GGA correlation.

---------- Setting up pseudopotentials ----------
Width of ionic core gaussian charges (only for fluid interactions / plotting) set to 0

Reading pseudopotential file '/home/gridsan/aligho/DFT/build-Nov24/pseudopotentials/SG15/Na_ONCV_PBE.upf':
  'Na' pseudopotential, 'PBE' functional
  Generated using ONCVPSP code by D. R. Hamann
  Author: Martin Schlipf and Francois Gygi  Date: 150915.
  9 valence electrons, 3 orbitals, 4 projectors, 1992 radial grid points, with lMax = 1
  Transforming local potential to a uniform radial grid of dG=0.02 with 1489 points.
  Transforming nonlocal projectors to a uniform radial grid of dG=0.02 with 432 points.
    2S    l: 0   occupation:  2.0   eigenvalue: -2.085640
    2P    l: 1   occupation:  6.0   eigenvalue: -1.053708
    3S    l: 0   occupation:  1.0   eigenvalue: -0.100838
  Transforming atomic orbitals to a uniform radial grid of dG=0.02 with 432 points.
  Core radius for overlap checks: 2.01 bohrs.
  Reading pulay file /home/gridsan/aligho/DFT/build-Nov24/pseudopotentials/SG15/Na_ONCV_PBE.pulay ... using dE_dnG = -2.946487e-03 computed for Ecut = 20.

Initialized 1 species with 1 total atoms.

Folded 1 k-points by 12x12x1 to 144 k-points.

---------- Setting up k-points, bands, fillings ----------
Reduced to 19 k-points under symmetry. 
Computing the number of bands and number of electrons
Calculating initial fillings.
nElectrons:   9.000000   nBands: 6   nStates: 38

----- Setting up reduced wavefunction bases (one per k-point) -----
average nbasis = 52924.021 , ideal nbasis = 52918.836

---------- Setting up coulomb interaction ----------
Initialized slab truncation along lattice direction 001

---------- Setting up 2D ewald sum ----------
Optimum gaussian width for ewald sums = 10.498040 bohr.
Real space sums over 289 unit cells with max indices [  8  8  0  ]
Reciprocal space sums over 81 terms with max indices [  4  4  0  ]

---------- Allocating electronic variables ----------
Initializing wave functions:  linear combination of atomic orbitals
Note: number of bands (6) exceeds available atomic orbitals (5)
Na pseudo-atom occupations:   s ( 2 1 )  p ( 6 )
[d-16-12-1:12404] 18 more processes have sent help message help-mpi-common-cuda.txt / dlopen failed
[d-16-12-1:12404] Set MCA parameter "orte_base_help_aggregate" to 0 to see all help / error messages
[d-16-12-1:12404] 18 more processes have sent help message help-mpi-btl-openib-cpc-base.txt / no cpcs for port
	FillingsUpdate:  mu: -0.100594946  nElectrons: 9.000000  magneticMoment: [ Abs: 0.48000  Tot: +0.48000 ]
LCAOMinimize: Iter:   0  F: -42.5513848198483302  |grad|_K:  1.040e-06  alpha:  1.000e+00
	FillingsUpdate:  mu: -0.100594741  nElectrons: 9.000000  magneticMoment: [ Abs: 0.48000  Tot: +0.48000 ]
LCAOMinimize: Iter:   1  F: -42.5513848205827472  |grad|_K:  4.557e-09  alpha:  9.941e-01  linmin: -2.647e-03  cgtest:  1.980e-01  t[s]:     15.11
LCAOMinimize: Encountered beta<0, resetting CG.
LCAOMinimize: 	Wrong curvature in test step, increasing alphaT to 2.982257e+00.
	FillingsUpdate:  mu: -0.100594741  nElectrons: 9.000000  magneticMoment: [ Abs: 0.48000  Tot: +0.48000 ]
LCAOMinimize: Iter:   2  F: -42.5513848205836069  |grad|_K:  2.540e-11  alpha: -1.689e-02  linmin: -1.238e-02  cgtest:  7.574e-01  t[s]:     19.14
LCAOMinimize: Encountered beta<0, resetting CG.
LCAOMinimize: Converged (|Delta F|<1.000000e-06 for 2 iters).


---- Citations for features of the code used in this run ----

   Software package:
      R. Sundararaman, K. Letchworth-Weaver, K.A. Schwarz, D. Gunceler, Y. Ozhabes and T.A. Arias, 'JDFTx: software for joint density-functional theory', SoftwareX 6, 278 (2017)

   gga-PBE exchange-correlation functional:
      J.P. Perdew, K. Burke and M. Ernzerhof, Phys. Rev. Lett. 77, 3865 (1996)

   Pseudopotentials:
      M Schlipf and F Gygi, Comput. Phys. Commun. 196, 36 (2015)

   Truncated Coulomb potentials:
      R. Sundararaman and T.A. Arias, Phys. Rev. B 87, 165122 (2013)

This list may not be complete. Please suggest additional citations or
report any other bugs at https://github.com/shankar1729/jdftx/issues

Initialization completed successfully at t[s]:     19.30


-------- Electronic minimization -----------
Will mix electronic density at each iteration.
	FillingsUpdate:  mu: -0.100594741  nElectrons: 9.000000  magneticMoment: [ Abs: 0.48000  Tot: +0.48000 ]
	FillingsUpdate:  mu: -0.100655222  nElectrons: 9.000000  magneticMoment: [ Abs: 0.48000  Tot: +0.48000 ]
SCF: Cycle:  0   F: -42.551442927524512   dF: -5.811e-05   |Residual|: 1.981e-03   |deigs|: 1.647e-01  t[s]:     26.96
	FillingsUpdate:  mu: -0.100641063  nElectrons: 9.000000  magneticMoment: [ Abs: 0.48096  Tot: +0.48000 ]
SCF: Cycle:  1   F: -42.551443627259424   dF: -6.997e-07   |Residual|: 8.434e-04   |deigs|: 1.461e-02  t[s]:     32.96
	FillingsUpdate:  mu: -0.100610898  nElectrons: 9.000000  magneticMoment: [ Abs: 0.48074  Tot: +0.48000 ]
SCF: Cycle:  2   F: -42.551443766363995   dF: -1.391e-07   |Residual|: 2.948e-04   |deigs|: 2.152e-03  t[s]:     39.10
	FillingsUpdate:  mu: -0.100587907  nElectrons: 9.000000  magneticMoment: [ Abs: 0.48088  Tot: +0.48000 ]
SCF: Cycle:  3   F: -42.551443825592855   dF: -5.923e-08   |Residual|: 1.277e-04   |deigs|: 4.959e-04  t[s]:     45.27
	FillingsUpdate:  mu: -0.100566409  nElectrons: 9.000000  magneticMoment: [ Abs: 0.48083  Tot: +0.48000 ]
SCF: Cycle:  4   F: -42.551443845013743   dF: -1.942e-08   |Residual|: 9.055e-05   |deigs|: 3.784e-04  t[s]:     51.61
	FillingsUpdate:  mu: -0.100515121  nElectrons: 9.000000  magneticMoment: [ Abs: 0.48085  Tot: +0.48000 ]
SCF: Cycle:  5   F: -42.551443862537667   dF: -1.752e-08   |Residual|: 6.055e-05   |deigs|: 3.091e-04  t[s]:     58.00
	FillingsUpdate:  mu: -0.100493102  nElectrons: 9.000000  magneticMoment: [ Abs: 0.48082  Tot: +0.48000 ]
SCF: Cycle:  6   F: -42.551443865116873   dF: -2.579e-09   |Residual|: 3.786e-05   |deigs|: 1.758e-04  t[s]:     64.60
	FillingsUpdate:  mu: -0.100468740  nElectrons: 9.000000  magneticMoment: [ Abs: 0.48084  Tot: +0.48000 ]
SCF: Cycle:  7   F: -42.551443868094715   dF: -2.978e-09   |Residual|: 3.003e-05   |deigs|: 1.395e-04  t[s]:     71.27
SCF: Converged (|Delta E|<1.000000e-08 for 2 iters).


# Ionic positions in lattice coordinates:
ion Na   0.000000000000000   0.000000000000000   0.000000000000000 0

# Forces in Lattice coordinates:
force Na  -0.000000000000000   0.000000000000000   0.000000000000000 0

# Energy components:
   Eewald =       -9.0240130501663280
       EH =       24.7746574238440616
     Eloc =      -60.8188527835623063
      Enl =      -12.9028870315138668
   Epulay =        0.0000012333957556
      Exc =       -6.2119887589735043
       KE =       21.6316407896568990
-------------------------------------
     Etot =      -42.5514421773193021
       TS =        0.0000016907754120
-------------------------------------
        F =      -42.5514438680947151

IonicMinimize: Iter:   0  F: -42.551443868094715  |grad|_K:  0.000e+00  t[s]:     71.53
IonicMinimize: Converged (|grad|_K<1.000000e-04).

#--- Lowdin population analysis ---
# oxidation-state Na +0.000
# magnetic-moments Na +0.480

End date and time: Sat Feb  5 22:35:53 2022  (Duration: 0-0:01:11.60)
Done!
