The alkali metal is Na
scale=2
magnetization=0.36
--------------------------------------------------------------------------
The library attempted to open the following supporting CUDA libraries,
but each of them failed.  CUDA-aware support is disabled.
libcuda.so.1: cannot open shared object file: No such file or directory
libcuda.dylib: cannot open shared object file: No such file or directory
/usr/lib64/libcuda.so.1: cannot open shared object file: No such file or directory
/usr/lib64/libcuda.dylib: cannot open shared object file: No such file or directory
If you are not interested in CUDA-aware support, then run with
--mca opal_warn_on_missing_libcuda 0 to suppress this message.  If you are interested
in CUDA-aware support, then try setting LD_LIBRARY_PATH to the location
of libcuda.so.1 to get passed this issue.
--------------------------------------------------------------------------
--------------------------------------------------------------------------
No OpenFabrics connection schemes reported that they were able to be
used on a specific port.  As such, the openib BTL (OpenFabrics
support) will be disabled for this port.

  Local host:           d-4-6-3
  Local device:         mlx5_1
  Local port:           1
  CPCs attempted:       rdmacm, udcm
--------------------------------------------------------------------------

*************** JDFTx 1.6.0 (git hash 42ebbcc2) ***************

Start date and time: Sat Feb  5 22:31:06 2022
Executable jdftx with command-line: -i Alkali.in
Running on hosts (process indices):  d-4-6-3 (0-18)
Divided in process groups (process indices):  0 (0)  1 (1)  2 (2)  3 (3)  4 (4)  5 (5)  6 (6)  7 (7)  8 (8)  9 (9)  10 (10)  11 (11)  12 (12)  13 (13)  14 (14)  15 (15)  16 (16)  17 (17)  18 (18)
Resource initialization completed at t[s]:      0.00
Run totals: 19 processes, 48 threads, 0 GPUs


Input parsed successfully to the following command list (including defaults):

basis kpoint-dependent
coords-type Lattice
core-overlap-check vector
coulomb-interaction Slab 001
davidson-band-ratio 1.1
dump End None
dump-name $INPUT.$VAR
elec-cutoff 20
elec-eigen-algo Davidson
elec-ex-corr gga-PBE
elec-initial-magnetization 0.360000 yes
elec-smearing Fermi 1e-05
electronic-minimize  \
	dirUpdateScheme      FletcherReeves \
	linminMethod         DirUpdateRecommended \
	nIterations          100 \
	history              15 \
	knormThreshold       0 \
	energyDiffThreshold  1e-08 \
	nEnergyDiff          2 \
	alphaTstart          1 \
	alphaTmin            1e-10 \
	updateTestStepSize   yes \
	alphaTreduceFactor   0.1 \
	alphaTincreaseFactor 3 \
	nAlphaAdjustMax      3 \
	wolfeEnergy          0.0001 \
	wolfeGradient        0.9 \
	fdTest               no
electronic-scf  \
	nIterations	10000 \
	energyDiffThreshold	1e-08 \
	residualThreshold	1e-07 \
	mixFraction	0.5 \
	qMetric	0.8 \
	history	10 \
	nEigSteps	2 \
	eigDiffThreshold	1e-08 \
	mixedVariable	Density \
	qKerker	0.8 \
	qKappa	-1 \
	verbose	no \
	mixFractionMag	1.5
exchange-regularization WignerSeitzTruncated
fluid None
fluid-ex-corr (null) lda-PZ
fluid-gummel-loop 10 1.000000e-05
fluid-minimize  \
	dirUpdateScheme      PolakRibiere \
	linminMethod         DirUpdateRecommended \
	nIterations          100 \
	history              15 \
	knormThreshold       0 \
	energyDiffThreshold  0 \
	nEnergyDiff          2 \
	alphaTstart          1 \
	alphaTmin            1e-10 \
	updateTestStepSize   yes \
	alphaTreduceFactor   0.1 \
	alphaTincreaseFactor 3 \
	nAlphaAdjustMax      3 \
	wolfeEnergy          0.0001 \
	wolfeGradient        0.9 \
	fdTest               no
fluid-solvent H2O 55.338 ScalarEOS \
	epsBulk 78.4 \
	pMol 0.92466 \
	epsInf 1.77 \
	Pvap 1.06736e-10 \
	sigmaBulk 4.62e-05 \
	Rvdw 2.61727 \
	Res 1.42 \
	tauNuc 343133 \
	poleEl 15 7 1
forces-output-coords Positions
ion Na   0.000000000000000   0.000000000000000   0.000000000000000 0
ion-species SG15/$ID_ONCV_PBE.upf
ion-width 0
ionic-minimize  \
	dirUpdateScheme      L-BFGS \
	linminMethod         DirUpdateRecommended \
	nIterations          0 \
	history              15 \
	knormThreshold       0.0001 \
	energyDiffThreshold  1e-06 \
	nEnergyDiff          2 \
	alphaTstart          1 \
	alphaTmin            1e-10 \
	updateTestStepSize   yes \
	alphaTreduceFactor   0.1 \
	alphaTincreaseFactor 3 \
	nAlphaAdjustMax      3 \
	wolfeEnergy          0.0001 \
	wolfeGradient        0.9 \
	fdTest               no
kpoint   0.000000000000   0.000000000000   0.000000000000  1.00000000000000
kpoint-folding 12 12 1 
latt-move-scale 1 1 1
latt-scale 2 2 1 
lattice  \
	   4.727486978767153   -2.363743489383575    0.000000000000000  \
	  -0.000000000000000    4.094123819672498    0.000000000000000  \
	   0.000000000000000    0.000000000000000   40.000000000000000 
lattice-minimize  \
	dirUpdateScheme      L-BFGS \
	linminMethod         DirUpdateRecommended \
	nIterations          0 \
	history              15 \
	knormThreshold       0 \
	energyDiffThreshold  1e-06 \
	nEnergyDiff          2 \
	alphaTstart          1 \
	alphaTmin            1e-10 \
	updateTestStepSize   yes \
	alphaTreduceFactor   0.1 \
	alphaTincreaseFactor 3 \
	nAlphaAdjustMax      3 \
	wolfeEnergy          0.0001 \
	wolfeGradient        0.9 \
	fdTest               no
lcao-params -1 1e-06 1e-05
pcm-variant GLSSA13
spintype z-spin
subspace-rotation-factor 1 yes
symmetries automatic
symmetry-threshold 0.0001



---------- Setting up symmetries ----------

Found 24 point-group symmetries of the bravais lattice
Found 24 space-group symmetries with basis
Applied RMS atom displacement 0 bohrs to make symmetries exact.

---------- Initializing the Grid ----------
R = 
[      9.45497     -4.72749            0  ]
[            0      8.18825            0  ]
[            0            0           40  ]
unit cell volume = 3096.79
G =
[   0.664538   0.383671         -0  ]
[          0   0.767342         -0  ]
[         -0         -0    0.15708  ]
Minimum fftbox size, Smin = [  40  40  164  ]
Chosen fftbox size, S = [  40  40  168  ]

---------- Exchange Correlation functional ----------
Initalized PBE GGA exchange.
Initalized PBE GGA correlation.

---------- Setting up pseudopotentials ----------
Width of ionic core gaussian charges (only for fluid interactions / plotting) set to 0

Reading pseudopotential file '/home/gridsan/aligho/DFT/build-Nov24/pseudopotentials/SG15/Na_ONCV_PBE.upf':
  'Na' pseudopotential, 'PBE' functional
  Generated using ONCVPSP code by D. R. Hamann
  Author: Martin Schlipf and Francois Gygi  Date: 150915.
  9 valence electrons, 3 orbitals, 4 projectors, 1992 radial grid points, with lMax = 1
  Transforming local potential to a uniform radial grid of dG=0.02 with 1489 points.
  Transforming nonlocal projectors to a uniform radial grid of dG=0.02 with 432 points.
    2S    l: 0   occupation:  2.0   eigenvalue: -2.085640
    2P    l: 1   occupation:  6.0   eigenvalue: -1.053708
    3S    l: 0   occupation:  1.0   eigenvalue: -0.100838
  Transforming atomic orbitals to a uniform radial grid of dG=0.02 with 432 points.
  Core radius for overlap checks: 2.01 bohrs.
  Reading pulay file /home/gridsan/aligho/DFT/build-Nov24/pseudopotentials/SG15/Na_ONCV_PBE.pulay ... using dE_dnG = -2.946487e-03 computed for Ecut = 20.

Initialized 1 species with 1 total atoms.

Folded 1 k-points by 12x12x1 to 144 k-points.

---------- Setting up k-points, bands, fillings ----------
Reduced to 19 k-points under symmetry. 
Computing the number of bands and number of electrons
Calculating initial fillings.
nElectrons:   9.000000   nBands: 6   nStates: 38

----- Setting up reduced wavefunction bases (one per k-point) -----
average nbasis = 13230.521 , ideal nbasis = 13229.709

---------- Setting up coulomb interaction ----------
Initialized slab truncation along lattice direction 001

---------- Setting up 2D ewald sum ----------
Optimum gaussian width for ewald sums = 5.249020 bohr.
Real space sums over 289 unit cells with max indices [  8  8  0  ]
Reciprocal space sums over 81 terms with max indices [  4  4  0  ]

---------- Allocating electronic variables ----------
Initializing wave functions:  linear combination of atomic orbitals
Note: number of bands (6) exceeds available atomic orbitals (5)
Na pseudo-atom occupations:   s ( 2 1 )  p ( 6 )
	FillingsUpdate:  mu: -0.104070011  nElectrons: 9.000000  magneticMoment: [ Abs: 0.36000  Tot: +0.36000 ]
LCAOMinimize: Iter:   0  F: -42.5667873431720309  |grad|_K:  2.984e-05  alpha:  1.000e+00
	FillingsUpdate:  mu: -0.104068728  nElectrons: 9.000000  magneticMoment: [ Abs: 0.36000  Tot: +0.36000 ]
LCAOMinimize: Iter:   1  F: -42.5667879459006215  |grad|_K:  2.773e-07  alpha:  9.897e-01  linmin: -1.916e-02  cgtest:  6.683e-01  t[s]:      4.52
LCAOMinimize: Encountered beta<0, resetting CG.
[d-4-6-3:37862] 18 more processes have sent help message help-mpi-common-cuda.txt / dlopen failed
[d-4-6-3:37862] Set MCA parameter "orte_base_help_aggregate" to 0 to see all help / error messages
[d-4-6-3:37862] 18 more processes have sent help message help-mpi-btl-openib-cpc-base.txt / no cpcs for port
	FillingsUpdate:  mu: -0.104068775  nElectrons: 9.000000  magneticMoment: [ Abs: 0.36000  Tot: +0.36000 ]
LCAOMinimize: Iter:   2  F: -42.5667879459542178  |grad|_K:  3.030e-09  alpha:  1.012e+00  linmin:  5.215e-02  cgtest: -9.803e-01  t[s]:      5.76
LCAOMinimize: Converged (|Delta F|<1.000000e-06 for 2 iters).


---- Citations for features of the code used in this run ----

   Software package:
      R. Sundararaman, K. Letchworth-Weaver, K.A. Schwarz, D. Gunceler, Y. Ozhabes and T.A. Arias, 'JDFTx: software for joint density-functional theory', SoftwareX 6, 278 (2017)

   gga-PBE exchange-correlation functional:
      J.P. Perdew, K. Burke and M. Ernzerhof, Phys. Rev. Lett. 77, 3865 (1996)

   Pseudopotentials:
      M Schlipf and F Gygi, Comput. Phys. Commun. 196, 36 (2015)

   Truncated Coulomb potentials:
      R. Sundararaman and T.A. Arias, Phys. Rev. B 87, 165122 (2013)

This list may not be complete. Please suggest additional citations or
report any other bugs at https://github.com/shankar1729/jdftx/issues

Initialization completed successfully at t[s]:      5.83


-------- Electronic minimization -----------
Will mix electronic density at each iteration.
	FillingsUpdate:  mu: -0.104068775  nElectrons: 9.000000  magneticMoment: [ Abs: 0.36000  Tot: +0.36000 ]
	FillingsUpdate:  mu: -0.111212827  nElectrons: 9.000000  magneticMoment: [ Abs: 0.36000  Tot: +0.36000 ]
SCF: Cycle:  0   F: -42.571362914937907   dF: -4.575e-03   |Residual|: 8.608e-03   |deigs|: 1.705e-01  t[s]:      8.09
	FillingsUpdate:  mu: -0.111279766  nElectrons: 9.000000  magneticMoment: [ Abs: 0.36000  Tot: +0.36000 ]
SCF: Cycle:  1   F: -42.571456112041389   dF: -9.320e-05   |Residual|: 5.850e-03   |deigs|: 8.829e-03  t[s]:      9.90
	FillingsUpdate:  mu: -0.111096114  nElectrons: 9.000000  magneticMoment: [ Abs: 0.36129  Tot: +0.36000 ]
SCF: Cycle:  2   F: -42.571473620841168   dF: -1.751e-05   |Residual|: 3.245e-03   |deigs|: 5.972e-03  t[s]:     11.65
	FillingsUpdate:  mu: -0.110888491  nElectrons: 9.000000  magneticMoment: [ Abs: 0.36003  Tot: +0.36000 ]
SCF: Cycle:  3   F: -42.571478194257132   dF: -4.573e-06   |Residual|: 1.864e-03   |deigs|: 5.787e-03  t[s]:     13.39
	FillingsUpdate:  mu: -0.110460764  nElectrons: 9.000000  magneticMoment: [ Abs: 0.36005  Tot: +0.36000 ]
SCF: Cycle:  4   F: -42.571487479216117   dF: -9.285e-06   |Residual|: 9.064e-04   |deigs|: 3.054e-03  t[s]:     15.16
	FillingsUpdate:  mu: -0.110116278  nElectrons: 9.000000  magneticMoment: [ Abs: 0.36015  Tot: +0.36000 ]
SCF: Cycle:  5   F: -42.571488669295654   dF: -1.190e-06   |Residual|: 7.414e-04   |deigs|: 1.858e-03  t[s]:     16.91
	FillingsUpdate:  mu: -0.109374642  nElectrons: 9.000000  magneticMoment: [ Abs: 0.36097  Tot: +0.36000 ]
SCF: Cycle:  6   F: -42.571488959167944   dF: -2.899e-07   |Residual|: 5.519e-04   |deigs|: 1.249e-03  t[s]:     18.70
	FillingsUpdate:  mu: -0.108567007  nElectrons: 9.000000  magneticMoment: [ Abs: 0.36201  Tot: +0.36000 ]
SCF: Cycle:  7   F: -42.571488130715260   dF: +8.285e-07   |Residual|: 4.046e-04   |deigs|: 1.098e-03  t[s]:     20.55
	FillingsUpdate:  mu: -0.107919843  nElectrons: 9.000000  magneticMoment: [ Abs: 0.36140  Tot: +0.36000 ]
SCF: Cycle:  8   F: -42.571488139627881   dF: -8.913e-09   |Residual|: 3.481e-04   |deigs|: 8.715e-04  t[s]:     22.39
	FillingsUpdate:  mu: -0.107658974  nElectrons: 9.000000  magneticMoment: [ Abs: 0.36056  Tot: +0.36000 ]
SCF: Cycle:  9   F: -42.571489588926553   dF: -1.449e-06   |Residual|: 2.828e-04   |deigs|: 3.143e-04  t[s]:     24.26
	FillingsUpdate:  mu: -0.107412864  nElectrons: 9.000000  magneticMoment: [ Abs: 0.36120  Tot: +0.36000 ]
SCF: Cycle: 10   F: -42.571490462148383   dF: -8.732e-07   |Residual|: 2.303e-04   |deigs|: 2.599e-04  t[s]:     26.20
	FillingsUpdate:  mu: -0.106911169  nElectrons: 9.000000  magneticMoment: [ Abs: 0.36125  Tot: +0.36000 ]
SCF: Cycle: 11   F: -42.571489298144193   dF: +1.164e-06   |Residual|: 2.124e-04   |deigs|: 8.892e-04  t[s]:     28.09
	FillingsUpdate:  mu: -0.106255398  nElectrons: 9.000000  magneticMoment: [ Abs: 0.36065  Tot: +0.36000 ]
SCF: Cycle: 12   F: -42.571488969461193   dF: +3.287e-07   |Residual|: 1.956e-04   |deigs|: 6.842e-04  t[s]:     30.01
	FillingsUpdate:  mu: -0.105850784  nElectrons: 9.000000  magneticMoment: [ Abs: 0.36136  Tot: +0.36000 ]
SCF: Cycle: 13   F: -42.571490395556687   dF: -1.426e-06   |Residual|: 1.713e-04   |deigs|: 3.855e-04  t[s]:     31.92
	FillingsUpdate:  mu: -0.105587418  nElectrons: 9.000000  magneticMoment: [ Abs: 0.36102  Tot: +0.36000 ]
SCF: Cycle: 14   F: -42.571491275808178   dF: -8.803e-07   |Residual|: 1.597e-04   |deigs|: 2.793e-04  t[s]:     33.77
	FillingsUpdate:  mu: -0.105061858  nElectrons: 9.000000  magneticMoment: [ Abs: 0.36053  Tot: +0.36000 ]
SCF: Cycle: 15   F: -42.571491678485522   dF: -4.027e-07   |Residual|: 1.524e-04   |deigs|: 5.786e-04  t[s]:     35.65
	FillingsUpdate:  mu: -0.104584922  nElectrons: 9.000000  magneticMoment: [ Abs: 0.36029  Tot: +0.36000 ]
SCF: Cycle: 16   F: -42.571492089243229   dF: -4.108e-07   |Residual|: 1.108e-04   |deigs|: 4.830e-04  t[s]:     37.54
	FillingsUpdate:  mu: -0.104305757  nElectrons: 9.000000  magneticMoment: [ Abs: 0.36033  Tot: +0.36000 ]
SCF: Cycle: 17   F: -42.571492246317547   dF: -1.571e-07   |Residual|: 6.568e-05   |deigs|: 2.517e-04  t[s]:     39.41
	FillingsUpdate:  mu: -0.104246376  nElectrons: 9.000000  magneticMoment: [ Abs: 0.36022  Tot: +0.36000 ]
SCF: Cycle: 18   F: -42.571492273964424   dF: -2.765e-08   |Residual|: 5.156e-05   |deigs|: 1.890e-04  t[s]:     41.24
	FillingsUpdate:  mu: -0.104193866  nElectrons: 9.000000  magneticMoment: [ Abs: 0.36019  Tot: +0.36000 ]
SCF: Cycle: 19   F: -42.571492295555025   dF: -2.159e-08   |Residual|: 2.486e-05   |deigs|: 9.224e-05  t[s]:     43.07
	FillingsUpdate:  mu: -0.104184165  nElectrons: 9.000000  magneticMoment: [ Abs: 0.36023  Tot: +0.36000 ]
SCF: Cycle: 20   F: -42.571492303016662   dF: -7.462e-09   |Residual|: 1.182e-05   |deigs|: 6.557e-05  t[s]:     44.92
	FillingsUpdate:  mu: -0.104180938  nElectrons: 9.000000  magneticMoment: [ Abs: 0.36018  Tot: +0.36000 ]
SCF: Cycle: 21   F: -42.571492304129244   dF: -1.113e-09   |Residual|: 7.823e-06   |deigs|: 9.638e-04  t[s]:     46.76
SCF: Converged (|Delta E|<1.000000e-08 for 2 iters).


# Ionic positions in lattice coordinates:
ion Na   0.000000000000000   0.000000000000000   0.000000000000000 0

# Forces in Lattice coordinates:
force Na  -0.000000000000000   0.000000000000000   0.000000000000000 0

# Energy components:
   Eewald =      -18.0480261003326561
       EH =       15.7277060130837434
     Eloc =      -42.7394172400389536
      Enl =      -12.9133839793535934
   Epulay =        0.0000007725295140
      Exc =       -6.2171261391175108
       KE =       21.6187550691778476
-------------------------------------
     Etot =      -42.5714916040516158
       TS =        0.0000007000776280
-------------------------------------
        F =      -42.5714923041292437

IonicMinimize: Iter:   0  F: -42.571492304129244  |grad|_K:  0.000e+00  t[s]:     46.83
IonicMinimize: Converged (|grad|_K<1.000000e-04).

#--- Lowdin population analysis ---
# oxidation-state Na +0.048
# magnetic-moments Na +0.322

End date and time: Sat Feb  5 22:31:53 2022  (Duration: 0-0:00:46.86)
Done!
scale=3
magnetization=0.36
--------------------------------------------------------------------------
The library attempted to open the following supporting CUDA libraries,
but each of them failed.  CUDA-aware support is disabled.
libcuda.so.1: cannot open shared object file: No such file or directory
libcuda.dylib: cannot open shared object file: No such file or directory
/usr/lib64/libcuda.so.1: cannot open shared object file: No such file or directory
/usr/lib64/libcuda.dylib: cannot open shared object file: No such file or directory
If you are not interested in CUDA-aware support, then run with
--mca opal_warn_on_missing_libcuda 0 to suppress this message.  If you are interested
in CUDA-aware support, then try setting LD_LIBRARY_PATH to the location
of libcuda.so.1 to get passed this issue.
--------------------------------------------------------------------------
--------------------------------------------------------------------------
No OpenFabrics connection schemes reported that they were able to be
used on a specific port.  As such, the openib BTL (OpenFabrics
support) will be disabled for this port.

  Local host:           d-4-6-3
  Local device:         mlx5_1
  Local port:           1
  CPCs attempted:       rdmacm, udcm
--------------------------------------------------------------------------

*************** JDFTx 1.6.0 (git hash 42ebbcc2) ***************

Start date and time: Sat Feb  5 22:31:54 2022
Executable jdftx with command-line: -i Alkali.in
Running on hosts (process indices):  d-4-6-3 (0-18)
Divided in process groups (process indices):  0 (0)  1 (1)  2 (2)  3 (3)  4 (4)  5 (5)  6 (6)  7 (7)  8 (8)  9 (9)  10 (10)  11 (11)  12 (12)  13 (13)  14 (14)  15 (15)  16 (16)  17 (17)  18 (18)
Resource initialization completed at t[s]:      0.00
Run totals: 19 processes, 48 threads, 0 GPUs


Input parsed successfully to the following command list (including defaults):

basis kpoint-dependent
coords-type Lattice
core-overlap-check vector
coulomb-interaction Slab 001
davidson-band-ratio 1.1
dump End None
dump-name $INPUT.$VAR
elec-cutoff 20
elec-eigen-algo Davidson
elec-ex-corr gga-PBE
elec-initial-magnetization 0.360000 yes
elec-smearing Fermi 1e-05
electronic-minimize  \
	dirUpdateScheme      FletcherReeves \
	linminMethod         DirUpdateRecommended \
	nIterations          100 \
	history              15 \
	knormThreshold       0 \
	energyDiffThreshold  1e-08 \
	nEnergyDiff          2 \
	alphaTstart          1 \
	alphaTmin            1e-10 \
	updateTestStepSize   yes \
	alphaTreduceFactor   0.1 \
	alphaTincreaseFactor 3 \
	nAlphaAdjustMax      3 \
	wolfeEnergy          0.0001 \
	wolfeGradient        0.9 \
	fdTest               no
electronic-scf  \
	nIterations	10000 \
	energyDiffThreshold	1e-08 \
	residualThreshold	1e-07 \
	mixFraction	0.5 \
	qMetric	0.8 \
	history	10 \
	nEigSteps	2 \
	eigDiffThreshold	1e-08 \
	mixedVariable	Density \
	qKerker	0.8 \
	qKappa	-1 \
	verbose	no \
	mixFractionMag	1.5
exchange-regularization WignerSeitzTruncated
fluid None
fluid-ex-corr (null) lda-PZ
fluid-gummel-loop 10 1.000000e-05
fluid-minimize  \
	dirUpdateScheme      PolakRibiere \
	linminMethod         DirUpdateRecommended \
	nIterations          100 \
	history              15 \
	knormThreshold       0 \
	energyDiffThreshold  0 \
	nEnergyDiff          2 \
	alphaTstart          1 \
	alphaTmin            1e-10 \
	updateTestStepSize   yes \
	alphaTreduceFactor   0.1 \
	alphaTincreaseFactor 3 \
	nAlphaAdjustMax      3 \
	wolfeEnergy          0.0001 \
	wolfeGradient        0.9 \
	fdTest               no
fluid-solvent H2O 55.338 ScalarEOS \
	epsBulk 78.4 \
	pMol 0.92466 \
	epsInf 1.77 \
	Pvap 1.06736e-10 \
	sigmaBulk 4.62e-05 \
	Rvdw 2.61727 \
	Res 1.42 \
	tauNuc 343133 \
	poleEl 15 7 1
forces-output-coords Positions
ion Na   0.000000000000000   0.000000000000000   0.000000000000000 0
ion-species SG15/$ID_ONCV_PBE.upf
ion-width 0
ionic-minimize  \
	dirUpdateScheme      L-BFGS \
	linminMethod         DirUpdateRecommended \
	nIterations          0 \
	history              15 \
	knormThreshold       0.0001 \
	energyDiffThreshold  1e-06 \
	nEnergyDiff          2 \
	alphaTstart          1 \
	alphaTmin            1e-10 \
	updateTestStepSize   yes \
	alphaTreduceFactor   0.1 \
	alphaTincreaseFactor 3 \
	nAlphaAdjustMax      3 \
	wolfeEnergy          0.0001 \
	wolfeGradient        0.9 \
	fdTest               no
kpoint   0.000000000000   0.000000000000   0.000000000000  1.00000000000000
kpoint-folding 12 12 1 
latt-move-scale 1 1 1
latt-scale 3 3 1 
lattice  \
	   4.727486978767153   -2.363743489383575    0.000000000000000  \
	  -0.000000000000000    4.094123819672498    0.000000000000000  \
	   0.000000000000000    0.000000000000000   40.000000000000000 
lattice-minimize  \
	dirUpdateScheme      L-BFGS \
	linminMethod         DirUpdateRecommended \
	nIterations          0 \
	history              15 \
	knormThreshold       0 \
	energyDiffThreshold  1e-06 \
	nEnergyDiff          2 \
	alphaTstart          1 \
	alphaTmin            1e-10 \
	updateTestStepSize   yes \
	alphaTreduceFactor   0.1 \
	alphaTincreaseFactor 3 \
	nAlphaAdjustMax      3 \
	wolfeEnergy          0.0001 \
	wolfeGradient        0.9 \
	fdTest               no
lcao-params -1 1e-06 1e-05
pcm-variant GLSSA13
spintype z-spin
subspace-rotation-factor 1 yes
symmetries automatic
symmetry-threshold 0.0001



---------- Setting up symmetries ----------

Found 24 point-group symmetries of the bravais lattice
Found 24 space-group symmetries with basis
Applied RMS atom displacement 0 bohrs to make symmetries exact.

---------- Initializing the Grid ----------
R = 
[      14.1825     -7.09123            0  ]
[            0      12.2824            0  ]
[            0            0           40  ]
unit cell volume = 6967.77
G =
[   0.443025   0.255781         -0  ]
[          0   0.511561         -0  ]
[         -0         -0    0.15708  ]
Minimum fftbox size, Smin = [  60  60  164  ]
Chosen fftbox size, S = [  60  60  168  ]

---------- Exchange Correlation functional ----------
Initalized PBE GGA exchange.
Initalized PBE GGA correlation.

---------- Setting up pseudopotentials ----------
Width of ionic core gaussian charges (only for fluid interactions / plotting) set to 0

Reading pseudopotential file '/home/gridsan/aligho/DFT/build-Nov24/pseudopotentials/SG15/Na_ONCV_PBE.upf':
  'Na' pseudopotential, 'PBE' functional
  Generated using ONCVPSP code by D. R. Hamann
  Author: Martin Schlipf and Francois Gygi  Date: 150915.
  9 valence electrons, 3 orbitals, 4 projectors, 1992 radial grid points, with lMax = 1
  Transforming local potential to a uniform radial grid of dG=0.02 with 1489 points.
  Transforming nonlocal projectors to a uniform radial grid of dG=0.02 with 432 points.
    2S    l: 0   occupation:  2.0   eigenvalue: -2.085640
    2P    l: 1   occupation:  6.0   eigenvalue: -1.053708
    3S    l: 0   occupation:  1.0   eigenvalue: -0.100838
  Transforming atomic orbitals to a uniform radial grid of dG=0.02 with 432 points.
  Core radius for overlap checks: 2.01 bohrs.
  Reading pulay file /home/gridsan/aligho/DFT/build-Nov24/pseudopotentials/SG15/Na_ONCV_PBE.pulay ... using dE_dnG = -2.946487e-03 computed for Ecut = 20.

Initialized 1 species with 1 total atoms.

Folded 1 k-points by 12x12x1 to 144 k-points.

---------- Setting up k-points, bands, fillings ----------
Reduced to 19 k-points under symmetry. 
Computing the number of bands and number of electrons
Calculating initial fillings.
nElectrons:   9.000000   nBands: 6   nStates: 38

----- Setting up reduced wavefunction bases (one per k-point) -----
average nbasis = 29766.104 , ideal nbasis = 29766.845

---------- Setting up coulomb interaction ----------
Initialized slab truncation along lattice direction 001

---------- Setting up 2D ewald sum ----------
Optimum gaussian width for ewald sums = 7.873530 bohr.
Real space sums over 289 unit cells with max indices [  8  8  0  ]
Reciprocal space sums over 81 terms with max indices [  4  4  0  ]

---------- Allocating electronic variables ----------
Initializing wave functions:  linear combination of atomic orbitals
Note: number of bands (6) exceeds available atomic orbitals (5)
Na pseudo-atom occupations:   s ( 2 1 )  p ( 6 )
[d-4-6-3:68591] 18 more processes have sent help message help-mpi-common-cuda.txt / dlopen failed
[d-4-6-3:68591] Set MCA parameter "orte_base_help_aggregate" to 0 to see all help / error messages
[d-4-6-3:68591] 18 more processes have sent help message help-mpi-btl-openib-cpc-base.txt / no cpcs for port
	FillingsUpdate:  mu: -0.101804688  nElectrons: 9.000000  magneticMoment: [ Abs: 0.36000  Tot: +0.36000 ]
LCAOMinimize: Iter:   0  F: -42.5532920268628772  |grad|_K:  8.011e-06  alpha:  1.000e+00
	FillingsUpdate:  mu: -0.101802994  nElectrons: 9.000000  magneticMoment: [ Abs: 0.36000  Tot: +0.36000 ]
LCAOMinimize: Iter:   1  F: -42.5532920704987845  |grad|_K:  4.283e-08  alpha:  9.941e-01  linmin: -8.815e-04  cgtest:  3.460e-01  t[s]:      8.68
LCAOMinimize: Encountered beta<0, resetting CG.
	FillingsUpdate:  mu: -0.101802992  nElectrons: 9.000000  magneticMoment: [ Abs: 0.36000  Tot: +0.36000 ]
LCAOMinimize: Iter:   2  F: -42.5532920705005111  |grad|_K:  1.954e-08  alpha:  1.454e+00  linmin:  5.688e-03  cgtest: -9.999e-01  t[s]:     11.05
LCAOMinimize: Converged (|Delta F|<1.000000e-06 for 2 iters).


---- Citations for features of the code used in this run ----

   Software package:
      R. Sundararaman, K. Letchworth-Weaver, K.A. Schwarz, D. Gunceler, Y. Ozhabes and T.A. Arias, 'JDFTx: software for joint density-functional theory', SoftwareX 6, 278 (2017)

   gga-PBE exchange-correlation functional:
      J.P. Perdew, K. Burke and M. Ernzerhof, Phys. Rev. Lett. 77, 3865 (1996)

   Pseudopotentials:
      M Schlipf and F Gygi, Comput. Phys. Commun. 196, 36 (2015)

   Truncated Coulomb potentials:
      R. Sundararaman and T.A. Arias, Phys. Rev. B 87, 165122 (2013)

This list may not be complete. Please suggest additional citations or
report any other bugs at https://github.com/shankar1729/jdftx/issues

Initialization completed successfully at t[s]:     11.16


-------- Electronic minimization -----------
Will mix electronic density at each iteration.
	FillingsUpdate:  mu: -0.101802992  nElectrons: 9.000000  magneticMoment: [ Abs: 0.36000  Tot: +0.36000 ]
	FillingsUpdate:  mu: -0.102128647  nElectrons: 9.000000  magneticMoment: [ Abs: 0.36000  Tot: +0.36000 ]
SCF: Cycle:  0   F: -42.553607513219248   dF: -3.154e-04   |Residual|: 2.071e-03   |deigs|: 1.734e-01  t[s]:     15.58
	FillingsUpdate:  mu: -0.102228429  nElectrons: 9.000000  magneticMoment: [ Abs: 0.36062  Tot: +0.36000 ]
SCF: Cycle:  1   F: -42.553612918280869   dF: -5.405e-06   |Residual|: 1.159e-03   |deigs|: 5.427e-03  t[s]:     19.06
	FillingsUpdate:  mu: -0.102351455  nElectrons: 9.000000  magneticMoment: [ Abs: 0.36050  Tot: +0.36000 ]
SCF: Cycle:  2   F: -42.553614686492601   dF: -1.768e-06   |Residual|: 6.542e-04   |deigs|: 2.656e-03  t[s]:     22.60
	FillingsUpdate:  mu: -0.102453816  nElectrons: 9.000000  magneticMoment: [ Abs: 0.36069  Tot: +0.36000 ]
SCF: Cycle:  3   F: -42.553615923893162   dF: -1.237e-06   |Residual|: 4.981e-04   |deigs|: 2.003e-03  t[s]:     26.19
	FillingsUpdate:  mu: -0.102604631  nElectrons: 9.000000  magneticMoment: [ Abs: 0.36048  Tot: +0.36000 ]
SCF: Cycle:  4   F: -42.553617814676635   dF: -1.891e-06   |Residual|: 2.627e-04   |deigs|: 1.112e-03  t[s]:     29.82
	FillingsUpdate:  mu: -0.102681596  nElectrons: 9.000000  magneticMoment: [ Abs: 0.36068  Tot: +0.36000 ]
SCF: Cycle:  5   F: -42.553618551898147   dF: -7.372e-07   |Residual|: 1.516e-04   |deigs|: 8.483e-04  t[s]:     33.57
	FillingsUpdate:  mu: -0.102668515  nElectrons: 9.000000  magneticMoment: [ Abs: 0.36058  Tot: +0.36000 ]
SCF: Cycle:  6   F: -42.553618845012508   dF: -2.931e-07   |Residual|: 9.661e-05   |deigs|: 1.243e-03  t[s]:     37.22
	FillingsUpdate:  mu: -0.102647591  nElectrons: 9.000000  magneticMoment: [ Abs: 0.36065  Tot: +0.36000 ]
SCF: Cycle:  7   F: -42.553618970680134   dF: -1.257e-07   |Residual|: 6.990e-05   |deigs|: 5.542e-04  t[s]:     41.04
	FillingsUpdate:  mu: -0.102593348  nElectrons: 9.000000  magneticMoment: [ Abs: 0.36060  Tot: +0.36000 ]
SCF: Cycle:  8   F: -42.553619034282086   dF: -6.360e-08   |Residual|: 5.319e-05   |deigs|: 1.253e-03  t[s]:     44.95
	FillingsUpdate:  mu: -0.102559293  nElectrons: 9.000000  magneticMoment: [ Abs: 0.36064  Tot: +0.36000 ]
SCF: Cycle:  9   F: -42.553619038757581   dF: -4.475e-09   |Residual|: 4.563e-05   |deigs|: 3.482e-04  t[s]:     48.87
	FillingsUpdate:  mu: -0.102518551  nElectrons: 9.000000  magneticMoment: [ Abs: 0.36066  Tot: +0.36000 ]
SCF: Cycle: 10   F: -42.553619045502877   dF: -6.745e-09   |Residual|: 3.943e-05   |deigs|: 1.071e-04  t[s]:     52.95
SCF: Converged (|Delta E|<1.000000e-08 for 2 iters).


# Ionic positions in lattice coordinates:
ion Na   0.000000000000000   0.000000000000000   0.000000000000000 0

# Forces in Lattice coordinates:
force Na   0.000000000000000   0.000000000000000   0.000000000000000 0

# Energy components:
   Eewald =      -12.0320174002217755
       EH =       21.7183081999904672
     Eloc =      -54.7501405031394981
      Enl =      -12.9045422100992440
   Epulay =       -0.0000003132867683
      Exc =       -6.2076808187101413
       KE =       21.6224547746051527
-------------------------------------
     Etot =      -42.5536182708618114
       TS =        0.0000007746410679
-------------------------------------
        F =      -42.5536190455028773

IonicMinimize: Iter:   0  F: -42.553619045502877  |grad|_K:  0.000e+00  t[s]:     53.10
IonicMinimize: Converged (|grad|_K<1.000000e-04).

#--- Lowdin population analysis ---
# oxidation-state Na +0.004
# magnetic-moments Na +0.359

End date and time: Sat Feb  5 22:32:47 2022  (Duration: 0-0:00:53.15)
Done!
scale=4
magnetization=0.36
--------------------------------------------------------------------------
The library attempted to open the following supporting CUDA libraries,
but each of them failed.  CUDA-aware support is disabled.
libcuda.so.1: cannot open shared object file: No such file or directory
libcuda.dylib: cannot open shared object file: No such file or directory
/usr/lib64/libcuda.so.1: cannot open shared object file: No such file or directory
/usr/lib64/libcuda.dylib: cannot open shared object file: No such file or directory
If you are not interested in CUDA-aware support, then run with
--mca opal_warn_on_missing_libcuda 0 to suppress this message.  If you are interested
in CUDA-aware support, then try setting LD_LIBRARY_PATH to the location
of libcuda.so.1 to get passed this issue.
--------------------------------------------------------------------------
--------------------------------------------------------------------------
No OpenFabrics connection schemes reported that they were able to be
used on a specific port.  As such, the openib BTL (OpenFabrics
support) will be disabled for this port.

  Local host:           d-4-6-3
  Local device:         mlx5_1
  Local port:           1
  CPCs attempted:       rdmacm, udcm
--------------------------------------------------------------------------

*************** JDFTx 1.6.0 (git hash 42ebbcc2) ***************

Start date and time: Sat Feb  5 22:32:48 2022
Executable jdftx with command-line: -i Alkali.in
Running on hosts (process indices):  d-4-6-3 (0-18)
Divided in process groups (process indices):  0 (0)  1 (1)  2 (2)  3 (3)  4 (4)  5 (5)  6 (6)  7 (7)  8 (8)  9 (9)  10 (10)  11 (11)  12 (12)  13 (13)  14 (14)  15 (15)  16 (16)  17 (17)  18 (18)
Resource initialization completed at t[s]:      0.00
Run totals: 19 processes, 48 threads, 0 GPUs


Input parsed successfully to the following command list (including defaults):

basis kpoint-dependent
coords-type Lattice
core-overlap-check vector
coulomb-interaction Slab 001
davidson-band-ratio 1.1
dump End None
dump-name $INPUT.$VAR
elec-cutoff 20
elec-eigen-algo Davidson
elec-ex-corr gga-PBE
elec-initial-magnetization 0.360000 yes
elec-smearing Fermi 1e-05
electronic-minimize  \
	dirUpdateScheme      FletcherReeves \
	linminMethod         DirUpdateRecommended \
	nIterations          100 \
	history              15 \
	knormThreshold       0 \
	energyDiffThreshold  1e-08 \
	nEnergyDiff          2 \
	alphaTstart          1 \
	alphaTmin            1e-10 \
	updateTestStepSize   yes \
	alphaTreduceFactor   0.1 \
	alphaTincreaseFactor 3 \
	nAlphaAdjustMax      3 \
	wolfeEnergy          0.0001 \
	wolfeGradient        0.9 \
	fdTest               no
electronic-scf  \
	nIterations	10000 \
	energyDiffThreshold	1e-08 \
	residualThreshold	1e-07 \
	mixFraction	0.5 \
	qMetric	0.8 \
	history	10 \
	nEigSteps	2 \
	eigDiffThreshold	1e-08 \
	mixedVariable	Density \
	qKerker	0.8 \
	qKappa	-1 \
	verbose	no \
	mixFractionMag	1.5
exchange-regularization WignerSeitzTruncated
fluid None
fluid-ex-corr (null) lda-PZ
fluid-gummel-loop 10 1.000000e-05
fluid-minimize  \
	dirUpdateScheme      PolakRibiere \
	linminMethod         DirUpdateRecommended \
	nIterations          100 \
	history              15 \
	knormThreshold       0 \
	energyDiffThreshold  0 \
	nEnergyDiff          2 \
	alphaTstart          1 \
	alphaTmin            1e-10 \
	updateTestStepSize   yes \
	alphaTreduceFactor   0.1 \
	alphaTincreaseFactor 3 \
	nAlphaAdjustMax      3 \
	wolfeEnergy          0.0001 \
	wolfeGradient        0.9 \
	fdTest               no
fluid-solvent H2O 55.338 ScalarEOS \
	epsBulk 78.4 \
	pMol 0.92466 \
	epsInf 1.77 \
	Pvap 1.06736e-10 \
	sigmaBulk 4.62e-05 \
	Rvdw 2.61727 \
	Res 1.42 \
	tauNuc 343133 \
	poleEl 15 7 1
forces-output-coords Positions
ion Na   0.000000000000000   0.000000000000000   0.000000000000000 0
ion-species SG15/$ID_ONCV_PBE.upf
ion-width 0
ionic-minimize  \
	dirUpdateScheme      L-BFGS \
	linminMethod         DirUpdateRecommended \
	nIterations          0 \
	history              15 \
	knormThreshold       0.0001 \
	energyDiffThreshold  1e-06 \
	nEnergyDiff          2 \
	alphaTstart          1 \
	alphaTmin            1e-10 \
	updateTestStepSize   yes \
	alphaTreduceFactor   0.1 \
	alphaTincreaseFactor 3 \
	nAlphaAdjustMax      3 \
	wolfeEnergy          0.0001 \
	wolfeGradient        0.9 \
	fdTest               no
kpoint   0.000000000000   0.000000000000   0.000000000000  1.00000000000000
kpoint-folding 12 12 1 
latt-move-scale 1 1 1
latt-scale 4 4 1 
lattice  \
	   4.727486978767153   -2.363743489383575    0.000000000000000  \
	  -0.000000000000000    4.094123819672498    0.000000000000000  \
	   0.000000000000000    0.000000000000000   40.000000000000000 
lattice-minimize  \
	dirUpdateScheme      L-BFGS \
	linminMethod         DirUpdateRecommended \
	nIterations          0 \
	history              15 \
	knormThreshold       0 \
	energyDiffThreshold  1e-06 \
	nEnergyDiff          2 \
	alphaTstart          1 \
	alphaTmin            1e-10 \
	updateTestStepSize   yes \
	alphaTreduceFactor   0.1 \
	alphaTincreaseFactor 3 \
	nAlphaAdjustMax      3 \
	wolfeEnergy          0.0001 \
	wolfeGradient        0.9 \
	fdTest               no
lcao-params -1 1e-06 1e-05
pcm-variant GLSSA13
spintype z-spin
subspace-rotation-factor 1 yes
symmetries automatic
symmetry-threshold 0.0001



---------- Setting up symmetries ----------

Found 24 point-group symmetries of the bravais lattice
Found 24 space-group symmetries with basis
Applied RMS atom displacement 0 bohrs to make symmetries exact.

---------- Initializing the Grid ----------
R = 
[      18.9099     -9.45497            0  ]
[            0      16.3765            0  ]
[            0            0           40  ]
unit cell volume = 12387.1
G =
[   0.332269   0.191835         -0  ]
[          0   0.383671         -0  ]
[         -0         -0    0.15708  ]
Minimum fftbox size, Smin = [  80  80  164  ]
Chosen fftbox size, S = [  80  80  168  ]

---------- Exchange Correlation functional ----------
Initalized PBE GGA exchange.
Initalized PBE GGA correlation.

---------- Setting up pseudopotentials ----------
Width of ionic core gaussian charges (only for fluid interactions / plotting) set to 0

Reading pseudopotential file '/home/gridsan/aligho/DFT/build-Nov24/pseudopotentials/SG15/Na_ONCV_PBE.upf':
  'Na' pseudopotential, 'PBE' functional
  Generated using ONCVPSP code by D. R. Hamann
  Author: Martin Schlipf and Francois Gygi  Date: 150915.
  9 valence electrons, 3 orbitals, 4 projectors, 1992 radial grid points, with lMax = 1
  Transforming local potential to a uniform radial grid of dG=0.02 with 1489 points.
  Transforming nonlocal projectors to a uniform radial grid of dG=0.02 with 432 points.
    2S    l: 0   occupation:  2.0   eigenvalue: -2.085640
    2P    l: 1   occupation:  6.0   eigenvalue: -1.053708
    3S    l: 0   occupation:  1.0   eigenvalue: -0.100838
  Transforming atomic orbitals to a uniform radial grid of dG=0.02 with 432 points.
  Core radius for overlap checks: 2.01 bohrs.
  Reading pulay file /home/gridsan/aligho/DFT/build-Nov24/pseudopotentials/SG15/Na_ONCV_PBE.pulay ... using dE_dnG = -2.946487e-03 computed for Ecut = 20.

Initialized 1 species with 1 total atoms.

Folded 1 k-points by 12x12x1 to 144 k-points.

---------- Setting up k-points, bands, fillings ----------
Reduced to 19 k-points under symmetry. 
Computing the number of bands and number of electrons
Calculating initial fillings.
nElectrons:   9.000000   nBands: 6   nStates: 38

----- Setting up reduced wavefunction bases (one per k-point) -----
average nbasis = 52924.021 , ideal nbasis = 52918.836

---------- Setting up coulomb interaction ----------
Initialized slab truncation along lattice direction 001

---------- Setting up 2D ewald sum ----------
Optimum gaussian width for ewald sums = 10.498040 bohr.
Real space sums over 289 unit cells with max indices [  8  8  0  ]
Reciprocal space sums over 81 terms with max indices [  4  4  0  ]

---------- Allocating electronic variables ----------
Initializing wave functions:  linear combination of atomic orbitals
Note: number of bands (6) exceeds available atomic orbitals (5)
Na pseudo-atom occupations:   s ( 2 1 )  p ( 6 )
[d-4-6-3:97301] 18 more processes have sent help message help-mpi-common-cuda.txt / dlopen failed
[d-4-6-3:97301] Set MCA parameter "orte_base_help_aggregate" to 0 to see all help / error messages
[d-4-6-3:97301] 18 more processes have sent help message help-mpi-btl-openib-cpc-base.txt / no cpcs for port
	FillingsUpdate:  mu: -0.100877610  nElectrons: 9.000000  magneticMoment: [ Abs: 0.36000  Tot: +0.36000 ]
LCAOMinimize: Iter:   0  F: -42.5506698519067683  |grad|_K:  1.128e-06  alpha:  1.000e+00
	FillingsUpdate:  mu: -0.100877390  nElectrons: 9.000000  magneticMoment: [ Abs: 0.36000  Tot: +0.36000 ]
LCAOMinimize: Iter:   1  F: -42.5506698527732183  |grad|_K:  4.863e-09  alpha:  9.947e-01  linmin:  2.188e-04  cgtest: -2.429e-02  t[s]:     14.96
LCAOMinimize: 	Wrong curvature in test step, increasing alphaT to 2.984242e+00.
	FillingsUpdate:  mu: -0.100877390  nElectrons: 9.000000  magneticMoment: [ Abs: 0.36000  Tot: +0.36000 ]
LCAOMinimize: Iter:   2  F: -42.5506698527740070  |grad|_K:  1.185e-10  alpha: -2.124e-02  linmin: -1.651e-03  cgtest:  1.118e-01  t[s]:     19.01
LCAOMinimize: Encountered beta<0, resetting CG.
LCAOMinimize: Converged (|Delta F|<1.000000e-06 for 2 iters).


---- Citations for features of the code used in this run ----

   Software package:
      R. Sundararaman, K. Letchworth-Weaver, K.A. Schwarz, D. Gunceler, Y. Ozhabes and T.A. Arias, 'JDFTx: software for joint density-functional theory', SoftwareX 6, 278 (2017)

   gga-PBE exchange-correlation functional:
      J.P. Perdew, K. Burke and M. Ernzerhof, Phys. Rev. Lett. 77, 3865 (1996)

   Pseudopotentials:
      M Schlipf and F Gygi, Comput. Phys. Commun. 196, 36 (2015)

   Truncated Coulomb potentials:
      R. Sundararaman and T.A. Arias, Phys. Rev. B 87, 165122 (2013)

This list may not be complete. Please suggest additional citations or
report any other bugs at https://github.com/shankar1729/jdftx/issues

Initialization completed successfully at t[s]:     19.16


-------- Electronic minimization -----------
Will mix electronic density at each iteration.
	FillingsUpdate:  mu: -0.100877390  nElectrons: 9.000000  magneticMoment: [ Abs: 0.36000  Tot: +0.36000 ]
	FillingsUpdate:  mu: -0.100914810  nElectrons: 9.000000  magneticMoment: [ Abs: 0.36000  Tot: +0.36000 ]
SCF: Cycle:  0   F: -42.550711712766535   dF: -4.186e-05   |Residual|: 1.886e-03   |deigs|: 1.679e-01  t[s]:     26.74
	FillingsUpdate:  mu: -0.100913435  nElectrons: 9.000000  magneticMoment: [ Abs: 0.36067  Tot: +0.36000 ]
SCF: Cycle:  1   F: -42.550712182890727   dF: -4.701e-07   |Residual|: 8.421e-04   |deigs|: 1.253e-02  t[s]:     32.70
	FillingsUpdate:  mu: -0.100915984  nElectrons: 9.000000  magneticMoment: [ Abs: 0.36051  Tot: +0.36000 ]
SCF: Cycle:  2   F: -42.550712300573906   dF: -1.177e-07   |Residual|: 2.193e-04   |deigs|: 1.789e-03  t[s]:     38.78
	FillingsUpdate:  mu: -0.100914996  nElectrons: 9.000000  magneticMoment: [ Abs: 0.36063  Tot: +0.36000 ]
SCF: Cycle:  3   F: -42.550712331811390   dF: -3.124e-08   |Residual|: 8.233e-05   |deigs|: 2.736e-04  t[s]:     44.94
	FillingsUpdate:  mu: -0.100912020  nElectrons: 9.000000  magneticMoment: [ Abs: 0.36059  Tot: +0.36000 ]
SCF: Cycle:  4   F: -42.550712342179999   dF: -1.037e-08   |Residual|: 5.310e-05   |deigs|: 2.640e-04  t[s]:     51.21
	FillingsUpdate:  mu: -0.100906283  nElectrons: 9.000000  magneticMoment: [ Abs: 0.36061  Tot: +0.36000 ]
SCF: Cycle:  5   F: -42.550712356200385   dF: -1.402e-08   |Residual|: 3.869e-05   |deigs|: 2.597e-04  t[s]:     57.59
	FillingsUpdate:  mu: -0.100901163  nElectrons: 9.000000  magneticMoment: [ Abs: 0.36059  Tot: +0.36000 ]
SCF: Cycle:  6   F: -42.550712360520293   dF: -4.320e-09   |Residual|: 2.693e-05   |deigs|: 1.972e-04  t[s]:     64.09
	FillingsUpdate:  mu: -0.100890015  nElectrons: 9.000000  magneticMoment: [ Abs: 0.36061  Tot: +0.36000 ]
SCF: Cycle:  7   F: -42.550712363678940   dF: -3.159e-09   |Residual|: 2.390e-05   |deigs|: 2.008e-04  t[s]:     70.62
SCF: Converged (|Delta E|<1.000000e-08 for 2 iters).


# Ionic positions in lattice coordinates:
ion Na   0.000000000000000   0.000000000000000   0.000000000000000 0

# Forces in Lattice coordinates:
force Na   0.000000000000000   0.000000000000000   0.000000000000000 0

# Energy components:
   Eewald =       -9.0240130501663280
       EH =       24.7693864370436678
     Eloc =      -60.8132053049764494
      Enl =      -12.9027552718490544
   Epulay =        0.0000012333957556
      Exc =       -6.2107885044215445
       KE =       21.6306637646556723
-------------------------------------
     Etot =      -42.5507106963182835
       TS =        0.0000016673606572
-------------------------------------
        F =      -42.5507123636789402

IonicMinimize: Iter:   0  F: -42.550712363678940  |grad|_K:  0.000e+00  t[s]:     70.88
IonicMinimize: Converged (|grad|_K<1.000000e-04).

#--- Lowdin population analysis ---
# oxidation-state Na +0.000
# magnetic-moments Na +0.360

End date and time: Sat Feb  5 22:33:59 2022  (Duration: 0-0:01:10.95)
Done!
