The alkali metal is Na
scale=2
magnetization=0.74
--------------------------------------------------------------------------
The library attempted to open the following supporting CUDA libraries,
but each of them failed.  CUDA-aware support is disabled.
libcuda.so.1: cannot open shared object file: No such file or directory
libcuda.dylib: cannot open shared object file: No such file or directory
/usr/lib64/libcuda.so.1: cannot open shared object file: No such file or directory
/usr/lib64/libcuda.dylib: cannot open shared object file: No such file or directory
If you are not interested in CUDA-aware support, then run with
--mca opal_warn_on_missing_libcuda 0 to suppress this message.  If you are interested
in CUDA-aware support, then try setting LD_LIBRARY_PATH to the location
of libcuda.so.1 to get passed this issue.
--------------------------------------------------------------------------
--------------------------------------------------------------------------
No OpenFabrics connection schemes reported that they were able to be
used on a specific port.  As such, the openib BTL (OpenFabrics
support) will be disabled for this port.

  Local host:           d-4-8-2
  Local device:         mlx5_1
  Local port:           1
  CPCs attempted:       rdmacm, udcm
--------------------------------------------------------------------------

*************** JDFTx 1.6.0 (git hash 42ebbcc2) ***************

Start date and time: Sat Feb  5 22:34:00 2022
Executable jdftx with command-line: -i Alkali.in
Running on hosts (process indices):  d-4-8-2 (0-18)
Divided in process groups (process indices):  0 (0)  1 (1)  2 (2)  3 (3)  4 (4)  5 (5)  6 (6)  7 (7)  8 (8)  9 (9)  10 (10)  11 (11)  12 (12)  13 (13)  14 (14)  15 (15)  16 (16)  17 (17)  18 (18)
Resource initialization completed at t[s]:      0.00
Run totals: 19 processes, 48 threads, 0 GPUs


Input parsed successfully to the following command list (including defaults):

basis kpoint-dependent
coords-type Lattice
core-overlap-check vector
coulomb-interaction Slab 001
davidson-band-ratio 1.1
dump End None
dump-name $INPUT.$VAR
elec-cutoff 20
elec-eigen-algo Davidson
elec-ex-corr gga-PBE
elec-initial-magnetization 0.740000 yes
elec-smearing Fermi 1e-05
electronic-minimize  \
	dirUpdateScheme      FletcherReeves \
	linminMethod         DirUpdateRecommended \
	nIterations          100 \
	history              15 \
	knormThreshold       0 \
	energyDiffThreshold  1e-08 \
	nEnergyDiff          2 \
	alphaTstart          1 \
	alphaTmin            1e-10 \
	updateTestStepSize   yes \
	alphaTreduceFactor   0.1 \
	alphaTincreaseFactor 3 \
	nAlphaAdjustMax      3 \
	wolfeEnergy          0.0001 \
	wolfeGradient        0.9 \
	fdTest               no
electronic-scf  \
	nIterations	10000 \
	energyDiffThreshold	1e-08 \
	residualThreshold	1e-07 \
	mixFraction	0.5 \
	qMetric	0.8 \
	history	10 \
	nEigSteps	2 \
	eigDiffThreshold	1e-08 \
	mixedVariable	Density \
	qKerker	0.8 \
	qKappa	-1 \
	verbose	no \
	mixFractionMag	1.5
exchange-regularization WignerSeitzTruncated
fluid None
fluid-ex-corr (null) lda-PZ
fluid-gummel-loop 10 1.000000e-05
fluid-minimize  \
	dirUpdateScheme      PolakRibiere \
	linminMethod         DirUpdateRecommended \
	nIterations          100 \
	history              15 \
	knormThreshold       0 \
	energyDiffThreshold  0 \
	nEnergyDiff          2 \
	alphaTstart          1 \
	alphaTmin            1e-10 \
	updateTestStepSize   yes \
	alphaTreduceFactor   0.1 \
	alphaTincreaseFactor 3 \
	nAlphaAdjustMax      3 \
	wolfeEnergy          0.0001 \
	wolfeGradient        0.9 \
	fdTest               no
fluid-solvent H2O 55.338 ScalarEOS \
	epsBulk 78.4 \
	pMol 0.92466 \
	epsInf 1.77 \
	Pvap 1.06736e-10 \
	sigmaBulk 4.62e-05 \
	Rvdw 2.61727 \
	Res 1.42 \
	tauNuc 343133 \
	poleEl 15 7 1
forces-output-coords Positions
ion Na   0.000000000000000   0.000000000000000   0.000000000000000 0
ion-species SG15/$ID_ONCV_PBE.upf
ion-width 0
ionic-minimize  \
	dirUpdateScheme      L-BFGS \
	linminMethod         DirUpdateRecommended \
	nIterations          0 \
	history              15 \
	knormThreshold       0.0001 \
	energyDiffThreshold  1e-06 \
	nEnergyDiff          2 \
	alphaTstart          1 \
	alphaTmin            1e-10 \
	updateTestStepSize   yes \
	alphaTreduceFactor   0.1 \
	alphaTincreaseFactor 3 \
	nAlphaAdjustMax      3 \
	wolfeEnergy          0.0001 \
	wolfeGradient        0.9 \
	fdTest               no
kpoint   0.000000000000   0.000000000000   0.000000000000  1.00000000000000
kpoint-folding 12 12 1 
latt-move-scale 1 1 1
latt-scale 2 2 1 
lattice  \
	   4.727486978767153   -2.363743489383575    0.000000000000000  \
	  -0.000000000000000    4.094123819672498    0.000000000000000  \
	   0.000000000000000    0.000000000000000   40.000000000000000 
lattice-minimize  \
	dirUpdateScheme      L-BFGS \
	linminMethod         DirUpdateRecommended \
	nIterations          0 \
	history              15 \
	knormThreshold       0 \
	energyDiffThreshold  1e-06 \
	nEnergyDiff          2 \
	alphaTstart          1 \
	alphaTmin            1e-10 \
	updateTestStepSize   yes \
	alphaTreduceFactor   0.1 \
	alphaTincreaseFactor 3 \
	nAlphaAdjustMax      3 \
	wolfeEnergy          0.0001 \
	wolfeGradient        0.9 \
	fdTest               no
lcao-params -1 1e-06 1e-05
pcm-variant GLSSA13
spintype z-spin
subspace-rotation-factor 1 yes
symmetries automatic
symmetry-threshold 0.0001



---------- Setting up symmetries ----------

Found 24 point-group symmetries of the bravais lattice
Found 24 space-group symmetries with basis
Applied RMS atom displacement 0 bohrs to make symmetries exact.

---------- Initializing the Grid ----------
R = 
[      9.45497     -4.72749            0  ]
[            0      8.18825            0  ]
[            0            0           40  ]
unit cell volume = 3096.79
G =
[   0.664538   0.383671         -0  ]
[          0   0.767342         -0  ]
[         -0         -0    0.15708  ]
Minimum fftbox size, Smin = [  40  40  164  ]
Chosen fftbox size, S = [  40  40  168  ]

---------- Exchange Correlation functional ----------
Initalized PBE GGA exchange.
Initalized PBE GGA correlation.

---------- Setting up pseudopotentials ----------
Width of ionic core gaussian charges (only for fluid interactions / plotting) set to 0

Reading pseudopotential file '/home/gridsan/aligho/DFT/build-Nov24/pseudopotentials/SG15/Na_ONCV_PBE.upf':
  'Na' pseudopotential, 'PBE' functional
  Generated using ONCVPSP code by D. R. Hamann
  Author: Martin Schlipf and Francois Gygi  Date: 150915.
  9 valence electrons, 3 orbitals, 4 projectors, 1992 radial grid points, with lMax = 1
  Transforming local potential to a uniform radial grid of dG=0.02 with 1489 points.
  Transforming nonlocal projectors to a uniform radial grid of dG=0.02 with 432 points.
    2S    l: 0   occupation:  2.0   eigenvalue: -2.085640
    2P    l: 1   occupation:  6.0   eigenvalue: -1.053708
    3S    l: 0   occupation:  1.0   eigenvalue: -0.100838
  Transforming atomic orbitals to a uniform radial grid of dG=0.02 with 432 points.
  Core radius for overlap checks: 2.01 bohrs.
  Reading pulay file /home/gridsan/aligho/DFT/build-Nov24/pseudopotentials/SG15/Na_ONCV_PBE.pulay ... using dE_dnG = -2.946487e-03 computed for Ecut = 20.

Initialized 1 species with 1 total atoms.

Folded 1 k-points by 12x12x1 to 144 k-points.

---------- Setting up k-points, bands, fillings ----------
Reduced to 19 k-points under symmetry. 
Computing the number of bands and number of electrons
Calculating initial fillings.
nElectrons:   9.000000   nBands: 6   nStates: 38

----- Setting up reduced wavefunction bases (one per k-point) -----
average nbasis = 13230.521 , ideal nbasis = 13229.709

---------- Setting up coulomb interaction ----------
Initialized slab truncation along lattice direction 001

---------- Setting up 2D ewald sum ----------
Optimum gaussian width for ewald sums = 5.249020 bohr.
Real space sums over 289 unit cells with max indices [  8  8  0  ]
Reciprocal space sums over 81 terms with max indices [  4  4  0  ]

---------- Allocating electronic variables ----------
Initializing wave functions:  linear combination of atomic orbitals
Note: number of bands (6) exceeds available atomic orbitals (5)
Na pseudo-atom occupations:   s ( 2 1 )  p ( 6 )
	FillingsUpdate:  mu: -0.107161458  nElectrons: 9.000000  magneticMoment: [ Abs: 0.74000  Tot: +0.74000 ]
LCAOMinimize: Iter:   0  F: -42.5610172094782087  |grad|_K:  1.563e-05  alpha:  1.000e+00
	FillingsUpdate:  mu: -0.107159497  nElectrons: 9.000000  magneticMoment: [ Abs: 0.74000  Tot: +0.74000 ]
LCAOMinimize: Iter:   1  F: -42.5610173753492944  |grad|_K:  1.069e-07  alpha:  9.928e-01  linmin: -1.731e-02  cgtest:  4.942e-01  t[s]:      4.44
LCAOMinimize: Encountered beta<0, resetting CG.
[d-4-8-2:12768] 18 more processes have sent help message help-mpi-common-cuda.txt / dlopen failed
[d-4-8-2:12768] Set MCA parameter "orte_base_help_aggregate" to 0 to see all help / error messages
[d-4-8-2:12768] 18 more processes have sent help message help-mpi-btl-openib-cpc-base.txt / no cpcs for port
	FillingsUpdate:  mu: -0.107159508  nElectrons: 9.000000  magneticMoment: [ Abs: 0.74000  Tot: +0.74000 ]
LCAOMinimize: Iter:   2  F: -42.5610173753567054  |grad|_K:  1.373e-08  alpha:  1.128e+00  linmin:  8.379e-02  cgtest: -9.993e-01  t[s]:      5.63
LCAOMinimize: Converged (|Delta F|<1.000000e-06 for 2 iters).


---- Citations for features of the code used in this run ----

   Software package:
      R. Sundararaman, K. Letchworth-Weaver, K.A. Schwarz, D. Gunceler, Y. Ozhabes and T.A. Arias, 'JDFTx: software for joint density-functional theory', SoftwareX 6, 278 (2017)

   gga-PBE exchange-correlation functional:
      J.P. Perdew, K. Burke and M. Ernzerhof, Phys. Rev. Lett. 77, 3865 (1996)

   Pseudopotentials:
      M Schlipf and F Gygi, Comput. Phys. Commun. 196, 36 (2015)

   Truncated Coulomb potentials:
      R. Sundararaman and T.A. Arias, Phys. Rev. B 87, 165122 (2013)

This list may not be complete. Please suggest additional citations or
report any other bugs at https://github.com/shankar1729/jdftx/issues

Initialization completed successfully at t[s]:      5.70


-------- Electronic minimization -----------
Will mix electronic density at each iteration.
	FillingsUpdate:  mu: -0.107159508  nElectrons: 9.000000  magneticMoment: [ Abs: 0.74000  Tot: +0.74000 ]
	FillingsUpdate:  mu: -0.109797785  nElectrons: 9.000000  magneticMoment: [ Abs: 0.74000  Tot: +0.74000 ]
SCF: Cycle:  0   F: -42.566308842746082   dF: -5.291e-03   |Residual|: 1.109e-02   |deigs|: 1.700e-01  t[s]:      7.90
	FillingsUpdate:  mu: -0.109395126  nElectrons: 9.000000  magneticMoment: [ Abs: 0.74001  Tot: +0.74000 ]
SCF: Cycle:  1   F: -42.566524765362701   dF: -2.159e-04   |Residual|: 7.493e-03   |deigs|: 8.935e-03  t[s]:      9.57
	FillingsUpdate:  mu: -0.109996214  nElectrons: 9.000000  magneticMoment: [ Abs: 0.74143  Tot: +0.74000 ]
SCF: Cycle:  2   F: -42.566578923816778   dF: -5.416e-05   |Residual|: 4.988e-03   |deigs|: 5.928e-03  t[s]:     11.25
	FillingsUpdate:  mu: -0.108887084  nElectrons: 9.000000  magneticMoment: [ Abs: 0.74026  Tot: +0.74000 ]
SCF: Cycle:  3   F: -42.566584612744954   dF: -5.689e-06   |Residual|: 2.851e-03   |deigs|: 6.386e-03  t[s]:     12.97
	FillingsUpdate:  mu: -0.108584661  nElectrons: 9.000000  magneticMoment: [ Abs: 0.74023  Tot: +0.74000 ]
SCF: Cycle:  4   F: -42.566599544771663   dF: -1.493e-05   |Residual|: 1.079e-03   |deigs|: 3.095e-03  t[s]:     14.79
	FillingsUpdate:  mu: -0.108454839  nElectrons: 9.000000  magneticMoment: [ Abs: 0.74047  Tot: +0.74000 ]
SCF: Cycle:  5   F: -42.566604855622600   dF: -5.311e-06   |Residual|: 8.146e-04   |deigs|: 2.126e-03  t[s]:     16.54
	FillingsUpdate:  mu: -0.107858033  nElectrons: 9.000000  magneticMoment: [ Abs: 0.74044  Tot: +0.74000 ]
SCF: Cycle:  6   F: -42.566606416653904   dF: -1.561e-06   |Residual|: 6.289e-04   |deigs|: 8.424e-04  t[s]:     18.37
	FillingsUpdate:  mu: -0.107012514  nElectrons: 9.000000  magneticMoment: [ Abs: 0.74214  Tot: +0.74000 ]
SCF: Cycle:  7   F: -42.566605344445421   dF: +1.072e-06   |Residual|: 4.669e-04   |deigs|: 9.902e-04  t[s]:     20.19
	FillingsUpdate:  mu: -0.106209383  nElectrons: 9.000000  magneticMoment: [ Abs: 0.74219  Tot: +0.74000 ]
SCF: Cycle:  8   F: -42.566605626939548   dF: -2.825e-07   |Residual|: 3.861e-04   |deigs|: 1.099e-03  t[s]:     22.09
	FillingsUpdate:  mu: -0.105769558  nElectrons: 9.000000  magneticMoment: [ Abs: 0.74095  Tot: +0.74000 ]
SCF: Cycle:  9   F: -42.566607417228632   dF: -1.790e-06   |Residual|: 3.288e-04   |deigs|: 5.453e-04  t[s]:     23.98
	FillingsUpdate:  mu: -0.105802514  nElectrons: 9.000000  magneticMoment: [ Abs: 0.74084  Tot: +0.74000 ]
SCF: Cycle: 10   F: -42.566608699297930   dF: -1.282e-06   |Residual|: 2.291e-04   |deigs|: 2.138e-04  t[s]:     25.95
	FillingsUpdate:  mu: -0.105237297  nElectrons: 9.000000  magneticMoment: [ Abs: 0.74156  Tot: +0.74000 ]
SCF: Cycle: 11   F: -42.566608105015980   dF: +5.943e-07   |Residual|: 2.140e-04   |deigs|: 6.883e-04  t[s]:     27.87
	FillingsUpdate:  mu: -0.104785379  nElectrons: 9.000000  magneticMoment: [ Abs: 0.74116  Tot: +0.74000 ]
SCF: Cycle: 12   F: -42.566607665638713   dF: +4.394e-07   |Residual|: 1.907e-04   |deigs|: 4.678e-04  t[s]:     29.81
	FillingsUpdate:  mu: -0.104414305  nElectrons: 9.000000  magneticMoment: [ Abs: 0.74182  Tot: +0.74000 ]
SCF: Cycle: 13   F: -42.566608496221676   dF: -8.306e-07   |Residual|: 1.705e-04   |deigs|: 3.815e-04  t[s]:     31.78
	FillingsUpdate:  mu: -0.104066730  nElectrons: 9.000000  magneticMoment: [ Abs: 0.74174  Tot: +0.74000 ]
SCF: Cycle: 14   F: -42.566609168481726   dF: -6.723e-07   |Residual|: 1.564e-04   |deigs|: 3.480e-04  t[s]:     33.71
	FillingsUpdate:  mu: -0.103421722  nElectrons: 9.000000  magneticMoment: [ Abs: 0.74091  Tot: +0.74000 ]
SCF: Cycle: 15   F: -42.566609764600258   dF: -5.961e-07   |Residual|: 1.414e-04   |deigs|: 6.749e-04  t[s]:     35.64
	FillingsUpdate:  mu: -0.103101540  nElectrons: 9.000000  magneticMoment: [ Abs: 0.74088  Tot: +0.74000 ]
SCF: Cycle: 16   F: -42.566609964079831   dF: -1.995e-07   |Residual|: 1.269e-04   |deigs|: 3.318e-04  t[s]:     37.45
	FillingsUpdate:  mu: -0.102667291  nElectrons: 9.000000  magneticMoment: [ Abs: 0.74070  Tot: +0.74000 ]
SCF: Cycle: 17   F: -42.566610266927306   dF: -3.028e-07   |Residual|: 7.936e-05   |deigs|: 4.328e-04  t[s]:     39.36
	FillingsUpdate:  mu: -0.102534781  nElectrons: 9.000000  magneticMoment: [ Abs: 0.74052  Tot: +0.74000 ]
SCF: Cycle: 18   F: -42.566610349168748   dF: -8.224e-08   |Residual|: 5.402e-05   |deigs|: 7.562e-04  t[s]:     41.22
	FillingsUpdate:  mu: -0.102491468  nElectrons: 9.000000  magneticMoment: [ Abs: 0.74060  Tot: +0.74000 ]
SCF: Cycle: 19   F: -42.566610382227054   dF: -3.306e-08   |Residual|: 3.277e-05   |deigs|: 1.763e-04  t[s]:     43.08
	FillingsUpdate:  mu: -0.102470918  nElectrons: 9.000000  magneticMoment: [ Abs: 0.74058  Tot: +0.74000 ]
SCF: Cycle: 20   F: -42.566610397566080   dF: -1.534e-08   |Residual|: 2.062e-05   |deigs|: 1.201e-04  t[s]:     44.94
	FillingsUpdate:  mu: -0.102466793  nElectrons: 9.000000  magneticMoment: [ Abs: 0.74050  Tot: +0.74000 ]
SCF: Cycle: 21   F: -42.566610404777322   dF: -7.211e-09   |Residual|: 1.241e-05   |deigs|: 4.908e-04  t[s]:     46.84
	FillingsUpdate:  mu: -0.102464246  nElectrons: 9.000000  magneticMoment: [ Abs: 0.74048  Tot: +0.74000 ]
SCF: Cycle: 22   F: -42.566610407754645   dF: -2.977e-09   |Residual|: 8.079e-06   |deigs|: 5.689e-05  t[s]:     48.68
SCF: Converged (|Delta E|<1.000000e-08 for 2 iters).


# Ionic positions in lattice coordinates:
ion Na   0.000000000000000   0.000000000000000   0.000000000000000 0

# Forces in Lattice coordinates:
force Na  -0.000000000000000  -0.000000000000000   0.000000000000000 0

# Energy components:
   Eewald =      -18.0480261003326561
       EH =       15.7494246082420801
     Eloc =      -42.7628492027996145
      Enl =      -12.9144862518192554
   Epulay =        0.0000007725295140
      Exc =       -6.2214879444638553
       KE =       21.6308140723719973
-------------------------------------
     Etot =      -42.5666100462717978
       TS =        0.0000003614828468
-------------------------------------
        F =      -42.5666104077546450

IonicMinimize: Iter:   0  F: -42.566610407754645  |grad|_K:  0.000e+00  t[s]:     48.75
IonicMinimize: Converged (|grad|_K<1.000000e-04).

#--- Lowdin population analysis ---
# oxidation-state Na +0.080
# magnetic-moments Na +0.663

End date and time: Sat Feb  5 22:34:49 2022  (Duration: 0-0:00:48.77)
Done!
scale=3
magnetization=0.74
--------------------------------------------------------------------------
The library attempted to open the following supporting CUDA libraries,
but each of them failed.  CUDA-aware support is disabled.
libcuda.so.1: cannot open shared object file: No such file or directory
libcuda.dylib: cannot open shared object file: No such file or directory
/usr/lib64/libcuda.so.1: cannot open shared object file: No such file or directory
/usr/lib64/libcuda.dylib: cannot open shared object file: No such file or directory
If you are not interested in CUDA-aware support, then run with
--mca opal_warn_on_missing_libcuda 0 to suppress this message.  If you are interested
in CUDA-aware support, then try setting LD_LIBRARY_PATH to the location
of libcuda.so.1 to get passed this issue.
--------------------------------------------------------------------------
--------------------------------------------------------------------------
No OpenFabrics connection schemes reported that they were able to be
used on a specific port.  As such, the openib BTL (OpenFabrics
support) will be disabled for this port.

  Local host:           d-4-8-2
  Local device:         mlx5_1
  Local port:           1
  CPCs attempted:       rdmacm, udcm
--------------------------------------------------------------------------

*************** JDFTx 1.6.0 (git hash 42ebbcc2) ***************

Start date and time: Sat Feb  5 22:34:50 2022
Executable jdftx with command-line: -i Alkali.in
Running on hosts (process indices):  d-4-8-2 (0-18)
Divided in process groups (process indices):  0 (0)  1 (1)  2 (2)  3 (3)  4 (4)  5 (5)  6 (6)  7 (7)  8 (8)  9 (9)  10 (10)  11 (11)  12 (12)  13 (13)  14 (14)  15 (15)  16 (16)  17 (17)  18 (18)
Resource initialization completed at t[s]:      0.00
Run totals: 19 processes, 48 threads, 0 GPUs


Input parsed successfully to the following command list (including defaults):

basis kpoint-dependent
coords-type Lattice
core-overlap-check vector
coulomb-interaction Slab 001
davidson-band-ratio 1.1
dump End None
dump-name $INPUT.$VAR
elec-cutoff 20
elec-eigen-algo Davidson
elec-ex-corr gga-PBE
elec-initial-magnetization 0.740000 yes
elec-smearing Fermi 1e-05
electronic-minimize  \
	dirUpdateScheme      FletcherReeves \
	linminMethod         DirUpdateRecommended \
	nIterations          100 \
	history              15 \
	knormThreshold       0 \
	energyDiffThreshold  1e-08 \
	nEnergyDiff          2 \
	alphaTstart          1 \
	alphaTmin            1e-10 \
	updateTestStepSize   yes \
	alphaTreduceFactor   0.1 \
	alphaTincreaseFactor 3 \
	nAlphaAdjustMax      3 \
	wolfeEnergy          0.0001 \
	wolfeGradient        0.9 \
	fdTest               no
electronic-scf  \
	nIterations	10000 \
	energyDiffThreshold	1e-08 \
	residualThreshold	1e-07 \
	mixFraction	0.5 \
	qMetric	0.8 \
	history	10 \
	nEigSteps	2 \
	eigDiffThreshold	1e-08 \
	mixedVariable	Density \
	qKerker	0.8 \
	qKappa	-1 \
	verbose	no \
	mixFractionMag	1.5
exchange-regularization WignerSeitzTruncated
fluid None
fluid-ex-corr (null) lda-PZ
fluid-gummel-loop 10 1.000000e-05
fluid-minimize  \
	dirUpdateScheme      PolakRibiere \
	linminMethod         DirUpdateRecommended \
	nIterations          100 \
	history              15 \
	knormThreshold       0 \
	energyDiffThreshold  0 \
	nEnergyDiff          2 \
	alphaTstart          1 \
	alphaTmin            1e-10 \
	updateTestStepSize   yes \
	alphaTreduceFactor   0.1 \
	alphaTincreaseFactor 3 \
	nAlphaAdjustMax      3 \
	wolfeEnergy          0.0001 \
	wolfeGradient        0.9 \
	fdTest               no
fluid-solvent H2O 55.338 ScalarEOS \
	epsBulk 78.4 \
	pMol 0.92466 \
	epsInf 1.77 \
	Pvap 1.06736e-10 \
	sigmaBulk 4.62e-05 \
	Rvdw 2.61727 \
	Res 1.42 \
	tauNuc 343133 \
	poleEl 15 7 1
forces-output-coords Positions
ion Na   0.000000000000000   0.000000000000000   0.000000000000000 0
ion-species SG15/$ID_ONCV_PBE.upf
ion-width 0
ionic-minimize  \
	dirUpdateScheme      L-BFGS \
	linminMethod         DirUpdateRecommended \
	nIterations          0 \
	history              15 \
	knormThreshold       0.0001 \
	energyDiffThreshold  1e-06 \
	nEnergyDiff          2 \
	alphaTstart          1 \
	alphaTmin            1e-10 \
	updateTestStepSize   yes \
	alphaTreduceFactor   0.1 \
	alphaTincreaseFactor 3 \
	nAlphaAdjustMax      3 \
	wolfeEnergy          0.0001 \
	wolfeGradient        0.9 \
	fdTest               no
kpoint   0.000000000000   0.000000000000   0.000000000000  1.00000000000000
kpoint-folding 12 12 1 
latt-move-scale 1 1 1
latt-scale 3 3 1 
lattice  \
	   4.727486978767153   -2.363743489383575    0.000000000000000  \
	  -0.000000000000000    4.094123819672498    0.000000000000000  \
	   0.000000000000000    0.000000000000000   40.000000000000000 
lattice-minimize  \
	dirUpdateScheme      L-BFGS \
	linminMethod         DirUpdateRecommended \
	nIterations          0 \
	history              15 \
	knormThreshold       0 \
	energyDiffThreshold  1e-06 \
	nEnergyDiff          2 \
	alphaTstart          1 \
	alphaTmin            1e-10 \
	updateTestStepSize   yes \
	alphaTreduceFactor   0.1 \
	alphaTincreaseFactor 3 \
	nAlphaAdjustMax      3 \
	wolfeEnergy          0.0001 \
	wolfeGradient        0.9 \
	fdTest               no
lcao-params -1 1e-06 1e-05
pcm-variant GLSSA13
spintype z-spin
subspace-rotation-factor 1 yes
symmetries automatic
symmetry-threshold 0.0001



---------- Setting up symmetries ----------

Found 24 point-group symmetries of the bravais lattice
Found 24 space-group symmetries with basis
Applied RMS atom displacement 0 bohrs to make symmetries exact.

---------- Initializing the Grid ----------
R = 
[      14.1825     -7.09123            0  ]
[            0      12.2824            0  ]
[            0            0           40  ]
unit cell volume = 6967.77
G =
[   0.443025   0.255781         -0  ]
[          0   0.511561         -0  ]
[         -0         -0    0.15708  ]
Minimum fftbox size, Smin = [  60  60  164  ]
Chosen fftbox size, S = [  60  60  168  ]

---------- Exchange Correlation functional ----------
Initalized PBE GGA exchange.
Initalized PBE GGA correlation.

---------- Setting up pseudopotentials ----------
Width of ionic core gaussian charges (only for fluid interactions / plotting) set to 0

Reading pseudopotential file '/home/gridsan/aligho/DFT/build-Nov24/pseudopotentials/SG15/Na_ONCV_PBE.upf':
  'Na' pseudopotential, 'PBE' functional
  Generated using ONCVPSP code by D. R. Hamann
  Author: Martin Schlipf and Francois Gygi  Date: 150915.
  9 valence electrons, 3 orbitals, 4 projectors, 1992 radial grid points, with lMax = 1
  Transforming local potential to a uniform radial grid of dG=0.02 with 1489 points.
  Transforming nonlocal projectors to a uniform radial grid of dG=0.02 with 432 points.
    2S    l: 0   occupation:  2.0   eigenvalue: -2.085640
    2P    l: 1   occupation:  6.0   eigenvalue: -1.053708
    3S    l: 0   occupation:  1.0   eigenvalue: -0.100838
  Transforming atomic orbitals to a uniform radial grid of dG=0.02 with 432 points.
  Core radius for overlap checks: 2.01 bohrs.
  Reading pulay file /home/gridsan/aligho/DFT/build-Nov24/pseudopotentials/SG15/Na_ONCV_PBE.pulay ... using dE_dnG = -2.946487e-03 computed for Ecut = 20.

Initialized 1 species with 1 total atoms.

Folded 1 k-points by 12x12x1 to 144 k-points.

---------- Setting up k-points, bands, fillings ----------
Reduced to 19 k-points under symmetry. 
Computing the number of bands and number of electrons
Calculating initial fillings.
nElectrons:   9.000000   nBands: 6   nStates: 38

----- Setting up reduced wavefunction bases (one per k-point) -----
average nbasis = 29766.104 , ideal nbasis = 29766.845

---------- Setting up coulomb interaction ----------
Initialized slab truncation along lattice direction 001

---------- Setting up 2D ewald sum ----------
Optimum gaussian width for ewald sums = 7.873530 bohr.
Real space sums over 289 unit cells with max indices [  8  8  0  ]
Reciprocal space sums over 81 terms with max indices [  4  4  0  ]

---------- Allocating electronic variables ----------
Initializing wave functions:  linear combination of atomic orbitals
Note: number of bands (6) exceeds available atomic orbitals (5)
Na pseudo-atom occupations:   s ( 2 1 )  p ( 6 )
[d-4-8-2:56616] 18 more processes have sent help message help-mpi-common-cuda.txt / dlopen failed
[d-4-8-2:56616] Set MCA parameter "orte_base_help_aggregate" to 0 to see all help / error messages
[d-4-8-2:56616] 18 more processes have sent help message help-mpi-btl-openib-cpc-base.txt / no cpcs for port
	FillingsUpdate:  mu: -0.101932976  nElectrons: 9.000000  magneticMoment: [ Abs: 0.74000  Tot: +0.74000 ]
LCAOMinimize: Iter:   0  F: -42.5550172029134472  |grad|_K:  5.087e-06  alpha:  1.000e+00
	FillingsUpdate:  mu: -0.101931868  nElectrons: 9.000000  magneticMoment: [ Abs: 0.74000  Tot: +0.74000 ]
LCAOMinimize: Iter:   1  F: -42.5550172205399093  |grad|_K:  2.276e-08  alpha:  9.960e-01  linmin: -6.265e-03  cgtest:  2.274e-01  t[s]:      8.62
LCAOMinimize: Encountered beta<0, resetting CG.
LCAOMinimize: 	Step increased F by 3.197442e-13, reducing alpha to 3.533253e-02.
LCAOMinimize: 	Step increased F by 5.329071e-13, reducing alpha to 3.533253e-03.
LCAOMinimize: 	Step increased F by 1.563194e-13, reducing alpha to 3.533253e-04.
LCAOMinimize: 	Step failed to reduce F after 3 attempts. Quitting step.
LCAOMinimize: 	Undoing step.
LCAOMinimize: 	Step failed along negative gradient direction.
LCAOMinimize: Probably at roundoff error limit. (Stopping)


---- Citations for features of the code used in this run ----

   Software package:
      R. Sundararaman, K. Letchworth-Weaver, K.A. Schwarz, D. Gunceler, Y. Ozhabes and T.A. Arias, 'JDFTx: software for joint density-functional theory', SoftwareX 6, 278 (2017)

   gga-PBE exchange-correlation functional:
      J.P. Perdew, K. Burke and M. Ernzerhof, Phys. Rev. Lett. 77, 3865 (1996)

   Pseudopotentials:
      M Schlipf and F Gygi, Comput. Phys. Commun. 196, 36 (2015)

   Truncated Coulomb potentials:
      R. Sundararaman and T.A. Arias, Phys. Rev. B 87, 165122 (2013)

This list may not be complete. Please suggest additional citations or
report any other bugs at https://github.com/shankar1729/jdftx/issues

Initialization completed successfully at t[s]:     15.22


-------- Electronic minimization -----------
Will mix electronic density at each iteration.
	FillingsUpdate:  mu: -0.101931868  nElectrons: 9.000000  magneticMoment: [ Abs: 0.74000  Tot: +0.74000 ]
	FillingsUpdate:  mu: -0.102159712  nElectrons: 9.000000  magneticMoment: [ Abs: 0.74000  Tot: +0.74000 ]
SCF: Cycle:  0   F: -42.555277363579876   dF: -2.601e-04   |Residual|: 2.314e-03   |deigs|: 1.694e-01  t[s]:     19.63
	FillingsUpdate:  mu: -0.102212692  nElectrons: 9.000000  magneticMoment: [ Abs: 0.74180  Tot: +0.74000 ]
SCF: Cycle:  1   F: -42.555280369529179   dF: -3.006e-06   |Residual|: 8.909e-04   |deigs|: 8.649e-03  t[s]:     23.08
	FillingsUpdate:  mu: -0.102137450  nElectrons: 9.000000  magneticMoment: [ Abs: 0.74134  Tot: +0.74000 ]
SCF: Cycle:  2   F: -42.555281031571020   dF: -6.620e-07   |Residual|: 4.618e-04   |deigs|: 2.607e-03  t[s]:     26.57
	FillingsUpdate:  mu: -0.102103575  nElectrons: 9.000000  magneticMoment: [ Abs: 0.74164  Tot: +0.74000 ]
SCF: Cycle:  3   F: -42.555281377904080   dF: -3.463e-07   |Residual|: 2.630e-04   |deigs|: 1.193e-03  t[s]:     30.17
	FillingsUpdate:  mu: -0.102055509  nElectrons: 9.000000  magneticMoment: [ Abs: 0.74150  Tot: +0.74000 ]
SCF: Cycle:  4   F: -42.555281550509882   dF: -1.726e-07   |Residual|: 2.018e-04   |deigs|: 5.584e-04  t[s]:     33.78
	FillingsUpdate:  mu: -0.101946131  nElectrons: 9.000000  magneticMoment: [ Abs: 0.74150  Tot: +0.74000 ]
SCF: Cycle:  5   F: -42.555281775424270   dF: -2.249e-07   |Residual|: 1.381e-04   |deigs|: 6.906e-04  t[s]:     37.44
	FillingsUpdate:  mu: -0.101885790  nElectrons: 9.000000  magneticMoment: [ Abs: 0.74151  Tot: +0.74000 ]
SCF: Cycle:  6   F: -42.555281871009626   dF: -9.559e-08   |Residual|: 1.042e-04   |deigs|: 9.178e-04  t[s]:     41.20
	FillingsUpdate:  mu: -0.101834042  nElectrons: 9.000000  magneticMoment: [ Abs: 0.74152  Tot: +0.74000 ]
SCF: Cycle:  7   F: -42.555281952889587   dF: -8.188e-08   |Residual|: 8.093e-05   |deigs|: 4.548e-04  t[s]:     44.93
	FillingsUpdate:  mu: -0.101806883  nElectrons: 9.000000  magneticMoment: [ Abs: 0.74148  Tot: +0.74000 ]
SCF: Cycle:  8   F: -42.555282002900732   dF: -5.001e-08   |Residual|: 6.576e-05   |deigs|: 4.293e-04  t[s]:     48.73
	FillingsUpdate:  mu: -0.101757509  nElectrons: 9.000000  magneticMoment: [ Abs: 0.74167  Tot: +0.74000 ]
SCF: Cycle:  9   F: -42.555281920259191   dF: +8.264e-08   |Residual|: 5.266e-05   |deigs|: 2.512e-04  t[s]:     52.63
	FillingsUpdate:  mu: -0.101737344  nElectrons: 9.000000  magneticMoment: [ Abs: 0.74161  Tot: +0.74000 ]
SCF: Cycle: 10   F: -42.555281854829005   dF: +6.543e-08   |Residual|: 4.494e-05   |deigs|: 1.925e-04  t[s]:     56.62
	FillingsUpdate:  mu: -0.101691373  nElectrons: 9.000000  magneticMoment: [ Abs: 0.74162  Tot: +0.74000 ]
SCF: Cycle: 11   F: -42.555281705929083   dF: +1.489e-07   |Residual|: 3.598e-05   |deigs|: 1.524e-04  t[s]:     60.59
	FillingsUpdate:  mu: -0.101674452  nElectrons: 9.000000  magneticMoment: [ Abs: 0.74177  Tot: +0.74000 ]
SCF: Cycle: 12   F: -42.555281992880680   dF: -2.870e-07   |Residual|: 3.536e-05   |deigs|: 7.209e-05  t[s]:     64.50
	FillingsUpdate:  mu: -0.101603910  nElectrons: 9.000000  magneticMoment: [ Abs: 0.74185  Tot: +0.74000 ]
SCF: Cycle: 13   F: -42.555282000601700   dF: -7.721e-09   |Residual|: 3.038e-05   |deigs|: 8.691e-05  t[s]:     68.43
	FillingsUpdate:  mu: -0.101496324  nElectrons: 9.000000  magneticMoment: [ Abs: 0.74180  Tot: +0.74000 ]
SCF: Cycle: 14   F: -42.555281949973278   dF: +5.063e-08   |Residual|: 3.147e-05   |deigs|: 1.275e-04  t[s]:     72.49
	FillingsUpdate:  mu: -0.101446489  nElectrons: 9.000000  magneticMoment: [ Abs: 0.74168  Tot: +0.74000 ]
SCF: Cycle: 15   F: -42.555282016869455   dF: -6.690e-08   |Residual|: 2.875e-05   |deigs|: 9.010e-05  t[s]:     76.47
	FillingsUpdate:  mu: -0.101441028  nElectrons: 9.000000  magneticMoment: [ Abs: 0.74158  Tot: +0.74000 ]
SCF: Cycle: 16   F: -42.555282053114929   dF: -3.625e-08   |Residual|: 2.218e-05   |deigs|: 6.477e-05  t[s]:     80.45
	FillingsUpdate:  mu: -0.101394874  nElectrons: 9.000000  magneticMoment: [ Abs: 0.74155  Tot: +0.74000 ]
SCF: Cycle: 17   F: -42.555282080138369   dF: -2.702e-08   |Residual|: 1.716e-05   |deigs|: 5.332e-05  t[s]:     84.41
	FillingsUpdate:  mu: -0.101358022  nElectrons: 9.000000  magneticMoment: [ Abs: 0.74151  Tot: +0.74000 ]
SCF: Cycle: 18   F: -42.555282102906020   dF: -2.277e-08   |Residual|: 1.209e-05   |deigs|: 3.779e-05  t[s]:     88.29
	FillingsUpdate:  mu: -0.101360852  nElectrons: 9.000000  magneticMoment: [ Abs: 0.74151  Tot: +0.74000 ]
SCF: Cycle: 19   F: -42.555282109461871   dF: -6.556e-09   |Residual|: 8.380e-06   |deigs|: 1.533e-05  t[s]:     92.17
	FillingsUpdate:  mu: -0.101357178  nElectrons: 9.000000  magneticMoment: [ Abs: 0.74151  Tot: +0.74000 ]
SCF: Cycle: 20   F: -42.555282113888566   dF: -4.427e-09   |Residual|: 5.330e-06   |deigs|: 9.351e-06  t[s]:     96.16
SCF: Converged (|Delta E|<1.000000e-08 for 2 iters).


# Ionic positions in lattice coordinates:
ion Na   0.000000000000000   0.000000000000000   0.000000000000000 0

# Forces in Lattice coordinates:
force Na  -0.000000000000000  -0.000000000000000   0.000000000000000 0

# Energy components:
   Eewald =      -12.0320174002217755
       EH =       21.7616136326252203
     Eloc =      -54.7970230508375735
      Enl =      -12.9042793535735054
   Epulay =       -0.0000003132867683
      Exc =       -6.2141999089172000
       KE =       21.6306245748733090
-------------------------------------
     Etot =      -42.5552818193382905
       TS =        0.0000002945502791
-------------------------------------
        F =      -42.5552821138885662

IonicMinimize: Iter:   0  F: -42.555282113888566  |grad|_K:  0.000e+00  t[s]:     96.30
IonicMinimize: Converged (|grad|_K<1.000000e-04).

#--- Lowdin population analysis ---
# oxidation-state Na +0.002
# magnetic-moments Na +0.738

End date and time: Sat Feb  5 22:36:26 2022  (Duration: 0-0:01:36.35)
Done!
scale=4
magnetization=0.74
--------------------------------------------------------------------------
The library attempted to open the following supporting CUDA libraries,
but each of them failed.  CUDA-aware support is disabled.
libcuda.so.1: cannot open shared object file: No such file or directory
libcuda.dylib: cannot open shared object file: No such file or directory
/usr/lib64/libcuda.so.1: cannot open shared object file: No such file or directory
/usr/lib64/libcuda.dylib: cannot open shared object file: No such file or directory
If you are not interested in CUDA-aware support, then run with
--mca opal_warn_on_missing_libcuda 0 to suppress this message.  If you are interested
in CUDA-aware support, then try setting LD_LIBRARY_PATH to the location
of libcuda.so.1 to get passed this issue.
--------------------------------------------------------------------------
--------------------------------------------------------------------------
No OpenFabrics connection schemes reported that they were able to be
used on a specific port.  As such, the openib BTL (OpenFabrics
support) will be disabled for this port.

  Local host:           d-4-8-2
  Local device:         mlx5_1
  Local port:           1
  CPCs attempted:       rdmacm, udcm
--------------------------------------------------------------------------

*************** JDFTx 1.6.0 (git hash 42ebbcc2) ***************

Start date and time: Sat Feb  5 22:36:27 2022
Executable jdftx with command-line: -i Alkali.in
Running on hosts (process indices):  d-4-8-2 (0-18)
Divided in process groups (process indices):  0 (0)  1 (1)  2 (2)  3 (3)  4 (4)  5 (5)  6 (6)  7 (7)  8 (8)  9 (9)  10 (10)  11 (11)  12 (12)  13 (13)  14 (14)  15 (15)  16 (16)  17 (17)  18 (18)
Resource initialization completed at t[s]:      0.00
Run totals: 19 processes, 48 threads, 0 GPUs


Input parsed successfully to the following command list (including defaults):

basis kpoint-dependent
coords-type Lattice
core-overlap-check vector
coulomb-interaction Slab 001
davidson-band-ratio 1.1
dump End None
dump-name $INPUT.$VAR
elec-cutoff 20
elec-eigen-algo Davidson
elec-ex-corr gga-PBE
elec-initial-magnetization 0.740000 yes
elec-smearing Fermi 1e-05
electronic-minimize  \
	dirUpdateScheme      FletcherReeves \
	linminMethod         DirUpdateRecommended \
	nIterations          100 \
	history              15 \
	knormThreshold       0 \
	energyDiffThreshold  1e-08 \
	nEnergyDiff          2 \
	alphaTstart          1 \
	alphaTmin            1e-10 \
	updateTestStepSize   yes \
	alphaTreduceFactor   0.1 \
	alphaTincreaseFactor 3 \
	nAlphaAdjustMax      3 \
	wolfeEnergy          0.0001 \
	wolfeGradient        0.9 \
	fdTest               no
electronic-scf  \
	nIterations	10000 \
	energyDiffThreshold	1e-08 \
	residualThreshold	1e-07 \
	mixFraction	0.5 \
	qMetric	0.8 \
	history	10 \
	nEigSteps	2 \
	eigDiffThreshold	1e-08 \
	mixedVariable	Density \
	qKerker	0.8 \
	qKappa	-1 \
	verbose	no \
	mixFractionMag	1.5
exchange-regularization WignerSeitzTruncated
fluid None
fluid-ex-corr (null) lda-PZ
fluid-gummel-loop 10 1.000000e-05
fluid-minimize  \
	dirUpdateScheme      PolakRibiere \
	linminMethod         DirUpdateRecommended \
	nIterations          100 \
	history              15 \
	knormThreshold       0 \
	energyDiffThreshold  0 \
	nEnergyDiff          2 \
	alphaTstart          1 \
	alphaTmin            1e-10 \
	updateTestStepSize   yes \
	alphaTreduceFactor   0.1 \
	alphaTincreaseFactor 3 \
	nAlphaAdjustMax      3 \
	wolfeEnergy          0.0001 \
	wolfeGradient        0.9 \
	fdTest               no
fluid-solvent H2O 55.338 ScalarEOS \
	epsBulk 78.4 \
	pMol 0.92466 \
	epsInf 1.77 \
	Pvap 1.06736e-10 \
	sigmaBulk 4.62e-05 \
	Rvdw 2.61727 \
	Res 1.42 \
	tauNuc 343133 \
	poleEl 15 7 1
forces-output-coords Positions
ion Na   0.000000000000000   0.000000000000000   0.000000000000000 0
ion-species SG15/$ID_ONCV_PBE.upf
ion-width 0
ionic-minimize  \
	dirUpdateScheme      L-BFGS \
	linminMethod         DirUpdateRecommended \
	nIterations          0 \
	history              15 \
	knormThreshold       0.0001 \
	energyDiffThreshold  1e-06 \
	nEnergyDiff          2 \
	alphaTstart          1 \
	alphaTmin            1e-10 \
	updateTestStepSize   yes \
	alphaTreduceFactor   0.1 \
	alphaTincreaseFactor 3 \
	nAlphaAdjustMax      3 \
	wolfeEnergy          0.0001 \
	wolfeGradient        0.9 \
	fdTest               no
kpoint   0.000000000000   0.000000000000   0.000000000000  1.00000000000000
kpoint-folding 12 12 1 
latt-move-scale 1 1 1
latt-scale 4 4 1 
lattice  \
	   4.727486978767153   -2.363743489383575    0.000000000000000  \
	  -0.000000000000000    4.094123819672498    0.000000000000000  \
	   0.000000000000000    0.000000000000000   40.000000000000000 
lattice-minimize  \
	dirUpdateScheme      L-BFGS \
	linminMethod         DirUpdateRecommended \
	nIterations          0 \
	history              15 \
	knormThreshold       0 \
	energyDiffThreshold  1e-06 \
	nEnergyDiff          2 \
	alphaTstart          1 \
	alphaTmin            1e-10 \
	updateTestStepSize   yes \
	alphaTreduceFactor   0.1 \
	alphaTincreaseFactor 3 \
	nAlphaAdjustMax      3 \
	wolfeEnergy          0.0001 \
	wolfeGradient        0.9 \
	fdTest               no
lcao-params -1 1e-06 1e-05
pcm-variant GLSSA13
spintype z-spin
subspace-rotation-factor 1 yes
symmetries automatic
symmetry-threshold 0.0001



---------- Setting up symmetries ----------

Found 24 point-group symmetries of the bravais lattice
Found 24 space-group symmetries with basis
Applied RMS atom displacement 0 bohrs to make symmetries exact.

---------- Initializing the Grid ----------
R = 
[      18.9099     -9.45497            0  ]
[            0      16.3765            0  ]
[            0            0           40  ]
unit cell volume = 12387.1
G =
[   0.332269   0.191835         -0  ]
[          0   0.383671         -0  ]
[         -0         -0    0.15708  ]
Minimum fftbox size, Smin = [  80  80  164  ]
Chosen fftbox size, S = [  80  80  168  ]

---------- Exchange Correlation functional ----------
Initalized PBE GGA exchange.
Initalized PBE GGA correlation.

---------- Setting up pseudopotentials ----------
Width of ionic core gaussian charges (only for fluid interactions / plotting) set to 0

Reading pseudopotential file '/home/gridsan/aligho/DFT/build-Nov24/pseudopotentials/SG15/Na_ONCV_PBE.upf':
  'Na' pseudopotential, 'PBE' functional
  Generated using ONCVPSP code by D. R. Hamann
  Author: Martin Schlipf and Francois Gygi  Date: 150915.
  9 valence electrons, 3 orbitals, 4 projectors, 1992 radial grid points, with lMax = 1
  Transforming local potential to a uniform radial grid of dG=0.02 with 1489 points.
  Transforming nonlocal projectors to a uniform radial grid of dG=0.02 with 432 points.
    2S    l: 0   occupation:  2.0   eigenvalue: -2.085640
    2P    l: 1   occupation:  6.0   eigenvalue: -1.053708
    3S    l: 0   occupation:  1.0   eigenvalue: -0.100838
  Transforming atomic orbitals to a uniform radial grid of dG=0.02 with 432 points.
  Core radius for overlap checks: 2.01 bohrs.
  Reading pulay file /home/gridsan/aligho/DFT/build-Nov24/pseudopotentials/SG15/Na_ONCV_PBE.pulay ... using dE_dnG = -2.946487e-03 computed for Ecut = 20.

Initialized 1 species with 1 total atoms.

Folded 1 k-points by 12x12x1 to 144 k-points.

---------- Setting up k-points, bands, fillings ----------
Reduced to 19 k-points under symmetry. 
Computing the number of bands and number of electrons
Calculating initial fillings.
nElectrons:   9.000000   nBands: 6   nStates: 38

----- Setting up reduced wavefunction bases (one per k-point) -----
average nbasis = 52924.021 , ideal nbasis = 52918.836

---------- Setting up coulomb interaction ----------
Initialized slab truncation along lattice direction 001

---------- Setting up 2D ewald sum ----------
Optimum gaussian width for ewald sums = 10.498040 bohr.
Real space sums over 289 unit cells with max indices [  8  8  0  ]
Reciprocal space sums over 81 terms with max indices [  4  4  0  ]

---------- Allocating electronic variables ----------
Initializing wave functions:  linear combination of atomic orbitals
Note: number of bands (6) exceeds available atomic orbitals (5)
Na pseudo-atom occupations:   s ( 2 1 )  p ( 6 )
[d-4-8-2:10037] 18 more processes have sent help message help-mpi-common-cuda.txt / dlopen failed
[d-4-8-2:10037] Set MCA parameter "orte_base_help_aggregate" to 0 to see all help / error messages
[d-4-8-2:10037] 18 more processes have sent help message help-mpi-btl-openib-cpc-base.txt / no cpcs for port
	FillingsUpdate:  mu: -0.099791467  nElectrons: 9.000000  magneticMoment: [ Abs: 0.74000  Tot: +0.74000 ]
LCAOMinimize: Iter:   0  F: -42.5536284970929870  |grad|_K:  7.420e-07  alpha:  1.000e+00
	FillingsUpdate:  mu: -0.099791328  nElectrons: 9.000000  magneticMoment: [ Abs: 0.74000  Tot: +0.74000 ]
LCAOMinimize: Iter:   1  F: -42.5536284974682886  |grad|_K:  3.131e-09  alpha:  9.972e-01  linmin:  4.712e-03  cgtest: -1.792e-01  t[s]:     14.82
LCAOMinimize: 	Step increased F by 1.421085e-14, reducing alpha to 3.024884e-03.
	FillingsUpdate:  mu: -0.099791328  nElectrons: 9.000000  magneticMoment: [ Abs: 0.74000  Tot: +0.74000 ]
LCAOMinimize: Iter:   2  F: -42.5536284974683241  |grad|_K:  3.121e-09  alpha:  3.025e-03  linmin: -7.861e-02  cgtest:  1.000e+00  t[s]:     21.11
LCAOMinimize: Encountered beta<0, resetting CG.
LCAOMinimize: Converged (|Delta F|<1.000000e-06 for 2 iters).


---- Citations for features of the code used in this run ----

   Software package:
      R. Sundararaman, K. Letchworth-Weaver, K.A. Schwarz, D. Gunceler, Y. Ozhabes and T.A. Arias, 'JDFTx: software for joint density-functional theory', SoftwareX 6, 278 (2017)

   gga-PBE exchange-correlation functional:
      J.P. Perdew, K. Burke and M. Ernzerhof, Phys. Rev. Lett. 77, 3865 (1996)

   Pseudopotentials:
      M Schlipf and F Gygi, Comput. Phys. Commun. 196, 36 (2015)

   Truncated Coulomb potentials:
      R. Sundararaman and T.A. Arias, Phys. Rev. B 87, 165122 (2013)

This list may not be complete. Please suggest additional citations or
report any other bugs at https://github.com/shankar1729/jdftx/issues

Initialization completed successfully at t[s]:     21.26


-------- Electronic minimization -----------
Will mix electronic density at each iteration.
	FillingsUpdate:  mu: -0.099791328  nElectrons: 9.000000  magneticMoment: [ Abs: 0.74000  Tot: +0.74000 ]
	FillingsUpdate:  mu: -0.099934518  nElectrons: 9.000000  magneticMoment: [ Abs: 0.74000  Tot: +0.74000 ]
SCF: Cycle:  0   F: -42.553734957492992   dF: -1.065e-04   |Residual|: 2.359e-03   |deigs|: 1.574e-01  t[s]:     28.78
	FillingsUpdate:  mu: -0.099955176  nElectrons: 9.000000  magneticMoment: [ Abs: 0.74189  Tot: +0.74000 ]
SCF: Cycle:  1   F: -42.553736397547546   dF: -1.440e-06   |Residual|: 9.604e-04   |deigs|: 1.699e-02  t[s]:     34.65
	FillingsUpdate:  mu: -0.099814456  nElectrons: 9.000000  magneticMoment: [ Abs: 0.74139  Tot: +0.74000 ]
SCF: Cycle:  2   F: -42.553736932046327   dF: -5.345e-07   |Residual|: 5.540e-04   |deigs|: 6.208e-03  t[s]:     40.67
	FillingsUpdate:  mu: -0.099669720  nElectrons: 9.000000  magneticMoment: [ Abs: 0.74166  Tot: +0.74000 ]
SCF: Cycle:  3   F: -42.553737172983041   dF: -2.409e-07   |Residual|: 3.376e-04   |deigs|: 1.183e-03  t[s]:     46.81
	FillingsUpdate:  mu: -0.099487781  nElectrons: 9.000000  magneticMoment: [ Abs: 0.74145  Tot: +0.74000 ]
SCF: Cycle:  4   F: -42.553737247554253   dF: -7.457e-08   |Residual|: 2.082e-04   |deigs|: 4.567e-04  t[s]:     53.08
	FillingsUpdate:  mu: -0.099305907  nElectrons: 9.000000  magneticMoment: [ Abs: 0.74148  Tot: +0.74000 ]
SCF: Cycle:  5   F: -42.553737246598168   dF: +9.561e-10   |Residual|: 1.314e-04   |deigs|: 3.879e-04  t[s]:     59.48
	FillingsUpdate:  mu: -0.099257193  nElectrons: 9.000000  magneticMoment: [ Abs: 0.74148  Tot: +0.74000 ]
SCF: Cycle:  6   F: -42.553737342231294   dF: -9.563e-08   |Residual|: 9.055e-05   |deigs|: 1.223e-04  t[s]:     65.95
	FillingsUpdate:  mu: -0.099225240  nElectrons: 9.000000  magneticMoment: [ Abs: 0.74155  Tot: +0.74000 ]
SCF: Cycle:  7   F: -42.553737426690439   dF: -8.446e-08   |Residual|: 6.300e-05   |deigs|: 9.915e-05  t[s]:     72.60
	FillingsUpdate:  mu: -0.099203055  nElectrons: 9.000000  magneticMoment: [ Abs: 0.74150  Tot: +0.74000 ]
SCF: Cycle:  8   F: -42.553737469896497   dF: -4.321e-08   |Residual|: 4.413e-05   |deigs|: 8.884e-05  t[s]:     79.26
	FillingsUpdate:  mu: -0.099192747  nElectrons: 9.000000  magneticMoment: [ Abs: 0.74153  Tot: +0.74000 ]
SCF: Cycle:  9   F: -42.553737478087093   dF: -8.191e-09   |Residual|: 2.903e-05   |deigs|: 6.249e-05  t[s]:     86.02
	FillingsUpdate:  mu: -0.099188977  nElectrons: 9.000000  magneticMoment: [ Abs: 0.74148  Tot: +0.74000 ]
SCF: Cycle: 10   F: -42.553737471033187   dF: +7.054e-09   |Residual|: 2.576e-05   |deigs|: 5.363e-05  t[s]:     92.91
	FillingsUpdate:  mu: -0.099160733  nElectrons: 9.000000  magneticMoment: [ Abs: 0.74152  Tot: +0.74000 ]
SCF: Cycle: 11   F: -42.553737438275249   dF: +3.276e-08   |Residual|: 2.176e-05   |deigs|: 6.510e-05  t[s]:     99.86
	FillingsUpdate:  mu: -0.099149212  nElectrons: 9.000000  magneticMoment: [ Abs: 0.74158  Tot: +0.74000 ]
SCF: Cycle: 12   F: -42.553737439881637   dF: -1.606e-09   |Residual|: 1.919e-05   |deigs|: 3.947e-05  t[s]:    106.75
	FillingsUpdate:  mu: -0.099130884  nElectrons: 9.000000  magneticMoment: [ Abs: 0.74159  Tot: +0.74000 ]
SCF: Cycle: 13   F: -42.553737414517883   dF: +2.536e-08   |Residual|: 1.709e-05   |deigs|: 3.289e-05  t[s]:    113.66
	FillingsUpdate:  mu: -0.099106981  nElectrons: 9.000000  magneticMoment: [ Abs: 0.74163  Tot: +0.74000 ]
SCF: Cycle: 14   F: -42.553737397383607   dF: +1.713e-08   |Residual|: 1.557e-05   |deigs|: 3.118e-05  t[s]:    120.56
	FillingsUpdate:  mu: -0.099096517  nElectrons: 9.000000  magneticMoment: [ Abs: 0.74167  Tot: +0.74000 ]
SCF: Cycle: 15   F: -42.553737376068149   dF: +2.132e-08   |Residual|: 1.472e-05   |deigs|: 1.421e-05  t[s]:    127.44
	FillingsUpdate:  mu: -0.099071969  nElectrons: 9.000000  magneticMoment: [ Abs: 0.74164  Tot: +0.74000 ]
SCF: Cycle: 16   F: -42.553737398441655   dF: -2.237e-08   |Residual|: 1.204e-05   |deigs|: 2.923e-05  t[s]:    134.31
	FillingsUpdate:  mu: -0.099057556  nElectrons: 9.000000  magneticMoment: [ Abs: 0.74162  Tot: +0.74000 ]
SCF: Cycle: 17   F: -42.553737459155741   dF: -6.071e-08   |Residual|: 1.111e-05   |deigs|: 1.895e-05  t[s]:    141.19
	FillingsUpdate:  mu: -0.099045548  nElectrons: 9.000000  magneticMoment: [ Abs: 0.74159  Tot: +0.74000 ]
SCF: Cycle: 18   F: -42.553737400541188   dF: +5.861e-08   |Residual|: 8.947e-06   |deigs|: 1.980e-05  t[s]:    148.00
	FillingsUpdate:  mu: -0.099037299  nElectrons: 9.000000  magneticMoment: [ Abs: 0.74156  Tot: +0.74000 ]
SCF: Cycle: 19   F: -42.553737488930075   dF: -8.839e-08   |Residual|: 6.724e-06   |deigs|: 2.001e-05  t[s]:    154.78
	FillingsUpdate:  mu: -0.099034631  nElectrons: 9.000000  magneticMoment: [ Abs: 0.74156  Tot: +0.74000 ]
SCF: Cycle: 20   F: -42.553737482657667   dF: +6.272e-09   |Residual|: 5.751e-06   |deigs|: 2.148e-05  t[s]:    161.53
	FillingsUpdate:  mu: -0.099030181  nElectrons: 9.000000  magneticMoment: [ Abs: 0.74154  Tot: +0.74000 ]
SCF: Cycle: 21   F: -42.553737496142638   dF: -1.348e-08   |Residual|: 3.589e-06   |deigs|: 2.416e-05  t[s]:    168.50
	FillingsUpdate:  mu: -0.099028811  nElectrons: 9.000000  magneticMoment: [ Abs: 0.74153  Tot: +0.74000 ]
SCF: Cycle: 22   F: -42.553737503454968   dF: -7.312e-09   |Residual|: 2.815e-06   |deigs|: 2.480e-05  t[s]:    175.23
	FillingsUpdate:  mu: -0.099027562  nElectrons: 9.000000  magneticMoment: [ Abs: 0.74152  Tot: +0.74000 ]
SCF: Cycle: 23   F: -42.553737503323148   dF: +1.318e-10   |Residual|: 2.075e-06   |deigs|: 2.421e-05  t[s]:    181.96
	FillingsUpdate:  mu: -0.099026725  nElectrons: 9.000000  magneticMoment: [ Abs: 0.74151  Tot: +0.74000 ]
SCF: Cycle: 24   F: -42.553737505728009   dF: -2.405e-09   |Residual|: 1.470e-06   |deigs|: 2.192e-05  t[s]:    188.73
	FillingsUpdate:  mu: -0.099026362  nElectrons: 9.000000  magneticMoment: [ Abs: 0.74150  Tot: +0.74000 ]
SCF: Cycle: 25   F: -42.553737508620571   dF: -2.893e-09   |Residual|: 9.479e-07   |deigs|: 1.890e-05  t[s]:    195.54
SCF: Converged (|Delta E|<1.000000e-08 for 2 iters).


# Ionic positions in lattice coordinates:
ion Na   0.000000000000000   0.000000000000000   0.000000000000000 0

# Forces in Lattice coordinates:
force Na  -0.000000000000000  -0.000000000000000   0.000000000000000 0

# Energy components:
   Eewald =       -9.0240130501663280
       EH =       24.7903546398056918
     Eloc =      -60.8356704501784478
      Enl =      -12.9033526876286846
   Epulay =        0.0000012333957556
      Exc =       -6.2157223285551657
       KE =       21.6346654482500469
-------------------------------------
     Etot =      -42.5537371950771330
       TS =        0.0000003135434403
-------------------------------------
        F =      -42.5537375086205714

IonicMinimize: Iter:   0  F: -42.553737508620571  |grad|_K:  0.000e+00  t[s]:    195.80
IonicMinimize: Converged (|grad|_K<1.000000e-04).

#--- Lowdin population analysis ---
# oxidation-state Na +0.000
# magnetic-moments Na +0.740

End date and time: Sat Feb  5 22:39:43 2022  (Duration: 0-0:03:15.87)
Done!
