The alkali metal is Na
scale=2
magnetization=-0.4
--------------------------------------------------------------------------
The library attempted to open the following supporting CUDA libraries,
but each of them failed.  CUDA-aware support is disabled.
libcuda.so.1: cannot open shared object file: No such file or directory
libcuda.dylib: cannot open shared object file: No such file or directory
/usr/lib64/libcuda.so.1: cannot open shared object file: No such file or directory
/usr/lib64/libcuda.dylib: cannot open shared object file: No such file or directory
If you are not interested in CUDA-aware support, then run with
--mca opal_warn_on_missing_libcuda 0 to suppress this message.  If you are interested
in CUDA-aware support, then try setting LD_LIBRARY_PATH to the location
of libcuda.so.1 to get passed this issue.
--------------------------------------------------------------------------
--------------------------------------------------------------------------
No OpenFabrics connection schemes reported that they were able to be
used on a specific port.  As such, the openib BTL (OpenFabrics
support) will be disabled for this port.

  Local host:           d-4-5-2
  Local device:         mlx5_1
  Local port:           1
  CPCs attempted:       rdmacm, udcm
--------------------------------------------------------------------------

*************** JDFTx 1.6.0 (git hash 42ebbcc2) ***************

Start date and time: Sat Feb  5 22:26:00 2022
Executable jdftx with command-line: -i Alkali.in
Running on hosts (process indices):  d-4-5-2 (0-18)
Divided in process groups (process indices):  0 (0)  1 (1)  2 (2)  3 (3)  4 (4)  5 (5)  6 (6)  7 (7)  8 (8)  9 (9)  10 (10)  11 (11)  12 (12)  13 (13)  14 (14)  15 (15)  16 (16)  17 (17)  18 (18)
Resource initialization completed at t[s]:      0.00
Run totals: 19 processes, 48 threads, 0 GPUs


Input parsed successfully to the following command list (including defaults):

basis kpoint-dependent
coords-type Lattice
core-overlap-check vector
coulomb-interaction Slab 001
davidson-band-ratio 1.1
dump End None
dump-name $INPUT.$VAR
elec-cutoff 20
elec-eigen-algo Davidson
elec-ex-corr gga-PBE
elec-initial-magnetization -0.400000 yes
elec-smearing Fermi 1e-05
electronic-minimize  \
	dirUpdateScheme      FletcherReeves \
	linminMethod         DirUpdateRecommended \
	nIterations          100 \
	history              15 \
	knormThreshold       0 \
	energyDiffThreshold  1e-08 \
	nEnergyDiff          2 \
	alphaTstart          1 \
	alphaTmin            1e-10 \
	updateTestStepSize   yes \
	alphaTreduceFactor   0.1 \
	alphaTincreaseFactor 3 \
	nAlphaAdjustMax      3 \
	wolfeEnergy          0.0001 \
	wolfeGradient        0.9 \
	fdTest               no
electronic-scf  \
	nIterations	10000 \
	energyDiffThreshold	1e-08 \
	residualThreshold	1e-07 \
	mixFraction	0.5 \
	qMetric	0.8 \
	history	10 \
	nEigSteps	2 \
	eigDiffThreshold	1e-08 \
	mixedVariable	Density \
	qKerker	0.8 \
	qKappa	-1 \
	verbose	no \
	mixFractionMag	1.5
exchange-regularization WignerSeitzTruncated
fluid None
fluid-ex-corr (null) lda-PZ
fluid-gummel-loop 10 1.000000e-05
fluid-minimize  \
	dirUpdateScheme      PolakRibiere \
	linminMethod         DirUpdateRecommended \
	nIterations          100 \
	history              15 \
	knormThreshold       0 \
	energyDiffThreshold  0 \
	nEnergyDiff          2 \
	alphaTstart          1 \
	alphaTmin            1e-10 \
	updateTestStepSize   yes \
	alphaTreduceFactor   0.1 \
	alphaTincreaseFactor 3 \
	nAlphaAdjustMax      3 \
	wolfeEnergy          0.0001 \
	wolfeGradient        0.9 \
	fdTest               no
fluid-solvent H2O 55.338 ScalarEOS \
	epsBulk 78.4 \
	pMol 0.92466 \
	epsInf 1.77 \
	Pvap 1.06736e-10 \
	sigmaBulk 4.62e-05 \
	Rvdw 2.61727 \
	Res 1.42 \
	tauNuc 343133 \
	poleEl 15 7 1
forces-output-coords Positions
ion Na   0.000000000000000   0.000000000000000   0.000000000000000 0
ion-species SG15/$ID_ONCV_PBE.upf
ion-width 0
ionic-minimize  \
	dirUpdateScheme      L-BFGS \
	linminMethod         DirUpdateRecommended \
	nIterations          0 \
	history              15 \
	knormThreshold       0.0001 \
	energyDiffThreshold  1e-06 \
	nEnergyDiff          2 \
	alphaTstart          1 \
	alphaTmin            1e-10 \
	updateTestStepSize   yes \
	alphaTreduceFactor   0.1 \
	alphaTincreaseFactor 3 \
	nAlphaAdjustMax      3 \
	wolfeEnergy          0.0001 \
	wolfeGradient        0.9 \
	fdTest               no
kpoint   0.000000000000   0.000000000000   0.000000000000  1.00000000000000
kpoint-folding 12 12 1 
latt-move-scale 1 1 1
latt-scale 2 2 1 
lattice  \
	   4.727486978767153   -2.363743489383575    0.000000000000000  \
	  -0.000000000000000    4.094123819672498    0.000000000000000  \
	   0.000000000000000    0.000000000000000   40.000000000000000 
lattice-minimize  \
	dirUpdateScheme      L-BFGS \
	linminMethod         DirUpdateRecommended \
	nIterations          0 \
	history              15 \
	knormThreshold       0 \
	energyDiffThreshold  1e-06 \
	nEnergyDiff          2 \
	alphaTstart          1 \
	alphaTmin            1e-10 \
	updateTestStepSize   yes \
	alphaTreduceFactor   0.1 \
	alphaTincreaseFactor 3 \
	nAlphaAdjustMax      3 \
	wolfeEnergy          0.0001 \
	wolfeGradient        0.9 \
	fdTest               no
lcao-params -1 1e-06 1e-05
pcm-variant GLSSA13
spintype z-spin
subspace-rotation-factor 1 yes
symmetries automatic
symmetry-threshold 0.0001



---------- Setting up symmetries ----------

Found 24 point-group symmetries of the bravais lattice
Found 24 space-group symmetries with basis
Applied RMS atom displacement 0 bohrs to make symmetries exact.

---------- Initializing the Grid ----------
R = 
[      9.45497     -4.72749            0  ]
[            0      8.18825            0  ]
[            0            0           40  ]
unit cell volume = 3096.79
G =
[   0.664538   0.383671         -0  ]
[          0   0.767342         -0  ]
[         -0         -0    0.15708  ]
Minimum fftbox size, Smin = [  40  40  164  ]
Chosen fftbox size, S = [  40  40  168  ]

---------- Exchange Correlation functional ----------
Initalized PBE GGA exchange.
Initalized PBE GGA correlation.

---------- Setting up pseudopotentials ----------
Width of ionic core gaussian charges (only for fluid interactions / plotting) set to 0

Reading pseudopotential file '/home/gridsan/aligho/DFT/build-Nov24/pseudopotentials/SG15/Na_ONCV_PBE.upf':
  'Na' pseudopotential, 'PBE' functional
  Generated using ONCVPSP code by D. R. Hamann
  Author: Martin Schlipf and Francois Gygi  Date: 150915.
  9 valence electrons, 3 orbitals, 4 projectors, 1992 radial grid points, with lMax = 1
  Transforming local potential to a uniform radial grid of dG=0.02 with 1489 points.
  Transforming nonlocal projectors to a uniform radial grid of dG=0.02 with 432 points.
    2S    l: 0   occupation:  2.0   eigenvalue: -2.085640
    2P    l: 1   occupation:  6.0   eigenvalue: -1.053708
    3S    l: 0   occupation:  1.0   eigenvalue: -0.100838
  Transforming atomic orbitals to a uniform radial grid of dG=0.02 with 432 points.
  Core radius for overlap checks: 2.01 bohrs.
  Reading pulay file /home/gridsan/aligho/DFT/build-Nov24/pseudopotentials/SG15/Na_ONCV_PBE.pulay ... using dE_dnG = -2.946487e-03 computed for Ecut = 20.

Initialized 1 species with 1 total atoms.

Folded 1 k-points by 12x12x1 to 144 k-points.

---------- Setting up k-points, bands, fillings ----------
Reduced to 19 k-points under symmetry. 
Computing the number of bands and number of electrons
Calculating initial fillings.
nElectrons:   9.000000   nBands: 6   nStates: 38

----- Setting up reduced wavefunction bases (one per k-point) -----
average nbasis = 13230.521 , ideal nbasis = 13229.709

---------- Setting up coulomb interaction ----------
Initialized slab truncation along lattice direction 001

---------- Setting up 2D ewald sum ----------
Optimum gaussian width for ewald sums = 5.249020 bohr.
Real space sums over 289 unit cells with max indices [  8  8  0  ]
Reciprocal space sums over 81 terms with max indices [  4  4  0  ]

---------- Allocating electronic variables ----------
Initializing wave functions:  linear combination of atomic orbitals
Note: number of bands (6) exceeds available atomic orbitals (5)
Na pseudo-atom occupations:   s ( 2 1 )  p ( 6 )
	FillingsUpdate:  mu: -0.103924479  nElectrons: 9.000000  magneticMoment: [ Abs: 0.40000  Tot: -0.40000 ]
LCAOMinimize: Iter:   0  F: -42.5662974755354711  |grad|_K:  2.542e-05  alpha:  1.000e+00
	FillingsUpdate:  mu: -0.103920395  nElectrons: 9.000000  magneticMoment: [ Abs: 0.40000  Tot: -0.40000 ]
LCAOMinimize: Iter:   1  F: -42.5662979120847140  |grad|_K:  2.222e-07  alpha:  9.876e-01  linmin: -1.848e-02  cgtest:  6.725e-01  t[s]:      4.49
LCAOMinimize: Encountered beta<0, resetting CG.
[d-4-5-2:74603] 18 more processes have sent help message help-mpi-common-cuda.txt / dlopen failed
[d-4-5-2:74603] Set MCA parameter "orte_base_help_aggregate" to 0 to see all help / error messages
[d-4-5-2:74603] 18 more processes have sent help message help-mpi-btl-openib-cpc-base.txt / no cpcs for port
	FillingsUpdate:  mu: -0.103920403  nElectrons: 9.000000  magneticMoment: [ Abs: 0.40000  Tot: -0.40000 ]
LCAOMinimize: Iter:   2  F: -42.5662979121190403  |grad|_K:  8.401e-10  alpha:  9.975e-01  linmin: -3.443e-02  cgtest:  9.813e-01  t[s]:      5.67
LCAOMinimize: Encountered beta<0, resetting CG.
LCAOMinimize: Converged (|Delta F|<1.000000e-06 for 2 iters).


---- Citations for features of the code used in this run ----

   Software package:
      R. Sundararaman, K. Letchworth-Weaver, K.A. Schwarz, D. Gunceler, Y. Ozhabes and T.A. Arias, 'JDFTx: software for joint density-functional theory', SoftwareX 6, 278 (2017)

   gga-PBE exchange-correlation functional:
      J.P. Perdew, K. Burke and M. Ernzerhof, Phys. Rev. Lett. 77, 3865 (1996)

   Pseudopotentials:
      M Schlipf and F Gygi, Comput. Phys. Commun. 196, 36 (2015)

   Truncated Coulomb potentials:
      R. Sundararaman and T.A. Arias, Phys. Rev. B 87, 165122 (2013)

This list may not be complete. Please suggest additional citations or
report any other bugs at https://github.com/shankar1729/jdftx/issues

Initialization completed successfully at t[s]:      5.74


-------- Electronic minimization -----------
Will mix electronic density at each iteration.
	FillingsUpdate:  mu: -0.103920403  nElectrons: 9.000000  magneticMoment: [ Abs: 0.40000  Tot: -0.40000 ]
	FillingsUpdate:  mu: -0.111039685  nElectrons: 9.000000  magneticMoment: [ Abs: 0.40000  Tot: -0.40000 ]
SCF: Cycle:  0   F: -42.570982004795965   dF: -4.684e-03   |Residual|: 8.928e-03   |deigs|: 1.704e-01  t[s]:      7.97
	FillingsUpdate:  mu: -0.111063799  nElectrons: 9.000000  magneticMoment: [ Abs: 0.40000  Tot: -0.40000 ]
SCF: Cycle:  1   F: -42.571085589385888   dF: -1.036e-04   |Residual|: 6.045e-03   |deigs|: 8.759e-03  t[s]:      9.69
	FillingsUpdate:  mu: -0.110871283  nElectrons: 9.000000  magneticMoment: [ Abs: 0.40131  Tot: -0.40000 ]
SCF: Cycle:  2   F: -42.571101641279554   dF: -1.605e-05   |Residual|: 3.426e-03   |deigs|: 6.672e-03  t[s]:     11.36
	FillingsUpdate:  mu: -0.110708794  nElectrons: 9.000000  magneticMoment: [ Abs: 0.40003  Tot: -0.40000 ]
SCF: Cycle:  3   F: -42.571106468164437   dF: -4.827e-06   |Residual|: 1.988e-03   |deigs|: 4.821e-03  t[s]:     13.21
	FillingsUpdate:  mu: -0.110318043  nElectrons: 9.000000  magneticMoment: [ Abs: 0.40006  Tot: -0.40000 ]
SCF: Cycle:  4   F: -42.571118106433843   dF: -1.164e-05   |Residual|: 9.261e-04   |deigs|: 2.689e-03  t[s]:     14.94
	FillingsUpdate:  mu: -0.109996670  nElectrons: 9.000000  magneticMoment: [ Abs: 0.40015  Tot: -0.40000 ]
SCF: Cycle:  5   F: -42.571119551644770   dF: -1.445e-06   |Residual|: 7.572e-04   |deigs|: 1.528e-03  t[s]:     16.75
	FillingsUpdate:  mu: -0.109284047  nElectrons: 9.000000  magneticMoment: [ Abs: 0.40093  Tot: -0.40000 ]
SCF: Cycle:  6   F: -42.571119976630868   dF: -4.250e-07   |Residual|: 5.665e-04   |deigs|: 2.234e-03  t[s]:     18.52
	FillingsUpdate:  mu: -0.108453619  nElectrons: 9.000000  magneticMoment: [ Abs: 0.40219  Tot: -0.40000 ]
SCF: Cycle:  7   F: -42.571118997353281   dF: +9.793e-07   |Residual|: 4.116e-04   |deigs|: 1.137e-03  t[s]:     20.34
	FillingsUpdate:  mu: -0.107782146  nElectrons: 9.000000  magneticMoment: [ Abs: 0.40159  Tot: -0.40000 ]
SCF: Cycle:  8   F: -42.571118924802278   dF: +7.255e-08   |Residual|: 3.515e-04   |deigs|: 9.097e-04  t[s]:     22.28
	FillingsUpdate:  mu: -0.107491537  nElectrons: 9.000000  magneticMoment: [ Abs: 0.40064  Tot: -0.40000 ]
SCF: Cycle:  9   F: -42.571120504215905   dF: -1.579e-06   |Residual|: 2.921e-04   |deigs|: 4.693e-04  t[s]:     24.15
	FillingsUpdate:  mu: -0.107336782  nElectrons: 9.000000  magneticMoment: [ Abs: 0.40121  Tot: -0.40000 ]
SCF: Cycle: 10   F: -42.571121663547153   dF: -1.159e-06   |Residual|: 2.304e-04   |deigs|: 3.766e-04  t[s]:     26.11
	FillingsUpdate:  mu: -0.106804103  nElectrons: 9.000000  magneticMoment: [ Abs: 0.40135  Tot: -0.40000 ]
SCF: Cycle: 11   F: -42.571120546628123   dF: +1.117e-06   |Residual|: 2.137e-04   |deigs|: 8.107e-04  t[s]:     27.95
	FillingsUpdate:  mu: -0.106157028  nElectrons: 9.000000  magneticMoment: [ Abs: 0.40076  Tot: -0.40000 ]
SCF: Cycle: 12   F: -42.571119990233591   dF: +5.564e-07   |Residual|: 1.966e-04   |deigs|: 6.844e-04  t[s]:     29.74
	FillingsUpdate:  mu: -0.105760220  nElectrons: 9.000000  magneticMoment: [ Abs: 0.40137  Tot: -0.40000 ]
SCF: Cycle: 13   F: -42.571121308966184   dF: -1.319e-06   |Residual|: 1.723e-04   |deigs|: 3.736e-04  t[s]:     31.63
	FillingsUpdate:  mu: -0.105492991  nElectrons: 9.000000  magneticMoment: [ Abs: 0.40111  Tot: -0.40000 ]
SCF: Cycle: 14   F: -42.571122218537297   dF: -9.096e-07   |Residual|: 1.599e-04   |deigs|: 2.766e-04  t[s]:     33.46
	FillingsUpdate:  mu: -0.104897656  nElectrons: 9.000000  magneticMoment: [ Abs: 0.40062  Tot: -0.40000 ]
SCF: Cycle: 15   F: -42.571122648309206   dF: -4.298e-07   |Residual|: 1.509e-04   |deigs|: 6.502e-04  t[s]:     35.33
	FillingsUpdate:  mu: -0.104432385  nElectrons: 9.000000  magneticMoment: [ Abs: 0.40033  Tot: -0.40000 ]
SCF: Cycle: 16   F: -42.571123070704999   dF: -4.224e-07   |Residual|: 1.118e-04   |deigs|: 4.598e-04  t[s]:     37.20
	FillingsUpdate:  mu: -0.104192718  nElectrons: 9.000000  magneticMoment: [ Abs: 0.40035  Tot: -0.40000 ]
SCF: Cycle: 17   F: -42.571123243521811   dF: -1.728e-07   |Residual|: 6.996e-05   |deigs|: 2.005e-04  t[s]:     39.06
	FillingsUpdate:  mu: -0.104104964  nElectrons: 9.000000  magneticMoment: [ Abs: 0.40024  Tot: -0.40000 ]
SCF: Cycle: 18   F: -42.571123279144004   dF: -3.562e-08   |Residual|: 5.574e-05   |deigs|: 7.259e-04  t[s]:     41.05
	FillingsUpdate:  mu: -0.104036576  nElectrons: 9.000000  magneticMoment: [ Abs: 0.40027  Tot: -0.40000 ]
SCF: Cycle: 19   F: -42.571123308295725   dF: -2.915e-08   |Residual|: 2.493e-05   |deigs|: 1.253e-04  t[s]:     43.00
	FillingsUpdate:  mu: -0.104020678  nElectrons: 9.000000  magneticMoment: [ Abs: 0.40026  Tot: -0.40000 ]
SCF: Cycle: 20   F: -42.571123316096674   dF: -7.801e-09   |Residual|: 1.301e-05   |deigs|: 4.787e-05  t[s]:     44.83
	FillingsUpdate:  mu: -0.104017247  nElectrons: 9.000000  magneticMoment: [ Abs: 0.40020  Tot: -0.40000 ]
SCF: Cycle: 21   F: -42.571123317269901   dF: -1.173e-09   |Residual|: 8.477e-06   |deigs|: 7.650e-04  t[s]:     46.66
SCF: Converged (|Delta E|<1.000000e-08 for 2 iters).


# Ionic positions in lattice coordinates:
ion Na   0.000000000000000   0.000000000000000   0.000000000000000 0

# Forces in Lattice coordinates:
force Na   0.000000000000000   0.000000000000000   0.000000000000000 0

# Energy components:
   Eewald =      -18.0480261003326561
       EH =       15.7289954244137427
     Eloc =      -42.7407788249055542
      Enl =      -12.9135126638653901
   Epulay =        0.0000007725295140
      Exc =       -6.2174318142353249
       KE =       21.6196304800402501
-------------------------------------
     Etot =      -42.5711227263554193
       TS =        0.0000005909144852
-------------------------------------
        F =      -42.5711233172699011

IonicMinimize: Iter:   0  F: -42.571123317269901  |grad|_K:  0.000e+00  t[s]:     46.73
IonicMinimize: Converged (|grad|_K<1.000000e-04).

#--- Lowdin population analysis ---
# oxidation-state Na +0.051
# magnetic-moments Na -0.357

End date and time: Sat Feb  5 22:26:47 2022  (Duration: 0-0:00:46.76)
Done!
scale=3
magnetization=-0.4
--------------------------------------------------------------------------
The library attempted to open the following supporting CUDA libraries,
but each of them failed.  CUDA-aware support is disabled.
libcuda.so.1: cannot open shared object file: No such file or directory
libcuda.dylib: cannot open shared object file: No such file or directory
/usr/lib64/libcuda.so.1: cannot open shared object file: No such file or directory
/usr/lib64/libcuda.dylib: cannot open shared object file: No such file or directory
If you are not interested in CUDA-aware support, then run with
--mca opal_warn_on_missing_libcuda 0 to suppress this message.  If you are interested
in CUDA-aware support, then try setting LD_LIBRARY_PATH to the location
of libcuda.so.1 to get passed this issue.
--------------------------------------------------------------------------
--------------------------------------------------------------------------
No OpenFabrics connection schemes reported that they were able to be
used on a specific port.  As such, the openib BTL (OpenFabrics
support) will be disabled for this port.

  Local host:           d-4-5-2
  Local device:         mlx5_1
  Local port:           1
  CPCs attempted:       rdmacm, udcm
--------------------------------------------------------------------------

*************** JDFTx 1.6.0 (git hash 42ebbcc2) ***************

Start date and time: Sat Feb  5 22:26:48 2022
Executable jdftx with command-line: -i Alkali.in
Running on hosts (process indices):  d-4-5-2 (0-18)
Divided in process groups (process indices):  0 (0)  1 (1)  2 (2)  3 (3)  4 (4)  5 (5)  6 (6)  7 (7)  8 (8)  9 (9)  10 (10)  11 (11)  12 (12)  13 (13)  14 (14)  15 (15)  16 (16)  17 (17)  18 (18)
Resource initialization completed at t[s]:      0.00
Run totals: 19 processes, 48 threads, 0 GPUs


Input parsed successfully to the following command list (including defaults):

basis kpoint-dependent
coords-type Lattice
core-overlap-check vector
coulomb-interaction Slab 001
davidson-band-ratio 1.1
dump End None
dump-name $INPUT.$VAR
elec-cutoff 20
elec-eigen-algo Davidson
elec-ex-corr gga-PBE
elec-initial-magnetization -0.400000 yes
elec-smearing Fermi 1e-05
electronic-minimize  \
	dirUpdateScheme      FletcherReeves \
	linminMethod         DirUpdateRecommended \
	nIterations          100 \
	history              15 \
	knormThreshold       0 \
	energyDiffThreshold  1e-08 \
	nEnergyDiff          2 \
	alphaTstart          1 \
	alphaTmin            1e-10 \
	updateTestStepSize   yes \
	alphaTreduceFactor   0.1 \
	alphaTincreaseFactor 3 \
	nAlphaAdjustMax      3 \
	wolfeEnergy          0.0001 \
	wolfeGradient        0.9 \
	fdTest               no
electronic-scf  \
	nIterations	10000 \
	energyDiffThreshold	1e-08 \
	residualThreshold	1e-07 \
	mixFraction	0.5 \
	qMetric	0.8 \
	history	10 \
	nEigSteps	2 \
	eigDiffThreshold	1e-08 \
	mixedVariable	Density \
	qKerker	0.8 \
	qKappa	-1 \
	verbose	no \
	mixFractionMag	1.5
exchange-regularization WignerSeitzTruncated
fluid None
fluid-ex-corr (null) lda-PZ
fluid-gummel-loop 10 1.000000e-05
fluid-minimize  \
	dirUpdateScheme      PolakRibiere \
	linminMethod         DirUpdateRecommended \
	nIterations          100 \
	history              15 \
	knormThreshold       0 \
	energyDiffThreshold  0 \
	nEnergyDiff          2 \
	alphaTstart          1 \
	alphaTmin            1e-10 \
	updateTestStepSize   yes \
	alphaTreduceFactor   0.1 \
	alphaTincreaseFactor 3 \
	nAlphaAdjustMax      3 \
	wolfeEnergy          0.0001 \
	wolfeGradient        0.9 \
	fdTest               no
fluid-solvent H2O 55.338 ScalarEOS \
	epsBulk 78.4 \
	pMol 0.92466 \
	epsInf 1.77 \
	Pvap 1.06736e-10 \
	sigmaBulk 4.62e-05 \
	Rvdw 2.61727 \
	Res 1.42 \
	tauNuc 343133 \
	poleEl 15 7 1
forces-output-coords Positions
ion Na   0.000000000000000   0.000000000000000   0.000000000000000 0
ion-species SG15/$ID_ONCV_PBE.upf
ion-width 0
ionic-minimize  \
	dirUpdateScheme      L-BFGS \
	linminMethod         DirUpdateRecommended \
	nIterations          0 \
	history              15 \
	knormThreshold       0.0001 \
	energyDiffThreshold  1e-06 \
	nEnergyDiff          2 \
	alphaTstart          1 \
	alphaTmin            1e-10 \
	updateTestStepSize   yes \
	alphaTreduceFactor   0.1 \
	alphaTincreaseFactor 3 \
	nAlphaAdjustMax      3 \
	wolfeEnergy          0.0001 \
	wolfeGradient        0.9 \
	fdTest               no
kpoint   0.000000000000   0.000000000000   0.000000000000  1.00000000000000
kpoint-folding 12 12 1 
latt-move-scale 1 1 1
latt-scale 3 3 1 
lattice  \
	   4.727486978767153   -2.363743489383575    0.000000000000000  \
	  -0.000000000000000    4.094123819672498    0.000000000000000  \
	   0.000000000000000    0.000000000000000   40.000000000000000 
lattice-minimize  \
	dirUpdateScheme      L-BFGS \
	linminMethod         DirUpdateRecommended \
	nIterations          0 \
	history              15 \
	knormThreshold       0 \
	energyDiffThreshold  1e-06 \
	nEnergyDiff          2 \
	alphaTstart          1 \
	alphaTmin            1e-10 \
	updateTestStepSize   yes \
	alphaTreduceFactor   0.1 \
	alphaTincreaseFactor 3 \
	nAlphaAdjustMax      3 \
	wolfeEnergy          0.0001 \
	wolfeGradient        0.9 \
	fdTest               no
lcao-params -1 1e-06 1e-05
pcm-variant GLSSA13
spintype z-spin
subspace-rotation-factor 1 yes
symmetries automatic
symmetry-threshold 0.0001



---------- Setting up symmetries ----------

Found 24 point-group symmetries of the bravais lattice
Found 24 space-group symmetries with basis
Applied RMS atom displacement 0 bohrs to make symmetries exact.

---------- Initializing the Grid ----------
R = 
[      14.1825     -7.09123            0  ]
[            0      12.2824            0  ]
[            0            0           40  ]
unit cell volume = 6967.77
G =
[   0.443025   0.255781         -0  ]
[          0   0.511561         -0  ]
[         -0         -0    0.15708  ]
Minimum fftbox size, Smin = [  60  60  164  ]
Chosen fftbox size, S = [  60  60  168  ]

---------- Exchange Correlation functional ----------
Initalized PBE GGA exchange.
Initalized PBE GGA correlation.

---------- Setting up pseudopotentials ----------
Width of ionic core gaussian charges (only for fluid interactions / plotting) set to 0

Reading pseudopotential file '/home/gridsan/aligho/DFT/build-Nov24/pseudopotentials/SG15/Na_ONCV_PBE.upf':
  'Na' pseudopotential, 'PBE' functional
  Generated using ONCVPSP code by D. R. Hamann
  Author: Martin Schlipf and Francois Gygi  Date: 150915.
  9 valence electrons, 3 orbitals, 4 projectors, 1992 radial grid points, with lMax = 1
  Transforming local potential to a uniform radial grid of dG=0.02 with 1489 points.
  Transforming nonlocal projectors to a uniform radial grid of dG=0.02 with 432 points.
    2S    l: 0   occupation:  2.0   eigenvalue: -2.085640
    2P    l: 1   occupation:  6.0   eigenvalue: -1.053708
    3S    l: 0   occupation:  1.0   eigenvalue: -0.100838
  Transforming atomic orbitals to a uniform radial grid of dG=0.02 with 432 points.
  Core radius for overlap checks: 2.01 bohrs.
  Reading pulay file /home/gridsan/aligho/DFT/build-Nov24/pseudopotentials/SG15/Na_ONCV_PBE.pulay ... using dE_dnG = -2.946487e-03 computed for Ecut = 20.

Initialized 1 species with 1 total atoms.

Folded 1 k-points by 12x12x1 to 144 k-points.

---------- Setting up k-points, bands, fillings ----------
Reduced to 19 k-points under symmetry. 
Computing the number of bands and number of electrons
Calculating initial fillings.
nElectrons:   9.000000   nBands: 6   nStates: 38

----- Setting up reduced wavefunction bases (one per k-point) -----
average nbasis = 29766.104 , ideal nbasis = 29766.845

---------- Setting up coulomb interaction ----------
Initialized slab truncation along lattice direction 001

---------- Setting up 2D ewald sum ----------
Optimum gaussian width for ewald sums = 7.873530 bohr.
Real space sums over 289 unit cells with max indices [  8  8  0  ]
Reciprocal space sums over 81 terms with max indices [  4  4  0  ]

---------- Allocating electronic variables ----------
Initializing wave functions:  linear combination of atomic orbitals
Note: number of bands (6) exceeds available atomic orbitals (5)
Na pseudo-atom occupations:   s ( 2 1 )  p ( 6 )
[d-4-5-2:07617] 18 more processes have sent help message help-mpi-common-cuda.txt / dlopen failed
[d-4-5-2:07617] Set MCA parameter "orte_base_help_aggregate" to 0 to see all help / error messages
[d-4-5-2:07617] 18 more processes have sent help message help-mpi-btl-openib-cpc-base.txt / no cpcs for port
	FillingsUpdate:  mu: -0.101694817  nElectrons: 9.000000  magneticMoment: [ Abs: 0.40000  Tot: -0.40000 ]
LCAOMinimize: Iter:   0  F: -42.5534132232928854  |grad|_K:  7.313e-06  alpha:  1.000e+00
	FillingsUpdate:  mu: -0.101693708  nElectrons: 9.000000  magneticMoment: [ Abs: 0.40000  Tot: -0.40000 ]
LCAOMinimize: Iter:   1  F: -42.5534132596411112  |grad|_K:  3.912e-08  alpha:  9.936e-01  linmin: -1.303e-03  cgtest:  4.105e-01  t[s]:      8.59
LCAOMinimize: Encountered beta<0, resetting CG.
LCAOMinimize: 	Predicted alpha/alphaT>3.000000, increasing alphaT to 2.980710e+00.
	FillingsUpdate:  mu: -0.101693708  nElectrons: 9.000000  magneticMoment: [ Abs: 0.40000  Tot: -0.40000 ]
LCAOMinimize: Iter:   2  F: -42.5534132596425039  |grad|_K:  1.957e-09  alpha:  1.049e+00  linmin:  5.352e-03  cgtest: -9.975e-01  t[s]:     11.89
LCAOMinimize: Converged (|Delta F|<1.000000e-06 for 2 iters).


---- Citations for features of the code used in this run ----

   Software package:
      R. Sundararaman, K. Letchworth-Weaver, K.A. Schwarz, D. Gunceler, Y. Ozhabes and T.A. Arias, 'JDFTx: software for joint density-functional theory', SoftwareX 6, 278 (2017)

   gga-PBE exchange-correlation functional:
      J.P. Perdew, K. Burke and M. Ernzerhof, Phys. Rev. Lett. 77, 3865 (1996)

   Pseudopotentials:
      M Schlipf and F Gygi, Comput. Phys. Commun. 196, 36 (2015)

   Truncated Coulomb potentials:
      R. Sundararaman and T.A. Arias, Phys. Rev. B 87, 165122 (2013)

This list may not be complete. Please suggest additional citations or
report any other bugs at https://github.com/shankar1729/jdftx/issues

Initialization completed successfully at t[s]:     11.99


-------- Electronic minimization -----------
Will mix electronic density at each iteration.
	FillingsUpdate:  mu: -0.101693708  nElectrons: 9.000000  magneticMoment: [ Abs: 0.40000  Tot: -0.40000 ]
	FillingsUpdate:  mu: -0.102017206  nElectrons: 9.000000  magneticMoment: [ Abs: 0.40000  Tot: -0.40000 ]
SCF: Cycle:  0   F: -42.553720672484232   dF: -3.074e-04   |Residual|: 2.067e-03   |deigs|: 1.733e-01  t[s]:     16.48
	FillingsUpdate:  mu: -0.102108992  nElectrons: 9.000000  magneticMoment: [ Abs: 0.40070  Tot: -0.40000 ]
SCF: Cycle:  1   F: -42.553725747147432   dF: -5.075e-06   |Residual|: 1.118e-03   |deigs|: 5.518e-03  t[s]:     19.94
	FillingsUpdate:  mu: -0.102211922  nElectrons: 9.000000  magneticMoment: [ Abs: 0.40057  Tot: -0.40000 ]
SCF: Cycle:  2   F: -42.553727281038014   dF: -1.534e-06   |Residual|: 6.276e-04   |deigs|: 2.943e-03  t[s]:     23.43
	FillingsUpdate:  mu: -0.102306900  nElectrons: 9.000000  magneticMoment: [ Abs: 0.40076  Tot: -0.40000 ]
SCF: Cycle:  3   F: -42.553728413264317   dF: -1.132e-06   |Residual|: 4.703e-04   |deigs|: 1.501e-03  t[s]:     27.09
	FillingsUpdate:  mu: -0.102428931  nElectrons: 9.000000  magneticMoment: [ Abs: 0.40056  Tot: -0.40000 ]
SCF: Cycle:  4   F: -42.553730039479994   dF: -1.626e-06   |Residual|: 2.651e-04   |deigs|: 1.248e-03  t[s]:     30.74
	FillingsUpdate:  mu: -0.102510868  nElectrons: 9.000000  magneticMoment: [ Abs: 0.40075  Tot: -0.40000 ]
SCF: Cycle:  5   F: -42.553730844480114   dF: -8.050e-07   |Residual|: 1.479e-04   |deigs|: 4.290e-04  t[s]:     34.38
	FillingsUpdate:  mu: -0.102498029  nElectrons: 9.000000  magneticMoment: [ Abs: 0.40066  Tot: -0.40000 ]
SCF: Cycle:  6   F: -42.553731121149475   dF: -2.767e-07   |Residual|: 9.521e-05   |deigs|: 1.426e-03  t[s]:     38.11
	FillingsUpdate:  mu: -0.102476553  nElectrons: 9.000000  magneticMoment: [ Abs: 0.40073  Tot: -0.40000 ]
SCF: Cycle:  7   F: -42.553731245733857   dF: -1.246e-07   |Residual|: 6.894e-05   |deigs|: 7.034e-04  t[s]:     41.94
	FillingsUpdate:  mu: -0.102423575  nElectrons: 9.000000  magneticMoment: [ Abs: 0.40067  Tot: -0.40000 ]
SCF: Cycle:  8   F: -42.553731307964973   dF: -6.223e-08   |Residual|: 5.222e-05   |deigs|: 6.379e-04  t[s]:     45.78
	FillingsUpdate:  mu: -0.102383419  nElectrons: 9.000000  magneticMoment: [ Abs: 0.40072  Tot: -0.40000 ]
SCF: Cycle:  9   F: -42.553731313314493   dF: -5.350e-09   |Residual|: 4.582e-05   |deigs|: 3.316e-04  t[s]:     49.71
	FillingsUpdate:  mu: -0.102342728  nElectrons: 9.000000  magneticMoment: [ Abs: 0.40073  Tot: -0.40000 ]
SCF: Cycle: 10   F: -42.553731317434831   dF: -4.120e-09   |Residual|: 3.904e-05   |deigs|: 1.968e-04  t[s]:     53.68
SCF: Converged (|Delta E|<1.000000e-08 for 2 iters).


# Ionic positions in lattice coordinates:
ion Na   0.000000000000000   0.000000000000000   0.000000000000000 0

# Forces in Lattice coordinates:
force Na  -0.000000000000000   0.000000000000000   0.000000000000000 0

# Energy components:
   Eewald =      -12.0320174002217755
       EH =       21.7217971398166618
     Eloc =      -54.7539174783878835
      Enl =      -12.9045014111209468
   Epulay =       -0.0000003132867683
      Exc =       -6.2081663994526988
       KE =       21.6230751534157442
-------------------------------------
     Etot =      -42.5537307092376693
       TS =        0.0000006081971619
-------------------------------------
        F =      -42.5537313174348313

IonicMinimize: Iter:   0  F: -42.553731317434831  |grad|_K:  0.000e+00  t[s]:     53.82
IonicMinimize: Converged (|grad|_K<1.000000e-04).

#--- Lowdin population analysis ---
# oxidation-state Na +0.004
# magnetic-moments Na -0.399

End date and time: Sat Feb  5 22:27:42 2022  (Duration: 0-0:00:53.87)
Done!
scale=4
magnetization=-0.4
--------------------------------------------------------------------------
The library attempted to open the following supporting CUDA libraries,
but each of them failed.  CUDA-aware support is disabled.
libcuda.so.1: cannot open shared object file: No such file or directory
libcuda.dylib: cannot open shared object file: No such file or directory
/usr/lib64/libcuda.so.1: cannot open shared object file: No such file or directory
/usr/lib64/libcuda.dylib: cannot open shared object file: No such file or directory
If you are not interested in CUDA-aware support, then run with
--mca opal_warn_on_missing_libcuda 0 to suppress this message.  If you are interested
in CUDA-aware support, then try setting LD_LIBRARY_PATH to the location
of libcuda.so.1 to get passed this issue.
--------------------------------------------------------------------------
--------------------------------------------------------------------------
No OpenFabrics connection schemes reported that they were able to be
used on a specific port.  As such, the openib BTL (OpenFabrics
support) will be disabled for this port.

  Local host:           d-4-5-2
  Local device:         mlx5_1
  Local port:           1
  CPCs attempted:       rdmacm, udcm
--------------------------------------------------------------------------

*************** JDFTx 1.6.0 (git hash 42ebbcc2) ***************

Start date and time: Sat Feb  5 22:27:43 2022
Executable jdftx with command-line: -i Alkali.in
Running on hosts (process indices):  d-4-5-2 (0-18)
Divided in process groups (process indices):  0 (0)  1 (1)  2 (2)  3 (3)  4 (4)  5 (5)  6 (6)  7 (7)  8 (8)  9 (9)  10 (10)  11 (11)  12 (12)  13 (13)  14 (14)  15 (15)  16 (16)  17 (17)  18 (18)
Resource initialization completed at t[s]:      0.00
Run totals: 19 processes, 48 threads, 0 GPUs


Input parsed successfully to the following command list (including defaults):

basis kpoint-dependent
coords-type Lattice
core-overlap-check vector
coulomb-interaction Slab 001
davidson-band-ratio 1.1
dump End None
dump-name $INPUT.$VAR
elec-cutoff 20
elec-eigen-algo Davidson
elec-ex-corr gga-PBE
elec-initial-magnetization -0.400000 yes
elec-smearing Fermi 1e-05
electronic-minimize  \
	dirUpdateScheme      FletcherReeves \
	linminMethod         DirUpdateRecommended \
	nIterations          100 \
	history              15 \
	knormThreshold       0 \
	energyDiffThreshold  1e-08 \
	nEnergyDiff          2 \
	alphaTstart          1 \
	alphaTmin            1e-10 \
	updateTestStepSize   yes \
	alphaTreduceFactor   0.1 \
	alphaTincreaseFactor 3 \
	nAlphaAdjustMax      3 \
	wolfeEnergy          0.0001 \
	wolfeGradient        0.9 \
	fdTest               no
electronic-scf  \
	nIterations	10000 \
	energyDiffThreshold	1e-08 \
	residualThreshold	1e-07 \
	mixFraction	0.5 \
	qMetric	0.8 \
	history	10 \
	nEigSteps	2 \
	eigDiffThreshold	1e-08 \
	mixedVariable	Density \
	qKerker	0.8 \
	qKappa	-1 \
	verbose	no \
	mixFractionMag	1.5
exchange-regularization WignerSeitzTruncated
fluid None
fluid-ex-corr (null) lda-PZ
fluid-gummel-loop 10 1.000000e-05
fluid-minimize  \
	dirUpdateScheme      PolakRibiere \
	linminMethod         DirUpdateRecommended \
	nIterations          100 \
	history              15 \
	knormThreshold       0 \
	energyDiffThreshold  0 \
	nEnergyDiff          2 \
	alphaTstart          1 \
	alphaTmin            1e-10 \
	updateTestStepSize   yes \
	alphaTreduceFactor   0.1 \
	alphaTincreaseFactor 3 \
	nAlphaAdjustMax      3 \
	wolfeEnergy          0.0001 \
	wolfeGradient        0.9 \
	fdTest               no
fluid-solvent H2O 55.338 ScalarEOS \
	epsBulk 78.4 \
	pMol 0.92466 \
	epsInf 1.77 \
	Pvap 1.06736e-10 \
	sigmaBulk 4.62e-05 \
	Rvdw 2.61727 \
	Res 1.42 \
	tauNuc 343133 \
	poleEl 15 7 1
forces-output-coords Positions
ion Na   0.000000000000000   0.000000000000000   0.000000000000000 0
ion-species SG15/$ID_ONCV_PBE.upf
ion-width 0
ionic-minimize  \
	dirUpdateScheme      L-BFGS \
	linminMethod         DirUpdateRecommended \
	nIterations          0 \
	history              15 \
	knormThreshold       0.0001 \
	energyDiffThreshold  1e-06 \
	nEnergyDiff          2 \
	alphaTstart          1 \
	alphaTmin            1e-10 \
	updateTestStepSize   yes \
	alphaTreduceFactor   0.1 \
	alphaTincreaseFactor 3 \
	nAlphaAdjustMax      3 \
	wolfeEnergy          0.0001 \
	wolfeGradient        0.9 \
	fdTest               no
kpoint   0.000000000000   0.000000000000   0.000000000000  1.00000000000000
kpoint-folding 12 12 1 
latt-move-scale 1 1 1
latt-scale 4 4 1 
lattice  \
	   4.727486978767153   -2.363743489383575    0.000000000000000  \
	  -0.000000000000000    4.094123819672498    0.000000000000000  \
	   0.000000000000000    0.000000000000000   40.000000000000000 
lattice-minimize  \
	dirUpdateScheme      L-BFGS \
	linminMethod         DirUpdateRecommended \
	nIterations          0 \
	history              15 \
	knormThreshold       0 \
	energyDiffThreshold  1e-06 \
	nEnergyDiff          2 \
	alphaTstart          1 \
	alphaTmin            1e-10 \
	updateTestStepSize   yes \
	alphaTreduceFactor   0.1 \
	alphaTincreaseFactor 3 \
	nAlphaAdjustMax      3 \
	wolfeEnergy          0.0001 \
	wolfeGradient        0.9 \
	fdTest               no
lcao-params -1 1e-06 1e-05
pcm-variant GLSSA13
spintype z-spin
subspace-rotation-factor 1 yes
symmetries automatic
symmetry-threshold 0.0001



---------- Setting up symmetries ----------

Found 24 point-group symmetries of the bravais lattice
Found 24 space-group symmetries with basis
Applied RMS atom displacement 0 bohrs to make symmetries exact.

---------- Initializing the Grid ----------
R = 
[      18.9099     -9.45497            0  ]
[            0      16.3765            0  ]
[            0            0           40  ]
unit cell volume = 12387.1
G =
[   0.332269   0.191835         -0  ]
[          0   0.383671         -0  ]
[         -0         -0    0.15708  ]
Minimum fftbox size, Smin = [  80  80  164  ]
Chosen fftbox size, S = [  80  80  168  ]

---------- Exchange Correlation functional ----------
Initalized PBE GGA exchange.
Initalized PBE GGA correlation.

---------- Setting up pseudopotentials ----------
Width of ionic core gaussian charges (only for fluid interactions / plotting) set to 0

Reading pseudopotential file '/home/gridsan/aligho/DFT/build-Nov24/pseudopotentials/SG15/Na_ONCV_PBE.upf':
  'Na' pseudopotential, 'PBE' functional
  Generated using ONCVPSP code by D. R. Hamann
  Author: Martin Schlipf and Francois Gygi  Date: 150915.
  9 valence electrons, 3 orbitals, 4 projectors, 1992 radial grid points, with lMax = 1
  Transforming local potential to a uniform radial grid of dG=0.02 with 1489 points.
  Transforming nonlocal projectors to a uniform radial grid of dG=0.02 with 432 points.
    2S    l: 0   occupation:  2.0   eigenvalue: -2.085640
    2P    l: 1   occupation:  6.0   eigenvalue: -1.053708
    3S    l: 0   occupation:  1.0   eigenvalue: -0.100838
  Transforming atomic orbitals to a uniform radial grid of dG=0.02 with 432 points.
  Core radius for overlap checks: 2.01 bohrs.
  Reading pulay file /home/gridsan/aligho/DFT/build-Nov24/pseudopotentials/SG15/Na_ONCV_PBE.pulay ... using dE_dnG = -2.946487e-03 computed for Ecut = 20.

Initialized 1 species with 1 total atoms.

Folded 1 k-points by 12x12x1 to 144 k-points.

---------- Setting up k-points, bands, fillings ----------
Reduced to 19 k-points under symmetry. 
Computing the number of bands and number of electrons
Calculating initial fillings.
nElectrons:   9.000000   nBands: 6   nStates: 38

----- Setting up reduced wavefunction bases (one per k-point) -----
average nbasis = 52924.021 , ideal nbasis = 52918.836

---------- Setting up coulomb interaction ----------
Initialized slab truncation along lattice direction 001

---------- Setting up 2D ewald sum ----------
Optimum gaussian width for ewald sums = 10.498040 bohr.
Real space sums over 289 unit cells with max indices [  8  8  0  ]
Reciprocal space sums over 81 terms with max indices [  4  4  0  ]

---------- Allocating electronic variables ----------
Initializing wave functions:  linear combination of atomic orbitals
Note: number of bands (6) exceeds available atomic orbitals (5)
Na pseudo-atom occupations:   s ( 2 1 )  p ( 6 )
[d-4-5-2:37454] 18 more processes have sent help message help-mpi-common-cuda.txt / dlopen failed
[d-4-5-2:37454] Set MCA parameter "orte_base_help_aggregate" to 0 to see all help / error messages
[d-4-5-2:37454] 18 more processes have sent help message help-mpi-btl-openib-cpc-base.txt / no cpcs for port
	FillingsUpdate:  mu: -0.100789924  nElectrons: 9.000000  magneticMoment: [ Abs: 0.40000  Tot: -0.40000 ]
LCAOMinimize: Iter:   0  F: -42.5508847039028595  |grad|_K:  1.156e-06  alpha:  1.000e+00
	FillingsUpdate:  mu: -0.100789678  nElectrons: 9.000000  magneticMoment: [ Abs: 0.40000  Tot: -0.40000 ]
LCAOMinimize: Iter:   1  F: -42.5508847048120202  |grad|_K:  5.168e-09  alpha:  9.953e-01  linmin:  4.815e-06  cgtest: -1.987e-03  t[s]:     14.87
LCAOMinimize: 	Wrong curvature in test step, increasing alphaT to 2.985920e+00.
	FillingsUpdate:  mu: -0.100789678  nElectrons: 9.000000  magneticMoment: [ Abs: 0.40000  Tot: -0.40000 ]
LCAOMinimize: Iter:   2  F: -42.5508847048120913  |grad|_K:  1.204e-11  alpha: -5.094e-01  linmin: -1.215e-02  cgtest:  4.776e-01  t[s]:     18.80
LCAOMinimize: Encountered beta<0, resetting CG.
LCAOMinimize: Converged (|Delta F|<1.000000e-06 for 2 iters).


---- Citations for features of the code used in this run ----

   Software package:
      R. Sundararaman, K. Letchworth-Weaver, K.A. Schwarz, D. Gunceler, Y. Ozhabes and T.A. Arias, 'JDFTx: software for joint density-functional theory', SoftwareX 6, 278 (2017)

   gga-PBE exchange-correlation functional:
      J.P. Perdew, K. Burke and M. Ernzerhof, Phys. Rev. Lett. 77, 3865 (1996)

   Pseudopotentials:
      M Schlipf and F Gygi, Comput. Phys. Commun. 196, 36 (2015)

   Truncated Coulomb potentials:
      R. Sundararaman and T.A. Arias, Phys. Rev. B 87, 165122 (2013)

This list may not be complete. Please suggest additional citations or
report any other bugs at https://github.com/shankar1729/jdftx/issues

Initialization completed successfully at t[s]:     18.96


-------- Electronic minimization -----------
Will mix electronic density at each iteration.
	FillingsUpdate:  mu: -0.100789678  nElectrons: 9.000000  magneticMoment: [ Abs: 0.40000  Tot: -0.40000 ]
	FillingsUpdate:  mu: -0.100833757  nElectrons: 9.000000  magneticMoment: [ Abs: 0.40000  Tot: -0.40000 ]
SCF: Cycle:  0   F: -42.550931496681841   dF: -4.679e-05   |Residual|: 1.913e-03   |deigs|: 1.670e-01  t[s]:     26.44
	FillingsUpdate:  mu: -0.100827180  nElectrons: 9.000000  magneticMoment: [ Abs: 0.40076  Tot: -0.40000 ]
SCF: Cycle:  1   F: -42.550932030209346   dF: -5.335e-07   |Residual|: 8.411e-04   |deigs|: 1.306e-02  t[s]:     32.35
	FillingsUpdate:  mu: -0.100819959  nElectrons: 9.000000  magneticMoment: [ Abs: 0.40058  Tot: -0.40000 ]
SCF: Cycle:  2   F: -42.550932149531789   dF: -1.193e-07   |Residual|: 2.421e-04   |deigs|: 1.901e-03  t[s]:     38.38
	FillingsUpdate:  mu: -0.100813144  nElectrons: 9.000000  magneticMoment: [ Abs: 0.40071  Tot: -0.40000 ]
SCF: Cycle:  3   F: -42.550932188470590   dF: -3.894e-08   |Residual|: 9.113e-05   |deigs|: 5.850e-04  t[s]:     44.48
	FillingsUpdate:  mu: -0.100805698  nElectrons: 9.000000  magneticMoment: [ Abs: 0.40067  Tot: -0.40000 ]
SCF: Cycle:  4   F: -42.550932200610276   dF: -1.214e-08   |Residual|: 6.096e-05   |deigs|: 2.704e-04  t[s]:     50.64
	FillingsUpdate:  mu: -0.100789182  nElectrons: 9.000000  magneticMoment: [ Abs: 0.40069  Tot: -0.40000 ]
SCF: Cycle:  5   F: -42.550932216196664   dF: -1.559e-08   |Residual|: 4.327e-05   |deigs|: 2.000e-04  t[s]:     56.98
	FillingsUpdate:  mu: -0.100778669  nElectrons: 9.000000  magneticMoment: [ Abs: 0.40067  Tot: -0.40000 ]
SCF: Cycle:  6   F: -42.550932219776300   dF: -3.580e-09   |Residual|: 2.849e-05   |deigs|: 1.855e-04  t[s]:     63.40
	FillingsUpdate:  mu: -0.100760661  nElectrons: 9.000000  magneticMoment: [ Abs: 0.40068  Tot: -0.40000 ]
SCF: Cycle:  7   F: -42.550932221275289   dF: -1.499e-09   |Residual|: 2.441e-05   |deigs|: 2.192e-04  t[s]:     69.90
SCF: Converged (|Delta E|<1.000000e-08 for 2 iters).


# Ionic positions in lattice coordinates:
ion Na   0.000000000000000   0.000000000000000   0.000000000000000 0

# Forces in Lattice coordinates:
force Na  -0.000000000000000  -0.000000000000000   0.000000000000000 0

# Energy components:
   Eewald =       -9.0240130501663280
       EH =       24.7709944470864620
     Eloc =      -60.8149272415742672
      Enl =      -12.9027922372999715
   Epulay =        0.0000012333957556
      Exc =       -6.2111512925911967
       KE =       21.6309575350911167
-------------------------------------
     Etot =      -42.5509306060584294
       TS =        0.0000016152168628
-------------------------------------
        F =      -42.5509322212752892

IonicMinimize: Iter:   0  F: -42.550932221275289  |grad|_K:  0.000e+00  t[s]:     70.15
IonicMinimize: Converged (|grad|_K<1.000000e-04).

#--- Lowdin population analysis ---
# oxidation-state Na +0.000
# magnetic-moments Na -0.400

End date and time: Sat Feb  5 22:28:53 2022  (Duration: 0-0:01:10.23)
Done!
