The alkali metal is Na
scale=2
magnetization=-0.08
--------------------------------------------------------------------------
The library attempted to open the following supporting CUDA libraries,
but each of them failed.  CUDA-aware support is disabled.
libcuda.so.1: cannot open shared object file: No such file or directory
libcuda.dylib: cannot open shared object file: No such file or directory
/usr/lib64/libcuda.so.1: cannot open shared object file: No such file or directory
/usr/lib64/libcuda.dylib: cannot open shared object file: No such file or directory
If you are not interested in CUDA-aware support, then run with
--mca opal_warn_on_missing_libcuda 0 to suppress this message.  If you are interested
in CUDA-aware support, then try setting LD_LIBRARY_PATH to the location
of libcuda.so.1 to get passed this issue.
--------------------------------------------------------------------------
--------------------------------------------------------------------------
No OpenFabrics connection schemes reported that they were able to be
used on a specific port.  As such, the openib BTL (OpenFabrics
support) will be disabled for this port.

  Local host:           d-6-10-3
  Local device:         mlx5_1
  Local port:           1
  CPCs attempted:       rdmacm, udcm
--------------------------------------------------------------------------

*************** JDFTx 1.6.0 (git hash 42ebbcc2) ***************

Start date and time: Sat Feb  5 22:28:51 2022
Executable jdftx with command-line: -i Alkali.in
Running on hosts (process indices):  d-6-10-3 (0-18)
Divided in process groups (process indices):  0 (0)  1 (1)  2 (2)  3 (3)  4 (4)  5 (5)  6 (6)  7 (7)  8 (8)  9 (9)  10 (10)  11 (11)  12 (12)  13 (13)  14 (14)  15 (15)  16 (16)  17 (17)  18 (18)
Resource initialization completed at t[s]:      0.00
Run totals: 19 processes, 48 threads, 0 GPUs


Input parsed successfully to the following command list (including defaults):

basis kpoint-dependent
coords-type Lattice
core-overlap-check vector
coulomb-interaction Slab 001
davidson-band-ratio 1.1
dump End None
dump-name $INPUT.$VAR
elec-cutoff 20
elec-eigen-algo Davidson
elec-ex-corr gga-PBE
elec-initial-magnetization -0.080000 yes
elec-smearing Fermi 1e-05
electronic-minimize  \
	dirUpdateScheme      FletcherReeves \
	linminMethod         DirUpdateRecommended \
	nIterations          100 \
	history              15 \
	knormThreshold       0 \
	energyDiffThreshold  1e-08 \
	nEnergyDiff          2 \
	alphaTstart          1 \
	alphaTmin            1e-10 \
	updateTestStepSize   yes \
	alphaTreduceFactor   0.1 \
	alphaTincreaseFactor 3 \
	nAlphaAdjustMax      3 \
	wolfeEnergy          0.0001 \
	wolfeGradient        0.9 \
	fdTest               no
electronic-scf  \
	nIterations	10000 \
	energyDiffThreshold	1e-08 \
	residualThreshold	1e-07 \
	mixFraction	0.5 \
	qMetric	0.8 \
	history	10 \
	nEigSteps	2 \
	eigDiffThreshold	1e-08 \
	mixedVariable	Density \
	qKerker	0.8 \
	qKappa	-1 \
	verbose	no \
	mixFractionMag	1.5
exchange-regularization WignerSeitzTruncated
fluid None
fluid-ex-corr (null) lda-PZ
fluid-gummel-loop 10 1.000000e-05
fluid-minimize  \
	dirUpdateScheme      PolakRibiere \
	linminMethod         DirUpdateRecommended \
	nIterations          100 \
	history              15 \
	knormThreshold       0 \
	energyDiffThreshold  0 \
	nEnergyDiff          2 \
	alphaTstart          1 \
	alphaTmin            1e-10 \
	updateTestStepSize   yes \
	alphaTreduceFactor   0.1 \
	alphaTincreaseFactor 3 \
	nAlphaAdjustMax      3 \
	wolfeEnergy          0.0001 \
	wolfeGradient        0.9 \
	fdTest               no
fluid-solvent H2O 55.338 ScalarEOS \
	epsBulk 78.4 \
	pMol 0.92466 \
	epsInf 1.77 \
	Pvap 1.06736e-10 \
	sigmaBulk 4.62e-05 \
	Rvdw 2.61727 \
	Res 1.42 \
	tauNuc 343133 \
	poleEl 15 7 1
forces-output-coords Positions
ion Na   0.000000000000000   0.000000000000000   0.000000000000000 0
ion-species SG15/$ID_ONCV_PBE.upf
ion-width 0
ionic-minimize  \
	dirUpdateScheme      L-BFGS \
	linminMethod         DirUpdateRecommended \
	nIterations          0 \
	history              15 \
	knormThreshold       0.0001 \
	energyDiffThreshold  1e-06 \
	nEnergyDiff          2 \
	alphaTstart          1 \
	alphaTmin            1e-10 \
	updateTestStepSize   yes \
	alphaTreduceFactor   0.1 \
	alphaTincreaseFactor 3 \
	nAlphaAdjustMax      3 \
	wolfeEnergy          0.0001 \
	wolfeGradient        0.9 \
	fdTest               no
kpoint   0.000000000000   0.000000000000   0.000000000000  1.00000000000000
kpoint-folding 12 12 1 
latt-move-scale 1 1 1
latt-scale 2 2 1 
lattice  \
	   4.727486978767153   -2.363743489383575    0.000000000000000  \
	  -0.000000000000000    4.094123819672498    0.000000000000000  \
	   0.000000000000000    0.000000000000000   40.000000000000000 
lattice-minimize  \
	dirUpdateScheme      L-BFGS \
	linminMethod         DirUpdateRecommended \
	nIterations          0 \
	history              15 \
	knormThreshold       0 \
	energyDiffThreshold  1e-06 \
	nEnergyDiff          2 \
	alphaTstart          1 \
	alphaTmin            1e-10 \
	updateTestStepSize   yes \
	alphaTreduceFactor   0.1 \
	alphaTincreaseFactor 3 \
	nAlphaAdjustMax      3 \
	wolfeEnergy          0.0001 \
	wolfeGradient        0.9 \
	fdTest               no
lcao-params -1 1e-06 1e-05
pcm-variant GLSSA13
spintype z-spin
subspace-rotation-factor 1 yes
symmetries automatic
symmetry-threshold 0.0001



---------- Setting up symmetries ----------

Found 24 point-group symmetries of the bravais lattice
Found 24 space-group symmetries with basis
Applied RMS atom displacement 0 bohrs to make symmetries exact.

---------- Initializing the Grid ----------
R = 
[      9.45497     -4.72749            0  ]
[            0      8.18825            0  ]
[            0            0           40  ]
unit cell volume = 3096.79
G =
[   0.664538   0.383671         -0  ]
[          0   0.767342         -0  ]
[         -0         -0    0.15708  ]
Minimum fftbox size, Smin = [  40  40  164  ]
Chosen fftbox size, S = [  40  40  168  ]

---------- Exchange Correlation functional ----------
Initalized PBE GGA exchange.
Initalized PBE GGA correlation.

---------- Setting up pseudopotentials ----------
Width of ionic core gaussian charges (only for fluid interactions / plotting) set to 0

Reading pseudopotential file '/home/gridsan/aligho/DFT/build-Nov24/pseudopotentials/SG15/Na_ONCV_PBE.upf':
  'Na' pseudopotential, 'PBE' functional
  Generated using ONCVPSP code by D. R. Hamann
  Author: Martin Schlipf and Francois Gygi  Date: 150915.
  9 valence electrons, 3 orbitals, 4 projectors, 1992 radial grid points, with lMax = 1
  Transforming local potential to a uniform radial grid of dG=0.02 with 1489 points.
  Transforming nonlocal projectors to a uniform radial grid of dG=0.02 with 432 points.
    2S    l: 0   occupation:  2.0   eigenvalue: -2.085640
    2P    l: 1   occupation:  6.0   eigenvalue: -1.053708
    3S    l: 0   occupation:  1.0   eigenvalue: -0.100838
  Transforming atomic orbitals to a uniform radial grid of dG=0.02 with 432 points.
  Core radius for overlap checks: 2.01 bohrs.
  Reading pulay file /home/gridsan/aligho/DFT/build-Nov24/pseudopotentials/SG15/Na_ONCV_PBE.pulay ... using dE_dnG = -2.946487e-03 computed for Ecut = 20.

Initialized 1 species with 1 total atoms.

Folded 1 k-points by 12x12x1 to 144 k-points.

---------- Setting up k-points, bands, fillings ----------
Reduced to 19 k-points under symmetry. 
Computing the number of bands and number of electrons
Calculating initial fillings.
nElectrons:   9.000000   nBands: 6   nStates: 38

----- Setting up reduced wavefunction bases (one per k-point) -----
average nbasis = 13230.521 , ideal nbasis = 13229.709

---------- Setting up coulomb interaction ----------
Initialized slab truncation along lattice direction 001

---------- Setting up 2D ewald sum ----------
Optimum gaussian width for ewald sums = 5.249020 bohr.
Real space sums over 289 unit cells with max indices [  8  8  0  ]
Reciprocal space sums over 81 terms with max indices [  4  4  0  ]

---------- Allocating electronic variables ----------
Initializing wave functions:  linear combination of atomic orbitals
Note: number of bands (6) exceeds available atomic orbitals (5)
Na pseudo-atom occupations:   s ( 2 1 )  p ( 6 )
	FillingsUpdate:  mu: -0.104918673  nElectrons: 9.000000  magneticMoment: [ Abs: 0.08000  Tot: -0.08000 ]
LCAOMinimize: Iter:   0  F: -42.5688653876511154  |grad|_K:  3.098e-05  alpha:  1.000e+00
	FillingsUpdate:  mu: -0.104915410  nElectrons: 9.000000  magneticMoment: [ Abs: 0.08000  Tot: -0.08000 ]
LCAOMinimize: Iter:   1  F: -42.5688660351720998  |grad|_K:  2.976e-07  alpha:  9.867e-01  linmin: -1.769e-02  cgtest:  7.050e-01  t[s]:      4.46
LCAOMinimize: Encountered beta<0, resetting CG.
[d-6-10-3:77602] 18 more processes have sent help message help-mpi-common-cuda.txt / dlopen failed
[d-6-10-3:77602] Set MCA parameter "orte_base_help_aggregate" to 0 to see all help / error messages
[d-6-10-3:77602] 18 more processes have sent help message help-mpi-btl-openib-cpc-base.txt / no cpcs for port
	FillingsUpdate:  mu: -0.104915438  nElectrons: 9.000000  magneticMoment: [ Abs: 0.08000  Tot: -0.08000 ]
LCAOMinimize: Iter:   2  F: -42.5688660352326451  |grad|_K:  2.735e-10  alpha:  1.002e+00  linmin:  1.163e-02  cgtest: -2.638e-01  t[s]:      5.66
LCAOMinimize: Converged (|Delta F|<1.000000e-06 for 2 iters).


---- Citations for features of the code used in this run ----

   Software package:
      R. Sundararaman, K. Letchworth-Weaver, K.A. Schwarz, D. Gunceler, Y. Ozhabes and T.A. Arias, 'JDFTx: software for joint density-functional theory', SoftwareX 6, 278 (2017)

   gga-PBE exchange-correlation functional:
      J.P. Perdew, K. Burke and M. Ernzerhof, Phys. Rev. Lett. 77, 3865 (1996)

   Pseudopotentials:
      M Schlipf and F Gygi, Comput. Phys. Commun. 196, 36 (2015)

   Truncated Coulomb potentials:
      R. Sundararaman and T.A. Arias, Phys. Rev. B 87, 165122 (2013)

This list may not be complete. Please suggest additional citations or
report any other bugs at https://github.com/shankar1729/jdftx/issues

Initialization completed successfully at t[s]:      5.72


-------- Electronic minimization -----------
Will mix electronic density at each iteration.
	FillingsUpdate:  mu: -0.104915438  nElectrons: 9.000000  magneticMoment: [ Abs: 0.08000  Tot: -0.08000 ]
	FillingsUpdate:  mu: -0.112987636  nElectrons: 9.000000  magneticMoment: [ Abs: 0.08000  Tot: -0.08000 ]
SCF: Cycle:  0   F: -42.572946722122587   dF: -4.081e-03   |Residual|: 6.984e-03   |deigs|: 1.706e-01  t[s]:      7.96
	FillingsUpdate:  mu: -0.113169140  nElectrons: 9.000000  magneticMoment: [ Abs: 0.08000  Tot: -0.08000 ]
SCF: Cycle:  1   F: -42.573007900179746   dF: -6.118e-05   |Residual|: 5.034e-03   |deigs|: 8.941e-03  t[s]:      9.61
	FillingsUpdate:  mu: -0.112945363  nElectrons: 9.000000  magneticMoment: [ Abs: 0.08085  Tot: -0.08000 ]
SCF: Cycle:  2   F: -42.573027162234546   dF: -1.926e-05   |Residual|: 2.072e-03   |deigs|: 7.067e-03  t[s]:     11.31
	FillingsUpdate:  mu: -0.112439154  nElectrons: 9.000000  magneticMoment: [ Abs: 0.08000  Tot: -0.08000 ]
SCF: Cycle:  3   F: -42.573031208150262   dF: -4.046e-06   |Residual|: 1.137e-03   |deigs|: 3.999e-03  t[s]:     13.02
	FillingsUpdate:  mu: -0.111985890  nElectrons: 9.000000  magneticMoment: [ Abs: 0.08000  Tot: -0.08000 ]
SCF: Cycle:  4   F: -42.573031852193189   dF: -6.440e-07   |Residual|: 8.293e-04   |deigs|: 1.140e-03  t[s]:     14.84
	FillingsUpdate:  mu: -0.111452701  nElectrons: 9.000000  magneticMoment: [ Abs: 0.08012  Tot: -0.08000 ]
SCF: Cycle:  5   F: -42.573032168176745   dF: -3.160e-07   |Residual|: 6.385e-04   |deigs|: 3.718e-03  t[s]:     16.63
	FillingsUpdate:  mu: -0.110296508  nElectrons: 9.000000  magneticMoment: [ Abs: 0.08076  Tot: -0.08000 ]
SCF: Cycle:  6   F: -42.573031895896705   dF: +2.723e-07   |Residual|: 4.569e-04   |deigs|: 1.847e-03  t[s]:     18.40
	FillingsUpdate:  mu: -0.109930840  nElectrons: 9.000000  magneticMoment: [ Abs: 0.08056  Tot: -0.08000 ]
SCF: Cycle:  7   F: -42.573032238865871   dF: -3.430e-07   |Residual|: 3.593e-04   |deigs|: 6.100e-04  t[s]:     20.21
	FillingsUpdate:  mu: -0.109220780  nElectrons: 9.000000  magneticMoment: [ Abs: 0.08041  Tot: -0.08000 ]
SCF: Cycle:  8   F: -42.573033211602869   dF: -9.727e-07   |Residual|: 3.178e-04   |deigs|: 1.016e-03  t[s]:     22.09
	FillingsUpdate:  mu: -0.109026251  nElectrons: 9.000000  magneticMoment: [ Abs: 0.08032  Tot: -0.08000 ]
SCF: Cycle:  9   F: -42.573033542167408   dF: -3.306e-07   |Residual|: 2.353e-04   |deigs|: 1.272e-04  t[s]:     23.98
	FillingsUpdate:  mu: -0.108589879  nElectrons: 9.000000  magneticMoment: [ Abs: 0.08061  Tot: -0.08000 ]
SCF: Cycle: 10   F: -42.573032039118551   dF: +1.503e-06   |Residual|: 2.270e-04   |deigs|: 3.581e-04  t[s]:     25.91
	FillingsUpdate:  mu: -0.108060943  nElectrons: 9.000000  magneticMoment: [ Abs: 0.08025  Tot: -0.08000 ]
SCF: Cycle: 11   F: -42.573031907592970   dF: +1.315e-07   |Residual|: 1.994e-04   |deigs|: 6.020e-04  t[s]:     27.81
	FillingsUpdate:  mu: -0.107370298  nElectrons: 9.000000  magneticMoment: [ Abs: 0.08078  Tot: -0.08000 ]
SCF: Cycle: 12   F: -42.573033276852335   dF: -1.369e-06   |Residual|: 1.886e-04   |deigs|: 7.171e-04  t[s]:     29.70
	FillingsUpdate:  mu: -0.107197122  nElectrons: 9.000000  magneticMoment: [ Abs: 0.08055  Tot: -0.08000 ]
SCF: Cycle: 13   F: -42.573034265204164   dF: -9.884e-07   |Residual|: 1.689e-04   |deigs|: 1.377e-04  t[s]:     31.54
	FillingsUpdate:  mu: -0.106833298  nElectrons: 9.000000  magneticMoment: [ Abs: 0.08022  Tot: -0.08000 ]
SCF: Cycle: 14   F: -42.573034816344553   dF: -5.511e-07   |Residual|: 1.681e-04   |deigs|: 3.773e-04  t[s]:     33.41
	FillingsUpdate:  mu: -0.106297092  nElectrons: 9.000000  magneticMoment: [ Abs: 0.08014  Tot: -0.08000 ]
SCF: Cycle: 15   F: -42.573035129122104   dF: -3.128e-07   |Residual|: 1.187e-04   |deigs|: 6.031e-04  t[s]:     35.29
	FillingsUpdate:  mu: -0.105951593  nElectrons: 9.000000  magneticMoment: [ Abs: 0.08024  Tot: -0.08000 ]
SCF: Cycle: 16   F: -42.573035306601945   dF: -1.775e-07   |Residual|: 7.942e-05   |deigs|: 3.390e-04  t[s]:     37.18
	FillingsUpdate:  mu: -0.105902700  nElectrons: 9.000000  magneticMoment: [ Abs: 0.08013  Tot: -0.08000 ]
SCF: Cycle: 17   F: -42.573035336185420   dF: -2.958e-08   |Residual|: 4.496e-05   |deigs|: 6.969e-05  t[s]:     39.04
	FillingsUpdate:  mu: -0.105817477  nElectrons: 9.000000  magneticMoment: [ Abs: 0.08004  Tot: -0.08000 ]
SCF: Cycle: 18   F: -42.573035350831653   dF: -1.465e-08   |Residual|: 2.787e-05   |deigs|: 1.237e-03  t[s]:     40.92
	FillingsUpdate:  mu: -0.105807843  nElectrons: 9.000000  magneticMoment: [ Abs: 0.08006  Tot: -0.08000 ]
SCF: Cycle: 19   F: -42.573035356016533   dF: -5.185e-09   |Residual|: 1.777e-05   |deigs|: 3.409e-04  t[s]:     42.78
	FillingsUpdate:  mu: -0.105823536  nElectrons: 9.000000  magneticMoment: [ Abs: 0.08005  Tot: -0.08000 ]
SCF: Cycle: 20   F: -42.573035358805470   dF: -2.789e-09   |Residual|: 7.988e-06   |deigs|: 4.940e-05  t[s]:     44.64
SCF: Converged (|Delta E|<1.000000e-08 for 2 iters).


# Ionic positions in lattice coordinates:
ion Na   0.000000000000000   0.000000000000000   0.000000000000000 0

# Forces in Lattice coordinates:
force Na  -0.000000000000000   0.000000000000000   0.000000000000000 0

# Energy components:
   Eewald =      -18.0480261003326561
       EH =       15.7225208280951509
     Eloc =      -42.7339451195473217
      Enl =      -12.9128666576364814
   Epulay =        0.0000007725295140
      Exc =       -6.2158923350417341
       KE =       21.6151743837449928
-------------------------------------
     Etot =      -42.5730342281885399
       TS =        0.0000011306169286
-------------------------------------
        F =      -42.5730353588054697

IonicMinimize: Iter:   0  F: -42.573035358805470  |grad|_K:  0.000e+00  t[s]:     44.70
IonicMinimize: Converged (|grad|_K<1.000000e-04).

#--- Lowdin population analysis ---
# oxidation-state Na +0.034
# magnetic-moments Na -0.072

End date and time: Sat Feb  5 22:29:35 2022  (Duration: 0-0:00:44.72)
Done!
scale=3
magnetization=-0.08
--------------------------------------------------------------------------
The library attempted to open the following supporting CUDA libraries,
but each of them failed.  CUDA-aware support is disabled.
libcuda.so.1: cannot open shared object file: No such file or directory
libcuda.dylib: cannot open shared object file: No such file or directory
/usr/lib64/libcuda.so.1: cannot open shared object file: No such file or directory
/usr/lib64/libcuda.dylib: cannot open shared object file: No such file or directory
If you are not interested in CUDA-aware support, then run with
--mca opal_warn_on_missing_libcuda 0 to suppress this message.  If you are interested
in CUDA-aware support, then try setting LD_LIBRARY_PATH to the location
of libcuda.so.1 to get passed this issue.
--------------------------------------------------------------------------
--------------------------------------------------------------------------
No OpenFabrics connection schemes reported that they were able to be
used on a specific port.  As such, the openib BTL (OpenFabrics
support) will be disabled for this port.

  Local host:           d-6-10-3
  Local device:         mlx5_1
  Local port:           1
  CPCs attempted:       rdmacm, udcm
--------------------------------------------------------------------------

*************** JDFTx 1.6.0 (git hash 42ebbcc2) ***************

Start date and time: Sat Feb  5 22:29:36 2022
Executable jdftx with command-line: -i Alkali.in
Running on hosts (process indices):  d-6-10-3 (0-18)
Divided in process groups (process indices):  0 (0)  1 (1)  2 (2)  3 (3)  4 (4)  5 (5)  6 (6)  7 (7)  8 (8)  9 (9)  10 (10)  11 (11)  12 (12)  13 (13)  14 (14)  15 (15)  16 (16)  17 (17)  18 (18)
Resource initialization completed at t[s]:      0.00
Run totals: 19 processes, 48 threads, 0 GPUs


Input parsed successfully to the following command list (including defaults):

basis kpoint-dependent
coords-type Lattice
core-overlap-check vector
coulomb-interaction Slab 001
davidson-band-ratio 1.1
dump End None
dump-name $INPUT.$VAR
elec-cutoff 20
elec-eigen-algo Davidson
elec-ex-corr gga-PBE
elec-initial-magnetization -0.080000 yes
elec-smearing Fermi 1e-05
electronic-minimize  \
	dirUpdateScheme      FletcherReeves \
	linminMethod         DirUpdateRecommended \
	nIterations          100 \
	history              15 \
	knormThreshold       0 \
	energyDiffThreshold  1e-08 \
	nEnergyDiff          2 \
	alphaTstart          1 \
	alphaTmin            1e-10 \
	updateTestStepSize   yes \
	alphaTreduceFactor   0.1 \
	alphaTincreaseFactor 3 \
	nAlphaAdjustMax      3 \
	wolfeEnergy          0.0001 \
	wolfeGradient        0.9 \
	fdTest               no
electronic-scf  \
	nIterations	10000 \
	energyDiffThreshold	1e-08 \
	residualThreshold	1e-07 \
	mixFraction	0.5 \
	qMetric	0.8 \
	history	10 \
	nEigSteps	2 \
	eigDiffThreshold	1e-08 \
	mixedVariable	Density \
	qKerker	0.8 \
	qKappa	-1 \
	verbose	no \
	mixFractionMag	1.5
exchange-regularization WignerSeitzTruncated
fluid None
fluid-ex-corr (null) lda-PZ
fluid-gummel-loop 10 1.000000e-05
fluid-minimize  \
	dirUpdateScheme      PolakRibiere \
	linminMethod         DirUpdateRecommended \
	nIterations          100 \
	history              15 \
	knormThreshold       0 \
	energyDiffThreshold  0 \
	nEnergyDiff          2 \
	alphaTstart          1 \
	alphaTmin            1e-10 \
	updateTestStepSize   yes \
	alphaTreduceFactor   0.1 \
	alphaTincreaseFactor 3 \
	nAlphaAdjustMax      3 \
	wolfeEnergy          0.0001 \
	wolfeGradient        0.9 \
	fdTest               no
fluid-solvent H2O 55.338 ScalarEOS \
	epsBulk 78.4 \
	pMol 0.92466 \
	epsInf 1.77 \
	Pvap 1.06736e-10 \
	sigmaBulk 4.62e-05 \
	Rvdw 2.61727 \
	Res 1.42 \
	tauNuc 343133 \
	poleEl 15 7 1
forces-output-coords Positions
ion Na   0.000000000000000   0.000000000000000   0.000000000000000 0
ion-species SG15/$ID_ONCV_PBE.upf
ion-width 0
ionic-minimize  \
	dirUpdateScheme      L-BFGS \
	linminMethod         DirUpdateRecommended \
	nIterations          0 \
	history              15 \
	knormThreshold       0.0001 \
	energyDiffThreshold  1e-06 \
	nEnergyDiff          2 \
	alphaTstart          1 \
	alphaTmin            1e-10 \
	updateTestStepSize   yes \
	alphaTreduceFactor   0.1 \
	alphaTincreaseFactor 3 \
	nAlphaAdjustMax      3 \
	wolfeEnergy          0.0001 \
	wolfeGradient        0.9 \
	fdTest               no
kpoint   0.000000000000   0.000000000000   0.000000000000  1.00000000000000
kpoint-folding 12 12 1 
latt-move-scale 1 1 1
latt-scale 3 3 1 
lattice  \
	   4.727486978767153   -2.363743489383575    0.000000000000000  \
	  -0.000000000000000    4.094123819672498    0.000000000000000  \
	   0.000000000000000    0.000000000000000   40.000000000000000 
lattice-minimize  \
	dirUpdateScheme      L-BFGS \
	linminMethod         DirUpdateRecommended \
	nIterations          0 \
	history              15 \
	knormThreshold       0 \
	energyDiffThreshold  1e-06 \
	nEnergyDiff          2 \
	alphaTstart          1 \
	alphaTmin            1e-10 \
	updateTestStepSize   yes \
	alphaTreduceFactor   0.1 \
	alphaTincreaseFactor 3 \
	nAlphaAdjustMax      3 \
	wolfeEnergy          0.0001 \
	wolfeGradient        0.9 \
	fdTest               no
lcao-params -1 1e-06 1e-05
pcm-variant GLSSA13
spintype z-spin
subspace-rotation-factor 1 yes
symmetries automatic
symmetry-threshold 0.0001



---------- Setting up symmetries ----------

Found 24 point-group symmetries of the bravais lattice
Found 24 space-group symmetries with basis
Applied RMS atom displacement 0 bohrs to make symmetries exact.

---------- Initializing the Grid ----------
R = 
[      14.1825     -7.09123            0  ]
[            0      12.2824            0  ]
[            0            0           40  ]
unit cell volume = 6967.77
G =
[   0.443025   0.255781         -0  ]
[          0   0.511561         -0  ]
[         -0         -0    0.15708  ]
Minimum fftbox size, Smin = [  60  60  164  ]
Chosen fftbox size, S = [  60  60  168  ]

---------- Exchange Correlation functional ----------
Initalized PBE GGA exchange.
Initalized PBE GGA correlation.

---------- Setting up pseudopotentials ----------
Width of ionic core gaussian charges (only for fluid interactions / plotting) set to 0

Reading pseudopotential file '/home/gridsan/aligho/DFT/build-Nov24/pseudopotentials/SG15/Na_ONCV_PBE.upf':
  'Na' pseudopotential, 'PBE' functional
  Generated using ONCVPSP code by D. R. Hamann
  Author: Martin Schlipf and Francois Gygi  Date: 150915.
  9 valence electrons, 3 orbitals, 4 projectors, 1992 radial grid points, with lMax = 1
  Transforming local potential to a uniform radial grid of dG=0.02 with 1489 points.
  Transforming nonlocal projectors to a uniform radial grid of dG=0.02 with 432 points.
    2S    l: 0   occupation:  2.0   eigenvalue: -2.085640
    2P    l: 1   occupation:  6.0   eigenvalue: -1.053708
    3S    l: 0   occupation:  1.0   eigenvalue: -0.100838
  Transforming atomic orbitals to a uniform radial grid of dG=0.02 with 432 points.
  Core radius for overlap checks: 2.01 bohrs.
  Reading pulay file /home/gridsan/aligho/DFT/build-Nov24/pseudopotentials/SG15/Na_ONCV_PBE.pulay ... using dE_dnG = -2.946487e-03 computed for Ecut = 20.

Initialized 1 species with 1 total atoms.

Folded 1 k-points by 12x12x1 to 144 k-points.

---------- Setting up k-points, bands, fillings ----------
Reduced to 19 k-points under symmetry. 
Computing the number of bands and number of electrons
Calculating initial fillings.
nElectrons:   9.000000   nBands: 6   nStates: 38

----- Setting up reduced wavefunction bases (one per k-point) -----
average nbasis = 29766.104 , ideal nbasis = 29766.845

---------- Setting up coulomb interaction ----------
Initialized slab truncation along lattice direction 001

---------- Setting up 2D ewald sum ----------
Optimum gaussian width for ewald sums = 7.873530 bohr.
Real space sums over 289 unit cells with max indices [  8  8  0  ]
Reciprocal space sums over 81 terms with max indices [  4  4  0  ]

---------- Allocating electronic variables ----------
Initializing wave functions:  linear combination of atomic orbitals
Note: number of bands (6) exceeds available atomic orbitals (5)
Na pseudo-atom occupations:   s ( 2 1 )  p ( 6 )
[d-6-10-3:01728] 18 more processes have sent help message help-mpi-common-cuda.txt / dlopen failed
[d-6-10-3:01728] Set MCA parameter "orte_base_help_aggregate" to 0 to see all help / error messages
[d-6-10-3:01728] 18 more processes have sent help message help-mpi-btl-openib-cpc-base.txt / no cpcs for port
	FillingsUpdate:  mu: -0.101928493  nElectrons: 9.000000  magneticMoment: [ Abs: 0.08000  Tot: -0.08000 ]
LCAOMinimize: Iter:   0  F: -42.5528156363441781  |grad|_K:  8.577e-06  alpha:  1.000e+00
	FillingsUpdate:  mu: -0.101926703  nElectrons: 9.000000  magneticMoment: [ Abs: 0.08000  Tot: -0.08000 ]
LCAOMinimize: Iter:   1  F: -42.5528156863083993  |grad|_K:  4.775e-08  alpha:  9.930e-01  linmin: -7.353e-03  cgtest:  4.235e-01  t[s]:      8.51
LCAOMinimize: Encountered beta<0, resetting CG.
	FillingsUpdate:  mu: -0.101926699  nElectrons: 9.000000  magneticMoment: [ Abs: 0.08000  Tot: -0.08000 ]
LCAOMinimize: Iter:   2  F: -42.5528156863100335  |grad|_K:  7.837e-09  alpha:  1.164e+00  linmin:  2.654e-02  cgtest: -9.998e-01  t[s]:     10.86
LCAOMinimize: Converged (|Delta F|<1.000000e-06 for 2 iters).


---- Citations for features of the code used in this run ----

   Software package:
      R. Sundararaman, K. Letchworth-Weaver, K.A. Schwarz, D. Gunceler, Y. Ozhabes and T.A. Arias, 'JDFTx: software for joint density-functional theory', SoftwareX 6, 278 (2017)

   gga-PBE exchange-correlation functional:
      J.P. Perdew, K. Burke and M. Ernzerhof, Phys. Rev. Lett. 77, 3865 (1996)

   Pseudopotentials:
      M Schlipf and F Gygi, Comput. Phys. Commun. 196, 36 (2015)

   Truncated Coulomb potentials:
      R. Sundararaman and T.A. Arias, Phys. Rev. B 87, 165122 (2013)

This list may not be complete. Please suggest additional citations or
report any other bugs at https://github.com/shankar1729/jdftx/issues

Initialization completed successfully at t[s]:     10.96


-------- Electronic minimization -----------
Will mix electronic density at each iteration.
	FillingsUpdate:  mu: -0.101926699  nElectrons: 9.000000  magneticMoment: [ Abs: 0.08000  Tot: -0.08000 ]
	FillingsUpdate:  mu: -0.102282837  nElectrons: 9.000000  magneticMoment: [ Abs: 0.08000  Tot: -0.08000 ]
SCF: Cycle:  0   F: -42.553173329999922   dF: -3.576e-04   |Residual|: 2.138e-03   |deigs|: 1.740e-01  t[s]:     15.37
	FillingsUpdate:  mu: -0.102420810  nElectrons: 9.000000  magneticMoment: [ Abs: 0.08013  Tot: -0.08000 ]
SCF: Cycle:  1   F: -42.553179129563382   dF: -5.800e-06   |Residual|: 1.349e-03   |deigs|: 5.186e-03  t[s]:     18.79
	FillingsUpdate:  mu: -0.102678944  nElectrons: 9.000000  magneticMoment: [ Abs: 0.08011  Tot: -0.08000 ]
SCF: Cycle:  2   F: -42.553182651663384   dF: -3.522e-06   |Residual|: 7.721e-04   |deigs|: 2.755e-03  t[s]:     22.30
	FillingsUpdate:  mu: -0.102828816  nElectrons: 9.000000  magneticMoment: [ Abs: 0.08025  Tot: -0.08000 ]
SCF: Cycle:  3   F: -42.553184855324659   dF: -2.204e-06   |Residual|: 4.856e-04   |deigs|: 1.274e-03  t[s]:     25.85
	FillingsUpdate:  mu: -0.103054261  nElectrons: 9.000000  magneticMoment: [ Abs: 0.08012  Tot: -0.08000 ]
SCF: Cycle:  4   F: -42.553187007122155   dF: -2.152e-06   |Residual|: 2.556e-04   |deigs|: 1.599e-03  t[s]:     29.44
	FillingsUpdate:  mu: -0.103068570  nElectrons: 9.000000  magneticMoment: [ Abs: 0.08021  Tot: -0.08000 ]
SCF: Cycle:  5   F: -42.553187412589729   dF: -4.055e-07   |Residual|: 1.788e-04   |deigs|: 1.314e-03  t[s]:     33.10
	FillingsUpdate:  mu: -0.103049233  nElectrons: 9.000000  magneticMoment: [ Abs: 0.08013  Tot: -0.08000 ]
SCF: Cycle:  6   F: -42.553187703399594   dF: -2.908e-07   |Residual|: 1.159e-04   |deigs|: 1.516e-03  t[s]:     36.85
	FillingsUpdate:  mu: -0.103015747  nElectrons: 9.000000  magneticMoment: [ Abs: 0.08017  Tot: -0.08000 ]
SCF: Cycle:  7   F: -42.553187786691026   dF: -8.329e-08   |Residual|: 7.699e-05   |deigs|: 1.006e-03  t[s]:     40.63
	FillingsUpdate:  mu: -0.102970127  nElectrons: 9.000000  magneticMoment: [ Abs: 0.08013  Tot: -0.08000 ]
SCF: Cycle:  8   F: -42.553187818938262   dF: -3.225e-08   |Residual|: 5.317e-05   |deigs|: 2.965e-04  t[s]:     44.51
	FillingsUpdate:  mu: -0.102944962  nElectrons: 9.000000  magneticMoment: [ Abs: 0.08017  Tot: -0.08000 ]
SCF: Cycle:  9   F: -42.553187827351351   dF: -8.413e-09   |Residual|: 6.012e-05   |deigs|: 4.909e-05  t[s]:     48.48
	FillingsUpdate:  mu: -0.102885391  nElectrons: 9.000000  magneticMoment: [ Abs: 0.08017  Tot: -0.08000 ]
SCF: Cycle: 10   F: -42.553187833929648   dF: -6.578e-09   |Residual|: 3.873e-05   |deigs|: 8.506e-05  t[s]:     52.45
SCF: Converged (|Delta E|<1.000000e-08 for 2 iters).


# Ionic positions in lattice coordinates:
ion Na   0.000000000000000   0.000000000000000   0.000000000000000 0

# Forces in Lattice coordinates:
force Na  -0.000000000000000  -0.000000000000000   0.000000000000000 0

# Energy components:
   Eewald =      -12.0320174002217755
       EH =       21.7035615433466447
     Eloc =      -54.7341630950447851
      Enl =      -12.9047366150457581
   Epulay =       -0.0000003132867683
      Exc =       -6.2056948044351508
       KE =       21.6198639813748770
-------------------------------------
     Etot =      -42.5531867033127185
       TS =        0.0000011306169286
-------------------------------------
        F =      -42.5531878339296483

IonicMinimize: Iter:   0  F: -42.553187833929648  |grad|_K:  0.000e+00  t[s]:     52.60
IonicMinimize: Converged (|grad|_K<1.000000e-04).

#--- Lowdin population analysis ---
# oxidation-state Na +0.005
# magnetic-moments Na -0.080

End date and time: Sat Feb  5 22:30:29 2022  (Duration: 0-0:00:52.64)
Done!
scale=4
magnetization=-0.08
--------------------------------------------------------------------------
The library attempted to open the following supporting CUDA libraries,
but each of them failed.  CUDA-aware support is disabled.
libcuda.so.1: cannot open shared object file: No such file or directory
libcuda.dylib: cannot open shared object file: No such file or directory
/usr/lib64/libcuda.so.1: cannot open shared object file: No such file or directory
/usr/lib64/libcuda.dylib: cannot open shared object file: No such file or directory
If you are not interested in CUDA-aware support, then run with
--mca opal_warn_on_missing_libcuda 0 to suppress this message.  If you are interested
in CUDA-aware support, then try setting LD_LIBRARY_PATH to the location
of libcuda.so.1 to get passed this issue.
--------------------------------------------------------------------------
--------------------------------------------------------------------------
No OpenFabrics connection schemes reported that they were able to be
used on a specific port.  As such, the openib BTL (OpenFabrics
support) will be disabled for this port.

  Local host:           d-6-10-3
  Local device:         mlx5_1
  Local port:           1
  CPCs attempted:       rdmacm, udcm
--------------------------------------------------------------------------

*************** JDFTx 1.6.0 (git hash 42ebbcc2) ***************

Start date and time: Sat Feb  5 22:30:30 2022
Executable jdftx with command-line: -i Alkali.in
Running on hosts (process indices):  d-6-10-3 (0-18)
Divided in process groups (process indices):  0 (0)  1 (1)  2 (2)  3 (3)  4 (4)  5 (5)  6 (6)  7 (7)  8 (8)  9 (9)  10 (10)  11 (11)  12 (12)  13 (13)  14 (14)  15 (15)  16 (16)  17 (17)  18 (18)
Resource initialization completed at t[s]:      0.00
Run totals: 19 processes, 48 threads, 0 GPUs


Input parsed successfully to the following command list (including defaults):

basis kpoint-dependent
coords-type Lattice
core-overlap-check vector
coulomb-interaction Slab 001
davidson-band-ratio 1.1
dump End None
dump-name $INPUT.$VAR
elec-cutoff 20
elec-eigen-algo Davidson
elec-ex-corr gga-PBE
elec-initial-magnetization -0.080000 yes
elec-smearing Fermi 1e-05
electronic-minimize  \
	dirUpdateScheme      FletcherReeves \
	linminMethod         DirUpdateRecommended \
	nIterations          100 \
	history              15 \
	knormThreshold       0 \
	energyDiffThreshold  1e-08 \
	nEnergyDiff          2 \
	alphaTstart          1 \
	alphaTmin            1e-10 \
	updateTestStepSize   yes \
	alphaTreduceFactor   0.1 \
	alphaTincreaseFactor 3 \
	nAlphaAdjustMax      3 \
	wolfeEnergy          0.0001 \
	wolfeGradient        0.9 \
	fdTest               no
electronic-scf  \
	nIterations	10000 \
	energyDiffThreshold	1e-08 \
	residualThreshold	1e-07 \
	mixFraction	0.5 \
	qMetric	0.8 \
	history	10 \
	nEigSteps	2 \
	eigDiffThreshold	1e-08 \
	mixedVariable	Density \
	qKerker	0.8 \
	qKappa	-1 \
	verbose	no \
	mixFractionMag	1.5
exchange-regularization WignerSeitzTruncated
fluid None
fluid-ex-corr (null) lda-PZ
fluid-gummel-loop 10 1.000000e-05
fluid-minimize  \
	dirUpdateScheme      PolakRibiere \
	linminMethod         DirUpdateRecommended \
	nIterations          100 \
	history              15 \
	knormThreshold       0 \
	energyDiffThreshold  0 \
	nEnergyDiff          2 \
	alphaTstart          1 \
	alphaTmin            1e-10 \
	updateTestStepSize   yes \
	alphaTreduceFactor   0.1 \
	alphaTincreaseFactor 3 \
	nAlphaAdjustMax      3 \
	wolfeEnergy          0.0001 \
	wolfeGradient        0.9 \
	fdTest               no
fluid-solvent H2O 55.338 ScalarEOS \
	epsBulk 78.4 \
	pMol 0.92466 \
	epsInf 1.77 \
	Pvap 1.06736e-10 \
	sigmaBulk 4.62e-05 \
	Rvdw 2.61727 \
	Res 1.42 \
	tauNuc 343133 \
	poleEl 15 7 1
forces-output-coords Positions
ion Na   0.000000000000000   0.000000000000000   0.000000000000000 0
ion-species SG15/$ID_ONCV_PBE.upf
ion-width 0
ionic-minimize  \
	dirUpdateScheme      L-BFGS \
	linminMethod         DirUpdateRecommended \
	nIterations          0 \
	history              15 \
	knormThreshold       0.0001 \
	energyDiffThreshold  1e-06 \
	nEnergyDiff          2 \
	alphaTstart          1 \
	alphaTmin            1e-10 \
	updateTestStepSize   yes \
	alphaTreduceFactor   0.1 \
	alphaTincreaseFactor 3 \
	nAlphaAdjustMax      3 \
	wolfeEnergy          0.0001 \
	wolfeGradient        0.9 \
	fdTest               no
kpoint   0.000000000000   0.000000000000   0.000000000000  1.00000000000000
kpoint-folding 12 12 1 
latt-move-scale 1 1 1
latt-scale 4 4 1 
lattice  \
	   4.727486978767153   -2.363743489383575    0.000000000000000  \
	  -0.000000000000000    4.094123819672498    0.000000000000000  \
	   0.000000000000000    0.000000000000000   40.000000000000000 
lattice-minimize  \
	dirUpdateScheme      L-BFGS \
	linminMethod         DirUpdateRecommended \
	nIterations          0 \
	history              15 \
	knormThreshold       0 \
	energyDiffThreshold  1e-06 \
	nEnergyDiff          2 \
	alphaTstart          1 \
	alphaTmin            1e-10 \
	updateTestStepSize   yes \
	alphaTreduceFactor   0.1 \
	alphaTincreaseFactor 3 \
	nAlphaAdjustMax      3 \
	wolfeEnergy          0.0001 \
	wolfeGradient        0.9 \
	fdTest               no
lcao-params -1 1e-06 1e-05
pcm-variant GLSSA13
spintype z-spin
subspace-rotation-factor 1 yes
symmetries automatic
symmetry-threshold 0.0001



---------- Setting up symmetries ----------

Found 24 point-group symmetries of the bravais lattice
Found 24 space-group symmetries with basis
Applied RMS atom displacement 0 bohrs to make symmetries exact.

---------- Initializing the Grid ----------
R = 
[      18.9099     -9.45497            0  ]
[            0      16.3765            0  ]
[            0            0           40  ]
unit cell volume = 12387.1
G =
[   0.332269   0.191835         -0  ]
[          0   0.383671         -0  ]
[         -0         -0    0.15708  ]
Minimum fftbox size, Smin = [  80  80  164  ]
Chosen fftbox size, S = [  80  80  168  ]

---------- Exchange Correlation functional ----------
Initalized PBE GGA exchange.
Initalized PBE GGA correlation.

---------- Setting up pseudopotentials ----------
Width of ionic core gaussian charges (only for fluid interactions / plotting) set to 0

Reading pseudopotential file '/home/gridsan/aligho/DFT/build-Nov24/pseudopotentials/SG15/Na_ONCV_PBE.upf':
  'Na' pseudopotential, 'PBE' functional
  Generated using ONCVPSP code by D. R. Hamann
  Author: Martin Schlipf and Francois Gygi  Date: 150915.
  9 valence electrons, 3 orbitals, 4 projectors, 1992 radial grid points, with lMax = 1
  Transforming local potential to a uniform radial grid of dG=0.02 with 1489 points.
  Transforming nonlocal projectors to a uniform radial grid of dG=0.02 with 432 points.
    2S    l: 0   occupation:  2.0   eigenvalue: -2.085640
    2P    l: 1   occupation:  6.0   eigenvalue: -1.053708
    3S    l: 0   occupation:  1.0   eigenvalue: -0.100838
  Transforming atomic orbitals to a uniform radial grid of dG=0.02 with 432 points.
  Core radius for overlap checks: 2.01 bohrs.
  Reading pulay file /home/gridsan/aligho/DFT/build-Nov24/pseudopotentials/SG15/Na_ONCV_PBE.pulay ... using dE_dnG = -2.946487e-03 computed for Ecut = 20.

Initialized 1 species with 1 total atoms.

Folded 1 k-points by 12x12x1 to 144 k-points.

---------- Setting up k-points, bands, fillings ----------
Reduced to 19 k-points under symmetry. 
Computing the number of bands and number of electrons
Calculating initial fillings.
nElectrons:   9.000000   nBands: 6   nStates: 38

----- Setting up reduced wavefunction bases (one per k-point) -----
average nbasis = 52924.021 , ideal nbasis = 52918.836

---------- Setting up coulomb interaction ----------
Initialized slab truncation along lattice direction 001

---------- Setting up 2D ewald sum ----------
Optimum gaussian width for ewald sums = 10.498040 bohr.
Real space sums over 289 unit cells with max indices [  8  8  0  ]
Reciprocal space sums over 81 terms with max indices [  4  4  0  ]

---------- Allocating electronic variables ----------
Initializing wave functions:  linear combination of atomic orbitals
Note: number of bands (6) exceeds available atomic orbitals (5)
Na pseudo-atom occupations:   s ( 2 1 )  p ( 6 )
[d-6-10-3:29612] 18 more processes have sent help message help-mpi-common-cuda.txt / dlopen failed
[d-6-10-3:29612] Set MCA parameter "orte_base_help_aggregate" to 0 to see all help / error messages
[d-6-10-3:29612] 18 more processes have sent help message help-mpi-btl-openib-cpc-base.txt / no cpcs for port
	FillingsUpdate:  mu: -0.101196741  nElectrons: 9.000000  magneticMoment: [ Abs: 0.08000  Tot: -0.08000 ]
LCAOMinimize: Iter:   0  F: -42.5498016784393371  |grad|_K:  1.221e-06  alpha:  1.000e+00
	FillingsUpdate:  mu: -0.101196490  nElectrons: 9.000000  magneticMoment: [ Abs: 0.08000  Tot: -0.08000 ]
LCAOMinimize: Iter:   1  F: -42.5498016794517966  |grad|_K:  5.358e-09  alpha:  9.930e-01  linmin: -3.145e-03  cgtest:  2.586e-01  t[s]:     14.81
LCAOMinimize: Encountered beta<0, resetting CG.
LCAOMinimize: 	Wrong curvature in test step, increasing alphaT to 2.978952e+00.
	FillingsUpdate:  mu: -0.101196490  nElectrons: 9.000000  magneticMoment: [ Abs: 0.08000  Tot: -0.08000 ]
LCAOMinimize: Iter:   2  F: -42.5498016794522371  |grad|_K:  3.651e-11  alpha: -4.780e-02  linmin: -1.015e-02  cgtest:  9.038e-01  t[s]:     18.80
LCAOMinimize: Encountered beta<0, resetting CG.
LCAOMinimize: Converged (|Delta F|<1.000000e-06 for 2 iters).


---- Citations for features of the code used in this run ----

   Software package:
      R. Sundararaman, K. Letchworth-Weaver, K.A. Schwarz, D. Gunceler, Y. Ozhabes and T.A. Arias, 'JDFTx: software for joint density-functional theory', SoftwareX 6, 278 (2017)

   gga-PBE exchange-correlation functional:
      J.P. Perdew, K. Burke and M. Ernzerhof, Phys. Rev. Lett. 77, 3865 (1996)

   Pseudopotentials:
      M Schlipf and F Gygi, Comput. Phys. Commun. 196, 36 (2015)

   Truncated Coulomb potentials:
      R. Sundararaman and T.A. Arias, Phys. Rev. B 87, 165122 (2013)

This list may not be complete. Please suggest additional citations or
report any other bugs at https://github.com/shankar1729/jdftx/issues

Initialization completed successfully at t[s]:     18.96


-------- Electronic minimization -----------
Will mix electronic density at each iteration.
	FillingsUpdate:  mu: -0.101196490  nElectrons: 9.000000  magneticMoment: [ Abs: 0.08000  Tot: -0.08000 ]
	FillingsUpdate:  mu: -0.101209036  nElectrons: 9.000000  magneticMoment: [ Abs: 0.08000  Tot: -0.08000 ]
SCF: Cycle:  0   F: -42.549823409845885   dF: -2.173e-05   |Residual|: 1.825e-03   |deigs|: 1.730e-01  t[s]:     26.57
	FillingsUpdate:  mu: -0.101241658  nElectrons: 9.000000  magneticMoment: [ Abs: 0.08014  Tot: -0.08000 ]
SCF: Cycle:  1   F: -42.549823809612541   dF: -3.998e-07   |Residual|: 8.339e-04   |deigs|: 7.636e-03  t[s]:     32.48
	FillingsUpdate:  mu: -0.101290451  nElectrons: 9.000000  magneticMoment: [ Abs: 0.08011  Tot: -0.08000 ]
SCF: Cycle:  2   F: -42.549823952807031   dF: -1.432e-07   |Residual|: 1.773e-04   |deigs|: 1.820e-03  t[s]:     38.61
	FillingsUpdate:  mu: -0.101301775  nElectrons: 9.000000  magneticMoment: [ Abs: 0.08013  Tot: -0.08000 ]
SCF: Cycle:  3   F: -42.549823960737612   dF: -7.931e-09   |Residual|: 1.088e-04   |deigs|: 4.441e-04  t[s]:     44.77
	FillingsUpdate:  mu: -0.101346807  nElectrons: 9.000000  magneticMoment: [ Abs: 0.08010  Tot: -0.08000 ]
SCF: Cycle:  4   F: -42.549823974243665   dF: -1.351e-08   |Residual|: 1.177e-04   |deigs|: 4.051e-04  t[s]:     51.03
	FillingsUpdate:  mu: -0.101364432  nElectrons: 9.000000  magneticMoment: [ Abs: 0.08013  Tot: -0.08000 ]
SCF: Cycle:  5   F: -42.549823983701472   dF: -9.458e-09   |Residual|: 5.954e-05   |deigs|: 2.468e-04  t[s]:     57.40
	FillingsUpdate:  mu: -0.101401280  nElectrons: 9.000000  magneticMoment: [ Abs: 0.08012  Tot: -0.08000 ]
SCF: Cycle:  6   F: -42.549823995509136   dF: -1.181e-08   |Residual|: 8.979e-05   |deigs|: 2.780e-04  t[s]:     63.87
	FillingsUpdate:  mu: -0.101404634  nElectrons: 9.000000  magneticMoment: [ Abs: 0.08013  Tot: -0.08000 ]
SCF: Cycle:  7   F: -42.549823998842356   dF: -3.333e-09   |Residual|: 2.918e-05   |deigs|: 2.714e-04  t[s]:     70.38
	FillingsUpdate:  mu: -0.101397804  nElectrons: 9.000000  magneticMoment: [ Abs: 0.08012  Tot: -0.08000 ]
SCF: Cycle:  8   F: -42.549824003233965   dF: -4.392e-09   |Residual|: 4.576e-05   |deigs|: 2.299e-04  t[s]:     77.04
SCF: Converged (|Delta E|<1.000000e-08 for 2 iters).


# Ionic positions in lattice coordinates:
ion Na   0.000000000000000   0.000000000000000   0.000000000000000 0

# Forces in Lattice coordinates:
force Na   0.000000000000000  -0.000000000000000   0.000000000000000 0

# Energy components:
   Eewald =       -9.0240130501663280
       EH =       24.7627179293064756
     Eloc =      -60.8060323654224462
      Enl =      -12.9025444695436988
   Epulay =        0.0000012333957556
      Exc =       -6.2093024300878330
       KE =       21.6293503106220797
-------------------------------------
     Etot =      -42.5498228418959954
       TS =        0.0000011613379702
-------------------------------------
        F =      -42.5498240032339652

IonicMinimize: Iter:   0  F: -42.549824003233965  |grad|_K:  0.000e+00  t[s]:     77.28
IonicMinimize: Converged (|grad|_K<1.000000e-04).

#--- Lowdin population analysis ---
# oxidation-state Na +0.000
# magnetic-moments Na -0.080

End date and time: Sat Feb  5 22:31:47 2022  (Duration: 0-0:01:17.36)
Done!
