The alkali metal is Na
scale=2
magnetization=-0.38
--------------------------------------------------------------------------
The library attempted to open the following supporting CUDA libraries,
but each of them failed.  CUDA-aware support is disabled.
libcuda.so.1: cannot open shared object file: No such file or directory
libcuda.dylib: cannot open shared object file: No such file or directory
/usr/lib64/libcuda.so.1: cannot open shared object file: No such file or directory
/usr/lib64/libcuda.dylib: cannot open shared object file: No such file or directory
If you are not interested in CUDA-aware support, then run with
--mca opal_warn_on_missing_libcuda 0 to suppress this message.  If you are interested
in CUDA-aware support, then try setting LD_LIBRARY_PATH to the location
of libcuda.so.1 to get passed this issue.
--------------------------------------------------------------------------
--------------------------------------------------------------------------
No OpenFabrics connection schemes reported that they were able to be
used on a specific port.  As such, the openib BTL (OpenFabrics
support) will be disabled for this port.

  Local host:           d-3-13-4
  Local device:         mlx5_1
  Local port:           1
  CPCs attempted:       rdmacm, udcm
--------------------------------------------------------------------------

*************** JDFTx 1.6.0 (git hash 42ebbcc2) ***************

Start date and time: Sat Feb  5 22:26:30 2022
Executable jdftx with command-line: -i Alkali.in
Running on hosts (process indices):  d-3-13-4 (0-18)
Divided in process groups (process indices):  0 (0)  1 (1)  2 (2)  3 (3)  4 (4)  5 (5)  6 (6)  7 (7)  8 (8)  9 (9)  10 (10)  11 (11)  12 (12)  13 (13)  14 (14)  15 (15)  16 (16)  17 (17)  18 (18)
Resource initialization completed at t[s]:      0.00
Run totals: 19 processes, 48 threads, 0 GPUs


Input parsed successfully to the following command list (including defaults):

basis kpoint-dependent
coords-type Lattice
core-overlap-check vector
coulomb-interaction Slab 001
davidson-band-ratio 1.1
dump End None
dump-name $INPUT.$VAR
elec-cutoff 20
elec-eigen-algo Davidson
elec-ex-corr gga-PBE
elec-initial-magnetization -0.380000 yes
elec-smearing Fermi 1e-05
electronic-minimize  \
	dirUpdateScheme      FletcherReeves \
	linminMethod         DirUpdateRecommended \
	nIterations          100 \
	history              15 \
	knormThreshold       0 \
	energyDiffThreshold  1e-08 \
	nEnergyDiff          2 \
	alphaTstart          1 \
	alphaTmin            1e-10 \
	updateTestStepSize   yes \
	alphaTreduceFactor   0.1 \
	alphaTincreaseFactor 3 \
	nAlphaAdjustMax      3 \
	wolfeEnergy          0.0001 \
	wolfeGradient        0.9 \
	fdTest               no
electronic-scf  \
	nIterations	10000 \
	energyDiffThreshold	1e-08 \
	residualThreshold	1e-07 \
	mixFraction	0.5 \
	qMetric	0.8 \
	history	10 \
	nEigSteps	2 \
	eigDiffThreshold	1e-08 \
	mixedVariable	Density \
	qKerker	0.8 \
	qKappa	-1 \
	verbose	no \
	mixFractionMag	1.5
exchange-regularization WignerSeitzTruncated
fluid None
fluid-ex-corr (null) lda-PZ
fluid-gummel-loop 10 1.000000e-05
fluid-minimize  \
	dirUpdateScheme      PolakRibiere \
	linminMethod         DirUpdateRecommended \
	nIterations          100 \
	history              15 \
	knormThreshold       0 \
	energyDiffThreshold  0 \
	nEnergyDiff          2 \
	alphaTstart          1 \
	alphaTmin            1e-10 \
	updateTestStepSize   yes \
	alphaTreduceFactor   0.1 \
	alphaTincreaseFactor 3 \
	nAlphaAdjustMax      3 \
	wolfeEnergy          0.0001 \
	wolfeGradient        0.9 \
	fdTest               no
fluid-solvent H2O 55.338 ScalarEOS \
	epsBulk 78.4 \
	pMol 0.92466 \
	epsInf 1.77 \
	Pvap 1.06736e-10 \
	sigmaBulk 4.62e-05 \
	Rvdw 2.61727 \
	Res 1.42 \
	tauNuc 343133 \
	poleEl 15 7 1
forces-output-coords Positions
ion Na   0.000000000000000   0.000000000000000   0.000000000000000 0
ion-species SG15/$ID_ONCV_PBE.upf
ion-width 0
ionic-minimize  \
	dirUpdateScheme      L-BFGS \
	linminMethod         DirUpdateRecommended \
	nIterations          0 \
	history              15 \
	knormThreshold       0.0001 \
	energyDiffThreshold  1e-06 \
	nEnergyDiff          2 \
	alphaTstart          1 \
	alphaTmin            1e-10 \
	updateTestStepSize   yes \
	alphaTreduceFactor   0.1 \
	alphaTincreaseFactor 3 \
	nAlphaAdjustMax      3 \
	wolfeEnergy          0.0001 \
	wolfeGradient        0.9 \
	fdTest               no
kpoint   0.000000000000   0.000000000000   0.000000000000  1.00000000000000
kpoint-folding 12 12 1 
latt-move-scale 1 1 1
latt-scale 2 2 1 
lattice  \
	   4.727486978767153   -2.363743489383575    0.000000000000000  \
	  -0.000000000000000    4.094123819672498    0.000000000000000  \
	   0.000000000000000    0.000000000000000   40.000000000000000 
lattice-minimize  \
	dirUpdateScheme      L-BFGS \
	linminMethod         DirUpdateRecommended \
	nIterations          0 \
	history              15 \
	knormThreshold       0 \
	energyDiffThreshold  1e-06 \
	nEnergyDiff          2 \
	alphaTstart          1 \
	alphaTmin            1e-10 \
	updateTestStepSize   yes \
	alphaTreduceFactor   0.1 \
	alphaTincreaseFactor 3 \
	nAlphaAdjustMax      3 \
	wolfeEnergy          0.0001 \
	wolfeGradient        0.9 \
	fdTest               no
lcao-params -1 1e-06 1e-05
pcm-variant GLSSA13
spintype z-spin
subspace-rotation-factor 1 yes
symmetries automatic
symmetry-threshold 0.0001



---------- Setting up symmetries ----------

Found 24 point-group symmetries of the bravais lattice
Found 24 space-group symmetries with basis
Applied RMS atom displacement 0 bohrs to make symmetries exact.

---------- Initializing the Grid ----------
R = 
[      9.45497     -4.72749            0  ]
[            0      8.18825            0  ]
[            0            0           40  ]
unit cell volume = 3096.79
G =
[   0.664538   0.383671         -0  ]
[          0   0.767342         -0  ]
[         -0         -0    0.15708  ]
Minimum fftbox size, Smin = [  40  40  164  ]
Chosen fftbox size, S = [  40  40  168  ]

---------- Exchange Correlation functional ----------
Initalized PBE GGA exchange.
Initalized PBE GGA correlation.

---------- Setting up pseudopotentials ----------
Width of ionic core gaussian charges (only for fluid interactions / plotting) set to 0

Reading pseudopotential file '/home/gridsan/aligho/DFT/build-Nov24/pseudopotentials/SG15/Na_ONCV_PBE.upf':
  'Na' pseudopotential, 'PBE' functional
  Generated using ONCVPSP code by D. R. Hamann
  Author: Martin Schlipf and Francois Gygi  Date: 150915.
  9 valence electrons, 3 orbitals, 4 projectors, 1992 radial grid points, with lMax = 1
  Transforming local potential to a uniform radial grid of dG=0.02 with 1489 points.
  Transforming nonlocal projectors to a uniform radial grid of dG=0.02 with 432 points.
    2S    l: 0   occupation:  2.0   eigenvalue: -2.085640
    2P    l: 1   occupation:  6.0   eigenvalue: -1.053708
    3S    l: 0   occupation:  1.0   eigenvalue: -0.100838
  Transforming atomic orbitals to a uniform radial grid of dG=0.02 with 432 points.
  Core radius for overlap checks: 2.01 bohrs.
  Reading pulay file /home/gridsan/aligho/DFT/build-Nov24/pseudopotentials/SG15/Na_ONCV_PBE.pulay ... using dE_dnG = -2.946487e-03 computed for Ecut = 20.

Initialized 1 species with 1 total atoms.

Folded 1 k-points by 12x12x1 to 144 k-points.

---------- Setting up k-points, bands, fillings ----------
Reduced to 19 k-points under symmetry. 
Computing the number of bands and number of electrons
Calculating initial fillings.
nElectrons:   9.000000   nBands: 6   nStates: 38

----- Setting up reduced wavefunction bases (one per k-point) -----
average nbasis = 13230.521 , ideal nbasis = 13229.709

---------- Setting up coulomb interaction ----------
Initialized slab truncation along lattice direction 001

---------- Setting up 2D ewald sum ----------
Optimum gaussian width for ewald sums = 5.249020 bohr.
Real space sums over 289 unit cells with max indices [  8  8  0  ]
Reciprocal space sums over 81 terms with max indices [  4  4  0  ]

---------- Allocating electronic variables ----------
Initializing wave functions:  linear combination of atomic orbitals
Note: number of bands (6) exceeds available atomic orbitals (5)
Na pseudo-atom occupations:   s ( 2 1 )  p ( 6 )
	FillingsUpdate:  mu: -0.104006014  nElectrons: 9.000000  magneticMoment: [ Abs: 0.38000  Tot: -0.38000 ]
LCAOMinimize: Iter:   0  F: -42.5665399096219232  |grad|_K:  2.605e-05  alpha:  1.000e+00
	FillingsUpdate:  mu: -0.104001810  nElectrons: 9.000000  magneticMoment: [ Abs: 0.38000  Tot: -0.38000 ]
LCAOMinimize: Iter:   1  F: -42.5665403678527738  |grad|_K:  2.297e-07  alpha:  9.875e-01  linmin: -1.897e-02  cgtest:  6.771e-01  t[s]:      4.47
LCAOMinimize: Encountered beta<0, resetting CG.
[d-3-13-4:83351] 18 more processes have sent help message help-mpi-common-cuda.txt / dlopen failed
[d-3-13-4:83351] Set MCA parameter "orte_base_help_aggregate" to 0 to see all help / error messages
[d-3-13-4:83351] 18 more processes have sent help message help-mpi-btl-openib-cpc-base.txt / no cpcs for port
	FillingsUpdate:  mu: -0.104001818  nElectrons: 9.000000  magneticMoment: [ Abs: 0.38000  Tot: -0.38000 ]
LCAOMinimize: Iter:   2  F: -42.5665403678883010  |grad|_K:  3.304e-10  alpha:  1.002e+00  linmin:  3.503e-02  cgtest: -8.766e-01  t[s]:      5.69
LCAOMinimize: Converged (|Delta F|<1.000000e-06 for 2 iters).


---- Citations for features of the code used in this run ----

   Software package:
      R. Sundararaman, K. Letchworth-Weaver, K.A. Schwarz, D. Gunceler, Y. Ozhabes and T.A. Arias, 'JDFTx: software for joint density-functional theory', SoftwareX 6, 278 (2017)

   gga-PBE exchange-correlation functional:
      J.P. Perdew, K. Burke and M. Ernzerhof, Phys. Rev. Lett. 77, 3865 (1996)

   Pseudopotentials:
      M Schlipf and F Gygi, Comput. Phys. Commun. 196, 36 (2015)

   Truncated Coulomb potentials:
      R. Sundararaman and T.A. Arias, Phys. Rev. B 87, 165122 (2013)

This list may not be complete. Please suggest additional citations or
report any other bugs at https://github.com/shankar1729/jdftx/issues

Initialization completed successfully at t[s]:      5.76


-------- Electronic minimization -----------
Will mix electronic density at each iteration.
	FillingsUpdate:  mu: -0.104001818  nElectrons: 9.000000  magneticMoment: [ Abs: 0.38000  Tot: -0.38000 ]
	FillingsUpdate:  mu: -0.111132537  nElectrons: 9.000000  magneticMoment: [ Abs: 0.38000  Tot: -0.38000 ]
SCF: Cycle:  0   F: -42.571170202027410   dF: -4.630e-03   |Residual|: 8.762e-03   |deigs|: 1.704e-01  t[s]:      7.98
	FillingsUpdate:  mu: -0.111173562  nElectrons: 9.000000  magneticMoment: [ Abs: 0.38000  Tot: -0.38000 ]
SCF: Cycle:  1   F: -42.571268392442626   dF: -9.819e-05   |Residual|: 5.947e-03   |deigs|: 8.768e-03  t[s]:      9.65
	FillingsUpdate:  mu: -0.110983591  nElectrons: 9.000000  magneticMoment: [ Abs: 0.38130  Tot: -0.38000 ]
SCF: Cycle:  2   F: -42.571284526812498   dF: -1.613e-05   |Residual|: 3.339e-03   |deigs|: 6.674e-03  t[s]:     11.34
	FillingsUpdate:  mu: -0.110802025  nElectrons: 9.000000  magneticMoment: [ Abs: 0.38003  Tot: -0.38000 ]
SCF: Cycle:  3   F: -42.571289396726065   dF: -4.870e-06   |Residual|: 1.932e-03   |deigs|: 4.797e-03  t[s]:     13.07
	FillingsUpdate:  mu: -0.110391081  nElectrons: 9.000000  magneticMoment: [ Abs: 0.38005  Tot: -0.38000 ]
SCF: Cycle:  4   F: -42.571299829854361   dF: -1.043e-05   |Residual|: 9.159e-04   |deigs|: 2.815e-03  t[s]:     14.83
	FillingsUpdate:  mu: -0.110061666  nElectrons: 9.000000  magneticMoment: [ Abs: 0.38015  Tot: -0.38000 ]
SCF: Cycle:  5   F: -42.571301092808383   dF: -1.263e-06   |Residual|: 7.508e-04   |deigs|: 1.395e-03  t[s]:     16.63
	FillingsUpdate:  mu: -0.109333185  nElectrons: 9.000000  magneticMoment: [ Abs: 0.38096  Tot: -0.38000 ]
SCF: Cycle:  6   F: -42.571301457257768   dF: -3.644e-07   |Residual|: 5.605e-04   |deigs|: 2.273e-03  t[s]:     18.43
	FillingsUpdate:  mu: -0.108506009  nElectrons: 9.000000  magneticMoment: [ Abs: 0.38214  Tot: -0.38000 ]
SCF: Cycle:  7   F: -42.571300464742677   dF: +9.925e-07   |Residual|: 4.081e-04   |deigs|: 1.139e-03  t[s]:     20.26
	FillingsUpdate:  mu: -0.107847508  nElectrons: 9.000000  magneticMoment: [ Abs: 0.38152  Tot: -0.38000 ]
SCF: Cycle:  8   F: -42.571300519264753   dF: -5.452e-08   |Residual|: 3.500e-04   |deigs|: 8.784e-04  t[s]:     22.13
	FillingsUpdate:  mu: -0.107574185  nElectrons: 9.000000  magneticMoment: [ Abs: 0.38059  Tot: -0.38000 ]
SCF: Cycle:  9   F: -42.571302035831842   dF: -1.517e-06   |Residual|: 2.871e-04   |deigs|: 3.360e-04  t[s]:     24.09
	FillingsUpdate:  mu: -0.107372101  nElectrons: 9.000000  magneticMoment: [ Abs: 0.38122  Tot: -0.38000 ]
SCF: Cycle: 10   F: -42.571303066744044   dF: -1.031e-06   |Residual|: 2.296e-04   |deigs|: 2.755e-04  t[s]:     26.06
	FillingsUpdate:  mu: -0.106850686  nElectrons: 9.000000  magneticMoment: [ Abs: 0.38131  Tot: -0.38000 ]
SCF: Cycle: 11   F: -42.571301884666177   dF: +1.182e-06   |Residual|: 2.132e-04   |deigs|: 8.635e-04  t[s]:     27.94
	FillingsUpdate:  mu: -0.106198544  nElectrons: 9.000000  magneticMoment: [ Abs: 0.38070  Tot: -0.38000 ]
SCF: Cycle: 12   F: -42.571301441546382   dF: +4.431e-07   |Residual|: 1.961e-04   |deigs|: 6.847e-04  t[s]:     29.74
	FillingsUpdate:  mu: -0.105806280  nElectrons: 9.000000  magneticMoment: [ Abs: 0.38137  Tot: -0.38000 ]
SCF: Cycle: 13   F: -42.571302827105356   dF: -1.386e-06   |Residual|: 1.719e-04   |deigs|: 3.682e-04  t[s]:     31.67
	FillingsUpdate:  mu: -0.105542378  nElectrons: 9.000000  magneticMoment: [ Abs: 0.38107  Tot: -0.38000 ]
SCF: Cycle: 14   F: -42.571303720881644   dF: -8.938e-07   |Residual|: 1.596e-04   |deigs|: 2.736e-04  t[s]:     33.62
	FillingsUpdate:  mu: -0.104974704  nElectrons: 9.000000  magneticMoment: [ Abs: 0.38058  Tot: -0.38000 ]
SCF: Cycle: 15   F: -42.571304152189732   dF: -4.313e-07   |Residual|: 1.519e-04   |deigs|: 6.222e-04  t[s]:     35.52
	FillingsUpdate:  mu: -0.104502237  nElectrons: 9.000000  magneticMoment: [ Abs: 0.38032  Tot: -0.38000 ]
SCF: Cycle: 16   F: -42.571304560549727   dF: -4.084e-07   |Residual|: 1.112e-04   |deigs|: 4.714e-04  t[s]:     37.40
	FillingsUpdate:  mu: -0.104250184  nElectrons: 9.000000  magneticMoment: [ Abs: 0.38034  Tot: -0.38000 ]
SCF: Cycle: 17   F: -42.571304724307375   dF: -1.638e-07   |Residual|: 6.809e-05   |deigs|: 2.143e-04  t[s]:     39.24
	FillingsUpdate:  mu: -0.104172611  nElectrons: 9.000000  magneticMoment: [ Abs: 0.38024  Tot: -0.38000 ]
SCF: Cycle: 18   F: -42.571304755650409   dF: -3.134e-08   |Residual|: 5.372e-05   |deigs|: 7.521e-04  t[s]:     41.12
	FillingsUpdate:  mu: -0.104109215  nElectrons: 9.000000  magneticMoment: [ Abs: 0.38024  Tot: -0.38000 ]
SCF: Cycle: 19   F: -42.571304781849577   dF: -2.620e-08   |Residual|: 2.455e-05   |deigs|: 1.168e-04  t[s]:     42.95
	FillingsUpdate:  mu: -0.104099075  nElectrons: 9.000000  magneticMoment: [ Abs: 0.38024  Tot: -0.38000 ]
SCF: Cycle: 20   F: -42.571304789102470   dF: -7.253e-09   |Residual|: 1.241e-05   |deigs|: 7.420e-05  t[s]:     44.81
	FillingsUpdate:  mu: -0.104095325  nElectrons: 9.000000  magneticMoment: [ Abs: 0.38019  Tot: -0.38000 ]
SCF: Cycle: 21   F: -42.571304790294320   dF: -1.192e-09   |Residual|: 8.035e-06   |deigs|: 8.516e-04  t[s]:     46.69
SCF: Converged (|Delta E|<1.000000e-08 for 2 iters).


# Ionic positions in lattice coordinates:
ion Na   0.000000000000000   0.000000000000000   0.000000000000000 0

# Forces in Lattice coordinates:
force Na   0.000000000000000   0.000000000000000   0.000000000000000 0

# Energy components:
   Eewald =      -18.0480261003326561
       EH =       15.7283416332829322
     Eloc =      -42.7400893250548890
      Enl =      -12.9134470058029596
   Epulay =        0.0000007725295140
      Exc =       -6.2172754401699351
       KE =       21.6191914207642135
-------------------------------------
     Etot =      -42.5713040447837869
       TS =        0.0000007455105331
-------------------------------------
        F =      -42.5713047902943202

IonicMinimize: Iter:   0  F: -42.571304790294320  |grad|_K:  0.000e+00  t[s]:     46.81
IonicMinimize: Converged (|grad|_K<1.000000e-04).

#--- Lowdin population analysis ---
# oxidation-state Na +0.050
# magnetic-moments Na -0.339

End date and time: Sat Feb  5 22:27:17 2022  (Duration: 0-0:00:46.84)
Done!
scale=3
magnetization=-0.38
--------------------------------------------------------------------------
The library attempted to open the following supporting CUDA libraries,
but each of them failed.  CUDA-aware support is disabled.
libcuda.so.1: cannot open shared object file: No such file or directory
libcuda.dylib: cannot open shared object file: No such file or directory
/usr/lib64/libcuda.so.1: cannot open shared object file: No such file or directory
/usr/lib64/libcuda.dylib: cannot open shared object file: No such file or directory
If you are not interested in CUDA-aware support, then run with
--mca opal_warn_on_missing_libcuda 0 to suppress this message.  If you are interested
in CUDA-aware support, then try setting LD_LIBRARY_PATH to the location
of libcuda.so.1 to get passed this issue.
--------------------------------------------------------------------------
--------------------------------------------------------------------------
No OpenFabrics connection schemes reported that they were able to be
used on a specific port.  As such, the openib BTL (OpenFabrics
support) will be disabled for this port.

  Local host:           d-3-13-4
  Local device:         mlx5_1
  Local port:           1
  CPCs attempted:       rdmacm, udcm
--------------------------------------------------------------------------

*************** JDFTx 1.6.0 (git hash 42ebbcc2) ***************

Start date and time: Sat Feb  5 22:27:18 2022
Executable jdftx with command-line: -i Alkali.in
Running on hosts (process indices):  d-3-13-4 (0-18)
Divided in process groups (process indices):  0 (0)  1 (1)  2 (2)  3 (3)  4 (4)  5 (5)  6 (6)  7 (7)  8 (8)  9 (9)  10 (10)  11 (11)  12 (12)  13 (13)  14 (14)  15 (15)  16 (16)  17 (17)  18 (18)
Resource initialization completed at t[s]:      0.00
Run totals: 19 processes, 48 threads, 0 GPUs


Input parsed successfully to the following command list (including defaults):

basis kpoint-dependent
coords-type Lattice
core-overlap-check vector
coulomb-interaction Slab 001
davidson-band-ratio 1.1
dump End None
dump-name $INPUT.$VAR
elec-cutoff 20
elec-eigen-algo Davidson
elec-ex-corr gga-PBE
elec-initial-magnetization -0.380000 yes
elec-smearing Fermi 1e-05
electronic-minimize  \
	dirUpdateScheme      FletcherReeves \
	linminMethod         DirUpdateRecommended \
	nIterations          100 \
	history              15 \
	knormThreshold       0 \
	energyDiffThreshold  1e-08 \
	nEnergyDiff          2 \
	alphaTstart          1 \
	alphaTmin            1e-10 \
	updateTestStepSize   yes \
	alphaTreduceFactor   0.1 \
	alphaTincreaseFactor 3 \
	nAlphaAdjustMax      3 \
	wolfeEnergy          0.0001 \
	wolfeGradient        0.9 \
	fdTest               no
electronic-scf  \
	nIterations	10000 \
	energyDiffThreshold	1e-08 \
	residualThreshold	1e-07 \
	mixFraction	0.5 \
	qMetric	0.8 \
	history	10 \
	nEigSteps	2 \
	eigDiffThreshold	1e-08 \
	mixedVariable	Density \
	qKerker	0.8 \
	qKappa	-1 \
	verbose	no \
	mixFractionMag	1.5
exchange-regularization WignerSeitzTruncated
fluid None
fluid-ex-corr (null) lda-PZ
fluid-gummel-loop 10 1.000000e-05
fluid-minimize  \
	dirUpdateScheme      PolakRibiere \
	linminMethod         DirUpdateRecommended \
	nIterations          100 \
	history              15 \
	knormThreshold       0 \
	energyDiffThreshold  0 \
	nEnergyDiff          2 \
	alphaTstart          1 \
	alphaTmin            1e-10 \
	updateTestStepSize   yes \
	alphaTreduceFactor   0.1 \
	alphaTincreaseFactor 3 \
	nAlphaAdjustMax      3 \
	wolfeEnergy          0.0001 \
	wolfeGradient        0.9 \
	fdTest               no
fluid-solvent H2O 55.338 ScalarEOS \
	epsBulk 78.4 \
	pMol 0.92466 \
	epsInf 1.77 \
	Pvap 1.06736e-10 \
	sigmaBulk 4.62e-05 \
	Rvdw 2.61727 \
	Res 1.42 \
	tauNuc 343133 \
	poleEl 15 7 1
forces-output-coords Positions
ion Na   0.000000000000000   0.000000000000000   0.000000000000000 0
ion-species SG15/$ID_ONCV_PBE.upf
ion-width 0
ionic-minimize  \
	dirUpdateScheme      L-BFGS \
	linminMethod         DirUpdateRecommended \
	nIterations          0 \
	history              15 \
	knormThreshold       0.0001 \
	energyDiffThreshold  1e-06 \
	nEnergyDiff          2 \
	alphaTstart          1 \
	alphaTmin            1e-10 \
	updateTestStepSize   yes \
	alphaTreduceFactor   0.1 \
	alphaTincreaseFactor 3 \
	nAlphaAdjustMax      3 \
	wolfeEnergy          0.0001 \
	wolfeGradient        0.9 \
	fdTest               no
kpoint   0.000000000000   0.000000000000   0.000000000000  1.00000000000000
kpoint-folding 12 12 1 
latt-move-scale 1 1 1
latt-scale 3 3 1 
lattice  \
	   4.727486978767153   -2.363743489383575    0.000000000000000  \
	  -0.000000000000000    4.094123819672498    0.000000000000000  \
	   0.000000000000000    0.000000000000000   40.000000000000000 
lattice-minimize  \
	dirUpdateScheme      L-BFGS \
	linminMethod         DirUpdateRecommended \
	nIterations          0 \
	history              15 \
	knormThreshold       0 \
	energyDiffThreshold  1e-06 \
	nEnergyDiff          2 \
	alphaTstart          1 \
	alphaTmin            1e-10 \
	updateTestStepSize   yes \
	alphaTreduceFactor   0.1 \
	alphaTincreaseFactor 3 \
	nAlphaAdjustMax      3 \
	wolfeEnergy          0.0001 \
	wolfeGradient        0.9 \
	fdTest               no
lcao-params -1 1e-06 1e-05
pcm-variant GLSSA13
spintype z-spin
subspace-rotation-factor 1 yes
symmetries automatic
symmetry-threshold 0.0001



---------- Setting up symmetries ----------

Found 24 point-group symmetries of the bravais lattice
Found 24 space-group symmetries with basis
Applied RMS atom displacement 0 bohrs to make symmetries exact.

---------- Initializing the Grid ----------
R = 
[      14.1825     -7.09123            0  ]
[            0      12.2824            0  ]
[            0            0           40  ]
unit cell volume = 6967.77
G =
[   0.443025   0.255781         -0  ]
[          0   0.511561         -0  ]
[         -0         -0    0.15708  ]
Minimum fftbox size, Smin = [  60  60  164  ]
Chosen fftbox size, S = [  60  60  168  ]

---------- Exchange Correlation functional ----------
Initalized PBE GGA exchange.
Initalized PBE GGA correlation.

---------- Setting up pseudopotentials ----------
Width of ionic core gaussian charges (only for fluid interactions / plotting) set to 0

Reading pseudopotential file '/home/gridsan/aligho/DFT/build-Nov24/pseudopotentials/SG15/Na_ONCV_PBE.upf':
  'Na' pseudopotential, 'PBE' functional
  Generated using ONCVPSP code by D. R. Hamann
  Author: Martin Schlipf and Francois Gygi  Date: 150915.
  9 valence electrons, 3 orbitals, 4 projectors, 1992 radial grid points, with lMax = 1
  Transforming local potential to a uniform radial grid of dG=0.02 with 1489 points.
  Transforming nonlocal projectors to a uniform radial grid of dG=0.02 with 432 points.
    2S    l: 0   occupation:  2.0   eigenvalue: -2.085640
    2P    l: 1   occupation:  6.0   eigenvalue: -1.053708
    3S    l: 0   occupation:  1.0   eigenvalue: -0.100838
  Transforming atomic orbitals to a uniform radial grid of dG=0.02 with 432 points.
  Core radius for overlap checks: 2.01 bohrs.
  Reading pulay file /home/gridsan/aligho/DFT/build-Nov24/pseudopotentials/SG15/Na_ONCV_PBE.pulay ... using dE_dnG = -2.946487e-03 computed for Ecut = 20.

Initialized 1 species with 1 total atoms.

Folded 1 k-points by 12x12x1 to 144 k-points.

---------- Setting up k-points, bands, fillings ----------
Reduced to 19 k-points under symmetry. 
Computing the number of bands and number of electrons
Calculating initial fillings.
nElectrons:   9.000000   nBands: 6   nStates: 38

----- Setting up reduced wavefunction bases (one per k-point) -----
average nbasis = 29766.104 , ideal nbasis = 29766.845

---------- Setting up coulomb interaction ----------
Initialized slab truncation along lattice direction 001

---------- Setting up 2D ewald sum ----------
Optimum gaussian width for ewald sums = 7.873530 bohr.
Real space sums over 289 unit cells with max indices [  8  8  0  ]
Reciprocal space sums over 81 terms with max indices [  4  4  0  ]

---------- Allocating electronic variables ----------
Initializing wave functions:  linear combination of atomic orbitals
Note: number of bands (6) exceeds available atomic orbitals (5)
Na pseudo-atom occupations:   s ( 2 1 )  p ( 6 )
[d-3-13-4:16587] 18 more processes have sent help message help-mpi-common-cuda.txt / dlopen failed
[d-3-13-4:16587] Set MCA parameter "orte_base_help_aggregate" to 0 to see all help / error messages
[d-3-13-4:16587] 18 more processes have sent help message help-mpi-btl-openib-cpc-base.txt / no cpcs for port
	FillingsUpdate:  mu: -0.101746522  nElectrons: 9.000000  magneticMoment: [ Abs: 0.38000  Tot: -0.38000 ]
LCAOMinimize: Iter:   0  F: -42.5533497815949033  |grad|_K:  7.424e-06  alpha:  1.000e+00
	FillingsUpdate:  mu: -0.101745366  nElectrons: 9.000000  magneticMoment: [ Abs: 0.38000  Tot: -0.38000 ]
LCAOMinimize: Iter:   1  F: -42.5533498190469572  |grad|_K:  3.971e-08  alpha:  9.935e-01  linmin: -1.047e-03  cgtest:  4.048e-01  t[s]:      8.60
LCAOMinimize: Encountered beta<0, resetting CG.
	FillingsUpdate:  mu: -0.101745365  nElectrons: 9.000000  magneticMoment: [ Abs: 0.38000  Tot: -0.38000 ]
LCAOMinimize: Iter:   2  F: -42.5533498190479591  |grad|_K:  4.880e-09  alpha:  8.764e-01  linmin: -4.203e-03  cgtest:  9.997e-01  t[s]:     10.96
LCAOMinimize: Encountered beta<0, resetting CG.
LCAOMinimize: Converged (|Delta F|<1.000000e-06 for 2 iters).


---- Citations for features of the code used in this run ----

   Software package:
      R. Sundararaman, K. Letchworth-Weaver, K.A. Schwarz, D. Gunceler, Y. Ozhabes and T.A. Arias, 'JDFTx: software for joint density-functional theory', SoftwareX 6, 278 (2017)

   gga-PBE exchange-correlation functional:
      J.P. Perdew, K. Burke and M. Ernzerhof, Phys. Rev. Lett. 77, 3865 (1996)

   Pseudopotentials:
      M Schlipf and F Gygi, Comput. Phys. Commun. 196, 36 (2015)

   Truncated Coulomb potentials:
      R. Sundararaman and T.A. Arias, Phys. Rev. B 87, 165122 (2013)

This list may not be complete. Please suggest additional citations or
report any other bugs at https://github.com/shankar1729/jdftx/issues

Initialization completed successfully at t[s]:     11.06


-------- Electronic minimization -----------
Will mix electronic density at each iteration.
	FillingsUpdate:  mu: -0.101745365  nElectrons: 9.000000  magneticMoment: [ Abs: 0.38000  Tot: -0.38000 ]
	FillingsUpdate:  mu: -0.102069069  nElectrons: 9.000000  magneticMoment: [ Abs: 0.38000  Tot: -0.38000 ]
SCF: Cycle:  0   F: -42.553661245629840   dF: -3.114e-04   |Residual|: 2.069e-03   |deigs|: 1.734e-01  t[s]:     15.46
	FillingsUpdate:  mu: -0.102164901  nElectrons: 9.000000  magneticMoment: [ Abs: 0.38066  Tot: -0.38000 ]
SCF: Cycle:  1   F: -42.553666469136267   dF: -5.224e-06   |Residual|: 1.138e-03   |deigs|: 5.463e-03  t[s]:     18.88
	FillingsUpdate:  mu: -0.102277953  nElectrons: 9.000000  magneticMoment: [ Abs: 0.38054  Tot: -0.38000 ]
SCF: Cycle:  2   F: -42.553668115059786   dF: -1.646e-06   |Residual|: 6.412e-04   |deigs|: 2.934e-03  t[s]:     22.37
	FillingsUpdate:  mu: -0.102376880  nElectrons: 9.000000  magneticMoment: [ Abs: 0.38072  Tot: -0.38000 ]
SCF: Cycle:  3   F: -42.553669300543945   dF: -1.185e-06   |Residual|: 4.846e-04   |deigs|: 1.424e-03  t[s]:     25.96
	FillingsUpdate:  mu: -0.102513519  nElectrons: 9.000000  magneticMoment: [ Abs: 0.38052  Tot: -0.38000 ]
SCF: Cycle:  4   F: -42.553671062106147   dF: -1.762e-06   |Residual|: 2.641e-04   |deigs|: 1.343e-03  t[s]:     29.64
	FillingsUpdate:  mu: -0.102593440  nElectrons: 9.000000  magneticMoment: [ Abs: 0.38071  Tot: -0.38000 ]
SCF: Cycle:  5   F: -42.553671832891077   dF: -7.708e-07   |Residual|: 1.498e-04   |deigs|: 4.238e-04  t[s]:     33.30
	FillingsUpdate:  mu: -0.102580490  nElectrons: 9.000000  magneticMoment: [ Abs: 0.38062  Tot: -0.38000 ]
SCF: Cycle:  6   F: -42.553672117865993   dF: -2.850e-07   |Residual|: 9.589e-05   |deigs|: 1.357e-03  t[s]:     37.06
	FillingsUpdate:  mu: -0.102559294  nElectrons: 9.000000  magneticMoment: [ Abs: 0.38069  Tot: -0.38000 ]
SCF: Cycle:  7   F: -42.553672244595070   dF: -1.267e-07   |Residual|: 6.941e-05   |deigs|: 7.378e-04  t[s]:     40.85
	FillingsUpdate:  mu: -0.102505851  nElectrons: 9.000000  magneticMoment: [ Abs: 0.38063  Tot: -0.38000 ]
SCF: Cycle:  8   F: -42.553672307065007   dF: -6.247e-08   |Residual|: 5.261e-05   |deigs|: 7.102e-04  t[s]:     44.75
	FillingsUpdate:  mu: -0.102468540  nElectrons: 9.000000  magneticMoment: [ Abs: 0.38068  Tot: -0.38000 ]
SCF: Cycle:  9   F: -42.553672312155015   dF: -5.090e-09   |Residual|: 4.571e-05   |deigs|: 3.278e-04  t[s]:     48.63
	FillingsUpdate:  mu: -0.102427670  nElectrons: 9.000000  magneticMoment: [ Abs: 0.38069  Tot: -0.38000 ]
SCF: Cycle: 10   F: -42.553672317554444   dF: -5.399e-09   |Residual|: 3.922e-05   |deigs|: 1.894e-04  t[s]:     52.67
SCF: Converged (|Delta E|<1.000000e-08 for 2 iters).


# Ionic positions in lattice coordinates:
ion Na   0.000000000000000   0.000000000000000   0.000000000000000 0

# Forces in Lattice coordinates:
force Na   0.000000000000000   0.000000000000000   0.000000000000000 0

# Energy components:
   Eewald =      -12.0320174002217755
       EH =       21.7200349697862549
     Eloc =      -54.7520102251005696
      Enl =      -12.9045217769500322
   Epulay =       -0.0000003132867683
      Exc =       -6.2079191926179034
       KE =       21.6227623968173361
-------------------------------------
     Etot =      -42.5536715415734648
       TS =        0.0000007759809824
-------------------------------------
        F =      -42.5536723175544438

IonicMinimize: Iter:   0  F: -42.553672317554444  |grad|_K:  0.000e+00  t[s]:     52.81
IonicMinimize: Converged (|grad|_K<1.000000e-04).

#--- Lowdin population analysis ---
# oxidation-state Na +0.004
# magnetic-moments Na -0.379

End date and time: Sat Feb  5 22:28:10 2022  (Duration: 0-0:00:52.86)
Done!
scale=4
magnetization=-0.38
--------------------------------------------------------------------------
The library attempted to open the following supporting CUDA libraries,
but each of them failed.  CUDA-aware support is disabled.
libcuda.so.1: cannot open shared object file: No such file or directory
libcuda.dylib: cannot open shared object file: No such file or directory
/usr/lib64/libcuda.so.1: cannot open shared object file: No such file or directory
/usr/lib64/libcuda.dylib: cannot open shared object file: No such file or directory
If you are not interested in CUDA-aware support, then run with
--mca opal_warn_on_missing_libcuda 0 to suppress this message.  If you are interested
in CUDA-aware support, then try setting LD_LIBRARY_PATH to the location
of libcuda.so.1 to get passed this issue.
--------------------------------------------------------------------------
--------------------------------------------------------------------------
No OpenFabrics connection schemes reported that they were able to be
used on a specific port.  As such, the openib BTL (OpenFabrics
support) will be disabled for this port.

  Local host:           d-3-13-4
  Local device:         mlx5_1
  Local port:           1
  CPCs attempted:       rdmacm, udcm
--------------------------------------------------------------------------

*************** JDFTx 1.6.0 (git hash 42ebbcc2) ***************

Start date and time: Sat Feb  5 22:28:11 2022
Executable jdftx with command-line: -i Alkali.in
Running on hosts (process indices):  d-3-13-4 (0-18)
Divided in process groups (process indices):  0 (0)  1 (1)  2 (2)  3 (3)  4 (4)  5 (5)  6 (6)  7 (7)  8 (8)  9 (9)  10 (10)  11 (11)  12 (12)  13 (13)  14 (14)  15 (15)  16 (16)  17 (17)  18 (18)
Resource initialization completed at t[s]:      0.00
Run totals: 19 processes, 48 threads, 0 GPUs


Input parsed successfully to the following command list (including defaults):

basis kpoint-dependent
coords-type Lattice
core-overlap-check vector
coulomb-interaction Slab 001
davidson-band-ratio 1.1
dump End None
dump-name $INPUT.$VAR
elec-cutoff 20
elec-eigen-algo Davidson
elec-ex-corr gga-PBE
elec-initial-magnetization -0.380000 yes
elec-smearing Fermi 1e-05
electronic-minimize  \
	dirUpdateScheme      FletcherReeves \
	linminMethod         DirUpdateRecommended \
	nIterations          100 \
	history              15 \
	knormThreshold       0 \
	energyDiffThreshold  1e-08 \
	nEnergyDiff          2 \
	alphaTstart          1 \
	alphaTmin            1e-10 \
	updateTestStepSize   yes \
	alphaTreduceFactor   0.1 \
	alphaTincreaseFactor 3 \
	nAlphaAdjustMax      3 \
	wolfeEnergy          0.0001 \
	wolfeGradient        0.9 \
	fdTest               no
electronic-scf  \
	nIterations	10000 \
	energyDiffThreshold	1e-08 \
	residualThreshold	1e-07 \
	mixFraction	0.5 \
	qMetric	0.8 \
	history	10 \
	nEigSteps	2 \
	eigDiffThreshold	1e-08 \
	mixedVariable	Density \
	qKerker	0.8 \
	qKappa	-1 \
	verbose	no \
	mixFractionMag	1.5
exchange-regularization WignerSeitzTruncated
fluid None
fluid-ex-corr (null) lda-PZ
fluid-gummel-loop 10 1.000000e-05
fluid-minimize  \
	dirUpdateScheme      PolakRibiere \
	linminMethod         DirUpdateRecommended \
	nIterations          100 \
	history              15 \
	knormThreshold       0 \
	energyDiffThreshold  0 \
	nEnergyDiff          2 \
	alphaTstart          1 \
	alphaTmin            1e-10 \
	updateTestStepSize   yes \
	alphaTreduceFactor   0.1 \
	alphaTincreaseFactor 3 \
	nAlphaAdjustMax      3 \
	wolfeEnergy          0.0001 \
	wolfeGradient        0.9 \
	fdTest               no
fluid-solvent H2O 55.338 ScalarEOS \
	epsBulk 78.4 \
	pMol 0.92466 \
	epsInf 1.77 \
	Pvap 1.06736e-10 \
	sigmaBulk 4.62e-05 \
	Rvdw 2.61727 \
	Res 1.42 \
	tauNuc 343133 \
	poleEl 15 7 1
forces-output-coords Positions
ion Na   0.000000000000000   0.000000000000000   0.000000000000000 0
ion-species SG15/$ID_ONCV_PBE.upf
ion-width 0
ionic-minimize  \
	dirUpdateScheme      L-BFGS \
	linminMethod         DirUpdateRecommended \
	nIterations          0 \
	history              15 \
	knormThreshold       0.0001 \
	energyDiffThreshold  1e-06 \
	nEnergyDiff          2 \
	alphaTstart          1 \
	alphaTmin            1e-10 \
	updateTestStepSize   yes \
	alphaTreduceFactor   0.1 \
	alphaTincreaseFactor 3 \
	nAlphaAdjustMax      3 \
	wolfeEnergy          0.0001 \
	wolfeGradient        0.9 \
	fdTest               no
kpoint   0.000000000000   0.000000000000   0.000000000000  1.00000000000000
kpoint-folding 12 12 1 
latt-move-scale 1 1 1
latt-scale 4 4 1 
lattice  \
	   4.727486978767153   -2.363743489383575    0.000000000000000  \
	  -0.000000000000000    4.094123819672498    0.000000000000000  \
	   0.000000000000000    0.000000000000000   40.000000000000000 
lattice-minimize  \
	dirUpdateScheme      L-BFGS \
	linminMethod         DirUpdateRecommended \
	nIterations          0 \
	history              15 \
	knormThreshold       0 \
	energyDiffThreshold  1e-06 \
	nEnergyDiff          2 \
	alphaTstart          1 \
	alphaTmin            1e-10 \
	updateTestStepSize   yes \
	alphaTreduceFactor   0.1 \
	alphaTincreaseFactor 3 \
	nAlphaAdjustMax      3 \
	wolfeEnergy          0.0001 \
	wolfeGradient        0.9 \
	fdTest               no
lcao-params -1 1e-06 1e-05
pcm-variant GLSSA13
spintype z-spin
subspace-rotation-factor 1 yes
symmetries automatic
symmetry-threshold 0.0001



---------- Setting up symmetries ----------

Found 24 point-group symmetries of the bravais lattice
Found 24 space-group symmetries with basis
Applied RMS atom displacement 0 bohrs to make symmetries exact.

---------- Initializing the Grid ----------
R = 
[      18.9099     -9.45497            0  ]
[            0      16.3765            0  ]
[            0            0           40  ]
unit cell volume = 12387.1
G =
[   0.332269   0.191835         -0  ]
[          0   0.383671         -0  ]
[         -0         -0    0.15708  ]
Minimum fftbox size, Smin = [  80  80  164  ]
Chosen fftbox size, S = [  80  80  168  ]

---------- Exchange Correlation functional ----------
Initalized PBE GGA exchange.
Initalized PBE GGA correlation.

---------- Setting up pseudopotentials ----------
Width of ionic core gaussian charges (only for fluid interactions / plotting) set to 0

Reading pseudopotential file '/home/gridsan/aligho/DFT/build-Nov24/pseudopotentials/SG15/Na_ONCV_PBE.upf':
  'Na' pseudopotential, 'PBE' functional
  Generated using ONCVPSP code by D. R. Hamann
  Author: Martin Schlipf and Francois Gygi  Date: 150915.
  9 valence electrons, 3 orbitals, 4 projectors, 1992 radial grid points, with lMax = 1
  Transforming local potential to a uniform radial grid of dG=0.02 with 1489 points.
  Transforming nonlocal projectors to a uniform radial grid of dG=0.02 with 432 points.
    2S    l: 0   occupation:  2.0   eigenvalue: -2.085640
    2P    l: 1   occupation:  6.0   eigenvalue: -1.053708
    3S    l: 0   occupation:  1.0   eigenvalue: -0.100838
  Transforming atomic orbitals to a uniform radial grid of dG=0.02 with 432 points.
  Core radius for overlap checks: 2.01 bohrs.
  Reading pulay file /home/gridsan/aligho/DFT/build-Nov24/pseudopotentials/SG15/Na_ONCV_PBE.pulay ... using dE_dnG = -2.946487e-03 computed for Ecut = 20.

Initialized 1 species with 1 total atoms.

Folded 1 k-points by 12x12x1 to 144 k-points.

---------- Setting up k-points, bands, fillings ----------
Reduced to 19 k-points under symmetry. 
Computing the number of bands and number of electrons
Calculating initial fillings.
nElectrons:   9.000000   nBands: 6   nStates: 38

----- Setting up reduced wavefunction bases (one per k-point) -----
average nbasis = 52924.021 , ideal nbasis = 52918.836

---------- Setting up coulomb interaction ----------
Initialized slab truncation along lattice direction 001

---------- Setting up 2D ewald sum ----------
Optimum gaussian width for ewald sums = 10.498040 bohr.
Real space sums over 289 unit cells with max indices [  8  8  0  ]
Reciprocal space sums over 81 terms with max indices [  4  4  0  ]

---------- Allocating electronic variables ----------
Initializing wave functions:  linear combination of atomic orbitals
Note: number of bands (6) exceeds available atomic orbitals (5)
Na pseudo-atom occupations:   s ( 2 1 )  p ( 6 )
[d-3-13-4:44695] 18 more processes have sent help message help-mpi-common-cuda.txt / dlopen failed
[d-3-13-4:44695] Set MCA parameter "orte_base_help_aggregate" to 0 to see all help / error messages
[d-3-13-4:44695] 18 more processes have sent help message help-mpi-btl-openib-cpc-base.txt / no cpcs for port
	FillingsUpdate:  mu: -0.100833171  nElectrons: 9.000000  magneticMoment: [ Abs: 0.38000  Tot: -0.38000 ]
LCAOMinimize: Iter:   0  F: -42.5507743299805767  |grad|_K:  1.161e-06  alpha:  1.000e+00
	FillingsUpdate:  mu: -0.100832921  nElectrons: 9.000000  magneticMoment: [ Abs: 0.38000  Tot: -0.38000 ]
LCAOMinimize: Iter:   1  F: -42.5507743308980793  |grad|_K:  5.176e-09  alpha:  9.952e-01  linmin:  3.582e-05  cgtest: -6.701e-03  t[s]:     14.81
LCAOMinimize: 	Step increased F by 2.131628e-14, reducing alpha to 6.549933e-03.
	FillingsUpdate:  mu: -0.100832921  nElectrons: 9.000000  magneticMoment: [ Abs: 0.38000  Tot: -0.38000 ]
LCAOMinimize: Iter:   2  F: -42.5507743308982427  |grad|_K:  5.142e-09  alpha:  6.550e-03  linmin: -1.062e-02  cgtest:  1.000e+00  t[s]:     21.15
LCAOMinimize: Encountered beta<0, resetting CG.
LCAOMinimize: Converged (|Delta F|<1.000000e-06 for 2 iters).


---- Citations for features of the code used in this run ----

   Software package:
      R. Sundararaman, K. Letchworth-Weaver, K.A. Schwarz, D. Gunceler, Y. Ozhabes and T.A. Arias, 'JDFTx: software for joint density-functional theory', SoftwareX 6, 278 (2017)

   gga-PBE exchange-correlation functional:
      J.P. Perdew, K. Burke and M. Ernzerhof, Phys. Rev. Lett. 77, 3865 (1996)

   Pseudopotentials:
      M Schlipf and F Gygi, Comput. Phys. Commun. 196, 36 (2015)

   Truncated Coulomb potentials:
      R. Sundararaman and T.A. Arias, Phys. Rev. B 87, 165122 (2013)

This list may not be complete. Please suggest additional citations or
report any other bugs at https://github.com/shankar1729/jdftx/issues

Initialization completed successfully at t[s]:     21.31


-------- Electronic minimization -----------
Will mix electronic density at each iteration.
	FillingsUpdate:  mu: -0.100832921  nElectrons: 9.000000  magneticMoment: [ Abs: 0.38000  Tot: -0.38000 ]
	FillingsUpdate:  mu: -0.100873516  nElectrons: 9.000000  magneticMoment: [ Abs: 0.38000  Tot: -0.38000 ]
SCF: Cycle:  0   F: -42.550818591837967   dF: -4.426e-05   |Residual|: 1.899e-03   |deigs|: 1.675e-01  t[s]:     28.87
	FillingsUpdate:  mu: -0.100869504  nElectrons: 9.000000  magneticMoment: [ Abs: 0.38072  Tot: -0.38000 ]
SCF: Cycle:  1   F: -42.550819092959571   dF: -5.011e-07   |Residual|: 8.415e-04   |deigs|: 1.269e-02  t[s]:     34.75
	FillingsUpdate:  mu: -0.100867306  nElectrons: 9.000000  magneticMoment: [ Abs: 0.38055  Tot: -0.38000 ]
SCF: Cycle:  2   F: -42.550819210884228   dF: -1.179e-07   |Residual|: 2.304e-04   |deigs|: 1.822e-03  t[s]:     40.77
	FillingsUpdate:  mu: -0.100863582  nElectrons: 9.000000  magneticMoment: [ Abs: 0.38067  Tot: -0.38000 ]
SCF: Cycle:  3   F: -42.550819245832194   dF: -3.495e-08   |Residual|: 8.584e-05   |deigs|: 6.023e-04  t[s]:     46.96
	FillingsUpdate:  mu: -0.100858501  nElectrons: 9.000000  magneticMoment: [ Abs: 0.38063  Tot: -0.38000 ]
SCF: Cycle:  4   F: -42.550819256947570   dF: -1.112e-08   |Residual|: 5.626e-05   |deigs|: 2.476e-04  t[s]:     53.19
	FillingsUpdate:  mu: -0.100847831  nElectrons: 9.000000  magneticMoment: [ Abs: 0.38065  Tot: -0.38000 ]
SCF: Cycle:  5   F: -42.550819271661553   dF: -1.471e-08   |Residual|: 4.038e-05   |deigs|: 1.959e-04  t[s]:     59.58
	FillingsUpdate:  mu: -0.100840117  nElectrons: 9.000000  magneticMoment: [ Abs: 0.38063  Tot: -0.38000 ]
SCF: Cycle:  6   F: -42.550819275624818   dF: -3.963e-09   |Residual|: 2.735e-05   |deigs|: 1.891e-04  t[s]:     66.11
	FillingsUpdate:  mu: -0.100825100  nElectrons: 9.000000  magneticMoment: [ Abs: 0.38064  Tot: -0.38000 ]
SCF: Cycle:  7   F: -42.550819277867021   dF: -2.242e-09   |Residual|: 2.396e-05   |deigs|: 2.213e-04  t[s]:     72.65
SCF: Converged (|Delta E|<1.000000e-08 for 2 iters).


# Ionic positions in lattice coordinates:
ion Na   0.000000000000000   0.000000000000000   0.000000000000000 0

# Forces in Lattice coordinates:
force Na   0.000000000000000  -0.000000000000000   0.000000000000000 0

# Energy components:
   Eewald =       -9.0240130501663280
       EH =       24.7701712627356549
     Eloc =      -60.8140454899537275
      Enl =      -12.9027727177075668
   Epulay =        0.0000012333957556
      Exc =       -6.2109651929908303
       KE =       21.6308063420332779
-------------------------------------
     Etot =      -42.5508176126537592
       TS =        0.0000016652132596
-------------------------------------
        F =      -42.5508192778670207

IonicMinimize: Iter:   0  F: -42.550819277867021  |grad|_K:  0.000e+00  t[s]:     72.90
IonicMinimize: Converged (|grad|_K<1.000000e-04).

#--- Lowdin population analysis ---
# oxidation-state Na +0.000
# magnetic-moments Na -0.380

End date and time: Sat Feb  5 22:29:24 2022  (Duration: 0-0:01:12.97)
Done!
