
*************** JDFTx 1.6.0 (git hash 42ebbcc2) ***************

Start date and time: Sat Feb  5 22:20:46 2022
Executable jdftx with command-line: -i Alkali.in
Running on hosts (process indices):  d-6-3-2 (0-18)
Divided in process groups (process indices):  0 (0)  1 (1)  2 (2)  3 (3)  4 (4)  5 (5)  6 (6)  7 (7)  8 (8)  9 (9)  10 (10)  11 (11)  12 (12)  13 (13)  14 (14)  15 (15)  16 (16)  17 (17)  18 (18)
Resource initialization completed at t[s]:      0.00
Run totals: 19 processes, 48 threads, 0 GPUs


Input parsed successfully to the following command list (including defaults):

basis kpoint-dependent
coords-type Lattice
core-overlap-check vector
coulomb-interaction Slab 001
davidson-band-ratio 1.1
dump End None
dump-name $INPUT.$VAR
elec-cutoff 20
elec-eigen-algo Davidson
elec-ex-corr gga-PBE
elec-initial-magnetization -0.840000 yes
elec-smearing Fermi 1e-05
electronic-minimize  \
	dirUpdateScheme      FletcherReeves \
	linminMethod         DirUpdateRecommended \
	nIterations          100 \
	history              15 \
	knormThreshold       0 \
	energyDiffThreshold  1e-08 \
	nEnergyDiff          2 \
	alphaTstart          1 \
	alphaTmin            1e-10 \
	updateTestStepSize   yes \
	alphaTreduceFactor   0.1 \
	alphaTincreaseFactor 3 \
	nAlphaAdjustMax      3 \
	wolfeEnergy          0.0001 \
	wolfeGradient        0.9 \
	fdTest               no
electronic-scf  \
	nIterations	10000 \
	energyDiffThreshold	1e-08 \
	residualThreshold	1e-07 \
	mixFraction	0.5 \
	qMetric	0.8 \
	history	10 \
	nEigSteps	2 \
	eigDiffThreshold	1e-08 \
	mixedVariable	Density \
	qKerker	0.8 \
	qKappa	-1 \
	verbose	no \
	mixFractionMag	1.5
exchange-regularization WignerSeitzTruncated
fluid None
fluid-ex-corr (null) lda-PZ
fluid-gummel-loop 10 1.000000e-05
fluid-minimize  \
	dirUpdateScheme      PolakRibiere \
	linminMethod         DirUpdateRecommended \
	nIterations          100 \
	history              15 \
	knormThreshold       0 \
	energyDiffThreshold  0 \
	nEnergyDiff          2 \
	alphaTstart          1 \
	alphaTmin            1e-10 \
	updateTestStepSize   yes \
	alphaTreduceFactor   0.1 \
	alphaTincreaseFactor 3 \
	nAlphaAdjustMax      3 \
	wolfeEnergy          0.0001 \
	wolfeGradient        0.9 \
	fdTest               no
fluid-solvent H2O 55.338 ScalarEOS \
	epsBulk 78.4 \
	pMol 0.92466 \
	epsInf 1.77 \
	Pvap 1.06736e-10 \
	sigmaBulk 4.62e-05 \
	Rvdw 2.61727 \
	Res 1.42 \
	tauNuc 343133 \
	poleEl 15 7 1
forces-output-coords Positions
ion Na   0.000000000000000   0.000000000000000   0.000000000000000 0
ion-species SG15/$ID_ONCV_PBE.upf
ion-width 0
ionic-minimize  \
	dirUpdateScheme      L-BFGS \
	linminMethod         DirUpdateRecommended \
	nIterations          0 \
	history              15 \
	knormThreshold       0.0001 \
	energyDiffThreshold  1e-06 \
	nEnergyDiff          2 \
	alphaTstart          1 \
	alphaTmin            1e-10 \
	updateTestStepSize   yes \
	alphaTreduceFactor   0.1 \
	alphaTincreaseFactor 3 \
	nAlphaAdjustMax      3 \
	wolfeEnergy          0.0001 \
	wolfeGradient        0.9 \
	fdTest               no
kpoint   0.000000000000   0.000000000000   0.000000000000  1.00000000000000
kpoint-folding 12 12 1 
latt-move-scale 1 1 1
latt-scale 2 2 1 
lattice  \
	   4.727486978767153   -2.363743489383575    0.000000000000000  \
	  -0.000000000000000    4.094123819672498    0.000000000000000  \
	   0.000000000000000    0.000000000000000   40.000000000000000 
lattice-minimize  \
	dirUpdateScheme      L-BFGS \
	linminMethod         DirUpdateRecommended \
	nIterations          0 \
	history              15 \
	knormThreshold       0 \
	energyDiffThreshold  1e-06 \
	nEnergyDiff          2 \
	alphaTstart          1 \
	alphaTmin            1e-10 \
	updateTestStepSize   yes \
	alphaTreduceFactor   0.1 \
	alphaTincreaseFactor 3 \
	nAlphaAdjustMax      3 \
	wolfeEnergy          0.0001 \
	wolfeGradient        0.9 \
	fdTest               no
lcao-params -1 1e-06 1e-05
pcm-variant GLSSA13
spintype z-spin
subspace-rotation-factor 1 yes
symmetries automatic
symmetry-threshold 0.0001



---------- Setting up symmetries ----------

Found 24 point-group symmetries of the bravais lattice
Found 24 space-group symmetries with basis
Applied RMS atom displacement 0 bohrs to make symmetries exact.

---------- Initializing the Grid ----------
R = 
[      9.45497     -4.72749            0  ]
[            0      8.18825            0  ]
[            0            0           40  ]
unit cell volume = 3096.79
G =
[   0.664538   0.383671         -0  ]
[          0   0.767342         -0  ]
[         -0         -0    0.15708  ]
Minimum fftbox size, Smin = [  40  40  164  ]
Chosen fftbox size, S = [  40  40  168  ]

---------- Exchange Correlation functional ----------
Initalized PBE GGA exchange.
Initalized PBE GGA correlation.

---------- Setting up pseudopotentials ----------
Width of ionic core gaussian charges (only for fluid interactions / plotting) set to 0

Reading pseudopotential file '/home/gridsan/aligho/DFT/build-Nov24/pseudopotentials/SG15/Na_ONCV_PBE.upf':
  'Na' pseudopotential, 'PBE' functional
  Generated using ONCVPSP code by D. R. Hamann
  Author: Martin Schlipf and Francois Gygi  Date: 150915.
  9 valence electrons, 3 orbitals, 4 projectors, 1992 radial grid points, with lMax = 1
  Transforming local potential to a uniform radial grid of dG=0.02 with 1489 points.
  Transforming nonlocal projectors to a uniform radial grid of dG=0.02 with 432 points.
    2S    l: 0   occupation:  2.0   eigenvalue: -2.085640
    2P    l: 1   occupation:  6.0   eigenvalue: -1.053708
    3S    l: 0   occupation:  1.0   eigenvalue: -0.100838
  Transforming atomic orbitals to a uniform radial grid of dG=0.02 with 432 points.
  Core radius for overlap checks: 2.01 bohrs.
  Reading pulay file /home/gridsan/aligho/DFT/build-Nov24/pseudopotentials/SG15/Na_ONCV_PBE.pulay ... using dE_dnG = -2.946487e-03 computed for Ecut = 20.

Initialized 1 species with 1 total atoms.

Folded 1 k-points by 12x12x1 to 144 k-points.

---------- Setting up k-points, bands, fillings ----------
Reduced to 19 k-points under symmetry. 
Computing the number of bands and number of electrons
Calculating initial fillings.
nElectrons:   9.000000   nBands: 6   nStates: 38

----- Setting up reduced wavefunction bases (one per k-point) -----
average nbasis = 13230.521 , ideal nbasis = 13229.709

---------- Setting up coulomb interaction ----------
Initialized slab truncation along lattice direction 001

---------- Setting up 2D ewald sum ----------
Optimum gaussian width for ewald sums = 5.249020 bohr.
Real space sums over 289 unit cells with max indices [  8  8  0  ]
Reciprocal space sums over 81 terms with max indices [  4  4  0  ]

---------- Allocating electronic variables ----------
Initializing wave functions:  linear combination of atomic orbitals
Note: number of bands (6) exceeds available atomic orbitals (5)
Na pseudo-atom occupations:   s ( 2 1 )  p ( 6 )
	FillingsUpdate:  mu: -0.104858386  nElectrons: 9.000000  magneticMoment: [ Abs: 0.84000  Tot: -0.84000 ]
LCAOMinimize: Iter:   0  F: -42.5587852096125445  |grad|_K:  9.594e-06  alpha:  1.000e+00
	FillingsUpdate:  mu: -0.104857919  nElectrons: 9.000000  magneticMoment: [ Abs: 0.84000  Tot: -0.84000 ]
LCAOMinimize: Iter:   1  F: -42.5587852722496933  |grad|_K:  6.017e-08  alpha:  9.949e-01  linmin: -1.081e-02  cgtest:  3.310e-01  t[s]:      4.53
LCAOMinimize: Encountered beta<0, resetting CG.
	FillingsUpdate:  mu: -0.104857935  nElectrons: 9.000000  magneticMoment: [ Abs: 0.84000  Tot: -0.84000 ]
LCAOMinimize: Iter:   2  F: -42.5587852722517397  |grad|_K:  7.117e-09  alpha:  8.801e-01  linmin: -9.582e-02  cgtest:  9.991e-01  t[s]:      5.79
LCAOMinimize: Encountered beta<0, resetting CG.
LCAOMinimize: Converged (|Delta F|<1.000000e-06 for 2 iters).


---- Citations for features of the code used in this run ----

   Software package:
      R. Sundararaman, K. Letchworth-Weaver, K.A. Schwarz, D. Gunceler, Y. Ozhabes and T.A. Arias, 'JDFTx: software for joint density-functional theory', SoftwareX 6, 278 (2017)

   gga-PBE exchange-correlation functional:
      J.P. Perdew, K. Burke and M. Ernzerhof, Phys. Rev. Lett. 77, 3865 (1996)

   Pseudopotentials:
      M Schlipf and F Gygi, Comput. Phys. Commun. 196, 36 (2015)

   Truncated Coulomb potentials:
      R. Sundararaman and T.A. Arias, Phys. Rev. B 87, 165122 (2013)

This list may not be complete. Please suggest additional citations or
report any other bugs at https://github.com/shankar1729/jdftx/issues

Initialization completed successfully at t[s]:      5.86


-------- Electronic minimization -----------
Will mix electronic density at each iteration.
	FillingsUpdate:  mu: -0.104857935  nElectrons: 9.000000  magneticMoment: [ Abs: 0.84000  Tot: -0.84000 ]
	FillingsUpdate:  mu: -0.108805245  nElectrons: 9.000000  magneticMoment: [ Abs: 0.84000  Tot: -0.84000 ]
SCF: Cycle:  0   F: -42.564112258225478   dF: -5.327e-03   |Residual|: 1.139e-02   |deigs|: 1.697e-01  t[s]:      8.19
	FillingsUpdate:  mu: -0.111037443  nElectrons: 9.000000  magneticMoment: [ Abs: 0.84008  Tot: -0.84000 ]
SCF: Cycle:  1   F: -42.564340632931312   dF: -2.284e-04   |Residual|: 7.763e-03   |deigs|: 9.507e-03  t[s]:      9.81
	FillingsUpdate:  mu: -0.111153320  nElectrons: 9.000000  magneticMoment: [ Abs: 0.84151  Tot: -0.84000 ]
SCF: Cycle:  2   F: -42.564404325989621   dF: -6.369e-05   |Residual|: 5.313e-03   |deigs|: 6.683e-03  t[s]:     11.45
	FillingsUpdate:  mu: -0.110936877  nElectrons: 9.000000  magneticMoment: [ Abs: 0.84038  Tot: -0.84000 ]
SCF: Cycle:  3   F: -42.564429283754698   dF: -2.496e-05   |Residual|: 3.109e-03   |deigs|: 5.615e-03  t[s]:     13.16
	FillingsUpdate:  mu: -0.109036410  nElectrons: 9.000000  magneticMoment: [ Abs: 0.84041  Tot: -0.84000 ]
SCF: Cycle:  4   F: -42.564444912870343   dF: -1.563e-05   |Residual|: 1.079e-03   |deigs|: 2.367e-03  t[s]:     14.90
	FillingsUpdate:  mu: -0.108816690  nElectrons: 9.000000  magneticMoment: [ Abs: 0.84061  Tot: -0.84000 ]
SCF: Cycle:  5   F: -42.564447857969192   dF: -2.945e-06   |Residual|: 8.376e-04   |deigs|: 3.065e-03  t[s]:     16.60
	FillingsUpdate:  mu: -0.108268591  nElectrons: 9.000000  magneticMoment: [ Abs: 0.84042  Tot: -0.84000 ]
SCF: Cycle:  6   F: -42.564450380658847   dF: -2.523e-06   |Residual|: 6.187e-04   |deigs|: 2.182e-03  t[s]:     18.36
	FillingsUpdate:  mu: -0.107189125  nElectrons: 9.000000  magneticMoment: [ Abs: 0.84240  Tot: -0.84000 ]
SCF: Cycle:  7   F: -42.564448263494441   dF: +2.117e-06   |Residual|: 4.846e-04   |deigs|: 1.161e-03  t[s]:     20.16
	FillingsUpdate:  mu: -0.106512260  nElectrons: 9.000000  magneticMoment: [ Abs: 0.84230  Tot: -0.84000 ]
SCF: Cycle:  8   F: -42.564449361131615   dF: -1.098e-06   |Residual|: 3.956e-04   |deigs|: 9.102e-04  t[s]:     21.99
	FillingsUpdate:  mu: -0.106117504  nElectrons: 9.000000  magneticMoment: [ Abs: 0.84090  Tot: -0.84000 ]
SCF: Cycle:  9   F: -42.564451482897063   dF: -2.122e-06   |Residual|: 3.289e-04   |deigs|: 5.998e-04  t[s]:     23.85
	FillingsUpdate:  mu: -0.106121679  nElectrons: 9.000000  magneticMoment: [ Abs: 0.84078  Tot: -0.84000 ]
SCF: Cycle: 10   F: -42.564453075942872   dF: -1.593e-06   |Residual|: 2.211e-04   |deigs|: 2.322e-04  t[s]:     25.69
	FillingsUpdate:  mu: -0.105563240  nElectrons: 9.000000  magneticMoment: [ Abs: 0.84160  Tot: -0.84000 ]
SCF: Cycle: 11   F: -42.564452462175176   dF: +6.138e-07   |Residual|: 2.086e-04   |deigs|: 7.219e-04  t[s]:     27.51
	FillingsUpdate:  mu: -0.105197556  nElectrons: 9.000000  magneticMoment: [ Abs: 0.84130  Tot: -0.84000 ]
SCF: Cycle: 12   F: -42.564452405133132   dF: +5.704e-08   |Residual|: 1.883e-04   |deigs|: 3.498e-04  t[s]:     29.38
	FillingsUpdate:  mu: -0.105010783  nElectrons: 9.000000  magneticMoment: [ Abs: 0.84173  Tot: -0.84000 ]
SCF: Cycle: 13   F: -42.564453408473653   dF: -1.003e-06   |Residual|: 1.699e-04   |deigs|: 4.274e-04  t[s]:     31.28
	FillingsUpdate:  mu: -0.104504764  nElectrons: 9.000000  magneticMoment: [ Abs: 0.84203  Tot: -0.84000 ]
SCF: Cycle: 14   F: -42.564453870352153   dF: -4.619e-07   |Residual|: 1.614e-04   |deigs|: 5.722e-04  t[s]:     33.18
	FillingsUpdate:  mu: -0.103896620  nElectrons: 9.000000  magneticMoment: [ Abs: 0.84125  Tot: -0.84000 ]
SCF: Cycle: 15   F: -42.564454066632955   dF: -1.963e-07   |Residual|: 1.397e-04   |deigs|: 6.197e-04  t[s]:     35.02
	FillingsUpdate:  mu: -0.103562682  nElectrons: 9.000000  magneticMoment: [ Abs: 0.84116  Tot: -0.84000 ]
SCF: Cycle: 16   F: -42.564454315209083   dF: -2.486e-07   |Residual|: 1.178e-04   |deigs|: 3.262e-04  t[s]:     36.87
	FillingsUpdate:  mu: -0.103274495  nElectrons: 9.000000  magneticMoment: [ Abs: 0.84083  Tot: -0.84000 ]
SCF: Cycle: 17   F: -42.564454578404437   dF: -2.632e-07   |Residual|: 8.643e-05   |deigs|: 2.625e-04  t[s]:     38.71
	FillingsUpdate:  mu: -0.103084326  nElectrons: 9.000000  magneticMoment: [ Abs: 0.84065  Tot: -0.84000 ]
SCF: Cycle: 18   F: -42.564454689493239   dF: -1.111e-07   |Residual|: 5.939e-05   |deigs|: 2.509e-04  t[s]:     40.55
	FillingsUpdate:  mu: -0.102951487  nElectrons: 9.000000  magneticMoment: [ Abs: 0.84091  Tot: -0.84000 ]
SCF: Cycle: 19   F: -42.564454737582587   dF: -4.809e-08   |Residual|: 3.610e-05   |deigs|: 1.831e-04  t[s]:     42.42
	FillingsUpdate:  mu: -0.102921811  nElectrons: 9.000000  magneticMoment: [ Abs: 0.84074  Tot: -0.84000 ]
SCF: Cycle: 20   F: -42.564454751911065   dF: -1.433e-08   |Residual|: 2.296e-05   |deigs|: 6.863e-04  t[s]:     44.26
	FillingsUpdate:  mu: -0.102919548  nElectrons: 9.000000  magneticMoment: [ Abs: 0.84065  Tot: -0.84000 ]
SCF: Cycle: 21   F: -42.564454760291035   dF: -8.380e-09   |Residual|: 1.458e-05   |deigs|: 1.174e-04  t[s]:     46.16
	FillingsUpdate:  mu: -0.102919901  nElectrons: 9.000000  magneticMoment: [ Abs: 0.84065  Tot: -0.84000 ]
SCF: Cycle: 22   F: -42.564454766617239   dF: -6.326e-09   |Residual|: 9.429e-06   |deigs|: 8.637e-05  t[s]:     48.03
SCF: Converged (|Delta E|<1.000000e-08 for 2 iters).


# Ionic positions in lattice coordinates:
ion Na   0.000000000000000   0.000000000000000   0.000000000000000 0

# Forces in Lattice coordinates:
force Na   0.000000000000000   0.000000000000000   0.000000000000000 0

# Energy components:
   Eewald =      -18.0480261003326561
       EH =       15.7583000801697555
     Eloc =      -42.7724935348761193
      Enl =      -12.9150644480337853
   Epulay =        0.0000007725295140
      Exc =       -6.2231637515881273
       KE =       21.6359929525520158
-------------------------------------
     Etot =      -42.5644540295794087
       TS =        0.0000007370378328
-------------------------------------
        F =      -42.5644547666172386

IonicMinimize: Iter:   0  F: -42.564454766617239  |grad|_K:  0.000e+00  t[s]:     48.10
IonicMinimize: Converged (|grad|_K<1.000000e-04).

#--- Lowdin population analysis ---
# oxidation-state Na +0.092
# magnetic-moments Na -0.750

End date and time: Sat Feb  5 22:21:34 2022  (Duration: 0-0:00:48.11)
Done!
