
*************** JDFTx 1.6.0 (git hash 42ebbcc2) ***************

Start date and time: Sat Feb  5 22:27:05 2022
Executable jdftx with command-line: -i Alkali.in
Running on hosts (process indices):  d-6-7-4 (0-18)
Divided in process groups (process indices):  0 (0)  1 (1)  2 (2)  3 (3)  4 (4)  5 (5)  6 (6)  7 (7)  8 (8)  9 (9)  10 (10)  11 (11)  12 (12)  13 (13)  14 (14)  15 (15)  16 (16)  17 (17)  18 (18)
Resource initialization completed at t[s]:      0.00
Run totals: 19 processes, 48 threads, 0 GPUs


Input parsed successfully to the following command list (including defaults):

basis kpoint-dependent
coords-type Lattice
core-overlap-check vector
coulomb-interaction Slab 001
davidson-band-ratio 1.1
dump End None
dump-name $INPUT.$VAR
elec-cutoff 20
elec-eigen-algo Davidson
elec-ex-corr gga-PBE
elec-initial-magnetization -0.140000 yes
elec-smearing Fermi 1e-05
electronic-minimize  \
	dirUpdateScheme      FletcherReeves \
	linminMethod         DirUpdateRecommended \
	nIterations          100 \
	history              15 \
	knormThreshold       0 \
	energyDiffThreshold  1e-08 \
	nEnergyDiff          2 \
	alphaTstart          1 \
	alphaTmin            1e-10 \
	updateTestStepSize   yes \
	alphaTreduceFactor   0.1 \
	alphaTincreaseFactor 3 \
	nAlphaAdjustMax      3 \
	wolfeEnergy          0.0001 \
	wolfeGradient        0.9 \
	fdTest               no
electronic-scf  \
	nIterations	10000 \
	energyDiffThreshold	1e-08 \
	residualThreshold	1e-07 \
	mixFraction	0.5 \
	qMetric	0.8 \
	history	10 \
	nEigSteps	2 \
	eigDiffThreshold	1e-08 \
	mixedVariable	Density \
	qKerker	0.8 \
	qKappa	-1 \
	verbose	no \
	mixFractionMag	1.5
exchange-regularization WignerSeitzTruncated
fluid None
fluid-ex-corr (null) lda-PZ
fluid-gummel-loop 10 1.000000e-05
fluid-minimize  \
	dirUpdateScheme      PolakRibiere \
	linminMethod         DirUpdateRecommended \
	nIterations          100 \
	history              15 \
	knormThreshold       0 \
	energyDiffThreshold  0 \
	nEnergyDiff          2 \
	alphaTstart          1 \
	alphaTmin            1e-10 \
	updateTestStepSize   yes \
	alphaTreduceFactor   0.1 \
	alphaTincreaseFactor 3 \
	nAlphaAdjustMax      3 \
	wolfeEnergy          0.0001 \
	wolfeGradient        0.9 \
	fdTest               no
fluid-solvent H2O 55.338 ScalarEOS \
	epsBulk 78.4 \
	pMol 0.92466 \
	epsInf 1.77 \
	Pvap 1.06736e-10 \
	sigmaBulk 4.62e-05 \
	Rvdw 2.61727 \
	Res 1.42 \
	tauNuc 343133 \
	poleEl 15 7 1
forces-output-coords Positions
ion Na   0.000000000000000   0.000000000000000   0.000000000000000 0
ion-species SG15/$ID_ONCV_PBE.upf
ion-width 0
ionic-minimize  \
	dirUpdateScheme      L-BFGS \
	linminMethod         DirUpdateRecommended \
	nIterations          0 \
	history              15 \
	knormThreshold       0.0001 \
	energyDiffThreshold  1e-06 \
	nEnergyDiff          2 \
	alphaTstart          1 \
	alphaTmin            1e-10 \
	updateTestStepSize   yes \
	alphaTreduceFactor   0.1 \
	alphaTincreaseFactor 3 \
	nAlphaAdjustMax      3 \
	wolfeEnergy          0.0001 \
	wolfeGradient        0.9 \
	fdTest               no
kpoint   0.000000000000   0.000000000000   0.000000000000  1.00000000000000
kpoint-folding 12 12 1 
latt-move-scale 1 1 1
latt-scale 2 2 1 
lattice  \
	   4.727486978767153   -2.363743489383575    0.000000000000000  \
	  -0.000000000000000    4.094123819672498    0.000000000000000  \
	   0.000000000000000    0.000000000000000   40.000000000000000 
lattice-minimize  \
	dirUpdateScheme      L-BFGS \
	linminMethod         DirUpdateRecommended \
	nIterations          0 \
	history              15 \
	knormThreshold       0 \
	energyDiffThreshold  1e-06 \
	nEnergyDiff          2 \
	alphaTstart          1 \
	alphaTmin            1e-10 \
	updateTestStepSize   yes \
	alphaTreduceFactor   0.1 \
	alphaTincreaseFactor 3 \
	nAlphaAdjustMax      3 \
	wolfeEnergy          0.0001 \
	wolfeGradient        0.9 \
	fdTest               no
lcao-params -1 1e-06 1e-05
pcm-variant GLSSA13
spintype z-spin
subspace-rotation-factor 1 yes
symmetries automatic
symmetry-threshold 0.0001



---------- Setting up symmetries ----------

Found 24 point-group symmetries of the bravais lattice
Found 24 space-group symmetries with basis
Applied RMS atom displacement 0 bohrs to make symmetries exact.

---------- Initializing the Grid ----------
R = 
[      9.45497     -4.72749            0  ]
[            0      8.18825            0  ]
[            0            0           40  ]
unit cell volume = 3096.79
G =
[   0.664538   0.383671         -0  ]
[          0   0.767342         -0  ]
[         -0         -0    0.15708  ]
Minimum fftbox size, Smin = [  40  40  164  ]
Chosen fftbox size, S = [  40  40  168  ]

---------- Exchange Correlation functional ----------
Initalized PBE GGA exchange.
Initalized PBE GGA correlation.

---------- Setting up pseudopotentials ----------
Width of ionic core gaussian charges (only for fluid interactions / plotting) set to 0

Reading pseudopotential file '/home/gridsan/aligho/DFT/build-Nov24/pseudopotentials/SG15/Na_ONCV_PBE.upf':
  'Na' pseudopotential, 'PBE' functional
  Generated using ONCVPSP code by D. R. Hamann
  Author: Martin Schlipf and Francois Gygi  Date: 150915.
  9 valence electrons, 3 orbitals, 4 projectors, 1992 radial grid points, with lMax = 1
  Transforming local potential to a uniform radial grid of dG=0.02 with 1489 points.
  Transforming nonlocal projectors to a uniform radial grid of dG=0.02 with 432 points.
    2S    l: 0   occupation:  2.0   eigenvalue: -2.085640
    2P    l: 1   occupation:  6.0   eigenvalue: -1.053708
    3S    l: 0   occupation:  1.0   eigenvalue: -0.100838
  Transforming atomic orbitals to a uniform radial grid of dG=0.02 with 432 points.
  Core radius for overlap checks: 2.01 bohrs.
  Reading pulay file /home/gridsan/aligho/DFT/build-Nov24/pseudopotentials/SG15/Na_ONCV_PBE.pulay ... using dE_dnG = -2.946487e-03 computed for Ecut = 20.

Initialized 1 species with 1 total atoms.

Folded 1 k-points by 12x12x1 to 144 k-points.

---------- Setting up k-points, bands, fillings ----------
Reduced to 19 k-points under symmetry. 
Computing the number of bands and number of electrons
Calculating initial fillings.
nElectrons:   9.000000   nBands: 6   nStates: 38

----- Setting up reduced wavefunction bases (one per k-point) -----
average nbasis = 13230.521 , ideal nbasis = 13229.709

---------- Setting up coulomb interaction ----------
Initialized slab truncation along lattice direction 001

---------- Setting up 2D ewald sum ----------
Optimum gaussian width for ewald sums = 5.249020 bohr.
Real space sums over 289 unit cells with max indices [  8  8  0  ]
Reciprocal space sums over 81 terms with max indices [  4  4  0  ]

---------- Allocating electronic variables ----------
Initializing wave functions:  linear combination of atomic orbitals
Note: number of bands (6) exceeds available atomic orbitals (5)
Na pseudo-atom occupations:   s ( 2 1 )  p ( 6 )
	FillingsUpdate:  mu: -0.104882004  nElectrons: 9.000000  magneticMoment: [ Abs: 0.14000  Tot: -0.14000 ]
LCAOMinimize: Iter:   0  F: -42.5688215673589738  |grad|_K:  3.050e-05  alpha:  1.000e+00
	FillingsUpdate:  mu: -0.104877872  nElectrons: 9.000000  magneticMoment: [ Abs: 0.14000  Tot: -0.14000 ]
LCAOMinimize: Iter:   1  F: -42.5688221950853105  |grad|_K:  2.905e-07  alpha:  9.865e-01  linmin: -1.739e-02  cgtest:  7.097e-01  t[s]:      4.28
LCAOMinimize: Encountered beta<0, resetting CG.
	FillingsUpdate:  mu: -0.104877886  nElectrons: 9.000000  magneticMoment: [ Abs: 0.14000  Tot: -0.14000 ]
LCAOMinimize: Iter:   2  F: -42.5688221951435253  |grad|_K:  1.147e-09  alpha:  1.005e+00  linmin:  3.040e-02  cgtest: -9.574e-01  t[s]:      5.42
LCAOMinimize: Converged (|Delta F|<1.000000e-06 for 2 iters).


---- Citations for features of the code used in this run ----

   Software package:
      R. Sundararaman, K. Letchworth-Weaver, K.A. Schwarz, D. Gunceler, Y. Ozhabes and T.A. Arias, 'JDFTx: software for joint density-functional theory', SoftwareX 6, 278 (2017)

   gga-PBE exchange-correlation functional:
      J.P. Perdew, K. Burke and M. Ernzerhof, Phys. Rev. Lett. 77, 3865 (1996)

   Pseudopotentials:
      M Schlipf and F Gygi, Comput. Phys. Commun. 196, 36 (2015)

   Truncated Coulomb potentials:
      R. Sundararaman and T.A. Arias, Phys. Rev. B 87, 165122 (2013)

This list may not be complete. Please suggest additional citations or
report any other bugs at https://github.com/shankar1729/jdftx/issues

Initialization completed successfully at t[s]:      5.49


-------- Electronic minimization -----------
Will mix electronic density at each iteration.
	FillingsUpdate:  mu: -0.104877886  nElectrons: 9.000000  magneticMoment: [ Abs: 0.14000  Tot: -0.14000 ]
	FillingsUpdate:  mu: -0.112945433  nElectrons: 9.000000  magneticMoment: [ Abs: 0.14000  Tot: -0.14000 ]
SCF: Cycle:  0   F: -42.572923533788355   dF: -4.101e-03   |Residual|: 7.140e-03   |deigs|: 1.706e-01  t[s]:      7.78
	FillingsUpdate:  mu: -0.113110449  nElectrons: 9.000000  magneticMoment: [ Abs: 0.14000  Tot: -0.14000 ]
SCF: Cycle:  1   F: -42.572989070939322   dF: -6.554e-05   |Residual|: 5.102e-03   |deigs|: 8.912e-03  t[s]:      9.41
	FillingsUpdate:  mu: -0.112901326  nElectrons: 9.000000  magneticMoment: [ Abs: 0.14116  Tot: -0.14000 ]
SCF: Cycle:  2   F: -42.573007134718800   dF: -1.806e-05   |Residual|: 2.276e-03   |deigs|: 6.970e-03  t[s]:     11.10
	FillingsUpdate:  mu: -0.112497969  nElectrons: 9.000000  magneticMoment: [ Abs: 0.14000  Tot: -0.14000 ]
SCF: Cycle:  3   F: -42.573011716861394   dF: -4.582e-06   |Residual|: 1.312e-03   |deigs|: 4.776e-03  t[s]:     12.78
	FillingsUpdate:  mu: -0.111969689  nElectrons: 9.000000  magneticMoment: [ Abs: 0.14001  Tot: -0.14000 ]
SCF: Cycle:  4   F: -42.573013238984991   dF: -1.522e-06   |Residual|: 8.399e-04   |deigs|: 1.883e-03  t[s]:     14.51
	FillingsUpdate:  mu: -0.111530153  nElectrons: 9.000000  magneticMoment: [ Abs: 0.14007  Tot: -0.14000 ]
SCF: Cycle:  5   F: -42.573013494215445   dF: -2.552e-07   |Residual|: 6.778e-04   |deigs|: 2.425e-03  t[s]:     16.23
	FillingsUpdate:  mu: -0.110420139  nElectrons: 9.000000  magneticMoment: [ Abs: 0.14111  Tot: -0.14000 ]
SCF: Cycle:  6   F: -42.573013340946652   dF: +1.533e-07   |Residual|: 4.815e-04   |deigs|: 1.556e-03  t[s]:     18.07
	FillingsUpdate:  mu: -0.109912272  nElectrons: 9.000000  magneticMoment: [ Abs: 0.14094  Tot: -0.14000 ]
SCF: Cycle:  7   F: -42.573013226444004   dF: +1.145e-07   |Residual|: 3.734e-04   |deigs|: 7.030e-04  t[s]:     19.84
	FillingsUpdate:  mu: -0.109292309  nElectrons: 9.000000  magneticMoment: [ Abs: 0.14057  Tot: -0.14000 ]
SCF: Cycle:  8   F: -42.573014609045444   dF: -1.383e-06   |Residual|: 3.305e-04   |deigs|: 8.364e-04  t[s]:     21.69
	FillingsUpdate:  mu: -0.109156878  nElectrons: 9.000000  magneticMoment: [ Abs: 0.14040  Tot: -0.14000 ]
SCF: Cycle:  9   F: -42.573014905038285   dF: -2.960e-07   |Residual|: 2.401e-04   |deigs|: 2.015e-04  t[s]:     23.50
	FillingsUpdate:  mu: -0.108605635  nElectrons: 9.000000  magneticMoment: [ Abs: 0.14071  Tot: -0.14000 ]
SCF: Cycle: 10   F: -42.573013476816399   dF: +1.428e-06   |Residual|: 2.264e-04   |deigs|: 4.915e-04  t[s]:     25.35
	FillingsUpdate:  mu: -0.108158976  nElectrons: 9.000000  magneticMoment: [ Abs: 0.14046  Tot: -0.14000 ]
SCF: Cycle: 11   F: -42.573013166347643   dF: +3.105e-07   |Residual|: 2.053e-04   |deigs|: 4.817e-04  t[s]:     27.10
	FillingsUpdate:  mu: -0.107478462  nElectrons: 9.000000  magneticMoment: [ Abs: 0.14095  Tot: -0.14000 ]
SCF: Cycle: 12   F: -42.573014615746224   dF: -1.449e-06   |Residual|: 1.780e-04   |deigs|: 6.729e-04  t[s]:     29.05
	FillingsUpdate:  mu: -0.107153148  nElectrons: 9.000000  magneticMoment: [ Abs: 0.14103  Tot: -0.14000 ]
SCF: Cycle: 13   F: -42.573015393328994   dF: -7.776e-07   |Residual|: 1.709e-04   |deigs|: 3.443e-04  t[s]:     30.92
	FillingsUpdate:  mu: -0.106675861  nElectrons: 9.000000  magneticMoment: [ Abs: 0.14033  Tot: -0.14000 ]
SCF: Cycle: 14   F: -42.573016168798553   dF: -7.755e-07   |Residual|: 1.452e-04   |deigs|: 5.161e-04  t[s]:     32.70
	FillingsUpdate:  mu: -0.106255426  nElectrons: 9.000000  magneticMoment: [ Abs: 0.14024  Tot: -0.14000 ]
SCF: Cycle: 15   F: -42.573016544108185   dF: -3.753e-07   |Residual|: 1.266e-04   |deigs|: 4.457e-04  t[s]:     34.44
	FillingsUpdate:  mu: -0.105897284  nElectrons: 9.000000  magneticMoment: [ Abs: 0.14026  Tot: -0.14000 ]
SCF: Cycle: 16   F: -42.573016726949831   dF: -1.828e-07   |Residual|: 7.677e-05   |deigs|: 3.598e-04  t[s]:     36.24
	FillingsUpdate:  mu: -0.105781647  nElectrons: 9.000000  magneticMoment: [ Abs: 0.14013  Tot: -0.14000 ]
SCF: Cycle: 17   F: -42.573016766003818   dF: -3.905e-08   |Residual|: 4.596e-05   |deigs|: 1.315e-04  t[s]:     38.15
	FillingsUpdate:  mu: -0.105767721  nElectrons: 9.000000  magneticMoment: [ Abs: 0.14005  Tot: -0.14000 ]
SCF: Cycle: 18   F: -42.573016774403257   dF: -8.399e-09   |Residual|: 3.188e-05   |deigs|: 9.831e-04  t[s]:     39.96
	FillingsUpdate:  mu: -0.105742499  nElectrons: 9.000000  magneticMoment: [ Abs: 0.14009  Tot: -0.14000 ]
SCF: Cycle: 19   F: -42.573016782920625   dF: -8.517e-09   |Residual|: 1.579e-05   |deigs|: 4.558e-04  t[s]:     41.79
SCF: Converged (|Delta E|<1.000000e-08 for 2 iters).


# Ionic positions in lattice coordinates:
ion Na   0.000000000000000   0.000000000000000   0.000000000000000 0

# Forces in Lattice coordinates:
force Na  -0.000000000000000   0.000000000000000   0.000000000000000 0

# Energy components:
   Eewald =      -18.0480261003326561
       EH =       15.7230495288640544
     Eloc =      -42.7344895297798146
      Enl =      -12.9129096151090721
   Epulay =        0.0000007725295140
      Exc =       -6.2160204597520679
       KE =       21.6153793085290680
-------------------------------------
     Etot =      -42.5730160950509742
       TS =        0.0000006878696540
-------------------------------------
        F =      -42.5730167829206252

IonicMinimize: Iter:   0  F: -42.573016782920625  |grad|_K:  0.000e+00  t[s]:     41.89
IonicMinimize: Converged (|grad|_K<1.000000e-04).

#--- Lowdin population analysis ---
# oxidation-state Na +0.035
# magnetic-moments Na -0.126

End date and time: Sat Feb  5 22:27:47 2022  (Duration: 0-0:00:41.90)
Done!
