
*************** JDFTx 1.6.0 (git hash 42ebbcc2) ***************

Start date and time: Sat Feb  5 22:24:44 2022
Executable jdftx with command-line: -i Alkali.in
Running on hosts (process indices):  d-17-4-2 (0-18)
Divided in process groups (process indices):  0 (0)  1 (1)  2 (2)  3 (3)  4 (4)  5 (5)  6 (6)  7 (7)  8 (8)  9 (9)  10 (10)  11 (11)  12 (12)  13 (13)  14 (14)  15 (15)  16 (16)  17 (17)  18 (18)
Resource initialization completed at t[s]:      0.00
Run totals: 19 processes, 48 threads, 0 GPUs


Input parsed successfully to the following command list (including defaults):

basis kpoint-dependent
coords-type Lattice
core-overlap-check vector
coulomb-interaction Slab 001
davidson-band-ratio 1.1
dump End None
dump-name $INPUT.$VAR
elec-cutoff 20
elec-eigen-algo Davidson
elec-ex-corr gga-PBE
elec-initial-magnetization -0.500000 yes
elec-smearing Fermi 1e-05
electronic-minimize  \
	dirUpdateScheme      FletcherReeves \
	linminMethod         DirUpdateRecommended \
	nIterations          100 \
	history              15 \
	knormThreshold       0 \
	energyDiffThreshold  1e-08 \
	nEnergyDiff          2 \
	alphaTstart          1 \
	alphaTmin            1e-10 \
	updateTestStepSize   yes \
	alphaTreduceFactor   0.1 \
	alphaTincreaseFactor 3 \
	nAlphaAdjustMax      3 \
	wolfeEnergy          0.0001 \
	wolfeGradient        0.9 \
	fdTest               no
electronic-scf  \
	nIterations	10000 \
	energyDiffThreshold	1e-08 \
	residualThreshold	1e-07 \
	mixFraction	0.5 \
	qMetric	0.8 \
	history	10 \
	nEigSteps	2 \
	eigDiffThreshold	1e-08 \
	mixedVariable	Density \
	qKerker	0.8 \
	qKappa	-1 \
	verbose	no \
	mixFractionMag	1.5
exchange-regularization WignerSeitzTruncated
fluid None
fluid-ex-corr (null) lda-PZ
fluid-gummel-loop 10 1.000000e-05
fluid-minimize  \
	dirUpdateScheme      PolakRibiere \
	linminMethod         DirUpdateRecommended \
	nIterations          100 \
	history              15 \
	knormThreshold       0 \
	energyDiffThreshold  0 \
	nEnergyDiff          2 \
	alphaTstart          1 \
	alphaTmin            1e-10 \
	updateTestStepSize   yes \
	alphaTreduceFactor   0.1 \
	alphaTincreaseFactor 3 \
	nAlphaAdjustMax      3 \
	wolfeEnergy          0.0001 \
	wolfeGradient        0.9 \
	fdTest               no
fluid-solvent H2O 55.338 ScalarEOS \
	epsBulk 78.4 \
	pMol 0.92466 \
	epsInf 1.77 \
	Pvap 1.06736e-10 \
	sigmaBulk 4.62e-05 \
	Rvdw 2.61727 \
	Res 1.42 \
	tauNuc 343133 \
	poleEl 15 7 1
forces-output-coords Positions
ion Na   0.000000000000000   0.000000000000000   0.000000000000000 0
ion-species SG15/$ID_ONCV_PBE.upf
ion-width 0
ionic-minimize  \
	dirUpdateScheme      L-BFGS \
	linminMethod         DirUpdateRecommended \
	nIterations          0 \
	history              15 \
	knormThreshold       0.0001 \
	energyDiffThreshold  1e-06 \
	nEnergyDiff          2 \
	alphaTstart          1 \
	alphaTmin            1e-10 \
	updateTestStepSize   yes \
	alphaTreduceFactor   0.1 \
	alphaTincreaseFactor 3 \
	nAlphaAdjustMax      3 \
	wolfeEnergy          0.0001 \
	wolfeGradient        0.9 \
	fdTest               no
kpoint   0.000000000000   0.000000000000   0.000000000000  1.00000000000000
kpoint-folding 12 12 1 
latt-move-scale 1 1 1
latt-scale 2 2 1 
lattice  \
	   4.727486978767153   -2.363743489383575    0.000000000000000  \
	  -0.000000000000000    4.094123819672498    0.000000000000000  \
	   0.000000000000000    0.000000000000000   40.000000000000000 
lattice-minimize  \
	dirUpdateScheme      L-BFGS \
	linminMethod         DirUpdateRecommended \
	nIterations          0 \
	history              15 \
	knormThreshold       0 \
	energyDiffThreshold  1e-06 \
	nEnergyDiff          2 \
	alphaTstart          1 \
	alphaTmin            1e-10 \
	updateTestStepSize   yes \
	alphaTreduceFactor   0.1 \
	alphaTincreaseFactor 3 \
	nAlphaAdjustMax      3 \
	wolfeEnergy          0.0001 \
	wolfeGradient        0.9 \
	fdTest               no
lcao-params -1 1e-06 1e-05
pcm-variant GLSSA13
spintype z-spin
subspace-rotation-factor 1 yes
symmetries automatic
symmetry-threshold 0.0001



---------- Setting up symmetries ----------

Found 24 point-group symmetries of the bravais lattice
Found 24 space-group symmetries with basis
Applied RMS atom displacement 0 bohrs to make symmetries exact.

---------- Initializing the Grid ----------
R = 
[      9.45497     -4.72749            0  ]
[            0      8.18825            0  ]
[            0            0           40  ]
unit cell volume = 3096.79
G =
[   0.664538   0.383671         -0  ]
[          0   0.767342         -0  ]
[         -0         -0    0.15708  ]
Minimum fftbox size, Smin = [  40  40  164  ]
Chosen fftbox size, S = [  40  40  168  ]

---------- Exchange Correlation functional ----------
Initalized PBE GGA exchange.
Initalized PBE GGA correlation.

---------- Setting up pseudopotentials ----------
Width of ionic core gaussian charges (only for fluid interactions / plotting) set to 0

Reading pseudopotential file '/home/gridsan/aligho/DFT/build-Nov24/pseudopotentials/SG15/Na_ONCV_PBE.upf':
  'Na' pseudopotential, 'PBE' functional
  Generated using ONCVPSP code by D. R. Hamann
  Author: Martin Schlipf and Francois Gygi  Date: 150915.
  9 valence electrons, 3 orbitals, 4 projectors, 1992 radial grid points, with lMax = 1
  Transforming local potential to a uniform radial grid of dG=0.02 with 1489 points.
  Transforming nonlocal projectors to a uniform radial grid of dG=0.02 with 432 points.
    2S    l: 0   occupation:  2.0   eigenvalue: -2.085640
    2P    l: 1   occupation:  6.0   eigenvalue: -1.053708
    3S    l: 0   occupation:  1.0   eigenvalue: -0.100838
  Transforming atomic orbitals to a uniform radial grid of dG=0.02 with 432 points.
  Core radius for overlap checks: 2.01 bohrs.
  Reading pulay file /home/gridsan/aligho/DFT/build-Nov24/pseudopotentials/SG15/Na_ONCV_PBE.pulay ... using dE_dnG = -2.946487e-03 computed for Ecut = 20.

Initialized 1 species with 1 total atoms.

Folded 1 k-points by 12x12x1 to 144 k-points.

---------- Setting up k-points, bands, fillings ----------
Reduced to 19 k-points under symmetry. 
Computing the number of bands and number of electrons
Calculating initial fillings.
nElectrons:   9.000000   nBands: 6   nStates: 38

----- Setting up reduced wavefunction bases (one per k-point) -----
average nbasis = 13230.521 , ideal nbasis = 13229.709

---------- Setting up coulomb interaction ----------
Initialized slab truncation along lattice direction 001

---------- Setting up 2D ewald sum ----------
Optimum gaussian width for ewald sums = 5.249020 bohr.
Real space sums over 289 unit cells with max indices [  8  8  0  ]
Reciprocal space sums over 81 terms with max indices [  4  4  0  ]

---------- Allocating electronic variables ----------
Initializing wave functions:  linear combination of atomic orbitals
Note: number of bands (6) exceeds available atomic orbitals (5)
Na pseudo-atom occupations:   s ( 2 1 )  p ( 6 )
	FillingsUpdate:  mu: -0.108275604  nElectrons: 9.000000  magneticMoment: [ Abs: 0.50000  Tot: -0.50000 ]
LCAOMinimize: Iter:   0  F: -42.5650022138783655  |grad|_K:  2.285e-05  alpha:  1.000e+00
	FillingsUpdate:  mu: -0.108272440  nElectrons: 9.000000  magneticMoment: [ Abs: 0.50000  Tot: -0.50000 ]
LCAOMinimize: Iter:   1  F: -42.5650025669786203  |grad|_K:  1.917e-07  alpha:  9.884e-01  linmin: -1.821e-02  cgtest:  6.431e-01  t[s]:      4.95
LCAOMinimize: Encountered beta<0, resetting CG.
	FillingsUpdate:  mu: -0.108272457  nElectrons: 9.000000  magneticMoment: [ Abs: 0.50000  Tot: -0.50000 ]
LCAOMinimize: Iter:   2  F: -42.5650025670034040  |grad|_K:  3.344e-09  alpha:  9.838e-01  linmin: -4.018e-02  cgtest:  9.987e-01  t[s]:      6.27
LCAOMinimize: Encountered beta<0, resetting CG.
LCAOMinimize: Converged (|Delta F|<1.000000e-06 for 2 iters).


---- Citations for features of the code used in this run ----

   Software package:
      R. Sundararaman, K. Letchworth-Weaver, K.A. Schwarz, D. Gunceler, Y. Ozhabes and T.A. Arias, 'JDFTx: software for joint density-functional theory', SoftwareX 6, 278 (2017)

   gga-PBE exchange-correlation functional:
      J.P. Perdew, K. Burke and M. Ernzerhof, Phys. Rev. Lett. 77, 3865 (1996)

   Pseudopotentials:
      M Schlipf and F Gygi, Comput. Phys. Commun. 196, 36 (2015)

   Truncated Coulomb potentials:
      R. Sundararaman and T.A. Arias, Phys. Rev. B 87, 165122 (2013)

This list may not be complete. Please suggest additional citations or
report any other bugs at https://github.com/shankar1729/jdftx/issues

Initialization completed successfully at t[s]:      6.35


-------- Electronic minimization -----------
Will mix electronic density at each iteration.
	FillingsUpdate:  mu: -0.108272457  nElectrons: 9.000000  magneticMoment: [ Abs: 0.50000  Tot: -0.50000 ]
	FillingsUpdate:  mu: -0.114508497  nElectrons: 9.000000  magneticMoment: [ Abs: 0.50000  Tot: -0.50000 ]
SCF: Cycle:  0   F: -42.569990587485883   dF: -4.988e-03   |Residual|: 9.798e-03   |deigs|: 1.702e-01  t[s]:      8.57
	FillingsUpdate:  mu: -0.114416128  nElectrons: 9.000000  magneticMoment: [ Abs: 0.50000  Tot: -0.50000 ]
SCF: Cycle:  1   F: -42.570122732480520   dF: -1.321e-04   |Residual|: 6.572e-03   |deigs|: 8.729e-03  t[s]:     10.24
	FillingsUpdate:  mu: -0.114169841  nElectrons: 9.000000  magneticMoment: [ Abs: 0.50136  Tot: -0.50000 ]
SCF: Cycle:  2   F: -42.570137948452455   dF: -1.522e-05   |Residual|: 3.869e-03   |deigs|: 6.761e-03  t[s]:     11.94
	FillingsUpdate:  mu: -0.114107137  nElectrons: 9.000000  magneticMoment: [ Abs: 0.50005  Tot: -0.50000 ]
SCF: Cycle:  3   F: -42.570142954791557   dF: -5.006e-06   |Residual|: 2.270e-03   |deigs|: 4.817e-03  t[s]:     13.64
	FillingsUpdate:  mu: -0.113861550  nElectrons: 9.000000  magneticMoment: [ Abs: 0.50009  Tot: -0.50000 ]
SCF: Cycle:  4   F: -42.570162051020191   dF: -1.910e-05   |Residual|: 9.842e-04   |deigs|: 3.679e-03  t[s]:     15.40
	FillingsUpdate:  mu: -0.113592761  nElectrons: 9.000000  magneticMoment: [ Abs: 0.50018  Tot: -0.50000 ]
SCF: Cycle:  5   F: -42.570164628381086   dF: -2.577e-06   |Residual|: 7.877e-04   |deigs|: 1.289e-03  t[s]:     17.18
	FillingsUpdate:  mu: -0.112947506  nElectrons: 9.000000  magneticMoment: [ Abs: 0.50076  Tot: -0.50000 ]
SCF: Cycle:  6   F: -42.570165362044243   dF: -7.337e-07   |Residual|: 5.954e-04   |deigs|: 1.751e-03  t[s]:     18.97
	FillingsUpdate:  mu: -0.112106183  nElectrons: 9.000000  magneticMoment: [ Abs: 0.50237  Tot: -0.50000 ]
SCF: Cycle:  7   F: -42.570164583576066   dF: +7.785e-07   |Residual|: 4.291e-04   |deigs|: 1.135e-03  t[s]:     20.78
	FillingsUpdate:  mu: -0.111376616  nElectrons: 9.000000  magneticMoment: [ Abs: 0.50195  Tot: -0.50000 ]
SCF: Cycle:  8   F: -42.570163919527609   dF: +6.640e-07   |Residual|: 3.605e-04   |deigs|: 1.055e-03  t[s]:     22.61
	FillingsUpdate:  mu: -0.111005850  nElectrons: 9.000000  magneticMoment: [ Abs: 0.50089  Tot: -0.50000 ]
SCF: Cycle:  9   F: -42.570165642483154   dF: -1.723e-06   |Residual|: 3.137e-04   |deigs|: 4.833e-04  t[s]:     24.48
	FillingsUpdate:  mu: -0.111020135  nElectrons: 9.000000  magneticMoment: [ Abs: 0.50109  Tot: -0.50000 ]
SCF: Cycle: 10   F: -42.570167166046382   dF: -1.524e-06   |Residual|: 2.327e-04   |deigs|: 2.226e-04  t[s]:     26.40
	FillingsUpdate:  mu: -0.110434524  nElectrons: 9.000000  magneticMoment: [ Abs: 0.50149  Tot: -0.50000 ]
SCF: Cycle: 11   F: -42.570166513508852   dF: +6.525e-07   |Residual|: 2.158e-04   |deigs|: 6.457e-04  t[s]:     28.32
	FillingsUpdate:  mu: -0.109819843  nElectrons: 9.000000  magneticMoment: [ Abs: 0.50094  Tot: -0.50000 ]
SCF: Cycle: 12   F: -42.570165604639165   dF: +9.089e-07   |Residual|: 1.969e-04   |deigs|: 6.594e-04  t[s]:     30.14
	FillingsUpdate:  mu: -0.109439384  nElectrons: 9.000000  magneticMoment: [ Abs: 0.50132  Tot: -0.50000 ]
SCF: Cycle: 13   F: -42.570166664127392   dF: -1.059e-06   |Residual|: 1.750e-04   |deigs|: 3.622e-04  t[s]:     31.97
	FillingsUpdate:  mu: -0.109125623  nElectrons: 9.000000  magneticMoment: [ Abs: 0.50123  Tot: -0.50000 ]
SCF: Cycle: 14   F: -42.570167595154267   dF: -9.310e-07   |Residual|: 1.613e-04   |deigs|: 3.275e-04  t[s]:     33.84
	FillingsUpdate:  mu: -0.108462565  nElectrons: 9.000000  magneticMoment: [ Abs: 0.50076  Tot: -0.50000 ]
SCF: Cycle: 15   F: -42.570168119912388   dF: -5.248e-07   |Residual|: 1.491e-04   |deigs|: 7.182e-04  t[s]:     35.74
	FillingsUpdate:  mu: -0.108029151  nElectrons: 9.000000  magneticMoment: [ Abs: 0.50039  Tot: -0.50000 ]
SCF: Cycle: 16   F: -42.570168512366664   dF: -3.925e-07   |Residual|: 1.169e-04   |deigs|: 4.131e-04  t[s]:     37.67
	FillingsUpdate:  mu: -0.107805645  nElectrons: 9.000000  magneticMoment: [ Abs: 0.50042  Tot: -0.50000 ]
SCF: Cycle: 17   F: -42.570168704817242   dF: -1.925e-07   |Residual|: 7.936e-05   |deigs|: 1.891e-04  t[s]:     39.63
	FillingsUpdate:  mu: -0.107683701  nElectrons: 9.000000  magneticMoment: [ Abs: 0.50026  Tot: -0.50000 ]
SCF: Cycle: 18   F: -42.570168769058583   dF: -6.424e-08   |Residual|: 6.281e-05   |deigs|: 6.067e-04  t[s]:     41.45
	FillingsUpdate:  mu: -0.107586862  nElectrons: 9.000000  magneticMoment: [ Abs: 0.50034  Tot: -0.50000 ]
SCF: Cycle: 19   F: -42.570168813389323   dF: -4.433e-08   |Residual|: 3.006e-05   |deigs|: 4.838e-04  t[s]:     43.31
	FillingsUpdate:  mu: -0.107554313  nElectrons: 9.000000  magneticMoment: [ Abs: 0.50033  Tot: -0.50000 ]
SCF: Cycle: 20   F: -42.570168822908876   dF: -9.520e-09   |Residual|: 1.672e-05   |deigs|: 4.339e-04  t[s]:     45.22
	FillingsUpdate:  mu: -0.107551134  nElectrons: 9.000000  magneticMoment: [ Abs: 0.50023  Tot: -0.50000 ]
SCF: Cycle: 21   F: -42.570168824470819   dF: -1.562e-09   |Residual|: 1.074e-05   |deigs|: 7.048e-04  t[s]:     47.09
SCF: Converged (|Delta E|<1.000000e-08 for 2 iters).


# Ionic positions in lattice coordinates:
ion Na   0.000000000000000   0.000000000000000   0.000000000000000 0

# Forces in Lattice coordinates:
force Na   0.000000000000000   0.000000000000000   0.000000000000000 0

# Energy components:
   Eewald =      -18.0480261003326561
       EH =       15.7326948258240567
     Eloc =      -42.7446680586993040
      Enl =      -12.9139048745504468
   Epulay =        0.0000007725295140
      Exc =       -6.2183320442134571
       KE =       21.6220670817353131
-------------------------------------
     Etot =      -42.5701683977069933
       TS =        0.0000004267638229
-------------------------------------
        F =      -42.5701688244708194

IonicMinimize: Iter:   0  F: -42.570168824470819  |grad|_K:  0.000e+00  t[s]:     47.16
IonicMinimize: Converged (|grad|_K<1.000000e-04).

#--- Lowdin population analysis ---
# oxidation-state Na +0.060
# magnetic-moments Na -0.445

End date and time: Sat Feb  5 22:25:31 2022  (Duration: 0-0:00:47.18)
Done!
