
*************** JDFTx 1.6.0 (git hash 42ebbcc2) ***************

Start date and time: Sat Feb  5 22:20:47 2022
Executable jdftx with command-line: -i Alkali.in
Running on hosts (process indices):  d-6-10-3 (0-18)
Divided in process groups (process indices):  0 (0)  1 (1)  2 (2)  3 (3)  4 (4)  5 (5)  6 (6)  7 (7)  8 (8)  9 (9)  10 (10)  11 (11)  12 (12)  13 (13)  14 (14)  15 (15)  16 (16)  17 (17)  18 (18)
Resource initialization completed at t[s]:      0.00
Run totals: 19 processes, 48 threads, 0 GPUs


Input parsed successfully to the following command list (including defaults):

basis kpoint-dependent
coords-type Lattice
core-overlap-check vector
coulomb-interaction Slab 001
davidson-band-ratio 1.1
dump End None
dump-name $INPUT.$VAR
elec-cutoff 20
elec-eigen-algo Davidson
elec-ex-corr gga-PBE
elec-initial-magnetization -0.760000 yes
elec-smearing Fermi 1e-05
electronic-minimize  \
	dirUpdateScheme      FletcherReeves \
	linminMethod         DirUpdateRecommended \
	nIterations          100 \
	history              15 \
	knormThreshold       0 \
	energyDiffThreshold  1e-08 \
	nEnergyDiff          2 \
	alphaTstart          1 \
	alphaTmin            1e-10 \
	updateTestStepSize   yes \
	alphaTreduceFactor   0.1 \
	alphaTincreaseFactor 3 \
	nAlphaAdjustMax      3 \
	wolfeEnergy          0.0001 \
	wolfeGradient        0.9 \
	fdTest               no
electronic-scf  \
	nIterations	10000 \
	energyDiffThreshold	1e-08 \
	residualThreshold	1e-07 \
	mixFraction	0.5 \
	qMetric	0.8 \
	history	10 \
	nEigSteps	2 \
	eigDiffThreshold	1e-08 \
	mixedVariable	Density \
	qKerker	0.8 \
	qKappa	-1 \
	verbose	no \
	mixFractionMag	1.5
exchange-regularization WignerSeitzTruncated
fluid None
fluid-ex-corr (null) lda-PZ
fluid-gummel-loop 10 1.000000e-05
fluid-minimize  \
	dirUpdateScheme      PolakRibiere \
	linminMethod         DirUpdateRecommended \
	nIterations          100 \
	history              15 \
	knormThreshold       0 \
	energyDiffThreshold  0 \
	nEnergyDiff          2 \
	alphaTstart          1 \
	alphaTmin            1e-10 \
	updateTestStepSize   yes \
	alphaTreduceFactor   0.1 \
	alphaTincreaseFactor 3 \
	nAlphaAdjustMax      3 \
	wolfeEnergy          0.0001 \
	wolfeGradient        0.9 \
	fdTest               no
fluid-solvent H2O 55.338 ScalarEOS \
	epsBulk 78.4 \
	pMol 0.92466 \
	epsInf 1.77 \
	Pvap 1.06736e-10 \
	sigmaBulk 4.62e-05 \
	Rvdw 2.61727 \
	Res 1.42 \
	tauNuc 343133 \
	poleEl 15 7 1
forces-output-coords Positions
ion Na   0.000000000000000   0.000000000000000   0.000000000000000 0
ion-species SG15/$ID_ONCV_PBE.upf
ion-width 0
ionic-minimize  \
	dirUpdateScheme      L-BFGS \
	linminMethod         DirUpdateRecommended \
	nIterations          0 \
	history              15 \
	knormThreshold       0.0001 \
	energyDiffThreshold  1e-06 \
	nEnergyDiff          2 \
	alphaTstart          1 \
	alphaTmin            1e-10 \
	updateTestStepSize   yes \
	alphaTreduceFactor   0.1 \
	alphaTincreaseFactor 3 \
	nAlphaAdjustMax      3 \
	wolfeEnergy          0.0001 \
	wolfeGradient        0.9 \
	fdTest               no
kpoint   0.000000000000   0.000000000000   0.000000000000  1.00000000000000
kpoint-folding 12 12 1 
latt-move-scale 1 1 1
latt-scale 2 2 1 
lattice  \
	   4.727486978767153   -2.363743489383575    0.000000000000000  \
	  -0.000000000000000    4.094123819672498    0.000000000000000  \
	   0.000000000000000    0.000000000000000   40.000000000000000 
lattice-minimize  \
	dirUpdateScheme      L-BFGS \
	linminMethod         DirUpdateRecommended \
	nIterations          0 \
	history              15 \
	knormThreshold       0 \
	energyDiffThreshold  1e-06 \
	nEnergyDiff          2 \
	alphaTstart          1 \
	alphaTmin            1e-10 \
	updateTestStepSize   yes \
	alphaTreduceFactor   0.1 \
	alphaTincreaseFactor 3 \
	nAlphaAdjustMax      3 \
	wolfeEnergy          0.0001 \
	wolfeGradient        0.9 \
	fdTest               no
lcao-params -1 1e-06 1e-05
pcm-variant GLSSA13
spintype z-spin
subspace-rotation-factor 1 yes
symmetries automatic
symmetry-threshold 0.0001



---------- Setting up symmetries ----------

Found 24 point-group symmetries of the bravais lattice
Found 24 space-group symmetries with basis
Applied RMS atom displacement 0 bohrs to make symmetries exact.

---------- Initializing the Grid ----------
R = 
[      9.45497     -4.72749            0  ]
[            0      8.18825            0  ]
[            0            0           40  ]
unit cell volume = 3096.79
G =
[   0.664538   0.383671         -0  ]
[          0   0.767342         -0  ]
[         -0         -0    0.15708  ]
Minimum fftbox size, Smin = [  40  40  164  ]
Chosen fftbox size, S = [  40  40  168  ]

---------- Exchange Correlation functional ----------
Initalized PBE GGA exchange.
Initalized PBE GGA correlation.

---------- Setting up pseudopotentials ----------
Width of ionic core gaussian charges (only for fluid interactions / plotting) set to 0

Reading pseudopotential file '/home/gridsan/aligho/DFT/build-Nov24/pseudopotentials/SG15/Na_ONCV_PBE.upf':
  'Na' pseudopotential, 'PBE' functional
  Generated using ONCVPSP code by D. R. Hamann
  Author: Martin Schlipf and Francois Gygi  Date: 150915.
  9 valence electrons, 3 orbitals, 4 projectors, 1992 radial grid points, with lMax = 1
  Transforming local potential to a uniform radial grid of dG=0.02 with 1489 points.
  Transforming nonlocal projectors to a uniform radial grid of dG=0.02 with 432 points.
    2S    l: 0   occupation:  2.0   eigenvalue: -2.085640
    2P    l: 1   occupation:  6.0   eigenvalue: -1.053708
    3S    l: 0   occupation:  1.0   eigenvalue: -0.100838
  Transforming atomic orbitals to a uniform radial grid of dG=0.02 with 432 points.
  Core radius for overlap checks: 2.01 bohrs.
  Reading pulay file /home/gridsan/aligho/DFT/build-Nov24/pseudopotentials/SG15/Na_ONCV_PBE.pulay ... using dE_dnG = -2.946487e-03 computed for Ecut = 20.

Initialized 1 species with 1 total atoms.

Folded 1 k-points by 12x12x1 to 144 k-points.

---------- Setting up k-points, bands, fillings ----------
Reduced to 19 k-points under symmetry. 
Computing the number of bands and number of electrons
Calculating initial fillings.
nElectrons:   9.000000   nBands: 6   nStates: 38

----- Setting up reduced wavefunction bases (one per k-point) -----
average nbasis = 13230.521 , ideal nbasis = 13229.709

---------- Setting up coulomb interaction ----------
Initialized slab truncation along lattice direction 001

---------- Setting up 2D ewald sum ----------
Optimum gaussian width for ewald sums = 5.249020 bohr.
Real space sums over 289 unit cells with max indices [  8  8  0  ]
Reciprocal space sums over 81 terms with max indices [  4  4  0  ]

---------- Allocating electronic variables ----------
Initializing wave functions:  linear combination of atomic orbitals
Note: number of bands (6) exceeds available atomic orbitals (5)
Na pseudo-atom occupations:   s ( 2 1 )  p ( 6 )
	FillingsUpdate:  mu: -0.106973964  nElectrons: 9.000000  magneticMoment: [ Abs: 0.76000  Tot: -0.76000 ]
LCAOMinimize: Iter:   0  F: -42.5605778170852673  |grad|_K:  1.430e-05  alpha:  1.000e+00
	FillingsUpdate:  mu: -0.106972850  nElectrons: 9.000000  magneticMoment: [ Abs: 0.76000  Tot: -0.76000 ]
LCAOMinimize: Iter:   1  F: -42.5605779559552531  |grad|_K:  9.928e-08  alpha:  9.931e-01  linmin: -1.616e-02  cgtest:  4.781e-01  t[s]:      4.78
LCAOMinimize: Encountered beta<0, resetting CG.
	FillingsUpdate:  mu: -0.106972871  nElectrons: 9.000000  magneticMoment: [ Abs: 0.76000  Tot: -0.76000 ]
LCAOMinimize: Iter:   2  F: -42.5605779559608521  |grad|_K:  4.655e-09  alpha:  9.530e-01  linmin: -8.206e-02  cgtest:  9.957e-01  t[s]:      5.98
LCAOMinimize: Encountered beta<0, resetting CG.
LCAOMinimize: Converged (|Delta F|<1.000000e-06 for 2 iters).


---- Citations for features of the code used in this run ----

   Software package:
      R. Sundararaman, K. Letchworth-Weaver, K.A. Schwarz, D. Gunceler, Y. Ozhabes and T.A. Arias, 'JDFTx: software for joint density-functional theory', SoftwareX 6, 278 (2017)

   gga-PBE exchange-correlation functional:
      J.P. Perdew, K. Burke and M. Ernzerhof, Phys. Rev. Lett. 77, 3865 (1996)

   Pseudopotentials:
      M Schlipf and F Gygi, Comput. Phys. Commun. 196, 36 (2015)

   Truncated Coulomb potentials:
      R. Sundararaman and T.A. Arias, Phys. Rev. B 87, 165122 (2013)

This list may not be complete. Please suggest additional citations or
report any other bugs at https://github.com/shankar1729/jdftx/issues

Initialization completed successfully at t[s]:      6.05


-------- Electronic minimization -----------
Will mix electronic density at each iteration.
	FillingsUpdate:  mu: -0.106972871  nElectrons: 9.000000  magneticMoment: [ Abs: 0.76000  Tot: -0.76000 ]
	FillingsUpdate:  mu: -0.109616891  nElectrons: 9.000000  magneticMoment: [ Abs: 0.76000  Tot: -0.76000 ]
SCF: Cycle:  0   F: -42.565866985304751   dF: -5.289e-03   |Residual|: 1.114e-02   |deigs|: 1.698e-01  t[s]:      8.28
	FillingsUpdate:  mu: -0.109417180  nElectrons: 9.000000  magneticMoment: [ Abs: 0.76002  Tot: -0.76000 ]
SCF: Cycle:  1   F: -42.566083785841315   dF: -2.168e-04   |Residual|: 7.527e-03   |deigs|: 8.842e-03  t[s]:      9.94
	FillingsUpdate:  mu: -0.110410280  nElectrons: 9.000000  magneticMoment: [ Abs: 0.76145  Tot: -0.76000 ]
SCF: Cycle:  2   F: -42.566137633468415   dF: -5.385e-05   |Residual|: 5.091e-03   |deigs|: 6.870e-03  t[s]:     11.63
	FillingsUpdate:  mu: -0.108910542  nElectrons: 9.000000  magneticMoment: [ Abs: 0.76029  Tot: -0.76000 ]
SCF: Cycle:  3   F: -42.566150418154137   dF: -1.278e-05   |Residual|: 2.960e-03   |deigs|: 5.813e-03  t[s]:     13.34
	FillingsUpdate:  mu: -0.108470303  nElectrons: 9.000000  magneticMoment: [ Abs: 0.76024  Tot: -0.76000 ]
SCF: Cycle:  4   F: -42.566162282038029   dF: -1.186e-05   |Residual|: 1.100e-03   |deigs|: 1.737e-03  t[s]:     15.07
	FillingsUpdate:  mu: -0.108365420  nElectrons: 9.000000  magneticMoment: [ Abs: 0.76052  Tot: -0.76000 ]
SCF: Cycle:  5   F: -42.566168221385894   dF: -5.939e-06   |Residual|: 8.163e-04   |deigs|: 3.406e-03  t[s]:     16.84
	FillingsUpdate:  mu: -0.107772159  nElectrons: 9.000000  magneticMoment: [ Abs: 0.76037  Tot: -0.76000 ]
SCF: Cycle:  6   F: -42.566169883483148   dF: -1.662e-06   |Residual|: 6.412e-04   |deigs|: 2.126e-03  t[s]:     18.63
	FillingsUpdate:  mu: -0.106884623  nElectrons: 9.000000  magneticMoment: [ Abs: 0.76214  Tot: -0.76000 ]
SCF: Cycle:  7   F: -42.566168494615056   dF: +1.389e-06   |Residual|: 4.811e-04   |deigs|: 9.795e-04  t[s]:     20.44
	FillingsUpdate:  mu: -0.106097797  nElectrons: 9.000000  magneticMoment: [ Abs: 0.76222  Tot: -0.76000 ]
SCF: Cycle:  8   F: -42.566169131612774   dF: -6.370e-07   |Residual|: 3.928e-04   |deigs|: 1.130e-03  t[s]:     22.30
	FillingsUpdate:  mu: -0.105637086  nElectrons: 9.000000  magneticMoment: [ Abs: 0.76084  Tot: -0.76000 ]
SCF: Cycle:  9   F: -42.566170927629756   dF: -1.796e-06   |Residual|: 3.287e-04   |deigs|: 5.567e-04  t[s]:     24.22
	FillingsUpdate:  mu: -0.105689284  nElectrons: 9.000000  magneticMoment: [ Abs: 0.76083  Tot: -0.76000 ]
SCF: Cycle: 10   F: -42.566172207175242   dF: -1.280e-06   |Residual|: 2.386e-04   |deigs|: 2.500e-04  t[s]:     26.22
	FillingsUpdate:  mu: -0.105126741  nElectrons: 9.000000  magneticMoment: [ Abs: 0.76156  Tot: -0.76000 ]
SCF: Cycle: 11   F: -42.566171556087795   dF: +6.511e-07   |Residual|: 2.142e-04   |deigs|: 7.225e-04  t[s]:     28.14
	FillingsUpdate:  mu: -0.104750549  nElectrons: 9.000000  magneticMoment: [ Abs: 0.76126  Tot: -0.76000 ]
SCF: Cycle: 12   F: -42.566171237152801   dF: +3.189e-07   |Residual|: 1.950e-04   |deigs|: 3.711e-04  t[s]:     30.06
	FillingsUpdate:  mu: -0.104355222  nElectrons: 9.000000  magneticMoment: [ Abs: 0.76179  Tot: -0.76000 ]
SCF: Cycle: 13   F: -42.566172061418719   dF: -8.243e-07   |Residual|: 1.674e-04   |deigs|: 5.179e-04  t[s]:     31.99
	FillingsUpdate:  mu: -0.103967732  nElectrons: 9.000000  magneticMoment: [ Abs: 0.76197  Tot: -0.76000 ]
SCF: Cycle: 14   F: -42.566172693230449   dF: -6.318e-07   |Residual|: 1.573e-04   |deigs|: 4.002e-04  t[s]:     33.92
	FillingsUpdate:  mu: -0.103319640  nElectrons: 9.000000  magneticMoment: [ Abs: 0.76101  Tot: -0.76000 ]
SCF: Cycle: 15   F: -42.566173254891169   dF: -5.617e-07   |Residual|: 1.419e-04   |deigs|: 6.919e-04  t[s]:     35.82
	FillingsUpdate:  mu: -0.102994066  nElectrons: 9.000000  magneticMoment: [ Abs: 0.76098  Tot: -0.76000 ]
SCF: Cycle: 16   F: -42.566173480359687   dF: -2.255e-07   |Residual|: 1.259e-04   |deigs|: 3.231e-04  t[s]:     37.66
	FillingsUpdate:  mu: -0.102614875  nElectrons: 9.000000  magneticMoment: [ Abs: 0.76071  Tot: -0.76000 ]
SCF: Cycle: 17   F: -42.566173749550543   dF: -2.692e-07   |Residual|: 8.538e-05   |deigs|: 3.689e-04  t[s]:     39.53
	FillingsUpdate:  mu: -0.102452252  nElectrons: 9.000000  magneticMoment: [ Abs: 0.76056  Tot: -0.76000 ]
SCF: Cycle: 18   F: -42.566173855304335   dF: -1.058e-07   |Residual|: 5.495e-05   |deigs|: 1.954e-04  t[s]:     41.42
	FillingsUpdate:  mu: -0.102389085  nElectrons: 9.000000  magneticMoment: [ Abs: 0.76062  Tot: -0.76000 ]
SCF: Cycle: 19   F: -42.566173889093903   dF: -3.379e-08   |Residual|: 3.837e-05   |deigs|: 8.535e-05  t[s]:     43.37
	FillingsUpdate:  mu: -0.102356807  nElectrons: 9.000000  magneticMoment: [ Abs: 0.76056  Tot: -0.76000 ]
SCF: Cycle: 20   F: -42.566173910444903   dF: -2.135e-08   |Residual|: 2.153e-05   |deigs|: 4.695e-05  t[s]:     45.23
	FillingsUpdate:  mu: -0.102357160  nElectrons: 9.000000  magneticMoment: [ Abs: 0.76051  Tot: -0.76000 ]
SCF: Cycle: 21   F: -42.566173917148276   dF: -6.703e-09   |Residual|: 1.120e-05   |deigs|: 7.900e-04  t[s]:     47.14
	FillingsUpdate:  mu: -0.102359849  nElectrons: 9.000000  magneticMoment: [ Abs: 0.76051  Tot: -0.76000 ]
SCF: Cycle: 22   F: -42.566173919705932   dF: -2.558e-09   |Residual|: 7.984e-06   |deigs|: 1.644e-04  t[s]:     48.98
SCF: Converged (|Delta E|<1.000000e-08 for 2 iters).


# Ionic positions in lattice coordinates:
ion Na   0.000000000000000   0.000000000000000   0.000000000000000 0

# Forces in Lattice coordinates:
force Na  -0.000000000000000   0.000000000000000   0.000000000000000 0

# Energy components:
   Eewald =      -18.0480261003326561
       EH =       15.7511186980747482
     Eloc =      -42.7646926173312139
      Enl =      -12.9146026361023054
   Epulay =        0.0000007725295140
      Exc =       -6.2218095932507378
       KE =       21.6318382523627122
-------------------------------------
     Etot =      -42.5661732240499333
       TS =        0.0000006956559967
-------------------------------------
        F =      -42.5661739197059319

IonicMinimize: Iter:   0  F: -42.566173919705932  |grad|_K:  0.000e+00  t[s]:     49.05
IonicMinimize: Converged (|grad|_K<1.000000e-04).

#--- Lowdin population analysis ---
# oxidation-state Na +0.082
# magnetic-moments Na -0.680

End date and time: Sat Feb  5 22:21:37 2022  (Duration: 0-0:00:49.07)
Done!
