
*************** JDFTx 1.6.0 (git hash 42ebbcc2) ***************

Start date and time: Sat Feb  5 22:26:00 2022
Executable jdftx with command-line: -i Alkali.in
Running on hosts (process indices):  d-4-5-2 (0-18)
Divided in process groups (process indices):  0 (0)  1 (1)  2 (2)  3 (3)  4 (4)  5 (5)  6 (6)  7 (7)  8 (8)  9 (9)  10 (10)  11 (11)  12 (12)  13 (13)  14 (14)  15 (15)  16 (16)  17 (17)  18 (18)
Resource initialization completed at t[s]:      0.00
Run totals: 19 processes, 48 threads, 0 GPUs


Input parsed successfully to the following command list (including defaults):

basis kpoint-dependent
coords-type Lattice
core-overlap-check vector
coulomb-interaction Slab 001
davidson-band-ratio 1.1
dump End None
dump-name $INPUT.$VAR
elec-cutoff 20
elec-eigen-algo Davidson
elec-ex-corr gga-PBE
elec-initial-magnetization -0.400000 yes
elec-smearing Fermi 1e-05
electronic-minimize  \
	dirUpdateScheme      FletcherReeves \
	linminMethod         DirUpdateRecommended \
	nIterations          100 \
	history              15 \
	knormThreshold       0 \
	energyDiffThreshold  1e-08 \
	nEnergyDiff          2 \
	alphaTstart          1 \
	alphaTmin            1e-10 \
	updateTestStepSize   yes \
	alphaTreduceFactor   0.1 \
	alphaTincreaseFactor 3 \
	nAlphaAdjustMax      3 \
	wolfeEnergy          0.0001 \
	wolfeGradient        0.9 \
	fdTest               no
electronic-scf  \
	nIterations	10000 \
	energyDiffThreshold	1e-08 \
	residualThreshold	1e-07 \
	mixFraction	0.5 \
	qMetric	0.8 \
	history	10 \
	nEigSteps	2 \
	eigDiffThreshold	1e-08 \
	mixedVariable	Density \
	qKerker	0.8 \
	qKappa	-1 \
	verbose	no \
	mixFractionMag	1.5
exchange-regularization WignerSeitzTruncated
fluid None
fluid-ex-corr (null) lda-PZ
fluid-gummel-loop 10 1.000000e-05
fluid-minimize  \
	dirUpdateScheme      PolakRibiere \
	linminMethod         DirUpdateRecommended \
	nIterations          100 \
	history              15 \
	knormThreshold       0 \
	energyDiffThreshold  0 \
	nEnergyDiff          2 \
	alphaTstart          1 \
	alphaTmin            1e-10 \
	updateTestStepSize   yes \
	alphaTreduceFactor   0.1 \
	alphaTincreaseFactor 3 \
	nAlphaAdjustMax      3 \
	wolfeEnergy          0.0001 \
	wolfeGradient        0.9 \
	fdTest               no
fluid-solvent H2O 55.338 ScalarEOS \
	epsBulk 78.4 \
	pMol 0.92466 \
	epsInf 1.77 \
	Pvap 1.06736e-10 \
	sigmaBulk 4.62e-05 \
	Rvdw 2.61727 \
	Res 1.42 \
	tauNuc 343133 \
	poleEl 15 7 1
forces-output-coords Positions
ion Na   0.000000000000000   0.000000000000000   0.000000000000000 0
ion-species SG15/$ID_ONCV_PBE.upf
ion-width 0
ionic-minimize  \
	dirUpdateScheme      L-BFGS \
	linminMethod         DirUpdateRecommended \
	nIterations          0 \
	history              15 \
	knormThreshold       0.0001 \
	energyDiffThreshold  1e-06 \
	nEnergyDiff          2 \
	alphaTstart          1 \
	alphaTmin            1e-10 \
	updateTestStepSize   yes \
	alphaTreduceFactor   0.1 \
	alphaTincreaseFactor 3 \
	nAlphaAdjustMax      3 \
	wolfeEnergy          0.0001 \
	wolfeGradient        0.9 \
	fdTest               no
kpoint   0.000000000000   0.000000000000   0.000000000000  1.00000000000000
kpoint-folding 12 12 1 
latt-move-scale 1 1 1
latt-scale 2 2 1 
lattice  \
	   4.727486978767153   -2.363743489383575    0.000000000000000  \
	  -0.000000000000000    4.094123819672498    0.000000000000000  \
	   0.000000000000000    0.000000000000000   40.000000000000000 
lattice-minimize  \
	dirUpdateScheme      L-BFGS \
	linminMethod         DirUpdateRecommended \
	nIterations          0 \
	history              15 \
	knormThreshold       0 \
	energyDiffThreshold  1e-06 \
	nEnergyDiff          2 \
	alphaTstart          1 \
	alphaTmin            1e-10 \
	updateTestStepSize   yes \
	alphaTreduceFactor   0.1 \
	alphaTincreaseFactor 3 \
	nAlphaAdjustMax      3 \
	wolfeEnergy          0.0001 \
	wolfeGradient        0.9 \
	fdTest               no
lcao-params -1 1e-06 1e-05
pcm-variant GLSSA13
spintype z-spin
subspace-rotation-factor 1 yes
symmetries automatic
symmetry-threshold 0.0001



---------- Setting up symmetries ----------

Found 24 point-group symmetries of the bravais lattice
Found 24 space-group symmetries with basis
Applied RMS atom displacement 0 bohrs to make symmetries exact.

---------- Initializing the Grid ----------
R = 
[      9.45497     -4.72749            0  ]
[            0      8.18825            0  ]
[            0            0           40  ]
unit cell volume = 3096.79
G =
[   0.664538   0.383671         -0  ]
[          0   0.767342         -0  ]
[         -0         -0    0.15708  ]
Minimum fftbox size, Smin = [  40  40  164  ]
Chosen fftbox size, S = [  40  40  168  ]

---------- Exchange Correlation functional ----------
Initalized PBE GGA exchange.
Initalized PBE GGA correlation.

---------- Setting up pseudopotentials ----------
Width of ionic core gaussian charges (only for fluid interactions / plotting) set to 0

Reading pseudopotential file '/home/gridsan/aligho/DFT/build-Nov24/pseudopotentials/SG15/Na_ONCV_PBE.upf':
  'Na' pseudopotential, 'PBE' functional
  Generated using ONCVPSP code by D. R. Hamann
  Author: Martin Schlipf and Francois Gygi  Date: 150915.
  9 valence electrons, 3 orbitals, 4 projectors, 1992 radial grid points, with lMax = 1
  Transforming local potential to a uniform radial grid of dG=0.02 with 1489 points.
  Transforming nonlocal projectors to a uniform radial grid of dG=0.02 with 432 points.
    2S    l: 0   occupation:  2.0   eigenvalue: -2.085640
    2P    l: 1   occupation:  6.0   eigenvalue: -1.053708
    3S    l: 0   occupation:  1.0   eigenvalue: -0.100838
  Transforming atomic orbitals to a uniform radial grid of dG=0.02 with 432 points.
  Core radius for overlap checks: 2.01 bohrs.
  Reading pulay file /home/gridsan/aligho/DFT/build-Nov24/pseudopotentials/SG15/Na_ONCV_PBE.pulay ... using dE_dnG = -2.946487e-03 computed for Ecut = 20.

Initialized 1 species with 1 total atoms.

Folded 1 k-points by 12x12x1 to 144 k-points.

---------- Setting up k-points, bands, fillings ----------
Reduced to 19 k-points under symmetry. 
Computing the number of bands and number of electrons
Calculating initial fillings.
nElectrons:   9.000000   nBands: 6   nStates: 38

----- Setting up reduced wavefunction bases (one per k-point) -----
average nbasis = 13230.521 , ideal nbasis = 13229.709

---------- Setting up coulomb interaction ----------
Initialized slab truncation along lattice direction 001

---------- Setting up 2D ewald sum ----------
Optimum gaussian width for ewald sums = 5.249020 bohr.
Real space sums over 289 unit cells with max indices [  8  8  0  ]
Reciprocal space sums over 81 terms with max indices [  4  4  0  ]

---------- Allocating electronic variables ----------
Initializing wave functions:  linear combination of atomic orbitals
Note: number of bands (6) exceeds available atomic orbitals (5)
Na pseudo-atom occupations:   s ( 2 1 )  p ( 6 )
	FillingsUpdate:  mu: -0.103924479  nElectrons: 9.000000  magneticMoment: [ Abs: 0.40000  Tot: -0.40000 ]
LCAOMinimize: Iter:   0  F: -42.5662974755354711  |grad|_K:  2.542e-05  alpha:  1.000e+00
	FillingsUpdate:  mu: -0.103920395  nElectrons: 9.000000  magneticMoment: [ Abs: 0.40000  Tot: -0.40000 ]
LCAOMinimize: Iter:   1  F: -42.5662979120847140  |grad|_K:  2.222e-07  alpha:  9.876e-01  linmin: -1.848e-02  cgtest:  6.725e-01  t[s]:      4.49
LCAOMinimize: Encountered beta<0, resetting CG.
	FillingsUpdate:  mu: -0.103920403  nElectrons: 9.000000  magneticMoment: [ Abs: 0.40000  Tot: -0.40000 ]
LCAOMinimize: Iter:   2  F: -42.5662979121190403  |grad|_K:  8.401e-10  alpha:  9.975e-01  linmin: -3.443e-02  cgtest:  9.813e-01  t[s]:      5.67
LCAOMinimize: Encountered beta<0, resetting CG.
LCAOMinimize: Converged (|Delta F|<1.000000e-06 for 2 iters).


---- Citations for features of the code used in this run ----

   Software package:
      R. Sundararaman, K. Letchworth-Weaver, K.A. Schwarz, D. Gunceler, Y. Ozhabes and T.A. Arias, 'JDFTx: software for joint density-functional theory', SoftwareX 6, 278 (2017)

   gga-PBE exchange-correlation functional:
      J.P. Perdew, K. Burke and M. Ernzerhof, Phys. Rev. Lett. 77, 3865 (1996)

   Pseudopotentials:
      M Schlipf and F Gygi, Comput. Phys. Commun. 196, 36 (2015)

   Truncated Coulomb potentials:
      R. Sundararaman and T.A. Arias, Phys. Rev. B 87, 165122 (2013)

This list may not be complete. Please suggest additional citations or
report any other bugs at https://github.com/shankar1729/jdftx/issues

Initialization completed successfully at t[s]:      5.74


-------- Electronic minimization -----------
Will mix electronic density at each iteration.
	FillingsUpdate:  mu: -0.103920403  nElectrons: 9.000000  magneticMoment: [ Abs: 0.40000  Tot: -0.40000 ]
	FillingsUpdate:  mu: -0.111039685  nElectrons: 9.000000  magneticMoment: [ Abs: 0.40000  Tot: -0.40000 ]
SCF: Cycle:  0   F: -42.570982004795965   dF: -4.684e-03   |Residual|: 8.928e-03   |deigs|: 1.704e-01  t[s]:      7.97
	FillingsUpdate:  mu: -0.111063799  nElectrons: 9.000000  magneticMoment: [ Abs: 0.40000  Tot: -0.40000 ]
SCF: Cycle:  1   F: -42.571085589385888   dF: -1.036e-04   |Residual|: 6.045e-03   |deigs|: 8.759e-03  t[s]:      9.69
	FillingsUpdate:  mu: -0.110871283  nElectrons: 9.000000  magneticMoment: [ Abs: 0.40131  Tot: -0.40000 ]
SCF: Cycle:  2   F: -42.571101641279554   dF: -1.605e-05   |Residual|: 3.426e-03   |deigs|: 6.672e-03  t[s]:     11.36
	FillingsUpdate:  mu: -0.110708794  nElectrons: 9.000000  magneticMoment: [ Abs: 0.40003  Tot: -0.40000 ]
SCF: Cycle:  3   F: -42.571106468164437   dF: -4.827e-06   |Residual|: 1.988e-03   |deigs|: 4.821e-03  t[s]:     13.21
	FillingsUpdate:  mu: -0.110318043  nElectrons: 9.000000  magneticMoment: [ Abs: 0.40006  Tot: -0.40000 ]
SCF: Cycle:  4   F: -42.571118106433843   dF: -1.164e-05   |Residual|: 9.261e-04   |deigs|: 2.689e-03  t[s]:     14.94
	FillingsUpdate:  mu: -0.109996670  nElectrons: 9.000000  magneticMoment: [ Abs: 0.40015  Tot: -0.40000 ]
SCF: Cycle:  5   F: -42.571119551644770   dF: -1.445e-06   |Residual|: 7.572e-04   |deigs|: 1.528e-03  t[s]:     16.75
	FillingsUpdate:  mu: -0.109284047  nElectrons: 9.000000  magneticMoment: [ Abs: 0.40093  Tot: -0.40000 ]
SCF: Cycle:  6   F: -42.571119976630868   dF: -4.250e-07   |Residual|: 5.665e-04   |deigs|: 2.234e-03  t[s]:     18.52
	FillingsUpdate:  mu: -0.108453619  nElectrons: 9.000000  magneticMoment: [ Abs: 0.40219  Tot: -0.40000 ]
SCF: Cycle:  7   F: -42.571118997353281   dF: +9.793e-07   |Residual|: 4.116e-04   |deigs|: 1.137e-03  t[s]:     20.34
	FillingsUpdate:  mu: -0.107782146  nElectrons: 9.000000  magneticMoment: [ Abs: 0.40159  Tot: -0.40000 ]
SCF: Cycle:  8   F: -42.571118924802278   dF: +7.255e-08   |Residual|: 3.515e-04   |deigs|: 9.097e-04  t[s]:     22.28
	FillingsUpdate:  mu: -0.107491537  nElectrons: 9.000000  magneticMoment: [ Abs: 0.40064  Tot: -0.40000 ]
SCF: Cycle:  9   F: -42.571120504215905   dF: -1.579e-06   |Residual|: 2.921e-04   |deigs|: 4.693e-04  t[s]:     24.15
	FillingsUpdate:  mu: -0.107336782  nElectrons: 9.000000  magneticMoment: [ Abs: 0.40121  Tot: -0.40000 ]
SCF: Cycle: 10   F: -42.571121663547153   dF: -1.159e-06   |Residual|: 2.304e-04   |deigs|: 3.766e-04  t[s]:     26.11
	FillingsUpdate:  mu: -0.106804103  nElectrons: 9.000000  magneticMoment: [ Abs: 0.40135  Tot: -0.40000 ]
SCF: Cycle: 11   F: -42.571120546628123   dF: +1.117e-06   |Residual|: 2.137e-04   |deigs|: 8.107e-04  t[s]:     27.95
	FillingsUpdate:  mu: -0.106157028  nElectrons: 9.000000  magneticMoment: [ Abs: 0.40076  Tot: -0.40000 ]
SCF: Cycle: 12   F: -42.571119990233591   dF: +5.564e-07   |Residual|: 1.966e-04   |deigs|: 6.844e-04  t[s]:     29.74
	FillingsUpdate:  mu: -0.105760220  nElectrons: 9.000000  magneticMoment: [ Abs: 0.40137  Tot: -0.40000 ]
SCF: Cycle: 13   F: -42.571121308966184   dF: -1.319e-06   |Residual|: 1.723e-04   |deigs|: 3.736e-04  t[s]:     31.63
	FillingsUpdate:  mu: -0.105492991  nElectrons: 9.000000  magneticMoment: [ Abs: 0.40111  Tot: -0.40000 ]
SCF: Cycle: 14   F: -42.571122218537297   dF: -9.096e-07   |Residual|: 1.599e-04   |deigs|: 2.766e-04  t[s]:     33.46
	FillingsUpdate:  mu: -0.104897656  nElectrons: 9.000000  magneticMoment: [ Abs: 0.40062  Tot: -0.40000 ]
SCF: Cycle: 15   F: -42.571122648309206   dF: -4.298e-07   |Residual|: 1.509e-04   |deigs|: 6.502e-04  t[s]:     35.33
	FillingsUpdate:  mu: -0.104432385  nElectrons: 9.000000  magneticMoment: [ Abs: 0.40033  Tot: -0.40000 ]
SCF: Cycle: 16   F: -42.571123070704999   dF: -4.224e-07   |Residual|: 1.118e-04   |deigs|: 4.598e-04  t[s]:     37.20
	FillingsUpdate:  mu: -0.104192718  nElectrons: 9.000000  magneticMoment: [ Abs: 0.40035  Tot: -0.40000 ]
SCF: Cycle: 17   F: -42.571123243521811   dF: -1.728e-07   |Residual|: 6.996e-05   |deigs|: 2.005e-04  t[s]:     39.06
	FillingsUpdate:  mu: -0.104104964  nElectrons: 9.000000  magneticMoment: [ Abs: 0.40024  Tot: -0.40000 ]
SCF: Cycle: 18   F: -42.571123279144004   dF: -3.562e-08   |Residual|: 5.574e-05   |deigs|: 7.259e-04  t[s]:     41.05
	FillingsUpdate:  mu: -0.104036576  nElectrons: 9.000000  magneticMoment: [ Abs: 0.40027  Tot: -0.40000 ]
SCF: Cycle: 19   F: -42.571123308295725   dF: -2.915e-08   |Residual|: 2.493e-05   |deigs|: 1.253e-04  t[s]:     43.00
	FillingsUpdate:  mu: -0.104020678  nElectrons: 9.000000  magneticMoment: [ Abs: 0.40026  Tot: -0.40000 ]
SCF: Cycle: 20   F: -42.571123316096674   dF: -7.801e-09   |Residual|: 1.301e-05   |deigs|: 4.787e-05  t[s]:     44.83
	FillingsUpdate:  mu: -0.104017247  nElectrons: 9.000000  magneticMoment: [ Abs: 0.40020  Tot: -0.40000 ]
SCF: Cycle: 21   F: -42.571123317269901   dF: -1.173e-09   |Residual|: 8.477e-06   |deigs|: 7.650e-04  t[s]:     46.66
SCF: Converged (|Delta E|<1.000000e-08 for 2 iters).


# Ionic positions in lattice coordinates:
ion Na   0.000000000000000   0.000000000000000   0.000000000000000 0

# Forces in Lattice coordinates:
force Na   0.000000000000000   0.000000000000000   0.000000000000000 0

# Energy components:
   Eewald =      -18.0480261003326561
       EH =       15.7289954244137427
     Eloc =      -42.7407788249055542
      Enl =      -12.9135126638653901
   Epulay =        0.0000007725295140
      Exc =       -6.2174318142353249
       KE =       21.6196304800402501
-------------------------------------
     Etot =      -42.5711227263554193
       TS =        0.0000005909144852
-------------------------------------
        F =      -42.5711233172699011

IonicMinimize: Iter:   0  F: -42.571123317269901  |grad|_K:  0.000e+00  t[s]:     46.73
IonicMinimize: Converged (|grad|_K<1.000000e-04).

#--- Lowdin population analysis ---
# oxidation-state Na +0.051
# magnetic-moments Na -0.357

End date and time: Sat Feb  5 22:26:47 2022  (Duration: 0-0:00:46.76)
Done!
