
*************** JDFTx 1.6.0 (git hash 42ebbcc2) ***************

Start date and time: Sat Feb  5 22:25:19 2022
Executable jdftx with command-line: -i Alkali.in
Running on hosts (process indices):  d-3-7-1 (0-18)
Divided in process groups (process indices):  0 (0)  1 (1)  2 (2)  3 (3)  4 (4)  5 (5)  6 (6)  7 (7)  8 (8)  9 (9)  10 (10)  11 (11)  12 (12)  13 (13)  14 (14)  15 (15)  16 (16)  17 (17)  18 (18)
Resource initialization completed at t[s]:      0.00
Run totals: 19 processes, 48 threads, 0 GPUs


Input parsed successfully to the following command list (including defaults):

basis kpoint-dependent
coords-type Lattice
core-overlap-check vector
coulomb-interaction Slab 001
davidson-band-ratio 1.1
dump End None
dump-name $INPUT.$VAR
elec-cutoff 20
elec-eigen-algo Davidson
elec-ex-corr gga-PBE
elec-initial-magnetization -0.480000 yes
elec-smearing Fermi 1e-05
electronic-minimize  \
	dirUpdateScheme      FletcherReeves \
	linminMethod         DirUpdateRecommended \
	nIterations          100 \
	history              15 \
	knormThreshold       0 \
	energyDiffThreshold  1e-08 \
	nEnergyDiff          2 \
	alphaTstart          1 \
	alphaTmin            1e-10 \
	updateTestStepSize   yes \
	alphaTreduceFactor   0.1 \
	alphaTincreaseFactor 3 \
	nAlphaAdjustMax      3 \
	wolfeEnergy          0.0001 \
	wolfeGradient        0.9 \
	fdTest               no
electronic-scf  \
	nIterations	10000 \
	energyDiffThreshold	1e-08 \
	residualThreshold	1e-07 \
	mixFraction	0.5 \
	qMetric	0.8 \
	history	10 \
	nEigSteps	2 \
	eigDiffThreshold	1e-08 \
	mixedVariable	Density \
	qKerker	0.8 \
	qKappa	-1 \
	verbose	no \
	mixFractionMag	1.5
exchange-regularization WignerSeitzTruncated
fluid None
fluid-ex-corr (null) lda-PZ
fluid-gummel-loop 10 1.000000e-05
fluid-minimize  \
	dirUpdateScheme      PolakRibiere \
	linminMethod         DirUpdateRecommended \
	nIterations          100 \
	history              15 \
	knormThreshold       0 \
	energyDiffThreshold  0 \
	nEnergyDiff          2 \
	alphaTstart          1 \
	alphaTmin            1e-10 \
	updateTestStepSize   yes \
	alphaTreduceFactor   0.1 \
	alphaTincreaseFactor 3 \
	nAlphaAdjustMax      3 \
	wolfeEnergy          0.0001 \
	wolfeGradient        0.9 \
	fdTest               no
fluid-solvent H2O 55.338 ScalarEOS \
	epsBulk 78.4 \
	pMol 0.92466 \
	epsInf 1.77 \
	Pvap 1.06736e-10 \
	sigmaBulk 4.62e-05 \
	Rvdw 2.61727 \
	Res 1.42 \
	tauNuc 343133 \
	poleEl 15 7 1
forces-output-coords Positions
ion Na   0.000000000000000   0.000000000000000   0.000000000000000 0
ion-species SG15/$ID_ONCV_PBE.upf
ion-width 0
ionic-minimize  \
	dirUpdateScheme      L-BFGS \
	linminMethod         DirUpdateRecommended \
	nIterations          0 \
	history              15 \
	knormThreshold       0.0001 \
	energyDiffThreshold  1e-06 \
	nEnergyDiff          2 \
	alphaTstart          1 \
	alphaTmin            1e-10 \
	updateTestStepSize   yes \
	alphaTreduceFactor   0.1 \
	alphaTincreaseFactor 3 \
	nAlphaAdjustMax      3 \
	wolfeEnergy          0.0001 \
	wolfeGradient        0.9 \
	fdTest               no
kpoint   0.000000000000   0.000000000000   0.000000000000  1.00000000000000
kpoint-folding 12 12 1 
latt-move-scale 1 1 1
latt-scale 2 2 1 
lattice  \
	   4.727486978767153   -2.363743489383575    0.000000000000000  \
	  -0.000000000000000    4.094123819672498    0.000000000000000  \
	   0.000000000000000    0.000000000000000   40.000000000000000 
lattice-minimize  \
	dirUpdateScheme      L-BFGS \
	linminMethod         DirUpdateRecommended \
	nIterations          0 \
	history              15 \
	knormThreshold       0 \
	energyDiffThreshold  1e-06 \
	nEnergyDiff          2 \
	alphaTstart          1 \
	alphaTmin            1e-10 \
	updateTestStepSize   yes \
	alphaTreduceFactor   0.1 \
	alphaTincreaseFactor 3 \
	nAlphaAdjustMax      3 \
	wolfeEnergy          0.0001 \
	wolfeGradient        0.9 \
	fdTest               no
lcao-params -1 1e-06 1e-05
pcm-variant GLSSA13
spintype z-spin
subspace-rotation-factor 1 yes
symmetries automatic
symmetry-threshold 0.0001



---------- Setting up symmetries ----------

Found 24 point-group symmetries of the bravais lattice
Found 24 space-group symmetries with basis
Applied RMS atom displacement 0 bohrs to make symmetries exact.

---------- Initializing the Grid ----------
R = 
[      9.45497     -4.72749            0  ]
[            0      8.18825            0  ]
[            0            0           40  ]
unit cell volume = 3096.79
G =
[   0.664538   0.383671         -0  ]
[          0   0.767342         -0  ]
[         -0         -0    0.15708  ]
Minimum fftbox size, Smin = [  40  40  164  ]
Chosen fftbox size, S = [  40  40  168  ]

---------- Exchange Correlation functional ----------
Initalized PBE GGA exchange.
Initalized PBE GGA correlation.

---------- Setting up pseudopotentials ----------
Width of ionic core gaussian charges (only for fluid interactions / plotting) set to 0

Reading pseudopotential file '/home/gridsan/aligho/DFT/build-Nov24/pseudopotentials/SG15/Na_ONCV_PBE.upf':
  'Na' pseudopotential, 'PBE' functional
  Generated using ONCVPSP code by D. R. Hamann
  Author: Martin Schlipf and Francois Gygi  Date: 150915.
  9 valence electrons, 3 orbitals, 4 projectors, 1992 radial grid points, with lMax = 1
  Transforming local potential to a uniform radial grid of dG=0.02 with 1489 points.
  Transforming nonlocal projectors to a uniform radial grid of dG=0.02 with 432 points.
    2S    l: 0   occupation:  2.0   eigenvalue: -2.085640
    2P    l: 1   occupation:  6.0   eigenvalue: -1.053708
    3S    l: 0   occupation:  1.0   eigenvalue: -0.100838
  Transforming atomic orbitals to a uniform radial grid of dG=0.02 with 432 points.
  Core radius for overlap checks: 2.01 bohrs.
  Reading pulay file /home/gridsan/aligho/DFT/build-Nov24/pseudopotentials/SG15/Na_ONCV_PBE.pulay ... using dE_dnG = -2.946487e-03 computed for Ecut = 20.

Initialized 1 species with 1 total atoms.

Folded 1 k-points by 12x12x1 to 144 k-points.

---------- Setting up k-points, bands, fillings ----------
Reduced to 19 k-points under symmetry. 
Computing the number of bands and number of electrons
Calculating initial fillings.
nElectrons:   9.000000   nBands: 6   nStates: 38

----- Setting up reduced wavefunction bases (one per k-point) -----
average nbasis = 13230.521 , ideal nbasis = 13229.709

---------- Setting up coulomb interaction ----------
Initialized slab truncation along lattice direction 001

---------- Setting up 2D ewald sum ----------
Optimum gaussian width for ewald sums = 5.249020 bohr.
Real space sums over 289 unit cells with max indices [  8  8  0  ]
Reciprocal space sums over 81 terms with max indices [  4  4  0  ]

---------- Allocating electronic variables ----------
Initializing wave functions:  linear combination of atomic orbitals
Note: number of bands (6) exceeds available atomic orbitals (5)
Na pseudo-atom occupations:   s ( 2 1 )  p ( 6 )
	FillingsUpdate:  mu: -0.104744917  nElectrons: 9.000000  magneticMoment: [ Abs: 0.48000  Tot: -0.48000 ]
LCAOMinimize: Iter:   0  F: -42.5652911754133001  |grad|_K:  2.340e-05  alpha:  1.000e+00
	FillingsUpdate:  mu: -0.104741409  nElectrons: 9.000000  magneticMoment: [ Abs: 0.48000  Tot: -0.48000 ]
LCAOMinimize: Iter:   1  F: -42.5652915453422125  |grad|_K:  1.979e-07  alpha:  9.882e-01  linmin: -1.822e-02  cgtest:  6.510e-01  t[s]:      4.58
LCAOMinimize: Encountered beta<0, resetting CG.
	FillingsUpdate:  mu: -0.104741423  nElectrons: 9.000000  magneticMoment: [ Abs: 0.48000  Tot: -0.48000 ]
LCAOMinimize: Iter:   2  F: -42.5652915453685026  |grad|_K:  3.747e-09  alpha:  9.823e-01  linmin: -3.857e-02  cgtest:  9.992e-01  t[s]:      5.97
LCAOMinimize: Encountered beta<0, resetting CG.
LCAOMinimize: Converged (|Delta F|<1.000000e-06 for 2 iters).


---- Citations for features of the code used in this run ----

   Software package:
      R. Sundararaman, K. Letchworth-Weaver, K.A. Schwarz, D. Gunceler, Y. Ozhabes and T.A. Arias, 'JDFTx: software for joint density-functional theory', SoftwareX 6, 278 (2017)

   gga-PBE exchange-correlation functional:
      J.P. Perdew, K. Burke and M. Ernzerhof, Phys. Rev. Lett. 77, 3865 (1996)

   Pseudopotentials:
      M Schlipf and F Gygi, Comput. Phys. Commun. 196, 36 (2015)

   Truncated Coulomb potentials:
      R. Sundararaman and T.A. Arias, Phys. Rev. B 87, 165122 (2013)

This list may not be complete. Please suggest additional citations or
report any other bugs at https://github.com/shankar1729/jdftx/issues

Initialization completed successfully at t[s]:      6.04


-------- Electronic minimization -----------
Will mix electronic density at each iteration.
	FillingsUpdate:  mu: -0.104741423  nElectrons: 9.000000  magneticMoment: [ Abs: 0.48000  Tot: -0.48000 ]
	FillingsUpdate:  mu: -0.111596554  nElectrons: 9.000000  magneticMoment: [ Abs: 0.48000  Tot: -0.48000 ]
SCF: Cycle:  0   F: -42.570211402617439   dF: -4.920e-03   |Residual|: 9.618e-03   |deigs|: 1.703e-01  t[s]:      8.33
	FillingsUpdate:  mu: -0.111543397  nElectrons: 9.000000  magneticMoment: [ Abs: 0.48000  Tot: -0.48000 ]
SCF: Cycle:  1   F: -42.570337749113413   dF: -1.263e-04   |Residual|: 6.459e-03   |deigs|: 8.732e-03  t[s]:     10.12
	FillingsUpdate:  mu: -0.111321582  nElectrons: 9.000000  magneticMoment: [ Abs: 0.48135  Tot: -0.48000 ]
SCF: Cycle:  2   F: -42.570353184871934   dF: -1.544e-05   |Residual|: 3.778e-03   |deigs|: 6.730e-03  t[s]:     11.95
	FillingsUpdate:  mu: -0.111237795  nElectrons: 9.000000  magneticMoment: [ Abs: 0.48005  Tot: -0.48000 ]
SCF: Cycle:  3   F: -42.570358083049072   dF: -4.898e-06   |Residual|: 2.214e-03   |deigs|: 4.822e-03  t[s]:     13.72
	FillingsUpdate:  mu: -0.110948252  nElectrons: 9.000000  magneticMoment: [ Abs: 0.48008  Tot: -0.48000 ]
SCF: Cycle:  4   F: -42.570375514339737   dF: -1.743e-05   |Residual|: 9.720e-04   |deigs|: 3.675e-03  t[s]:     15.53
	FillingsUpdate:  mu: -0.110663785  nElectrons: 9.000000  magneticMoment: [ Abs: 0.48018  Tot: -0.48000 ]
SCF: Cycle:  5   F: -42.570377835613215   dF: -2.321e-06   |Residual|: 7.814e-04   |deigs|: 1.133e-03  t[s]:     17.34
	FillingsUpdate:  mu: -0.110003898  nElectrons: 9.000000  magneticMoment: [ Abs: 0.48079  Tot: -0.48000 ]
SCF: Cycle:  6   F: -42.570378489685375   dF: -6.541e-07   |Residual|: 5.904e-04   |deigs|: 1.889e-03  t[s]:     19.18
	FillingsUpdate:  mu: -0.109161791  nElectrons: 9.000000  magneticMoment: [ Abs: 0.48235  Tot: -0.48000 ]
SCF: Cycle:  7   F: -42.570377668250323   dF: +8.214e-07   |Residual|: 4.255e-04   |deigs|: 1.138e-03  t[s]:     21.06
	FillingsUpdate:  mu: -0.108444978  nElectrons: 9.000000  magneticMoment: [ Abs: 0.48189  Tot: -0.48000 ]
SCF: Cycle:  8   F: -42.570377099164965   dF: +5.691e-07   |Residual|: 3.586e-04   |deigs|: 9.659e-04  t[s]:     22.97
	FillingsUpdate:  mu: -0.108088215  nElectrons: 9.000000  magneticMoment: [ Abs: 0.48084  Tot: -0.48000 ]
SCF: Cycle:  9   F: -42.570378800443407   dF: -1.701e-06   |Residual|: 3.101e-04   |deigs|: 5.789e-04  t[s]:     24.90
	FillingsUpdate:  mu: -0.108083512  nElectrons: 9.000000  magneticMoment: [ Abs: 0.48112  Tot: -0.48000 ]
SCF: Cycle: 10   F: -42.570380285148389   dF: -1.485e-06   |Residual|: 2.330e-04   |deigs|: 2.099e-04  t[s]:     26.87
	FillingsUpdate:  mu: -0.107503593  nElectrons: 9.000000  magneticMoment: [ Abs: 0.48147  Tot: -0.48000 ]
SCF: Cycle: 11   F: -42.570379561543795   dF: +7.236e-07   |Residual|: 2.156e-04   |deigs|: 6.367e-04  t[s]:     28.81
	FillingsUpdate:  mu: -0.106882833  nElectrons: 9.000000  magneticMoment: [ Abs: 0.48091  Tot: -0.48000 ]
SCF: Cycle: 12   F: -42.570378697717601   dF: +8.638e-07   |Residual|: 1.967e-04   |deigs|: 6.641e-04  t[s]:     30.76
	FillingsUpdate:  mu: -0.106493628  nElectrons: 9.000000  magneticMoment: [ Abs: 0.48133  Tot: -0.48000 ]
SCF: Cycle: 13   F: -42.570379789521873   dF: -1.092e-06   |Residual|: 1.747e-04   |deigs|: 3.691e-04  t[s]:     32.76
	FillingsUpdate:  mu: -0.106181523  nElectrons: 9.000000  magneticMoment: [ Abs: 0.48121  Tot: -0.48000 ]
SCF: Cycle: 14   F: -42.570380706737389   dF: -9.172e-07   |Residual|: 1.605e-04   |deigs|: 3.247e-04  t[s]:     34.68
	FillingsUpdate:  mu: -0.105528694  nElectrons: 9.000000  magneticMoment: [ Abs: 0.48072  Tot: -0.48000 ]
SCF: Cycle: 15   F: -42.570381239565528   dF: -5.328e-07   |Residual|: 1.489e-04   |deigs|: 7.060e-04  t[s]:     36.61
	FillingsUpdate:  mu: -0.105103640  nElectrons: 9.000000  magneticMoment: [ Abs: 0.48037  Tot: -0.48000 ]
SCF: Cycle: 16   F: -42.570381624458442   dF: -3.849e-07   |Residual|: 1.157e-04   |deigs|: 4.066e-04  t[s]:     38.52
	FillingsUpdate:  mu: -0.104861122  nElectrons: 9.000000  magneticMoment: [ Abs: 0.48041  Tot: -0.48000 ]
SCF: Cycle: 17   F: -42.570381817291747   dF: -1.928e-07   |Residual|: 7.704e-05   |deigs|: 2.157e-04  t[s]:     40.51
	FillingsUpdate:  mu: -0.104751828  nElectrons: 9.000000  magneticMoment: [ Abs: 0.48025  Tot: -0.48000 ]
SCF: Cycle: 18   F: -42.570381874156865   dF: -5.687e-08   |Residual|: 6.127e-05   |deigs|: 4.306e-04  t[s]:     42.38
	FillingsUpdate:  mu: -0.104666213  nElectrons: 9.000000  magneticMoment: [ Abs: 0.48034  Tot: -0.48000 ]
SCF: Cycle: 19   F: -42.570381914482127   dF: -4.033e-08   |Residual|: 2.883e-05   |deigs|: 5.182e-04  t[s]:     44.27
	FillingsUpdate:  mu: -0.104632095  nElectrons: 9.000000  magneticMoment: [ Abs: 0.48031  Tot: -0.48000 ]
SCF: Cycle: 20   F: -42.570381923935919   dF: -9.454e-09   |Residual|: 1.574e-05   |deigs|: 3.682e-04  t[s]:     46.18
	FillingsUpdate:  mu: -0.104630160  nElectrons: 9.000000  magneticMoment: [ Abs: 0.48022  Tot: -0.48000 ]
SCF: Cycle: 21   F: -42.570381925424748   dF: -1.489e-09   |Residual|: 1.034e-05   |deigs|: 6.622e-04  t[s]:     48.10
SCF: Converged (|Delta E|<1.000000e-08 for 2 iters).


# Ionic positions in lattice coordinates:
ion Na   0.000000000000000   0.000000000000000   0.000000000000000 0

# Forces in Lattice coordinates:
force Na   0.000000000000000   0.000000000000000   0.000000000000000 0

# Energy components:
   Eewald =      -18.0480261003326561
       EH =       15.7318904877670480
     Eloc =      -42.7438225995033321
      Enl =      -12.9138149667270419
   Epulay =        0.0000007725295140
      Exc =       -6.2181353778815440
       KE =       21.6215263887877533
-------------------------------------
     Etot =      -42.5703813953602577
       TS =        0.0000005300644922
-------------------------------------
        F =      -42.5703819254247477

IonicMinimize: Iter:   0  F: -42.570381925424748  |grad|_K:  0.000e+00  t[s]:     48.17
IonicMinimize: Converged (|grad|_K<1.000000e-04).

#--- Lowdin population analysis ---
# oxidation-state Na +0.058
# magnetic-moments Na -0.428

End date and time: Sat Feb  5 22:26:08 2022  (Duration: 0-0:00:48.19)
Done!
