
*************** JDFTx 1.6.0 (git hash 42ebbcc2) ***************

Start date and time: Sat Feb  5 22:20:46 2022
Executable jdftx with command-line: -i Alkali.in
Running on hosts (process indices):  d-4-7-2 (0-18)
Divided in process groups (process indices):  0 (0)  1 (1)  2 (2)  3 (3)  4 (4)  5 (5)  6 (6)  7 (7)  8 (8)  9 (9)  10 (10)  11 (11)  12 (12)  13 (13)  14 (14)  15 (15)  16 (16)  17 (17)  18 (18)
Resource initialization completed at t[s]:      0.00
Run totals: 19 processes, 48 threads, 0 GPUs


Input parsed successfully to the following command list (including defaults):

basis kpoint-dependent
coords-type Lattice
core-overlap-check vector
coulomb-interaction Slab 001
davidson-band-ratio 1.1
dump End None
dump-name $INPUT.$VAR
elec-cutoff 20
elec-eigen-algo Davidson
elec-ex-corr gga-PBE
elec-initial-magnetization -0.900000 yes
elec-smearing Fermi 1e-05
electronic-minimize  \
	dirUpdateScheme      FletcherReeves \
	linminMethod         DirUpdateRecommended \
	nIterations          100 \
	history              15 \
	knormThreshold       0 \
	energyDiffThreshold  1e-08 \
	nEnergyDiff          2 \
	alphaTstart          1 \
	alphaTmin            1e-10 \
	updateTestStepSize   yes \
	alphaTreduceFactor   0.1 \
	alphaTincreaseFactor 3 \
	nAlphaAdjustMax      3 \
	wolfeEnergy          0.0001 \
	wolfeGradient        0.9 \
	fdTest               no
electronic-scf  \
	nIterations	10000 \
	energyDiffThreshold	1e-08 \
	residualThreshold	1e-07 \
	mixFraction	0.5 \
	qMetric	0.8 \
	history	10 \
	nEigSteps	2 \
	eigDiffThreshold	1e-08 \
	mixedVariable	Density \
	qKerker	0.8 \
	qKappa	-1 \
	verbose	no \
	mixFractionMag	1.5
exchange-regularization WignerSeitzTruncated
fluid None
fluid-ex-corr (null) lda-PZ
fluid-gummel-loop 10 1.000000e-05
fluid-minimize  \
	dirUpdateScheme      PolakRibiere \
	linminMethod         DirUpdateRecommended \
	nIterations          100 \
	history              15 \
	knormThreshold       0 \
	energyDiffThreshold  0 \
	nEnergyDiff          2 \
	alphaTstart          1 \
	alphaTmin            1e-10 \
	updateTestStepSize   yes \
	alphaTreduceFactor   0.1 \
	alphaTincreaseFactor 3 \
	nAlphaAdjustMax      3 \
	wolfeEnergy          0.0001 \
	wolfeGradient        0.9 \
	fdTest               no
fluid-solvent H2O 55.338 ScalarEOS \
	epsBulk 78.4 \
	pMol 0.92466 \
	epsInf 1.77 \
	Pvap 1.06736e-10 \
	sigmaBulk 4.62e-05 \
	Rvdw 2.61727 \
	Res 1.42 \
	tauNuc 343133 \
	poleEl 15 7 1
forces-output-coords Positions
ion Na   0.000000000000000   0.000000000000000   0.000000000000000 0
ion-species SG15/$ID_ONCV_PBE.upf
ion-width 0
ionic-minimize  \
	dirUpdateScheme      L-BFGS \
	linminMethod         DirUpdateRecommended \
	nIterations          0 \
	history              15 \
	knormThreshold       0.0001 \
	energyDiffThreshold  1e-06 \
	nEnergyDiff          2 \
	alphaTstart          1 \
	alphaTmin            1e-10 \
	updateTestStepSize   yes \
	alphaTreduceFactor   0.1 \
	alphaTincreaseFactor 3 \
	nAlphaAdjustMax      3 \
	wolfeEnergy          0.0001 \
	wolfeGradient        0.9 \
	fdTest               no
kpoint   0.000000000000   0.000000000000   0.000000000000  1.00000000000000
kpoint-folding 12 12 1 
latt-move-scale 1 1 1
latt-scale 2 2 1 
lattice  \
	   4.727486978767153   -2.363743489383575    0.000000000000000  \
	  -0.000000000000000    4.094123819672498    0.000000000000000  \
	   0.000000000000000    0.000000000000000   40.000000000000000 
lattice-minimize  \
	dirUpdateScheme      L-BFGS \
	linminMethod         DirUpdateRecommended \
	nIterations          0 \
	history              15 \
	knormThreshold       0 \
	energyDiffThreshold  1e-06 \
	nEnergyDiff          2 \
	alphaTstart          1 \
	alphaTmin            1e-10 \
	updateTestStepSize   yes \
	alphaTreduceFactor   0.1 \
	alphaTincreaseFactor 3 \
	nAlphaAdjustMax      3 \
	wolfeEnergy          0.0001 \
	wolfeGradient        0.9 \
	fdTest               no
lcao-params -1 1e-06 1e-05
pcm-variant GLSSA13
spintype z-spin
subspace-rotation-factor 1 yes
symmetries automatic
symmetry-threshold 0.0001



---------- Setting up symmetries ----------

Found 24 point-group symmetries of the bravais lattice
Found 24 space-group symmetries with basis
Applied RMS atom displacement 0 bohrs to make symmetries exact.

---------- Initializing the Grid ----------
R = 
[      9.45497     -4.72749            0  ]
[            0      8.18825            0  ]
[            0            0           40  ]
unit cell volume = 3096.79
G =
[   0.664538   0.383671         -0  ]
[          0   0.767342         -0  ]
[         -0         -0    0.15708  ]
Minimum fftbox size, Smin = [  40  40  164  ]
Chosen fftbox size, S = [  40  40  168  ]

---------- Exchange Correlation functional ----------
Initalized PBE GGA exchange.
Initalized PBE GGA correlation.

---------- Setting up pseudopotentials ----------
Width of ionic core gaussian charges (only for fluid interactions / plotting) set to 0

Reading pseudopotential file '/home/gridsan/aligho/DFT/build-Nov24/pseudopotentials/SG15/Na_ONCV_PBE.upf':
  'Na' pseudopotential, 'PBE' functional
  Generated using ONCVPSP code by D. R. Hamann
  Author: Martin Schlipf and Francois Gygi  Date: 150915.
  9 valence electrons, 3 orbitals, 4 projectors, 1992 radial grid points, with lMax = 1
  Transforming local potential to a uniform radial grid of dG=0.02 with 1489 points.
  Transforming nonlocal projectors to a uniform radial grid of dG=0.02 with 432 points.
    2S    l: 0   occupation:  2.0   eigenvalue: -2.085640
    2P    l: 1   occupation:  6.0   eigenvalue: -1.053708
    3S    l: 0   occupation:  1.0   eigenvalue: -0.100838
  Transforming atomic orbitals to a uniform radial grid of dG=0.02 with 432 points.
  Core radius for overlap checks: 2.01 bohrs.
  Reading pulay file /home/gridsan/aligho/DFT/build-Nov24/pseudopotentials/SG15/Na_ONCV_PBE.pulay ... using dE_dnG = -2.946487e-03 computed for Ecut = 20.

Initialized 1 species with 1 total atoms.

Folded 1 k-points by 12x12x1 to 144 k-points.

---------- Setting up k-points, bands, fillings ----------
Reduced to 19 k-points under symmetry. 
Computing the number of bands and number of electrons
Calculating initial fillings.
nElectrons:   9.000000   nBands: 6   nStates: 38

----- Setting up reduced wavefunction bases (one per k-point) -----
average nbasis = 13230.521 , ideal nbasis = 13229.709

---------- Setting up coulomb interaction ----------
Initialized slab truncation along lattice direction 001

---------- Setting up 2D ewald sum ----------
Optimum gaussian width for ewald sums = 5.249020 bohr.
Real space sums over 289 unit cells with max indices [  8  8  0  ]
Reciprocal space sums over 81 terms with max indices [  4  4  0  ]

---------- Allocating electronic variables ----------
Initializing wave functions:  linear combination of atomic orbitals
Note: number of bands (6) exceeds available atomic orbitals (5)
Na pseudo-atom occupations:   s ( 2 1 )  p ( 6 )
	FillingsUpdate:  mu: -0.103725163  nElectrons: 9.000000  magneticMoment: [ Abs: 0.90000  Tot: -0.90000 ]
LCAOMinimize: Iter:   0  F: -42.5574113103380682  |grad|_K:  6.449e-06  alpha:  1.000e+00
	FillingsUpdate:  mu: -0.103725054  nElectrons: 9.000000  magneticMoment: [ Abs: 0.90000  Tot: -0.90000 ]
LCAOMinimize: Iter:   1  F: -42.5574113386975554  |grad|_K:  3.526e-08  alpha:  9.969e-01  linmin: -7.208e-03  cgtest:  2.095e-01  t[s]:      4.62
LCAOMinimize: Encountered beta<0, resetting CG.
	FillingsUpdate:  mu: -0.103725062  nElectrons: 9.000000  magneticMoment: [ Abs: 0.90000  Tot: -0.90000 ]
LCAOMinimize: Iter:   2  F: -42.5574113386987349  |grad|_K:  1.063e-08  alpha:  6.956e-01  linmin: -1.184e-01  cgtest:  9.999e-01  t[s]:      5.87
LCAOMinimize: Encountered beta<0, resetting CG.
LCAOMinimize: Converged (|Delta F|<1.000000e-06 for 2 iters).


---- Citations for features of the code used in this run ----

   Software package:
      R. Sundararaman, K. Letchworth-Weaver, K.A. Schwarz, D. Gunceler, Y. Ozhabes and T.A. Arias, 'JDFTx: software for joint density-functional theory', SoftwareX 6, 278 (2017)

   gga-PBE exchange-correlation functional:
      J.P. Perdew, K. Burke and M. Ernzerhof, Phys. Rev. Lett. 77, 3865 (1996)

   Pseudopotentials:
      M Schlipf and F Gygi, Comput. Phys. Commun. 196, 36 (2015)

   Truncated Coulomb potentials:
      R. Sundararaman and T.A. Arias, Phys. Rev. B 87, 165122 (2013)

This list may not be complete. Please suggest additional citations or
report any other bugs at https://github.com/shankar1729/jdftx/issues

Initialization completed successfully at t[s]:      5.94


-------- Electronic minimization -----------
Will mix electronic density at each iteration.
	FillingsUpdate:  mu: -0.103725062  nElectrons: 9.000000  magneticMoment: [ Abs: 0.90000  Tot: -0.90000 ]
	FillingsUpdate:  mu: -0.107660759  nElectrons: 9.000000  magneticMoment: [ Abs: 0.90000  Tot: -0.90000 ]
SCF: Cycle:  0   F: -42.562777954725924   dF: -5.367e-03   |Residual|: 1.160e-02   |deigs|: 1.695e-01  t[s]:      8.17
	FillingsUpdate:  mu: -0.108042024  nElectrons: 9.000000  magneticMoment: [ Abs: 0.90015  Tot: -0.90000 ]
SCF: Cycle:  1   F: -42.563034884733099   dF: -2.569e-04   |Residual|: 7.935e-03   |deigs|: 8.990e-03  t[s]:      9.85
	FillingsUpdate:  mu: -0.107928450  nElectrons: 9.000000  magneticMoment: [ Abs: 0.90157  Tot: -0.90000 ]
SCF: Cycle:  2   F: -42.563116115904570   dF: -8.123e-05   |Residual|: 5.549e-03   |deigs|: 6.720e-03  t[s]:     11.57
	FillingsUpdate:  mu: -0.108703175  nElectrons: 9.000000  magneticMoment: [ Abs: 0.90050  Tot: -0.90000 ]
SCF: Cycle:  3   F: -42.563140980548773   dF: -2.486e-05   |Residual|: 3.229e-03   |deigs|: 5.728e-03  t[s]:     13.33
	FillingsUpdate:  mu: -0.108563986  nElectrons: 9.000000  magneticMoment: [ Abs: 0.90062  Tot: -0.90000 ]
SCF: Cycle:  4   F: -42.563158890491998   dF: -1.791e-05   |Residual|: 1.108e-03   |deigs|: 2.534e-03  t[s]:     15.03
	FillingsUpdate:  mu: -0.108260251  nElectrons: 9.000000  magneticMoment: [ Abs: 0.90077  Tot: -0.90000 ]
SCF: Cycle:  5   F: -42.563161521995774   dF: -2.632e-06   |Residual|: 8.432e-04   |deigs|: 2.166e-03  t[s]:     16.82
	FillingsUpdate:  mu: -0.107751180  nElectrons: 9.000000  magneticMoment: [ Abs: 0.90054  Tot: -0.90000 ]
SCF: Cycle:  6   F: -42.563164927491322   dF: -3.405e-06   |Residual|: 6.393e-04   |deigs|: 1.559e-03  t[s]:     18.62
	FillingsUpdate:  mu: -0.106523156  nElectrons: 9.000000  magneticMoment: [ Abs: 0.90257  Tot: -0.90000 ]
SCF: Cycle:  7   F: -42.563165238394035   dF: -3.109e-07   |Residual|: 4.699e-04   |deigs|: 1.317e-03  t[s]:     20.51
	FillingsUpdate:  mu: -0.105804120  nElectrons: 9.000000  magneticMoment: [ Abs: 0.90229  Tot: -0.90000 ]
SCF: Cycle:  8   F: -42.563164608893622   dF: +6.295e-07   |Residual|: 4.512e-04   |deigs|: 7.890e-04  t[s]:     22.37
	FillingsUpdate:  mu: -0.105524451  nElectrons: 9.000000  magneticMoment: [ Abs: 0.90118  Tot: -0.90000 ]
SCF: Cycle:  9   F: -42.563167019311898   dF: -2.410e-06   |Residual|: 3.922e-04   |deigs|: 8.121e-04  t[s]:     24.31
	FillingsUpdate:  mu: -0.105528063  nElectrons: 9.000000  magneticMoment: [ Abs: 0.90094  Tot: -0.90000 ]
SCF: Cycle: 10   F: -42.563169138910780   dF: -2.120e-06   |Residual|: 2.750e-04   |deigs|: 2.953e-04  t[s]:     26.20
	FillingsUpdate:  mu: -0.105077545  nElectrons: 9.000000  magneticMoment: [ Abs: 0.90177  Tot: -0.90000 ]
SCF: Cycle: 11   F: -42.563168998566027   dF: +1.403e-07   |Residual|: 2.196e-04   |deigs|: 4.293e-04  t[s]:     28.11
	FillingsUpdate:  mu: -0.104903655  nElectrons: 9.000000  magneticMoment: [ Abs: 0.90159  Tot: -0.90000 ]
SCF: Cycle: 12   F: -42.563169171113721   dF: -1.725e-07   |Residual|: 2.092e-04   |deigs|: 2.516e-04  t[s]:     30.03
	FillingsUpdate:  mu: -0.104587704  nElectrons: 9.000000  magneticMoment: [ Abs: 0.90182  Tot: -0.90000 ]
SCF: Cycle: 13   F: -42.563169470723437   dF: -2.996e-07   |Residual|: 2.252e-04   |deigs|: 3.956e-04  t[s]:     31.94
	FillingsUpdate:  mu: -0.104184372  nElectrons: 9.000000  magneticMoment: [ Abs: 0.90219  Tot: -0.90000 ]
SCF: Cycle: 14   F: -42.563169754703381   dF: -2.840e-07   |Residual|: 1.638e-04   |deigs|: 3.693e-04  t[s]:     33.86
	FillingsUpdate:  mu: -0.103660911  nElectrons: 9.000000  magneticMoment: [ Abs: 0.90152  Tot: -0.90000 ]
SCF: Cycle: 15   F: -42.563170219443030   dF: -4.647e-07   |Residual|: 1.424e-04   |deigs|: 5.143e-04  t[s]:     35.75
	FillingsUpdate:  mu: -0.103321952  nElectrons: 9.000000  magneticMoment: [ Abs: 0.90105  Tot: -0.90000 ]
SCF: Cycle: 16   F: -42.563170442851117   dF: -2.234e-07   |Residual|: 1.286e-04   |deigs|: 3.743e-04  t[s]:     37.62
	FillingsUpdate:  mu: -0.102889826  nElectrons: 9.000000  magneticMoment: [ Abs: 0.90112  Tot: -0.90000 ]
SCF: Cycle: 17   F: -42.563170663766670   dF: -2.209e-07   |Residual|: 1.043e-04   |deigs|: 4.186e-04  t[s]:     39.53
	FillingsUpdate:  mu: -0.102563122  nElectrons: 9.000000  magneticMoment: [ Abs: 0.90089  Tot: -0.90000 ]
SCF: Cycle: 18   F: -42.563170868538322   dF: -2.048e-07   |Residual|: 6.903e-05   |deigs|: 3.551e-04  t[s]:     41.43
	FillingsUpdate:  mu: -0.102512645  nElectrons: 9.000000  magneticMoment: [ Abs: 0.90087  Tot: -0.90000 ]
SCF: Cycle: 19   F: -42.563170942270872   dF: -7.373e-08   |Residual|: 5.064e-05   |deigs|: 7.914e-05  t[s]:     43.34
	FillingsUpdate:  mu: -0.102486126  nElectrons: 9.000000  magneticMoment: [ Abs: 0.90092  Tot: -0.90000 ]
SCF: Cycle: 20   F: -42.563170979782996   dF: -3.751e-08   |Residual|: 3.367e-05   |deigs|: 5.980e-05  t[s]:     45.18
	FillingsUpdate:  mu: -0.102446986  nElectrons: 9.000000  magneticMoment: [ Abs: 0.90088  Tot: -0.90000 ]
SCF: Cycle: 21   F: -42.563170999045376   dF: -1.926e-08   |Residual|: 1.559e-05   |deigs|: 2.029e-04  t[s]:     47.12
	FillingsUpdate:  mu: -0.102437679  nElectrons: 9.000000  magneticMoment: [ Abs: 0.90086  Tot: -0.90000 ]
SCF: Cycle: 22   F: -42.563170999159858   dF: -1.145e-10   |Residual|: 1.036e-05   |deigs|: 1.727e-04  t[s]:     49.03
	FillingsUpdate:  mu: -0.102438153  nElectrons: 9.000000  magneticMoment: [ Abs: 0.90084  Tot: -0.90000 ]
SCF: Cycle: 23   F: -42.563171003202633   dF: -4.043e-09   |Residual|: 7.915e-06   |deigs|: 9.833e-05  t[s]:     50.91
SCF: Converged (|Delta E|<1.000000e-08 for 2 iters).


# Ionic positions in lattice coordinates:
ion Na   0.000000000000000   0.000000000000000   0.000000000000000 0

# Forces in Lattice coordinates:
force Na   0.000000000000000  -0.000000000000000   0.000000000000000 0

# Energy components:
   Eewald =      -18.0480261003326561
       EH =       15.7647876659588473
     Eloc =      -42.7796037194210115
      Enl =      -12.9153271658274100
   Epulay =        0.0000007725295140
      Exc =       -6.2242909109990681
       KE =       21.6392886939874387
-------------------------------------
     Etot =      -42.5631707641043420
       TS =        0.0000002390982883
-------------------------------------
        F =      -42.5631710032026334

IonicMinimize: Iter:   0  F: -42.563171003202633  |grad|_K:  0.000e+00  t[s]:     50.98
IonicMinimize: Converged (|grad|_K<1.000000e-04).

#--- Lowdin population analysis ---
# oxidation-state Na +0.097
# magnetic-moments Na -0.804

End date and time: Sat Feb  5 22:21:37 2022  (Duration: 0-0:00:51.01)
Done!
