
*************** JDFTx 1.6.0 (git hash 42ebbcc2) ***************

Start date and time: Sat Feb  5 22:20:46 2022
Executable jdftx with command-line: -i Alkali.in
Running on hosts (process indices):  d-16-5-2 (0-18)
Divided in process groups (process indices):  0 (0)  1 (1)  2 (2)  3 (3)  4 (4)  5 (5)  6 (6)  7 (7)  8 (8)  9 (9)  10 (10)  11 (11)  12 (12)  13 (13)  14 (14)  15 (15)  16 (16)  17 (17)  18 (18)
Resource initialization completed at t[s]:      0.00
Run totals: 19 processes, 48 threads, 0 GPUs


Input parsed successfully to the following command list (including defaults):

basis kpoint-dependent
coords-type Lattice
core-overlap-check vector
coulomb-interaction Slab 001
davidson-band-ratio 1.1
dump End None
dump-name $INPUT.$VAR
elec-cutoff 20
elec-eigen-algo Davidson
elec-ex-corr gga-PBE
elec-initial-magnetization -0.680000 yes
elec-smearing Fermi 1e-05
electronic-minimize  \
	dirUpdateScheme      FletcherReeves \
	linminMethod         DirUpdateRecommended \
	nIterations          100 \
	history              15 \
	knormThreshold       0 \
	energyDiffThreshold  1e-08 \
	nEnergyDiff          2 \
	alphaTstart          1 \
	alphaTmin            1e-10 \
	updateTestStepSize   yes \
	alphaTreduceFactor   0.1 \
	alphaTincreaseFactor 3 \
	nAlphaAdjustMax      3 \
	wolfeEnergy          0.0001 \
	wolfeGradient        0.9 \
	fdTest               no
electronic-scf  \
	nIterations	10000 \
	energyDiffThreshold	1e-08 \
	residualThreshold	1e-07 \
	mixFraction	0.5 \
	qMetric	0.8 \
	history	10 \
	nEigSteps	2 \
	eigDiffThreshold	1e-08 \
	mixedVariable	Density \
	qKerker	0.8 \
	qKappa	-1 \
	verbose	no \
	mixFractionMag	1.5
exchange-regularization WignerSeitzTruncated
fluid None
fluid-ex-corr (null) lda-PZ
fluid-gummel-loop 10 1.000000e-05
fluid-minimize  \
	dirUpdateScheme      PolakRibiere \
	linminMethod         DirUpdateRecommended \
	nIterations          100 \
	history              15 \
	knormThreshold       0 \
	energyDiffThreshold  0 \
	nEnergyDiff          2 \
	alphaTstart          1 \
	alphaTmin            1e-10 \
	updateTestStepSize   yes \
	alphaTreduceFactor   0.1 \
	alphaTincreaseFactor 3 \
	nAlphaAdjustMax      3 \
	wolfeEnergy          0.0001 \
	wolfeGradient        0.9 \
	fdTest               no
fluid-solvent H2O 55.338 ScalarEOS \
	epsBulk 78.4 \
	pMol 0.92466 \
	epsInf 1.77 \
	Pvap 1.06736e-10 \
	sigmaBulk 4.62e-05 \
	Rvdw 2.61727 \
	Res 1.42 \
	tauNuc 343133 \
	poleEl 15 7 1
forces-output-coords Positions
ion Na   0.000000000000000   0.000000000000000   0.000000000000000 0
ion-species SG15/$ID_ONCV_PBE.upf
ion-width 0
ionic-minimize  \
	dirUpdateScheme      L-BFGS \
	linminMethod         DirUpdateRecommended \
	nIterations          0 \
	history              15 \
	knormThreshold       0.0001 \
	energyDiffThreshold  1e-06 \
	nEnergyDiff          2 \
	alphaTstart          1 \
	alphaTmin            1e-10 \
	updateTestStepSize   yes \
	alphaTreduceFactor   0.1 \
	alphaTincreaseFactor 3 \
	nAlphaAdjustMax      3 \
	wolfeEnergy          0.0001 \
	wolfeGradient        0.9 \
	fdTest               no
kpoint   0.000000000000   0.000000000000   0.000000000000  1.00000000000000
kpoint-folding 12 12 1 
latt-move-scale 1 1 1
latt-scale 2 2 1 
lattice  \
	   4.727486978767153   -2.363743489383575    0.000000000000000  \
	  -0.000000000000000    4.094123819672498    0.000000000000000  \
	   0.000000000000000    0.000000000000000   40.000000000000000 
lattice-minimize  \
	dirUpdateScheme      L-BFGS \
	linminMethod         DirUpdateRecommended \
	nIterations          0 \
	history              15 \
	knormThreshold       0 \
	energyDiffThreshold  1e-06 \
	nEnergyDiff          2 \
	alphaTstart          1 \
	alphaTmin            1e-10 \
	updateTestStepSize   yes \
	alphaTreduceFactor   0.1 \
	alphaTincreaseFactor 3 \
	nAlphaAdjustMax      3 \
	wolfeEnergy          0.0001 \
	wolfeGradient        0.9 \
	fdTest               no
lcao-params -1 1e-06 1e-05
pcm-variant GLSSA13
spintype z-spin
subspace-rotation-factor 1 yes
symmetries automatic
symmetry-threshold 0.0001



---------- Setting up symmetries ----------

Found 24 point-group symmetries of the bravais lattice
Found 24 space-group symmetries with basis
Applied RMS atom displacement 0 bohrs to make symmetries exact.

---------- Initializing the Grid ----------
R = 
[      9.45497     -4.72749            0  ]
[            0      8.18825            0  ]
[            0            0           40  ]
unit cell volume = 3096.79
G =
[   0.664538   0.383671         -0  ]
[          0   0.767342         -0  ]
[         -0         -0    0.15708  ]
Minimum fftbox size, Smin = [  40  40  164  ]
Chosen fftbox size, S = [  40  40  168  ]

---------- Exchange Correlation functional ----------
Initalized PBE GGA exchange.
Initalized PBE GGA correlation.

---------- Setting up pseudopotentials ----------
Width of ionic core gaussian charges (only for fluid interactions / plotting) set to 0

Reading pseudopotential file '/home/gridsan/aligho/DFT/build-Nov24/pseudopotentials/SG15/Na_ONCV_PBE.upf':
  'Na' pseudopotential, 'PBE' functional
  Generated using ONCVPSP code by D. R. Hamann
  Author: Martin Schlipf and Francois Gygi  Date: 150915.
  9 valence electrons, 3 orbitals, 4 projectors, 1992 radial grid points, with lMax = 1
  Transforming local potential to a uniform radial grid of dG=0.02 with 1489 points.
  Transforming nonlocal projectors to a uniform radial grid of dG=0.02 with 432 points.
    2S    l: 0   occupation:  2.0   eigenvalue: -2.085640
    2P    l: 1   occupation:  6.0   eigenvalue: -1.053708
    3S    l: 0   occupation:  1.0   eigenvalue: -0.100838
  Transforming atomic orbitals to a uniform radial grid of dG=0.02 with 432 points.
  Core radius for overlap checks: 2.01 bohrs.
  Reading pulay file /home/gridsan/aligho/DFT/build-Nov24/pseudopotentials/SG15/Na_ONCV_PBE.pulay ... using dE_dnG = -2.946487e-03 computed for Ecut = 20.

Initialized 1 species with 1 total atoms.

Folded 1 k-points by 12x12x1 to 144 k-points.

---------- Setting up k-points, bands, fillings ----------
Reduced to 19 k-points under symmetry. 
Computing the number of bands and number of electrons
Calculating initial fillings.
nElectrons:   9.000000   nBands: 6   nStates: 38

----- Setting up reduced wavefunction bases (one per k-point) -----
average nbasis = 13230.521 , ideal nbasis = 13229.709

---------- Setting up coulomb interaction ----------
Initialized slab truncation along lattice direction 001

---------- Setting up 2D ewald sum ----------
Optimum gaussian width for ewald sums = 5.249020 bohr.
Real space sums over 289 unit cells with max indices [  8  8  0  ]
Reciprocal space sums over 81 terms with max indices [  4  4  0  ]

---------- Allocating electronic variables ----------
Initializing wave functions:  linear combination of atomic orbitals
Note: number of bands (6) exceeds available atomic orbitals (5)
Na pseudo-atom occupations:   s ( 2 1 )  p ( 6 )
	FillingsUpdate:  mu: -0.108271341  nElectrons: 9.000000  magneticMoment: [ Abs: 0.68000  Tot: -0.68000 ]
LCAOMinimize: Iter:   0  F: -42.5620531944411837  |grad|_K:  1.747e-05  alpha:  1.000e+00
	FillingsUpdate:  mu: -0.108269645  nElectrons: 9.000000  magneticMoment: [ Abs: 0.68000  Tot: -0.68000 ]
LCAOMinimize: Iter:   1  F: -42.5620534013010783  |grad|_K:  1.316e-07  alpha:  9.914e-01  linmin: -1.741e-02  cgtest:  5.527e-01  t[s]:      4.58
LCAOMinimize: Encountered beta<0, resetting CG.
	FillingsUpdate:  mu: -0.108269667  nElectrons: 9.000000  magneticMoment: [ Abs: 0.68000  Tot: -0.68000 ]
LCAOMinimize: Iter:   2  F: -42.5620534013136478  |grad|_K:  2.427e-09  alpha:  9.824e-01  linmin: -6.318e-02  cgtest:  9.854e-01  t[s]:      5.79
LCAOMinimize: Encountered beta<0, resetting CG.
LCAOMinimize: Converged (|Delta F|<1.000000e-06 for 2 iters).


---- Citations for features of the code used in this run ----

   Software package:
      R. Sundararaman, K. Letchworth-Weaver, K.A. Schwarz, D. Gunceler, Y. Ozhabes and T.A. Arias, 'JDFTx: software for joint density-functional theory', SoftwareX 6, 278 (2017)

   gga-PBE exchange-correlation functional:
      J.P. Perdew, K. Burke and M. Ernzerhof, Phys. Rev. Lett. 77, 3865 (1996)

   Pseudopotentials:
      M Schlipf and F Gygi, Comput. Phys. Commun. 196, 36 (2015)

   Truncated Coulomb potentials:
      R. Sundararaman and T.A. Arias, Phys. Rev. B 87, 165122 (2013)

This list may not be complete. Please suggest additional citations or
report any other bugs at https://github.com/shankar1729/jdftx/issues

Initialization completed successfully at t[s]:      5.86


-------- Electronic minimization -----------
Will mix electronic density at each iteration.
	FillingsUpdate:  mu: -0.108269667  nElectrons: 9.000000  magneticMoment: [ Abs: 0.68000  Tot: -0.68000 ]
	FillingsUpdate:  mu: -0.112256666  nElectrons: 9.000000  magneticMoment: [ Abs: 0.68000  Tot: -0.68000 ]
SCF: Cycle:  0   F: -42.567356338746762   dF: -5.303e-03   |Residual|: 1.096e-02   |deigs|: 1.699e-01  t[s]:      8.08
	FillingsUpdate:  mu: -0.112271664  nElectrons: 9.000000  magneticMoment: [ Abs: 0.68000  Tot: -0.68000 ]
SCF: Cycle:  1   F: -42.567578100947166   dF: -2.218e-04   |Residual|: 7.460e-03   |deigs|: 8.753e-03  t[s]:      9.78
	FillingsUpdate:  mu: -0.112295312  nElectrons: 9.000000  magneticMoment: [ Abs: 0.68138  Tot: -0.68000 ]
SCF: Cycle:  2   F: -42.567617692221802   dF: -3.959e-05   |Residual|: 4.759e-03   |deigs|: 6.790e-03  t[s]:     11.48
	FillingsUpdate:  mu: -0.112053654  nElectrons: 9.000000  magneticMoment: [ Abs: 0.68015  Tot: -0.68000 ]
SCF: Cycle:  3   F: -42.567619995697626   dF: -2.303e-06   |Residual|: 2.736e-03   |deigs|: 5.480e-03  t[s]:     13.25
	FillingsUpdate:  mu: -0.111969931  nElectrons: 9.000000  magneticMoment: [ Abs: 0.68018  Tot: -0.68000 ]
SCF: Cycle:  4   F: -42.567645562786375   dF: -2.557e-05   |Residual|: 1.082e-03   |deigs|: 1.330e-03  t[s]:     15.06
	FillingsUpdate:  mu: -0.111792068  nElectrons: 9.000000  magneticMoment: [ Abs: 0.68032  Tot: -0.68000 ]
SCF: Cycle:  5   F: -42.567649895548335   dF: -4.333e-06   |Residual|: 8.327e-04   |deigs|: 3.769e-03  t[s]:     16.93
	FillingsUpdate:  mu: -0.111181622  nElectrons: 9.000000  magneticMoment: [ Abs: 0.68056  Tot: -0.68000 ]
SCF: Cycle:  6   F: -42.567651441809566   dF: -1.546e-06   |Residual|: 6.244e-04   |deigs|: 1.281e-03  t[s]:     18.77
	FillingsUpdate:  mu: -0.110353713  nElectrons: 9.000000  magneticMoment: [ Abs: 0.68230  Tot: -0.68000 ]
SCF: Cycle:  7   F: -42.567650740101733   dF: +7.017e-07   |Residual|: 4.561e-04   |deigs|: 1.062e-03  t[s]:     20.60
	FillingsUpdate:  mu: -0.109543881  nElectrons: 9.000000  magneticMoment: [ Abs: 0.68225  Tot: -0.68000 ]
SCF: Cycle:  8   F: -42.567650228795294   dF: +5.113e-07   |Residual|: 3.806e-04   |deigs|: 1.044e-03  t[s]:     22.48
	FillingsUpdate:  mu: -0.109120339  nElectrons: 9.000000  magneticMoment: [ Abs: 0.68109  Tot: -0.68000 ]
SCF: Cycle:  9   F: -42.567652078033575   dF: -1.849e-06   |Residual|: 3.320e-04   |deigs|: 5.430e-04  t[s]:     24.43
	FillingsUpdate:  mu: -0.109155951  nElectrons: 9.000000  magneticMoment: [ Abs: 0.68089  Tot: -0.68000 ]
SCF: Cycle: 10   F: -42.567653302122054   dF: -1.224e-06   |Residual|: 2.259e-04   |deigs|: 2.297e-04  t[s]:     26.36
	FillingsUpdate:  mu: -0.108566876  nElectrons: 9.000000  magneticMoment: [ Abs: 0.68156  Tot: -0.68000 ]
SCF: Cycle: 11   F: -42.567653006547438   dF: +2.956e-07   |Residual|: 2.158e-04   |deigs|: 6.861e-04  t[s]:     28.30
	FillingsUpdate:  mu: -0.108037494  nElectrons: 9.000000  magneticMoment: [ Abs: 0.68109  Tot: -0.68000 ]
SCF: Cycle: 12   F: -42.567652256202997   dF: +7.503e-07   |Residual|: 1.971e-04   |deigs|: 5.523e-04  t[s]:     30.33
	FillingsUpdate:  mu: -0.107748106  nElectrons: 9.000000  magneticMoment: [ Abs: 0.68147  Tot: -0.68000 ]
SCF: Cycle: 13   F: -42.567653176115364   dF: -9.199e-07   |Residual|: 1.748e-04   |deigs|: 2.975e-04  t[s]:     32.23
	FillingsUpdate:  mu: -0.107381063  nElectrons: 9.000000  magneticMoment: [ Abs: 0.68159  Tot: -0.68000 ]
SCF: Cycle: 14   F: -42.567654020009051   dF: -8.439e-07   |Residual|: 1.581e-04   |deigs|: 3.962e-04  t[s]:     34.15
	FillingsUpdate:  mu: -0.106728457  nElectrons: 9.000000  magneticMoment: [ Abs: 0.68102  Tot: -0.68000 ]
SCF: Cycle: 15   F: -42.567654517133441   dF: -4.971e-07   |Residual|: 1.501e-04   |deigs|: 7.085e-04  t[s]:     36.02
	FillingsUpdate:  mu: -0.106313432  nElectrons: 9.000000  magneticMoment: [ Abs: 0.68069  Tot: -0.68000 ]
SCF: Cycle: 16   F: -42.567654819869531   dF: -3.027e-07   |Residual|: 1.256e-04   |deigs|: 3.965e-04  t[s]:     37.96
	FillingsUpdate:  mu: -0.106047953  nElectrons: 9.000000  magneticMoment: [ Abs: 0.68060  Tot: -0.68000 ]
SCF: Cycle: 17   F: -42.567655071300855   dF: -2.514e-07   |Residual|: 8.201e-05   |deigs|: 2.272e-04  t[s]:     39.91
	FillingsUpdate:  mu: -0.105871504  nElectrons: 9.000000  magneticMoment: [ Abs: 0.68039  Tot: -0.68000 ]
SCF: Cycle: 18   F: -42.567655166576557   dF: -9.528e-08   |Residual|: 6.435e-05   |deigs|: 4.650e-04  t[s]:     41.80
	FillingsUpdate:  mu: -0.105765972  nElectrons: 9.000000  magneticMoment: [ Abs: 0.68043  Tot: -0.68000 ]
SCF: Cycle: 19   F: -42.567655218087928   dF: -5.151e-08   |Residual|: 3.691e-05   |deigs|: 7.204e-04  t[s]:     43.70
	FillingsUpdate:  mu: -0.105726416  nElectrons: 9.000000  magneticMoment: [ Abs: 0.68049  Tot: -0.68000 ]
SCF: Cycle: 20   F: -42.567655233040362   dF: -1.495e-08   |Residual|: 2.169e-05   |deigs|: 8.034e-05  t[s]:     45.63
	FillingsUpdate:  mu: -0.105722231  nElectrons: 9.000000  magneticMoment: [ Abs: 0.68042  Tot: -0.68000 ]
SCF: Cycle: 21   F: -42.567655237591666   dF: -4.551e-09   |Residual|: 1.375e-05   |deigs|: 6.457e-04  t[s]:     47.52
	FillingsUpdate:  mu: -0.105727266  nElectrons: 9.000000  magneticMoment: [ Abs: 0.68037  Tot: -0.68000 ]
SCF: Cycle: 22   F: -42.567655240439528   dF: -2.848e-09   |Residual|: 9.719e-06   |deigs|: 1.242e-04  t[s]:     49.45
SCF: Converged (|Delta E|<1.000000e-08 for 2 iters).


# Ionic positions in lattice coordinates:
ion Na   0.000000000000000   0.000000000000000   0.000000000000000 0

# Forces in Lattice coordinates:
force Na   0.000000000000000  -0.000000000000000   0.000000000000000 0

# Energy components:
   Eewald =      -18.0480261003326561
       EH =       15.7432519335582395
     Eloc =      -42.7560084507774434
      Enl =      -12.9145865489848823
   Epulay =        0.0000007725295140
      Exc =       -6.2205340150633823
       KE =       21.6282477195811538
-------------------------------------
     Etot =      -42.5676546894894585
       TS =        0.0000005509500668
-------------------------------------
        F =      -42.5676552404395281

IonicMinimize: Iter:   0  F: -42.567655240439528  |grad|_K:  0.000e+00  t[s]:     49.52
IonicMinimize: Converged (|grad|_K<1.000000e-04).

#--- Lowdin population analysis ---
# oxidation-state Na +0.078
# magnetic-moments Na -0.605

End date and time: Sat Feb  5 22:21:36 2022  (Duration: 0-0:00:49.54)
Done!
