
*************** JDFTx 1.6.0 (git hash 42ebbcc2) ***************

Start date and time: Sat Feb  5 22:20:48 2022
Executable jdftx with command-line: -i Alkali.in
Running on hosts (process indices):  d-16-13-1 (0-18)
Divided in process groups (process indices):  0 (0)  1 (1)  2 (2)  3 (3)  4 (4)  5 (5)  6 (6)  7 (7)  8 (8)  9 (9)  10 (10)  11 (11)  12 (12)  13 (13)  14 (14)  15 (15)  16 (16)  17 (17)  18 (18)
Resource initialization completed at t[s]:      0.00
Run totals: 19 processes, 48 threads, 0 GPUs


Input parsed successfully to the following command list (including defaults):

basis kpoint-dependent
coords-type Lattice
core-overlap-check vector
coulomb-interaction Slab 001
davidson-band-ratio 1.1
dump End None
dump-name $INPUT.$VAR
elec-cutoff 20
elec-eigen-algo Davidson
elec-ex-corr gga-PBE
elec-initial-magnetization -0.600000 yes
elec-smearing Fermi 1e-05
electronic-minimize  \
	dirUpdateScheme      FletcherReeves \
	linminMethod         DirUpdateRecommended \
	nIterations          100 \
	history              15 \
	knormThreshold       0 \
	energyDiffThreshold  1e-08 \
	nEnergyDiff          2 \
	alphaTstart          1 \
	alphaTmin            1e-10 \
	updateTestStepSize   yes \
	alphaTreduceFactor   0.1 \
	alphaTincreaseFactor 3 \
	nAlphaAdjustMax      3 \
	wolfeEnergy          0.0001 \
	wolfeGradient        0.9 \
	fdTest               no
electronic-scf  \
	nIterations	10000 \
	energyDiffThreshold	1e-08 \
	residualThreshold	1e-07 \
	mixFraction	0.5 \
	qMetric	0.8 \
	history	10 \
	nEigSteps	2 \
	eigDiffThreshold	1e-08 \
	mixedVariable	Density \
	qKerker	0.8 \
	qKappa	-1 \
	verbose	no \
	mixFractionMag	1.5
exchange-regularization WignerSeitzTruncated
fluid None
fluid-ex-corr (null) lda-PZ
fluid-gummel-loop 10 1.000000e-05
fluid-minimize  \
	dirUpdateScheme      PolakRibiere \
	linminMethod         DirUpdateRecommended \
	nIterations          100 \
	history              15 \
	knormThreshold       0 \
	energyDiffThreshold  0 \
	nEnergyDiff          2 \
	alphaTstart          1 \
	alphaTmin            1e-10 \
	updateTestStepSize   yes \
	alphaTreduceFactor   0.1 \
	alphaTincreaseFactor 3 \
	nAlphaAdjustMax      3 \
	wolfeEnergy          0.0001 \
	wolfeGradient        0.9 \
	fdTest               no
fluid-solvent H2O 55.338 ScalarEOS \
	epsBulk 78.4 \
	pMol 0.92466 \
	epsInf 1.77 \
	Pvap 1.06736e-10 \
	sigmaBulk 4.62e-05 \
	Rvdw 2.61727 \
	Res 1.42 \
	tauNuc 343133 \
	poleEl 15 7 1
forces-output-coords Positions
ion Na   0.000000000000000   0.000000000000000   0.000000000000000 0
ion-species SG15/$ID_ONCV_PBE.upf
ion-width 0
ionic-minimize  \
	dirUpdateScheme      L-BFGS \
	linminMethod         DirUpdateRecommended \
	nIterations          0 \
	history              15 \
	knormThreshold       0.0001 \
	energyDiffThreshold  1e-06 \
	nEnergyDiff          2 \
	alphaTstart          1 \
	alphaTmin            1e-10 \
	updateTestStepSize   yes \
	alphaTreduceFactor   0.1 \
	alphaTincreaseFactor 3 \
	nAlphaAdjustMax      3 \
	wolfeEnergy          0.0001 \
	wolfeGradient        0.9 \
	fdTest               no
kpoint   0.000000000000   0.000000000000   0.000000000000  1.00000000000000
kpoint-folding 12 12 1 
latt-move-scale 1 1 1
latt-scale 2 2 1 
lattice  \
	   4.727486978767153   -2.363743489383575    0.000000000000000  \
	  -0.000000000000000    4.094123819672498    0.000000000000000  \
	   0.000000000000000    0.000000000000000   40.000000000000000 
lattice-minimize  \
	dirUpdateScheme      L-BFGS \
	linminMethod         DirUpdateRecommended \
	nIterations          0 \
	history              15 \
	knormThreshold       0 \
	energyDiffThreshold  1e-06 \
	nEnergyDiff          2 \
	alphaTstart          1 \
	alphaTmin            1e-10 \
	updateTestStepSize   yes \
	alphaTreduceFactor   0.1 \
	alphaTincreaseFactor 3 \
	nAlphaAdjustMax      3 \
	wolfeEnergy          0.0001 \
	wolfeGradient        0.9 \
	fdTest               no
lcao-params -1 1e-06 1e-05
pcm-variant GLSSA13
spintype z-spin
subspace-rotation-factor 1 yes
symmetries automatic
symmetry-threshold 0.0001



---------- Setting up symmetries ----------

Found 24 point-group symmetries of the bravais lattice
Found 24 space-group symmetries with basis
Applied RMS atom displacement 0 bohrs to make symmetries exact.

---------- Initializing the Grid ----------
R = 
[      9.45497     -4.72749            0  ]
[            0      8.18825            0  ]
[            0            0           40  ]
unit cell volume = 3096.79
G =
[   0.664538   0.383671         -0  ]
[          0   0.767342         -0  ]
[         -0         -0    0.15708  ]
Minimum fftbox size, Smin = [  40  40  164  ]
Chosen fftbox size, S = [  40  40  168  ]

---------- Exchange Correlation functional ----------
Initalized PBE GGA exchange.
Initalized PBE GGA correlation.

---------- Setting up pseudopotentials ----------
Width of ionic core gaussian charges (only for fluid interactions / plotting) set to 0

Reading pseudopotential file '/home/gridsan/aligho/DFT/build-Nov24/pseudopotentials/SG15/Na_ONCV_PBE.upf':
  'Na' pseudopotential, 'PBE' functional
  Generated using ONCVPSP code by D. R. Hamann
  Author: Martin Schlipf and Francois Gygi  Date: 150915.
  9 valence electrons, 3 orbitals, 4 projectors, 1992 radial grid points, with lMax = 1
  Transforming local potential to a uniform radial grid of dG=0.02 with 1489 points.
  Transforming nonlocal projectors to a uniform radial grid of dG=0.02 with 432 points.
    2S    l: 0   occupation:  2.0   eigenvalue: -2.085640
    2P    l: 1   occupation:  6.0   eigenvalue: -1.053708
    3S    l: 0   occupation:  1.0   eigenvalue: -0.100838
  Transforming atomic orbitals to a uniform radial grid of dG=0.02 with 432 points.
  Core radius for overlap checks: 2.01 bohrs.
  Reading pulay file /home/gridsan/aligho/DFT/build-Nov24/pseudopotentials/SG15/Na_ONCV_PBE.pulay ... using dE_dnG = -2.946487e-03 computed for Ecut = 20.

Initialized 1 species with 1 total atoms.

Folded 1 k-points by 12x12x1 to 144 k-points.

---------- Setting up k-points, bands, fillings ----------
Reduced to 19 k-points under symmetry. 
Computing the number of bands and number of electrons
Calculating initial fillings.
nElectrons:   9.000000   nBands: 6   nStates: 38

----- Setting up reduced wavefunction bases (one per k-point) -----
average nbasis = 13230.521 , ideal nbasis = 13229.709

---------- Setting up coulomb interaction ----------
Initialized slab truncation along lattice direction 001

---------- Setting up 2D ewald sum ----------
Optimum gaussian width for ewald sums = 5.249020 bohr.
Real space sums over 289 unit cells with max indices [  8  8  0  ]
Reciprocal space sums over 81 terms with max indices [  4  4  0  ]

---------- Allocating electronic variables ----------
Initializing wave functions:  linear combination of atomic orbitals
Note: number of bands (6) exceeds available atomic orbitals (5)
Na pseudo-atom occupations:   s ( 2 1 )  p ( 6 )
	FillingsUpdate:  mu: -0.108953771  nElectrons: 9.000000  magneticMoment: [ Abs: 0.60000  Tot: -0.60000 ]
LCAOMinimize: Iter:   0  F: -42.5633813193955532  |grad|_K:  1.990e-05  alpha:  1.000e+00
	FillingsUpdate:  mu: -0.108951467  nElectrons: 9.000000  magneticMoment: [ Abs: 0.60000  Tot: -0.60000 ]
LCAOMinimize: Iter:   1  F: -42.5633815874496193  |grad|_K:  1.583e-07  alpha:  9.899e-01  linmin: -1.770e-02  cgtest:  5.971e-01  t[s]:      4.94
LCAOMinimize: Encountered beta<0, resetting CG.
	FillingsUpdate:  mu: -0.108951488  nElectrons: 9.000000  magneticMoment: [ Abs: 0.60000  Tot: -0.60000 ]
LCAOMinimize: Iter:   2  F: -42.5633815874662957  |grad|_K:  7.886e-09  alpha:  9.512e-01  linmin: -4.955e-02  cgtest:  9.993e-01  t[s]:      6.25
LCAOMinimize: Encountered beta<0, resetting CG.
LCAOMinimize: Converged (|Delta F|<1.000000e-06 for 2 iters).


---- Citations for features of the code used in this run ----

   Software package:
      R. Sundararaman, K. Letchworth-Weaver, K.A. Schwarz, D. Gunceler, Y. Ozhabes and T.A. Arias, 'JDFTx: software for joint density-functional theory', SoftwareX 6, 278 (2017)

   gga-PBE exchange-correlation functional:
      J.P. Perdew, K. Burke and M. Ernzerhof, Phys. Rev. Lett. 77, 3865 (1996)

   Pseudopotentials:
      M Schlipf and F Gygi, Comput. Phys. Commun. 196, 36 (2015)

   Truncated Coulomb potentials:
      R. Sundararaman and T.A. Arias, Phys. Rev. B 87, 165122 (2013)

This list may not be complete. Please suggest additional citations or
report any other bugs at https://github.com/shankar1729/jdftx/issues

Initialization completed successfully at t[s]:      6.32


-------- Electronic minimization -----------
Will mix electronic density at each iteration.
	FillingsUpdate:  mu: -0.108951488  nElectrons: 9.000000  magneticMoment: [ Abs: 0.60000  Tot: -0.60000 ]
	FillingsUpdate:  mu: -0.112964306  nElectrons: 9.000000  magneticMoment: [ Abs: 0.60000  Tot: -0.60000 ]
SCF: Cycle:  0   F: -42.568552671614825   dF: -5.171e-03   |Residual|: 1.047e-02   |deigs|: 1.701e-01  t[s]:      8.59
	FillingsUpdate:  mu: -0.112889210  nElectrons: 9.000000  magneticMoment: [ Abs: 0.60000  Tot: -0.60000 ]
SCF: Cycle:  1   F: -42.568734064095310   dF: -1.814e-04   |Residual|: 7.069e-03   |deigs|: 8.722e-03  t[s]:     10.30
	FillingsUpdate:  mu: -0.112557334  nElectrons: 9.000000  magneticMoment: [ Abs: 0.60137  Tot: -0.60000 ]
SCF: Cycle:  2   F: -42.568753978330072   dF: -1.991e-05   |Residual|: 4.312e-03   |deigs|: 6.748e-03  t[s]:     12.02
	FillingsUpdate:  mu: -0.112535541  nElectrons: 9.000000  magneticMoment: [ Abs: 0.60009  Tot: -0.60000 ]
SCF: Cycle:  3   F: -42.568759377240397   dF: -5.399e-06   |Residual|: 2.528e-03   |deigs|: 5.111e-03  t[s]:     13.75
	FillingsUpdate:  mu: -0.112459663  nElectrons: 9.000000  magneticMoment: [ Abs: 0.60013  Tot: -0.60000 ]
SCF: Cycle:  4   F: -42.568786430219554   dF: -2.705e-05   |Residual|: 1.040e-03   |deigs|: 1.871e-03  t[s]:     15.53
	FillingsUpdate:  mu: -0.112252841  nElectrons: 9.000000  magneticMoment: [ Abs: 0.60024  Tot: -0.60000 ]
SCF: Cycle:  5   F: -42.568790200013417   dF: -3.770e-06   |Residual|: 8.136e-04   |deigs|: 2.974e-03  t[s]:     17.33
	FillingsUpdate:  mu: -0.111646947  nElectrons: 9.000000  magneticMoment: [ Abs: 0.60063  Tot: -0.60000 ]
SCF: Cycle:  6   F: -42.568791454892448   dF: -1.255e-06   |Residual|: 6.105e-04   |deigs|: 1.251e-03  t[s]:     19.14
	FillingsUpdate:  mu: -0.110831230  nElectrons: 9.000000  magneticMoment: [ Abs: 0.60236  Tot: -0.60000 ]
SCF: Cycle:  7   F: -42.568790839082119   dF: +6.158e-07   |Residual|: 4.449e-04   |deigs|: 1.082e-03  t[s]:     20.99
	FillingsUpdate:  mu: -0.110037200  nElectrons: 9.000000  magneticMoment: [ Abs: 0.60217  Tot: -0.60000 ]
SCF: Cycle:  8   F: -42.568789952166959   dF: +8.869e-07   |Residual|: 3.686e-04   |deigs|: 1.067e-03  t[s]:     22.90
	FillingsUpdate:  mu: -0.109622131  nElectrons: 9.000000  magneticMoment: [ Abs: 0.60109  Tot: -0.60000 ]
SCF: Cycle:  9   F: -42.568791751818061   dF: -1.800e-06   |Residual|: 3.271e-04   |deigs|: 5.429e-04  t[s]:     24.81
	FillingsUpdate:  mu: -0.109678624  nElectrons: 9.000000  magneticMoment: [ Abs: 0.60094  Tot: -0.60000 ]
SCF: Cycle: 10   F: -42.568793170527101   dF: -1.419e-06   |Residual|: 2.282e-04   |deigs|: 2.463e-04  t[s]:     26.76
	FillingsUpdate:  mu: -0.109082243  nElectrons: 9.000000  magneticMoment: [ Abs: 0.60155  Tot: -0.60000 ]
SCF: Cycle: 11   F: -42.568792817952101   dF: +3.526e-07   |Residual|: 2.151e-04   |deigs|: 6.681e-04  t[s]:     28.66
	FillingsUpdate:  mu: -0.108504790  nElectrons: 9.000000  magneticMoment: [ Abs: 0.60105  Tot: -0.60000 ]
SCF: Cycle: 12   F: -42.568791939884598   dF: +8.781e-07   |Residual|: 1.970e-04   |deigs|: 6.160e-04  t[s]:     30.56
	FillingsUpdate:  mu: -0.108195330  nElectrons: 9.000000  magneticMoment: [ Abs: 0.60130  Tot: -0.60000 ]
SCF: Cycle: 13   F: -42.568792872975358   dF: -9.331e-07   |Residual|: 1.756e-04   |deigs|: 2.926e-04  t[s]:     32.48
	FillingsUpdate:  mu: -0.107850118  nElectrons: 9.000000  magneticMoment: [ Abs: 0.60136  Tot: -0.60000 ]
SCF: Cycle: 14   F: -42.568793794389308   dF: -9.214e-07   |Residual|: 1.612e-04   |deigs|: 3.647e-04  t[s]:     34.39
	FillingsUpdate:  mu: -0.107146132  nElectrons: 9.000000  magneticMoment: [ Abs: 0.60093  Tot: -0.60000 ]
SCF: Cycle: 15   F: -42.568794294868930   dF: -5.005e-07   |Residual|: 1.469e-04   |deigs|: 7.578e-04  t[s]:     36.28
	FillingsUpdate:  mu: -0.106729253  nElectrons: 9.000000  magneticMoment: [ Abs: 0.60052  Tot: -0.60000 ]
SCF: Cycle: 16   F: -42.568794654872150   dF: -3.600e-07   |Residual|: 1.215e-04   |deigs|: 3.920e-04  t[s]:     38.19
	FillingsUpdate:  mu: -0.106534827  nElectrons: 9.000000  magneticMoment: [ Abs: 0.60051  Tot: -0.60000 ]
SCF: Cycle: 17   F: -42.568794856941665   dF: -2.021e-07   |Residual|: 8.455e-05   |deigs|: 1.604e-04  t[s]:     40.10
	FillingsUpdate:  mu: -0.106362250  nElectrons: 9.000000  magneticMoment: [ Abs: 0.60030  Tot: -0.60000 ]
SCF: Cycle: 18   F: -42.568794952030110   dF: -9.509e-08   |Residual|: 6.452e-05   |deigs|: 5.501e-04  t[s]:     42.01
	FillingsUpdate:  mu: -0.106240460  nElectrons: 9.000000  magneticMoment: [ Abs: 0.60039  Tot: -0.60000 ]
SCF: Cycle: 19   F: -42.568795005080965   dF: -5.305e-08   |Residual|: 3.342e-05   |deigs|: 4.301e-04  t[s]:     43.93
	FillingsUpdate:  mu: -0.106209200  nElectrons: 9.000000  magneticMoment: [ Abs: 0.60040  Tot: -0.60000 ]
SCF: Cycle: 20   F: -42.568795015489904   dF: -1.041e-08   |Residual|: 2.029e-05   |deigs|: 8.731e-05  t[s]:     45.79
	FillingsUpdate:  mu: -0.106203851  nElectrons: 9.000000  magneticMoment: [ Abs: 0.60031  Tot: -0.60000 ]
SCF: Cycle: 21   F: -42.568795018509540   dF: -3.020e-09   |Residual|: 1.234e-05   |deigs|: 2.203e-04  t[s]:     47.68
	FillingsUpdate:  mu: -0.106206689  nElectrons: 9.000000  magneticMoment: [ Abs: 0.60028  Tot: -0.60000 ]
SCF: Cycle: 22   F: -42.568795021186297   dF: -2.677e-09   |Residual|: 8.002e-06   |deigs|: 2.353e-04  t[s]:     49.66
SCF: Converged (|Delta E|<1.000000e-08 for 2 iters).


# Ionic positions in lattice coordinates:
ion Na   0.000000000000000   0.000000000000000   0.000000000000000 0

# Forces in Lattice coordinates:
force Na   0.000000000000000  -0.000000000000000   0.000000000000000 0

# Energy components:
   Eewald =      -18.0480261003326561
       EH =       15.7381708642926572
     Eloc =      -42.7505540048855579
      Enl =      -12.9142574613008545
   Epulay =        0.0000007725295140
      Exc =       -6.2194757000675196
       KE =       21.6253475827464996
-------------------------------------
     Etot =      -42.5687940470179313
       TS =        0.0000009741683674
-------------------------------------
        F =      -42.5687950211862969

IonicMinimize: Iter:   0  F: -42.568795021186297  |grad|_K:  0.000e+00  t[s]:     49.73
IonicMinimize: Converged (|grad|_K<1.000000e-04).

#--- Lowdin population analysis ---
# oxidation-state Na +0.070
# magnetic-moments Na -0.534

End date and time: Sat Feb  5 22:21:37 2022  (Duration: 0-0:00:49.76)
Done!
