
*************** JDFTx 1.6.0 (git hash 42ebbcc2) ***************

Start date and time: Sat Feb  5 22:34:00 2022
Executable jdftx with command-line: -i Alkali.in
Running on hosts (process indices):  d-6-4-1 (0-18)
Divided in process groups (process indices):  0 (0)  1 (1)  2 (2)  3 (3)  4 (4)  5 (5)  6 (6)  7 (7)  8 (8)  9 (9)  10 (10)  11 (11)  12 (12)  13 (13)  14 (14)  15 (15)  16 (16)  17 (17)  18 (18)
Resource initialization completed at t[s]:      0.00
Run totals: 19 processes, 48 threads, 0 GPUs


Input parsed successfully to the following command list (including defaults):

basis kpoint-dependent
coords-type Lattice
core-overlap-check vector
coulomb-interaction Slab 001
davidson-band-ratio 1.1
dump End None
dump-name $INPUT.$VAR
elec-cutoff 20
elec-eigen-algo Davidson
elec-ex-corr gga-PBE
elec-initial-magnetization 0.800000 yes
elec-smearing Fermi 1e-05
electronic-minimize  \
	dirUpdateScheme      FletcherReeves \
	linminMethod         DirUpdateRecommended \
	nIterations          100 \
	history              15 \
	knormThreshold       0 \
	energyDiffThreshold  1e-08 \
	nEnergyDiff          2 \
	alphaTstart          1 \
	alphaTmin            1e-10 \
	updateTestStepSize   yes \
	alphaTreduceFactor   0.1 \
	alphaTincreaseFactor 3 \
	nAlphaAdjustMax      3 \
	wolfeEnergy          0.0001 \
	wolfeGradient        0.9 \
	fdTest               no
electronic-scf  \
	nIterations	10000 \
	energyDiffThreshold	1e-08 \
	residualThreshold	1e-07 \
	mixFraction	0.5 \
	qMetric	0.8 \
	history	10 \
	nEigSteps	2 \
	eigDiffThreshold	1e-08 \
	mixedVariable	Density \
	qKerker	0.8 \
	qKappa	-1 \
	verbose	no \
	mixFractionMag	1.5
exchange-regularization WignerSeitzTruncated
fluid None
fluid-ex-corr (null) lda-PZ
fluid-gummel-loop 10 1.000000e-05
fluid-minimize  \
	dirUpdateScheme      PolakRibiere \
	linminMethod         DirUpdateRecommended \
	nIterations          100 \
	history              15 \
	knormThreshold       0 \
	energyDiffThreshold  0 \
	nEnergyDiff          2 \
	alphaTstart          1 \
	alphaTmin            1e-10 \
	updateTestStepSize   yes \
	alphaTreduceFactor   0.1 \
	alphaTincreaseFactor 3 \
	nAlphaAdjustMax      3 \
	wolfeEnergy          0.0001 \
	wolfeGradient        0.9 \
	fdTest               no
fluid-solvent H2O 55.338 ScalarEOS \
	epsBulk 78.4 \
	pMol 0.92466 \
	epsInf 1.77 \
	Pvap 1.06736e-10 \
	sigmaBulk 4.62e-05 \
	Rvdw 2.61727 \
	Res 1.42 \
	tauNuc 343133 \
	poleEl 15 7 1
forces-output-coords Positions
ion Na   0.000000000000000   0.000000000000000   0.000000000000000 0
ion-species SG15/$ID_ONCV_PBE.upf
ion-width 0
ionic-minimize  \
	dirUpdateScheme      L-BFGS \
	linminMethod         DirUpdateRecommended \
	nIterations          0 \
	history              15 \
	knormThreshold       0.0001 \
	energyDiffThreshold  1e-06 \
	nEnergyDiff          2 \
	alphaTstart          1 \
	alphaTmin            1e-10 \
	updateTestStepSize   yes \
	alphaTreduceFactor   0.1 \
	alphaTincreaseFactor 3 \
	nAlphaAdjustMax      3 \
	wolfeEnergy          0.0001 \
	wolfeGradient        0.9 \
	fdTest               no
kpoint   0.000000000000   0.000000000000   0.000000000000  1.00000000000000
kpoint-folding 12 12 1 
latt-move-scale 1 1 1
latt-scale 2 2 1 
lattice  \
	   4.727486978767153   -2.363743489383575    0.000000000000000  \
	  -0.000000000000000    4.094123819672498    0.000000000000000  \
	   0.000000000000000    0.000000000000000   40.000000000000000 
lattice-minimize  \
	dirUpdateScheme      L-BFGS \
	linminMethod         DirUpdateRecommended \
	nIterations          0 \
	history              15 \
	knormThreshold       0 \
	energyDiffThreshold  1e-06 \
	nEnergyDiff          2 \
	alphaTstart          1 \
	alphaTmin            1e-10 \
	updateTestStepSize   yes \
	alphaTreduceFactor   0.1 \
	alphaTincreaseFactor 3 \
	nAlphaAdjustMax      3 \
	wolfeEnergy          0.0001 \
	wolfeGradient        0.9 \
	fdTest               no
lcao-params -1 1e-06 1e-05
pcm-variant GLSSA13
spintype z-spin
subspace-rotation-factor 1 yes
symmetries automatic
symmetry-threshold 0.0001



---------- Setting up symmetries ----------

Found 24 point-group symmetries of the bravais lattice
Found 24 space-group symmetries with basis
Applied RMS atom displacement 0 bohrs to make symmetries exact.

---------- Initializing the Grid ----------
R = 
[      9.45497     -4.72749            0  ]
[            0      8.18825            0  ]
[            0            0           40  ]
unit cell volume = 3096.79
G =
[   0.664538   0.383671         -0  ]
[          0   0.767342         -0  ]
[         -0         -0    0.15708  ]
Minimum fftbox size, Smin = [  40  40  164  ]
Chosen fftbox size, S = [  40  40  168  ]

---------- Exchange Correlation functional ----------
Initalized PBE GGA exchange.
Initalized PBE GGA correlation.

---------- Setting up pseudopotentials ----------
Width of ionic core gaussian charges (only for fluid interactions / plotting) set to 0

Reading pseudopotential file '/home/gridsan/aligho/DFT/build-Nov24/pseudopotentials/SG15/Na_ONCV_PBE.upf':
  'Na' pseudopotential, 'PBE' functional
  Generated using ONCVPSP code by D. R. Hamann
  Author: Martin Schlipf and Francois Gygi  Date: 150915.
  9 valence electrons, 3 orbitals, 4 projectors, 1992 radial grid points, with lMax = 1
  Transforming local potential to a uniform radial grid of dG=0.02 with 1489 points.
  Transforming nonlocal projectors to a uniform radial grid of dG=0.02 with 432 points.
    2S    l: 0   occupation:  2.0   eigenvalue: -2.085640
    2P    l: 1   occupation:  6.0   eigenvalue: -1.053708
    3S    l: 0   occupation:  1.0   eigenvalue: -0.100838
  Transforming atomic orbitals to a uniform radial grid of dG=0.02 with 432 points.
  Core radius for overlap checks: 2.01 bohrs.
  Reading pulay file /home/gridsan/aligho/DFT/build-Nov24/pseudopotentials/SG15/Na_ONCV_PBE.pulay ... using dE_dnG = -2.946487e-03 computed for Ecut = 20.

Initialized 1 species with 1 total atoms.

Folded 1 k-points by 12x12x1 to 144 k-points.

---------- Setting up k-points, bands, fillings ----------
Reduced to 19 k-points under symmetry. 
Computing the number of bands and number of electrons
Calculating initial fillings.
nElectrons:   9.000000   nBands: 6   nStates: 38

----- Setting up reduced wavefunction bases (one per k-point) -----
average nbasis = 13230.521 , ideal nbasis = 13229.709

---------- Setting up coulomb interaction ----------
Initialized slab truncation along lattice direction 001

---------- Setting up 2D ewald sum ----------
Optimum gaussian width for ewald sums = 5.249020 bohr.
Real space sums over 289 unit cells with max indices [  8  8  0  ]
Reciprocal space sums over 81 terms with max indices [  4  4  0  ]

---------- Allocating electronic variables ----------
Initializing wave functions:  linear combination of atomic orbitals
Note: number of bands (6) exceeds available atomic orbitals (5)
Na pseudo-atom occupations:   s ( 2 1 )  p ( 6 )
	FillingsUpdate:  mu: -0.106451020  nElectrons: 9.000000  magneticMoment: [ Abs: 0.80000  Tot: +0.80000 ]
LCAOMinimize: Iter:   0  F: -42.5597108750709836  |grad|_K:  1.221e-05  alpha:  1.000e+00
	FillingsUpdate:  mu: -0.106450144  nElectrons: 9.000000  magneticMoment: [ Abs: 0.80000  Tot: +0.80000 ]
LCAOMinimize: Iter:   1  F: -42.5597109763443271  |grad|_K:  7.748e-08  alpha:  9.939e-01  linmin: -1.449e-02  cgtest:  4.122e-01  t[s]:      4.40
LCAOMinimize: Encountered beta<0, resetting CG.
	FillingsUpdate:  mu: -0.106450157  nElectrons: 9.000000  magneticMoment: [ Abs: 0.80000  Tot: +0.80000 ]
LCAOMinimize: Iter:   2  F: -42.5597109763478940  |grad|_K:  7.065e-09  alpha:  9.077e-01  linmin: -8.389e-02  cgtest:  9.988e-01  t[s]:      5.70
LCAOMinimize: Encountered beta<0, resetting CG.
LCAOMinimize: Converged (|Delta F|<1.000000e-06 for 2 iters).


---- Citations for features of the code used in this run ----

   Software package:
      R. Sundararaman, K. Letchworth-Weaver, K.A. Schwarz, D. Gunceler, Y. Ozhabes and T.A. Arias, 'JDFTx: software for joint density-functional theory', SoftwareX 6, 278 (2017)

   gga-PBE exchange-correlation functional:
      J.P. Perdew, K. Burke and M. Ernzerhof, Phys. Rev. Lett. 77, 3865 (1996)

   Pseudopotentials:
      M Schlipf and F Gygi, Comput. Phys. Commun. 196, 36 (2015)

   Truncated Coulomb potentials:
      R. Sundararaman and T.A. Arias, Phys. Rev. B 87, 165122 (2013)

This list may not be complete. Please suggest additional citations or
report any other bugs at https://github.com/shankar1729/jdftx/issues

Initialization completed successfully at t[s]:      5.77


-------- Electronic minimization -----------
Will mix electronic density at each iteration.
	FillingsUpdate:  mu: -0.106450157  nElectrons: 9.000000  magneticMoment: [ Abs: 0.80000  Tot: +0.80000 ]
	FillingsUpdate:  mu: -0.109108558  nElectrons: 9.000000  magneticMoment: [ Abs: 0.80000  Tot: +0.80000 ]
SCF: Cycle:  0   F: -42.565002696992629   dF: -5.292e-03   |Residual|: 1.121e-02   |deigs|: 1.699e-01  t[s]:      8.02
	FillingsUpdate:  mu: -0.109538497  nElectrons: 9.000000  magneticMoment: [ Abs: 0.80005  Tot: +0.80000 ]
SCF: Cycle:  1   F: -42.565216483423733   dF: -2.138e-04   |Residual|: 7.569e-03   |deigs|: 9.150e-03  t[s]:      9.70
	FillingsUpdate:  mu: -0.110687123  nElectrons: 9.000000  magneticMoment: [ Abs: 0.80150  Tot: +0.80000 ]
SCF: Cycle:  2   F: -42.565270099425192   dF: -5.362e-05   |Residual|: 5.162e-03   |deigs|: 6.653e-03  t[s]:     11.38
	FillingsUpdate:  mu: -0.108959339  nElectrons: 9.000000  magneticMoment: [ Abs: 0.80037  Tot: +0.80000 ]
SCF: Cycle:  3   F: -42.565293165388944   dF: -2.307e-05   |Residual|: 3.108e-03   |deigs|: 5.837e-03  t[s]:     13.18
	FillingsUpdate:  mu: -0.108168879  nElectrons: 9.000000  magneticMoment: [ Abs: 0.80025  Tot: +0.80000 ]
SCF: Cycle:  4   F: -42.565302555306374   dF: -9.390e-06   |Residual|: 1.169e-03   |deigs|: 3.231e-03  t[s]:     14.89
	FillingsUpdate:  mu: -0.108084272  nElectrons: 9.000000  magneticMoment: [ Abs: 0.80065  Tot: +0.80000 ]
SCF: Cycle:  5   F: -42.565309173911309   dF: -6.619e-06   |Residual|: 8.166e-04   |deigs|: 2.286e-03  t[s]:     16.66
	FillingsUpdate:  mu: -0.107537956  nElectrons: 9.000000  magneticMoment: [ Abs: 0.80031  Tot: +0.80000 ]
SCF: Cycle:  6   F: -42.565311130175807   dF: -1.956e-06   |Residual|: 6.414e-04   |deigs|: 6.213e-04  t[s]:     18.40
	FillingsUpdate:  mu: -0.106577573  nElectrons: 9.000000  magneticMoment: [ Abs: 0.80206  Tot: +0.80000 ]
SCF: Cycle:  7   F: -42.565309272863004   dF: +1.857e-06   |Residual|: 5.134e-04   |deigs|: 9.436e-04  t[s]:     20.23
	FillingsUpdate:  mu: -0.105817145  nElectrons: 9.000000  magneticMoment: [ Abs: 0.80232  Tot: +0.80000 ]
SCF: Cycle:  8   F: -42.565310347203365   dF: -1.074e-06   |Residual|: 4.089e-04   |deigs|: 1.225e-03  t[s]:     22.09
	FillingsUpdate:  mu: -0.105385047  nElectrons: 9.000000  magneticMoment: [ Abs: 0.80088  Tot: +0.80000 ]
SCF: Cycle:  9   F: -42.565312084758006   dF: -1.738e-06   |Residual|: 3.299e-04   |deigs|: 5.175e-04  t[s]:     23.94
	FillingsUpdate:  mu: -0.105382666  nElectrons: 9.000000  magneticMoment: [ Abs: 0.80072  Tot: +0.80000 ]
SCF: Cycle: 10   F: -42.565313559046267   dF: -1.474e-06   |Residual|: 2.427e-04   |deigs|: 2.329e-04  t[s]:     25.83
	FillingsUpdate:  mu: -0.104897109  nElectrons: 9.000000  magneticMoment: [ Abs: 0.80153  Tot: +0.80000 ]
SCF: Cycle: 11   F: -42.565313017293995   dF: +5.418e-07   |Residual|: 2.113e-04   |deigs|: 6.516e-04  t[s]:     27.67
	FillingsUpdate:  mu: -0.104527044  nElectrons: 9.000000  magneticMoment: [ Abs: 0.80136  Tot: +0.80000 ]
SCF: Cycle: 12   F: -42.565312687183841   dF: +3.301e-07   |Residual|: 1.997e-04   |deigs|: 4.198e-04  t[s]:     29.55
	FillingsUpdate:  mu: -0.104223513  nElectrons: 9.000000  magneticMoment: [ Abs: 0.80165  Tot: +0.80000 ]
SCF: Cycle: 13   F: -42.565313518159940   dF: -8.310e-07   |Residual|: 1.646e-04   |deigs|: 4.659e-04  t[s]:     31.43
	FillingsUpdate:  mu: -0.103788053  nElectrons: 9.000000  magneticMoment: [ Abs: 0.80213  Tot: +0.80000 ]
SCF: Cycle: 14   F: -42.565314166634032   dF: -6.485e-07   |Residual|: 1.569e-04   |deigs|: 6.005e-04  t[s]:     33.26
	FillingsUpdate:  mu: -0.103164240  nElectrons: 9.000000  magneticMoment: [ Abs: 0.80134  Tot: +0.80000 ]
SCF: Cycle: 15   F: -42.565314519845785   dF: -3.532e-07   |Residual|: 1.438e-04   |deigs|: 6.646e-04  t[s]:     35.09
	FillingsUpdate:  mu: -0.102752775  nElectrons: 9.000000  magneticMoment: [ Abs: 0.80110  Tot: +0.80000 ]
SCF: Cycle: 16   F: -42.565314789144317   dF: -2.693e-07   |Residual|: 1.278e-04   |deigs|: 4.037e-04  t[s]:     36.93
	FillingsUpdate:  mu: -0.102521940  nElectrons: 9.000000  magneticMoment: [ Abs: 0.80077  Tot: +0.80000 ]
SCF: Cycle: 17   F: -42.565315033173370   dF: -2.440e-07   |Residual|: 9.075e-05   |deigs|: 5.402e-04  t[s]:     38.79
	FillingsUpdate:  mu: -0.102317868  nElectrons: 9.000000  magneticMoment: [ Abs: 0.80054  Tot: +0.80000 ]
SCF: Cycle: 18   F: -42.565315155561002   dF: -1.224e-07   |Residual|: 6.034e-05   |deigs|: 3.649e-04  t[s]:     40.63
	FillingsUpdate:  mu: -0.102194317  nElectrons: 9.000000  magneticMoment: [ Abs: 0.80065  Tot: +0.80000 ]
SCF: Cycle: 19   F: -42.565315200833162   dF: -4.527e-08   |Residual|: 4.239e-05   |deigs|: 1.456e-04  t[s]:     42.50
	FillingsUpdate:  mu: -0.102150985  nElectrons: 9.000000  magneticMoment: [ Abs: 0.80070  Tot: +0.80000 ]
SCF: Cycle: 20   F: -42.565315229890437   dF: -2.906e-08   |Residual|: 2.679e-05   |deigs|: 5.072e-05  t[s]:     44.35
	FillingsUpdate:  mu: -0.102144796  nElectrons: 9.000000  magneticMoment: [ Abs: 0.80062  Tot: +0.80000 ]
SCF: Cycle: 21   F: -42.565315237818503   dF: -7.928e-09   |Residual|: 1.643e-05   |deigs|: 7.266e-06  t[s]:     46.22
	FillingsUpdate:  mu: -0.102156626  nElectrons: 9.000000  magneticMoment: [ Abs: 0.80059  Tot: +0.80000 ]
SCF: Cycle: 22   F: -42.565315242784230   dF: -4.966e-09   |Residual|: 1.079e-05   |deigs|: 1.411e-05  t[s]:     48.11
SCF: Converged (|Delta E|<1.000000e-08 for 2 iters).


# Ionic positions in lattice coordinates:
ion Na   0.000000000000000   0.000000000000000   0.000000000000000 0

# Forces in Lattice coordinates:
force Na  -0.000000000000000   0.000000000000000   0.000000000000000 0

# Energy components:
   Eewald =      -18.0480261003326561
       EH =       15.7546437615148349
     Eloc =      -42.7685212901955012
      Enl =      -12.9148328138279513
   Epulay =        0.0000007725295140
      Exc =       -6.2224733996638211
       KE =       21.6338946293248284
-------------------------------------
     Etot =      -42.5653144406507522
       TS =        0.0000008021334790
-------------------------------------
        F =      -42.5653152427842301

IonicMinimize: Iter:   0  F: -42.565315242784230  |grad|_K:  0.000e+00  t[s]:     48.18
IonicMinimize: Converged (|grad|_K<1.000000e-04).

#--- Lowdin population analysis ---
# oxidation-state Na +0.087
# magnetic-moments Na +0.715

End date and time: Sat Feb  5 22:34:48 2022  (Duration: 0-0:00:48.20)
Done!
