
*************** JDFTx 1.6.0 (git hash 42ebbcc2) ***************

Start date and time: Sat Feb  5 22:25:19 2022
Executable jdftx with command-line: -i Alkali.in
Running on hosts (process indices):  d-16-13-1 (0-18)
Divided in process groups (process indices):  0 (0)  1 (1)  2 (2)  3 (3)  4 (4)  5 (5)  6 (6)  7 (7)  8 (8)  9 (9)  10 (10)  11 (11)  12 (12)  13 (13)  14 (14)  15 (15)  16 (16)  17 (17)  18 (18)
Resource initialization completed at t[s]:      0.00
Run totals: 19 processes, 48 threads, 0 GPUs


Input parsed successfully to the following command list (including defaults):

basis kpoint-dependent
coords-type Lattice
core-overlap-check vector
coulomb-interaction Slab 001
davidson-band-ratio 1.1
dump End None
dump-name $INPUT.$VAR
elec-cutoff 20
elec-eigen-algo Davidson
elec-ex-corr gga-PBE
elec-initial-magnetization -0.420000 yes
elec-smearing Fermi 1e-05
electronic-minimize  \
	dirUpdateScheme      FletcherReeves \
	linminMethod         DirUpdateRecommended \
	nIterations          100 \
	history              15 \
	knormThreshold       0 \
	energyDiffThreshold  1e-08 \
	nEnergyDiff          2 \
	alphaTstart          1 \
	alphaTmin            1e-10 \
	updateTestStepSize   yes \
	alphaTreduceFactor   0.1 \
	alphaTincreaseFactor 3 \
	nAlphaAdjustMax      3 \
	wolfeEnergy          0.0001 \
	wolfeGradient        0.9 \
	fdTest               no
electronic-scf  \
	nIterations	10000 \
	energyDiffThreshold	1e-08 \
	residualThreshold	1e-07 \
	mixFraction	0.5 \
	qMetric	0.8 \
	history	10 \
	nEigSteps	2 \
	eigDiffThreshold	1e-08 \
	mixedVariable	Density \
	qKerker	0.8 \
	qKappa	-1 \
	verbose	no \
	mixFractionMag	1.5
exchange-regularization WignerSeitzTruncated
fluid None
fluid-ex-corr (null) lda-PZ
fluid-gummel-loop 10 1.000000e-05
fluid-minimize  \
	dirUpdateScheme      PolakRibiere \
	linminMethod         DirUpdateRecommended \
	nIterations          100 \
	history              15 \
	knormThreshold       0 \
	energyDiffThreshold  0 \
	nEnergyDiff          2 \
	alphaTstart          1 \
	alphaTmin            1e-10 \
	updateTestStepSize   yes \
	alphaTreduceFactor   0.1 \
	alphaTincreaseFactor 3 \
	nAlphaAdjustMax      3 \
	wolfeEnergy          0.0001 \
	wolfeGradient        0.9 \
	fdTest               no
fluid-solvent H2O 55.338 ScalarEOS \
	epsBulk 78.4 \
	pMol 0.92466 \
	epsInf 1.77 \
	Pvap 1.06736e-10 \
	sigmaBulk 4.62e-05 \
	Rvdw 2.61727 \
	Res 1.42 \
	tauNuc 343133 \
	poleEl 15 7 1
forces-output-coords Positions
ion Na   0.000000000000000   0.000000000000000   0.000000000000000 0
ion-species SG15/$ID_ONCV_PBE.upf
ion-width 0
ionic-minimize  \
	dirUpdateScheme      L-BFGS \
	linminMethod         DirUpdateRecommended \
	nIterations          0 \
	history              15 \
	knormThreshold       0.0001 \
	energyDiffThreshold  1e-06 \
	nEnergyDiff          2 \
	alphaTstart          1 \
	alphaTmin            1e-10 \
	updateTestStepSize   yes \
	alphaTreduceFactor   0.1 \
	alphaTincreaseFactor 3 \
	nAlphaAdjustMax      3 \
	wolfeEnergy          0.0001 \
	wolfeGradient        0.9 \
	fdTest               no
kpoint   0.000000000000   0.000000000000   0.000000000000  1.00000000000000
kpoint-folding 12 12 1 
latt-move-scale 1 1 1
latt-scale 2 2 1 
lattice  \
	   4.727486978767153   -2.363743489383575    0.000000000000000  \
	  -0.000000000000000    4.094123819672498    0.000000000000000  \
	   0.000000000000000    0.000000000000000   40.000000000000000 
lattice-minimize  \
	dirUpdateScheme      L-BFGS \
	linminMethod         DirUpdateRecommended \
	nIterations          0 \
	history              15 \
	knormThreshold       0 \
	energyDiffThreshold  1e-06 \
	nEnergyDiff          2 \
	alphaTstart          1 \
	alphaTmin            1e-10 \
	updateTestStepSize   yes \
	alphaTreduceFactor   0.1 \
	alphaTincreaseFactor 3 \
	nAlphaAdjustMax      3 \
	wolfeEnergy          0.0001 \
	wolfeGradient        0.9 \
	fdTest               no
lcao-params -1 1e-06 1e-05
pcm-variant GLSSA13
spintype z-spin
subspace-rotation-factor 1 yes
symmetries automatic
symmetry-threshold 0.0001



---------- Setting up symmetries ----------

Found 24 point-group symmetries of the bravais lattice
Found 24 space-group symmetries with basis
Applied RMS atom displacement 0 bohrs to make symmetries exact.

---------- Initializing the Grid ----------
R = 
[      9.45497     -4.72749            0  ]
[            0      8.18825            0  ]
[            0            0           40  ]
unit cell volume = 3096.79
G =
[   0.664538   0.383671         -0  ]
[          0   0.767342         -0  ]
[         -0         -0    0.15708  ]
Minimum fftbox size, Smin = [  40  40  164  ]
Chosen fftbox size, S = [  40  40  168  ]

---------- Exchange Correlation functional ----------
Initalized PBE GGA exchange.
Initalized PBE GGA correlation.

---------- Setting up pseudopotentials ----------
Width of ionic core gaussian charges (only for fluid interactions / plotting) set to 0

Reading pseudopotential file '/home/gridsan/aligho/DFT/build-Nov24/pseudopotentials/SG15/Na_ONCV_PBE.upf':
  'Na' pseudopotential, 'PBE' functional
  Generated using ONCVPSP code by D. R. Hamann
  Author: Martin Schlipf and Francois Gygi  Date: 150915.
  9 valence electrons, 3 orbitals, 4 projectors, 1992 radial grid points, with lMax = 1
  Transforming local potential to a uniform radial grid of dG=0.02 with 1489 points.
  Transforming nonlocal projectors to a uniform radial grid of dG=0.02 with 432 points.
    2S    l: 0   occupation:  2.0   eigenvalue: -2.085640
    2P    l: 1   occupation:  6.0   eigenvalue: -1.053708
    3S    l: 0   occupation:  1.0   eigenvalue: -0.100838
  Transforming atomic orbitals to a uniform radial grid of dG=0.02 with 432 points.
  Core radius for overlap checks: 2.01 bohrs.
  Reading pulay file /home/gridsan/aligho/DFT/build-Nov24/pseudopotentials/SG15/Na_ONCV_PBE.pulay ... using dE_dnG = -2.946487e-03 computed for Ecut = 20.

Initialized 1 species with 1 total atoms.

Folded 1 k-points by 12x12x1 to 144 k-points.

---------- Setting up k-points, bands, fillings ----------
Reduced to 19 k-points under symmetry. 
Computing the number of bands and number of electrons
Calculating initial fillings.
nElectrons:   9.000000   nBands: 6   nStates: 38

----- Setting up reduced wavefunction bases (one per k-point) -----
average nbasis = 13230.521 , ideal nbasis = 13229.709

---------- Setting up coulomb interaction ----------
Initialized slab truncation along lattice direction 001

---------- Setting up 2D ewald sum ----------
Optimum gaussian width for ewald sums = 5.249020 bohr.
Real space sums over 289 unit cells with max indices [  8  8  0  ]
Reciprocal space sums over 81 terms with max indices [  4  4  0  ]

---------- Allocating electronic variables ----------
Initializing wave functions:  linear combination of atomic orbitals
Note: number of bands (6) exceeds available atomic orbitals (5)
Na pseudo-atom occupations:   s ( 2 1 )  p ( 6 )
	FillingsUpdate:  mu: -0.105033559  nElectrons: 9.000000  magneticMoment: [ Abs: 0.42000  Tot: -0.42000 ]
LCAOMinimize: Iter:   0  F: -42.5660399159808591  |grad|_K:  2.493e-05  alpha:  1.000e+00
	FillingsUpdate:  mu: -0.105029659  nElectrons: 9.000000  magneticMoment: [ Abs: 0.42000  Tot: -0.42000 ]
LCAOMinimize: Iter:   1  F: -42.5660403356485304  |grad|_K:  2.161e-07  alpha:  9.877e-01  linmin: -1.860e-02  cgtest:  6.676e-01  t[s]:      4.50
LCAOMinimize: Encountered beta<0, resetting CG.
	FillingsUpdate:  mu: -0.105029670  nElectrons: 9.000000  magneticMoment: [ Abs: 0.42000  Tot: -0.42000 ]
LCAOMinimize: Iter:   2  F: -42.5660403356810519  |grad|_K:  9.752e-10  alpha:  1.006e+00  linmin:  3.731e-02  cgtest: -9.876e-01  t[s]:      5.80
LCAOMinimize: Converged (|Delta F|<1.000000e-06 for 2 iters).


---- Citations for features of the code used in this run ----

   Software package:
      R. Sundararaman, K. Letchworth-Weaver, K.A. Schwarz, D. Gunceler, Y. Ozhabes and T.A. Arias, 'JDFTx: software for joint density-functional theory', SoftwareX 6, 278 (2017)

   gga-PBE exchange-correlation functional:
      J.P. Perdew, K. Burke and M. Ernzerhof, Phys. Rev. Lett. 77, 3865 (1996)

   Pseudopotentials:
      M Schlipf and F Gygi, Comput. Phys. Commun. 196, 36 (2015)

   Truncated Coulomb potentials:
      R. Sundararaman and T.A. Arias, Phys. Rev. B 87, 165122 (2013)

This list may not be complete. Please suggest additional citations or
report any other bugs at https://github.com/shankar1729/jdftx/issues

Initialization completed successfully at t[s]:      5.87


-------- Electronic minimization -----------
Will mix electronic density at each iteration.
	FillingsUpdate:  mu: -0.105029670  nElectrons: 9.000000  magneticMoment: [ Abs: 0.42000  Tot: -0.42000 ]
	FillingsUpdate:  mu: -0.111920690  nElectrons: 9.000000  magneticMoment: [ Abs: 0.42000  Tot: -0.42000 ]
SCF: Cycle:  0   F: -42.570782715454925   dF: -4.742e-03   |Residual|: 9.098e-03   |deigs|: 1.704e-01  t[s]:      8.14
	FillingsUpdate:  mu: -0.111918848  nElectrons: 9.000000  magneticMoment: [ Abs: 0.42000  Tot: -0.42000 ]
SCF: Cycle:  1   F: -42.570891792188604   dF: -1.091e-04   |Residual|: 6.146e-03   |deigs|: 8.752e-03  t[s]:      9.83
	FillingsUpdate:  mu: -0.111717426  nElectrons: 9.000000  magneticMoment: [ Abs: 0.42132  Tot: -0.42000 ]
SCF: Cycle:  2   F: -42.570907705772477   dF: -1.591e-05   |Residual|: 3.513e-03   |deigs|: 6.677e-03  t[s]:     11.55
	FillingsUpdate:  mu: -0.111575390  nElectrons: 9.000000  magneticMoment: [ Abs: 0.42004  Tot: -0.42000 ]
SCF: Cycle:  3   F: -42.570912534452297   dF: -4.829e-06   |Residual|: 2.044e-03   |deigs|: 4.835e-03  t[s]:     13.34
	FillingsUpdate:  mu: -0.111211695  nElectrons: 9.000000  magneticMoment: [ Abs: 0.42006  Tot: -0.42000 ]
SCF: Cycle:  4   F: -42.570925504912253   dF: -1.297e-05   |Residual|: 9.366e-04   |deigs|: 2.730e-03  t[s]:     15.13
	FillingsUpdate:  mu: -0.110900638  nElectrons: 9.000000  magneticMoment: [ Abs: 0.42016  Tot: -0.42000 ]
SCF: Cycle:  5   F: -42.570927136650369   dF: -1.632e-06   |Residual|: 7.632e-04   |deigs|: 1.507e-03  t[s]:     16.98
	FillingsUpdate:  mu: -0.110205130  nElectrons: 9.000000  magneticMoment: [ Abs: 0.42089  Tot: -0.42000 ]
SCF: Cycle:  6   F: -42.570927628534449   dF: -4.919e-07   |Residual|: 5.722e-04   |deigs|: 2.173e-03  t[s]:     18.81
	FillingsUpdate:  mu: -0.109372430  nElectrons: 9.000000  magneticMoment: [ Abs: 0.42223  Tot: -0.42000 ]
SCF: Cycle:  7   F: -42.570926677093539   dF: +9.514e-07   |Residual|: 4.150e-04   |deigs|: 1.136e-03  t[s]:     20.68
	FillingsUpdate:  mu: -0.108687664  nElectrons: 9.000000  magneticMoment: [ Abs: 0.42167  Tot: -0.42000 ]
SCF: Cycle:  8   F: -42.570926474290602   dF: +2.028e-07   |Residual|: 3.529e-04   |deigs|: 9.278e-04  t[s]:     22.57
	FillingsUpdate:  mu: -0.108379176  nElectrons: 9.000000  magneticMoment: [ Abs: 0.42069  Tot: -0.42000 ]
SCF: Cycle:  9   F: -42.570928085201395   dF: -1.611e-06   |Residual|: 2.972e-04   |deigs|: 5.068e-04  t[s]:     24.46
	FillingsUpdate:  mu: -0.108270357  nElectrons: 9.000000  magneticMoment: [ Abs: 0.42119  Tot: -0.42000 ]
SCF: Cycle: 10   F: -42.570929369838275   dF: -1.285e-06   |Residual|: 2.312e-04   |deigs|: 3.030e-04  t[s]:     26.45
	FillingsUpdate:  mu: -0.107725121  nElectrons: 9.000000  magneticMoment: [ Abs: 0.42138  Tot: -0.42000 ]
SCF: Cycle: 11   F: -42.570928341931925   dF: +1.028e-06   |Residual|: 2.142e-04   |deigs|: 8.674e-04  t[s]:     28.40
	FillingsUpdate:  mu: -0.107084159  nElectrons: 9.000000  magneticMoment: [ Abs: 0.42081  Tot: -0.42000 ]
SCF: Cycle: 12   F: -42.570927684146035   dF: +6.578e-07   |Residual|: 1.969e-04   |deigs|: 6.820e-04  t[s]:     30.23
	FillingsUpdate:  mu: -0.106686592  nElectrons: 9.000000  magneticMoment: [ Abs: 0.42135  Tot: -0.42000 ]
SCF: Cycle: 13   F: -42.570928919247862   dF: -1.235e-06   |Residual|: 1.729e-04   |deigs|: 3.753e-04  t[s]:     32.22
	FillingsUpdate:  mu: -0.106413395  nElectrons: 9.000000  magneticMoment: [ Abs: 0.42113  Tot: -0.42000 ]
SCF: Cycle: 14   F: -42.570929841220803   dF: -9.220e-07   |Residual|: 1.600e-04   |deigs|: 2.825e-04  t[s]:     34.11
	FillingsUpdate:  mu: -0.105795377  nElectrons: 9.000000  magneticMoment: [ Abs: 0.42065  Tot: -0.42000 ]
SCF: Cycle: 15   F: -42.570930299996363   dF: -4.588e-07   |Residual|: 1.500e-04   |deigs|: 6.724e-04  t[s]:     36.01
	FillingsUpdate:  mu: -0.105340242  nElectrons: 9.000000  magneticMoment: [ Abs: 0.42034  Tot: -0.42000 ]
SCF: Cycle: 16   F: -42.570930715789920   dF: -4.158e-07   |Residual|: 1.124e-04   |deigs|: 4.452e-04  t[s]:     37.89
	FillingsUpdate:  mu: -0.105101205  nElectrons: 9.000000  magneticMoment: [ Abs: 0.42037  Tot: -0.42000 ]
SCF: Cycle: 17   F: -42.570930895034707   dF: -1.792e-07   |Residual|: 7.241e-05   |deigs|: 2.016e-04  t[s]:     39.77
	FillingsUpdate:  mu: -0.105009848  nElectrons: 9.000000  magneticMoment: [ Abs: 0.42023  Tot: -0.42000 ]
SCF: Cycle: 18   F: -42.570930935673999   dF: -4.064e-08   |Residual|: 5.789e-05   |deigs|: 6.231e-04  t[s]:     41.62
	FillingsUpdate:  mu: -0.104936939  nElectrons: 9.000000  magneticMoment: [ Abs: 0.42030  Tot: -0.42000 ]
SCF: Cycle: 19   F: -42.570930968418921   dF: -3.274e-08   |Residual|: 2.563e-05   |deigs|: 2.083e-04  t[s]:     43.60
	FillingsUpdate:  mu: -0.104912809  nElectrons: 9.000000  magneticMoment: [ Abs: 0.42027  Tot: -0.42000 ]
SCF: Cycle: 20   F: -42.570930976621710   dF: -8.203e-09   |Residual|: 1.367e-05   |deigs|: 5.413e-05  t[s]:     45.44
	FillingsUpdate:  mu: -0.104910048  nElectrons: 9.000000  magneticMoment: [ Abs: 0.42020  Tot: -0.42000 ]
SCF: Cycle: 21   F: -42.570930977855298   dF: -1.234e-09   |Residual|: 9.066e-06   |deigs|: 7.422e-04  t[s]:     47.38
SCF: Converged (|Delta E|<1.000000e-08 for 2 iters).


# Ionic positions in lattice coordinates:
ion Na   0.000000000000000   0.000000000000000   0.000000000000000 0

# Forces in Lattice coordinates:
force Na   0.000000000000000   0.000000000000000   0.000000000000000 0

# Energy components:
   Eewald =      -18.0480261003326561
       EH =       15.7296842360258751
     Eloc =      -42.7415051802502219
      Enl =      -12.9135836497357168
   Epulay =        0.0000007725295140
      Exc =       -6.2175966537888794
       KE =       21.6200963809106952
-------------------------------------
     Etot =      -42.5709301946413916
       TS =        0.0000007832139037
-------------------------------------
        F =      -42.5709309778552978

IonicMinimize: Iter:   0  F: -42.570930977855298  |grad|_K:  0.000e+00  t[s]:     47.45
IonicMinimize: Converged (|grad|_K<1.000000e-04).

#--- Lowdin population analysis ---
# oxidation-state Na +0.053
# magnetic-moments Na -0.375

End date and time: Sat Feb  5 22:26:07 2022  (Duration: 0-0:00:47.47)
Done!
