
*************** JDFTx 1.6.0 (git hash 42ebbcc2) ***************

Start date and time: Sat Feb  5 22:33:25 2022
Executable jdftx with command-line: -i Alkali.in
Running on hosts (process indices):  d-17-1-1 (0-18)
Divided in process groups (process indices):  0 (0)  1 (1)  2 (2)  3 (3)  4 (4)  5 (5)  6 (6)  7 (7)  8 (8)  9 (9)  10 (10)  11 (11)  12 (12)  13 (13)  14 (14)  15 (15)  16 (16)  17 (17)  18 (18)
Resource initialization completed at t[s]:      0.00
Run totals: 19 processes, 48 threads, 0 GPUs


Input parsed successfully to the following command list (including defaults):

basis kpoint-dependent
coords-type Lattice
core-overlap-check vector
coulomb-interaction Slab 001
davidson-band-ratio 1.1
dump End None
dump-name $INPUT.$VAR
elec-cutoff 20
elec-eigen-algo Davidson
elec-ex-corr gga-PBE
elec-initial-magnetization 0.680000 yes
elec-smearing Fermi 1e-05
electronic-minimize  \
	dirUpdateScheme      FletcherReeves \
	linminMethod         DirUpdateRecommended \
	nIterations          100 \
	history              15 \
	knormThreshold       0 \
	energyDiffThreshold  1e-08 \
	nEnergyDiff          2 \
	alphaTstart          1 \
	alphaTmin            1e-10 \
	updateTestStepSize   yes \
	alphaTreduceFactor   0.1 \
	alphaTincreaseFactor 3 \
	nAlphaAdjustMax      3 \
	wolfeEnergy          0.0001 \
	wolfeGradient        0.9 \
	fdTest               no
electronic-scf  \
	nIterations	10000 \
	energyDiffThreshold	1e-08 \
	residualThreshold	1e-07 \
	mixFraction	0.5 \
	qMetric	0.8 \
	history	10 \
	nEigSteps	2 \
	eigDiffThreshold	1e-08 \
	mixedVariable	Density \
	qKerker	0.8 \
	qKappa	-1 \
	verbose	no \
	mixFractionMag	1.5
exchange-regularization WignerSeitzTruncated
fluid None
fluid-ex-corr (null) lda-PZ
fluid-gummel-loop 10 1.000000e-05
fluid-minimize  \
	dirUpdateScheme      PolakRibiere \
	linminMethod         DirUpdateRecommended \
	nIterations          100 \
	history              15 \
	knormThreshold       0 \
	energyDiffThreshold  0 \
	nEnergyDiff          2 \
	alphaTstart          1 \
	alphaTmin            1e-10 \
	updateTestStepSize   yes \
	alphaTreduceFactor   0.1 \
	alphaTincreaseFactor 3 \
	nAlphaAdjustMax      3 \
	wolfeEnergy          0.0001 \
	wolfeGradient        0.9 \
	fdTest               no
fluid-solvent H2O 55.338 ScalarEOS \
	epsBulk 78.4 \
	pMol 0.92466 \
	epsInf 1.77 \
	Pvap 1.06736e-10 \
	sigmaBulk 4.62e-05 \
	Rvdw 2.61727 \
	Res 1.42 \
	tauNuc 343133 \
	poleEl 15 7 1
forces-output-coords Positions
ion Na   0.000000000000000   0.000000000000000   0.000000000000000 0
ion-species SG15/$ID_ONCV_PBE.upf
ion-width 0
ionic-minimize  \
	dirUpdateScheme      L-BFGS \
	linminMethod         DirUpdateRecommended \
	nIterations          0 \
	history              15 \
	knormThreshold       0.0001 \
	energyDiffThreshold  1e-06 \
	nEnergyDiff          2 \
	alphaTstart          1 \
	alphaTmin            1e-10 \
	updateTestStepSize   yes \
	alphaTreduceFactor   0.1 \
	alphaTincreaseFactor 3 \
	nAlphaAdjustMax      3 \
	wolfeEnergy          0.0001 \
	wolfeGradient        0.9 \
	fdTest               no
kpoint   0.000000000000   0.000000000000   0.000000000000  1.00000000000000
kpoint-folding 12 12 1 
latt-move-scale 1 1 1
latt-scale 2 2 1 
lattice  \
	   4.727486978767153   -2.363743489383575    0.000000000000000  \
	  -0.000000000000000    4.094123819672498    0.000000000000000  \
	   0.000000000000000    0.000000000000000   40.000000000000000 
lattice-minimize  \
	dirUpdateScheme      L-BFGS \
	linminMethod         DirUpdateRecommended \
	nIterations          0 \
	history              15 \
	knormThreshold       0 \
	energyDiffThreshold  1e-06 \
	nEnergyDiff          2 \
	alphaTstart          1 \
	alphaTmin            1e-10 \
	updateTestStepSize   yes \
	alphaTreduceFactor   0.1 \
	alphaTincreaseFactor 3 \
	nAlphaAdjustMax      3 \
	wolfeEnergy          0.0001 \
	wolfeGradient        0.9 \
	fdTest               no
lcao-params -1 1e-06 1e-05
pcm-variant GLSSA13
spintype z-spin
subspace-rotation-factor 1 yes
symmetries automatic
symmetry-threshold 0.0001



---------- Setting up symmetries ----------

Found 24 point-group symmetries of the bravais lattice
Found 24 space-group symmetries with basis
Applied RMS atom displacement 0 bohrs to make symmetries exact.

---------- Initializing the Grid ----------
R = 
[      9.45497     -4.72749            0  ]
[            0      8.18825            0  ]
[            0            0           40  ]
unit cell volume = 3096.79
G =
[   0.664538   0.383671         -0  ]
[          0   0.767342         -0  ]
[         -0         -0    0.15708  ]
Minimum fftbox size, Smin = [  40  40  164  ]
Chosen fftbox size, S = [  40  40  168  ]

---------- Exchange Correlation functional ----------
Initalized PBE GGA exchange.
Initalized PBE GGA correlation.

---------- Setting up pseudopotentials ----------
Width of ionic core gaussian charges (only for fluid interactions / plotting) set to 0

Reading pseudopotential file '/home/gridsan/aligho/DFT/build-Nov24/pseudopotentials/SG15/Na_ONCV_PBE.upf':
  'Na' pseudopotential, 'PBE' functional
  Generated using ONCVPSP code by D. R. Hamann
  Author: Martin Schlipf and Francois Gygi  Date: 150915.
  9 valence electrons, 3 orbitals, 4 projectors, 1992 radial grid points, with lMax = 1
  Transforming local potential to a uniform radial grid of dG=0.02 with 1489 points.
  Transforming nonlocal projectors to a uniform radial grid of dG=0.02 with 432 points.
    2S    l: 0   occupation:  2.0   eigenvalue: -2.085640
    2P    l: 1   occupation:  6.0   eigenvalue: -1.053708
    3S    l: 0   occupation:  1.0   eigenvalue: -0.100838
  Transforming atomic orbitals to a uniform radial grid of dG=0.02 with 432 points.
  Core radius for overlap checks: 2.01 bohrs.
  Reading pulay file /home/gridsan/aligho/DFT/build-Nov24/pseudopotentials/SG15/Na_ONCV_PBE.pulay ... using dE_dnG = -2.946487e-03 computed for Ecut = 20.

Initialized 1 species with 1 total atoms.

Folded 1 k-points by 12x12x1 to 144 k-points.

---------- Setting up k-points, bands, fillings ----------
Reduced to 19 k-points under symmetry. 
Computing the number of bands and number of electrons
Calculating initial fillings.
nElectrons:   9.000000   nBands: 6   nStates: 38

----- Setting up reduced wavefunction bases (one per k-point) -----
average nbasis = 13230.521 , ideal nbasis = 13229.709

---------- Setting up coulomb interaction ----------
Initialized slab truncation along lattice direction 001

---------- Setting up 2D ewald sum ----------
Optimum gaussian width for ewald sums = 5.249020 bohr.
Real space sums over 289 unit cells with max indices [  8  8  0  ]
Reciprocal space sums over 81 terms with max indices [  4  4  0  ]

---------- Allocating electronic variables ----------
Initializing wave functions:  linear combination of atomic orbitals
Note: number of bands (6) exceeds available atomic orbitals (5)
Na pseudo-atom occupations:   s ( 2 1 )  p ( 6 )
	FillingsUpdate:  mu: -0.108238670  nElectrons: 9.000000  magneticMoment: [ Abs: 0.68000  Tot: +0.68000 ]
LCAOMinimize: Iter:   0  F: -42.5620504442603718  |grad|_K:  1.873e-05  alpha:  1.000e+00
	FillingsUpdate:  mu: -0.108236766  nElectrons: 9.000000  magneticMoment: [ Abs: 0.68000  Tot: +0.68000 ]
LCAOMinimize: Iter:   1  F: -42.5620506824493674  |grad|_K:  1.368e-07  alpha:  9.923e-01  linmin: -2.076e-02  cgtest:  5.538e-01  t[s]:      4.41
LCAOMinimize: Encountered beta<0, resetting CG.
	FillingsUpdate:  mu: -0.108236781  nElectrons: 9.000000  magneticMoment: [ Abs: 0.68000  Tot: +0.68000 ]
LCAOMinimize: Iter:   2  F: -42.5620506824616314  |grad|_K:  1.791e-09  alpha:  1.013e+00  linmin:  9.693e-02  cgtest: -9.551e-01  t[s]:      5.55
LCAOMinimize: Converged (|Delta F|<1.000000e-06 for 2 iters).


---- Citations for features of the code used in this run ----

   Software package:
      R. Sundararaman, K. Letchworth-Weaver, K.A. Schwarz, D. Gunceler, Y. Ozhabes and T.A. Arias, 'JDFTx: software for joint density-functional theory', SoftwareX 6, 278 (2017)

   gga-PBE exchange-correlation functional:
      J.P. Perdew, K. Burke and M. Ernzerhof, Phys. Rev. Lett. 77, 3865 (1996)

   Pseudopotentials:
      M Schlipf and F Gygi, Comput. Phys. Commun. 196, 36 (2015)

   Truncated Coulomb potentials:
      R. Sundararaman and T.A. Arias, Phys. Rev. B 87, 165122 (2013)

This list may not be complete. Please suggest additional citations or
report any other bugs at https://github.com/shankar1729/jdftx/issues

Initialization completed successfully at t[s]:      5.61


-------- Electronic minimization -----------
Will mix electronic density at each iteration.
	FillingsUpdate:  mu: -0.108236781  nElectrons: 9.000000  magneticMoment: [ Abs: 0.68000  Tot: +0.68000 ]
	FillingsUpdate:  mu: -0.112240838  nElectrons: 9.000000  magneticMoment: [ Abs: 0.68000  Tot: +0.68000 ]
SCF: Cycle:  0   F: -42.567358079563405   dF: -5.307e-03   |Residual|: 1.096e-02   |deigs|: 1.701e-01  t[s]:      7.80
	FillingsUpdate:  mu: -0.112230396  nElectrons: 9.000000  magneticMoment: [ Abs: 0.68000  Tot: +0.68000 ]
SCF: Cycle:  1   F: -42.567577529731913   dF: -2.195e-04   |Residual|: 7.445e-03   |deigs|: 8.875e-03  t[s]:      9.43
	FillingsUpdate:  mu: -0.112257117  nElectrons: 9.000000  magneticMoment: [ Abs: 0.68139  Tot: +0.68000 ]
SCF: Cycle:  2   F: -42.567618246587237   dF: -4.072e-05   |Residual|: 4.739e-03   |deigs|: 6.012e-03  t[s]:     11.13
	FillingsUpdate:  mu: -0.112011752  nElectrons: 9.000000  magneticMoment: [ Abs: 0.68016  Tot: +0.68000 ]
SCF: Cycle:  3   F: -42.567620197721673   dF: -1.951e-06   |Residual|: 2.724e-03   |deigs|: 6.322e-03  t[s]:     12.80
	FillingsUpdate:  mu: -0.111936732  nElectrons: 9.000000  magneticMoment: [ Abs: 0.68018  Tot: +0.68000 ]
SCF: Cycle:  4   F: -42.567645441048356   dF: -2.524e-05   |Residual|: 1.074e-03   |deigs|: 2.933e-03  t[s]:     14.51
	FillingsUpdate:  mu: -0.111755390  nElectrons: 9.000000  magneticMoment: [ Abs: 0.68034  Tot: +0.68000 ]
SCF: Cycle:  5   F: -42.567649920385627   dF: -4.479e-06   |Residual|: 8.260e-04   |deigs|: 1.726e-03  t[s]:     16.21
	FillingsUpdate:  mu: -0.111145990  nElectrons: 9.000000  magneticMoment: [ Abs: 0.68058  Tot: +0.68000 ]
SCF: Cycle:  6   F: -42.567651447543767   dF: -1.527e-06   |Residual|: 6.180e-04   |deigs|: 1.210e-03  t[s]:     17.97
	FillingsUpdate:  mu: -0.110356538  nElectrons: 9.000000  magneticMoment: [ Abs: 0.68221  Tot: +0.68000 ]
SCF: Cycle:  7   F: -42.567650921726333   dF: +5.258e-07   |Residual|: 4.561e-04   |deigs|: 1.037e-03  t[s]:     19.76
	FillingsUpdate:  mu: -0.109527850  nElectrons: 9.000000  magneticMoment: [ Abs: 0.68220  Tot: +0.68000 ]
SCF: Cycle:  8   F: -42.567650247898335   dF: +6.738e-07   |Residual|: 3.777e-04   |deigs|: 1.081e-03  t[s]:     21.60
	FillingsUpdate:  mu: -0.109101440  nElectrons: 9.000000  magneticMoment: [ Abs: 0.68110  Tot: +0.68000 ]
SCF: Cycle:  9   F: -42.567652088398482   dF: -1.841e-06   |Residual|: 3.315e-04   |deigs|: 5.450e-04  t[s]:     23.44
	FillingsUpdate:  mu: -0.109116695  nElectrons: 9.000000  magneticMoment: [ Abs: 0.68089  Tot: +0.68000 ]
SCF: Cycle: 10   F: -42.567653370701116   dF: -1.282e-06   |Residual|: 2.243e-04   |deigs|: 2.347e-04  t[s]:     25.41
	FillingsUpdate:  mu: -0.108556141  nElectrons: 9.000000  magneticMoment: [ Abs: 0.68155  Tot: +0.68000 ]
SCF: Cycle: 11   F: -42.567653025277984   dF: +3.454e-07   |Residual|: 2.154e-04   |deigs|: 6.408e-04  t[s]:     27.25
	FillingsUpdate:  mu: -0.108009832  nElectrons: 9.000000  magneticMoment: [ Abs: 0.68106  Tot: +0.68000 ]
SCF: Cycle: 12   F: -42.567652283504792   dF: +7.418e-07   |Residual|: 1.954e-04   |deigs|: 5.724e-04  t[s]:     29.10
	FillingsUpdate:  mu: -0.107724935  nElectrons: 9.000000  magneticMoment: [ Abs: 0.68148  Tot: +0.68000 ]
SCF: Cycle: 13   F: -42.567653181479855   dF: -8.980e-07   |Residual|: 1.741e-04   |deigs|: 2.837e-04  t[s]:     31.01
	FillingsUpdate:  mu: -0.107365222  nElectrons: 9.000000  magneticMoment: [ Abs: 0.68154  Tot: +0.68000 ]
SCF: Cycle: 14   F: -42.567654042968108   dF: -8.615e-07   |Residual|: 1.567e-04   |deigs|: 3.867e-04  t[s]:     32.89
	FillingsUpdate:  mu: -0.106737010  nElectrons: 9.000000  magneticMoment: [ Abs: 0.68098  Tot: +0.68000 ]
SCF: Cycle: 15   F: -42.567654540459309   dF: -4.975e-07   |Residual|: 1.529e-04   |deigs|: 6.855e-04  t[s]:     34.73
	FillingsUpdate:  mu: -0.106329646  nElectrons: 9.000000  magneticMoment: [ Abs: 0.68067  Tot: +0.68000 ]
SCF: Cycle: 16   F: -42.567654821958790   dF: -2.815e-07   |Residual|: 1.279e-04   |deigs|: 3.976e-04  t[s]:     36.52
	FillingsUpdate:  mu: -0.106010017  nElectrons: 9.000000  magneticMoment: [ Abs: 0.68062  Tot: +0.68000 ]
SCF: Cycle: 17   F: -42.567655081058966   dF: -2.591e-07   |Residual|: 7.944e-05   |deigs|: 2.864e-04  t[s]:     38.40
	FillingsUpdate:  mu: -0.105853128  nElectrons: 9.000000  magneticMoment: [ Abs: 0.68041  Tot: +0.68000 ]
SCF: Cycle: 18   F: -42.567655169560133   dF: -8.850e-08   |Residual|: 6.146e-05   |deigs|: 6.991e-04  t[s]:     40.31
	FillingsUpdate:  mu: -0.105764445  nElectrons: 9.000000  magneticMoment: [ Abs: 0.68042  Tot: +0.68000 ]
SCF: Cycle: 19   F: -42.567655217154517   dF: -4.759e-08   |Residual|: 3.725e-05   |deigs|: 2.797e-04  t[s]:     42.18
	FillingsUpdate:  mu: -0.105728234  nElectrons: 9.000000  magneticMoment: [ Abs: 0.68049  Tot: +0.68000 ]
SCF: Cycle: 20   F: -42.567655233575969   dF: -1.642e-08   |Residual|: 2.201e-05   |deigs|: 8.321e-05  t[s]:     44.01
	FillingsUpdate:  mu: -0.105724681  nElectrons: 9.000000  magneticMoment: [ Abs: 0.68042  Tot: +0.68000 ]
SCF: Cycle: 21   F: -42.567655237887180   dF: -4.311e-09   |Residual|: 1.406e-05   |deigs|: 7.037e-04  t[s]:     45.81
	FillingsUpdate:  mu: -0.105732827  nElectrons: 9.000000  magneticMoment: [ Abs: 0.68037  Tot: +0.68000 ]
SCF: Cycle: 22   F: -42.567655240698357   dF: -2.811e-09   |Residual|: 9.886e-06   |deigs|: 7.846e-05  t[s]:     47.67
SCF: Converged (|Delta E|<1.000000e-08 for 2 iters).


# Ionic positions in lattice coordinates:
ion Na   0.000000000000000   0.000000000000000   0.000000000000000 0

# Forces in Lattice coordinates:
force Na  -0.000000000000000  -0.000000000000000   0.000000000000000 0

# Energy components:
   Eewald =      -18.0480261003326561
       EH =       15.7432484304129261
     Eloc =      -42.7560042318261324
      Enl =      -12.9145847904330839
   Epulay =        0.0000007725295140
      Exc =       -6.2205336411213459
       KE =       21.6282448710224955
-------------------------------------
     Etot =      -42.5676546897482879
       TS =        0.0000005509500668
-------------------------------------
        F =      -42.5676552406983575

IonicMinimize: Iter:   0  F: -42.567655240698357  |grad|_K:  0.000e+00  t[s]:     47.74
IonicMinimize: Converged (|grad|_K<1.000000e-04).

#--- Lowdin population analysis ---
# oxidation-state Na +0.078
# magnetic-moments Na +0.605

End date and time: Sat Feb  5 22:34:13 2022  (Duration: 0-0:00:47.76)
Done!
