
*************** JDFTx 1.6.0 (git hash 42ebbcc2) ***************

Start date and time: Sat Feb  5 22:32:50 2022
Executable jdftx with command-line: -i Alkali.in
Running on hosts (process indices):  d-16-12-3 (0-18)
Divided in process groups (process indices):  0 (0)  1 (1)  2 (2)  3 (3)  4 (4)  5 (5)  6 (6)  7 (7)  8 (8)  9 (9)  10 (10)  11 (11)  12 (12)  13 (13)  14 (14)  15 (15)  16 (16)  17 (17)  18 (18)
Resource initialization completed at t[s]:      0.00
Run totals: 19 processes, 48 threads, 0 GPUs


Input parsed successfully to the following command list (including defaults):

basis kpoint-dependent
coords-type Lattice
core-overlap-check vector
coulomb-interaction Slab 001
davidson-band-ratio 1.1
dump End None
dump-name $INPUT.$VAR
elec-cutoff 20
elec-eigen-algo Davidson
elec-ex-corr gga-PBE
elec-initial-magnetization 0.540000 yes
elec-smearing Fermi 1e-05
electronic-minimize  \
	dirUpdateScheme      FletcherReeves \
	linminMethod         DirUpdateRecommended \
	nIterations          100 \
	history              15 \
	knormThreshold       0 \
	energyDiffThreshold  1e-08 \
	nEnergyDiff          2 \
	alphaTstart          1 \
	alphaTmin            1e-10 \
	updateTestStepSize   yes \
	alphaTreduceFactor   0.1 \
	alphaTincreaseFactor 3 \
	nAlphaAdjustMax      3 \
	wolfeEnergy          0.0001 \
	wolfeGradient        0.9 \
	fdTest               no
electronic-scf  \
	nIterations	10000 \
	energyDiffThreshold	1e-08 \
	residualThreshold	1e-07 \
	mixFraction	0.5 \
	qMetric	0.8 \
	history	10 \
	nEigSteps	2 \
	eigDiffThreshold	1e-08 \
	mixedVariable	Density \
	qKerker	0.8 \
	qKappa	-1 \
	verbose	no \
	mixFractionMag	1.5
exchange-regularization WignerSeitzTruncated
fluid None
fluid-ex-corr (null) lda-PZ
fluid-gummel-loop 10 1.000000e-05
fluid-minimize  \
	dirUpdateScheme      PolakRibiere \
	linminMethod         DirUpdateRecommended \
	nIterations          100 \
	history              15 \
	knormThreshold       0 \
	energyDiffThreshold  0 \
	nEnergyDiff          2 \
	alphaTstart          1 \
	alphaTmin            1e-10 \
	updateTestStepSize   yes \
	alphaTreduceFactor   0.1 \
	alphaTincreaseFactor 3 \
	nAlphaAdjustMax      3 \
	wolfeEnergy          0.0001 \
	wolfeGradient        0.9 \
	fdTest               no
fluid-solvent H2O 55.338 ScalarEOS \
	epsBulk 78.4 \
	pMol 0.92466 \
	epsInf 1.77 \
	Pvap 1.06736e-10 \
	sigmaBulk 4.62e-05 \
	Rvdw 2.61727 \
	Res 1.42 \
	tauNuc 343133 \
	poleEl 15 7 1
forces-output-coords Positions
ion Na   0.000000000000000   0.000000000000000   0.000000000000000 0
ion-species SG15/$ID_ONCV_PBE.upf
ion-width 0
ionic-minimize  \
	dirUpdateScheme      L-BFGS \
	linminMethod         DirUpdateRecommended \
	nIterations          0 \
	history              15 \
	knormThreshold       0.0001 \
	energyDiffThreshold  1e-06 \
	nEnergyDiff          2 \
	alphaTstart          1 \
	alphaTmin            1e-10 \
	updateTestStepSize   yes \
	alphaTreduceFactor   0.1 \
	alphaTincreaseFactor 3 \
	nAlphaAdjustMax      3 \
	wolfeEnergy          0.0001 \
	wolfeGradient        0.9 \
	fdTest               no
kpoint   0.000000000000   0.000000000000   0.000000000000  1.00000000000000
kpoint-folding 12 12 1 
latt-move-scale 1 1 1
latt-scale 2 2 1 
lattice  \
	   4.727486978767153   -2.363743489383575    0.000000000000000  \
	  -0.000000000000000    4.094123819672498    0.000000000000000  \
	   0.000000000000000    0.000000000000000   40.000000000000000 
lattice-minimize  \
	dirUpdateScheme      L-BFGS \
	linminMethod         DirUpdateRecommended \
	nIterations          0 \
	history              15 \
	knormThreshold       0 \
	energyDiffThreshold  1e-06 \
	nEnergyDiff          2 \
	alphaTstart          1 \
	alphaTmin            1e-10 \
	updateTestStepSize   yes \
	alphaTreduceFactor   0.1 \
	alphaTincreaseFactor 3 \
	nAlphaAdjustMax      3 \
	wolfeEnergy          0.0001 \
	wolfeGradient        0.9 \
	fdTest               no
lcao-params -1 1e-06 1e-05
pcm-variant GLSSA13
spintype z-spin
subspace-rotation-factor 1 yes
symmetries automatic
symmetry-threshold 0.0001



---------- Setting up symmetries ----------

Found 24 point-group symmetries of the bravais lattice
Found 24 space-group symmetries with basis
Applied RMS atom displacement 0 bohrs to make symmetries exact.

---------- Initializing the Grid ----------
R = 
[      9.45497     -4.72749            0  ]
[            0      8.18825            0  ]
[            0            0           40  ]
unit cell volume = 3096.79
G =
[   0.664538   0.383671         -0  ]
[          0   0.767342         -0  ]
[         -0         -0    0.15708  ]
Minimum fftbox size, Smin = [  40  40  164  ]
Chosen fftbox size, S = [  40  40  168  ]

---------- Exchange Correlation functional ----------
Initalized PBE GGA exchange.
Initalized PBE GGA correlation.

---------- Setting up pseudopotentials ----------
Width of ionic core gaussian charges (only for fluid interactions / plotting) set to 0

Reading pseudopotential file '/home/gridsan/aligho/DFT/build-Nov24/pseudopotentials/SG15/Na_ONCV_PBE.upf':
  'Na' pseudopotential, 'PBE' functional
  Generated using ONCVPSP code by D. R. Hamann
  Author: Martin Schlipf and Francois Gygi  Date: 150915.
  9 valence electrons, 3 orbitals, 4 projectors, 1992 radial grid points, with lMax = 1
  Transforming local potential to a uniform radial grid of dG=0.02 with 1489 points.
  Transforming nonlocal projectors to a uniform radial grid of dG=0.02 with 432 points.
    2S    l: 0   occupation:  2.0   eigenvalue: -2.085640
    2P    l: 1   occupation:  6.0   eigenvalue: -1.053708
    3S    l: 0   occupation:  1.0   eigenvalue: -0.100838
  Transforming atomic orbitals to a uniform radial grid of dG=0.02 with 432 points.
  Core radius for overlap checks: 2.01 bohrs.
  Reading pulay file /home/gridsan/aligho/DFT/build-Nov24/pseudopotentials/SG15/Na_ONCV_PBE.pulay ... using dE_dnG = -2.946487e-03 computed for Ecut = 20.

Initialized 1 species with 1 total atoms.

Folded 1 k-points by 12x12x1 to 144 k-points.

---------- Setting up k-points, bands, fillings ----------
Reduced to 19 k-points under symmetry. 
Computing the number of bands and number of electrons
Calculating initial fillings.
nElectrons:   9.000000   nBands: 6   nStates: 38

----- Setting up reduced wavefunction bases (one per k-point) -----
average nbasis = 13230.521 , ideal nbasis = 13229.709

---------- Setting up coulomb interaction ----------
Initialized slab truncation along lattice direction 001

---------- Setting up 2D ewald sum ----------
Optimum gaussian width for ewald sums = 5.249020 bohr.
Real space sums over 289 unit cells with max indices [  8  8  0  ]
Reciprocal space sums over 81 terms with max indices [  4  4  0  ]

---------- Allocating electronic variables ----------
Initializing wave functions:  linear combination of atomic orbitals
Note: number of bands (6) exceeds available atomic orbitals (5)
Na pseudo-atom occupations:   s ( 2 1 )  p ( 6 )
	FillingsUpdate:  mu: -0.107041157  nElectrons: 9.000000  magneticMoment: [ Abs: 0.54000  Tot: +0.54000 ]
LCAOMinimize: Iter:   0  F: -42.5643699242161873  |grad|_K:  2.587e-05  alpha:  1.000e+00
	FillingsUpdate:  mu: -0.107039423  nElectrons: 9.000000  magneticMoment: [ Abs: 0.54000  Tot: +0.54000 ]
LCAOMinimize: Iter:   1  F: -42.5643703779846945  |grad|_K:  2.178e-07  alpha:  9.917e-01  linmin: -1.999e-02  cgtest:  6.368e-01  t[s]:      4.76
LCAOMinimize: Encountered beta<0, resetting CG.
	FillingsUpdate:  mu: -0.107039454  nElectrons: 9.000000  magneticMoment: [ Abs: 0.54000  Tot: +0.54000 ]
LCAOMinimize: Iter:   2  F: -42.5643703780173084  |grad|_K:  6.977e-09  alpha:  1.033e+00  linmin:  8.121e-02  cgtest: -9.938e-01  t[s]:      5.99
LCAOMinimize: Converged (|Delta F|<1.000000e-06 for 2 iters).


---- Citations for features of the code used in this run ----

   Software package:
      R. Sundararaman, K. Letchworth-Weaver, K.A. Schwarz, D. Gunceler, Y. Ozhabes and T.A. Arias, 'JDFTx: software for joint density-functional theory', SoftwareX 6, 278 (2017)

   gga-PBE exchange-correlation functional:
      J.P. Perdew, K. Burke and M. Ernzerhof, Phys. Rev. Lett. 77, 3865 (1996)

   Pseudopotentials:
      M Schlipf and F Gygi, Comput. Phys. Commun. 196, 36 (2015)

   Truncated Coulomb potentials:
      R. Sundararaman and T.A. Arias, Phys. Rev. B 87, 165122 (2013)

This list may not be complete. Please suggest additional citations or
report any other bugs at https://github.com/shankar1729/jdftx/issues

Initialization completed successfully at t[s]:      6.06


-------- Electronic minimization -----------
Will mix electronic density at each iteration.
	FillingsUpdate:  mu: -0.107039454  nElectrons: 9.000000  magneticMoment: [ Abs: 0.54000  Tot: +0.54000 ]
	FillingsUpdate:  mu: -0.111388708  nElectrons: 9.000000  magneticMoment: [ Abs: 0.54000  Tot: +0.54000 ]
SCF: Cycle:  0   F: -42.569447021658135   dF: -5.077e-03   |Residual|: 1.010e-02   |deigs|: 1.703e-01  t[s]:      8.33
	FillingsUpdate:  mu: -0.111329994  nElectrons: 9.000000  magneticMoment: [ Abs: 0.54000  Tot: +0.54000 ]
SCF: Cycle:  1   F: -42.569597953144466   dF: -1.509e-04   |Residual|: 6.768e-03   |deigs|: 8.828e-03  t[s]:     10.04
	FillingsUpdate:  mu: -0.111002367  nElectrons: 9.000000  magneticMoment: [ Abs: 0.54137  Tot: +0.54000 ]
SCF: Cycle:  2   F: -42.569614863327537   dF: -1.691e-05   |Residual|: 4.017e-03   |deigs|: 6.007e-03  t[s]:     11.78
	FillingsUpdate:  mu: -0.110946979  nElectrons: 9.000000  magneticMoment: [ Abs: 0.54007  Tot: +0.54000 ]
SCF: Cycle:  3   F: -42.569619795684012   dF: -4.932e-06   |Residual|: 2.360e-03   |deigs|: 6.069e-03  t[s]:     13.53
	FillingsUpdate:  mu: -0.110782200  nElectrons: 9.000000  magneticMoment: [ Abs: 0.54011  Tot: +0.54000 ]
SCF: Cycle:  4   F: -42.569642402373240   dF: -2.261e-05   |Residual|: 1.000e-03   |deigs|: 2.964e-03  t[s]:     15.29
	FillingsUpdate:  mu: -0.110535817  nElectrons: 9.000000  magneticMoment: [ Abs: 0.54022  Tot: +0.54000 ]
SCF: Cycle:  5   F: -42.569645492035271   dF: -3.090e-06   |Residual|: 7.913e-04   |deigs|: 1.869e-03  t[s]:     17.11
	FillingsUpdate:  mu: -0.109914695  nElectrons: 9.000000  magneticMoment: [ Abs: 0.54071  Tot: +0.54000 ]
SCF: Cycle:  6   F: -42.569646435158511   dF: -9.431e-07   |Residual|: 5.933e-04   |deigs|: 1.118e-03  t[s]:     18.98
	FillingsUpdate:  mu: -0.109110094  nElectrons: 9.000000  magneticMoment: [ Abs: 0.54231  Tot: +0.54000 ]
SCF: Cycle:  7   F: -42.569645849980773   dF: +5.852e-07   |Residual|: 4.361e-04   |deigs|: 1.081e-03  t[s]:     20.83
	FillingsUpdate:  mu: -0.108338461  nElectrons: 9.000000  magneticMoment: [ Abs: 0.54199  Tot: +0.54000 ]
SCF: Cycle:  8   F: -42.569644936369535   dF: +9.136e-07   |Residual|: 3.609e-04   |deigs|: 1.011e-03  t[s]:     22.70
	FillingsUpdate:  mu: -0.107949099  nElectrons: 9.000000  magneticMoment: [ Abs: 0.54099  Tot: +0.54000 ]
SCF: Cycle:  9   F: -42.569646634926876   dF: -1.699e-06   |Residual|: 3.194e-04   |deigs|: 5.150e-04  t[s]:     24.61
	FillingsUpdate:  mu: -0.107972373  nElectrons: 9.000000  magneticMoment: [ Abs: 0.54102  Tot: +0.54000 ]
SCF: Cycle: 10   F: -42.569648203864666   dF: -1.569e-06   |Residual|: 2.290e-04   |deigs|: 2.815e-04  t[s]:     26.66
	FillingsUpdate:  mu: -0.107400839  nElectrons: 9.000000  magneticMoment: [ Abs: 0.54150  Tot: +0.54000 ]
SCF: Cycle: 11   F: -42.569647676058572   dF: +5.278e-07   |Residual|: 2.147e-04   |deigs|: 6.316e-04  t[s]:     28.66
	FillingsUpdate:  mu: -0.106799986  nElectrons: 9.000000  magneticMoment: [ Abs: 0.54096  Tot: +0.54000 ]
SCF: Cycle: 12   F: -42.569646796710963   dF: +8.793e-07   |Residual|: 1.958e-04   |deigs|: 6.409e-04  t[s]:     30.61
	FillingsUpdate:  mu: -0.106454810  nElectrons: 9.000000  magneticMoment: [ Abs: 0.54129  Tot: +0.54000 ]
SCF: Cycle: 13   F: -42.569647763085101   dF: -9.664e-07   |Residual|: 1.745e-04   |deigs|: 3.314e-04  t[s]:     32.64
	FillingsUpdate:  mu: -0.106121491  nElectrons: 9.000000  magneticMoment: [ Abs: 0.54125  Tot: +0.54000 ]
SCF: Cycle: 14   F: -42.569648699921750   dF: -9.368e-07   |Residual|: 1.621e-04   |deigs|: 3.540e-04  t[s]:     34.57
	FillingsUpdate:  mu: -0.105455340  nElectrons: 9.000000  magneticMoment: [ Abs: 0.54085  Tot: +0.54000 ]
SCF: Cycle: 15   F: -42.569649171161529   dF: -4.712e-07   |Residual|: 1.482e-04   |deigs|: 7.205e-04  t[s]:     36.45
	FillingsUpdate:  mu: -0.105018062  nElectrons: 9.000000  magneticMoment: [ Abs: 0.54044  Tot: +0.54000 ]
SCF: Cycle: 16   F: -42.569649570997484   dF: -3.998e-07   |Residual|: 1.180e-04   |deigs|: 4.145e-04  t[s]:     38.39
	FillingsUpdate:  mu: -0.104805364  nElectrons: 9.000000  magneticMoment: [ Abs: 0.54045  Tot: +0.54000 ]
SCF: Cycle: 17   F: -42.569649755520850   dF: -1.845e-07   |Residual|: 8.335e-05   |deigs|: 1.799e-04  t[s]:     40.33
	FillingsUpdate:  mu: -0.104677131  nElectrons: 9.000000  magneticMoment: [ Abs: 0.54026  Tot: +0.54000 ]
SCF: Cycle: 18   F: -42.569649833050107   dF: -7.753e-08   |Residual|: 6.491e-05   |deigs|: 6.837e-04  t[s]:     42.26
	FillingsUpdate:  mu: -0.104565724  nElectrons: 9.000000  magneticMoment: [ Abs: 0.54037  Tot: +0.54000 ]
SCF: Cycle: 19   F: -42.569649886018887   dF: -5.297e-08   |Residual|: 3.153e-05   |deigs|: 3.297e-04  t[s]:     44.17
	FillingsUpdate:  mu: -0.104531717  nElectrons: 9.000000  magneticMoment: [ Abs: 0.54036  Tot: +0.54000 ]
SCF: Cycle: 20   F: -42.569649895950569   dF: -9.932e-09   |Residual|: 1.814e-05   |deigs|: 6.739e-05  t[s]:     46.06
	FillingsUpdate:  mu: -0.104528053  nElectrons: 9.000000  magneticMoment: [ Abs: 0.54026  Tot: +0.54000 ]
SCF: Cycle: 21   F: -42.569649897576127   dF: -1.626e-09   |Residual|: 1.128e-05   |deigs|: 7.483e-04  t[s]:     47.93
SCF: Converged (|Delta E|<1.000000e-08 for 2 iters).


# Ionic positions in lattice coordinates:
ion Na   0.000000000000000   0.000000000000000   0.000000000000000 0

# Forces in Lattice coordinates:
force Na   0.000000000000000   0.000000000000000   0.000000000000000 0

# Energy components:
   Eewald =      -18.0480261003326561
       EH =       15.7347163488355530
     Eloc =      -42.7468326800778300
      Enl =      -12.9140485713312962
   Epulay =        0.0000007725295140
      Exc =       -6.2187627746616574
       KE =       21.6233037398320320
-------------------------------------
     Etot =      -42.5696492652063441
       TS =        0.0000006323697840
-------------------------------------
        F =      -42.5696498975761273

IonicMinimize: Iter:   0  F: -42.569649897576127  |grad|_K:  0.000e+00  t[s]:     48.01
IonicMinimize: Converged (|grad|_K<1.000000e-04).

#--- Lowdin population analysis ---
# oxidation-state Na +0.064
# magnetic-moments Na +0.481

End date and time: Sat Feb  5 22:33:38 2022  (Duration: 0-0:00:48.03)
Done!
