
*************** JDFTx 1.6.0 (git hash 42ebbcc2) ***************

Start date and time: Sat Feb  5 22:20:46 2022
Executable jdftx with command-line: -i Alkali.in
Running on hosts (process indices):  d-6-12-3 (0-18)
Divided in process groups (process indices):  0 (0)  1 (1)  2 (2)  3 (3)  4 (4)  5 (5)  6 (6)  7 (7)  8 (8)  9 (9)  10 (10)  11 (11)  12 (12)  13 (13)  14 (14)  15 (15)  16 (16)  17 (17)  18 (18)
Resource initialization completed at t[s]:      0.00
Run totals: 19 processes, 48 threads, 0 GPUs


Input parsed successfully to the following command list (including defaults):

basis kpoint-dependent
coords-type Lattice
core-overlap-check vector
coulomb-interaction Slab 001
davidson-band-ratio 1.1
dump End None
dump-name $INPUT.$VAR
elec-cutoff 20
elec-eigen-algo Davidson
elec-ex-corr gga-PBE
elec-initial-magnetization -0.740000 yes
elec-smearing Fermi 1e-05
electronic-minimize  \
	dirUpdateScheme      FletcherReeves \
	linminMethod         DirUpdateRecommended \
	nIterations          100 \
	history              15 \
	knormThreshold       0 \
	energyDiffThreshold  1e-08 \
	nEnergyDiff          2 \
	alphaTstart          1 \
	alphaTmin            1e-10 \
	updateTestStepSize   yes \
	alphaTreduceFactor   0.1 \
	alphaTincreaseFactor 3 \
	nAlphaAdjustMax      3 \
	wolfeEnergy          0.0001 \
	wolfeGradient        0.9 \
	fdTest               no
electronic-scf  \
	nIterations	10000 \
	energyDiffThreshold	1e-08 \
	residualThreshold	1e-07 \
	mixFraction	0.5 \
	qMetric	0.8 \
	history	10 \
	nEigSteps	2 \
	eigDiffThreshold	1e-08 \
	mixedVariable	Density \
	qKerker	0.8 \
	qKappa	-1 \
	verbose	no \
	mixFractionMag	1.5
exchange-regularization WignerSeitzTruncated
fluid None
fluid-ex-corr (null) lda-PZ
fluid-gummel-loop 10 1.000000e-05
fluid-minimize  \
	dirUpdateScheme      PolakRibiere \
	linminMethod         DirUpdateRecommended \
	nIterations          100 \
	history              15 \
	knormThreshold       0 \
	energyDiffThreshold  0 \
	nEnergyDiff          2 \
	alphaTstart          1 \
	alphaTmin            1e-10 \
	updateTestStepSize   yes \
	alphaTreduceFactor   0.1 \
	alphaTincreaseFactor 3 \
	nAlphaAdjustMax      3 \
	wolfeEnergy          0.0001 \
	wolfeGradient        0.9 \
	fdTest               no
fluid-solvent H2O 55.338 ScalarEOS \
	epsBulk 78.4 \
	pMol 0.92466 \
	epsInf 1.77 \
	Pvap 1.06736e-10 \
	sigmaBulk 4.62e-05 \
	Rvdw 2.61727 \
	Res 1.42 \
	tauNuc 343133 \
	poleEl 15 7 1
forces-output-coords Positions
ion Na   0.000000000000000   0.000000000000000   0.000000000000000 0
ion-species SG15/$ID_ONCV_PBE.upf
ion-width 0
ionic-minimize  \
	dirUpdateScheme      L-BFGS \
	linminMethod         DirUpdateRecommended \
	nIterations          0 \
	history              15 \
	knormThreshold       0.0001 \
	energyDiffThreshold  1e-06 \
	nEnergyDiff          2 \
	alphaTstart          1 \
	alphaTmin            1e-10 \
	updateTestStepSize   yes \
	alphaTreduceFactor   0.1 \
	alphaTincreaseFactor 3 \
	nAlphaAdjustMax      3 \
	wolfeEnergy          0.0001 \
	wolfeGradient        0.9 \
	fdTest               no
kpoint   0.000000000000   0.000000000000   0.000000000000  1.00000000000000
kpoint-folding 12 12 1 
latt-move-scale 1 1 1
latt-scale 2 2 1 
lattice  \
	   4.727486978767153   -2.363743489383575    0.000000000000000  \
	  -0.000000000000000    4.094123819672498    0.000000000000000  \
	   0.000000000000000    0.000000000000000   40.000000000000000 
lattice-minimize  \
	dirUpdateScheme      L-BFGS \
	linminMethod         DirUpdateRecommended \
	nIterations          0 \
	history              15 \
	knormThreshold       0 \
	energyDiffThreshold  1e-06 \
	nEnergyDiff          2 \
	alphaTstart          1 \
	alphaTmin            1e-10 \
	updateTestStepSize   yes \
	alphaTreduceFactor   0.1 \
	alphaTincreaseFactor 3 \
	nAlphaAdjustMax      3 \
	wolfeEnergy          0.0001 \
	wolfeGradient        0.9 \
	fdTest               no
lcao-params -1 1e-06 1e-05
pcm-variant GLSSA13
spintype z-spin
subspace-rotation-factor 1 yes
symmetries automatic
symmetry-threshold 0.0001



---------- Setting up symmetries ----------

Found 24 point-group symmetries of the bravais lattice
Found 24 space-group symmetries with basis
Applied RMS atom displacement 0 bohrs to make symmetries exact.

---------- Initializing the Grid ----------
R = 
[      9.45497     -4.72749            0  ]
[            0      8.18825            0  ]
[            0            0           40  ]
unit cell volume = 3096.79
G =
[   0.664538   0.383671         -0  ]
[          0   0.767342         -0  ]
[         -0         -0    0.15708  ]
Minimum fftbox size, Smin = [  40  40  164  ]
Chosen fftbox size, S = [  40  40  168  ]

---------- Exchange Correlation functional ----------
Initalized PBE GGA exchange.
Initalized PBE GGA correlation.

---------- Setting up pseudopotentials ----------
Width of ionic core gaussian charges (only for fluid interactions / plotting) set to 0

Reading pseudopotential file '/home/gridsan/aligho/DFT/build-Nov24/pseudopotentials/SG15/Na_ONCV_PBE.upf':
  'Na' pseudopotential, 'PBE' functional
  Generated using ONCVPSP code by D. R. Hamann
  Author: Martin Schlipf and Francois Gygi  Date: 150915.
  9 valence electrons, 3 orbitals, 4 projectors, 1992 radial grid points, with lMax = 1
  Transforming local potential to a uniform radial grid of dG=0.02 with 1489 points.
  Transforming nonlocal projectors to a uniform radial grid of dG=0.02 with 432 points.
    2S    l: 0   occupation:  2.0   eigenvalue: -2.085640
    2P    l: 1   occupation:  6.0   eigenvalue: -1.053708
    3S    l: 0   occupation:  1.0   eigenvalue: -0.100838
  Transforming atomic orbitals to a uniform radial grid of dG=0.02 with 432 points.
  Core radius for overlap checks: 2.01 bohrs.
  Reading pulay file /home/gridsan/aligho/DFT/build-Nov24/pseudopotentials/SG15/Na_ONCV_PBE.pulay ... using dE_dnG = -2.946487e-03 computed for Ecut = 20.

Initialized 1 species with 1 total atoms.

Folded 1 k-points by 12x12x1 to 144 k-points.

---------- Setting up k-points, bands, fillings ----------
Reduced to 19 k-points under symmetry. 
Computing the number of bands and number of electrons
Calculating initial fillings.
nElectrons:   9.000000   nBands: 6   nStates: 38

----- Setting up reduced wavefunction bases (one per k-point) -----
average nbasis = 13230.521 , ideal nbasis = 13229.709

---------- Setting up coulomb interaction ----------
Initialized slab truncation along lattice direction 001

---------- Setting up 2D ewald sum ----------
Optimum gaussian width for ewald sums = 5.249020 bohr.
Real space sums over 289 unit cells with max indices [  8  8  0  ]
Reciprocal space sums over 81 terms with max indices [  4  4  0  ]

---------- Allocating electronic variables ----------
Initializing wave functions:  linear combination of atomic orbitals
Note: number of bands (6) exceeds available atomic orbitals (5)
Na pseudo-atom occupations:   s ( 2 1 )  p ( 6 )
	FillingsUpdate:  mu: -0.107198175  nElectrons: 9.000000  magneticMoment: [ Abs: 0.74000  Tot: -0.74000 ]
LCAOMinimize: Iter:   0  F: -42.5610202677237268  |grad|_K:  1.542e-05  alpha:  1.000e+00
	FillingsUpdate:  mu: -0.107196909  nElectrons: 9.000000  magneticMoment: [ Abs: 0.74000  Tot: -0.74000 ]
LCAOMinimize: Iter:   1  F: -42.5610204291469429  |grad|_K:  1.098e-07  alpha:  9.927e-01  linmin: -1.695e-02  cgtest:  5.072e-01  t[s]:      4.56
LCAOMinimize: Encountered beta<0, resetting CG.
	FillingsUpdate:  mu: -0.107196931  nElectrons: 9.000000  magneticMoment: [ Abs: 0.74000  Tot: -0.74000 ]
LCAOMinimize: Iter:   2  F: -42.5610204291544534  |grad|_K:  3.222e-09  alpha:  9.708e-01  linmin: -7.683e-02  cgtest:  9.902e-01  t[s]:      5.75
LCAOMinimize: Encountered beta<0, resetting CG.
LCAOMinimize: Converged (|Delta F|<1.000000e-06 for 2 iters).


---- Citations for features of the code used in this run ----

   Software package:
      R. Sundararaman, K. Letchworth-Weaver, K.A. Schwarz, D. Gunceler, Y. Ozhabes and T.A. Arias, 'JDFTx: software for joint density-functional theory', SoftwareX 6, 278 (2017)

   gga-PBE exchange-correlation functional:
      J.P. Perdew, K. Burke and M. Ernzerhof, Phys. Rev. Lett. 77, 3865 (1996)

   Pseudopotentials:
      M Schlipf and F Gygi, Comput. Phys. Commun. 196, 36 (2015)

   Truncated Coulomb potentials:
      R. Sundararaman and T.A. Arias, Phys. Rev. B 87, 165122 (2013)

This list may not be complete. Please suggest additional citations or
report any other bugs at https://github.com/shankar1729/jdftx/issues

Initialization completed successfully at t[s]:      5.82


-------- Electronic minimization -----------
Will mix electronic density at each iteration.
	FillingsUpdate:  mu: -0.107196931  nElectrons: 9.000000  magneticMoment: [ Abs: 0.74000  Tot: -0.74000 ]
	FillingsUpdate:  mu: -0.109835566  nElectrons: 9.000000  magneticMoment: [ Abs: 0.74000  Tot: -0.74000 ]
SCF: Cycle:  0   F: -42.566307099905309   dF: -5.287e-03   |Residual|: 1.109e-02   |deigs|: 1.699e-01  t[s]:      8.14
	FillingsUpdate:  mu: -0.109438959  nElectrons: 9.000000  magneticMoment: [ Abs: 0.74001  Tot: -0.74000 ]
SCF: Cycle:  1   F: -42.566524935645859   dF: -2.178e-04   |Residual|: 7.503e-03   |deigs|: 8.800e-03  t[s]:      9.89
	FillingsUpdate:  mu: -0.110042077  nElectrons: 9.000000  magneticMoment: [ Abs: 0.74143  Tot: -0.74000 ]
SCF: Cycle:  2   F: -42.566578570217068   dF: -5.363e-05   |Residual|: 5.010e-03   |deigs|: 6.820e-03  t[s]:     11.68
	FillingsUpdate:  mu: -0.108928269  nElectrons: 9.000000  magneticMoment: [ Abs: 0.74025  Tot: -0.74000 ]
SCF: Cycle:  3   F: -42.566584494188781   dF: -5.924e-06   |Residual|: 2.867e-03   |deigs|: 5.724e-03  t[s]:     13.43
	FillingsUpdate:  mu: -0.108618667  nElectrons: 9.000000  magneticMoment: [ Abs: 0.74024  Tot: -0.74000 ]
SCF: Cycle:  4   F: -42.566599528775768   dF: -1.503e-05   |Residual|: 1.084e-03   |deigs|: 1.555e-03  t[s]:     15.23
	FillingsUpdate:  mu: -0.108489087  nElectrons: 9.000000  magneticMoment: [ Abs: 0.74046  Tot: -0.74000 ]
SCF: Cycle:  5   F: -42.566604809885035   dF: -5.281e-06   |Residual|: 8.218e-04   |deigs|: 3.570e-03  t[s]:     17.01
	FillingsUpdate:  mu: -0.107885756  nElectrons: 9.000000  magneticMoment: [ Abs: 0.74044  Tot: -0.74000 ]
SCF: Cycle:  6   F: -42.566606406856465   dF: -1.597e-06   |Residual|: 6.355e-04   |deigs|: 1.814e-03  t[s]:     18.83
	FillingsUpdate:  mu: -0.107015452  nElectrons: 9.000000  magneticMoment: [ Abs: 0.74221  Tot: -0.74000 ]
SCF: Cycle:  7   F: -42.566605174707277   dF: +1.232e-06   |Residual|: 4.661e-04   |deigs|: 1.017e-03  t[s]:     20.73
	FillingsUpdate:  mu: -0.106224882  nElectrons: 9.000000  magneticMoment: [ Abs: 0.74220  Tot: -0.74000 ]
SCF: Cycle:  8   F: -42.566605589546370   dF: -4.148e-07   |Residual|: 3.883e-04   |deigs|: 1.077e-03  t[s]:     22.66
	FillingsUpdate:  mu: -0.105787021  nElectrons: 9.000000  magneticMoment: [ Abs: 0.74093  Tot: -0.74000 ]
SCF: Cycle:  9   F: -42.566607411347938   dF: -1.822e-06   |Residual|: 3.302e-04   |deigs|: 5.475e-04  t[s]:     24.54
	FillingsUpdate:  mu: -0.105821898  nElectrons: 9.000000  magneticMoment: [ Abs: 0.74085  Tot: -0.74000 ]
SCF: Cycle: 10   F: -42.566608661107445   dF: -1.250e-06   |Residual|: 2.291e-04   |deigs|: 2.204e-04  t[s]:     26.45
	FillingsUpdate:  mu: -0.105245474  nElectrons: 9.000000  magneticMoment: [ Abs: 0.74158  Tot: -0.74000 ]
SCF: Cycle: 11   F: -42.566608073266451   dF: +5.878e-07   |Residual|: 2.154e-04   |deigs|: 7.043e-04  t[s]:     28.36
	FillingsUpdate:  mu: -0.104788020  nElectrons: 9.000000  magneticMoment: [ Abs: 0.74116  Tot: -0.74000 ]
SCF: Cycle: 12   F: -42.566607640942941   dF: +4.323e-07   |Residual|: 1.916e-04   |deigs|: 4.717e-04  t[s]:     30.27
	FillingsUpdate:  mu: -0.104418623  nElectrons: 9.000000  magneticMoment: [ Abs: 0.74184  Tot: -0.74000 ]
SCF: Cycle: 13   F: -42.566608466004745   dF: -8.251e-07   |Residual|: 1.712e-04   |deigs|: 3.781e-04  t[s]:     32.19
	FillingsUpdate:  mu: -0.104068264  nElectrons: 9.000000  magneticMoment: [ Abs: 0.74170  Tot: -0.74000 ]
SCF: Cycle: 14   F: -42.566609178094396   dF: -7.121e-07   |Residual|: 1.559e-04   |deigs|: 3.475e-04  t[s]:     34.14
	FillingsUpdate:  mu: -0.103437405  nElectrons: 9.000000  magneticMoment: [ Abs: 0.74089  Tot: -0.74000 ]
SCF: Cycle: 15   F: -42.566609764002777   dF: -5.859e-07   |Residual|: 1.422e-04   |deigs|: 6.579e-04  t[s]:     36.06
	FillingsUpdate:  mu: -0.103107287  nElectrons: 9.000000  magneticMoment: [ Abs: 0.74088  Tot: -0.74000 ]
SCF: Cycle: 16   F: -42.566609961190515   dF: -1.972e-07   |Residual|: 1.272e-04   |deigs|: 3.342e-04  t[s]:     37.99
	FillingsUpdate:  mu: -0.102667944  nElectrons: 9.000000  magneticMoment: [ Abs: 0.74069  Tot: -0.74000 ]
SCF: Cycle: 17   F: -42.566610270285786   dF: -3.091e-07   |Residual|: 8.076e-05   |deigs|: 4.305e-04  t[s]:     39.87
	FillingsUpdate:  mu: -0.102533866  nElectrons: 9.000000  magneticMoment: [ Abs: 0.74051  Tot: -0.74000 ]
SCF: Cycle: 18   F: -42.566610350472217   dF: -8.019e-08   |Residual|: 5.485e-05   |deigs|: 6.557e-04  t[s]:     41.78
	FillingsUpdate:  mu: -0.102491167  nElectrons: 9.000000  magneticMoment: [ Abs: 0.74062  Tot: -0.74000 ]
SCF: Cycle: 19   F: -42.566610383055369   dF: -3.258e-08   |Residual|: 3.222e-05   |deigs|: 2.624e-04  t[s]:     43.71
	FillingsUpdate:  mu: -0.102471308  nElectrons: 9.000000  magneticMoment: [ Abs: 0.74059  Tot: -0.74000 ]
SCF: Cycle: 20   F: -42.566610397864665   dF: -1.481e-08   |Residual|: 2.054e-05   |deigs|: 1.039e-04  t[s]:     45.75
	FillingsUpdate:  mu: -0.102467054  nElectrons: 9.000000  magneticMoment: [ Abs: 0.74050  Tot: -0.74000 ]
SCF: Cycle: 21   F: -42.566610404514499   dF: -6.650e-09   |Residual|: 1.256e-05   |deigs|: 1.040e-04  t[s]:     47.70
	FillingsUpdate:  mu: -0.102464244  nElectrons: 9.000000  magneticMoment: [ Abs: 0.74049  Tot: -0.74000 ]
SCF: Cycle: 22   F: -42.566610407946506   dF: -3.432e-09   |Residual|: 7.926e-06   |deigs|: 1.078e-04  t[s]:     49.59
SCF: Converged (|Delta E|<1.000000e-08 for 2 iters).


# Ionic positions in lattice coordinates:
ion Na   0.000000000000000   0.000000000000000   0.000000000000000 0

# Forces in Lattice coordinates:
force Na   0.000000000000000   0.000000000000000   0.000000000000000 0

# Energy components:
   Eewald =      -18.0480261003326561
       EH =       15.7494189852189255
     Eloc =      -42.7628431150462518
      Enl =      -12.9144858314856457
   Epulay =        0.0000007725295140
      Exc =       -6.2214876347278807
       KE =       21.6308128773803432
-------------------------------------
     Etot =      -42.5666100464636585
       TS =        0.0000003614828468
-------------------------------------
        F =      -42.5666104079465057

IonicMinimize: Iter:   0  F: -42.566610407946506  |grad|_K:  0.000e+00  t[s]:     49.68
IonicMinimize: Converged (|grad|_K<1.000000e-04).

#--- Lowdin population analysis ---
# oxidation-state Na +0.080
# magnetic-moments Na -0.663

End date and time: Sat Feb  5 22:21:36 2022  (Duration: 0-0:00:49.70)
Done!
