
*************** JDFTx 1.6.0 (git hash 42ebbcc2) ***************

Start date and time: Sat Feb  5 22:27:06 2022
Executable jdftx with command-line: -i Alkali.in
Running on hosts (process indices):  d-3-11-1 (0-18)
Divided in process groups (process indices):  0 (0)  1 (1)  2 (2)  3 (3)  4 (4)  5 (5)  6 (6)  7 (7)  8 (8)  9 (9)  10 (10)  11 (11)  12 (12)  13 (13)  14 (14)  15 (15)  16 (16)  17 (17)  18 (18)
Resource initialization completed at t[s]:      0.00
Run totals: 19 processes, 48 threads, 0 GPUs


Input parsed successfully to the following command list (including defaults):

basis kpoint-dependent
coords-type Lattice
core-overlap-check vector
coulomb-interaction Slab 001
davidson-band-ratio 1.1
dump End None
dump-name $INPUT.$VAR
elec-cutoff 20
elec-eigen-algo Davidson
elec-ex-corr gga-PBE
elec-initial-magnetization -0.260000 yes
elec-smearing Fermi 1e-05
electronic-minimize  \
	dirUpdateScheme      FletcherReeves \
	linminMethod         DirUpdateRecommended \
	nIterations          100 \
	history              15 \
	knormThreshold       0 \
	energyDiffThreshold  1e-08 \
	nEnergyDiff          2 \
	alphaTstart          1 \
	alphaTmin            1e-10 \
	updateTestStepSize   yes \
	alphaTreduceFactor   0.1 \
	alphaTincreaseFactor 3 \
	nAlphaAdjustMax      3 \
	wolfeEnergy          0.0001 \
	wolfeGradient        0.9 \
	fdTest               no
electronic-scf  \
	nIterations	10000 \
	energyDiffThreshold	1e-08 \
	residualThreshold	1e-07 \
	mixFraction	0.5 \
	qMetric	0.8 \
	history	10 \
	nEigSteps	2 \
	eigDiffThreshold	1e-08 \
	mixedVariable	Density \
	qKerker	0.8 \
	qKappa	-1 \
	verbose	no \
	mixFractionMag	1.5
exchange-regularization WignerSeitzTruncated
fluid None
fluid-ex-corr (null) lda-PZ
fluid-gummel-loop 10 1.000000e-05
fluid-minimize  \
	dirUpdateScheme      PolakRibiere \
	linminMethod         DirUpdateRecommended \
	nIterations          100 \
	history              15 \
	knormThreshold       0 \
	energyDiffThreshold  0 \
	nEnergyDiff          2 \
	alphaTstart          1 \
	alphaTmin            1e-10 \
	updateTestStepSize   yes \
	alphaTreduceFactor   0.1 \
	alphaTincreaseFactor 3 \
	nAlphaAdjustMax      3 \
	wolfeEnergy          0.0001 \
	wolfeGradient        0.9 \
	fdTest               no
fluid-solvent H2O 55.338 ScalarEOS \
	epsBulk 78.4 \
	pMol 0.92466 \
	epsInf 1.77 \
	Pvap 1.06736e-10 \
	sigmaBulk 4.62e-05 \
	Rvdw 2.61727 \
	Res 1.42 \
	tauNuc 343133 \
	poleEl 15 7 1
forces-output-coords Positions
ion Na   0.000000000000000   0.000000000000000   0.000000000000000 0
ion-species SG15/$ID_ONCV_PBE.upf
ion-width 0
ionic-minimize  \
	dirUpdateScheme      L-BFGS \
	linminMethod         DirUpdateRecommended \
	nIterations          0 \
	history              15 \
	knormThreshold       0.0001 \
	energyDiffThreshold  1e-06 \
	nEnergyDiff          2 \
	alphaTstart          1 \
	alphaTmin            1e-10 \
	updateTestStepSize   yes \
	alphaTreduceFactor   0.1 \
	alphaTincreaseFactor 3 \
	nAlphaAdjustMax      3 \
	wolfeEnergy          0.0001 \
	wolfeGradient        0.9 \
	fdTest               no
kpoint   0.000000000000   0.000000000000   0.000000000000  1.00000000000000
kpoint-folding 12 12 1 
latt-move-scale 1 1 1
latt-scale 2 2 1 
lattice  \
	   4.727486978767153   -2.363743489383575    0.000000000000000  \
	  -0.000000000000000    4.094123819672498    0.000000000000000  \
	   0.000000000000000    0.000000000000000   40.000000000000000 
lattice-minimize  \
	dirUpdateScheme      L-BFGS \
	linminMethod         DirUpdateRecommended \
	nIterations          0 \
	history              15 \
	knormThreshold       0 \
	energyDiffThreshold  1e-06 \
	nEnergyDiff          2 \
	alphaTstart          1 \
	alphaTmin            1e-10 \
	updateTestStepSize   yes \
	alphaTreduceFactor   0.1 \
	alphaTincreaseFactor 3 \
	nAlphaAdjustMax      3 \
	wolfeEnergy          0.0001 \
	wolfeGradient        0.9 \
	fdTest               no
lcao-params -1 1e-06 1e-05
pcm-variant GLSSA13
spintype z-spin
subspace-rotation-factor 1 yes
symmetries automatic
symmetry-threshold 0.0001



---------- Setting up symmetries ----------

Found 24 point-group symmetries of the bravais lattice
Found 24 space-group symmetries with basis
Applied RMS atom displacement 0 bohrs to make symmetries exact.

---------- Initializing the Grid ----------
R = 
[      9.45497     -4.72749            0  ]
[            0      8.18825            0  ]
[            0            0           40  ]
unit cell volume = 3096.79
G =
[   0.664538   0.383671         -0  ]
[          0   0.767342         -0  ]
[         -0         -0    0.15708  ]
Minimum fftbox size, Smin = [  40  40  164  ]
Chosen fftbox size, S = [  40  40  168  ]

---------- Exchange Correlation functional ----------
Initalized PBE GGA exchange.
Initalized PBE GGA correlation.

---------- Setting up pseudopotentials ----------
Width of ionic core gaussian charges (only for fluid interactions / plotting) set to 0

Reading pseudopotential file '/home/gridsan/aligho/DFT/build-Nov24/pseudopotentials/SG15/Na_ONCV_PBE.upf':
  'Na' pseudopotential, 'PBE' functional
  Generated using ONCVPSP code by D. R. Hamann
  Author: Martin Schlipf and Francois Gygi  Date: 150915.
  9 valence electrons, 3 orbitals, 4 projectors, 1992 radial grid points, with lMax = 1
  Transforming local potential to a uniform radial grid of dG=0.02 with 1489 points.
  Transforming nonlocal projectors to a uniform radial grid of dG=0.02 with 432 points.
    2S    l: 0   occupation:  2.0   eigenvalue: -2.085640
    2P    l: 1   occupation:  6.0   eigenvalue: -1.053708
    3S    l: 0   occupation:  1.0   eigenvalue: -0.100838
  Transforming atomic orbitals to a uniform radial grid of dG=0.02 with 432 points.
  Core radius for overlap checks: 2.01 bohrs.
  Reading pulay file /home/gridsan/aligho/DFT/build-Nov24/pseudopotentials/SG15/Na_ONCV_PBE.pulay ... using dE_dnG = -2.946487e-03 computed for Ecut = 20.

Initialized 1 species with 1 total atoms.

Folded 1 k-points by 12x12x1 to 144 k-points.

---------- Setting up k-points, bands, fillings ----------
Reduced to 19 k-points under symmetry. 
Computing the number of bands and number of electrons
Calculating initial fillings.
nElectrons:   9.000000   nBands: 6   nStates: 38

----- Setting up reduced wavefunction bases (one per k-point) -----
average nbasis = 13230.521 , ideal nbasis = 13229.709

---------- Setting up coulomb interaction ----------
Initialized slab truncation along lattice direction 001

---------- Setting up 2D ewald sum ----------
Optimum gaussian width for ewald sums = 5.249020 bohr.
Real space sums over 289 unit cells with max indices [  8  8  0  ]
Reciprocal space sums over 81 terms with max indices [  4  4  0  ]

---------- Allocating electronic variables ----------
Initializing wave functions:  linear combination of atomic orbitals
Note: number of bands (6) exceeds available atomic orbitals (5)
Na pseudo-atom occupations:   s ( 2 1 )  p ( 6 )
	FillingsUpdate:  mu: -0.108210776  nElectrons: 9.000000  magneticMoment: [ Abs: 0.26000  Tot: -0.26000 ]
LCAOMinimize: Iter:   0  F: -42.5680609033693855  |grad|_K:  2.940e-05  alpha:  1.000e+00
	FillingsUpdate:  mu: -0.108206576  nElectrons: 9.000000  magneticMoment: [ Abs: 0.26000  Tot: -0.26000 ]
LCAOMinimize: Iter:   1  F: -42.5680614869942886  |grad|_K:  2.740e-07  alpha:  9.871e-01  linmin: -1.800e-02  cgtest:  6.976e-01  t[s]:      5.02
LCAOMinimize: Encountered beta<0, resetting CG.
	FillingsUpdate:  mu: -0.108206586  nElectrons: 9.000000  magneticMoment: [ Abs: 0.26000  Tot: -0.26000 ]
LCAOMinimize: Iter:   2  F: -42.5680614870454193  |grad|_K:  2.568e-09  alpha:  9.919e-01  linmin: -3.337e-02  cgtest:  9.972e-01  t[s]:      6.21
LCAOMinimize: Encountered beta<0, resetting CG.
LCAOMinimize: Converged (|Delta F|<1.000000e-06 for 2 iters).


---- Citations for features of the code used in this run ----

   Software package:
      R. Sundararaman, K. Letchworth-Weaver, K.A. Schwarz, D. Gunceler, Y. Ozhabes and T.A. Arias, 'JDFTx: software for joint density-functional theory', SoftwareX 6, 278 (2017)

   gga-PBE exchange-correlation functional:
      J.P. Perdew, K. Burke and M. Ernzerhof, Phys. Rev. Lett. 77, 3865 (1996)

   Pseudopotentials:
      M Schlipf and F Gygi, Comput. Phys. Commun. 196, 36 (2015)

   Truncated Coulomb potentials:
      R. Sundararaman and T.A. Arias, Phys. Rev. B 87, 165122 (2013)

This list may not be complete. Please suggest additional citations or
report any other bugs at https://github.com/shankar1729/jdftx/issues

Initialization completed successfully at t[s]:      6.27


-------- Electronic minimization -----------
Will mix electronic density at each iteration.
	FillingsUpdate:  mu: -0.108206586  nElectrons: 9.000000  magneticMoment: [ Abs: 0.26000  Tot: -0.26000 ]
	FillingsUpdate:  mu: -0.114739974  nElectrons: 9.000000  magneticMoment: [ Abs: 0.26000  Tot: -0.26000 ]
SCF: Cycle:  0   F: -42.572321206429471   dF: -4.260e-03   |Residual|: 7.765e-03   |deigs|: 1.706e-01  t[s]:      8.57
	FillingsUpdate:  mu: -0.114820729  nElectrons: 9.000000  magneticMoment: [ Abs: 0.26000  Tot: -0.26000 ]
SCF: Cycle:  1   F: -42.572400321774651   dF: -7.912e-05   |Residual|: 5.406e-03   |deigs|: 8.824e-03  t[s]:     10.24
	FillingsUpdate:  mu: -0.114614974  nElectrons: 9.000000  magneticMoment: [ Abs: 0.26129  Tot: -0.26000 ]
SCF: Cycle:  2   F: -42.572417026332900   dF: -1.670e-05   |Residual|: 2.791e-03   |deigs|: 6.777e-03  t[s]:     12.03
	FillingsUpdate:  mu: -0.114323549  nElectrons: 9.000000  magneticMoment: [ Abs: 0.26002  Tot: -0.26000 ]
SCF: Cycle:  3   F: -42.572422200174273   dF: -5.174e-06   |Residual|: 1.606e-03   |deigs|: 4.503e-03  t[s]:     13.78
	FillingsUpdate:  mu: -0.113817379  nElectrons: 9.000000  magneticMoment: [ Abs: 0.26002  Tot: -0.26000 ]
SCF: Cycle:  4   F: -42.572426959114324   dF: -4.759e-06   |Residual|: 8.686e-04   |deigs|: 2.397e-03  t[s]:     15.55
	FillingsUpdate:  mu: -0.113438455  nElectrons: 9.000000  magneticMoment: [ Abs: 0.26011  Tot: -0.26000 ]
SCF: Cycle:  5   F: -42.572427445927005   dF: -4.868e-07   |Residual|: 7.172e-04   |deigs|: 1.940e-03  t[s]:     17.34
	FillingsUpdate:  mu: -0.112544630  nElectrons: 9.000000  magneticMoment: [ Abs: 0.26120  Tot: -0.26000 ]
SCF: Cycle:  6   F: -42.572427522922553   dF: -7.700e-08   |Residual|: 5.222e-04   |deigs|: 2.313e-03  t[s]:     19.14
	FillingsUpdate:  mu: -0.111802963  nElectrons: 9.000000  magneticMoment: [ Abs: 0.26167  Tot: -0.26000 ]
SCF: Cycle:  7   F: -42.572426646787136   dF: +8.761e-07   |Residual|: 3.901e-04   |deigs|: 1.021e-03  t[s]:     21.05
	FillingsUpdate:  mu: -0.111208841  nElectrons: 9.000000  magneticMoment: [ Abs: 0.26100  Tot: -0.26000 ]
SCF: Cycle:  8   F: -42.572427523294436   dF: -8.765e-07   |Residual|: 3.429e-04   |deigs|: 7.986e-04  t[s]:     22.90
	FillingsUpdate:  mu: -0.111045371  nElectrons: 9.000000  magneticMoment: [ Abs: 0.26039  Tot: -0.26000 ]
SCF: Cycle:  9   F: -42.572428625425879   dF: -1.102e-06   |Residual|: 2.540e-04   |deigs|: 7.122e-04  t[s]:     24.80
	FillingsUpdate:  mu: -0.110586163  nElectrons: 9.000000  magneticMoment: [ Abs: 0.26110  Tot: -0.26000 ]
SCF: Cycle: 10   F: -42.572428346622381   dF: +2.788e-07   |Residual|: 2.299e-04   |deigs|: 5.529e-04  t[s]:     26.74
	FillingsUpdate:  mu: -0.110107642  nElectrons: 9.000000  magneticMoment: [ Abs: 0.26096  Tot: -0.26000 ]
SCF: Cycle: 11   F: -42.572427288843926   dF: +1.058e-06   |Residual|: 2.110e-04   |deigs|: 5.173e-04  t[s]:     28.66
	FillingsUpdate:  mu: -0.109432212  nElectrons: 9.000000  magneticMoment: [ Abs: 0.26060  Tot: -0.26000 ]
SCF: Cycle: 12   F: -42.572427908212177   dF: -6.194e-07   |Residual|: 1.869e-04   |deigs|: 6.749e-04  t[s]:     30.51
	FillingsUpdate:  mu: -0.109081715  nElectrons: 9.000000  magneticMoment: [ Abs: 0.26129  Tot: -0.26000 ]
SCF: Cycle: 13   F: -42.572429235239710   dF: -1.327e-06   |Residual|: 1.702e-04   |deigs|: 3.748e-04  t[s]:     32.42
	FillingsUpdate:  mu: -0.108747746  nElectrons: 9.000000  magneticMoment: [ Abs: 0.26081  Tot: -0.26000 ]
SCF: Cycle: 14   F: -42.572429982886106   dF: -7.476e-07   |Residual|: 1.558e-04   |deigs|: 3.684e-04  t[s]:     34.31
	FillingsUpdate:  mu: -0.108234571  nElectrons: 9.000000  magneticMoment: [ Abs: 0.26009  Tot: -0.26000 ]
SCF: Cycle: 15   F: -42.572430434106629   dF: -4.512e-07   |Residual|: 1.434e-04   |deigs|: 5.610e-04  t[s]:     36.17
	FillingsUpdate:  mu: -0.107845925  nElectrons: 9.000000  magneticMoment: [ Abs: 0.26029  Tot: -0.26000 ]
SCF: Cycle: 16   F: -42.572430735872111   dF: -3.018e-07   |Residual|: 1.006e-04   |deigs|: 3.948e-04  t[s]:     38.08
	FillingsUpdate:  mu: -0.107617571  nElectrons: 9.000000  magneticMoment: [ Abs: 0.26020  Tot: -0.26000 ]
SCF: Cycle: 17   F: -42.572430840948797   dF: -1.051e-07   |Residual|: 5.706e-05   |deigs|: 2.173e-04  t[s]:     39.95
	FillingsUpdate:  mu: -0.107570117  nElectrons: 9.000000  magneticMoment: [ Abs: 0.26012  Tot: -0.26000 ]
SCF: Cycle: 18   F: -42.572430856547719   dF: -1.560e-08   |Residual|: 3.884e-05   |deigs|: 8.157e-04  t[s]:     41.79
	FillingsUpdate:  mu: -0.107533540  nElectrons: 9.000000  magneticMoment: [ Abs: 0.26013  Tot: -0.26000 ]
SCF: Cycle: 19   F: -42.572430869498433   dF: -1.295e-08   |Residual|: 2.003e-05   |deigs|: 8.944e-05  t[s]:     43.66
	FillingsUpdate:  mu: -0.107532615  nElectrons: 9.000000  magneticMoment: [ Abs: 0.26014  Tot: -0.26000 ]
SCF: Cycle: 20   F: -42.572430874181364   dF: -4.683e-09   |Residual|: 9.944e-06   |deigs|: 3.281e-05  t[s]:     45.53
	FillingsUpdate:  mu: -0.107528214  nElectrons: 9.000000  magneticMoment: [ Abs: 0.26011  Tot: -0.26000 ]
SCF: Cycle: 21   F: -42.572430875345404   dF: -1.164e-09   |Residual|: 5.336e-06   |deigs|: 1.595e-05  t[s]:     47.40
SCF: Converged (|Delta E|<1.000000e-08 for 2 iters).


# Ionic positions in lattice coordinates:
ion Na   0.000000000000000   0.000000000000000   0.000000000000000 0

# Forces in Lattice coordinates:
force Na   0.000000000000000  -0.000000000000000   0.000000000000000 0

# Energy components:
   Eewald =      -18.0480261003326561
       EH =       15.7250422947982624
     Eloc =      -42.7365988399324479
      Enl =      -12.9130769935341778
   Epulay =        0.0000007725295140
      Exc =       -6.2164966249214366
       KE =       21.6167250370967707
-------------------------------------
     Etot =      -42.5724304542961676
       TS =        0.0000004210492349
-------------------------------------
        F =      -42.5724308753454039

IonicMinimize: Iter:   0  F: -42.572430875345404  |grad|_K:  0.000e+00  t[s]:     47.47
IonicMinimize: Converged (|grad|_K<1.000000e-04).

#--- Lowdin population analysis ---
# oxidation-state Na +0.041
# magnetic-moments Na -0.233

End date and time: Sat Feb  5 22:27:53 2022  (Duration: 0-0:00:47.50)
Done!
