
*************** JDFTx 1.6.0 (git hash 42ebbcc2) ***************

Start date and time: Sat Feb  5 22:27:05 2022
Executable jdftx with command-line: -i Alkali.in
Running on hosts (process indices):  d-4-7-2 (0-18)
Divided in process groups (process indices):  0 (0)  1 (1)  2 (2)  3 (3)  4 (4)  5 (5)  6 (6)  7 (7)  8 (8)  9 (9)  10 (10)  11 (11)  12 (12)  13 (13)  14 (14)  15 (15)  16 (16)  17 (17)  18 (18)
Resource initialization completed at t[s]:      0.00
Run totals: 19 processes, 48 threads, 0 GPUs


Input parsed successfully to the following command list (including defaults):

basis kpoint-dependent
coords-type Lattice
core-overlap-check vector
coulomb-interaction Slab 001
davidson-band-ratio 1.1
dump End None
dump-name $INPUT.$VAR
elec-cutoff 20
elec-eigen-algo Davidson
elec-ex-corr gga-PBE
elec-initial-magnetization -0.240000 yes
elec-smearing Fermi 1e-05
electronic-minimize  \
	dirUpdateScheme      FletcherReeves \
	linminMethod         DirUpdateRecommended \
	nIterations          100 \
	history              15 \
	knormThreshold       0 \
	energyDiffThreshold  1e-08 \
	nEnergyDiff          2 \
	alphaTstart          1 \
	alphaTmin            1e-10 \
	updateTestStepSize   yes \
	alphaTreduceFactor   0.1 \
	alphaTincreaseFactor 3 \
	nAlphaAdjustMax      3 \
	wolfeEnergy          0.0001 \
	wolfeGradient        0.9 \
	fdTest               no
electronic-scf  \
	nIterations	10000 \
	energyDiffThreshold	1e-08 \
	residualThreshold	1e-07 \
	mixFraction	0.5 \
	qMetric	0.8 \
	history	10 \
	nEigSteps	2 \
	eigDiffThreshold	1e-08 \
	mixedVariable	Density \
	qKerker	0.8 \
	qKappa	-1 \
	verbose	no \
	mixFractionMag	1.5
exchange-regularization WignerSeitzTruncated
fluid None
fluid-ex-corr (null) lda-PZ
fluid-gummel-loop 10 1.000000e-05
fluid-minimize  \
	dirUpdateScheme      PolakRibiere \
	linminMethod         DirUpdateRecommended \
	nIterations          100 \
	history              15 \
	knormThreshold       0 \
	energyDiffThreshold  0 \
	nEnergyDiff          2 \
	alphaTstart          1 \
	alphaTmin            1e-10 \
	updateTestStepSize   yes \
	alphaTreduceFactor   0.1 \
	alphaTincreaseFactor 3 \
	nAlphaAdjustMax      3 \
	wolfeEnergy          0.0001 \
	wolfeGradient        0.9 \
	fdTest               no
fluid-solvent H2O 55.338 ScalarEOS \
	epsBulk 78.4 \
	pMol 0.92466 \
	epsInf 1.77 \
	Pvap 1.06736e-10 \
	sigmaBulk 4.62e-05 \
	Rvdw 2.61727 \
	Res 1.42 \
	tauNuc 343133 \
	poleEl 15 7 1
forces-output-coords Positions
ion Na   0.000000000000000   0.000000000000000   0.000000000000000 0
ion-species SG15/$ID_ONCV_PBE.upf
ion-width 0
ionic-minimize  \
	dirUpdateScheme      L-BFGS \
	linminMethod         DirUpdateRecommended \
	nIterations          0 \
	history              15 \
	knormThreshold       0.0001 \
	energyDiffThreshold  1e-06 \
	nEnergyDiff          2 \
	alphaTstart          1 \
	alphaTmin            1e-10 \
	updateTestStepSize   yes \
	alphaTreduceFactor   0.1 \
	alphaTincreaseFactor 3 \
	nAlphaAdjustMax      3 \
	wolfeEnergy          0.0001 \
	wolfeGradient        0.9 \
	fdTest               no
kpoint   0.000000000000   0.000000000000   0.000000000000  1.00000000000000
kpoint-folding 12 12 1 
latt-move-scale 1 1 1
latt-scale 2 2 1 
lattice  \
	   4.727486978767153   -2.363743489383575    0.000000000000000  \
	  -0.000000000000000    4.094123819672498    0.000000000000000  \
	   0.000000000000000    0.000000000000000   40.000000000000000 
lattice-minimize  \
	dirUpdateScheme      L-BFGS \
	linminMethod         DirUpdateRecommended \
	nIterations          0 \
	history              15 \
	knormThreshold       0 \
	energyDiffThreshold  1e-06 \
	nEnergyDiff          2 \
	alphaTstart          1 \
	alphaTmin            1e-10 \
	updateTestStepSize   yes \
	alphaTreduceFactor   0.1 \
	alphaTincreaseFactor 3 \
	nAlphaAdjustMax      3 \
	wolfeEnergy          0.0001 \
	wolfeGradient        0.9 \
	fdTest               no
lcao-params -1 1e-06 1e-05
pcm-variant GLSSA13
spintype z-spin
subspace-rotation-factor 1 yes
symmetries automatic
symmetry-threshold 0.0001



---------- Setting up symmetries ----------

Found 24 point-group symmetries of the bravais lattice
Found 24 space-group symmetries with basis
Applied RMS atom displacement 0 bohrs to make symmetries exact.

---------- Initializing the Grid ----------
R = 
[      9.45497     -4.72749            0  ]
[            0      8.18825            0  ]
[            0            0           40  ]
unit cell volume = 3096.79
G =
[   0.664538   0.383671         -0  ]
[          0   0.767342         -0  ]
[         -0         -0    0.15708  ]
Minimum fftbox size, Smin = [  40  40  164  ]
Chosen fftbox size, S = [  40  40  168  ]

---------- Exchange Correlation functional ----------
Initalized PBE GGA exchange.
Initalized PBE GGA correlation.

---------- Setting up pseudopotentials ----------
Width of ionic core gaussian charges (only for fluid interactions / plotting) set to 0

Reading pseudopotential file '/home/gridsan/aligho/DFT/build-Nov24/pseudopotentials/SG15/Na_ONCV_PBE.upf':
  'Na' pseudopotential, 'PBE' functional
  Generated using ONCVPSP code by D. R. Hamann
  Author: Martin Schlipf and Francois Gygi  Date: 150915.
  9 valence electrons, 3 orbitals, 4 projectors, 1992 radial grid points, with lMax = 1
  Transforming local potential to a uniform radial grid of dG=0.02 with 1489 points.
  Transforming nonlocal projectors to a uniform radial grid of dG=0.02 with 432 points.
    2S    l: 0   occupation:  2.0   eigenvalue: -2.085640
    2P    l: 1   occupation:  6.0   eigenvalue: -1.053708
    3S    l: 0   occupation:  1.0   eigenvalue: -0.100838
  Transforming atomic orbitals to a uniform radial grid of dG=0.02 with 432 points.
  Core radius for overlap checks: 2.01 bohrs.
  Reading pulay file /home/gridsan/aligho/DFT/build-Nov24/pseudopotentials/SG15/Na_ONCV_PBE.pulay ... using dE_dnG = -2.946487e-03 computed for Ecut = 20.

Initialized 1 species with 1 total atoms.

Folded 1 k-points by 12x12x1 to 144 k-points.

---------- Setting up k-points, bands, fillings ----------
Reduced to 19 k-points under symmetry. 
Computing the number of bands and number of electrons
Calculating initial fillings.
nElectrons:   9.000000   nBands: 6   nStates: 38

----- Setting up reduced wavefunction bases (one per k-point) -----
average nbasis = 13230.521 , ideal nbasis = 13229.709

---------- Setting up coulomb interaction ----------
Initialized slab truncation along lattice direction 001

---------- Setting up 2D ewald sum ----------
Optimum gaussian width for ewald sums = 5.249020 bohr.
Real space sums over 289 unit cells with max indices [  8  8  0  ]
Reciprocal space sums over 81 terms with max indices [  4  4  0  ]

---------- Allocating electronic variables ----------
Initializing wave functions:  linear combination of atomic orbitals
Note: number of bands (6) exceeds available atomic orbitals (5)
Na pseudo-atom occupations:   s ( 2 1 )  p ( 6 )
	FillingsUpdate:  mu: -0.108285036  nElectrons: 9.000000  magneticMoment: [ Abs: 0.24000  Tot: -0.24000 ]
LCAOMinimize: Iter:   0  F: -42.5682687449884654  |grad|_K:  2.983e-05  alpha:  1.000e+00
	FillingsUpdate:  mu: -0.108280762  nElectrons: 9.000000  magneticMoment: [ Abs: 0.24000  Tot: -0.24000 ]
LCAOMinimize: Iter:   1  F: -42.5682693457487673  |grad|_K:  2.801e-07  alpha:  9.870e-01  linmin: -1.760e-02  cgtest:  7.005e-01  t[s]:      4.58
LCAOMinimize: Encountered beta<0, resetting CG.
	FillingsUpdate:  mu: -0.108280772  nElectrons: 9.000000  magneticMoment: [ Abs: 0.24000  Tot: -0.24000 ]
LCAOMinimize: Iter:   2  F: -42.5682693458024630  |grad|_K:  2.472e-09  alpha:  1.010e+00  linmin:  3.283e-02  cgtest: -9.968e-01  t[s]:      5.76
LCAOMinimize: Converged (|Delta F|<1.000000e-06 for 2 iters).


---- Citations for features of the code used in this run ----

   Software package:
      R. Sundararaman, K. Letchworth-Weaver, K.A. Schwarz, D. Gunceler, Y. Ozhabes and T.A. Arias, 'JDFTx: software for joint density-functional theory', SoftwareX 6, 278 (2017)

   gga-PBE exchange-correlation functional:
      J.P. Perdew, K. Burke and M. Ernzerhof, Phys. Rev. Lett. 77, 3865 (1996)

   Pseudopotentials:
      M Schlipf and F Gygi, Comput. Phys. Commun. 196, 36 (2015)

   Truncated Coulomb potentials:
      R. Sundararaman and T.A. Arias, Phys. Rev. B 87, 165122 (2013)

This list may not be complete. Please suggest additional citations or
report any other bugs at https://github.com/shankar1729/jdftx/issues

Initialization completed successfully at t[s]:      5.83


-------- Electronic minimization -----------
Will mix electronic density at each iteration.
	FillingsUpdate:  mu: -0.108280772  nElectrons: 9.000000  magneticMoment: [ Abs: 0.24000  Tot: -0.24000 ]
	FillingsUpdate:  mu: -0.114820927  nElectrons: 9.000000  magneticMoment: [ Abs: 0.24000  Tot: -0.24000 ]
SCF: Cycle:  0   F: -42.572488597861728   dF: -4.219e-03   |Residual|: 7.633e-03   |deigs|: 1.706e-01  t[s]:      8.08
	FillingsUpdate:  mu: -0.114912493  nElectrons: 9.000000  magneticMoment: [ Abs: 0.24000  Tot: -0.24000 ]
SCF: Cycle:  1   F: -42.572565216416990   dF: -7.662e-05   |Residual|: 5.339e-03   |deigs|: 8.836e-03  t[s]:      9.77
	FillingsUpdate:  mu: -0.114698750  nElectrons: 9.000000  magneticMoment: [ Abs: 0.24128  Tot: -0.24000 ]
SCF: Cycle:  2   F: -42.572582057051939   dF: -1.684e-05   |Residual|: 2.705e-03   |deigs|: 6.802e-03  t[s]:     11.47
	FillingsUpdate:  mu: -0.114389661  nElectrons: 9.000000  magneticMoment: [ Abs: 0.24001  Tot: -0.24000 ]
SCF: Cycle:  3   F: -42.572587168498508   dF: -5.111e-06   |Residual|: 1.558e-03   |deigs|: 4.442e-03  t[s]:     13.20
	FillingsUpdate:  mu: -0.113874696  nElectrons: 9.000000  magneticMoment: [ Abs: 0.24002  Tot: -0.24000 ]
SCF: Cycle:  4   F: -42.572591252710978   dF: -4.084e-06   |Residual|: 8.632e-04   |deigs|: 1.813e-03  t[s]:     14.97
	FillingsUpdate:  mu: -0.113488210  nElectrons: 9.000000  magneticMoment: [ Abs: 0.24010  Tot: -0.24000 ]
SCF: Cycle:  5   F: -42.572591677869973   dF: -4.252e-07   |Residual|: 7.123e-04   |deigs|: 2.629e-03  t[s]:     16.76
	FillingsUpdate:  mu: -0.112561927  nElectrons: 9.000000  magneticMoment: [ Abs: 0.24122  Tot: -0.24000 ]
SCF: Cycle:  6   F: -42.572591723213392   dF: -4.534e-08   |Residual|: 5.160e-04   |deigs|: 2.219e-03  t[s]:     18.63
	FillingsUpdate:  mu: -0.111842301  nElectrons: 9.000000  magneticMoment: [ Abs: 0.24157  Tot: -0.24000 ]
SCF: Cycle:  7   F: -42.572590908264814   dF: +8.149e-07   |Residual|: 3.877e-04   |deigs|: 9.885e-04  t[s]:     20.46
	FillingsUpdate:  mu: -0.111255771  nElectrons: 9.000000  magneticMoment: [ Abs: 0.24092  Tot: -0.24000 ]
SCF: Cycle:  8   F: -42.572591915259046   dF: -1.007e-06   |Residual|: 3.421e-04   |deigs|: 7.867e-04  t[s]:     22.31
	FillingsUpdate:  mu: -0.111102432  nElectrons: 9.000000  magneticMoment: [ Abs: 0.24039  Tot: -0.24000 ]
SCF: Cycle:  9   F: -42.572592875568994   dF: -9.603e-07   |Residual|: 2.500e-04   |deigs|: 5.632e-04  t[s]:     24.20
	FillingsUpdate:  mu: -0.110618346  nElectrons: 9.000000  magneticMoment: [ Abs: 0.24104  Tot: -0.24000 ]
SCF: Cycle: 10   F: -42.572592405537804   dF: +4.700e-07   |Residual|: 2.297e-04   |deigs|: 6.819e-04  t[s]:     26.15
	FillingsUpdate:  mu: -0.110142471  nElectrons: 9.000000  magneticMoment: [ Abs: 0.24089  Tot: -0.24000 ]
SCF: Cycle: 11   F: -42.572591464401235   dF: +9.411e-07   |Residual|: 2.107e-04   |deigs|: 5.101e-04  t[s]:     28.08
	FillingsUpdate:  mu: -0.109473422  nElectrons: 9.000000  magneticMoment: [ Abs: 0.24062  Tot: -0.24000 ]
SCF: Cycle: 12   F: -42.572592262930151   dF: -7.985e-07   |Residual|: 1.848e-04   |deigs|: 6.585e-04  t[s]:     29.99
	FillingsUpdate:  mu: -0.109122716  nElectrons: 9.000000  magneticMoment: [ Abs: 0.24125  Tot: -0.24000 ]
SCF: Cycle: 13   F: -42.572593517850699   dF: -1.255e-06   |Residual|: 1.698e-04   |deigs|: 3.547e-04  t[s]:     31.85
	FillingsUpdate:  mu: -0.108764542  nElectrons: 9.000000  magneticMoment: [ Abs: 0.24076  Tot: -0.24000 ]
SCF: Cycle: 14   F: -42.572594231377529   dF: -7.135e-07   |Residual|: 1.556e-04   |deigs|: 3.985e-04  t[s]:     33.78
	FillingsUpdate:  mu: -0.108241227  nElectrons: 9.000000  magneticMoment: [ Abs: 0.24007  Tot: -0.24000 ]
SCF: Cycle: 15   F: -42.572594689294114   dF: -4.579e-07   |Residual|: 1.400e-04   |deigs|: 5.690e-04  t[s]:     35.64
	FillingsUpdate:  mu: -0.107888174  nElectrons: 9.000000  magneticMoment: [ Abs: 0.24029  Tot: -0.24000 ]
SCF: Cycle: 16   F: -42.572594968991886   dF: -2.797e-07   |Residual|: 9.661e-05   |deigs|: 3.534e-04  t[s]:     37.50
	FillingsUpdate:  mu: -0.107671799  nElectrons: 9.000000  magneticMoment: [ Abs: 0.24018  Tot: -0.24000 ]
SCF: Cycle: 17   F: -42.572595060854390   dF: -9.186e-08   |Residual|: 5.558e-05   |deigs|: 2.085e-04  t[s]:     39.37
	FillingsUpdate:  mu: -0.107625419  nElectrons: 9.000000  magneticMoment: [ Abs: 0.24010  Tot: -0.24000 ]
SCF: Cycle: 18   F: -42.572595075224818   dF: -1.437e-08   |Residual|: 3.722e-05   |deigs|: 8.090e-04  t[s]:     41.22
	FillingsUpdate:  mu: -0.107589907  nElectrons: 9.000000  magneticMoment: [ Abs: 0.24013  Tot: -0.24000 ]
SCF: Cycle: 19   F: -42.572595087744197   dF: -1.252e-08   |Residual|: 1.939e-05   |deigs|: 9.267e-05  t[s]:     43.13
	FillingsUpdate:  mu: -0.107587981  nElectrons: 9.000000  magneticMoment: [ Abs: 0.24013  Tot: -0.24000 ]
SCF: Cycle: 20   F: -42.572595091943796   dF: -4.200e-09   |Residual|: 9.664e-06   |deigs|: 3.842e-05  t[s]:     45.02
	FillingsUpdate:  mu: -0.107584060  nElectrons: 9.000000  magneticMoment: [ Abs: 0.24010  Tot: -0.24000 ]
SCF: Cycle: 21   F: -42.572595093011778   dF: -1.068e-09   |Residual|: 5.343e-06   |deigs|: 1.737e-05  t[s]:     46.93
SCF: Converged (|Delta E|<1.000000e-08 for 2 iters).


# Ionic positions in lattice coordinates:
ion Na   0.000000000000000   0.000000000000000   0.000000000000000 0

# Forces in Lattice coordinates:
force Na   0.000000000000000   0.000000000000000   0.000000000000000 0

# Energy components:
   Eewald =      -18.0480261003326561
       EH =       15.7245657688391667
     Eloc =      -42.7360888280940969
      Enl =      -12.9130345981978358
   Epulay =        0.0000007725295140
      Exc =       -6.2163928256420267
       KE =       21.6163810598133921
-------------------------------------
     Etot =      -42.5725947510845515
       TS =        0.0000003419272244
-------------------------------------
        F =      -42.5725950930117776

IonicMinimize: Iter:   0  F: -42.572595093011778  |grad|_K:  0.000e+00  t[s]:     47.00
IonicMinimize: Converged (|grad|_K<1.000000e-04).

#--- Lowdin population analysis ---
# oxidation-state Na +0.039
# magnetic-moments Na -0.215

End date and time: Sat Feb  5 22:27:52 2022  (Duration: 0-0:00:47.03)
Done!
