
*************** JDFTx 1.6.0 (git hash 42ebbcc2) ***************

Start date and time: Sat Feb  5 22:31:06 2022
Executable jdftx with command-line: -i Alkali.in
Running on hosts (process indices):  d-4-6-3 (0-18)
Divided in process groups (process indices):  0 (0)  1 (1)  2 (2)  3 (3)  4 (4)  5 (5)  6 (6)  7 (7)  8 (8)  9 (9)  10 (10)  11 (11)  12 (12)  13 (13)  14 (14)  15 (15)  16 (16)  17 (17)  18 (18)
Resource initialization completed at t[s]:      0.00
Run totals: 19 processes, 48 threads, 0 GPUs


Input parsed successfully to the following command list (including defaults):

basis kpoint-dependent
coords-type Lattice
core-overlap-check vector
coulomb-interaction Slab 001
davidson-band-ratio 1.1
dump End None
dump-name $INPUT.$VAR
elec-cutoff 20
elec-eigen-algo Davidson
elec-ex-corr gga-PBE
elec-initial-magnetization 0.360000 yes
elec-smearing Fermi 1e-05
electronic-minimize  \
	dirUpdateScheme      FletcherReeves \
	linminMethod         DirUpdateRecommended \
	nIterations          100 \
	history              15 \
	knormThreshold       0 \
	energyDiffThreshold  1e-08 \
	nEnergyDiff          2 \
	alphaTstart          1 \
	alphaTmin            1e-10 \
	updateTestStepSize   yes \
	alphaTreduceFactor   0.1 \
	alphaTincreaseFactor 3 \
	nAlphaAdjustMax      3 \
	wolfeEnergy          0.0001 \
	wolfeGradient        0.9 \
	fdTest               no
electronic-scf  \
	nIterations	10000 \
	energyDiffThreshold	1e-08 \
	residualThreshold	1e-07 \
	mixFraction	0.5 \
	qMetric	0.8 \
	history	10 \
	nEigSteps	2 \
	eigDiffThreshold	1e-08 \
	mixedVariable	Density \
	qKerker	0.8 \
	qKappa	-1 \
	verbose	no \
	mixFractionMag	1.5
exchange-regularization WignerSeitzTruncated
fluid None
fluid-ex-corr (null) lda-PZ
fluid-gummel-loop 10 1.000000e-05
fluid-minimize  \
	dirUpdateScheme      PolakRibiere \
	linminMethod         DirUpdateRecommended \
	nIterations          100 \
	history              15 \
	knormThreshold       0 \
	energyDiffThreshold  0 \
	nEnergyDiff          2 \
	alphaTstart          1 \
	alphaTmin            1e-10 \
	updateTestStepSize   yes \
	alphaTreduceFactor   0.1 \
	alphaTincreaseFactor 3 \
	nAlphaAdjustMax      3 \
	wolfeEnergy          0.0001 \
	wolfeGradient        0.9 \
	fdTest               no
fluid-solvent H2O 55.338 ScalarEOS \
	epsBulk 78.4 \
	pMol 0.92466 \
	epsInf 1.77 \
	Pvap 1.06736e-10 \
	sigmaBulk 4.62e-05 \
	Rvdw 2.61727 \
	Res 1.42 \
	tauNuc 343133 \
	poleEl 15 7 1
forces-output-coords Positions
ion Na   0.000000000000000   0.000000000000000   0.000000000000000 0
ion-species SG15/$ID_ONCV_PBE.upf
ion-width 0
ionic-minimize  \
	dirUpdateScheme      L-BFGS \
	linminMethod         DirUpdateRecommended \
	nIterations          0 \
	history              15 \
	knormThreshold       0.0001 \
	energyDiffThreshold  1e-06 \
	nEnergyDiff          2 \
	alphaTstart          1 \
	alphaTmin            1e-10 \
	updateTestStepSize   yes \
	alphaTreduceFactor   0.1 \
	alphaTincreaseFactor 3 \
	nAlphaAdjustMax      3 \
	wolfeEnergy          0.0001 \
	wolfeGradient        0.9 \
	fdTest               no
kpoint   0.000000000000   0.000000000000   0.000000000000  1.00000000000000
kpoint-folding 12 12 1 
latt-move-scale 1 1 1
latt-scale 2 2 1 
lattice  \
	   4.727486978767153   -2.363743489383575    0.000000000000000  \
	  -0.000000000000000    4.094123819672498    0.000000000000000  \
	   0.000000000000000    0.000000000000000   40.000000000000000 
lattice-minimize  \
	dirUpdateScheme      L-BFGS \
	linminMethod         DirUpdateRecommended \
	nIterations          0 \
	history              15 \
	knormThreshold       0 \
	energyDiffThreshold  1e-06 \
	nEnergyDiff          2 \
	alphaTstart          1 \
	alphaTmin            1e-10 \
	updateTestStepSize   yes \
	alphaTreduceFactor   0.1 \
	alphaTincreaseFactor 3 \
	nAlphaAdjustMax      3 \
	wolfeEnergy          0.0001 \
	wolfeGradient        0.9 \
	fdTest               no
lcao-params -1 1e-06 1e-05
pcm-variant GLSSA13
spintype z-spin
subspace-rotation-factor 1 yes
symmetries automatic
symmetry-threshold 0.0001



---------- Setting up symmetries ----------

Found 24 point-group symmetries of the bravais lattice
Found 24 space-group symmetries with basis
Applied RMS atom displacement 0 bohrs to make symmetries exact.

---------- Initializing the Grid ----------
R = 
[      9.45497     -4.72749            0  ]
[            0      8.18825            0  ]
[            0            0           40  ]
unit cell volume = 3096.79
G =
[   0.664538   0.383671         -0  ]
[          0   0.767342         -0  ]
[         -0         -0    0.15708  ]
Minimum fftbox size, Smin = [  40  40  164  ]
Chosen fftbox size, S = [  40  40  168  ]

---------- Exchange Correlation functional ----------
Initalized PBE GGA exchange.
Initalized PBE GGA correlation.

---------- Setting up pseudopotentials ----------
Width of ionic core gaussian charges (only for fluid interactions / plotting) set to 0

Reading pseudopotential file '/home/gridsan/aligho/DFT/build-Nov24/pseudopotentials/SG15/Na_ONCV_PBE.upf':
  'Na' pseudopotential, 'PBE' functional
  Generated using ONCVPSP code by D. R. Hamann
  Author: Martin Schlipf and Francois Gygi  Date: 150915.
  9 valence electrons, 3 orbitals, 4 projectors, 1992 radial grid points, with lMax = 1
  Transforming local potential to a uniform radial grid of dG=0.02 with 1489 points.
  Transforming nonlocal projectors to a uniform radial grid of dG=0.02 with 432 points.
    2S    l: 0   occupation:  2.0   eigenvalue: -2.085640
    2P    l: 1   occupation:  6.0   eigenvalue: -1.053708
    3S    l: 0   occupation:  1.0   eigenvalue: -0.100838
  Transforming atomic orbitals to a uniform radial grid of dG=0.02 with 432 points.
  Core radius for overlap checks: 2.01 bohrs.
  Reading pulay file /home/gridsan/aligho/DFT/build-Nov24/pseudopotentials/SG15/Na_ONCV_PBE.pulay ... using dE_dnG = -2.946487e-03 computed for Ecut = 20.

Initialized 1 species with 1 total atoms.

Folded 1 k-points by 12x12x1 to 144 k-points.

---------- Setting up k-points, bands, fillings ----------
Reduced to 19 k-points under symmetry. 
Computing the number of bands and number of electrons
Calculating initial fillings.
nElectrons:   9.000000   nBands: 6   nStates: 38

----- Setting up reduced wavefunction bases (one per k-point) -----
average nbasis = 13230.521 , ideal nbasis = 13229.709

---------- Setting up coulomb interaction ----------
Initialized slab truncation along lattice direction 001

---------- Setting up 2D ewald sum ----------
Optimum gaussian width for ewald sums = 5.249020 bohr.
Real space sums over 289 unit cells with max indices [  8  8  0  ]
Reciprocal space sums over 81 terms with max indices [  4  4  0  ]

---------- Allocating electronic variables ----------
Initializing wave functions:  linear combination of atomic orbitals
Note: number of bands (6) exceeds available atomic orbitals (5)
Na pseudo-atom occupations:   s ( 2 1 )  p ( 6 )
	FillingsUpdate:  mu: -0.104070011  nElectrons: 9.000000  magneticMoment: [ Abs: 0.36000  Tot: +0.36000 ]
LCAOMinimize: Iter:   0  F: -42.5667873431720309  |grad|_K:  2.984e-05  alpha:  1.000e+00
	FillingsUpdate:  mu: -0.104068728  nElectrons: 9.000000  magneticMoment: [ Abs: 0.36000  Tot: +0.36000 ]
LCAOMinimize: Iter:   1  F: -42.5667879459006215  |grad|_K:  2.773e-07  alpha:  9.897e-01  linmin: -1.916e-02  cgtest:  6.683e-01  t[s]:      4.52
LCAOMinimize: Encountered beta<0, resetting CG.
	FillingsUpdate:  mu: -0.104068775  nElectrons: 9.000000  magneticMoment: [ Abs: 0.36000  Tot: +0.36000 ]
LCAOMinimize: Iter:   2  F: -42.5667879459542178  |grad|_K:  3.030e-09  alpha:  1.012e+00  linmin:  5.215e-02  cgtest: -9.803e-01  t[s]:      5.76
LCAOMinimize: Converged (|Delta F|<1.000000e-06 for 2 iters).


---- Citations for features of the code used in this run ----

   Software package:
      R. Sundararaman, K. Letchworth-Weaver, K.A. Schwarz, D. Gunceler, Y. Ozhabes and T.A. Arias, 'JDFTx: software for joint density-functional theory', SoftwareX 6, 278 (2017)

   gga-PBE exchange-correlation functional:
      J.P. Perdew, K. Burke and M. Ernzerhof, Phys. Rev. Lett. 77, 3865 (1996)

   Pseudopotentials:
      M Schlipf and F Gygi, Comput. Phys. Commun. 196, 36 (2015)

   Truncated Coulomb potentials:
      R. Sundararaman and T.A. Arias, Phys. Rev. B 87, 165122 (2013)

This list may not be complete. Please suggest additional citations or
report any other bugs at https://github.com/shankar1729/jdftx/issues

Initialization completed successfully at t[s]:      5.83


-------- Electronic minimization -----------
Will mix electronic density at each iteration.
	FillingsUpdate:  mu: -0.104068775  nElectrons: 9.000000  magneticMoment: [ Abs: 0.36000  Tot: +0.36000 ]
	FillingsUpdate:  mu: -0.111212827  nElectrons: 9.000000  magneticMoment: [ Abs: 0.36000  Tot: +0.36000 ]
SCF: Cycle:  0   F: -42.571362914937907   dF: -4.575e-03   |Residual|: 8.608e-03   |deigs|: 1.705e-01  t[s]:      8.09
	FillingsUpdate:  mu: -0.111279766  nElectrons: 9.000000  magneticMoment: [ Abs: 0.36000  Tot: +0.36000 ]
SCF: Cycle:  1   F: -42.571456112041389   dF: -9.320e-05   |Residual|: 5.850e-03   |deigs|: 8.829e-03  t[s]:      9.90
	FillingsUpdate:  mu: -0.111096114  nElectrons: 9.000000  magneticMoment: [ Abs: 0.36129  Tot: +0.36000 ]
SCF: Cycle:  2   F: -42.571473620841168   dF: -1.751e-05   |Residual|: 3.245e-03   |deigs|: 5.972e-03  t[s]:     11.65
	FillingsUpdate:  mu: -0.110888491  nElectrons: 9.000000  magneticMoment: [ Abs: 0.36003  Tot: +0.36000 ]
SCF: Cycle:  3   F: -42.571478194257132   dF: -4.573e-06   |Residual|: 1.864e-03   |deigs|: 5.787e-03  t[s]:     13.39
	FillingsUpdate:  mu: -0.110460764  nElectrons: 9.000000  magneticMoment: [ Abs: 0.36005  Tot: +0.36000 ]
SCF: Cycle:  4   F: -42.571487479216117   dF: -9.285e-06   |Residual|: 9.064e-04   |deigs|: 3.054e-03  t[s]:     15.16
	FillingsUpdate:  mu: -0.110116278  nElectrons: 9.000000  magneticMoment: [ Abs: 0.36015  Tot: +0.36000 ]
SCF: Cycle:  5   F: -42.571488669295654   dF: -1.190e-06   |Residual|: 7.414e-04   |deigs|: 1.858e-03  t[s]:     16.91
	FillingsUpdate:  mu: -0.109374642  nElectrons: 9.000000  magneticMoment: [ Abs: 0.36097  Tot: +0.36000 ]
SCF: Cycle:  6   F: -42.571488959167944   dF: -2.899e-07   |Residual|: 5.519e-04   |deigs|: 1.249e-03  t[s]:     18.70
	FillingsUpdate:  mu: -0.108567007  nElectrons: 9.000000  magneticMoment: [ Abs: 0.36201  Tot: +0.36000 ]
SCF: Cycle:  7   F: -42.571488130715260   dF: +8.285e-07   |Residual|: 4.046e-04   |deigs|: 1.098e-03  t[s]:     20.55
	FillingsUpdate:  mu: -0.107919843  nElectrons: 9.000000  magneticMoment: [ Abs: 0.36140  Tot: +0.36000 ]
SCF: Cycle:  8   F: -42.571488139627881   dF: -8.913e-09   |Residual|: 3.481e-04   |deigs|: 8.715e-04  t[s]:     22.39
	FillingsUpdate:  mu: -0.107658974  nElectrons: 9.000000  magneticMoment: [ Abs: 0.36056  Tot: +0.36000 ]
SCF: Cycle:  9   F: -42.571489588926553   dF: -1.449e-06   |Residual|: 2.828e-04   |deigs|: 3.143e-04  t[s]:     24.26
	FillingsUpdate:  mu: -0.107412864  nElectrons: 9.000000  magneticMoment: [ Abs: 0.36120  Tot: +0.36000 ]
SCF: Cycle: 10   F: -42.571490462148383   dF: -8.732e-07   |Residual|: 2.303e-04   |deigs|: 2.599e-04  t[s]:     26.20
	FillingsUpdate:  mu: -0.106911169  nElectrons: 9.000000  magneticMoment: [ Abs: 0.36125  Tot: +0.36000 ]
SCF: Cycle: 11   F: -42.571489298144193   dF: +1.164e-06   |Residual|: 2.124e-04   |deigs|: 8.892e-04  t[s]:     28.09
	FillingsUpdate:  mu: -0.106255398  nElectrons: 9.000000  magneticMoment: [ Abs: 0.36065  Tot: +0.36000 ]
SCF: Cycle: 12   F: -42.571488969461193   dF: +3.287e-07   |Residual|: 1.956e-04   |deigs|: 6.842e-04  t[s]:     30.01
	FillingsUpdate:  mu: -0.105850784  nElectrons: 9.000000  magneticMoment: [ Abs: 0.36136  Tot: +0.36000 ]
SCF: Cycle: 13   F: -42.571490395556687   dF: -1.426e-06   |Residual|: 1.713e-04   |deigs|: 3.855e-04  t[s]:     31.92
	FillingsUpdate:  mu: -0.105587418  nElectrons: 9.000000  magneticMoment: [ Abs: 0.36102  Tot: +0.36000 ]
SCF: Cycle: 14   F: -42.571491275808178   dF: -8.803e-07   |Residual|: 1.597e-04   |deigs|: 2.793e-04  t[s]:     33.77
	FillingsUpdate:  mu: -0.105061858  nElectrons: 9.000000  magneticMoment: [ Abs: 0.36053  Tot: +0.36000 ]
SCF: Cycle: 15   F: -42.571491678485522   dF: -4.027e-07   |Residual|: 1.524e-04   |deigs|: 5.786e-04  t[s]:     35.65
	FillingsUpdate:  mu: -0.104584922  nElectrons: 9.000000  magneticMoment: [ Abs: 0.36029  Tot: +0.36000 ]
SCF: Cycle: 16   F: -42.571492089243229   dF: -4.108e-07   |Residual|: 1.108e-04   |deigs|: 4.830e-04  t[s]:     37.54
	FillingsUpdate:  mu: -0.104305757  nElectrons: 9.000000  magneticMoment: [ Abs: 0.36033  Tot: +0.36000 ]
SCF: Cycle: 17   F: -42.571492246317547   dF: -1.571e-07   |Residual|: 6.568e-05   |deigs|: 2.517e-04  t[s]:     39.41
	FillingsUpdate:  mu: -0.104246376  nElectrons: 9.000000  magneticMoment: [ Abs: 0.36022  Tot: +0.36000 ]
SCF: Cycle: 18   F: -42.571492273964424   dF: -2.765e-08   |Residual|: 5.156e-05   |deigs|: 1.890e-04  t[s]:     41.24
	FillingsUpdate:  mu: -0.104193866  nElectrons: 9.000000  magneticMoment: [ Abs: 0.36019  Tot: +0.36000 ]
SCF: Cycle: 19   F: -42.571492295555025   dF: -2.159e-08   |Residual|: 2.486e-05   |deigs|: 9.224e-05  t[s]:     43.07
	FillingsUpdate:  mu: -0.104184165  nElectrons: 9.000000  magneticMoment: [ Abs: 0.36023  Tot: +0.36000 ]
SCF: Cycle: 20   F: -42.571492303016662   dF: -7.462e-09   |Residual|: 1.182e-05   |deigs|: 6.557e-05  t[s]:     44.92
	FillingsUpdate:  mu: -0.104180938  nElectrons: 9.000000  magneticMoment: [ Abs: 0.36018  Tot: +0.36000 ]
SCF: Cycle: 21   F: -42.571492304129244   dF: -1.113e-09   |Residual|: 7.823e-06   |deigs|: 9.638e-04  t[s]:     46.76
SCF: Converged (|Delta E|<1.000000e-08 for 2 iters).


# Ionic positions in lattice coordinates:
ion Na   0.000000000000000   0.000000000000000   0.000000000000000 0

# Forces in Lattice coordinates:
force Na  -0.000000000000000   0.000000000000000   0.000000000000000 0

# Energy components:
   Eewald =      -18.0480261003326561
       EH =       15.7277060130837434
     Eloc =      -42.7394172400389536
      Enl =      -12.9133839793535934
   Epulay =        0.0000007725295140
      Exc =       -6.2171261391175108
       KE =       21.6187550691778476
-------------------------------------
     Etot =      -42.5714916040516158
       TS =        0.0000007000776280
-------------------------------------
        F =      -42.5714923041292437

IonicMinimize: Iter:   0  F: -42.571492304129244  |grad|_K:  0.000e+00  t[s]:     46.83
IonicMinimize: Converged (|grad|_K<1.000000e-04).

#--- Lowdin population analysis ---
# oxidation-state Na +0.048
# magnetic-moments Na +0.322

End date and time: Sat Feb  5 22:31:53 2022  (Duration: 0-0:00:46.86)
Done!
