
*************** JDFTx 1.6.0 (git hash 42ebbcc2) ***************

Start date and time: Sat Feb  5 22:20:47 2022
Executable jdftx with command-line: -i Alkali.in
Running on hosts (process indices):  d-5-12-1 (0-18)
Divided in process groups (process indices):  0 (0)  1 (1)  2 (2)  3 (3)  4 (4)  5 (5)  6 (6)  7 (7)  8 (8)  9 (9)  10 (10)  11 (11)  12 (12)  13 (13)  14 (14)  15 (15)  16 (16)  17 (17)  18 (18)
Resource initialization completed at t[s]:      0.00
Run totals: 19 processes, 48 threads, 0 GPUs


Input parsed successfully to the following command list (including defaults):

basis kpoint-dependent
coords-type Lattice
core-overlap-check vector
coulomb-interaction Slab 001
davidson-band-ratio 1.1
dump End None
dump-name $INPUT.$VAR
elec-cutoff 20
elec-eigen-algo Davidson
elec-ex-corr gga-PBE
elec-initial-magnetization -0.860000 yes
elec-smearing Fermi 1e-05
electronic-minimize  \
	dirUpdateScheme      FletcherReeves \
	linminMethod         DirUpdateRecommended \
	nIterations          100 \
	history              15 \
	knormThreshold       0 \
	energyDiffThreshold  1e-08 \
	nEnergyDiff          2 \
	alphaTstart          1 \
	alphaTmin            1e-10 \
	updateTestStepSize   yes \
	alphaTreduceFactor   0.1 \
	alphaTincreaseFactor 3 \
	nAlphaAdjustMax      3 \
	wolfeEnergy          0.0001 \
	wolfeGradient        0.9 \
	fdTest               no
electronic-scf  \
	nIterations	10000 \
	energyDiffThreshold	1e-08 \
	residualThreshold	1e-07 \
	mixFraction	0.5 \
	qMetric	0.8 \
	history	10 \
	nEigSteps	2 \
	eigDiffThreshold	1e-08 \
	mixedVariable	Density \
	qKerker	0.8 \
	qKappa	-1 \
	verbose	no \
	mixFractionMag	1.5
exchange-regularization WignerSeitzTruncated
fluid None
fluid-ex-corr (null) lda-PZ
fluid-gummel-loop 10 1.000000e-05
fluid-minimize  \
	dirUpdateScheme      PolakRibiere \
	linminMethod         DirUpdateRecommended \
	nIterations          100 \
	history              15 \
	knormThreshold       0 \
	energyDiffThreshold  0 \
	nEnergyDiff          2 \
	alphaTstart          1 \
	alphaTmin            1e-10 \
	updateTestStepSize   yes \
	alphaTreduceFactor   0.1 \
	alphaTincreaseFactor 3 \
	nAlphaAdjustMax      3 \
	wolfeEnergy          0.0001 \
	wolfeGradient        0.9 \
	fdTest               no
fluid-solvent H2O 55.338 ScalarEOS \
	epsBulk 78.4 \
	pMol 0.92466 \
	epsInf 1.77 \
	Pvap 1.06736e-10 \
	sigmaBulk 4.62e-05 \
	Rvdw 2.61727 \
	Res 1.42 \
	tauNuc 343133 \
	poleEl 15 7 1
forces-output-coords Positions
ion Na   0.000000000000000   0.000000000000000   0.000000000000000 0
ion-species SG15/$ID_ONCV_PBE.upf
ion-width 0
ionic-minimize  \
	dirUpdateScheme      L-BFGS \
	linminMethod         DirUpdateRecommended \
	nIterations          0 \
	history              15 \
	knormThreshold       0.0001 \
	energyDiffThreshold  1e-06 \
	nEnergyDiff          2 \
	alphaTstart          1 \
	alphaTmin            1e-10 \
	updateTestStepSize   yes \
	alphaTreduceFactor   0.1 \
	alphaTincreaseFactor 3 \
	nAlphaAdjustMax      3 \
	wolfeEnergy          0.0001 \
	wolfeGradient        0.9 \
	fdTest               no
kpoint   0.000000000000   0.000000000000   0.000000000000  1.00000000000000
kpoint-folding 12 12 1 
latt-move-scale 1 1 1
latt-scale 2 2 1 
lattice  \
	   4.727486978767153   -2.363743489383575    0.000000000000000  \
	  -0.000000000000000    4.094123819672498    0.000000000000000  \
	   0.000000000000000    0.000000000000000   40.000000000000000 
lattice-minimize  \
	dirUpdateScheme      L-BFGS \
	linminMethod         DirUpdateRecommended \
	nIterations          0 \
	history              15 \
	knormThreshold       0 \
	energyDiffThreshold  1e-06 \
	nEnergyDiff          2 \
	alphaTstart          1 \
	alphaTmin            1e-10 \
	updateTestStepSize   yes \
	alphaTreduceFactor   0.1 \
	alphaTincreaseFactor 3 \
	nAlphaAdjustMax      3 \
	wolfeEnergy          0.0001 \
	wolfeGradient        0.9 \
	fdTest               no
lcao-params -1 1e-06 1e-05
pcm-variant GLSSA13
spintype z-spin
subspace-rotation-factor 1 yes
symmetries automatic
symmetry-threshold 0.0001



---------- Setting up symmetries ----------

Found 24 point-group symmetries of the bravais lattice
Found 24 space-group symmetries with basis
Applied RMS atom displacement 0 bohrs to make symmetries exact.

---------- Initializing the Grid ----------
R = 
[      9.45497     -4.72749            0  ]
[            0      8.18825            0  ]
[            0            0           40  ]
unit cell volume = 3096.79
G =
[   0.664538   0.383671         -0  ]
[          0   0.767342         -0  ]
[         -0         -0    0.15708  ]
Minimum fftbox size, Smin = [  40  40  164  ]
Chosen fftbox size, S = [  40  40  168  ]

---------- Exchange Correlation functional ----------
Initalized PBE GGA exchange.
Initalized PBE GGA correlation.

---------- Setting up pseudopotentials ----------
Width of ionic core gaussian charges (only for fluid interactions / plotting) set to 0

Reading pseudopotential file '/home/gridsan/aligho/DFT/build-Nov24/pseudopotentials/SG15/Na_ONCV_PBE.upf':
  'Na' pseudopotential, 'PBE' functional
  Generated using ONCVPSP code by D. R. Hamann
  Author: Martin Schlipf and Francois Gygi  Date: 150915.
  9 valence electrons, 3 orbitals, 4 projectors, 1992 radial grid points, with lMax = 1
  Transforming local potential to a uniform radial grid of dG=0.02 with 1489 points.
  Transforming nonlocal projectors to a uniform radial grid of dG=0.02 with 432 points.
    2S    l: 0   occupation:  2.0   eigenvalue: -2.085640
    2P    l: 1   occupation:  6.0   eigenvalue: -1.053708
    3S    l: 0   occupation:  1.0   eigenvalue: -0.100838
  Transforming atomic orbitals to a uniform radial grid of dG=0.02 with 432 points.
  Core radius for overlap checks: 2.01 bohrs.
  Reading pulay file /home/gridsan/aligho/DFT/build-Nov24/pseudopotentials/SG15/Na_ONCV_PBE.pulay ... using dE_dnG = -2.946487e-03 computed for Ecut = 20.

Initialized 1 species with 1 total atoms.

Folded 1 k-points by 12x12x1 to 144 k-points.

---------- Setting up k-points, bands, fillings ----------
Reduced to 19 k-points under symmetry. 
Computing the number of bands and number of electrons
Calculating initial fillings.
nElectrons:   9.000000   nBands: 6   nStates: 38

----- Setting up reduced wavefunction bases (one per k-point) -----
average nbasis = 13230.521 , ideal nbasis = 13229.709

---------- Setting up coulomb interaction ----------
Initialized slab truncation along lattice direction 001

---------- Setting up 2D ewald sum ----------
Optimum gaussian width for ewald sums = 5.249020 bohr.
Real space sums over 289 unit cells with max indices [  8  8  0  ]
Reciprocal space sums over 81 terms with max indices [  4  4  0  ]

---------- Allocating electronic variables ----------
Initializing wave functions:  linear combination of atomic orbitals
Note: number of bands (6) exceeds available atomic orbitals (5)
Na pseudo-atom occupations:   s ( 2 1 )  p ( 6 )
	FillingsUpdate:  mu: -0.104528793  nElectrons: 9.000000  magneticMoment: [ Abs: 0.86000  Tot: -0.86000 ]
LCAOMinimize: Iter:   0  F: -42.5583174456336550  |grad|_K:  8.455e-06  alpha:  1.000e+00
	FillingsUpdate:  mu: -0.104528495  nElectrons: 9.000000  magneticMoment: [ Abs: 0.86000  Tot: -0.86000 ]
LCAOMinimize: Iter:   1  F: -42.5583174943047098  |grad|_K:  5.141e-08  alpha:  9.954e-01  linmin: -9.628e-03  cgtest:  2.927e-01  t[s]:      4.76
LCAOMinimize: Encountered beta<0, resetting CG.
	FillingsUpdate:  mu: -0.104528511  nElectrons: 9.000000  magneticMoment: [ Abs: 0.86000  Tot: -0.86000 ]
LCAOMinimize: Iter:   2  F: -42.5583174943065288  |grad|_K:  3.363e-10  alpha:  1.000e+00  linmin:  7.285e-02  cgtest: -4.276e-01  t[s]:      5.95
LCAOMinimize: Converged (|Delta F|<1.000000e-06 for 2 iters).


---- Citations for features of the code used in this run ----

   Software package:
      R. Sundararaman, K. Letchworth-Weaver, K.A. Schwarz, D. Gunceler, Y. Ozhabes and T.A. Arias, 'JDFTx: software for joint density-functional theory', SoftwareX 6, 278 (2017)

   gga-PBE exchange-correlation functional:
      J.P. Perdew, K. Burke and M. Ernzerhof, Phys. Rev. Lett. 77, 3865 (1996)

   Pseudopotentials:
      M Schlipf and F Gygi, Comput. Phys. Commun. 196, 36 (2015)

   Truncated Coulomb potentials:
      R. Sundararaman and T.A. Arias, Phys. Rev. B 87, 165122 (2013)

This list may not be complete. Please suggest additional citations or
report any other bugs at https://github.com/shankar1729/jdftx/issues

Initialization completed successfully at t[s]:      6.02


-------- Electronic minimization -----------
Will mix electronic density at each iteration.
	FillingsUpdate:  mu: -0.104528511  nElectrons: 9.000000  magneticMoment: [ Abs: 0.86000  Tot: -0.86000 ]
	FillingsUpdate:  mu: -0.108473057  nElectrons: 9.000000  magneticMoment: [ Abs: 0.86000  Tot: -0.86000 ]
SCF: Cycle:  0   F: -42.563662935827210   dF: -5.345e-03   |Residual|: 1.147e-02   |deigs|: 1.696e-01  t[s]:      8.28
	FillingsUpdate:  mu: -0.110517386  nElectrons: 9.000000  magneticMoment: [ Abs: 0.86010  Tot: -0.86000 ]
SCF: Cycle:  1   F: -42.563900170807486   dF: -2.372e-04   |Residual|: 7.820e-03   |deigs|: 9.467e-03  t[s]:      9.97
	FillingsUpdate:  mu: -0.110001727  nElectrons: 9.000000  magneticMoment: [ Abs: 0.86154  Tot: -0.86000 ]
SCF: Cycle:  2   F: -42.563970624844103   dF: -7.045e-05   |Residual|: 5.373e-03   |deigs|: 6.643e-03  t[s]:     11.69
	FillingsUpdate:  mu: -0.110985897  nElectrons: 9.000000  magneticMoment: [ Abs: 0.86041  Tot: -0.86000 ]
SCF: Cycle:  3   F: -42.563992614393129   dF: -2.199e-05   |Residual|: 3.139e-03   |deigs|: 4.873e-03  t[s]:     13.41
	FillingsUpdate:  mu: -0.108917417  nElectrons: 9.000000  magneticMoment: [ Abs: 0.86051  Tot: -0.86000 ]
SCF: Cycle:  4   F: -42.564011662142832   dF: -1.905e-05   |Residual|: 1.162e-03   |deigs|: 2.894e-03  t[s]:     15.19
	FillingsUpdate:  mu: -0.108663581  nElectrons: 9.000000  magneticMoment: [ Abs: 0.86060  Tot: -0.86000 ]
SCF: Cycle:  5   F: -42.564014203346865   dF: -2.541e-06   |Residual|: 8.589e-04   |deigs|: 3.999e-03  t[s]:     17.13
	FillingsUpdate:  mu: -0.108135643  nElectrons: 9.000000  magneticMoment: [ Abs: 0.86048  Tot: -0.86000 ]
SCF: Cycle:  6   F: -42.564017023633596   dF: -2.820e-06   |Residual|: 6.082e-04   |deigs|: 1.757e-03  t[s]:     18.95
	FillingsUpdate:  mu: -0.107051443  nElectrons: 9.000000  magneticMoment: [ Abs: 0.86251  Tot: -0.86000 ]
SCF: Cycle:  7   F: -42.564015440974281   dF: +1.583e-06   |Residual|: 5.055e-04   |deigs|: 1.272e-03  t[s]:     20.81
	FillingsUpdate:  mu: -0.106370985  nElectrons: 9.000000  magneticMoment: [ Abs: 0.86244  Tot: -0.86000 ]
SCF: Cycle:  8   F: -42.564016011071644   dF: -5.701e-07   |Residual|: 4.032e-04   |deigs|: 8.183e-04  t[s]:     22.71
	FillingsUpdate:  mu: -0.105965548  nElectrons: 9.000000  magneticMoment: [ Abs: 0.86111  Tot: -0.86000 ]
SCF: Cycle:  9   F: -42.564018081641230   dF: -2.071e-06   |Residual|: 3.347e-04   |deigs|: 6.029e-04  t[s]:     24.59
	FillingsUpdate:  mu: -0.106015494  nElectrons: 9.000000  magneticMoment: [ Abs: 0.86071  Tot: -0.86000 ]
SCF: Cycle: 10   F: -42.564020080616672   dF: -1.999e-06   |Residual|: 2.281e-04   |deigs|: 3.350e-04  t[s]:     26.53
	FillingsUpdate:  mu: -0.105441314  nElectrons: 9.000000  magneticMoment: [ Abs: 0.86165  Tot: -0.86000 ]
SCF: Cycle: 11   F: -42.564019674896890   dF: +4.057e-07   |Residual|: 2.088e-04   |deigs|: 7.473e-04  t[s]:     28.41
	FillingsUpdate:  mu: -0.105079509  nElectrons: 9.000000  magneticMoment: [ Abs: 0.86147  Tot: -0.86000 ]
SCF: Cycle: 12   F: -42.564019492941533   dF: +1.820e-07   |Residual|: 1.917e-04   |deigs|: 3.697e-04  t[s]:     30.40
	FillingsUpdate:  mu: -0.104920701  nElectrons: 9.000000  magneticMoment: [ Abs: 0.86150  Tot: -0.86000 ]
SCF: Cycle: 13   F: -42.564020324428355   dF: -8.315e-07   |Residual|: 1.691e-04   |deigs|: 4.959e-04  t[s]:     32.31
	FillingsUpdate:  mu: -0.104492286  nElectrons: 9.000000  magneticMoment: [ Abs: 0.86205  Tot: -0.86000 ]
SCF: Cycle: 14   F: -42.564020815277232   dF: -4.908e-07   |Residual|: 1.631e-04   |deigs|: 5.728e-04  t[s]:     34.22
	FillingsUpdate:  mu: -0.103811997  nElectrons: 9.000000  magneticMoment: [ Abs: 0.86140  Tot: -0.86000 ]
SCF: Cycle: 15   F: -42.564021095927792   dF: -2.807e-07   |Residual|: 1.396e-04   |deigs|: 7.116e-04  t[s]:     36.18
	FillingsUpdate:  mu: -0.103457119  nElectrons: 9.000000  magneticMoment: [ Abs: 0.86116  Tot: -0.86000 ]
SCF: Cycle: 16   F: -42.564021371948890   dF: -2.760e-07   |Residual|: 1.229e-04   |deigs|: 3.706e-04  t[s]:     38.11
	FillingsUpdate:  mu: -0.103199884  nElectrons: 9.000000  magneticMoment: [ Abs: 0.86099  Tot: -0.86000 ]
SCF: Cycle: 17   F: -42.564021621052625   dF: -2.491e-07   |Residual|: 9.326e-05   |deigs|: 2.528e-04  t[s]:     40.03
	FillingsUpdate:  mu: -0.102959992  nElectrons: 9.000000  magneticMoment: [ Abs: 0.86068  Tot: -0.86000 ]
SCF: Cycle: 18   F: -42.564021768338023   dF: -1.473e-07   |Residual|: 6.161e-05   |deigs|: 2.601e-04  t[s]:     41.97
	FillingsUpdate:  mu: -0.102824225  nElectrons: 9.000000  magneticMoment: [ Abs: 0.86083  Tot: -0.86000 ]
SCF: Cycle: 19   F: -42.564021820989531   dF: -5.265e-08   |Residual|: 3.852e-05   |deigs|: 1.682e-04  t[s]:     43.92
	FillingsUpdate:  mu: -0.102793577  nElectrons: 9.000000  magneticMoment: [ Abs: 0.86085  Tot: -0.86000 ]
SCF: Cycle: 20   F: -42.564021842351906   dF: -2.136e-08   |Residual|: 2.465e-05   |deigs|: 9.831e-05  t[s]:     45.78
	FillingsUpdate:  mu: -0.102791371  nElectrons: 9.000000  magneticMoment: [ Abs: 0.86074  Tot: -0.86000 ]
SCF: Cycle: 21   F: -42.564021852598700   dF: -1.025e-08   |Residual|: 1.635e-05   |deigs|: 1.004e-04  t[s]:     47.69
	FillingsUpdate:  mu: -0.102789415  nElectrons: 9.000000  magneticMoment: [ Abs: 0.86071  Tot: -0.86000 ]
SCF: Cycle: 22   F: -42.564021856999105   dF: -4.400e-09   |Residual|: 1.024e-05   |deigs|: 9.041e-05  t[s]:     49.62
	FillingsUpdate:  mu: -0.102785066  nElectrons: 9.000000  magneticMoment: [ Abs: 0.86071  Tot: -0.86000 ]
SCF: Cycle: 23   F: -42.564021863771742   dF: -6.773e-09   |Residual|: 7.668e-06   |deigs|: 7.220e-05  t[s]:     51.54
SCF: Converged (|Delta E|<1.000000e-08 for 2 iters).


# Ionic positions in lattice coordinates:
ion Na   0.000000000000000   0.000000000000000   0.000000000000000 0

# Forces in Lattice coordinates:
force Na  -0.000000000000000   0.000000000000000   0.000000000000000 0

# Energy components:
   Eewald =      -18.0480261003326561
       EH =       15.7602219759789524
     Eloc =      -42.7745877472052740
      Enl =      -12.9151899813164235
   Epulay =        0.0000007725295140
      Exc =       -6.2235235711974237
       KE =       21.6370834608086255
-------------------------------------
     Etot =      -42.5640211907346924
       TS =        0.0000006730370529
-------------------------------------
        F =      -42.5640218637717425

IonicMinimize: Iter:   0  F: -42.564021863771742  |grad|_K:  0.000e+00  t[s]:     51.61
IonicMinimize: Converged (|grad|_K<1.000000e-04).

#--- Lowdin population analysis ---
# oxidation-state Na +0.094
# magnetic-moments Na -0.767

End date and time: Sat Feb  5 22:21:39 2022  (Duration: 0-0:00:51.63)
Done!
