
*************** JDFTx 1.6.0 (git hash 42ebbcc2) ***************

Start date and time: Sat Feb  5 22:20:46 2022
Executable jdftx with command-line: -i Alkali.in
Running on hosts (process indices):  d-6-13-4 (0-18)
Divided in process groups (process indices):  0 (0)  1 (1)  2 (2)  3 (3)  4 (4)  5 (5)  6 (6)  7 (7)  8 (8)  9 (9)  10 (10)  11 (11)  12 (12)  13 (13)  14 (14)  15 (15)  16 (16)  17 (17)  18 (18)
Resource initialization completed at t[s]:      0.00
Run totals: 19 processes, 48 threads, 0 GPUs


Input parsed successfully to the following command list (including defaults):

basis kpoint-dependent
coords-type Lattice
core-overlap-check vector
coulomb-interaction Slab 001
davidson-band-ratio 1.1
dump End None
dump-name $INPUT.$VAR
elec-cutoff 20
elec-eigen-algo Davidson
elec-ex-corr gga-PBE
elec-initial-magnetization -0.720000 yes
elec-smearing Fermi 1e-05
electronic-minimize  \
	dirUpdateScheme      FletcherReeves \
	linminMethod         DirUpdateRecommended \
	nIterations          100 \
	history              15 \
	knormThreshold       0 \
	energyDiffThreshold  1e-08 \
	nEnergyDiff          2 \
	alphaTstart          1 \
	alphaTmin            1e-10 \
	updateTestStepSize   yes \
	alphaTreduceFactor   0.1 \
	alphaTincreaseFactor 3 \
	nAlphaAdjustMax      3 \
	wolfeEnergy          0.0001 \
	wolfeGradient        0.9 \
	fdTest               no
electronic-scf  \
	nIterations	10000 \
	energyDiffThreshold	1e-08 \
	residualThreshold	1e-07 \
	mixFraction	0.5 \
	qMetric	0.8 \
	history	10 \
	nEigSteps	2 \
	eigDiffThreshold	1e-08 \
	mixedVariable	Density \
	qKerker	0.8 \
	qKappa	-1 \
	verbose	no \
	mixFractionMag	1.5
exchange-regularization WignerSeitzTruncated
fluid None
fluid-ex-corr (null) lda-PZ
fluid-gummel-loop 10 1.000000e-05
fluid-minimize  \
	dirUpdateScheme      PolakRibiere \
	linminMethod         DirUpdateRecommended \
	nIterations          100 \
	history              15 \
	knormThreshold       0 \
	energyDiffThreshold  0 \
	nEnergyDiff          2 \
	alphaTstart          1 \
	alphaTmin            1e-10 \
	updateTestStepSize   yes \
	alphaTreduceFactor   0.1 \
	alphaTincreaseFactor 3 \
	nAlphaAdjustMax      3 \
	wolfeEnergy          0.0001 \
	wolfeGradient        0.9 \
	fdTest               no
fluid-solvent H2O 55.338 ScalarEOS \
	epsBulk 78.4 \
	pMol 0.92466 \
	epsInf 1.77 \
	Pvap 1.06736e-10 \
	sigmaBulk 4.62e-05 \
	Rvdw 2.61727 \
	Res 1.42 \
	tauNuc 343133 \
	poleEl 15 7 1
forces-output-coords Positions
ion Na   0.000000000000000   0.000000000000000   0.000000000000000 0
ion-species SG15/$ID_ONCV_PBE.upf
ion-width 0
ionic-minimize  \
	dirUpdateScheme      L-BFGS \
	linminMethod         DirUpdateRecommended \
	nIterations          0 \
	history              15 \
	knormThreshold       0.0001 \
	energyDiffThreshold  1e-06 \
	nEnergyDiff          2 \
	alphaTstart          1 \
	alphaTmin            1e-10 \
	updateTestStepSize   yes \
	alphaTreduceFactor   0.1 \
	alphaTincreaseFactor 3 \
	nAlphaAdjustMax      3 \
	wolfeEnergy          0.0001 \
	wolfeGradient        0.9 \
	fdTest               no
kpoint   0.000000000000   0.000000000000   0.000000000000  1.00000000000000
kpoint-folding 12 12 1 
latt-move-scale 1 1 1
latt-scale 2 2 1 
lattice  \
	   4.727486978767153   -2.363743489383575    0.000000000000000  \
	  -0.000000000000000    4.094123819672498    0.000000000000000  \
	   0.000000000000000    0.000000000000000   40.000000000000000 
lattice-minimize  \
	dirUpdateScheme      L-BFGS \
	linminMethod         DirUpdateRecommended \
	nIterations          0 \
	history              15 \
	knormThreshold       0 \
	energyDiffThreshold  1e-06 \
	nEnergyDiff          2 \
	alphaTstart          1 \
	alphaTmin            1e-10 \
	updateTestStepSize   yes \
	alphaTreduceFactor   0.1 \
	alphaTincreaseFactor 3 \
	nAlphaAdjustMax      3 \
	wolfeEnergy          0.0001 \
	wolfeGradient        0.9 \
	fdTest               no
lcao-params -1 1e-06 1e-05
pcm-variant GLSSA13
spintype z-spin
subspace-rotation-factor 1 yes
symmetries automatic
symmetry-threshold 0.0001



---------- Setting up symmetries ----------

Found 24 point-group symmetries of the bravais lattice
Found 24 space-group symmetries with basis
Applied RMS atom displacement 0 bohrs to make symmetries exact.

---------- Initializing the Grid ----------
R = 
[      9.45497     -4.72749            0  ]
[            0      8.18825            0  ]
[            0            0           40  ]
unit cell volume = 3096.79
G =
[   0.664538   0.383671         -0  ]
[          0   0.767342         -0  ]
[         -0         -0    0.15708  ]
Minimum fftbox size, Smin = [  40  40  164  ]
Chosen fftbox size, S = [  40  40  168  ]

---------- Exchange Correlation functional ----------
Initalized PBE GGA exchange.
Initalized PBE GGA correlation.

---------- Setting up pseudopotentials ----------
Width of ionic core gaussian charges (only for fluid interactions / plotting) set to 0

Reading pseudopotential file '/home/gridsan/aligho/DFT/build-Nov24/pseudopotentials/SG15/Na_ONCV_PBE.upf':
  'Na' pseudopotential, 'PBE' functional
  Generated using ONCVPSP code by D. R. Hamann
  Author: Martin Schlipf and Francois Gygi  Date: 150915.
  9 valence electrons, 3 orbitals, 4 projectors, 1992 radial grid points, with lMax = 1
  Transforming local potential to a uniform radial grid of dG=0.02 with 1489 points.
  Transforming nonlocal projectors to a uniform radial grid of dG=0.02 with 432 points.
    2S    l: 0   occupation:  2.0   eigenvalue: -2.085640
    2P    l: 1   occupation:  6.0   eigenvalue: -1.053708
    3S    l: 0   occupation:  1.0   eigenvalue: -0.100838
  Transforming atomic orbitals to a uniform radial grid of dG=0.02 with 432 points.
  Core radius for overlap checks: 2.01 bohrs.
  Reading pulay file /home/gridsan/aligho/DFT/build-Nov24/pseudopotentials/SG15/Na_ONCV_PBE.pulay ... using dE_dnG = -2.946487e-03 computed for Ecut = 20.

Initialized 1 species with 1 total atoms.

Folded 1 k-points by 12x12x1 to 144 k-points.

---------- Setting up k-points, bands, fillings ----------
Reduced to 19 k-points under symmetry. 
Computing the number of bands and number of electrons
Calculating initial fillings.
nElectrons:   9.000000   nBands: 6   nStates: 38

----- Setting up reduced wavefunction bases (one per k-point) -----
average nbasis = 13230.521 , ideal nbasis = 13229.709

---------- Setting up coulomb interaction ----------
Initialized slab truncation along lattice direction 001

---------- Setting up 2D ewald sum ----------
Optimum gaussian width for ewald sums = 5.249020 bohr.
Real space sums over 289 unit cells with max indices [  8  8  0  ]
Reciprocal space sums over 81 terms with max indices [  4  4  0  ]

---------- Allocating electronic variables ----------
Initializing wave functions:  linear combination of atomic orbitals
Note: number of bands (6) exceeds available atomic orbitals (5)
Na pseudo-atom occupations:   s ( 2 1 )  p ( 6 )
	FillingsUpdate:  mu: -0.107468575  nElectrons: 9.000000  magneticMoment: [ Abs: 0.72000  Tot: -0.72000 ]
LCAOMinimize: Iter:   0  F: -42.5614078170653940  |grad|_K:  1.623e-05  alpha:  1.000e+00
	FillingsUpdate:  mu: -0.107467155  nElectrons: 9.000000  magneticMoment: [ Abs: 0.72000  Tot: -0.72000 ]
LCAOMinimize: Iter:   1  F: -42.5614079957312796  |grad|_K:  1.181e-07  alpha:  9.923e-01  linmin: -1.719e-02  cgtest:  5.244e-01  t[s]:      4.59
LCAOMinimize: Encountered beta<0, resetting CG.
	FillingsUpdate:  mu: -0.107467179  nElectrons: 9.000000  magneticMoment: [ Abs: 0.72000  Tot: -0.72000 ]
LCAOMinimize: Iter:   2  F: -42.5614079957404243  |grad|_K:  4.683e-09  alpha:  1.040e+00  linmin:  7.986e-02  cgtest: -9.948e-01  t[s]:      5.83
LCAOMinimize: Converged (|Delta F|<1.000000e-06 for 2 iters).


---- Citations for features of the code used in this run ----

   Software package:
      R. Sundararaman, K. Letchworth-Weaver, K.A. Schwarz, D. Gunceler, Y. Ozhabes and T.A. Arias, 'JDFTx: software for joint density-functional theory', SoftwareX 6, 278 (2017)

   gga-PBE exchange-correlation functional:
      J.P. Perdew, K. Burke and M. Ernzerhof, Phys. Rev. Lett. 77, 3865 (1996)

   Pseudopotentials:
      M Schlipf and F Gygi, Comput. Phys. Commun. 196, 36 (2015)

   Truncated Coulomb potentials:
      R. Sundararaman and T.A. Arias, Phys. Rev. B 87, 165122 (2013)

This list may not be complete. Please suggest additional citations or
report any other bugs at https://github.com/shankar1729/jdftx/issues

Initialization completed successfully at t[s]:      5.90


-------- Electronic minimization -----------
Will mix electronic density at each iteration.
	FillingsUpdate:  mu: -0.107467179  nElectrons: 9.000000  magneticMoment: [ Abs: 0.72000  Tot: -0.72000 ]
	FillingsUpdate:  mu: -0.109905875  nElectrons: 9.000000  magneticMoment: [ Abs: 0.72000  Tot: -0.72000 ]
SCF: Cycle:  0   F: -42.566696478425456   dF: -5.288e-03   |Residual|: 1.105e-02   |deigs|: 1.699e-01  t[s]:      8.14
	FillingsUpdate:  mu: -0.109451406  nElectrons: 9.000000  magneticMoment: [ Abs: 0.72001  Tot: -0.72000 ]
SCF: Cycle:  1   F: -42.566915427099495   dF: -2.189e-04   |Residual|: 7.484e-03   |deigs|: 8.776e-03  t[s]:      9.89
	FillingsUpdate:  mu: -0.109675615  nElectrons: 9.000000  magneticMoment: [ Abs: 0.72141  Tot: -0.72000 ]
SCF: Cycle:  2   F: -42.566966014615431   dF: -5.059e-05   |Residual|: 4.915e-03   |deigs|: 6.794e-03  t[s]:     11.68
	FillingsUpdate:  mu: -0.108872276  nElectrons: 9.000000  magneticMoment: [ Abs: 0.72021  Tot: -0.72000 ]
SCF: Cycle:  3   F: -42.566967027373813   dF: -1.013e-06   |Residual|: 2.786e-03   |deigs|: 5.639e-03  t[s]:     13.45
	FillingsUpdate:  mu: -0.108663732  nElectrons: 9.000000  magneticMoment: [ Abs: 0.72023  Tot: -0.72000 ]
SCF: Cycle:  4   F: -42.566986371639175   dF: -1.934e-05   |Residual|: 1.086e-03   |deigs|: 1.409e-03  t[s]:     15.24
	FillingsUpdate:  mu: -0.108511792  nElectrons: 9.000000  magneticMoment: [ Abs: 0.72040  Tot: -0.72000 ]
SCF: Cycle:  5   F: -42.566991088963213   dF: -4.717e-06   |Residual|: 8.295e-04   |deigs|: 3.749e-03  t[s]:     17.03
	FillingsUpdate:  mu: -0.107907804  nElectrons: 9.000000  magneticMoment: [ Abs: 0.72051  Tot: -0.72000 ]
SCF: Cycle:  6   F: -42.566992642546722   dF: -1.554e-06   |Residual|: 6.290e-04   |deigs|: 1.428e-03  t[s]:     18.82
	FillingsUpdate:  mu: -0.107044057  nElectrons: 9.000000  magneticMoment: [ Abs: 0.72228  Tot: -0.72000 ]
SCF: Cycle:  7   F: -42.566991560273948   dF: +1.082e-06   |Residual|: 4.586e-04   |deigs|: 1.061e-03  t[s]:     20.68
	FillingsUpdate:  mu: -0.106231954  nElectrons: 9.000000  magneticMoment: [ Abs: 0.72221  Tot: -0.72000 ]
SCF: Cycle:  8   F: -42.566991702313018   dF: -1.420e-07   |Residual|: 3.860e-04   |deigs|: 1.034e-03  t[s]:     22.61
	FillingsUpdate:  mu: -0.105824367  nElectrons: 9.000000  magneticMoment: [ Abs: 0.72102  Tot: -0.72000 ]
SCF: Cycle:  9   F: -42.566993547085154   dF: -1.845e-06   |Residual|: 3.298e-04   |deigs|: 5.298e-04  t[s]:     24.51
	FillingsUpdate:  mu: -0.105858420  nElectrons: 9.000000  magneticMoment: [ Abs: 0.72088  Tot: -0.72000 ]
SCF: Cycle: 10   F: -42.566994782702899   dF: -1.236e-06   |Residual|: 2.252e-04   |deigs|: 1.958e-04  t[s]:     26.45
	FillingsUpdate:  mu: -0.105285802  nElectrons: 9.000000  magneticMoment: [ Abs: 0.72157  Tot: -0.72000 ]
SCF: Cycle: 11   F: -42.566994299256493   dF: +4.834e-07   |Residual|: 2.149e-04   |deigs|: 6.718e-04  t[s]:     28.37
	FillingsUpdate:  mu: -0.104792213  nElectrons: 9.000000  magneticMoment: [ Abs: 0.72113  Tot: -0.72000 ]
SCF: Cycle: 12   F: -42.566993693225122   dF: +6.060e-07   |Residual|: 1.952e-04   |deigs|: 5.081e-04  t[s]:     30.28
	FillingsUpdate:  mu: -0.104477940  nElectrons: 9.000000  magneticMoment: [ Abs: 0.72167  Tot: -0.72000 ]
SCF: Cycle: 13   F: -42.566994633354746   dF: -9.401e-07   |Residual|: 1.721e-04   |deigs|: 3.276e-04  t[s]:     32.21
	FillingsUpdate:  mu: -0.104099749  nElectrons: 9.000000  magneticMoment: [ Abs: 0.72172  Tot: -0.72000 ]
SCF: Cycle: 14   F: -42.566995378642623   dF: -7.453e-07   |Residual|: 1.554e-04   |deigs|: 4.136e-04  t[s]:     34.12
	FillingsUpdate:  mu: -0.103465746  nElectrons: 9.000000  magneticMoment: [ Abs: 0.72099  Tot: -0.72000 ]
SCF: Cycle: 15   F: -42.566995911407595   dF: -5.328e-07   |Residual|: 1.532e-04   |deigs|: 6.931e-04  t[s]:     36.03
	FillingsUpdate:  mu: -0.103107677  nElectrons: 9.000000  magneticMoment: [ Abs: 0.72080  Tot: -0.72000 ]
SCF: Cycle: 16   F: -42.566996146435763   dF: -2.350e-07   |Residual|: 1.298e-04   |deigs|: 3.436e-04  t[s]:     37.94
	FillingsUpdate:  mu: -0.102746648  nElectrons: 9.000000  magneticMoment: [ Abs: 0.72064  Tot: -0.72000 ]
SCF: Cycle: 17   F: -42.566996419963957   dF: -2.735e-07   |Residual|: 7.910e-05   |deigs|: 3.181e-04  t[s]:     39.87
	FillingsUpdate:  mu: -0.102599347  nElectrons: 9.000000  magneticMoment: [ Abs: 0.72044  Tot: -0.72000 ]
SCF: Cycle: 18   F: -42.566996505616579   dF: -8.565e-08   |Residual|: 6.137e-05   |deigs|: 7.097e-04  t[s]:     41.76
	FillingsUpdate:  mu: -0.102515033  nElectrons: 9.000000  magneticMoment: [ Abs: 0.72047  Tot: -0.72000 ]
SCF: Cycle: 19   F: -42.566996552037757   dF: -4.642e-08   |Residual|: 3.834e-05   |deigs|: 6.103e-04  t[s]:     43.64
	FillingsUpdate:  mu: -0.102476020  nElectrons: 9.000000  magneticMoment: [ Abs: 0.72053  Tot: -0.72000 ]
SCF: Cycle: 20   F: -42.566996568834206   dF: -1.680e-08   |Residual|: 2.226e-05   |deigs|: 6.945e-05  t[s]:     45.54
	FillingsUpdate:  mu: -0.102473924  nElectrons: 9.000000  magneticMoment: [ Abs: 0.72049  Tot: -0.72000 ]
SCF: Cycle: 21   F: -42.566996574877230   dF: -6.043e-09   |Residual|: 1.427e-05   |deigs|: 7.043e-04  t[s]:     47.45
	FillingsUpdate:  mu: -0.102480238  nElectrons: 9.000000  magneticMoment: [ Abs: 0.72046  Tot: -0.72000 ]
SCF: Cycle: 22   F: -42.566996577558221   dF: -2.681e-09   |Residual|: 1.050e-05   |deigs|: 6.990e-05  t[s]:     49.37
SCF: Converged (|Delta E|<1.000000e-08 for 2 iters).


# Ionic positions in lattice coordinates:
ion Na   0.000000000000000   0.000000000000000   0.000000000000000 0

# Forces in Lattice coordinates:
force Na   0.000000000000000   0.000000000000000   0.000000000000000 0

# Energy components:
   Eewald =      -18.0480261003326561
       EH =       15.7477756622864309
     Eloc =      -42.7610514219991771
      Enl =      -12.9144083000082599
   Epulay =        0.0000007725295140
      Exc =       -6.2211783365335673
       KE =       21.6298914546248362
-------------------------------------
     Etot =      -42.5669962694328774
       TS =        0.0000003081253408
-------------------------------------
        F =      -42.5669965775582213

IonicMinimize: Iter:   0  F: -42.566996577558221  |grad|_K:  0.000e+00  t[s]:     49.44
IonicMinimize: Converged (|grad|_K<1.000000e-04).

#--- Lowdin population analysis ---
# oxidation-state Na +0.078
# magnetic-moments Na -0.645

End date and time: Sat Feb  5 22:21:36 2022  (Duration: 0-0:00:49.47)
Done!
