
*************** JDFTx 1.6.0 (git hash 42ebbcc2) ***************

Start date and time: Sat Feb  5 22:30:34 2022
Executable jdftx with command-line: -i Alkali.in
Running on hosts (process indices):  d-3-11-1 (0-18)
Divided in process groups (process indices):  0 (0)  1 (1)  2 (2)  3 (3)  4 (4)  5 (5)  6 (6)  7 (7)  8 (8)  9 (9)  10 (10)  11 (11)  12 (12)  13 (13)  14 (14)  15 (15)  16 (16)  17 (17)  18 (18)
Resource initialization completed at t[s]:      0.00
Run totals: 19 processes, 48 threads, 0 GPUs


Input parsed successfully to the following command list (including defaults):

basis kpoint-dependent
coords-type Lattice
core-overlap-check vector
coulomb-interaction Slab 001
davidson-band-ratio 1.1
dump End None
dump-name $INPUT.$VAR
elec-cutoff 20
elec-eigen-algo Davidson
elec-ex-corr gga-PBE
elec-initial-magnetization 0.220000 yes
elec-smearing Fermi 1e-05
electronic-minimize  \
	dirUpdateScheme      FletcherReeves \
	linminMethod         DirUpdateRecommended \
	nIterations          100 \
	history              15 \
	knormThreshold       0 \
	energyDiffThreshold  1e-08 \
	nEnergyDiff          2 \
	alphaTstart          1 \
	alphaTmin            1e-10 \
	updateTestStepSize   yes \
	alphaTreduceFactor   0.1 \
	alphaTincreaseFactor 3 \
	nAlphaAdjustMax      3 \
	wolfeEnergy          0.0001 \
	wolfeGradient        0.9 \
	fdTest               no
electronic-scf  \
	nIterations	10000 \
	energyDiffThreshold	1e-08 \
	residualThreshold	1e-07 \
	mixFraction	0.5 \
	qMetric	0.8 \
	history	10 \
	nEigSteps	2 \
	eigDiffThreshold	1e-08 \
	mixedVariable	Density \
	qKerker	0.8 \
	qKappa	-1 \
	verbose	no \
	mixFractionMag	1.5
exchange-regularization WignerSeitzTruncated
fluid None
fluid-ex-corr (null) lda-PZ
fluid-gummel-loop 10 1.000000e-05
fluid-minimize  \
	dirUpdateScheme      PolakRibiere \
	linminMethod         DirUpdateRecommended \
	nIterations          100 \
	history              15 \
	knormThreshold       0 \
	energyDiffThreshold  0 \
	nEnergyDiff          2 \
	alphaTstart          1 \
	alphaTmin            1e-10 \
	updateTestStepSize   yes \
	alphaTreduceFactor   0.1 \
	alphaTincreaseFactor 3 \
	nAlphaAdjustMax      3 \
	wolfeEnergy          0.0001 \
	wolfeGradient        0.9 \
	fdTest               no
fluid-solvent H2O 55.338 ScalarEOS \
	epsBulk 78.4 \
	pMol 0.92466 \
	epsInf 1.77 \
	Pvap 1.06736e-10 \
	sigmaBulk 4.62e-05 \
	Rvdw 2.61727 \
	Res 1.42 \
	tauNuc 343133 \
	poleEl 15 7 1
forces-output-coords Positions
ion Na   0.000000000000000   0.000000000000000   0.000000000000000 0
ion-species SG15/$ID_ONCV_PBE.upf
ion-width 0
ionic-minimize  \
	dirUpdateScheme      L-BFGS \
	linminMethod         DirUpdateRecommended \
	nIterations          0 \
	history              15 \
	knormThreshold       0.0001 \
	energyDiffThreshold  1e-06 \
	nEnergyDiff          2 \
	alphaTstart          1 \
	alphaTmin            1e-10 \
	updateTestStepSize   yes \
	alphaTreduceFactor   0.1 \
	alphaTincreaseFactor 3 \
	nAlphaAdjustMax      3 \
	wolfeEnergy          0.0001 \
	wolfeGradient        0.9 \
	fdTest               no
kpoint   0.000000000000   0.000000000000   0.000000000000  1.00000000000000
kpoint-folding 12 12 1 
latt-move-scale 1 1 1
latt-scale 2 2 1 
lattice  \
	   4.727486978767153   -2.363743489383575    0.000000000000000  \
	  -0.000000000000000    4.094123819672498    0.000000000000000  \
	   0.000000000000000    0.000000000000000   40.000000000000000 
lattice-minimize  \
	dirUpdateScheme      L-BFGS \
	linminMethod         DirUpdateRecommended \
	nIterations          0 \
	history              15 \
	knormThreshold       0 \
	energyDiffThreshold  1e-06 \
	nEnergyDiff          2 \
	alphaTstart          1 \
	alphaTmin            1e-10 \
	updateTestStepSize   yes \
	alphaTreduceFactor   0.1 \
	alphaTincreaseFactor 3 \
	nAlphaAdjustMax      3 \
	wolfeEnergy          0.0001 \
	wolfeGradient        0.9 \
	fdTest               no
lcao-params -1 1e-06 1e-05
pcm-variant GLSSA13
spintype z-spin
subspace-rotation-factor 1 yes
symmetries automatic
symmetry-threshold 0.0001



---------- Setting up symmetries ----------

Found 24 point-group symmetries of the bravais lattice
Found 24 space-group symmetries with basis
Applied RMS atom displacement 0 bohrs to make symmetries exact.

---------- Initializing the Grid ----------
R = 
[      9.45497     -4.72749            0  ]
[            0      8.18825            0  ]
[            0            0           40  ]
unit cell volume = 3096.79
G =
[   0.664538   0.383671         -0  ]
[          0   0.767342         -0  ]
[         -0         -0    0.15708  ]
Minimum fftbox size, Smin = [  40  40  164  ]
Chosen fftbox size, S = [  40  40  168  ]

---------- Exchange Correlation functional ----------
Initalized PBE GGA exchange.
Initalized PBE GGA correlation.

---------- Setting up pseudopotentials ----------
Width of ionic core gaussian charges (only for fluid interactions / plotting) set to 0

Reading pseudopotential file '/home/gridsan/aligho/DFT/build-Nov24/pseudopotentials/SG15/Na_ONCV_PBE.upf':
  'Na' pseudopotential, 'PBE' functional
  Generated using ONCVPSP code by D. R. Hamann
  Author: Martin Schlipf and Francois Gygi  Date: 150915.
  9 valence electrons, 3 orbitals, 4 projectors, 1992 radial grid points, with lMax = 1
  Transforming local potential to a uniform radial grid of dG=0.02 with 1489 points.
  Transforming nonlocal projectors to a uniform radial grid of dG=0.02 with 432 points.
    2S    l: 0   occupation:  2.0   eigenvalue: -2.085640
    2P    l: 1   occupation:  6.0   eigenvalue: -1.053708
    3S    l: 0   occupation:  1.0   eigenvalue: -0.100838
  Transforming atomic orbitals to a uniform radial grid of dG=0.02 with 432 points.
  Core radius for overlap checks: 2.01 bohrs.
  Reading pulay file /home/gridsan/aligho/DFT/build-Nov24/pseudopotentials/SG15/Na_ONCV_PBE.pulay ... using dE_dnG = -2.946487e-03 computed for Ecut = 20.

Initialized 1 species with 1 total atoms.

Folded 1 k-points by 12x12x1 to 144 k-points.

---------- Setting up k-points, bands, fillings ----------
Reduced to 19 k-points under symmetry. 
Computing the number of bands and number of electrons
Calculating initial fillings.
nElectrons:   9.000000   nBands: 6   nStates: 38

----- Setting up reduced wavefunction bases (one per k-point) -----
average nbasis = 13230.521 , ideal nbasis = 13229.709

---------- Setting up coulomb interaction ----------
Initialized slab truncation along lattice direction 001

---------- Setting up 2D ewald sum ----------
Optimum gaussian width for ewald sums = 5.249020 bohr.
Real space sums over 289 unit cells with max indices [  8  8  0  ]
Reciprocal space sums over 81 terms with max indices [  4  4  0  ]

---------- Allocating electronic variables ----------
Initializing wave functions:  linear combination of atomic orbitals
Note: number of bands (6) exceeds available atomic orbitals (5)
Na pseudo-atom occupations:   s ( 2 1 )  p ( 6 )
	FillingsUpdate:  mu: -0.104634888  nElectrons: 9.000000  magneticMoment: [ Abs: 0.22000  Tot: +0.22000 ]
LCAOMinimize: Iter:   0  F: -42.5684230858353274  |grad|_K:  3.211e-05  alpha:  1.000e+00
	FillingsUpdate:  mu: -0.104634218  nElectrons: 9.000000  magneticMoment: [ Abs: 0.22000  Tot: +0.22000 ]
LCAOMinimize: Iter:   1  F: -42.5684237829115446  |grad|_K:  3.138e-07  alpha:  9.884e-01  linmin: -1.752e-02  cgtest:  6.878e-01  t[s]:      4.66
LCAOMinimize: Encountered beta<0, resetting CG.
	FillingsUpdate:  mu: -0.104634282  nElectrons: 9.000000  magneticMoment: [ Abs: 0.22000  Tot: +0.22000 ]
LCAOMinimize: Iter:   2  F: -42.5684237829781154  |grad|_K:  4.618e-09  alpha:  9.873e-01  linmin: -3.933e-02  cgtest:  9.962e-01  t[s]:      5.88
LCAOMinimize: Encountered beta<0, resetting CG.
LCAOMinimize: Converged (|Delta F|<1.000000e-06 for 2 iters).


---- Citations for features of the code used in this run ----

   Software package:
      R. Sundararaman, K. Letchworth-Weaver, K.A. Schwarz, D. Gunceler, Y. Ozhabes and T.A. Arias, 'JDFTx: software for joint density-functional theory', SoftwareX 6, 278 (2017)

   gga-PBE exchange-correlation functional:
      J.P. Perdew, K. Burke and M. Ernzerhof, Phys. Rev. Lett. 77, 3865 (1996)

   Pseudopotentials:
      M Schlipf and F Gygi, Comput. Phys. Commun. 196, 36 (2015)

   Truncated Coulomb potentials:
      R. Sundararaman and T.A. Arias, Phys. Rev. B 87, 165122 (2013)

This list may not be complete. Please suggest additional citations or
report any other bugs at https://github.com/shankar1729/jdftx/issues

Initialization completed successfully at t[s]:      5.95


-------- Electronic minimization -----------
Will mix electronic density at each iteration.
	FillingsUpdate:  mu: -0.104634282  nElectrons: 9.000000  magneticMoment: [ Abs: 0.22000  Tot: +0.22000 ]
	FillingsUpdate:  mu: -0.111861775  nElectrons: 9.000000  magneticMoment: [ Abs: 0.22000  Tot: +0.22000 ]
SCF: Cycle:  0   F: -42.572611907836816   dF: -4.188e-03   |Residual|: 7.522e-03   |deigs|: 1.706e-01  t[s]:      8.25
	FillingsUpdate:  mu: -0.111981830  nElectrons: 9.000000  magneticMoment: [ Abs: 0.22000  Tot: +0.22000 ]
SCF: Cycle:  1   F: -42.572686136768020   dF: -7.423e-05   |Residual|: 5.284e-03   |deigs|: 8.844e-03  t[s]:     10.11
	FillingsUpdate:  mu: -0.111770610  nElectrons: 9.000000  magneticMoment: [ Abs: 0.22127  Tot: +0.22000 ]
SCF: Cycle:  2   F: -42.572704523409989   dF: -1.839e-05   |Residual|: 2.613e-03   |deigs|: 6.407e-03  t[s]:     11.92
	FillingsUpdate:  mu: -0.111436133  nElectrons: 9.000000  magneticMoment: [ Abs: 0.22001  Tot: +0.22000 ]
SCF: Cycle:  3   F: -42.572709458906672   dF: -4.935e-06   |Residual|: 1.500e-03   |deigs|: 5.120e-03  t[s]:     13.67
	FillingsUpdate:  mu: -0.110912942  nElectrons: 9.000000  magneticMoment: [ Abs: 0.22002  Tot: +0.22000 ]
SCF: Cycle:  4   F: -42.572712953218641   dF: -3.494e-06   |Residual|: 8.585e-04   |deigs|: 3.163e-03  t[s]:     15.43
	FillingsUpdate:  mu: -0.110492677  nElectrons: 9.000000  magneticMoment: [ Abs: 0.22012  Tot: +0.22000 ]
SCF: Cycle:  5   F: -42.572713372604362   dF: -4.194e-07   |Residual|: 7.015e-04   |deigs|: 1.616e-03  t[s]:     17.26
	FillingsUpdate:  mu: -0.109553079  nElectrons: 9.000000  magneticMoment: [ Abs: 0.22118  Tot: +0.22000 ]
SCF: Cycle:  6   F: -42.572713363855179   dF: +8.749e-09   |Residual|: 5.085e-04   |deigs|: 1.585e-03  t[s]:     19.19
	FillingsUpdate:  mu: -0.108859643  nElectrons: 9.000000  magneticMoment: [ Abs: 0.22143  Tot: +0.22000 ]
SCF: Cycle:  7   F: -42.572712692501781   dF: +6.714e-07   |Residual|: 3.874e-04   |deigs|: 1.106e-03  t[s]:     21.11
	FillingsUpdate:  mu: -0.108292619  nElectrons: 9.000000  magneticMoment: [ Abs: 0.22080  Tot: +0.22000 ]
SCF: Cycle:  8   F: -42.572713762335106   dF: -1.070e-06   |Residual|: 3.405e-04   |deigs|: 7.666e-04  t[s]:     23.15
	FillingsUpdate:  mu: -0.108136743  nElectrons: 9.000000  magneticMoment: [ Abs: 0.22038  Tot: +0.22000 ]
SCF: Cycle:  9   F: -42.572714619664566   dF: -8.573e-07   |Residual|: 2.496e-04   |deigs|: 1.602e-04  t[s]:     25.09
	FillingsUpdate:  mu: -0.107632485  nElectrons: 9.000000  magneticMoment: [ Abs: 0.22095  Tot: +0.22000 ]
SCF: Cycle: 10   F: -42.572713969986722   dF: +6.497e-07   |Residual|: 2.286e-04   |deigs|: 5.718e-04  t[s]:     27.03
	FillingsUpdate:  mu: -0.107166242  nElectrons: 9.000000  magneticMoment: [ Abs: 0.22080  Tot: +0.22000 ]
SCF: Cycle: 11   F: -42.572713121622279   dF: +8.484e-07   |Residual|: 2.108e-04   |deigs|: 4.973e-04  t[s]:     29.01
	FillingsUpdate:  mu: -0.106501171  nElectrons: 9.000000  magneticMoment: [ Abs: 0.22059  Tot: +0.22000 ]
SCF: Cycle: 12   F: -42.572714018873050   dF: -8.973e-07   |Residual|: 1.844e-04   |deigs|: 6.527e-04  t[s]:     30.95
	FillingsUpdate:  mu: -0.106134348  nElectrons: 9.000000  magneticMoment: [ Abs: 0.22119  Tot: +0.22000 ]
SCF: Cycle: 13   F: -42.572715252362222   dF: -1.233e-06   |Residual|: 1.694e-04   |deigs|: 3.654e-04  t[s]:     32.85
	FillingsUpdate:  mu: -0.105756957  nElectrons: 9.000000  magneticMoment: [ Abs: 0.22065  Tot: +0.22000 ]
SCF: Cycle: 14   F: -42.572715953761602   dF: -7.014e-07   |Residual|: 1.535e-04   |deigs|: 4.154e-04  t[s]:     34.71
	FillingsUpdate:  mu: -0.105267494  nElectrons: 9.000000  magneticMoment: [ Abs: 0.22007  Tot: +0.22000 ]
SCF: Cycle: 15   F: -42.572716399991243   dF: -4.462e-07   |Residual|: 1.392e-04   |deigs|: 5.326e-04  t[s]:     36.57
	FillingsUpdate:  mu: -0.104921907  nElectrons: 9.000000  magneticMoment: [ Abs: 0.22025  Tot: +0.22000 ]
SCF: Cycle: 16   F: -42.572716660961042   dF: -2.610e-07   |Residual|: 9.615e-05   |deigs|: 3.394e-04  t[s]:     38.45
	FillingsUpdate:  mu: -0.104695320  nElectrons: 9.000000  magneticMoment: [ Abs: 0.22015  Tot: +0.22000 ]
SCF: Cycle: 17   F: -42.572716748054269   dF: -8.709e-08   |Residual|: 5.212e-05   |deigs|: 1.973e-04  t[s]:     40.37
	FillingsUpdate:  mu: -0.104658128  nElectrons: 9.000000  magneticMoment: [ Abs: 0.22009  Tot: +0.22000 ]
SCF: Cycle: 18   F: -42.572716759638659   dF: -1.158e-08   |Residual|: 3.484e-05   |deigs|: 7.584e-04  t[s]:     42.24
	FillingsUpdate:  mu: -0.104633295  nElectrons: 9.000000  magneticMoment: [ Abs: 0.22011  Tot: +0.22000 ]
SCF: Cycle: 19   F: -42.572716770348457   dF: -1.071e-08   |Residual|: 1.794e-05   |deigs|: 1.959e-04  t[s]:     44.17
	FillingsUpdate:  mu: -0.104629108  nElectrons: 9.000000  magneticMoment: [ Abs: 0.22011  Tot: +0.22000 ]
SCF: Cycle: 20   F: -42.572716774188713   dF: -3.840e-09   |Residual|: 9.088e-06   |deigs|: 5.282e-04  t[s]:     46.06
	FillingsUpdate:  mu: -0.104625943  nElectrons: 9.000000  magneticMoment: [ Abs: 0.22008  Tot: +0.22000 ]
SCF: Cycle: 21   F: -42.572716775269114   dF: -1.080e-09   |Residual|: 5.006e-06   |deigs|: 2.341e-04  t[s]:     47.92
SCF: Converged (|Delta E|<1.000000e-08 for 2 iters).


# Ionic positions in lattice coordinates:
ion Na   0.000000000000000   0.000000000000000   0.000000000000000 0

# Forces in Lattice coordinates:
force Na   0.000000000000000   0.000000000000000   0.000000000000000 0

# Energy components:
   Eewald =      -18.0480261003326561
       EH =       15.7241455735660729
     Eloc =      -42.7356418530868964
      Enl =      -12.9130022993697473
   Epulay =        0.0000007725295140
      Exc =       -6.2162995669896475
       KE =       21.6161071912245220
-------------------------------------
     Etot =      -42.5727162824588348
       TS =        0.0000004928102820
-------------------------------------
        F =      -42.5727167752691145

IonicMinimize: Iter:   0  F: -42.572716775269114  |grad|_K:  0.000e+00  t[s]:     47.99
IonicMinimize: Converged (|grad|_K<1.000000e-04).

#--- Lowdin population analysis ---
# oxidation-state Na +0.038
# magnetic-moments Na +0.197

End date and time: Sat Feb  5 22:31:22 2022  (Duration: 0-0:00:48.02)
Done!
