
*************** JDFTx 1.6.0 (git hash 42ebbcc2) ***************

Start date and time: Sat Feb  5 22:28:50 2022
Executable jdftx with command-line: -i Alkali.in
Running on hosts (process indices):  d-16-12-1 (0-18)
Divided in process groups (process indices):  0 (0)  1 (1)  2 (2)  3 (3)  4 (4)  5 (5)  6 (6)  7 (7)  8 (8)  9 (9)  10 (10)  11 (11)  12 (12)  13 (13)  14 (14)  15 (15)  16 (16)  17 (17)  18 (18)
Resource initialization completed at t[s]:      0.00
Run totals: 19 processes, 48 threads, 0 GPUs


Input parsed successfully to the following command list (including defaults):

basis kpoint-dependent
coords-type Lattice
core-overlap-check vector
coulomb-interaction Slab 001
davidson-band-ratio 1.1
dump End None
dump-name $INPUT.$VAR
elec-cutoff 20
elec-eigen-algo Davidson
elec-ex-corr gga-PBE
elec-initial-magnetization 0.000000 yes
elec-smearing Fermi 1e-05
electronic-minimize  \
	dirUpdateScheme      FletcherReeves \
	linminMethod         DirUpdateRecommended \
	nIterations          100 \
	history              15 \
	knormThreshold       0 \
	energyDiffThreshold  1e-08 \
	nEnergyDiff          2 \
	alphaTstart          1 \
	alphaTmin            1e-10 \
	updateTestStepSize   yes \
	alphaTreduceFactor   0.1 \
	alphaTincreaseFactor 3 \
	nAlphaAdjustMax      3 \
	wolfeEnergy          0.0001 \
	wolfeGradient        0.9 \
	fdTest               no
electronic-scf  \
	nIterations	10000 \
	energyDiffThreshold	1e-08 \
	residualThreshold	1e-07 \
	mixFraction	0.5 \
	qMetric	0.8 \
	history	10 \
	nEigSteps	2 \
	eigDiffThreshold	1e-08 \
	mixedVariable	Density \
	qKerker	0.8 \
	qKappa	-1 \
	verbose	no \
	mixFractionMag	1.5
exchange-regularization WignerSeitzTruncated
fluid None
fluid-ex-corr (null) lda-PZ
fluid-gummel-loop 10 1.000000e-05
fluid-minimize  \
	dirUpdateScheme      PolakRibiere \
	linminMethod         DirUpdateRecommended \
	nIterations          100 \
	history              15 \
	knormThreshold       0 \
	energyDiffThreshold  0 \
	nEnergyDiff          2 \
	alphaTstart          1 \
	alphaTmin            1e-10 \
	updateTestStepSize   yes \
	alphaTreduceFactor   0.1 \
	alphaTincreaseFactor 3 \
	nAlphaAdjustMax      3 \
	wolfeEnergy          0.0001 \
	wolfeGradient        0.9 \
	fdTest               no
fluid-solvent H2O 55.338 ScalarEOS \
	epsBulk 78.4 \
	pMol 0.92466 \
	epsInf 1.77 \
	Pvap 1.06736e-10 \
	sigmaBulk 4.62e-05 \
	Rvdw 2.61727 \
	Res 1.42 \
	tauNuc 343133 \
	poleEl 15 7 1
forces-output-coords Positions
ion Na   0.000000000000000   0.000000000000000   0.000000000000000 0
ion-species SG15/$ID_ONCV_PBE.upf
ion-width 0
ionic-minimize  \
	dirUpdateScheme      L-BFGS \
	linminMethod         DirUpdateRecommended \
	nIterations          0 \
	history              15 \
	knormThreshold       0.0001 \
	energyDiffThreshold  1e-06 \
	nEnergyDiff          2 \
	alphaTstart          1 \
	alphaTmin            1e-10 \
	updateTestStepSize   yes \
	alphaTreduceFactor   0.1 \
	alphaTincreaseFactor 3 \
	nAlphaAdjustMax      3 \
	wolfeEnergy          0.0001 \
	wolfeGradient        0.9 \
	fdTest               no
kpoint   0.000000000000   0.000000000000   0.000000000000  1.00000000000000
kpoint-folding 12 12 1 
latt-move-scale 1 1 1
latt-scale 2 2 1 
lattice  \
	   4.727486978767153   -2.363743489383575    0.000000000000000  \
	  -0.000000000000000    4.094123819672498    0.000000000000000  \
	   0.000000000000000    0.000000000000000   40.000000000000000 
lattice-minimize  \
	dirUpdateScheme      L-BFGS \
	linminMethod         DirUpdateRecommended \
	nIterations          0 \
	history              15 \
	knormThreshold       0 \
	energyDiffThreshold  1e-06 \
	nEnergyDiff          2 \
	alphaTstart          1 \
	alphaTmin            1e-10 \
	updateTestStepSize   yes \
	alphaTreduceFactor   0.1 \
	alphaTincreaseFactor 3 \
	nAlphaAdjustMax      3 \
	wolfeEnergy          0.0001 \
	wolfeGradient        0.9 \
	fdTest               no
lcao-params -1 1e-06 1e-05
pcm-variant GLSSA13
spintype z-spin
subspace-rotation-factor 1 yes
symmetries automatic
symmetry-threshold 0.0001



---------- Setting up symmetries ----------

Found 24 point-group symmetries of the bravais lattice
Found 24 space-group symmetries with basis
Applied RMS atom displacement 0 bohrs to make symmetries exact.

---------- Initializing the Grid ----------
R = 
[      9.45497     -4.72749            0  ]
[            0      8.18825            0  ]
[            0            0           40  ]
unit cell volume = 3096.79
G =
[   0.664538   0.383671         -0  ]
[          0   0.767342         -0  ]
[         -0         -0    0.15708  ]
Minimum fftbox size, Smin = [  40  40  164  ]
Chosen fftbox size, S = [  40  40  168  ]

---------- Exchange Correlation functional ----------
Initalized PBE GGA exchange.
Initalized PBE GGA correlation.

---------- Setting up pseudopotentials ----------
Width of ionic core gaussian charges (only for fluid interactions / plotting) set to 0

Reading pseudopotential file '/home/gridsan/aligho/DFT/build-Nov24/pseudopotentials/SG15/Na_ONCV_PBE.upf':
  'Na' pseudopotential, 'PBE' functional
  Generated using ONCVPSP code by D. R. Hamann
  Author: Martin Schlipf and Francois Gygi  Date: 150915.
  9 valence electrons, 3 orbitals, 4 projectors, 1992 radial grid points, with lMax = 1
  Transforming local potential to a uniform radial grid of dG=0.02 with 1489 points.
  Transforming nonlocal projectors to a uniform radial grid of dG=0.02 with 432 points.
    2S    l: 0   occupation:  2.0   eigenvalue: -2.085640
    2P    l: 1   occupation:  6.0   eigenvalue: -1.053708
    3S    l: 0   occupation:  1.0   eigenvalue: -0.100838
  Transforming atomic orbitals to a uniform radial grid of dG=0.02 with 432 points.
  Core radius for overlap checks: 2.01 bohrs.
  Reading pulay file /home/gridsan/aligho/DFT/build-Nov24/pseudopotentials/SG15/Na_ONCV_PBE.pulay ... using dE_dnG = -2.946487e-03 computed for Ecut = 20.

Initialized 1 species with 1 total atoms.

Folded 1 k-points by 12x12x1 to 144 k-points.

---------- Setting up k-points, bands, fillings ----------
Reduced to 19 k-points under symmetry. 
Computing the number of bands and number of electrons
Calculating initial fillings.
nElectrons:   9.000000   nBands: 6   nStates: 38

----- Setting up reduced wavefunction bases (one per k-point) -----
average nbasis = 13230.521 , ideal nbasis = 13229.709

---------- Setting up coulomb interaction ----------
Initialized slab truncation along lattice direction 001

---------- Setting up 2D ewald sum ----------
Optimum gaussian width for ewald sums = 5.249020 bohr.
Real space sums over 289 unit cells with max indices [  8  8  0  ]
Reciprocal space sums over 81 terms with max indices [  4  4  0  ]

---------- Allocating electronic variables ----------
Initializing wave functions:  linear combination of atomic orbitals
Note: number of bands (6) exceeds available atomic orbitals (5)
Na pseudo-atom occupations:   s ( 2 1 )  p ( 6 )
	FillingsUpdate:  mu: -0.107157276  nElectrons: 9.000000  magneticMoment: [ Abs: 0.00014  Tot: +0.00000 ]
LCAOMinimize: Iter:   0  F: -42.5689692357992300  |grad|_K:  1.682e-05  alpha:  1.000e+00
	FillingsUpdate:  mu: -0.107155440  nElectrons: 9.000000  magneticMoment: [ Abs: 0.00015  Tot: +0.00000 ]
LCAOMinimize: Iter:   1  F: -42.5689694269319645  |grad|_K:  1.191e-07  alpha:  9.883e-01  linmin: -1.108e-02  cgtest:  4.402e-01  t[s]:      3.91
LCAOMinimize: Encountered beta<0, resetting CG.
	FillingsUpdate:  mu: -0.107155459  nElectrons: 9.000000  magneticMoment: [ Abs: 0.00015  Tot: +0.00000 ]
LCAOMinimize: Iter:   2  F: -42.5689694269411092  |grad|_K:  3.413e-09  alpha:  9.728e-01  linmin: -3.358e-02  cgtest:  9.984e-01  t[s]:      5.15
LCAOMinimize: Encountered beta<0, resetting CG.
LCAOMinimize: Converged (|Delta F|<1.000000e-06 for 2 iters).


---- Citations for features of the code used in this run ----

   Software package:
      R. Sundararaman, K. Letchworth-Weaver, K.A. Schwarz, D. Gunceler, Y. Ozhabes and T.A. Arias, 'JDFTx: software for joint density-functional theory', SoftwareX 6, 278 (2017)

   gga-PBE exchange-correlation functional:
      J.P. Perdew, K. Burke and M. Ernzerhof, Phys. Rev. Lett. 77, 3865 (1996)

   Pseudopotentials:
      M Schlipf and F Gygi, Comput. Phys. Commun. 196, 36 (2015)

   Truncated Coulomb potentials:
      R. Sundararaman and T.A. Arias, Phys. Rev. B 87, 165122 (2013)

This list may not be complete. Please suggest additional citations or
report any other bugs at https://github.com/shankar1729/jdftx/issues

Initialization completed successfully at t[s]:      5.23


-------- Electronic minimization -----------
Will mix electronic density at each iteration.
	FillingsUpdate:  mu: -0.107155459  nElectrons: 9.000000  magneticMoment: [ Abs: 0.00015  Tot: +0.00000 ]
	FillingsUpdate:  mu: -0.115020376  nElectrons: 9.000000  magneticMoment: [ Abs: 0.00015  Tot: +0.00000 ]
SCF: Cycle:  0   F: -42.573030235265705   dF: -4.061e-03   |Residual|: 6.891e-03   |deigs|: 1.706e-01  t[s]:      7.52
	FillingsUpdate:  mu: -0.115193754  nElectrons: 9.000000  magneticMoment: [ Abs: 0.00024  Tot: +0.00000 ]
SCF: Cycle:  1   F: -42.573090017354723   dF: -5.978e-05   |Residual|: 4.990e-03   |deigs|: 8.933e-03  t[s]:      9.23
	FillingsUpdate:  mu: -0.114960682  nElectrons: 9.000000  magneticMoment: [ Abs: 0.00044  Tot: -0.00000 ]
SCF: Cycle:  2   F: -42.573110611143207   dF: -2.059e-05   |Residual|: 1.956e-03   |deigs|: 7.008e-03  t[s]:     10.95
	FillingsUpdate:  mu: -0.114222216  nElectrons: 9.000000  magneticMoment: [ Abs: 0.00056  Tot: -0.00000 ]
SCF: Cycle:  3   F: -42.573113842098508   dF: -3.231e-06   |Residual|: 9.484e-04   |deigs|: 4.059e-03  t[s]:     12.72
	FillingsUpdate:  mu: -0.113999742  nElectrons: 9.000000  magneticMoment: [ Abs: 0.00018  Tot: -0.00000 ]
SCF: Cycle:  4   F: -42.573114328916446   dF: -4.868e-07   |Residual|: 8.308e-04   |deigs|: 3.453e-03  t[s]:     14.50
	FillingsUpdate:  mu: -0.112618050  nElectrons: 9.000000  magneticMoment: [ Abs: 0.00145  Tot: -0.00000 ]
SCF: Cycle:  5   F: -42.573114303910657   dF: +2.501e-08   |Residual|: 5.053e-04   |deigs|: 2.714e-03  t[s]:     16.36
	FillingsUpdate:  mu: -0.112135118  nElectrons: 9.000000  magneticMoment: [ Abs: 0.00061  Tot: -0.00000 ]
SCF: Cycle:  6   F: -42.573114607128375   dF: -3.032e-07   |Residual|: 3.994e-04   |deigs|: 7.302e-04  t[s]:     18.19
	FillingsUpdate:  mu: -0.111569858  nElectrons: 9.000000  magneticMoment: [ Abs: 0.00062  Tot: -0.00000 ]
SCF: Cycle:  7   F: -42.573115812124186   dF: -1.205e-06   |Residual|: 3.271e-04   |deigs|: 8.396e-04  t[s]:     20.08
	FillingsUpdate:  mu: -0.111086541  nElectrons: 9.000000  magneticMoment: [ Abs: 0.00065  Tot: -0.00000 ]
SCF: Cycle:  8   F: -42.573115929179274   dF: -1.171e-07   |Residual|: 2.778e-04   |deigs|: 4.663e-04  t[s]:     21.98
	FillingsUpdate:  mu: -0.110704144  nElectrons: 9.000000  magneticMoment: [ Abs: 0.00075  Tot: +0.00000 ]
SCF: Cycle:  9   F: -42.573114485105812   dF: +1.444e-06   |Residual|: 2.267e-04   |deigs|: 2.930e-04  t[s]:     23.88
	FillingsUpdate:  mu: -0.110216838  nElectrons: 9.000000  magneticMoment: [ Abs: 0.00061  Tot: +0.00000 ]
SCF: Cycle: 10   F: -42.573114663893790   dF: -1.788e-07   |Residual|: 2.257e-04   |deigs|: 4.179e-04  t[s]:     25.90
	FillingsUpdate:  mu: -0.109685276  nElectrons: 9.000000  magneticMoment: [ Abs: 0.00070  Tot: +0.00000 ]
SCF: Cycle: 11   F: -42.573115981778599   dF: -1.318e-06   |Residual|: 1.912e-04   |deigs|: 6.201e-04  t[s]:     27.88
	FillingsUpdate:  mu: -0.109183859  nElectrons: 9.000000  magneticMoment: [ Abs: 0.00069  Tot: +0.00000 ]
SCF: Cycle: 12   F: -42.573116540183946   dF: -5.584e-07   |Residual|: 1.776e-04   |deigs|: 5.387e-04  t[s]:     29.89
	FillingsUpdate:  mu: -0.108719269  nElectrons: 9.000000  magneticMoment: [ Abs: 0.00058  Tot: +0.00000 ]
SCF: Cycle: 13   F: -42.573117195027862   dF: -6.548e-07   |Residual|: 1.559e-04   |deigs|: 4.818e-04  t[s]:     31.83
	FillingsUpdate:  mu: -0.108337102  nElectrons: 9.000000  magneticMoment: [ Abs: 0.00030  Tot: +0.00000 ]
SCF: Cycle: 14   F: -42.573117672760958   dF: -4.777e-07   |Residual|: 1.245e-04   |deigs|: 3.851e-04  t[s]:     33.76
	FillingsUpdate:  mu: -0.108121954  nElectrons: 9.000000  magneticMoment: [ Abs: 0.00017  Tot: +0.00000 ]
SCF: Cycle: 15   F: -42.573117807744666   dF: -1.350e-07   |Residual|: 9.566e-05   |deigs|: 2.212e-04  t[s]:     35.71
	FillingsUpdate:  mu: -0.107909172  nElectrons: 9.000000  magneticMoment: [ Abs: 0.00040  Tot: +0.00000 ]
SCF: Cycle: 16   F: -42.573117863428621   dF: -5.568e-08   |Residual|: 5.254e-05   |deigs|: 2.222e-04  t[s]:     37.66
	FillingsUpdate:  mu: -0.107828858  nElectrons: 9.000000  magneticMoment: [ Abs: 0.00016  Tot: +0.00000 ]
SCF: Cycle: 17   F: -42.573117883098433   dF: -1.967e-08   |Residual|: 3.112e-05   |deigs|: 1.626e-03  t[s]:     39.58
	FillingsUpdate:  mu: -0.107827384  nElectrons: 9.000000  magneticMoment: [ Abs: 0.00012  Tot: +0.00000 ]
SCF: Cycle: 18   F: -42.573117887173986   dF: -4.076e-09   |Residual|: 1.853e-05   |deigs|: 9.337e-05  t[s]:     41.56
	FillingsUpdate:  mu: -0.107827725  nElectrons: 9.000000  magneticMoment: [ Abs: 0.00005  Tot: +0.00000 ]
SCF: Cycle: 19   F: -42.573117890435206   dF: -3.261e-09   |Residual|: 9.127e-06   |deigs|: 5.365e-06  t[s]:     43.55
SCF: Converged (|Delta E|<1.000000e-08 for 2 iters).


# Ionic positions in lattice coordinates:
ion Na   0.000000000000000   0.000000000000000   0.000000000000000 0

# Forces in Lattice coordinates:
force Na   0.000000000000000  -0.000000000000000   0.000000000000000 0

# Energy components:
   Eewald =      -18.0480261003326561
       EH =       15.7222249476629639
     Eloc =      -42.7336291818158927
      Enl =      -12.9128473892116915
   Epulay =        0.0000007725295140
      Exc =       -6.2158271568884320
       KE =       21.6149866956809618
-------------------------------------
     Etot =      -42.5731174123752325
       TS =        0.0000004780599717
-------------------------------------
        F =      -42.5731178904352063

IonicMinimize: Iter:   0  F: -42.573117890435206  |grad|_K:  0.000e+00  t[s]:     43.63
IonicMinimize: Converged (|grad|_K<1.000000e-04).

#--- Lowdin population analysis ---
# oxidation-state Na +0.033
# magnetic-moments Na +0.000

End date and time: Sat Feb  5 22:29:34 2022  (Duration: 0-0:00:43.65)
Done!
