
*************** JDFTx 1.6.0 (git hash 42ebbcc2) ***************

Start date and time: Sat Feb  5 22:25:22 2022
Executable jdftx with command-line: -i Alkali.in
Running on hosts (process indices):  d-16-12-3 (0-18)
Divided in process groups (process indices):  0 (0)  1 (1)  2 (2)  3 (3)  4 (4)  5 (5)  6 (6)  7 (7)  8 (8)  9 (9)  10 (10)  11 (11)  12 (12)  13 (13)  14 (14)  15 (15)  16 (16)  17 (17)  18 (18)
Resource initialization completed at t[s]:      0.00
Run totals: 19 processes, 48 threads, 0 GPUs


Input parsed successfully to the following command list (including defaults):

basis kpoint-dependent
coords-type Lattice
core-overlap-check vector
coulomb-interaction Slab 001
davidson-band-ratio 1.1
dump End None
dump-name $INPUT.$VAR
elec-cutoff 20
elec-eigen-algo Davidson
elec-ex-corr gga-PBE
elec-initial-magnetization -0.440000 yes
elec-smearing Fermi 1e-05
electronic-minimize  \
	dirUpdateScheme      FletcherReeves \
	linminMethod         DirUpdateRecommended \
	nIterations          100 \
	history              15 \
	knormThreshold       0 \
	energyDiffThreshold  1e-08 \
	nEnergyDiff          2 \
	alphaTstart          1 \
	alphaTmin            1e-10 \
	updateTestStepSize   yes \
	alphaTreduceFactor   0.1 \
	alphaTincreaseFactor 3 \
	nAlphaAdjustMax      3 \
	wolfeEnergy          0.0001 \
	wolfeGradient        0.9 \
	fdTest               no
electronic-scf  \
	nIterations	10000 \
	energyDiffThreshold	1e-08 \
	residualThreshold	1e-07 \
	mixFraction	0.5 \
	qMetric	0.8 \
	history	10 \
	nEigSteps	2 \
	eigDiffThreshold	1e-08 \
	mixedVariable	Density \
	qKerker	0.8 \
	qKappa	-1 \
	verbose	no \
	mixFractionMag	1.5
exchange-regularization WignerSeitzTruncated
fluid None
fluid-ex-corr (null) lda-PZ
fluid-gummel-loop 10 1.000000e-05
fluid-minimize  \
	dirUpdateScheme      PolakRibiere \
	linminMethod         DirUpdateRecommended \
	nIterations          100 \
	history              15 \
	knormThreshold       0 \
	energyDiffThreshold  0 \
	nEnergyDiff          2 \
	alphaTstart          1 \
	alphaTmin            1e-10 \
	updateTestStepSize   yes \
	alphaTreduceFactor   0.1 \
	alphaTincreaseFactor 3 \
	nAlphaAdjustMax      3 \
	wolfeEnergy          0.0001 \
	wolfeGradient        0.9 \
	fdTest               no
fluid-solvent H2O 55.338 ScalarEOS \
	epsBulk 78.4 \
	pMol 0.92466 \
	epsInf 1.77 \
	Pvap 1.06736e-10 \
	sigmaBulk 4.62e-05 \
	Rvdw 2.61727 \
	Res 1.42 \
	tauNuc 343133 \
	poleEl 15 7 1
forces-output-coords Positions
ion Na   0.000000000000000   0.000000000000000   0.000000000000000 0
ion-species SG15/$ID_ONCV_PBE.upf
ion-width 0
ionic-minimize  \
	dirUpdateScheme      L-BFGS \
	linminMethod         DirUpdateRecommended \
	nIterations          0 \
	history              15 \
	knormThreshold       0.0001 \
	energyDiffThreshold  1e-06 \
	nEnergyDiff          2 \
	alphaTstart          1 \
	alphaTmin            1e-10 \
	updateTestStepSize   yes \
	alphaTreduceFactor   0.1 \
	alphaTincreaseFactor 3 \
	nAlphaAdjustMax      3 \
	wolfeEnergy          0.0001 \
	wolfeGradient        0.9 \
	fdTest               no
kpoint   0.000000000000   0.000000000000   0.000000000000  1.00000000000000
kpoint-folding 12 12 1 
latt-move-scale 1 1 1
latt-scale 2 2 1 
lattice  \
	   4.727486978767153   -2.363743489383575    0.000000000000000  \
	  -0.000000000000000    4.094123819672498    0.000000000000000  \
	   0.000000000000000    0.000000000000000   40.000000000000000 
lattice-minimize  \
	dirUpdateScheme      L-BFGS \
	linminMethod         DirUpdateRecommended \
	nIterations          0 \
	history              15 \
	knormThreshold       0 \
	energyDiffThreshold  1e-06 \
	nEnergyDiff          2 \
	alphaTstart          1 \
	alphaTmin            1e-10 \
	updateTestStepSize   yes \
	alphaTreduceFactor   0.1 \
	alphaTincreaseFactor 3 \
	nAlphaAdjustMax      3 \
	wolfeEnergy          0.0001 \
	wolfeGradient        0.9 \
	fdTest               no
lcao-params -1 1e-06 1e-05
pcm-variant GLSSA13
spintype z-spin
subspace-rotation-factor 1 yes
symmetries automatic
symmetry-threshold 0.0001



---------- Setting up symmetries ----------

Found 24 point-group symmetries of the bravais lattice
Found 24 space-group symmetries with basis
Applied RMS atom displacement 0 bohrs to make symmetries exact.

---------- Initializing the Grid ----------
R = 
[      9.45497     -4.72749            0  ]
[            0      8.18825            0  ]
[            0            0           40  ]
unit cell volume = 3096.79
G =
[   0.664538   0.383671         -0  ]
[          0   0.767342         -0  ]
[         -0         -0    0.15708  ]
Minimum fftbox size, Smin = [  40  40  164  ]
Chosen fftbox size, S = [  40  40  168  ]

---------- Exchange Correlation functional ----------
Initalized PBE GGA exchange.
Initalized PBE GGA correlation.

---------- Setting up pseudopotentials ----------
Width of ionic core gaussian charges (only for fluid interactions / plotting) set to 0

Reading pseudopotential file '/home/gridsan/aligho/DFT/build-Nov24/pseudopotentials/SG15/Na_ONCV_PBE.upf':
  'Na' pseudopotential, 'PBE' functional
  Generated using ONCVPSP code by D. R. Hamann
  Author: Martin Schlipf and Francois Gygi  Date: 150915.
  9 valence electrons, 3 orbitals, 4 projectors, 1992 radial grid points, with lMax = 1
  Transforming local potential to a uniform radial grid of dG=0.02 with 1489 points.
  Transforming nonlocal projectors to a uniform radial grid of dG=0.02 with 432 points.
    2S    l: 0   occupation:  2.0   eigenvalue: -2.085640
    2P    l: 1   occupation:  6.0   eigenvalue: -1.053708
    3S    l: 0   occupation:  1.0   eigenvalue: -0.100838
  Transforming atomic orbitals to a uniform radial grid of dG=0.02 with 432 points.
  Core radius for overlap checks: 2.01 bohrs.
  Reading pulay file /home/gridsan/aligho/DFT/build-Nov24/pseudopotentials/SG15/Na_ONCV_PBE.pulay ... using dE_dnG = -2.946487e-03 computed for Ecut = 20.

Initialized 1 species with 1 total atoms.

Folded 1 k-points by 12x12x1 to 144 k-points.

---------- Setting up k-points, bands, fillings ----------
Reduced to 19 k-points under symmetry. 
Computing the number of bands and number of electrons
Calculating initial fillings.
nElectrons:   9.000000   nBands: 6   nStates: 38

----- Setting up reduced wavefunction bases (one per k-point) -----
average nbasis = 13230.521 , ideal nbasis = 13229.709

---------- Setting up coulomb interaction ----------
Initialized slab truncation along lattice direction 001

---------- Setting up 2D ewald sum ----------
Optimum gaussian width for ewald sums = 5.249020 bohr.
Real space sums over 289 unit cells with max indices [  8  8  0  ]
Reciprocal space sums over 81 terms with max indices [  4  4  0  ]

---------- Allocating electronic variables ----------
Initializing wave functions:  linear combination of atomic orbitals
Note: number of bands (6) exceeds available atomic orbitals (5)
Na pseudo-atom occupations:   s ( 2 1 )  p ( 6 )
	FillingsUpdate:  mu: -0.104937589  nElectrons: 9.000000  magneticMoment: [ Abs: 0.44000  Tot: -0.44000 ]
LCAOMinimize: Iter:   0  F: -42.5657846507909525  |grad|_K:  2.444e-05  alpha:  1.000e+00
	FillingsUpdate:  mu: -0.104933818  nElectrons: 9.000000  magneticMoment: [ Abs: 0.44000  Tot: -0.44000 ]
LCAOMinimize: Iter:   1  F: -42.5657850541876499  |grad|_K:  2.102e-07  alpha:  9.879e-01  linmin: -1.863e-02  cgtest:  6.621e-01  t[s]:      4.56
LCAOMinimize: Encountered beta<0, resetting CG.
	FillingsUpdate:  mu: -0.104933830  nElectrons: 9.000000  magneticMoment: [ Abs: 0.44000  Tot: -0.44000 ]
LCAOMinimize: Iter:   2  F: -42.5657850542183525  |grad|_K:  4.512e-09  alpha:  1.023e+00  linmin:  3.812e-02  cgtest: -9.995e-01  t[s]:      5.78
LCAOMinimize: Converged (|Delta F|<1.000000e-06 for 2 iters).


---- Citations for features of the code used in this run ----

   Software package:
      R. Sundararaman, K. Letchworth-Weaver, K.A. Schwarz, D. Gunceler, Y. Ozhabes and T.A. Arias, 'JDFTx: software for joint density-functional theory', SoftwareX 6, 278 (2017)

   gga-PBE exchange-correlation functional:
      J.P. Perdew, K. Burke and M. Ernzerhof, Phys. Rev. Lett. 77, 3865 (1996)

   Pseudopotentials:
      M Schlipf and F Gygi, Comput. Phys. Commun. 196, 36 (2015)

   Truncated Coulomb potentials:
      R. Sundararaman and T.A. Arias, Phys. Rev. B 87, 165122 (2013)

This list may not be complete. Please suggest additional citations or
report any other bugs at https://github.com/shankar1729/jdftx/issues

Initialization completed successfully at t[s]:      5.85


-------- Electronic minimization -----------
Will mix electronic density at each iteration.
	FillingsUpdate:  mu: -0.104933830  nElectrons: 9.000000  magneticMoment: [ Abs: 0.44000  Tot: -0.44000 ]
	FillingsUpdate:  mu: -0.111813073  nElectrons: 9.000000  magneticMoment: [ Abs: 0.44000  Tot: -0.44000 ]
SCF: Cycle:  0   F: -42.570586481196102   dF: -4.801e-03   |Residual|: 9.270e-03   |deigs|: 1.703e-01  t[s]:      8.12
	FillingsUpdate:  mu: -0.111794236  nElectrons: 9.000000  magneticMoment: [ Abs: 0.44000  Tot: -0.44000 ]
SCF: Cycle:  1   F: -42.570701183969568   dF: -1.147e-04   |Residual|: 6.249e-03   |deigs|: 8.745e-03  t[s]:      9.83
	FillingsUpdate:  mu: -0.111587269  nElectrons: 9.000000  magneticMoment: [ Abs: 0.44132  Tot: -0.44000 ]
SCF: Cycle:  2   F: -42.570716938470170   dF: -1.575e-05   |Residual|: 3.600e-03   |deigs|: 6.688e-03  t[s]:     11.57
	FillingsUpdate:  mu: -0.111465008  nElectrons: 9.000000  magneticMoment: [ Abs: 0.44004  Tot: -0.44000 ]
SCF: Cycle:  3   F: -42.570721779858907   dF: -4.841e-06   |Residual|: 2.100e-03   |deigs|: 4.840e-03  t[s]:     13.33
	FillingsUpdate:  mu: -0.111125045  nElectrons: 9.000000  magneticMoment: [ Abs: 0.44007  Tot: -0.44000 ]
SCF: Cycle:  4   F: -42.570736173556810   dF: -1.439e-05   |Residual|: 9.478e-04   |deigs|: 3.120e-03  t[s]:     15.15
	FillingsUpdate:  mu: -0.110822770  nElectrons: 9.000000  magneticMoment: [ Abs: 0.44016  Tot: -0.44000 ]
SCF: Cycle:  5   F: -42.570738007122522   dF: -1.834e-06   |Residual|: 7.692e-04   |deigs|: 1.215e-03  t[s]:     17.00
	FillingsUpdate:  mu: -0.110141515  nElectrons: 9.000000  magneticMoment: [ Abs: 0.44085  Tot: -0.44000 ]
SCF: Cycle:  6   F: -42.570738568710432   dF: -5.616e-07   |Residual|: 5.782e-04   |deigs|: 2.093e-03  t[s]:     18.92
	FillingsUpdate:  mu: -0.109304071  nElectrons: 9.000000  magneticMoment: [ Abs: 0.44228  Tot: -0.44000 ]
SCF: Cycle:  7   F: -42.570737634205642   dF: +9.345e-07   |Residual|: 4.182e-04   |deigs|: 1.139e-03  t[s]:     20.88
	FillingsUpdate:  mu: -0.108608639  nElectrons: 9.000000  magneticMoment: [ Abs: 0.44175  Tot: -0.44000 ]
SCF: Cycle:  8   F: -42.570737321374480   dF: +3.128e-07   |Residual|: 3.546e-04   |deigs|: 9.408e-04  t[s]:     22.80
	FillingsUpdate:  mu: -0.108282462  nElectrons: 9.000000  magneticMoment: [ Abs: 0.44074  Tot: -0.44000 ]
SCF: Cycle:  9   F: -42.570738942088674   dF: -1.621e-06   |Residual|: 3.014e-04   |deigs|: 5.350e-04  t[s]:     24.72
	FillingsUpdate:  mu: -0.108213933  nElectrons: 9.000000  magneticMoment: [ Abs: 0.44117  Tot: -0.44000 ]
SCF: Cycle: 10   F: -42.570740326133809   dF: -1.384e-06   |Residual|: 2.318e-04   |deigs|: 1.938e-04  t[s]:     26.70
	FillingsUpdate:  mu: -0.107654753  nElectrons: 9.000000  magneticMoment: [ Abs: 0.44141  Tot: -0.44000 ]
SCF: Cycle: 11   F: -42.570739400725429   dF: +9.254e-07   |Residual|: 2.145e-04   |deigs|: 8.047e-04  t[s]:     28.71
	FillingsUpdate:  mu: -0.107021523  nElectrons: 9.000000  magneticMoment: [ Abs: 0.44085  Tot: -0.44000 ]
SCF: Cycle: 12   F: -42.570738662081773   dF: +7.386e-07   |Residual|: 1.968e-04   |deigs|: 6.749e-04  t[s]:     30.66
	FillingsUpdate:  mu: -0.106624996  nElectrons: 9.000000  magneticMoment: [ Abs: 0.44135  Tot: -0.44000 ]
SCF: Cycle: 13   F: -42.570739845361594   dF: -1.183e-06   |Residual|: 1.735e-04   |deigs|: 3.807e-04  t[s]:     32.55
	FillingsUpdate:  mu: -0.106336594  nElectrons: 9.000000  magneticMoment: [ Abs: 0.44117  Tot: -0.44000 ]
SCF: Cycle: 14   F: -42.570740758690988   dF: -9.133e-07   |Residual|: 1.601e-04   |deigs|: 3.023e-04  t[s]:     34.46
	FillingsUpdate:  mu: -0.105701397  nElectrons: 9.000000  magneticMoment: [ Abs: 0.44066  Tot: -0.44000 ]
SCF: Cycle: 15   F: -42.570741254009079   dF: -4.953e-07   |Residual|: 1.489e-04   |deigs|: 6.881e-04  t[s]:     36.31
	FillingsUpdate:  mu: -0.105261928  nElectrons: 9.000000  magneticMoment: [ Abs: 0.44035  Tot: -0.44000 ]
SCF: Cycle: 16   F: -42.570741659404938   dF: -4.054e-07   |Residual|: 1.130e-04   |deigs|: 4.254e-04  t[s]:     38.24
	FillingsUpdate:  mu: -0.105026332  nElectrons: 9.000000  magneticMoment: [ Abs: 0.44038  Tot: -0.44000 ]
SCF: Cycle: 17   F: -42.570741840666024   dF: -1.813e-07   |Residual|: 7.431e-05   |deigs|: 2.010e-04  t[s]:     40.15
	FillingsUpdate:  mu: -0.104928308  nElectrons: 9.000000  magneticMoment: [ Abs: 0.44023  Tot: -0.44000 ]
SCF: Cycle: 18   F: -42.570741886947793   dF: -4.628e-08   |Residual|: 5.932e-05   |deigs|: 5.390e-04  t[s]:     42.06
	FillingsUpdate:  mu: -0.104850024  nElectrons: 9.000000  magneticMoment: [ Abs: 0.44032  Tot: -0.44000 ]
SCF: Cycle: 19   F: -42.570741922826031   dF: -3.588e-08   |Residual|: 2.631e-05   |deigs|: 2.851e-04  t[s]:     43.97
	FillingsUpdate:  mu: -0.104821413  nElectrons: 9.000000  magneticMoment: [ Abs: 0.44028  Tot: -0.44000 ]
SCF: Cycle: 20   F: -42.570741931101360   dF: -8.275e-09   |Residual|: 1.448e-05   |deigs|: 5.738e-05  t[s]:     45.88
	FillingsUpdate:  mu: -0.104820074  nElectrons: 9.000000  magneticMoment: [ Abs: 0.44021  Tot: -0.44000 ]
SCF: Cycle: 21   F: -42.570741932416333   dF: -1.315e-09   |Residual|: 9.667e-06   |deigs|: 6.740e-04  t[s]:     47.75
SCF: Converged (|Delta E|<1.000000e-08 for 2 iters).


# Ionic positions in lattice coordinates:
ion Na   0.000000000000000   0.000000000000000   0.000000000000000 0

# Forces in Lattice coordinates:
force Na   0.000000000000000   0.000000000000000   0.000000000000000 0

# Energy components:
   Eewald =      -18.0480261003326561
       EH =       15.7303978557071797
     Eloc =      -42.7422560438632573
      Enl =      -12.9136575350865197
   Epulay =        0.0000007725295140
      Exc =       -6.2177689159242551
       KE =       21.6205688932493842
-------------------------------------
     Etot =      -42.5707410737206118
       TS =        0.0000008586957218
-------------------------------------
        F =      -42.5707419324163325

IonicMinimize: Iter:   0  F: -42.570741932416333  |grad|_K:  0.000e+00  t[s]:     47.82
IonicMinimize: Converged (|grad|_K<1.000000e-04).

#--- Lowdin population analysis ---
# oxidation-state Na +0.055
# magnetic-moments Na -0.392

End date and time: Sat Feb  5 22:26:10 2022  (Duration: 0-0:00:47.85)
Done!
