
*************** JDFTx 1.6.0 (git hash 42ebbcc2) ***************

Start date and time: Sat Feb  5 22:20:47 2022
Executable jdftx with command-line: -i Alkali.in
Running on hosts (process indices):  d-16-12-3 (0-18)
Divided in process groups (process indices):  0 (0)  1 (1)  2 (2)  3 (3)  4 (4)  5 (5)  6 (6)  7 (7)  8 (8)  9 (9)  10 (10)  11 (11)  12 (12)  13 (13)  14 (14)  15 (15)  16 (16)  17 (17)  18 (18)
Resource initialization completed at t[s]:      0.00
Run totals: 19 processes, 48 threads, 0 GPUs


Input parsed successfully to the following command list (including defaults):

basis kpoint-dependent
coords-type Lattice
core-overlap-check vector
coulomb-interaction Slab 001
davidson-band-ratio 1.1
dump End None
dump-name $INPUT.$VAR
elec-cutoff 20
elec-eigen-algo Davidson
elec-ex-corr gga-PBE
elec-initial-magnetization -0.620000 yes
elec-smearing Fermi 1e-05
electronic-minimize  \
	dirUpdateScheme      FletcherReeves \
	linminMethod         DirUpdateRecommended \
	nIterations          100 \
	history              15 \
	knormThreshold       0 \
	energyDiffThreshold  1e-08 \
	nEnergyDiff          2 \
	alphaTstart          1 \
	alphaTmin            1e-10 \
	updateTestStepSize   yes \
	alphaTreduceFactor   0.1 \
	alphaTincreaseFactor 3 \
	nAlphaAdjustMax      3 \
	wolfeEnergy          0.0001 \
	wolfeGradient        0.9 \
	fdTest               no
electronic-scf  \
	nIterations	10000 \
	energyDiffThreshold	1e-08 \
	residualThreshold	1e-07 \
	mixFraction	0.5 \
	qMetric	0.8 \
	history	10 \
	nEigSteps	2 \
	eigDiffThreshold	1e-08 \
	mixedVariable	Density \
	qKerker	0.8 \
	qKappa	-1 \
	verbose	no \
	mixFractionMag	1.5
exchange-regularization WignerSeitzTruncated
fluid None
fluid-ex-corr (null) lda-PZ
fluid-gummel-loop 10 1.000000e-05
fluid-minimize  \
	dirUpdateScheme      PolakRibiere \
	linminMethod         DirUpdateRecommended \
	nIterations          100 \
	history              15 \
	knormThreshold       0 \
	energyDiffThreshold  0 \
	nEnergyDiff          2 \
	alphaTstart          1 \
	alphaTmin            1e-10 \
	updateTestStepSize   yes \
	alphaTreduceFactor   0.1 \
	alphaTincreaseFactor 3 \
	nAlphaAdjustMax      3 \
	wolfeEnergy          0.0001 \
	wolfeGradient        0.9 \
	fdTest               no
fluid-solvent H2O 55.338 ScalarEOS \
	epsBulk 78.4 \
	pMol 0.92466 \
	epsInf 1.77 \
	Pvap 1.06736e-10 \
	sigmaBulk 4.62e-05 \
	Rvdw 2.61727 \
	Res 1.42 \
	tauNuc 343133 \
	poleEl 15 7 1
forces-output-coords Positions
ion Na   0.000000000000000   0.000000000000000   0.000000000000000 0
ion-species SG15/$ID_ONCV_PBE.upf
ion-width 0
ionic-minimize  \
	dirUpdateScheme      L-BFGS \
	linminMethod         DirUpdateRecommended \
	nIterations          0 \
	history              15 \
	knormThreshold       0.0001 \
	energyDiffThreshold  1e-06 \
	nEnergyDiff          2 \
	alphaTstart          1 \
	alphaTmin            1e-10 \
	updateTestStepSize   yes \
	alphaTreduceFactor   0.1 \
	alphaTincreaseFactor 3 \
	nAlphaAdjustMax      3 \
	wolfeEnergy          0.0001 \
	wolfeGradient        0.9 \
	fdTest               no
kpoint   0.000000000000   0.000000000000   0.000000000000  1.00000000000000
kpoint-folding 12 12 1 
latt-move-scale 1 1 1
latt-scale 2 2 1 
lattice  \
	   4.727486978767153   -2.363743489383575    0.000000000000000  \
	  -0.000000000000000    4.094123819672498    0.000000000000000  \
	   0.000000000000000    0.000000000000000   40.000000000000000 
lattice-minimize  \
	dirUpdateScheme      L-BFGS \
	linminMethod         DirUpdateRecommended \
	nIterations          0 \
	history              15 \
	knormThreshold       0 \
	energyDiffThreshold  1e-06 \
	nEnergyDiff          2 \
	alphaTstart          1 \
	alphaTmin            1e-10 \
	updateTestStepSize   yes \
	alphaTreduceFactor   0.1 \
	alphaTincreaseFactor 3 \
	nAlphaAdjustMax      3 \
	wolfeEnergy          0.0001 \
	wolfeGradient        0.9 \
	fdTest               no
lcao-params -1 1e-06 1e-05
pcm-variant GLSSA13
spintype z-spin
subspace-rotation-factor 1 yes
symmetries automatic
symmetry-threshold 0.0001



---------- Setting up symmetries ----------

Found 24 point-group symmetries of the bravais lattice
Found 24 space-group symmetries with basis
Applied RMS atom displacement 0 bohrs to make symmetries exact.

---------- Initializing the Grid ----------
R = 
[      9.45497     -4.72749            0  ]
[            0      8.18825            0  ]
[            0            0           40  ]
unit cell volume = 3096.79
G =
[   0.664538   0.383671         -0  ]
[          0   0.767342         -0  ]
[         -0         -0    0.15708  ]
Minimum fftbox size, Smin = [  40  40  164  ]
Chosen fftbox size, S = [  40  40  168  ]

---------- Exchange Correlation functional ----------
Initalized PBE GGA exchange.
Initalized PBE GGA correlation.

---------- Setting up pseudopotentials ----------
Width of ionic core gaussian charges (only for fluid interactions / plotting) set to 0

Reading pseudopotential file '/home/gridsan/aligho/DFT/build-Nov24/pseudopotentials/SG15/Na_ONCV_PBE.upf':
  'Na' pseudopotential, 'PBE' functional
  Generated using ONCVPSP code by D. R. Hamann
  Author: Martin Schlipf and Francois Gygi  Date: 150915.
  9 valence electrons, 3 orbitals, 4 projectors, 1992 radial grid points, with lMax = 1
  Transforming local potential to a uniform radial grid of dG=0.02 with 1489 points.
  Transforming nonlocal projectors to a uniform radial grid of dG=0.02 with 432 points.
    2S    l: 0   occupation:  2.0   eigenvalue: -2.085640
    2P    l: 1   occupation:  6.0   eigenvalue: -1.053708
    3S    l: 0   occupation:  1.0   eigenvalue: -0.100838
  Transforming atomic orbitals to a uniform radial grid of dG=0.02 with 432 points.
  Core radius for overlap checks: 2.01 bohrs.
  Reading pulay file /home/gridsan/aligho/DFT/build-Nov24/pseudopotentials/SG15/Na_ONCV_PBE.pulay ... using dE_dnG = -2.946487e-03 computed for Ecut = 20.

Initialized 1 species with 1 total atoms.

Folded 1 k-points by 12x12x1 to 144 k-points.

---------- Setting up k-points, bands, fillings ----------
Reduced to 19 k-points under symmetry. 
Computing the number of bands and number of electrons
Calculating initial fillings.
nElectrons:   9.000000   nBands: 6   nStates: 38

----- Setting up reduced wavefunction bases (one per k-point) -----
average nbasis = 13230.521 , ideal nbasis = 13229.709

---------- Setting up coulomb interaction ----------
Initialized slab truncation along lattice direction 001

---------- Setting up 2D ewald sum ----------
Optimum gaussian width for ewald sums = 5.249020 bohr.
Real space sums over 289 unit cells with max indices [  8  8  0  ]
Reciprocal space sums over 81 terms with max indices [  4  4  0  ]

---------- Allocating electronic variables ----------
Initializing wave functions:  linear combination of atomic orbitals
Note: number of bands (6) exceeds available atomic orbitals (5)
Na pseudo-atom occupations:   s ( 2 1 )  p ( 6 )
	FillingsUpdate:  mu: -0.108790471  nElectrons: 9.000000  magneticMoment: [ Abs: 0.62000  Tot: -0.62000 ]
LCAOMinimize: Iter:   0  F: -42.5630401303318919  |grad|_K:  1.930e-05  alpha:  1.000e+00
	FillingsUpdate:  mu: -0.108788324  nElectrons: 9.000000  magneticMoment: [ Abs: 0.62000  Tot: -0.62000 ]
LCAOMinimize: Iter:   1  F: -42.5630403825624626  |grad|_K:  1.516e-07  alpha:  9.902e-01  linmin: -1.764e-02  cgtest:  5.865e-01  t[s]:      5.00
LCAOMinimize: Encountered beta<0, resetting CG.
	FillingsUpdate:  mu: -0.108788344  nElectrons: 9.000000  magneticMoment: [ Abs: 0.62000  Tot: -0.62000 ]
LCAOMinimize: Iter:   2  F: -42.5630403825774550  |grad|_K:  1.302e-08  alpha:  9.150e-01  linmin: -5.286e-02  cgtest:  9.997e-01  t[s]:      6.22
LCAOMinimize: Encountered beta<0, resetting CG.
LCAOMinimize: Converged (|Delta F|<1.000000e-06 for 2 iters).


---- Citations for features of the code used in this run ----

   Software package:
      R. Sundararaman, K. Letchworth-Weaver, K.A. Schwarz, D. Gunceler, Y. Ozhabes and T.A. Arias, 'JDFTx: software for joint density-functional theory', SoftwareX 6, 278 (2017)

   gga-PBE exchange-correlation functional:
      J.P. Perdew, K. Burke and M. Ernzerhof, Phys. Rev. Lett. 77, 3865 (1996)

   Pseudopotentials:
      M Schlipf and F Gygi, Comput. Phys. Commun. 196, 36 (2015)

   Truncated Coulomb potentials:
      R. Sundararaman and T.A. Arias, Phys. Rev. B 87, 165122 (2013)

This list may not be complete. Please suggest additional citations or
report any other bugs at https://github.com/shankar1729/jdftx/issues

Initialization completed successfully at t[s]:      6.29


-------- Electronic minimization -----------
Will mix electronic density at each iteration.
	FillingsUpdate:  mu: -0.108788344  nElectrons: 9.000000  magneticMoment: [ Abs: 0.62000  Tot: -0.62000 ]
	FillingsUpdate:  mu: -0.112794548  nElectrons: 9.000000  magneticMoment: [ Abs: 0.62000  Tot: -0.62000 ]
SCF: Cycle:  0   F: -42.568245534300765   dF: -5.205e-03   |Residual|: 1.060e-02   |deigs|: 1.700e-01  t[s]:      8.62
	FillingsUpdate:  mu: -0.112725610  nElectrons: 9.000000  magneticMoment: [ Abs: 0.62000  Tot: -0.62000 ]
SCF: Cycle:  1   F: -42.568437129890320   dF: -1.916e-04   |Residual|: 7.168e-03   |deigs|: 8.726e-03  t[s]:     10.38
	FillingsUpdate:  mu: -0.112424268  nElectrons: 9.000000  magneticMoment: [ Abs: 0.62137  Tot: -0.62000 ]
SCF: Cycle:  2   F: -42.568459778639330   dF: -2.265e-05   |Residual|: 4.412e-03   |deigs|: 6.746e-03  t[s]:     12.10
	FillingsUpdate:  mu: -0.112394642  nElectrons: 9.000000  magneticMoment: [ Abs: 0.62011  Tot: -0.62000 ]
SCF: Cycle:  3   F: -42.568464959141110   dF: -5.181e-06   |Residual|: 2.580e-03   |deigs|: 5.204e-03  t[s]:     13.90
	FillingsUpdate:  mu: -0.112337957  nElectrons: 9.000000  magneticMoment: [ Abs: 0.62014  Tot: -0.62000 ]
SCF: Cycle:  4   F: -42.568492866307984   dF: -2.791e-05   |Residual|: 1.051e-03   |deigs|: 1.535e-03  t[s]:     15.66
	FillingsUpdate:  mu: -0.112140027  nElectrons: 9.000000  magneticMoment: [ Abs: 0.62026  Tot: -0.62000 ]
SCF: Cycle:  5   F: -42.568496823068322   dF: -3.957e-06   |Residual|: 8.184e-04   |deigs|: 3.352e-03  t[s]:     17.46
	FillingsUpdate:  mu: -0.111535956  nElectrons: 9.000000  magneticMoment: [ Abs: 0.62061  Tot: -0.62000 ]
SCF: Cycle:  6   F: -42.568498153240810   dF: -1.330e-06   |Residual|: 6.137e-04   |deigs|: 1.271e-03  t[s]:     19.29
	FillingsUpdate:  mu: -0.110720260  nElectrons: 9.000000  magneticMoment: [ Abs: 0.62235  Tot: -0.62000 ]
SCF: Cycle:  7   F: -42.568497562731743   dF: +5.905e-07   |Residual|: 4.473e-04   |deigs|: 1.072e-03  t[s]:     21.17
	FillingsUpdate:  mu: -0.109919724  nElectrons: 9.000000  magneticMoment: [ Abs: 0.62220  Tot: -0.62000 ]
SCF: Cycle:  8   F: -42.568496713850990   dF: +8.489e-07   |Residual|: 3.710e-04   |deigs|: 1.053e-03  t[s]:     23.12
	FillingsUpdate:  mu: -0.109500342  nElectrons: 9.000000  magneticMoment: [ Abs: 0.62111  Tot: -0.62000 ]
SCF: Cycle:  9   F: -42.568498534713761   dF: -1.821e-06   |Residual|: 3.287e-04   |deigs|: 5.456e-04  t[s]:     25.12
	FillingsUpdate:  mu: -0.109549415  nElectrons: 9.000000  magneticMoment: [ Abs: 0.62093  Tot: -0.62000 ]
SCF: Cycle: 10   F: -42.568499907390390   dF: -1.373e-06   |Residual|: 2.266e-04   |deigs|: 2.570e-04  t[s]:     27.11
	FillingsUpdate:  mu: -0.108956800  nElectrons: 9.000000  magneticMoment: [ Abs: 0.62156  Tot: -0.62000 ]
SCF: Cycle: 11   F: -42.568499582705762   dF: +3.247e-07   |Residual|: 2.150e-04   |deigs|: 6.695e-04  t[s]:     29.06
	FillingsUpdate:  mu: -0.108384819  nElectrons: 9.000000  magneticMoment: [ Abs: 0.62105  Tot: -0.62000 ]
SCF: Cycle: 12   F: -42.568498734077416   dF: +8.486e-07   |Residual|: 1.967e-04   |deigs|: 6.081e-04  t[s]:     31.02
	FillingsUpdate:  mu: -0.108086957  nElectrons: 9.000000  magneticMoment: [ Abs: 0.62134  Tot: -0.62000 ]
SCF: Cycle: 13   F: -42.568499650349345   dF: -9.163e-07   |Residual|: 1.755e-04   |deigs|: 2.832e-04  t[s]:     33.05
	FillingsUpdate:  mu: -0.107738352  nElectrons: 9.000000  magneticMoment: [ Abs: 0.62140  Tot: -0.62000 ]
SCF: Cycle: 14   F: -42.568500577937705   dF: -9.276e-07   |Residual|: 1.606e-04   |deigs|: 3.695e-04  t[s]:     34.95
	FillingsUpdate:  mu: -0.107050111  nElectrons: 9.000000  magneticMoment: [ Abs: 0.62095  Tot: -0.62000 ]
SCF: Cycle: 15   F: -42.568501059332199   dF: -4.814e-07   |Residual|: 1.486e-04   |deigs|: 7.437e-04  t[s]:     36.82
	FillingsUpdate:  mu: -0.106623361  nElectrons: 9.000000  magneticMoment: [ Abs: 0.62057  Tot: -0.62000 ]
SCF: Cycle: 16   F: -42.568501402012238   dF: -3.427e-07   |Residual|: 1.224e-04   |deigs|: 4.050e-04  t[s]:     38.72
	FillingsUpdate:  mu: -0.106413098  nElectrons: 9.000000  magneticMoment: [ Abs: 0.62053  Tot: -0.62000 ]
SCF: Cycle: 17   F: -42.568501619454160   dF: -2.174e-07   |Residual|: 8.362e-05   |deigs|: 1.738e-04  t[s]:     40.63
	FillingsUpdate:  mu: -0.106246524  nElectrons: 9.000000  magneticMoment: [ Abs: 0.62033  Tot: -0.62000 ]
SCF: Cycle: 18   F: -42.568501713990976   dF: -9.454e-08   |Residual|: 6.471e-05   |deigs|: 5.273e-04  t[s]:     42.63
	FillingsUpdate:  mu: -0.106129677  nElectrons: 9.000000  magneticMoment: [ Abs: 0.62041  Tot: -0.62000 ]
SCF: Cycle: 19   F: -42.568501767082125   dF: -5.309e-08   |Residual|: 3.450e-05   |deigs|: 7.985e-04  t[s]:     44.60
	FillingsUpdate:  mu: -0.106094661  nElectrons: 9.000000  magneticMoment: [ Abs: 0.62043  Tot: -0.62000 ]
SCF: Cycle: 20   F: -42.568501779167249   dF: -1.209e-08   |Residual|: 2.056e-05   |deigs|: 7.619e-05  t[s]:     46.54
	FillingsUpdate:  mu: -0.106089909  nElectrons: 9.000000  magneticMoment: [ Abs: 0.62034  Tot: -0.62000 ]
SCF: Cycle: 21   F: -42.568501781944612   dF: -2.777e-09   |Residual|: 1.273e-05   |deigs|: 4.158e-04  t[s]:     48.41
	FillingsUpdate:  mu: -0.106093323  nElectrons: 9.000000  magneticMoment: [ Abs: 0.62030  Tot: -0.62000 ]
SCF: Cycle: 22   F: -42.568501784773524   dF: -2.829e-09   |Residual|: 8.492e-06   |deigs|: 2.564e-04  t[s]:     50.38
SCF: Converged (|Delta E|<1.000000e-08 for 2 iters).


# Ionic positions in lattice coordinates:
ion Na   0.000000000000000   0.000000000000000   0.000000000000000 0

# Forces in Lattice coordinates:
force Na  -0.000000000000000   0.000000000000000   0.000000000000000 0

# Energy components:
   Eewald =      -18.0480261003326561
       EH =       15.7393918340639640
     Eloc =      -42.7518667801376964
      Enl =      -12.9143348835112004
   Epulay =        0.0000007725295140
      Exc =       -6.2197291996650250
       KE =       21.6260636297581073
-------------------------------------
     Etot =      -42.5685007272950031
       TS =        0.0000010574785198
-------------------------------------
        F =      -42.5685017847735239

IonicMinimize: Iter:   0  F: -42.568501784773524  |grad|_K:  0.000e+00  t[s]:     50.45
IonicMinimize: Converged (|grad|_K<1.000000e-04).

#--- Lowdin population analysis ---
# oxidation-state Na +0.072
# magnetic-moments Na -0.552

End date and time: Sat Feb  5 22:21:38 2022  (Duration: 0-0:00:50.47)
Done!
