
*************** JDFTx 1.6.0 (git hash 42ebbcc2) ***************

Start date and time: Sat Feb  5 22:33:25 2022
Executable jdftx with command-line: -i Alkali.in
Running on hosts (process indices):  d-16-1-2 (0-18)
Divided in process groups (process indices):  0 (0)  1 (1)  2 (2)  3 (3)  4 (4)  5 (5)  6 (6)  7 (7)  8 (8)  9 (9)  10 (10)  11 (11)  12 (12)  13 (13)  14 (14)  15 (15)  16 (16)  17 (17)  18 (18)
Resource initialization completed at t[s]:      0.00
Run totals: 19 processes, 48 threads, 0 GPUs


Input parsed successfully to the following command list (including defaults):

basis kpoint-dependent
coords-type Lattice
core-overlap-check vector
coulomb-interaction Slab 001
davidson-band-ratio 1.1
dump End None
dump-name $INPUT.$VAR
elec-cutoff 20
elec-eigen-algo Davidson
elec-ex-corr gga-PBE
elec-initial-magnetization 0.640000 yes
elec-smearing Fermi 1e-05
electronic-minimize  \
	dirUpdateScheme      FletcherReeves \
	linminMethod         DirUpdateRecommended \
	nIterations          100 \
	history              15 \
	knormThreshold       0 \
	energyDiffThreshold  1e-08 \
	nEnergyDiff          2 \
	alphaTstart          1 \
	alphaTmin            1e-10 \
	updateTestStepSize   yes \
	alphaTreduceFactor   0.1 \
	alphaTincreaseFactor 3 \
	nAlphaAdjustMax      3 \
	wolfeEnergy          0.0001 \
	wolfeGradient        0.9 \
	fdTest               no
electronic-scf  \
	nIterations	10000 \
	energyDiffThreshold	1e-08 \
	residualThreshold	1e-07 \
	mixFraction	0.5 \
	qMetric	0.8 \
	history	10 \
	nEigSteps	2 \
	eigDiffThreshold	1e-08 \
	mixedVariable	Density \
	qKerker	0.8 \
	qKappa	-1 \
	verbose	no \
	mixFractionMag	1.5
exchange-regularization WignerSeitzTruncated
fluid None
fluid-ex-corr (null) lda-PZ
fluid-gummel-loop 10 1.000000e-05
fluid-minimize  \
	dirUpdateScheme      PolakRibiere \
	linminMethod         DirUpdateRecommended \
	nIterations          100 \
	history              15 \
	knormThreshold       0 \
	energyDiffThreshold  0 \
	nEnergyDiff          2 \
	alphaTstart          1 \
	alphaTmin            1e-10 \
	updateTestStepSize   yes \
	alphaTreduceFactor   0.1 \
	alphaTincreaseFactor 3 \
	nAlphaAdjustMax      3 \
	wolfeEnergy          0.0001 \
	wolfeGradient        0.9 \
	fdTest               no
fluid-solvent H2O 55.338 ScalarEOS \
	epsBulk 78.4 \
	pMol 0.92466 \
	epsInf 1.77 \
	Pvap 1.06736e-10 \
	sigmaBulk 4.62e-05 \
	Rvdw 2.61727 \
	Res 1.42 \
	tauNuc 343133 \
	poleEl 15 7 1
forces-output-coords Positions
ion Na   0.000000000000000   0.000000000000000   0.000000000000000 0
ion-species SG15/$ID_ONCV_PBE.upf
ion-width 0
ionic-minimize  \
	dirUpdateScheme      L-BFGS \
	linminMethod         DirUpdateRecommended \
	nIterations          0 \
	history              15 \
	knormThreshold       0.0001 \
	energyDiffThreshold  1e-06 \
	nEnergyDiff          2 \
	alphaTstart          1 \
	alphaTmin            1e-10 \
	updateTestStepSize   yes \
	alphaTreduceFactor   0.1 \
	alphaTincreaseFactor 3 \
	nAlphaAdjustMax      3 \
	wolfeEnergy          0.0001 \
	wolfeGradient        0.9 \
	fdTest               no
kpoint   0.000000000000   0.000000000000   0.000000000000  1.00000000000000
kpoint-folding 12 12 1 
latt-move-scale 1 1 1
latt-scale 2 2 1 
lattice  \
	   4.727486978767153   -2.363743489383575    0.000000000000000  \
	  -0.000000000000000    4.094123819672498    0.000000000000000  \
	   0.000000000000000    0.000000000000000   40.000000000000000 
lattice-minimize  \
	dirUpdateScheme      L-BFGS \
	linminMethod         DirUpdateRecommended \
	nIterations          0 \
	history              15 \
	knormThreshold       0 \
	energyDiffThreshold  1e-06 \
	nEnergyDiff          2 \
	alphaTstart          1 \
	alphaTmin            1e-10 \
	updateTestStepSize   yes \
	alphaTreduceFactor   0.1 \
	alphaTincreaseFactor 3 \
	nAlphaAdjustMax      3 \
	wolfeEnergy          0.0001 \
	wolfeGradient        0.9 \
	fdTest               no
lcao-params -1 1e-06 1e-05
pcm-variant GLSSA13
spintype z-spin
subspace-rotation-factor 1 yes
symmetries automatic
symmetry-threshold 0.0001



---------- Setting up symmetries ----------

Found 24 point-group symmetries of the bravais lattice
Found 24 space-group symmetries with basis
Applied RMS atom displacement 0 bohrs to make symmetries exact.

---------- Initializing the Grid ----------
R = 
[      9.45497     -4.72749            0  ]
[            0      8.18825            0  ]
[            0            0           40  ]
unit cell volume = 3096.79
G =
[   0.664538   0.383671         -0  ]
[          0   0.767342         -0  ]
[         -0         -0    0.15708  ]
Minimum fftbox size, Smin = [  40  40  164  ]
Chosen fftbox size, S = [  40  40  168  ]

---------- Exchange Correlation functional ----------
Initalized PBE GGA exchange.
Initalized PBE GGA correlation.

---------- Setting up pseudopotentials ----------
Width of ionic core gaussian charges (only for fluid interactions / plotting) set to 0

Reading pseudopotential file '/home/gridsan/aligho/DFT/build-Nov24/pseudopotentials/SG15/Na_ONCV_PBE.upf':
  'Na' pseudopotential, 'PBE' functional
  Generated using ONCVPSP code by D. R. Hamann
  Author: Martin Schlipf and Francois Gygi  Date: 150915.
  9 valence electrons, 3 orbitals, 4 projectors, 1992 radial grid points, with lMax = 1
  Transforming local potential to a uniform radial grid of dG=0.02 with 1489 points.
  Transforming nonlocal projectors to a uniform radial grid of dG=0.02 with 432 points.
    2S    l: 0   occupation:  2.0   eigenvalue: -2.085640
    2P    l: 1   occupation:  6.0   eigenvalue: -1.053708
    3S    l: 0   occupation:  1.0   eigenvalue: -0.100838
  Transforming atomic orbitals to a uniform radial grid of dG=0.02 with 432 points.
  Core radius for overlap checks: 2.01 bohrs.
  Reading pulay file /home/gridsan/aligho/DFT/build-Nov24/pseudopotentials/SG15/Na_ONCV_PBE.pulay ... using dE_dnG = -2.946487e-03 computed for Ecut = 20.

Initialized 1 species with 1 total atoms.

Folded 1 k-points by 12x12x1 to 144 k-points.

---------- Setting up k-points, bands, fillings ----------
Reduced to 19 k-points under symmetry. 
Computing the number of bands and number of electrons
Calculating initial fillings.
nElectrons:   9.000000   nBands: 6   nStates: 38

----- Setting up reduced wavefunction bases (one per k-point) -----
average nbasis = 13230.521 , ideal nbasis = 13229.709

---------- Setting up coulomb interaction ----------
Initialized slab truncation along lattice direction 001

---------- Setting up 2D ewald sum ----------
Optimum gaussian width for ewald sums = 5.249020 bohr.
Real space sums over 289 unit cells with max indices [  8  8  0  ]
Reciprocal space sums over 81 terms with max indices [  4  4  0  ]

---------- Allocating electronic variables ----------
Initializing wave functions:  linear combination of atomic orbitals
Note: number of bands (6) exceeds available atomic orbitals (5)
Na pseudo-atom occupations:   s ( 2 1 )  p ( 6 )
	FillingsUpdate:  mu: -0.108591050  nElectrons: 9.000000  magneticMoment: [ Abs: 0.64000  Tot: +0.64000 ]
LCAOMinimize: Iter:   0  F: -42.5627022792191880  |grad|_K:  2.083e-05  alpha:  1.000e+00
	FillingsUpdate:  mu: -0.108589362  nElectrons: 9.000000  magneticMoment: [ Abs: 0.64000  Tot: +0.64000 ]
LCAOMinimize: Iter:   1  F: -42.5627025735429996  |grad|_K:  1.591e-07  alpha:  9.922e-01  linmin: -2.096e-02  cgtest:  5.831e-01  t[s]:      4.49
LCAOMinimize: Encountered beta<0, resetting CG.
	FillingsUpdate:  mu: -0.108589382  nElectrons: 9.000000  magneticMoment: [ Abs: 0.64000  Tot: +0.64000 ]
LCAOMinimize: Iter:   2  F: -42.5627025735606921  |grad|_K:  1.360e-09  alpha:  1.008e+00  linmin:  9.410e-02  cgtest: -8.981e-01  t[s]:      5.69
LCAOMinimize: Converged (|Delta F|<1.000000e-06 for 2 iters).


---- Citations for features of the code used in this run ----

   Software package:
      R. Sundararaman, K. Letchworth-Weaver, K.A. Schwarz, D. Gunceler, Y. Ozhabes and T.A. Arias, 'JDFTx: software for joint density-functional theory', SoftwareX 6, 278 (2017)

   gga-PBE exchange-correlation functional:
      J.P. Perdew, K. Burke and M. Ernzerhof, Phys. Rev. Lett. 77, 3865 (1996)

   Pseudopotentials:
      M Schlipf and F Gygi, Comput. Phys. Commun. 196, 36 (2015)

   Truncated Coulomb potentials:
      R. Sundararaman and T.A. Arias, Phys. Rev. B 87, 165122 (2013)

This list may not be complete. Please suggest additional citations or
report any other bugs at https://github.com/shankar1729/jdftx/issues

Initialization completed successfully at t[s]:      5.76


-------- Electronic minimization -----------
Will mix electronic density at each iteration.
	FillingsUpdate:  mu: -0.108589382  nElectrons: 9.000000  magneticMoment: [ Abs: 0.64000  Tot: +0.64000 ]
	FillingsUpdate:  mu: -0.112606098  nElectrons: 9.000000  magneticMoment: [ Abs: 0.64000  Tot: +0.64000 ]
SCF: Cycle:  0   F: -42.567944781871645   dF: -5.242e-03   |Residual|: 1.072e-02   |deigs|: 1.701e-01  t[s]:      8.01
	FillingsUpdate:  mu: -0.112527232  nElectrons: 9.000000  magneticMoment: [ Abs: 0.64000  Tot: +0.64000 ]
SCF: Cycle:  1   F: -42.568144893020325   dF: -2.001e-04   |Residual|: 7.251e-03   |deigs|: 8.852e-03  t[s]:      9.65
	FillingsUpdate:  mu: -0.112287459  nElectrons: 9.000000  magneticMoment: [ Abs: 0.64138  Tot: +0.64000 ]
SCF: Cycle:  2   F: -42.568172725898869   dF: -2.783e-05   |Residual|: 4.497e-03   |deigs|: 6.179e-03  t[s]:     11.31
	FillingsUpdate:  mu: -0.112224192  nElectrons: 9.000000  magneticMoment: [ Abs: 0.64013  Tot: +0.64000 ]
SCF: Cycle:  3   F: -42.568176920990872   dF: -4.195e-06   |Residual|: 2.620e-03   |deigs|: 5.969e-03  t[s]:     13.04
	FillingsUpdate:  mu: -0.112185264  nElectrons: 9.000000  magneticMoment: [ Abs: 0.64015  Tot: +0.64000 ]
SCF: Cycle:  4   F: -42.568204808477581   dF: -2.789e-05   |Residual|: 1.054e-03   |deigs|: 2.896e-03  t[s]:     14.81
	FillingsUpdate:  mu: -0.111991833  nElectrons: 9.000000  magneticMoment: [ Abs: 0.64029  Tot: +0.64000 ]
SCF: Cycle:  5   F: -42.568209036778335   dF: -4.228e-06   |Residual|: 8.173e-04   |deigs|: 1.806e-03  t[s]:     16.58
	FillingsUpdate:  mu: -0.111389807  nElectrons: 9.000000  magneticMoment: [ Abs: 0.64060  Tot: +0.64000 ]
SCF: Cycle:  6   F: -42.568210518742376   dF: -1.482e-06   |Residual|: 6.095e-04   |deigs|: 1.167e-03  t[s]:     18.37
	FillingsUpdate:  mu: -0.110610626  nElectrons: 9.000000  magneticMoment: [ Abs: 0.64225  Tot: +0.64000 ]
SCF: Cycle:  7   F: -42.568210024930330   dF: +4.938e-07   |Residual|: 4.517e-04   |deigs|: 1.037e-03  t[s]:     20.22
	FillingsUpdate:  mu: -0.109786191  nElectrons: 9.000000  magneticMoment: [ Abs: 0.64218  Tot: +0.64000 ]
SCF: Cycle:  8   F: -42.568209131183856   dF: +8.937e-07   |Residual|: 3.708e-04   |deigs|: 1.073e-03  t[s]:     22.04
	FillingsUpdate:  mu: -0.109362520  nElectrons: 9.000000  magneticMoment: [ Abs: 0.64114  Tot: +0.64000 ]
SCF: Cycle:  9   F: -42.568210948673006   dF: -1.817e-06   |Residual|: 3.293e-04   |deigs|: 6.684e-04  t[s]:     23.92
	FillingsUpdate:  mu: -0.109388405  nElectrons: 9.000000  magneticMoment: [ Abs: 0.64091  Tot: +0.64000 ]
SCF: Cycle: 10   F: -42.568212306965108   dF: -1.358e-06   |Residual|: 2.243e-04   |deigs|: 3.562e-04  t[s]:     25.82
	FillingsUpdate:  mu: -0.108820955  nElectrons: 9.000000  magneticMoment: [ Abs: 0.64155  Tot: +0.64000 ]
SCF: Cycle: 11   F: -42.568211972299856   dF: +3.347e-07   |Residual|: 2.144e-04   |deigs|: 6.463e-04  t[s]:     27.66
	FillingsUpdate:  mu: -0.108257143  nElectrons: 9.000000  magneticMoment: [ Abs: 0.64105  Tot: +0.64000 ]
SCF: Cycle: 12   F: -42.568211153769347   dF: +8.185e-07   |Residual|: 1.955e-04   |deigs|: 5.991e-04  t[s]:     29.52
	FillingsUpdate:  mu: -0.107967958  nElectrons: 9.000000  magneticMoment: [ Abs: 0.64137  Tot: +0.64000 ]
SCF: Cycle: 13   F: -42.568212062621427   dF: -9.089e-07   |Residual|: 1.745e-04   |deigs|: 2.744e-04  t[s]:     31.37
	FillingsUpdate:  mu: -0.107617115  nElectrons: 9.000000  magneticMoment: [ Abs: 0.64144  Tot: +0.64000 ]
SCF: Cycle: 14   F: -42.568212980687669   dF: -9.181e-07   |Residual|: 1.585e-04   |deigs|: 3.729e-04  t[s]:     33.30
	FillingsUpdate:  mu: -0.106958861  nElectrons: 9.000000  magneticMoment: [ Abs: 0.64097  Tot: +0.64000 ]
SCF: Cycle: 15   F: -42.568213438733736   dF: -4.580e-07   |Residual|: 1.498e-04   |deigs|: 7.155e-04  t[s]:     35.15
	FillingsUpdate:  mu: -0.106521184  nElectrons: 9.000000  magneticMoment: [ Abs: 0.64060  Tot: +0.64000 ]
SCF: Cycle: 16   F: -42.568213765725496   dF: -3.270e-07   |Residual|: 1.235e-04   |deigs|: 4.203e-04  t[s]:     37.06
	FillingsUpdate:  mu: -0.106279090  nElectrons: 9.000000  magneticMoment: [ Abs: 0.64056  Tot: +0.64000 ]
SCF: Cycle: 17   F: -42.568214000012638   dF: -2.343e-07   |Residual|: 8.105e-05   |deigs|: 2.033e-04  t[s]:     38.90
	FillingsUpdate:  mu: -0.106120324  nElectrons: 9.000000  magneticMoment: [ Abs: 0.64036  Tot: +0.64000 ]
SCF: Cycle: 18   F: -42.568214090358630   dF: -9.035e-08   |Residual|: 6.290e-05   |deigs|: 6.489e-04  t[s]:     40.76
	FillingsUpdate:  mu: -0.106015042  nElectrons: 9.000000  magneticMoment: [ Abs: 0.64041  Tot: +0.64000 ]
SCF: Cycle: 19   F: -42.568214140734376   dF: -5.038e-08   |Residual|: 3.550e-05   |deigs|: 3.386e-04  t[s]:     42.62
	FillingsUpdate:  mu: -0.105979539  nElectrons: 9.000000  magneticMoment: [ Abs: 0.64045  Tot: +0.64000 ]
SCF: Cycle: 20   F: -42.568214154594138   dF: -1.386e-08   |Residual|: 2.089e-05   |deigs|: 7.409e-05  t[s]:     44.45
	FillingsUpdate:  mu: -0.105974317  nElectrons: 9.000000  magneticMoment: [ Abs: 0.64036  Tot: +0.64000 ]
SCF: Cycle: 21   F: -42.568214157763023   dF: -3.169e-09   |Residual|: 1.296e-05   |deigs|: 7.661e-04  t[s]:     46.29
	FillingsUpdate:  mu: -0.105979586  nElectrons: 9.000000  magneticMoment: [ Abs: 0.64031  Tot: +0.64000 ]
SCF: Cycle: 22   F: -42.568214160561944   dF: -2.799e-09   |Residual|: 8.822e-06   |deigs|: 1.518e-04  t[s]:     48.18
SCF: Converged (|Delta E|<1.000000e-08 for 2 iters).


# Ionic positions in lattice coordinates:
ion Na   0.000000000000000   0.000000000000000   0.000000000000000 0

# Forces in Lattice coordinates:
force Na   0.000000000000000   0.000000000000000   0.000000000000000 0

# Energy components:
   Eewald =      -18.0480261003326561
       EH =       15.7406496389408908
     Eloc =      -42.7532173439630938
      Enl =      -12.9144153850528767
   Epulay =        0.0000007725295140
      Exc =       -6.2199902842235666
       KE =       21.6267855717373010
-------------------------------------
     Etot =      -42.5682131303644837
       TS =        0.0000010301974605
-------------------------------------
        F =      -42.5682141605619435

IonicMinimize: Iter:   0  F: -42.568214160561944  |grad|_K:  0.000e+00  t[s]:     48.26
IonicMinimize: Converged (|grad|_K<1.000000e-04).

#--- Lowdin population analysis ---
# oxidation-state Na +0.074
# magnetic-moments Na +0.569

End date and time: Sat Feb  5 22:34:13 2022  (Duration: 0-0:00:48.28)
Done!
