
*************** JDFTx 1.6.0 (git hash 42ebbcc2) ***************

Start date and time: Sat Feb  5 22:30:34 2022
Executable jdftx with command-line: -i Alkali.in
Running on hosts (process indices):  d-6-3-2 (0-18)
Divided in process groups (process indices):  0 (0)  1 (1)  2 (2)  3 (3)  4 (4)  5 (5)  6 (6)  7 (7)  8 (8)  9 (9)  10 (10)  11 (11)  12 (12)  13 (13)  14 (14)  15 (15)  16 (16)  17 (17)  18 (18)
Resource initialization completed at t[s]:      0.00
Run totals: 19 processes, 48 threads, 0 GPUs


Input parsed successfully to the following command list (including defaults):

basis kpoint-dependent
coords-type Lattice
core-overlap-check vector
coulomb-interaction Slab 001
davidson-band-ratio 1.1
dump End None
dump-name $INPUT.$VAR
elec-cutoff 20
elec-eigen-algo Davidson
elec-ex-corr gga-PBE
elec-initial-magnetization 0.300000 yes
elec-smearing Fermi 1e-05
electronic-minimize  \
	dirUpdateScheme      FletcherReeves \
	linminMethod         DirUpdateRecommended \
	nIterations          100 \
	history              15 \
	knormThreshold       0 \
	energyDiffThreshold  1e-08 \
	nEnergyDiff          2 \
	alphaTstart          1 \
	alphaTmin            1e-10 \
	updateTestStepSize   yes \
	alphaTreduceFactor   0.1 \
	alphaTincreaseFactor 3 \
	nAlphaAdjustMax      3 \
	wolfeEnergy          0.0001 \
	wolfeGradient        0.9 \
	fdTest               no
electronic-scf  \
	nIterations	10000 \
	energyDiffThreshold	1e-08 \
	residualThreshold	1e-07 \
	mixFraction	0.5 \
	qMetric	0.8 \
	history	10 \
	nEigSteps	2 \
	eigDiffThreshold	1e-08 \
	mixedVariable	Density \
	qKerker	0.8 \
	qKappa	-1 \
	verbose	no \
	mixFractionMag	1.5
exchange-regularization WignerSeitzTruncated
fluid None
fluid-ex-corr (null) lda-PZ
fluid-gummel-loop 10 1.000000e-05
fluid-minimize  \
	dirUpdateScheme      PolakRibiere \
	linminMethod         DirUpdateRecommended \
	nIterations          100 \
	history              15 \
	knormThreshold       0 \
	energyDiffThreshold  0 \
	nEnergyDiff          2 \
	alphaTstart          1 \
	alphaTmin            1e-10 \
	updateTestStepSize   yes \
	alphaTreduceFactor   0.1 \
	alphaTincreaseFactor 3 \
	nAlphaAdjustMax      3 \
	wolfeEnergy          0.0001 \
	wolfeGradient        0.9 \
	fdTest               no
fluid-solvent H2O 55.338 ScalarEOS \
	epsBulk 78.4 \
	pMol 0.92466 \
	epsInf 1.77 \
	Pvap 1.06736e-10 \
	sigmaBulk 4.62e-05 \
	Rvdw 2.61727 \
	Res 1.42 \
	tauNuc 343133 \
	poleEl 15 7 1
forces-output-coords Positions
ion Na   0.000000000000000   0.000000000000000   0.000000000000000 0
ion-species SG15/$ID_ONCV_PBE.upf
ion-width 0
ionic-minimize  \
	dirUpdateScheme      L-BFGS \
	linminMethod         DirUpdateRecommended \
	nIterations          0 \
	history              15 \
	knormThreshold       0.0001 \
	energyDiffThreshold  1e-06 \
	nEnergyDiff          2 \
	alphaTstart          1 \
	alphaTmin            1e-10 \
	updateTestStepSize   yes \
	alphaTreduceFactor   0.1 \
	alphaTincreaseFactor 3 \
	nAlphaAdjustMax      3 \
	wolfeEnergy          0.0001 \
	wolfeGradient        0.9 \
	fdTest               no
kpoint   0.000000000000   0.000000000000   0.000000000000  1.00000000000000
kpoint-folding 12 12 1 
latt-move-scale 1 1 1
latt-scale 2 2 1 
lattice  \
	   4.727486978767153   -2.363743489383575    0.000000000000000  \
	  -0.000000000000000    4.094123819672498    0.000000000000000  \
	   0.000000000000000    0.000000000000000   40.000000000000000 
lattice-minimize  \
	dirUpdateScheme      L-BFGS \
	linminMethod         DirUpdateRecommended \
	nIterations          0 \
	history              15 \
	knormThreshold       0 \
	energyDiffThreshold  1e-06 \
	nEnergyDiff          2 \
	alphaTstart          1 \
	alphaTmin            1e-10 \
	updateTestStepSize   yes \
	alphaTreduceFactor   0.1 \
	alphaTincreaseFactor 3 \
	nAlphaAdjustMax      3 \
	wolfeEnergy          0.0001 \
	wolfeGradient        0.9 \
	fdTest               no
lcao-params -1 1e-06 1e-05
pcm-variant GLSSA13
spintype z-spin
subspace-rotation-factor 1 yes
symmetries automatic
symmetry-threshold 0.0001



---------- Setting up symmetries ----------

Found 24 point-group symmetries of the bravais lattice
Found 24 space-group symmetries with basis
Applied RMS atom displacement 0 bohrs to make symmetries exact.

---------- Initializing the Grid ----------
R = 
[      9.45497     -4.72749            0  ]
[            0      8.18825            0  ]
[            0            0           40  ]
unit cell volume = 3096.79
G =
[   0.664538   0.383671         -0  ]
[          0   0.767342         -0  ]
[         -0         -0    0.15708  ]
Minimum fftbox size, Smin = [  40  40  164  ]
Chosen fftbox size, S = [  40  40  168  ]

---------- Exchange Correlation functional ----------
Initalized PBE GGA exchange.
Initalized PBE GGA correlation.

---------- Setting up pseudopotentials ----------
Width of ionic core gaussian charges (only for fluid interactions / plotting) set to 0

Reading pseudopotential file '/home/gridsan/aligho/DFT/build-Nov24/pseudopotentials/SG15/Na_ONCV_PBE.upf':
  'Na' pseudopotential, 'PBE' functional
  Generated using ONCVPSP code by D. R. Hamann
  Author: Martin Schlipf and Francois Gygi  Date: 150915.
  9 valence electrons, 3 orbitals, 4 projectors, 1992 radial grid points, with lMax = 1
  Transforming local potential to a uniform radial grid of dG=0.02 with 1489 points.
  Transforming nonlocal projectors to a uniform radial grid of dG=0.02 with 432 points.
    2S    l: 0   occupation:  2.0   eigenvalue: -2.085640
    2P    l: 1   occupation:  6.0   eigenvalue: -1.053708
    3S    l: 0   occupation:  1.0   eigenvalue: -0.100838
  Transforming atomic orbitals to a uniform radial grid of dG=0.02 with 432 points.
  Core radius for overlap checks: 2.01 bohrs.
  Reading pulay file /home/gridsan/aligho/DFT/build-Nov24/pseudopotentials/SG15/Na_ONCV_PBE.pulay ... using dE_dnG = -2.946487e-03 computed for Ecut = 20.

Initialized 1 species with 1 total atoms.

Folded 1 k-points by 12x12x1 to 144 k-points.

---------- Setting up k-points, bands, fillings ----------
Reduced to 19 k-points under symmetry. 
Computing the number of bands and number of electrons
Calculating initial fillings.
nElectrons:   9.000000   nBands: 6   nStates: 38

----- Setting up reduced wavefunction bases (one per k-point) -----
average nbasis = 13230.521 , ideal nbasis = 13229.709

---------- Setting up coulomb interaction ----------
Initialized slab truncation along lattice direction 001

---------- Setting up 2D ewald sum ----------
Optimum gaussian width for ewald sums = 5.249020 bohr.
Real space sums over 289 unit cells with max indices [  8  8  0  ]
Reciprocal space sums over 81 terms with max indices [  4  4  0  ]

---------- Allocating electronic variables ----------
Initializing wave functions:  linear combination of atomic orbitals
Note: number of bands (6) exceeds available atomic orbitals (5)
Na pseudo-atom occupations:   s ( 2 1 )  p ( 6 )
	FillingsUpdate:  mu: -0.104779943  nElectrons: 9.000000  magneticMoment: [ Abs: 0.30000  Tot: +0.30000 ]
LCAOMinimize: Iter:   0  F: -42.5675449684473719  |grad|_K:  3.091e-05  alpha:  1.000e+00
	FillingsUpdate:  mu: -0.104779214  nElectrons: 9.000000  magneticMoment: [ Abs: 0.30000  Tot: +0.30000 ]
LCAOMinimize: Iter:   1  F: -42.5675456149537013  |grad|_K:  2.943e-07  alpha:  9.891e-01  linmin: -1.863e-02  cgtest:  6.769e-01  t[s]:      4.43
LCAOMinimize: Encountered beta<0, resetting CG.
	FillingsUpdate:  mu: -0.104779271  nElectrons: 9.000000  magneticMoment: [ Abs: 0.30000  Tot: +0.30000 ]
LCAOMinimize: Iter:   2  F: -42.5675456150116744  |grad|_K:  6.417e-09  alpha:  9.801e-01  linmin: -4.628e-02  cgtest:  9.969e-01  t[s]:      5.60
LCAOMinimize: Encountered beta<0, resetting CG.
LCAOMinimize: Converged (|Delta F|<1.000000e-06 for 2 iters).


---- Citations for features of the code used in this run ----

   Software package:
      R. Sundararaman, K. Letchworth-Weaver, K.A. Schwarz, D. Gunceler, Y. Ozhabes and T.A. Arias, 'JDFTx: software for joint density-functional theory', SoftwareX 6, 278 (2017)

   gga-PBE exchange-correlation functional:
      J.P. Perdew, K. Burke and M. Ernzerhof, Phys. Rev. Lett. 77, 3865 (1996)

   Pseudopotentials:
      M Schlipf and F Gygi, Comput. Phys. Commun. 196, 36 (2015)

   Truncated Coulomb potentials:
      R. Sundararaman and T.A. Arias, Phys. Rev. B 87, 165122 (2013)

This list may not be complete. Please suggest additional citations or
report any other bugs at https://github.com/shankar1729/jdftx/issues

Initialization completed successfully at t[s]:      5.67


-------- Electronic minimization -----------
Will mix electronic density at each iteration.
	FillingsUpdate:  mu: -0.104779271  nElectrons: 9.000000  magneticMoment: [ Abs: 0.30000  Tot: +0.30000 ]
	FillingsUpdate:  mu: -0.112523911  nElectrons: 9.000000  magneticMoment: [ Abs: 0.30000  Tot: +0.30000 ]
SCF: Cycle:  0   F: -42.571929623872130   dF: -4.384e-03   |Residual|: 8.098e-03   |deigs|: 1.706e-01  t[s]:      7.90
	FillingsUpdate:  mu: -0.112557736  nElectrons: 9.000000  magneticMoment: [ Abs: 0.30000  Tot: +0.30000 ]
SCF: Cycle:  1   F: -42.572013370536794   dF: -8.375e-05   |Residual|: 5.577e-03   |deigs|: 8.834e-03  t[s]:      9.55
	FillingsUpdate:  mu: -0.112376309  nElectrons: 9.000000  magneticMoment: [ Abs: 0.30128  Tot: +0.30000 ]
SCF: Cycle:  2   F: -42.572031261749437   dF: -1.789e-05   |Residual|: 2.975e-03   |deigs|: 6.386e-03  t[s]:     11.26
	FillingsUpdate:  mu: -0.112116475  nElectrons: 9.000000  magneticMoment: [ Abs: 0.30002  Tot: +0.30000 ]
SCF: Cycle:  3   F: -42.572036054131246   dF: -4.792e-06   |Residual|: 1.700e-03   |deigs|: 5.455e-03  t[s]:     12.93
	FillingsUpdate:  mu: -0.111639052  nElectrons: 9.000000  magneticMoment: [ Abs: 0.30003  Tot: +0.30000 ]
SCF: Cycle:  4   F: -42.572042401509052   dF: -6.347e-06   |Residual|: 8.823e-04   |deigs|: 3.069e-03  t[s]:     14.66
	FillingsUpdate:  mu: -0.111264198  nElectrons: 9.000000  magneticMoment: [ Abs: 0.30014  Tot: +0.30000 ]
SCF: Cycle:  5   F: -42.572043199210000   dF: -7.977e-07   |Residual|: 7.249e-04   |deigs|: 1.749e-03  t[s]:     16.41
	FillingsUpdate:  mu: -0.110447149  nElectrons: 9.000000  magneticMoment: [ Abs: 0.30110  Tot: +0.30000 ]
SCF: Cycle:  6   F: -42.572043361863983   dF: -1.627e-07   |Residual|: 5.336e-04   |deigs|: 1.393e-03  t[s]:     18.18
	FillingsUpdate:  mu: -0.109669368  nElectrons: 9.000000  magneticMoment: [ Abs: 0.30182  Tot: +0.30000 ]
SCF: Cycle:  7   F: -42.572042479137252   dF: +8.827e-07   |Residual|: 3.961e-04   |deigs|: 1.075e-03  t[s]:     20.05
	FillingsUpdate:  mu: -0.109066429  nElectrons: 9.000000  magneticMoment: [ Abs: 0.30114  Tot: +0.30000 ]
SCF: Cycle:  8   F: -42.572042969484393   dF: -4.903e-07   |Residual|: 3.450e-04   |deigs|: 8.119e-04  t[s]:     21.92
	FillingsUpdate:  mu: -0.108857399  nElectrons: 9.000000  magneticMoment: [ Abs: 0.30044  Tot: +0.30000 ]
SCF: Cycle:  9   F: -42.572044254312054   dF: -1.285e-06   |Residual|: 2.667e-04   |deigs|: 2.352e-04  t[s]:     23.87
	FillingsUpdate:  mu: -0.108478888  nElectrons: 9.000000  magneticMoment: [ Abs: 0.30114  Tot: +0.30000 ]
SCF: Cycle: 10   F: -42.572044478933343   dF: -2.246e-07   |Residual|: 2.292e-04   |deigs|: 4.885e-04  t[s]:     25.77
	FillingsUpdate:  mu: -0.107997476  nElectrons: 9.000000  magneticMoment: [ Abs: 0.30109  Tot: +0.30000 ]
SCF: Cycle: 11   F: -42.572043321710190   dF: +1.157e-06   |Residual|: 2.118e-04   |deigs|: 5.242e-04  t[s]:     27.60
	FillingsUpdate:  mu: -0.107334689  nElectrons: 9.000000  magneticMoment: [ Abs: 0.30055  Tot: +0.30000 ]
SCF: Cycle: 12   F: -42.572043498348620   dF: -1.766e-07   |Residual|: 1.923e-04   |deigs|: 7.720e-04  t[s]:     29.48
	FillingsUpdate:  mu: -0.106949467  nElectrons: 9.000000  magneticMoment: [ Abs: 0.30130  Tot: +0.30000 ]
SCF: Cycle: 13   F: -42.572044975953361   dF: -1.478e-06   |Residual|: 1.700e-04   |deigs|: 7.616e-04  t[s]:     31.35
	FillingsUpdate:  mu: -0.106644908  nElectrons: 9.000000  magneticMoment: [ Abs: 0.30094  Tot: +0.30000 ]
SCF: Cycle: 14   F: -42.572045741977576   dF: -7.660e-07   |Residual|: 1.574e-04   |deigs|: 3.257e-04  t[s]:     33.15
	FillingsUpdate:  mu: -0.106167431  nElectrons: 9.000000  magneticMoment: [ Abs: 0.30032  Tot: +0.30000 ]
SCF: Cycle: 15   F: -42.572046173442502   dF: -4.315e-07   |Residual|: 1.487e-04   |deigs|: 5.237e-04  t[s]:     35.02
	FillingsUpdate:  mu: -0.105695016  nElectrons: 9.000000  magneticMoment: [ Abs: 0.30028  Tot: +0.30000 ]
SCF: Cycle: 16   F: -42.572046545909537   dF: -3.725e-07   |Residual|: 1.049e-04   |deigs|: 4.793e-04  t[s]:     36.90
	FillingsUpdate:  mu: -0.105453928  nElectrons: 9.000000  magneticMoment: [ Abs: 0.30026  Tot: +0.30000 ]
SCF: Cycle: 17   F: -42.572046671154965   dF: -1.252e-07   |Residual|: 6.169e-05   |deigs|: 2.041e-04  t[s]:     38.72
	FillingsUpdate:  mu: -0.105408238  nElectrons: 9.000000  magneticMoment: [ Abs: 0.30018  Tot: +0.30000 ]
SCF: Cycle: 18   F: -42.572046691086463   dF: -1.993e-08   |Residual|: 4.606e-05   |deigs|: 4.431e-05  t[s]:     40.55
	FillingsUpdate:  mu: -0.105367293  nElectrons: 9.000000  magneticMoment: [ Abs: 0.30012  Tot: +0.30000 ]
SCF: Cycle: 19   F: -42.572046706468200   dF: -1.538e-08   |Residual|: 2.394e-05   |deigs|: 4.519e-05  t[s]:     42.39
	FillingsUpdate:  mu: -0.105362100  nElectrons: 9.000000  magneticMoment: [ Abs: 0.30018  Tot: +0.30000 ]
SCF: Cycle: 20   F: -42.572046712768895   dF: -6.301e-09   |Residual|: 1.147e-05   |deigs|: 2.088e-05  t[s]:     44.20
	FillingsUpdate:  mu: -0.105357911  nElectrons: 9.000000  magneticMoment: [ Abs: 0.30015  Tot: +0.30000 ]
SCF: Cycle: 21   F: -42.572046714008053   dF: -1.239e-09   |Residual|: 6.878e-06   |deigs|: 7.350e-04  t[s]:     46.07
SCF: Converged (|Delta E|<1.000000e-08 for 2 iters).


# Ionic positions in lattice coordinates:
ion Na   0.000000000000000   0.000000000000000   0.000000000000000 0

# Forces in Lattice coordinates:
force Na   0.000000000000000   0.000000000000000   0.000000000000000 0

# Energy components:
   Eewald =      -18.0480261003326561
       EH =       15.7260389867016670
     Eloc =      -42.7376576401031727
      Enl =      -12.9131927270350459
   Epulay =        0.0000007725295140
      Exc =       -6.2167264341861124
       KE =       21.6175172682413290
-------------------------------------
     Etot =      -42.5720458741844823
       TS =        0.0000008398235688
-------------------------------------
        F =      -42.5720467140080530

IonicMinimize: Iter:   0  F: -42.572046714008053  |grad|_K:  0.000e+00  t[s]:     46.14
IonicMinimize: Converged (|grad|_K<1.000000e-04).

#--- Lowdin population analysis ---
# oxidation-state Na +0.044
# magnetic-moments Na +0.269

End date and time: Sat Feb  5 22:31:20 2022  (Duration: 0-0:00:46.16)
Done!
