
*************** JDFTx 1.6.0 (git hash 42ebbcc2) ***************

Start date and time: Sat Feb  5 22:35:09 2022
Executable jdftx with command-line: -i Alkali.in
Running on hosts (process indices):  d-6-7-4 (0-18)
Divided in process groups (process indices):  0 (0)  1 (1)  2 (2)  3 (3)  4 (4)  5 (5)  6 (6)  7 (7)  8 (8)  9 (9)  10 (10)  11 (11)  12 (12)  13 (13)  14 (14)  15 (15)  16 (16)  17 (17)  18 (18)
Resource initialization completed at t[s]:      0.00
Run totals: 19 processes, 48 threads, 0 GPUs


Input parsed successfully to the following command list (including defaults):

basis kpoint-dependent
coords-type Lattice
core-overlap-check vector
coulomb-interaction Slab 001
davidson-band-ratio 1.1
dump End None
dump-name $INPUT.$VAR
elec-cutoff 20
elec-eigen-algo Davidson
elec-ex-corr gga-PBE
elec-initial-magnetization 0.860000 yes
elec-smearing Fermi 1e-05
electronic-minimize  \
	dirUpdateScheme      FletcherReeves \
	linminMethod         DirUpdateRecommended \
	nIterations          100 \
	history              15 \
	knormThreshold       0 \
	energyDiffThreshold  1e-08 \
	nEnergyDiff          2 \
	alphaTstart          1 \
	alphaTmin            1e-10 \
	updateTestStepSize   yes \
	alphaTreduceFactor   0.1 \
	alphaTincreaseFactor 3 \
	nAlphaAdjustMax      3 \
	wolfeEnergy          0.0001 \
	wolfeGradient        0.9 \
	fdTest               no
electronic-scf  \
	nIterations	10000 \
	energyDiffThreshold	1e-08 \
	residualThreshold	1e-07 \
	mixFraction	0.5 \
	qMetric	0.8 \
	history	10 \
	nEigSteps	2 \
	eigDiffThreshold	1e-08 \
	mixedVariable	Density \
	qKerker	0.8 \
	qKappa	-1 \
	verbose	no \
	mixFractionMag	1.5
exchange-regularization WignerSeitzTruncated
fluid None
fluid-ex-corr (null) lda-PZ
fluid-gummel-loop 10 1.000000e-05
fluid-minimize  \
	dirUpdateScheme      PolakRibiere \
	linminMethod         DirUpdateRecommended \
	nIterations          100 \
	history              15 \
	knormThreshold       0 \
	energyDiffThreshold  0 \
	nEnergyDiff          2 \
	alphaTstart          1 \
	alphaTmin            1e-10 \
	updateTestStepSize   yes \
	alphaTreduceFactor   0.1 \
	alphaTincreaseFactor 3 \
	nAlphaAdjustMax      3 \
	wolfeEnergy          0.0001 \
	wolfeGradient        0.9 \
	fdTest               no
fluid-solvent H2O 55.338 ScalarEOS \
	epsBulk 78.4 \
	pMol 0.92466 \
	epsInf 1.77 \
	Pvap 1.06736e-10 \
	sigmaBulk 4.62e-05 \
	Rvdw 2.61727 \
	Res 1.42 \
	tauNuc 343133 \
	poleEl 15 7 1
forces-output-coords Positions
ion Na   0.000000000000000   0.000000000000000   0.000000000000000 0
ion-species SG15/$ID_ONCV_PBE.upf
ion-width 0
ionic-minimize  \
	dirUpdateScheme      L-BFGS \
	linminMethod         DirUpdateRecommended \
	nIterations          0 \
	history              15 \
	knormThreshold       0.0001 \
	energyDiffThreshold  1e-06 \
	nEnergyDiff          2 \
	alphaTstart          1 \
	alphaTmin            1e-10 \
	updateTestStepSize   yes \
	alphaTreduceFactor   0.1 \
	alphaTincreaseFactor 3 \
	nAlphaAdjustMax      3 \
	wolfeEnergy          0.0001 \
	wolfeGradient        0.9 \
	fdTest               no
kpoint   0.000000000000   0.000000000000   0.000000000000  1.00000000000000
kpoint-folding 12 12 1 
latt-move-scale 1 1 1
latt-scale 2 2 1 
lattice  \
	   4.727486978767153   -2.363743489383575    0.000000000000000  \
	  -0.000000000000000    4.094123819672498    0.000000000000000  \
	   0.000000000000000    0.000000000000000   40.000000000000000 
lattice-minimize  \
	dirUpdateScheme      L-BFGS \
	linminMethod         DirUpdateRecommended \
	nIterations          0 \
	history              15 \
	knormThreshold       0 \
	energyDiffThreshold  1e-06 \
	nEnergyDiff          2 \
	alphaTstart          1 \
	alphaTmin            1e-10 \
	updateTestStepSize   yes \
	alphaTreduceFactor   0.1 \
	alphaTincreaseFactor 3 \
	nAlphaAdjustMax      3 \
	wolfeEnergy          0.0001 \
	wolfeGradient        0.9 \
	fdTest               no
lcao-params -1 1e-06 1e-05
pcm-variant GLSSA13
spintype z-spin
subspace-rotation-factor 1 yes
symmetries automatic
symmetry-threshold 0.0001



---------- Setting up symmetries ----------

Found 24 point-group symmetries of the bravais lattice
Found 24 space-group symmetries with basis
Applied RMS atom displacement 0 bohrs to make symmetries exact.

---------- Initializing the Grid ----------
R = 
[      9.45497     -4.72749            0  ]
[            0      8.18825            0  ]
[            0            0           40  ]
unit cell volume = 3096.79
G =
[   0.664538   0.383671         -0  ]
[          0   0.767342         -0  ]
[         -0         -0    0.15708  ]
Minimum fftbox size, Smin = [  40  40  164  ]
Chosen fftbox size, S = [  40  40  168  ]

---------- Exchange Correlation functional ----------
Initalized PBE GGA exchange.
Initalized PBE GGA correlation.

---------- Setting up pseudopotentials ----------
Width of ionic core gaussian charges (only for fluid interactions / plotting) set to 0

Reading pseudopotential file '/home/gridsan/aligho/DFT/build-Nov24/pseudopotentials/SG15/Na_ONCV_PBE.upf':
  'Na' pseudopotential, 'PBE' functional
  Generated using ONCVPSP code by D. R. Hamann
  Author: Martin Schlipf and Francois Gygi  Date: 150915.
  9 valence electrons, 3 orbitals, 4 projectors, 1992 radial grid points, with lMax = 1
  Transforming local potential to a uniform radial grid of dG=0.02 with 1489 points.
  Transforming nonlocal projectors to a uniform radial grid of dG=0.02 with 432 points.
    2S    l: 0   occupation:  2.0   eigenvalue: -2.085640
    2P    l: 1   occupation:  6.0   eigenvalue: -1.053708
    3S    l: 0   occupation:  1.0   eigenvalue: -0.100838
  Transforming atomic orbitals to a uniform radial grid of dG=0.02 with 432 points.
  Core radius for overlap checks: 2.01 bohrs.
  Reading pulay file /home/gridsan/aligho/DFT/build-Nov24/pseudopotentials/SG15/Na_ONCV_PBE.pulay ... using dE_dnG = -2.946487e-03 computed for Ecut = 20.

Initialized 1 species with 1 total atoms.

Folded 1 k-points by 12x12x1 to 144 k-points.

---------- Setting up k-points, bands, fillings ----------
Reduced to 19 k-points under symmetry. 
Computing the number of bands and number of electrons
Calculating initial fillings.
nElectrons:   9.000000   nBands: 6   nStates: 38

----- Setting up reduced wavefunction bases (one per k-point) -----
average nbasis = 13230.521 , ideal nbasis = 13229.709

---------- Setting up coulomb interaction ----------
Initialized slab truncation along lattice direction 001

---------- Setting up 2D ewald sum ----------
Optimum gaussian width for ewald sums = 5.249020 bohr.
Real space sums over 289 unit cells with max indices [  8  8  0  ]
Reciprocal space sums over 81 terms with max indices [  4  4  0  ]

---------- Allocating electronic variables ----------
Initializing wave functions:  linear combination of atomic orbitals
Note: number of bands (6) exceeds available atomic orbitals (5)
Na pseudo-atom occupations:   s ( 2 1 )  p ( 6 )
	FillingsUpdate:  mu: -0.104494090  nElectrons: 9.000000  magneticMoment: [ Abs: 0.86000  Tot: +0.86000 ]
LCAOMinimize: Iter:   0  F: -42.5583148310557320  |grad|_K:  8.685e-06  alpha:  1.000e+00
	FillingsUpdate:  mu: -0.104493780  nElectrons: 9.000000  magneticMoment: [ Abs: 0.86000  Tot: +0.86000 ]
LCAOMinimize: Iter:   1  F: -42.5583148824157291  |grad|_K:  5.054e-08  alpha:  9.955e-01  linmin: -1.028e-02  cgtest:  2.988e-01  t[s]:      4.46
LCAOMinimize: Encountered beta<0, resetting CG.
	FillingsUpdate:  mu: -0.104493795  nElectrons: 9.000000  magneticMoment: [ Abs: 0.86000  Tot: +0.86000 ]
LCAOMinimize: Iter:   2  F: -42.5583148824173705  |grad|_K:  1.481e-08  alpha:  1.289e+00  linmin:  9.160e-02  cgtest: -9.997e-01  t[s]:      5.61
LCAOMinimize: Converged (|Delta F|<1.000000e-06 for 2 iters).


---- Citations for features of the code used in this run ----

   Software package:
      R. Sundararaman, K. Letchworth-Weaver, K.A. Schwarz, D. Gunceler, Y. Ozhabes and T.A. Arias, 'JDFTx: software for joint density-functional theory', SoftwareX 6, 278 (2017)

   gga-PBE exchange-correlation functional:
      J.P. Perdew, K. Burke and M. Ernzerhof, Phys. Rev. Lett. 77, 3865 (1996)

   Pseudopotentials:
      M Schlipf and F Gygi, Comput. Phys. Commun. 196, 36 (2015)

   Truncated Coulomb potentials:
      R. Sundararaman and T.A. Arias, Phys. Rev. B 87, 165122 (2013)

This list may not be complete. Please suggest additional citations or
report any other bugs at https://github.com/shankar1729/jdftx/issues

Initialization completed successfully at t[s]:      5.68


-------- Electronic minimization -----------
Will mix electronic density at each iteration.
	FillingsUpdate:  mu: -0.104493795  nElectrons: 9.000000  magneticMoment: [ Abs: 0.86000  Tot: +0.86000 ]
	FillingsUpdate:  mu: -0.108424743  nElectrons: 9.000000  magneticMoment: [ Abs: 0.86000  Tot: +0.86000 ]
SCF: Cycle:  0   F: -42.563663415998164   dF: -5.349e-03   |Residual|: 1.145e-02   |deigs|: 1.697e-01  t[s]:      7.88
	FillingsUpdate:  mu: -0.110433847  nElectrons: 9.000000  magneticMoment: [ Abs: 0.86010  Tot: +0.86000 ]
SCF: Cycle:  1   F: -42.563899167888600   dF: -2.358e-04   |Residual|: 7.815e-03   |deigs|: 9.561e-03  t[s]:      9.51
	FillingsUpdate:  mu: -0.110015873  nElectrons: 9.000000  magneticMoment: [ Abs: 0.86154  Tot: +0.86000 ]
SCF: Cycle:  2   F: -42.563970524896867   dF: -7.136e-05   |Residual|: 5.355e-03   |deigs|: 6.478e-03  t[s]:     11.17
	FillingsUpdate:  mu: -0.110958992  nElectrons: 9.000000  magneticMoment: [ Abs: 0.86043  Tot: +0.86000 ]
SCF: Cycle:  3   F: -42.563992564350002   dF: -2.204e-05   |Residual|: 3.128e-03   |deigs|: 6.617e-03  t[s]:     12.83
	FillingsUpdate:  mu: -0.108891400  nElectrons: 9.000000  magneticMoment: [ Abs: 0.86050  Tot: +0.86000 ]
SCF: Cycle:  4   F: -42.564011705493627   dF: -1.914e-05   |Residual|: 1.160e-03   |deigs|: 2.770e-03  t[s]:     14.58
	FillingsUpdate:  mu: -0.108632528  nElectrons: 9.000000  magneticMoment: [ Abs: 0.86061  Tot: +0.86000 ]
SCF: Cycle:  5   F: -42.564014243062289   dF: -2.538e-06   |Residual|: 8.541e-04   |deigs|: 2.738e-03  t[s]:     16.28
	FillingsUpdate:  mu: -0.108096726  nElectrons: 9.000000  magneticMoment: [ Abs: 0.86049  Tot: +0.86000 ]
SCF: Cycle:  6   F: -42.564017031765943   dF: -2.789e-06   |Residual|: 6.015e-04   |deigs|: 8.066e-04  t[s]:     18.05
	FillingsUpdate:  mu: -0.107043631  nElectrons: 9.000000  magneticMoment: [ Abs: 0.86244  Tot: +0.86000 ]
SCF: Cycle:  7   F: -42.564015451720138   dF: +1.580e-06   |Residual|: 5.027e-04   |deigs|: 1.272e-03  t[s]:     19.84
	FillingsUpdate:  mu: -0.106351247  nElectrons: 9.000000  magneticMoment: [ Abs: 0.86242  Tot: +0.86000 ]
SCF: Cycle:  8   F: -42.564016023962921   dF: -5.722e-07   |Residual|: 4.020e-04   |deigs|: 8.390e-04  t[s]:     21.63
	FillingsUpdate:  mu: -0.105959560  nElectrons: 9.000000  magneticMoment: [ Abs: 0.86110  Tot: +0.86000 ]
SCF: Cycle:  9   F: -42.564018169585097   dF: -2.146e-06   |Residual|: 3.312e-04   |deigs|: 5.827e-04  t[s]:     23.45
	FillingsUpdate:  mu: -0.105992442  nElectrons: 9.000000  magneticMoment: [ Abs: 0.86071  Tot: +0.86000 ]
SCF: Cycle: 10   F: -42.564020099241375   dF: -1.930e-06   |Residual|: 2.280e-04   |deigs|: 3.176e-04  t[s]:     25.34
	FillingsUpdate:  mu: -0.105427412  nElectrons: 9.000000  magneticMoment: [ Abs: 0.86163  Tot: +0.86000 ]
SCF: Cycle: 11   F: -42.564019700696427   dF: +3.985e-07   |Residual|: 2.075e-04   |deigs|: 7.324e-04  t[s]:     27.25
	FillingsUpdate:  mu: -0.105066867  nElectrons: 9.000000  magneticMoment: [ Abs: 0.86147  Tot: +0.86000 ]
SCF: Cycle: 12   F: -42.564019503065943   dF: +1.976e-07   |Residual|: 1.911e-04   |deigs|: 3.660e-04  t[s]:     29.11
	FillingsUpdate:  mu: -0.104899256  nElectrons: 9.000000  magneticMoment: [ Abs: 0.86151  Tot: +0.86000 ]
SCF: Cycle: 13   F: -42.564020298526387   dF: -7.955e-07   |Residual|: 1.675e-04   |deigs|: 4.541e-04  t[s]:     31.01
	FillingsUpdate:  mu: -0.104477207  nElectrons: 9.000000  magneticMoment: [ Abs: 0.86207  Tot: +0.86000 ]
SCF: Cycle: 14   F: -42.564020814349576   dF: -5.158e-07   |Residual|: 1.623e-04   |deigs|: 5.253e-04  t[s]:     32.87
	FillingsUpdate:  mu: -0.103783670  nElectrons: 9.000000  magneticMoment: [ Abs: 0.86141  Tot: +0.86000 ]
SCF: Cycle: 15   F: -42.564021104845466   dF: -2.905e-07   |Residual|: 1.392e-04   |deigs|: 7.370e-04  t[s]:     34.70
	FillingsUpdate:  mu: -0.103449654  nElectrons: 9.000000  magneticMoment: [ Abs: 0.86116  Tot: +0.86000 ]
SCF: Cycle: 16   F: -42.564021374198362   dF: -2.694e-07   |Residual|: 1.227e-04   |deigs|: 3.759e-04  t[s]:     36.53
	FillingsUpdate:  mu: -0.103208479  nElectrons: 9.000000  magneticMoment: [ Abs: 0.86098  Tot: +0.86000 ]
SCF: Cycle: 17   F: -42.564021621855467   dF: -2.477e-07   |Residual|: 9.288e-05   |deigs|: 2.449e-04  t[s]:     38.37
	FillingsUpdate:  mu: -0.102960088  nElectrons: 9.000000  magneticMoment: [ Abs: 0.86068  Tot: +0.86000 ]
SCF: Cycle: 18   F: -42.564021769184045   dF: -1.473e-07   |Residual|: 6.144e-05   |deigs|: 3.193e-04  t[s]:     40.17
	FillingsUpdate:  mu: -0.102822838  nElectrons: 9.000000  magneticMoment: [ Abs: 0.86082  Tot: +0.86000 ]
SCF: Cycle: 19   F: -42.564021821796963   dF: -5.261e-08   |Residual|: 3.820e-05   |deigs|: 1.846e-04  t[s]:     41.95
	FillingsUpdate:  mu: -0.102793345  nElectrons: 9.000000  magneticMoment: [ Abs: 0.86084  Tot: +0.86000 ]
SCF: Cycle: 20   F: -42.564021842611005   dF: -2.081e-08   |Residual|: 2.460e-05   |deigs|: 4.470e-04  t[s]:     43.78
	FillingsUpdate:  mu: -0.102790346  nElectrons: 9.000000  magneticMoment: [ Abs: 0.86073  Tot: +0.86000 ]
SCF: Cycle: 21   F: -42.564021852859177   dF: -1.025e-08   |Residual|: 1.614e-05   |deigs|: 1.464e-04  t[s]:     45.59
	FillingsUpdate:  mu: -0.102788786  nElectrons: 9.000000  magneticMoment: [ Abs: 0.86071  Tot: +0.86000 ]
SCF: Cycle: 22   F: -42.564021857394017   dF: -4.535e-09   |Residual|: 9.967e-06   |deigs|: 6.201e-05  t[s]:     47.46
	FillingsUpdate:  mu: -0.102784595  nElectrons: 9.000000  magneticMoment: [ Abs: 0.86071  Tot: +0.86000 ]
SCF: Cycle: 23   F: -42.564021863851764   dF: -6.458e-09   |Residual|: 7.498e-06   |deigs|: 3.864e-05  t[s]:     49.31
SCF: Converged (|Delta E|<1.000000e-08 for 2 iters).


# Ionic positions in lattice coordinates:
ion Na   0.000000000000000   0.000000000000000   0.000000000000000 0

# Forces in Lattice coordinates:
force Na  -0.000000000000000  -0.000000000000000   0.000000000000000 0

# Energy components:
   Eewald =      -18.0480261003326561
       EH =       15.7602223650052320
     Eloc =      -42.7745881637526253
      Enl =      -12.9151899205857426
   Epulay =        0.0000007725295140
      Exc =       -6.2235235867403915
       KE =       21.6370834430623269
-------------------------------------
     Etot =      -42.5640211908143442
       TS =        0.0000006730374165
-------------------------------------
        F =      -42.5640218638517638

IonicMinimize: Iter:   0  F: -42.564021863851764  |grad|_K:  0.000e+00  t[s]:     49.38
IonicMinimize: Converged (|grad|_K<1.000000e-04).

#--- Lowdin population analysis ---
# oxidation-state Na +0.094
# magnetic-moments Na +0.767

End date and time: Sat Feb  5 22:35:59 2022  (Duration: 0-0:00:49.41)
Done!
