
*************** JDFTx 1.6.0 (git hash 42ebbcc2) ***************

Start date and time: Sat Feb  5 22:29:35 2022
Executable jdftx with command-line: -i Alkali.in
Running on hosts (process indices):  d-16-12-1 (0-18)
Divided in process groups (process indices):  0 (0)  1 (1)  2 (2)  3 (3)  4 (4)  5 (5)  6 (6)  7 (7)  8 (8)  9 (9)  10 (10)  11 (11)  12 (12)  13 (13)  14 (14)  15 (15)  16 (16)  17 (17)  18 (18)
Resource initialization completed at t[s]:      0.00
Run totals: 19 processes, 48 threads, 0 GPUs


Input parsed successfully to the following command list (including defaults):

basis kpoint-dependent
coords-type Lattice
core-overlap-check vector
coulomb-interaction Slab 001
davidson-band-ratio 1.1
dump End None
dump-name $INPUT.$VAR
elec-cutoff 20
elec-eigen-algo Davidson
elec-ex-corr gga-PBE
elec-initial-magnetization 0.000000 yes
elec-smearing Fermi 1e-05
electronic-minimize  \
	dirUpdateScheme      FletcherReeves \
	linminMethod         DirUpdateRecommended \
	nIterations          100 \
	history              15 \
	knormThreshold       0 \
	energyDiffThreshold  1e-08 \
	nEnergyDiff          2 \
	alphaTstart          1 \
	alphaTmin            1e-10 \
	updateTestStepSize   yes \
	alphaTreduceFactor   0.1 \
	alphaTincreaseFactor 3 \
	nAlphaAdjustMax      3 \
	wolfeEnergy          0.0001 \
	wolfeGradient        0.9 \
	fdTest               no
electronic-scf  \
	nIterations	10000 \
	energyDiffThreshold	1e-08 \
	residualThreshold	1e-07 \
	mixFraction	0.5 \
	qMetric	0.8 \
	history	10 \
	nEigSteps	2 \
	eigDiffThreshold	1e-08 \
	mixedVariable	Density \
	qKerker	0.8 \
	qKappa	-1 \
	verbose	no \
	mixFractionMag	1.5
exchange-regularization WignerSeitzTruncated
fluid None
fluid-ex-corr (null) lda-PZ
fluid-gummel-loop 10 1.000000e-05
fluid-minimize  \
	dirUpdateScheme      PolakRibiere \
	linminMethod         DirUpdateRecommended \
	nIterations          100 \
	history              15 \
	knormThreshold       0 \
	energyDiffThreshold  0 \
	nEnergyDiff          2 \
	alphaTstart          1 \
	alphaTmin            1e-10 \
	updateTestStepSize   yes \
	alphaTreduceFactor   0.1 \
	alphaTincreaseFactor 3 \
	nAlphaAdjustMax      3 \
	wolfeEnergy          0.0001 \
	wolfeGradient        0.9 \
	fdTest               no
fluid-solvent H2O 55.338 ScalarEOS \
	epsBulk 78.4 \
	pMol 0.92466 \
	epsInf 1.77 \
	Pvap 1.06736e-10 \
	sigmaBulk 4.62e-05 \
	Rvdw 2.61727 \
	Res 1.42 \
	tauNuc 343133 \
	poleEl 15 7 1
forces-output-coords Positions
ion Na   0.000000000000000   0.000000000000000   0.000000000000000 0
ion-species SG15/$ID_ONCV_PBE.upf
ion-width 0
ionic-minimize  \
	dirUpdateScheme      L-BFGS \
	linminMethod         DirUpdateRecommended \
	nIterations          0 \
	history              15 \
	knormThreshold       0.0001 \
	energyDiffThreshold  1e-06 \
	nEnergyDiff          2 \
	alphaTstart          1 \
	alphaTmin            1e-10 \
	updateTestStepSize   yes \
	alphaTreduceFactor   0.1 \
	alphaTincreaseFactor 3 \
	nAlphaAdjustMax      3 \
	wolfeEnergy          0.0001 \
	wolfeGradient        0.9 \
	fdTest               no
kpoint   0.000000000000   0.000000000000   0.000000000000  1.00000000000000
kpoint-folding 12 12 1 
latt-move-scale 1 1 1
latt-scale 3 3 1 
lattice  \
	   4.727486978767153   -2.363743489383575    0.000000000000000  \
	  -0.000000000000000    4.094123819672498    0.000000000000000  \
	   0.000000000000000    0.000000000000000   40.000000000000000 
lattice-minimize  \
	dirUpdateScheme      L-BFGS \
	linminMethod         DirUpdateRecommended \
	nIterations          0 \
	history              15 \
	knormThreshold       0 \
	energyDiffThreshold  1e-06 \
	nEnergyDiff          2 \
	alphaTstart          1 \
	alphaTmin            1e-10 \
	updateTestStepSize   yes \
	alphaTreduceFactor   0.1 \
	alphaTincreaseFactor 3 \
	nAlphaAdjustMax      3 \
	wolfeEnergy          0.0001 \
	wolfeGradient        0.9 \
	fdTest               no
lcao-params -1 1e-06 1e-05
pcm-variant GLSSA13
spintype z-spin
subspace-rotation-factor 1 yes
symmetries automatic
symmetry-threshold 0.0001



---------- Setting up symmetries ----------

Found 24 point-group symmetries of the bravais lattice
Found 24 space-group symmetries with basis
Applied RMS atom displacement 0 bohrs to make symmetries exact.

---------- Initializing the Grid ----------
R = 
[      14.1825     -7.09123            0  ]
[            0      12.2824            0  ]
[            0            0           40  ]
unit cell volume = 6967.77
G =
[   0.443025   0.255781         -0  ]
[          0   0.511561         -0  ]
[         -0         -0    0.15708  ]
Minimum fftbox size, Smin = [  60  60  164  ]
Chosen fftbox size, S = [  60  60  168  ]

---------- Exchange Correlation functional ----------
Initalized PBE GGA exchange.
Initalized PBE GGA correlation.

---------- Setting up pseudopotentials ----------
Width of ionic core gaussian charges (only for fluid interactions / plotting) set to 0

Reading pseudopotential file '/home/gridsan/aligho/DFT/build-Nov24/pseudopotentials/SG15/Na_ONCV_PBE.upf':
  'Na' pseudopotential, 'PBE' functional
  Generated using ONCVPSP code by D. R. Hamann
  Author: Martin Schlipf and Francois Gygi  Date: 150915.
  9 valence electrons, 3 orbitals, 4 projectors, 1992 radial grid points, with lMax = 1
  Transforming local potential to a uniform radial grid of dG=0.02 with 1489 points.
  Transforming nonlocal projectors to a uniform radial grid of dG=0.02 with 432 points.
    2S    l: 0   occupation:  2.0   eigenvalue: -2.085640
    2P    l: 1   occupation:  6.0   eigenvalue: -1.053708
    3S    l: 0   occupation:  1.0   eigenvalue: -0.100838
  Transforming atomic orbitals to a uniform radial grid of dG=0.02 with 432 points.
  Core radius for overlap checks: 2.01 bohrs.
  Reading pulay file /home/gridsan/aligho/DFT/build-Nov24/pseudopotentials/SG15/Na_ONCV_PBE.pulay ... using dE_dnG = -2.946487e-03 computed for Ecut = 20.

Initialized 1 species with 1 total atoms.

Folded 1 k-points by 12x12x1 to 144 k-points.

---------- Setting up k-points, bands, fillings ----------
Reduced to 19 k-points under symmetry. 
Computing the number of bands and number of electrons
Calculating initial fillings.
nElectrons:   9.000000   nBands: 6   nStates: 38

----- Setting up reduced wavefunction bases (one per k-point) -----
average nbasis = 29766.104 , ideal nbasis = 29766.845

---------- Setting up coulomb interaction ----------
Initialized slab truncation along lattice direction 001

---------- Setting up 2D ewald sum ----------
Optimum gaussian width for ewald sums = 7.873530 bohr.
Real space sums over 289 unit cells with max indices [  8  8  0  ]
Reciprocal space sums over 81 terms with max indices [  4  4  0  ]

---------- Allocating electronic variables ----------
Initializing wave functions:  linear combination of atomic orbitals
Note: number of bands (6) exceeds available atomic orbitals (5)
Na pseudo-atom occupations:   s ( 2 1 )  p ( 6 )
	FillingsUpdate:  mu: -0.102182073  nElectrons: 9.000000  magneticMoment: [ Abs: 0.00004  Tot: +0.00000 ]
LCAOMinimize: Iter:   0  F: -42.5527864542299739  |grad|_K:  9.947e-06  alpha:  1.000e+00
	FillingsUpdate:  mu: -0.102180040  nElectrons: 9.000000  magneticMoment: [ Abs: 0.00005  Tot: -0.00000 ]
LCAOMinimize: Iter:   1  F: -42.5527865212937471  |grad|_K:  4.959e-08  alpha:  9.909e-01  linmin: -8.398e-03  cgtest:  4.402e-01  t[s]:      7.45
LCAOMinimize: Encountered beta<0, resetting CG.
	FillingsUpdate:  mu: -0.102180033  nElectrons: 9.000000  magneticMoment: [ Abs: 0.00005  Tot: +0.00000 ]
LCAOMinimize: Iter:   2  F: -42.5527865212954737  |grad|_K:  5.535e-09  alpha:  1.112e+00  linmin:  2.158e-02  cgtest: -1.000e+00  t[s]:      9.85
LCAOMinimize: Converged (|Delta F|<1.000000e-06 for 2 iters).


---- Citations for features of the code used in this run ----

   Software package:
      R. Sundararaman, K. Letchworth-Weaver, K.A. Schwarz, D. Gunceler, Y. Ozhabes and T.A. Arias, 'JDFTx: software for joint density-functional theory', SoftwareX 6, 278 (2017)

   gga-PBE exchange-correlation functional:
      J.P. Perdew, K. Burke and M. Ernzerhof, Phys. Rev. Lett. 77, 3865 (1996)

   Pseudopotentials:
      M Schlipf and F Gygi, Comput. Phys. Commun. 196, 36 (2015)

   Truncated Coulomb potentials:
      R. Sundararaman and T.A. Arias, Phys. Rev. B 87, 165122 (2013)

This list may not be complete. Please suggest additional citations or
report any other bugs at https://github.com/shankar1729/jdftx/issues

Initialization completed successfully at t[s]:      9.96


-------- Electronic minimization -----------
Will mix electronic density at each iteration.
	FillingsUpdate:  mu: -0.102180033  nElectrons: 9.000000  magneticMoment: [ Abs: 0.00005  Tot: +0.00000 ]
	FillingsUpdate:  mu: -0.102566610  nElectrons: 9.000000  magneticMoment: [ Abs: 0.00005  Tot: +0.00000 ]
SCF: Cycle:  0   F: -42.553148105456103   dF: -3.616e-04   |Residual|: 2.149e-03   |deigs|: 1.741e-01  t[s]:     14.40
	FillingsUpdate:  mu: -0.102706879  nElectrons: 9.000000  magneticMoment: [ Abs: 0.00002  Tot: +0.00000 ]
SCF: Cycle:  1   F: -42.553153596640001   dF: -5.491e-06   |Residual|: 1.359e-03   |deigs|: 5.173e-03  t[s]:     17.90
	FillingsUpdate:  mu: -0.102977203  nElectrons: 9.000000  magneticMoment: [ Abs: 0.00002  Tot: +0.00000 ]
SCF: Cycle:  2   F: -42.553157125530213   dF: -3.529e-06   |Residual|: 7.807e-04   |deigs|: 2.774e-03  t[s]:     21.47
	FillingsUpdate:  mu: -0.103280725  nElectrons: 9.000000  magneticMoment: [ Abs: 0.00006  Tot: +0.00000 ]
SCF: Cycle:  3   F: -42.553160904475007   dF: -3.779e-06   |Residual|: 6.330e-04   |deigs|: 1.454e-03  t[s]:     25.09
	FillingsUpdate:  mu: -0.103371884  nElectrons: 9.000000  magneticMoment: [ Abs: 0.00002  Tot: +0.00000 ]
SCF: Cycle:  4   F: -42.553161551959946   dF: -6.475e-07   |Residual|: 2.192e-04   |deigs|: 1.560e-03  t[s]:     28.68
	FillingsUpdate:  mu: -0.103369915  nElectrons: 9.000000  magneticMoment: [ Abs: 0.00003  Tot: +0.00000 ]
SCF: Cycle:  5   F: -42.553162152594830   dF: -6.006e-07   |Residual|: 2.242e-04   |deigs|: 1.496e-03  t[s]:     32.42
	FillingsUpdate:  mu: -0.103309439  nElectrons: 9.000000  magneticMoment: [ Abs: 0.00014  Tot: +0.00000 ]
SCF: Cycle:  6   F: -42.553162289701362   dF: -1.371e-07   |Residual|: 2.207e-04   |deigs|: 1.531e-03  t[s]:     36.31
	FillingsUpdate:  mu: -0.103286245  nElectrons: 9.000000  magneticMoment: [ Abs: 0.00006  Tot: +0.00000 ]
SCF: Cycle:  7   F: -42.553162304159819   dF: -1.446e-08   |Residual|: 4.986e-05   |deigs|: 7.819e-04  t[s]:     40.19
	FillingsUpdate:  mu: -0.103247043  nElectrons: 9.000000  magneticMoment: [ Abs: 0.00014  Tot: +0.00000 ]
SCF: Cycle:  8   F: -42.553162312462142   dF: -8.302e-09   |Residual|: 1.374e-04   |deigs|: 1.973e-04  t[s]:     44.16
	FillingsUpdate:  mu: -0.103197513  nElectrons: 9.000000  magneticMoment: [ Abs: 0.00009  Tot: +0.00000 ]
SCF: Cycle:  9   F: -42.553162320037849   dF: -7.576e-09   |Residual|: 7.450e-05   |deigs|: 1.163e-04  t[s]:     48.10
SCF: Converged (|Delta E|<1.000000e-08 for 2 iters).


# Ionic positions in lattice coordinates:
ion Na   0.000000000000000   0.000000000000000   0.000000000000000 0

# Forces in Lattice coordinates:
force Na   0.000000000000000  -0.000000000000000   0.000000000000000 0

# Energy components:
   Eewald =      -12.0320174002217755
       EH =       21.7026158478165918
     Eloc =      -54.7330850538283258
      Enl =      -12.9046367314942323
   Epulay =       -0.0000003132867683
      Exc =       -6.2055615251935663
       KE =       21.6195233342302018
-------------------------------------
     Etot =      -42.5531618419778752
       TS =        0.0000004780599717
-------------------------------------
        F =      -42.5531623200378490

IonicMinimize: Iter:   0  F: -42.553162320037849  |grad|_K:  0.000e+00  t[s]:     48.24
IonicMinimize: Converged (|grad|_K<1.000000e-04).

#--- Lowdin population analysis ---
# oxidation-state Na +0.005
# magnetic-moments Na +0.000

End date and time: Sat Feb  5 22:30:23 2022  (Duration: 0-0:00:48.29)
Done!
