
*************** JDFTx 1.6.0 (git hash 42ebbcc2) ***************

Start date and time: Sat Feb  5 22:26:09 2022
Executable jdftx with command-line: -i Alkali.in
Running on hosts (process indices):  d-3-7-1 (0-18)
Divided in process groups (process indices):  0 (0)  1 (1)  2 (2)  3 (3)  4 (4)  5 (5)  6 (6)  7 (7)  8 (8)  9 (9)  10 (10)  11 (11)  12 (12)  13 (13)  14 (14)  15 (15)  16 (16)  17 (17)  18 (18)
Resource initialization completed at t[s]:      0.00
Run totals: 19 processes, 48 threads, 0 GPUs


Input parsed successfully to the following command list (including defaults):

basis kpoint-dependent
coords-type Lattice
core-overlap-check vector
coulomb-interaction Slab 001
davidson-band-ratio 1.1
dump End None
dump-name $INPUT.$VAR
elec-cutoff 20
elec-eigen-algo Davidson
elec-ex-corr gga-PBE
elec-initial-magnetization -0.480000 yes
elec-smearing Fermi 1e-05
electronic-minimize  \
	dirUpdateScheme      FletcherReeves \
	linminMethod         DirUpdateRecommended \
	nIterations          100 \
	history              15 \
	knormThreshold       0 \
	energyDiffThreshold  1e-08 \
	nEnergyDiff          2 \
	alphaTstart          1 \
	alphaTmin            1e-10 \
	updateTestStepSize   yes \
	alphaTreduceFactor   0.1 \
	alphaTincreaseFactor 3 \
	nAlphaAdjustMax      3 \
	wolfeEnergy          0.0001 \
	wolfeGradient        0.9 \
	fdTest               no
electronic-scf  \
	nIterations	10000 \
	energyDiffThreshold	1e-08 \
	residualThreshold	1e-07 \
	mixFraction	0.5 \
	qMetric	0.8 \
	history	10 \
	nEigSteps	2 \
	eigDiffThreshold	1e-08 \
	mixedVariable	Density \
	qKerker	0.8 \
	qKappa	-1 \
	verbose	no \
	mixFractionMag	1.5
exchange-regularization WignerSeitzTruncated
fluid None
fluid-ex-corr (null) lda-PZ
fluid-gummel-loop 10 1.000000e-05
fluid-minimize  \
	dirUpdateScheme      PolakRibiere \
	linminMethod         DirUpdateRecommended \
	nIterations          100 \
	history              15 \
	knormThreshold       0 \
	energyDiffThreshold  0 \
	nEnergyDiff          2 \
	alphaTstart          1 \
	alphaTmin            1e-10 \
	updateTestStepSize   yes \
	alphaTreduceFactor   0.1 \
	alphaTincreaseFactor 3 \
	nAlphaAdjustMax      3 \
	wolfeEnergy          0.0001 \
	wolfeGradient        0.9 \
	fdTest               no
fluid-solvent H2O 55.338 ScalarEOS \
	epsBulk 78.4 \
	pMol 0.92466 \
	epsInf 1.77 \
	Pvap 1.06736e-10 \
	sigmaBulk 4.62e-05 \
	Rvdw 2.61727 \
	Res 1.42 \
	tauNuc 343133 \
	poleEl 15 7 1
forces-output-coords Positions
ion Na   0.000000000000000   0.000000000000000   0.000000000000000 0
ion-species SG15/$ID_ONCV_PBE.upf
ion-width 0
ionic-minimize  \
	dirUpdateScheme      L-BFGS \
	linminMethod         DirUpdateRecommended \
	nIterations          0 \
	history              15 \
	knormThreshold       0.0001 \
	energyDiffThreshold  1e-06 \
	nEnergyDiff          2 \
	alphaTstart          1 \
	alphaTmin            1e-10 \
	updateTestStepSize   yes \
	alphaTreduceFactor   0.1 \
	alphaTincreaseFactor 3 \
	nAlphaAdjustMax      3 \
	wolfeEnergy          0.0001 \
	wolfeGradient        0.9 \
	fdTest               no
kpoint   0.000000000000   0.000000000000   0.000000000000  1.00000000000000
kpoint-folding 12 12 1 
latt-move-scale 1 1 1
latt-scale 3 3 1 
lattice  \
	   4.727486978767153   -2.363743489383575    0.000000000000000  \
	  -0.000000000000000    4.094123819672498    0.000000000000000  \
	   0.000000000000000    0.000000000000000   40.000000000000000 
lattice-minimize  \
	dirUpdateScheme      L-BFGS \
	linminMethod         DirUpdateRecommended \
	nIterations          0 \
	history              15 \
	knormThreshold       0 \
	energyDiffThreshold  1e-06 \
	nEnergyDiff          2 \
	alphaTstart          1 \
	alphaTmin            1e-10 \
	updateTestStepSize   yes \
	alphaTreduceFactor   0.1 \
	alphaTincreaseFactor 3 \
	nAlphaAdjustMax      3 \
	wolfeEnergy          0.0001 \
	wolfeGradient        0.9 \
	fdTest               no
lcao-params -1 1e-06 1e-05
pcm-variant GLSSA13
spintype z-spin
subspace-rotation-factor 1 yes
symmetries automatic
symmetry-threshold 0.0001



---------- Setting up symmetries ----------

Found 24 point-group symmetries of the bravais lattice
Found 24 space-group symmetries with basis
Applied RMS atom displacement 0 bohrs to make symmetries exact.

---------- Initializing the Grid ----------
R = 
[      14.1825     -7.09123            0  ]
[            0      12.2824            0  ]
[            0            0           40  ]
unit cell volume = 6967.77
G =
[   0.443025   0.255781         -0  ]
[          0   0.511561         -0  ]
[         -0         -0    0.15708  ]
Minimum fftbox size, Smin = [  60  60  164  ]
Chosen fftbox size, S = [  60  60  168  ]

---------- Exchange Correlation functional ----------
Initalized PBE GGA exchange.
Initalized PBE GGA correlation.

---------- Setting up pseudopotentials ----------
Width of ionic core gaussian charges (only for fluid interactions / plotting) set to 0

Reading pseudopotential file '/home/gridsan/aligho/DFT/build-Nov24/pseudopotentials/SG15/Na_ONCV_PBE.upf':
  'Na' pseudopotential, 'PBE' functional
  Generated using ONCVPSP code by D. R. Hamann
  Author: Martin Schlipf and Francois Gygi  Date: 150915.
  9 valence electrons, 3 orbitals, 4 projectors, 1992 radial grid points, with lMax = 1
  Transforming local potential to a uniform radial grid of dG=0.02 with 1489 points.
  Transforming nonlocal projectors to a uniform radial grid of dG=0.02 with 432 points.
    2S    l: 0   occupation:  2.0   eigenvalue: -2.085640
    2P    l: 1   occupation:  6.0   eigenvalue: -1.053708
    3S    l: 0   occupation:  1.0   eigenvalue: -0.100838
  Transforming atomic orbitals to a uniform radial grid of dG=0.02 with 432 points.
  Core radius for overlap checks: 2.01 bohrs.
  Reading pulay file /home/gridsan/aligho/DFT/build-Nov24/pseudopotentials/SG15/Na_ONCV_PBE.pulay ... using dE_dnG = -2.946487e-03 computed for Ecut = 20.

Initialized 1 species with 1 total atoms.

Folded 1 k-points by 12x12x1 to 144 k-points.

---------- Setting up k-points, bands, fillings ----------
Reduced to 19 k-points under symmetry. 
Computing the number of bands and number of electrons
Calculating initial fillings.
nElectrons:   9.000000   nBands: 6   nStates: 38

----- Setting up reduced wavefunction bases (one per k-point) -----
average nbasis = 29766.104 , ideal nbasis = 29766.845

---------- Setting up coulomb interaction ----------
Initialized slab truncation along lattice direction 001

---------- Setting up 2D ewald sum ----------
Optimum gaussian width for ewald sums = 7.873530 bohr.
Real space sums over 289 unit cells with max indices [  8  8  0  ]
Reciprocal space sums over 81 terms with max indices [  4  4  0  ]

---------- Allocating electronic variables ----------
Initializing wave functions:  linear combination of atomic orbitals
Note: number of bands (6) exceeds available atomic orbitals (5)
Na pseudo-atom occupations:   s ( 2 1 )  p ( 6 )
	FillingsUpdate:  mu: -0.101628989  nElectrons: 9.000000  magneticMoment: [ Abs: 0.48000  Tot: -0.48000 ]
LCAOMinimize: Iter:   0  F: -42.5537089134189159  |grad|_K:  6.948e-06  alpha:  1.000e+00
	FillingsUpdate:  mu: -0.101627955  nElectrons: 9.000000  magneticMoment: [ Abs: 0.48000  Tot: -0.48000 ]
LCAOMinimize: Iter:   1  F: -42.5537089462267062  |grad|_K:  3.737e-08  alpha:  9.937e-01  linmin: -1.462e-03  cgtest:  4.418e-01  t[s]:      8.82
LCAOMinimize: Encountered beta<0, resetting CG.
	FillingsUpdate:  mu: -0.101627955  nElectrons: 9.000000  magneticMoment: [ Abs: 0.48000  Tot: -0.48000 ]
LCAOMinimize: Iter:   2  F: -42.5537089462272249  |grad|_K:  1.521e-08  alpha:  5.926e-01  linmin: -5.747e-03  cgtest:  1.000e+00  t[s]:     11.21
LCAOMinimize: Encountered beta<0, resetting CG.
LCAOMinimize: Converged (|Delta F|<1.000000e-06 for 2 iters).


---- Citations for features of the code used in this run ----

   Software package:
      R. Sundararaman, K. Letchworth-Weaver, K.A. Schwarz, D. Gunceler, Y. Ozhabes and T.A. Arias, 'JDFTx: software for joint density-functional theory', SoftwareX 6, 278 (2017)

   gga-PBE exchange-correlation functional:
      J.P. Perdew, K. Burke and M. Ernzerhof, Phys. Rev. Lett. 77, 3865 (1996)

   Pseudopotentials:
      M Schlipf and F Gygi, Comput. Phys. Commun. 196, 36 (2015)

   Truncated Coulomb potentials:
      R. Sundararaman and T.A. Arias, Phys. Rev. B 87, 165122 (2013)

This list may not be complete. Please suggest additional citations or
report any other bugs at https://github.com/shankar1729/jdftx/issues

Initialization completed successfully at t[s]:     11.32


-------- Electronic minimization -----------
Will mix electronic density at each iteration.
	FillingsUpdate:  mu: -0.101627955  nElectrons: 9.000000  magneticMoment: [ Abs: 0.48000  Tot: -0.48000 ]
	FillingsUpdate:  mu: -0.101954438  nElectrons: 9.000000  magneticMoment: [ Abs: 0.48000  Tot: -0.48000 ]
SCF: Cycle:  0   F: -42.554000690034520   dF: -2.917e-04   |Residual|: 2.072e-03   |deigs|: 1.729e-01  t[s]:     15.81
	FillingsUpdate:  mu: -0.102031538  nElectrons: 9.000000  magneticMoment: [ Abs: 0.48088  Tot: -0.48000 ]
SCF: Cycle:  1   F: -42.554005148090347   dF: -4.458e-06   |Residual|: 1.035e-03   |deigs|: 5.870e-03  t[s]:     19.28
	FillingsUpdate:  mu: -0.102094192  nElectrons: 9.000000  magneticMoment: [ Abs: 0.48072  Tot: -0.48000 ]
SCF: Cycle:  2   F: -42.554006290018464   dF: -1.142e-06   |Residual|: 5.690e-04   |deigs|: 2.839e-03  t[s]:     22.79
	FillingsUpdate:  mu: -0.102169195  nElectrons: 9.000000  magneticMoment: [ Abs: 0.48093  Tot: -0.48000 ]
SCF: Cycle:  3   F: -42.554007182584797   dF: -8.926e-07   |Residual|: 4.076e-04   |deigs|: 1.955e-03  t[s]:     26.40
	FillingsUpdate:  mu: -0.102236323  nElectrons: 9.000000  magneticMoment: [ Abs: 0.48075  Tot: -0.48000 ]
SCF: Cycle:  4   F: -42.554008280991567   dF: -1.098e-06   |Residual|: 2.625e-04   |deigs|: 9.012e-04  t[s]:     30.16
	FillingsUpdate:  mu: -0.102313463  nElectrons: 9.000000  magneticMoment: [ Abs: 0.48090  Tot: -0.48000 ]
SCF: Cycle:  5   F: -42.554009150200940   dF: -8.692e-07   |Residual|: 1.418e-04   |deigs|: 6.707e-04  t[s]:     33.83
	FillingsUpdate:  mu: -0.102299714  nElectrons: 9.000000  magneticMoment: [ Abs: 0.48083  Tot: -0.48000 ]
SCF: Cycle:  6   F: -42.554009397274115   dF: -2.471e-07   |Residual|: 9.211e-05   |deigs|: 1.357e-03  t[s]:     37.50
	FillingsUpdate:  mu: -0.102278565  nElectrons: 9.000000  magneticMoment: [ Abs: 0.48089  Tot: -0.48000 ]
SCF: Cycle:  7   F: -42.554009514103427   dF: -1.168e-07   |Residual|: 6.764e-05   |deigs|: 4.201e-04  t[s]:     41.33
	FillingsUpdate:  mu: -0.102229234  nElectrons: 9.000000  magneticMoment: [ Abs: 0.48083  Tot: -0.48000 ]
SCF: Cycle:  8   F: -42.554009572946320   dF: -5.884e-08   |Residual|: 5.275e-05   |deigs|: 3.739e-04  t[s]:     45.18
	FillingsUpdate:  mu: -0.102175444  nElectrons: 9.000000  magneticMoment: [ Abs: 0.48090  Tot: -0.48000 ]
SCF: Cycle:  9   F: -42.554009581180729   dF: -8.234e-09   |Residual|: 4.640e-05   |deigs|: 2.921e-04  t[s]:     49.34
	FillingsUpdate:  mu: -0.102138578  nElectrons: 9.000000  magneticMoment: [ Abs: 0.48089  Tot: -0.48000 ]
SCF: Cycle: 10   F: -42.554009578770042   dF: +2.411e-09   |Residual|: 4.031e-05   |deigs|: 1.868e-04  t[s]:     53.43
	FillingsUpdate:  mu: -0.102076730  nElectrons: 9.000000  magneticMoment: [ Abs: 0.48099  Tot: -0.48000 ]
SCF: Cycle: 11   F: -42.554009473180109   dF: +1.056e-07   |Residual|: 3.071e-05   |deigs|: 1.432e-04  t[s]:     57.47
	FillingsUpdate:  mu: -0.102047979  nElectrons: 9.000000  magneticMoment: [ Abs: 0.48100  Tot: -0.48000 ]
SCF: Cycle: 12   F: -42.554009565375694   dF: -9.220e-08   |Residual|: 2.781e-05   |deigs|: 5.355e-05  t[s]:     61.50
	FillingsUpdate:  mu: -0.102008947  nElectrons: 9.000000  magneticMoment: [ Abs: 0.48098  Tot: -0.48000 ]
SCF: Cycle: 13   F: -42.554009585917377   dF: -2.054e-08   |Residual|: 2.570e-05   |deigs|: 4.778e-05  t[s]:     65.53
	FillingsUpdate:  mu: -0.101947264  nElectrons: 9.000000  magneticMoment: [ Abs: 0.48095  Tot: -0.48000 ]
SCF: Cycle: 14   F: -42.554009572563182   dF: +1.335e-08   |Residual|: 2.463e-05   |deigs|: 6.636e-05  t[s]:     69.57
	FillingsUpdate:  mu: -0.101896740  nElectrons: 9.000000  magneticMoment: [ Abs: 0.48090  Tot: -0.48000 ]
SCF: Cycle: 15   F: -42.554009574573264   dF: -2.010e-09   |Residual|: 2.259e-05   |deigs|: 5.527e-05  t[s]:     73.56
	FillingsUpdate:  mu: -0.101859419  nElectrons: 9.000000  magneticMoment: [ Abs: 0.48091  Tot: -0.48000 ]
SCF: Cycle: 16   F: -42.554009589582940   dF: -1.501e-08   |Residual|: 1.969e-05   |deigs|: 4.034e-05  t[s]:     77.64
	FillingsUpdate:  mu: -0.101825824  nElectrons: 9.000000  magneticMoment: [ Abs: 0.48087  Tot: -0.48000 ]
SCF: Cycle: 17   F: -42.554009613213623   dF: -2.363e-08   |Residual|: 1.534e-05   |deigs|: 3.776e-05  t[s]:     81.64
	FillingsUpdate:  mu: -0.101815792  nElectrons: 9.000000  magneticMoment: [ Abs: 0.48087  Tot: -0.48000 ]
SCF: Cycle: 18   F: -42.554009630328174   dF: -1.711e-08   |Residual|: 8.944e-06   |deigs|: 1.252e-05  t[s]:     85.57
	FillingsUpdate:  mu: -0.101807946  nElectrons: 9.000000  magneticMoment: [ Abs: 0.48087  Tot: -0.48000 ]
SCF: Cycle: 19   F: -42.554009636511729   dF: -6.184e-09   |Residual|: 5.323e-06   |deigs|: 7.438e-06  t[s]:     89.52
	FillingsUpdate:  mu: -0.101805986  nElectrons: 9.000000  magneticMoment: [ Abs: 0.48087  Tot: -0.48000 ]
SCF: Cycle: 20   F: -42.554009638761165   dF: -2.249e-09   |Residual|: 3.109e-06   |deigs|: 3.476e-06  t[s]:     93.45
SCF: Converged (|Delta E|<1.000000e-08 for 2 iters).


# Ionic positions in lattice coordinates:
ion Na   0.000000000000000   0.000000000000000   0.000000000000000 0

# Forces in Lattice coordinates:
force Na   0.000000000000000   0.000000000000000   0.000000000000000 0

# Energy components:
   Eewald =      -12.0320174002217755
       EH =       21.7291076554016449
     Eloc =      -54.7618422425072424
      Enl =      -12.9044550978046768
   Epulay =       -0.0000003132867683
      Exc =       -6.2092514009477364
       KE =       21.6244496936388160
-------------------------------------
     Etot =      -42.5540091057277365
       TS =        0.0000005330334287
-------------------------------------
        F =      -42.5540096387611655

IonicMinimize: Iter:   0  F: -42.554009638761165  |grad|_K:  0.000e+00  t[s]:     93.60
IonicMinimize: Converged (|grad|_K<1.000000e-04).

#--- Lowdin population analysis ---
# oxidation-state Na +0.003
# magnetic-moments Na -0.479

End date and time: Sat Feb  5 22:27:42 2022  (Duration: 0-0:01:33.65)
Done!
