
*************** JDFTx 1.6.0 (git hash 42ebbcc2) ***************

Start date and time: Sat Feb  5 22:21:40 2022
Executable jdftx with command-line: -i Alkali.in
Running on hosts (process indices):  d-3-13-4 (0-18)
Divided in process groups (process indices):  0 (0)  1 (1)  2 (2)  3 (3)  4 (4)  5 (5)  6 (6)  7 (7)  8 (8)  9 (9)  10 (10)  11 (11)  12 (12)  13 (13)  14 (14)  15 (15)  16 (16)  17 (17)  18 (18)
Resource initialization completed at t[s]:      0.00
Run totals: 19 processes, 48 threads, 0 GPUs


Input parsed successfully to the following command list (including defaults):

basis kpoint-dependent
coords-type Lattice
core-overlap-check vector
coulomb-interaction Slab 001
davidson-band-ratio 1.1
dump End None
dump-name $INPUT.$VAR
elec-cutoff 20
elec-eigen-algo Davidson
elec-ex-corr gga-PBE
elec-initial-magnetization -0.980000 yes
elec-smearing Fermi 1e-05
electronic-minimize  \
	dirUpdateScheme      FletcherReeves \
	linminMethod         DirUpdateRecommended \
	nIterations          100 \
	history              15 \
	knormThreshold       0 \
	energyDiffThreshold  1e-08 \
	nEnergyDiff          2 \
	alphaTstart          1 \
	alphaTmin            1e-10 \
	updateTestStepSize   yes \
	alphaTreduceFactor   0.1 \
	alphaTincreaseFactor 3 \
	nAlphaAdjustMax      3 \
	wolfeEnergy          0.0001 \
	wolfeGradient        0.9 \
	fdTest               no
electronic-scf  \
	nIterations	10000 \
	energyDiffThreshold	1e-08 \
	residualThreshold	1e-07 \
	mixFraction	0.5 \
	qMetric	0.8 \
	history	10 \
	nEigSteps	2 \
	eigDiffThreshold	1e-08 \
	mixedVariable	Density \
	qKerker	0.8 \
	qKappa	-1 \
	verbose	no \
	mixFractionMag	1.5
exchange-regularization WignerSeitzTruncated
fluid None
fluid-ex-corr (null) lda-PZ
fluid-gummel-loop 10 1.000000e-05
fluid-minimize  \
	dirUpdateScheme      PolakRibiere \
	linminMethod         DirUpdateRecommended \
	nIterations          100 \
	history              15 \
	knormThreshold       0 \
	energyDiffThreshold  0 \
	nEnergyDiff          2 \
	alphaTstart          1 \
	alphaTmin            1e-10 \
	updateTestStepSize   yes \
	alphaTreduceFactor   0.1 \
	alphaTincreaseFactor 3 \
	nAlphaAdjustMax      3 \
	wolfeEnergy          0.0001 \
	wolfeGradient        0.9 \
	fdTest               no
fluid-solvent H2O 55.338 ScalarEOS \
	epsBulk 78.4 \
	pMol 0.92466 \
	epsInf 1.77 \
	Pvap 1.06736e-10 \
	sigmaBulk 4.62e-05 \
	Rvdw 2.61727 \
	Res 1.42 \
	tauNuc 343133 \
	poleEl 15 7 1
forces-output-coords Positions
ion Na   0.000000000000000   0.000000000000000   0.000000000000000 0
ion-species SG15/$ID_ONCV_PBE.upf
ion-width 0
ionic-minimize  \
	dirUpdateScheme      L-BFGS \
	linminMethod         DirUpdateRecommended \
	nIterations          0 \
	history              15 \
	knormThreshold       0.0001 \
	energyDiffThreshold  1e-06 \
	nEnergyDiff          2 \
	alphaTstart          1 \
	alphaTmin            1e-10 \
	updateTestStepSize   yes \
	alphaTreduceFactor   0.1 \
	alphaTincreaseFactor 3 \
	nAlphaAdjustMax      3 \
	wolfeEnergy          0.0001 \
	wolfeGradient        0.9 \
	fdTest               no
kpoint   0.000000000000   0.000000000000   0.000000000000  1.00000000000000
kpoint-folding 12 12 1 
latt-move-scale 1 1 1
latt-scale 3 3 1 
lattice  \
	   4.727486978767153   -2.363743489383575    0.000000000000000  \
	  -0.000000000000000    4.094123819672498    0.000000000000000  \
	   0.000000000000000    0.000000000000000   40.000000000000000 
lattice-minimize  \
	dirUpdateScheme      L-BFGS \
	linminMethod         DirUpdateRecommended \
	nIterations          0 \
	history              15 \
	knormThreshold       0 \
	energyDiffThreshold  1e-06 \
	nEnergyDiff          2 \
	alphaTstart          1 \
	alphaTmin            1e-10 \
	updateTestStepSize   yes \
	alphaTreduceFactor   0.1 \
	alphaTincreaseFactor 3 \
	nAlphaAdjustMax      3 \
	wolfeEnergy          0.0001 \
	wolfeGradient        0.9 \
	fdTest               no
lcao-params -1 1e-06 1e-05
pcm-variant GLSSA13
spintype z-spin
subspace-rotation-factor 1 yes
symmetries automatic
symmetry-threshold 0.0001



---------- Setting up symmetries ----------

Found 24 point-group symmetries of the bravais lattice
Found 24 space-group symmetries with basis
Applied RMS atom displacement 0 bohrs to make symmetries exact.

---------- Initializing the Grid ----------
R = 
[      14.1825     -7.09123            0  ]
[            0      12.2824            0  ]
[            0            0           40  ]
unit cell volume = 6967.77
G =
[   0.443025   0.255781         -0  ]
[          0   0.511561         -0  ]
[         -0         -0    0.15708  ]
Minimum fftbox size, Smin = [  60  60  164  ]
Chosen fftbox size, S = [  60  60  168  ]

---------- Exchange Correlation functional ----------
Initalized PBE GGA exchange.
Initalized PBE GGA correlation.

---------- Setting up pseudopotentials ----------
Width of ionic core gaussian charges (only for fluid interactions / plotting) set to 0

Reading pseudopotential file '/home/gridsan/aligho/DFT/build-Nov24/pseudopotentials/SG15/Na_ONCV_PBE.upf':
  'Na' pseudopotential, 'PBE' functional
  Generated using ONCVPSP code by D. R. Hamann
  Author: Martin Schlipf and Francois Gygi  Date: 150915.
  9 valence electrons, 3 orbitals, 4 projectors, 1992 radial grid points, with lMax = 1
  Transforming local potential to a uniform radial grid of dG=0.02 with 1489 points.
  Transforming nonlocal projectors to a uniform radial grid of dG=0.02 with 432 points.
    2S    l: 0   occupation:  2.0   eigenvalue: -2.085640
    2P    l: 1   occupation:  6.0   eigenvalue: -1.053708
    3S    l: 0   occupation:  1.0   eigenvalue: -0.100838
  Transforming atomic orbitals to a uniform radial grid of dG=0.02 with 432 points.
  Core radius for overlap checks: 2.01 bohrs.
  Reading pulay file /home/gridsan/aligho/DFT/build-Nov24/pseudopotentials/SG15/Na_ONCV_PBE.pulay ... using dE_dnG = -2.946487e-03 computed for Ecut = 20.

Initialized 1 species with 1 total atoms.

Folded 1 k-points by 12x12x1 to 144 k-points.

---------- Setting up k-points, bands, fillings ----------
Reduced to 19 k-points under symmetry. 
Computing the number of bands and number of electrons
Calculating initial fillings.
nElectrons:   9.000000   nBands: 6   nStates: 38

----- Setting up reduced wavefunction bases (one per k-point) -----
average nbasis = 29766.104 , ideal nbasis = 29766.845

---------- Setting up coulomb interaction ----------
Initialized slab truncation along lattice direction 001

---------- Setting up 2D ewald sum ----------
Optimum gaussian width for ewald sums = 7.873530 bohr.
Real space sums over 289 unit cells with max indices [  8  8  0  ]
Reciprocal space sums over 81 terms with max indices [  4  4  0  ]

---------- Allocating electronic variables ----------
Initializing wave functions:  linear combination of atomic orbitals
Note: number of bands (6) exceeds available atomic orbitals (5)
Na pseudo-atom occupations:   s ( 2 1 )  p ( 6 )
	FillingsUpdate:  mu: -0.094588883  nElectrons: 9.000000  magneticMoment: [ Abs: 0.98000  Tot: -0.98000 ]
LCAOMinimize: Iter:   0  F: -42.5569427244988461  |grad|_K:  9.075e-07  alpha:  1.000e+00
	FillingsUpdate:  mu: -0.094588888  nElectrons: 9.000000  magneticMoment: [ Abs: 0.98000  Tot: -0.98000 ]
LCAOMinimize: Iter:   1  F: -42.5569427250624059  |grad|_K:  1.974e-09  alpha:  1.000e+00  linmin:  1.252e-02  cgtest: -1.407e-01  t[s]:      8.65
LCAOMinimize: 	Wrong curvature in test step, increasing alphaT to 2.999901e+00.
	FillingsUpdate:  mu: -0.094588888  nElectrons: 9.000000  magneticMoment: [ Abs: 0.98000  Tot: -0.98000 ]
LCAOMinimize: Iter:   2  F: -42.5569427250629886  |grad|_K:  2.783e-10  alpha: -4.537e-03  linmin:  2.369e-03  cgtest:  9.536e-02  t[s]:     11.01
LCAOMinimize: Converged (|Delta F|<1.000000e-06 for 2 iters).


---- Citations for features of the code used in this run ----

   Software package:
      R. Sundararaman, K. Letchworth-Weaver, K.A. Schwarz, D. Gunceler, Y. Ozhabes and T.A. Arias, 'JDFTx: software for joint density-functional theory', SoftwareX 6, 278 (2017)

   gga-PBE exchange-correlation functional:
      J.P. Perdew, K. Burke and M. Ernzerhof, Phys. Rev. Lett. 77, 3865 (1996)

   Pseudopotentials:
      M Schlipf and F Gygi, Comput. Phys. Commun. 196, 36 (2015)

   Truncated Coulomb potentials:
      R. Sundararaman and T.A. Arias, Phys. Rev. B 87, 165122 (2013)

This list may not be complete. Please suggest additional citations or
report any other bugs at https://github.com/shankar1729/jdftx/issues

Initialization completed successfully at t[s]:     11.11


-------- Electronic minimization -----------
Will mix electronic density at each iteration.
	FillingsUpdate:  mu: -0.094588888  nElectrons: 9.000000  magneticMoment: [ Abs: 0.98000  Tot: -0.98000 ]
	FillingsUpdate:  mu: -0.094951471  nElectrons: 9.000000  magneticMoment: [ Abs: 0.98000  Tot: -0.98000 ]
SCF: Cycle:  0   F: -42.557238792505714   dF: -2.961e-04   |Residual|: 3.024e-03   |deigs|: 1.607e-01  t[s]:     15.48
	FillingsUpdate:  mu: -0.093000666  nElectrons: 9.000000  magneticMoment: [ Abs: 0.98342  Tot: -0.98000 ]
SCF: Cycle:  1   F: -42.557240126379121   dF: -1.334e-06   |Residual|: 1.115e-03   |deigs|: 1.396e-02  t[s]:     18.88
	FillingsUpdate:  mu: -0.093518197  nElectrons: 9.000000  magneticMoment: [ Abs: 0.98219  Tot: -0.98000 ]
SCF: Cycle:  2   F: -42.557241873375624   dF: -1.747e-06   |Residual|: 7.115e-04   |deigs|: 2.728e-03  t[s]:     22.36
	FillingsUpdate:  mu: -0.094144721  nElectrons: 9.000000  magneticMoment: [ Abs: 0.98277  Tot: -0.98000 ]
SCF: Cycle:  3   F: -42.557242085413712   dF: -2.120e-07   |Residual|: 4.494e-04   |deigs|: 2.069e-03  t[s]:     25.89
	FillingsUpdate:  mu: -0.093645384  nElectrons: 9.000000  magneticMoment: [ Abs: 0.98245  Tot: -0.98000 ]
SCF: Cycle:  4   F: -42.557241056428033   dF: +1.029e-06   |Residual|: 2.737e-04   |deigs|: 1.159e-03  t[s]:     29.50
	FillingsUpdate:  mu: -0.092435072  nElectrons: 9.000000  magneticMoment: [ Abs: 0.98238  Tot: -0.98000 ]
SCF: Cycle:  5   F: -42.557241364460793   dF: -3.080e-07   |Residual|: 1.711e-04   |deigs|: 1.031e-03  t[s]:     33.12
	FillingsUpdate:  mu: -0.092732613  nElectrons: 9.000000  magneticMoment: [ Abs: 0.98251  Tot: -0.98000 ]
SCF: Cycle:  6   F: -42.557242981663698   dF: -1.617e-06   |Residual|: 1.273e-04   |deigs|: 3.942e-04  t[s]:     36.86
	FillingsUpdate:  mu: -0.093156183  nElectrons: 9.000000  magneticMoment: [ Abs: 0.98247  Tot: -0.98000 ]
SCF: Cycle:  7   F: -42.557244035090690   dF: -1.053e-06   |Residual|: 9.928e-05   |deigs|: 4.048e-04  t[s]:     40.59
	FillingsUpdate:  mu: -0.093427249  nElectrons: 9.000000  magneticMoment: [ Abs: 0.98244  Tot: -0.98000 ]
SCF: Cycle:  8   F: -42.557244278222029   dF: -2.431e-07   |Residual|: 7.943e-05   |deigs|: 2.496e-04  t[s]:     44.47
	FillingsUpdate:  mu: -0.093534767  nElectrons: 9.000000  magneticMoment: [ Abs: 0.98246  Tot: -0.98000 ]
SCF: Cycle:  9   F: -42.557244146214337   dF: +1.320e-07   |Residual|: 6.428e-05   |deigs|: 3.327e-04  t[s]:     48.38
	FillingsUpdate:  mu: -0.093538158  nElectrons: 9.000000  magneticMoment: [ Abs: 0.98246  Tot: -0.98000 ]
SCF: Cycle: 10   F: -42.557244136686172   dF: +9.528e-09   |Residual|: 5.722e-05   |deigs|: 1.041e-04  t[s]:     52.33
	FillingsUpdate:  mu: -0.093483346  nElectrons: 9.000000  magneticMoment: [ Abs: 0.98261  Tot: -0.98000 ]
SCF: Cycle: 11   F: -42.557244217496937   dF: -8.081e-08   |Residual|: 4.414e-05   |deigs|: 9.359e-05  t[s]:     56.41
	FillingsUpdate:  mu: -0.093430714  nElectrons: 9.000000  magneticMoment: [ Abs: 0.98273  Tot: -0.98000 ]
SCF: Cycle: 12   F: -42.557244347813594   dF: -1.303e-07   |Residual|: 3.578e-05   |deigs|: 1.006e-04  t[s]:     60.37
	FillingsUpdate:  mu: -0.093346890  nElectrons: 9.000000  magneticMoment: [ Abs: 0.98274  Tot: -0.98000 ]
SCF: Cycle: 13   F: -42.557244377105043   dF: -2.929e-08   |Residual|: 3.470e-05   |deigs|: 1.069e-04  t[s]:     64.27
	FillingsUpdate:  mu: -0.093268132  nElectrons: 9.000000  magneticMoment: [ Abs: 0.98273  Tot: -0.98000 ]
SCF: Cycle: 14   F: -42.557244304346362   dF: +7.276e-08   |Residual|: 3.359e-05   |deigs|: 8.111e-05  t[s]:     68.32
	FillingsUpdate:  mu: -0.093302228  nElectrons: 9.000000  magneticMoment: [ Abs: 0.98272  Tot: -0.98000 ]
SCF: Cycle: 15   F: -42.557244280678596   dF: +2.367e-08   |Residual|: 3.151e-05   |deigs|: 1.034e-04  t[s]:     72.28
	FillingsUpdate:  mu: -0.093321442  nElectrons: 9.000000  magneticMoment: [ Abs: 0.98252  Tot: -0.98000 ]
SCF: Cycle: 16   F: -42.557244545247023   dF: -2.646e-07   |Residual|: 2.559e-05   |deigs|: 2.276e-04  t[s]:     76.26
	FillingsUpdate:  mu: -0.093293606  nElectrons: 9.000000  magneticMoment: [ Abs: 0.98252  Tot: -0.98000 ]
SCF: Cycle: 17   F: -42.557244524349890   dF: +2.090e-08   |Residual|: 1.950e-05   |deigs|: 7.241e-05  t[s]:     80.20
	FillingsUpdate:  mu: -0.093266475  nElectrons: 9.000000  magneticMoment: [ Abs: 0.98254  Tot: -0.98000 ]
SCF: Cycle: 18   F: -42.557244547036603   dF: -2.269e-08   |Residual|: 1.474e-05   |deigs|: 4.881e-05  t[s]:     84.20
	FillingsUpdate:  mu: -0.093256680  nElectrons: 9.000000  magneticMoment: [ Abs: 0.98250  Tot: -0.98000 ]
SCF: Cycle: 19   F: -42.557244547553452   dF: -5.168e-10   |Residual|: 9.647e-06   |deigs|: 2.820e-05  t[s]:     88.17
	FillingsUpdate:  mu: -0.093243440  nElectrons: 9.000000  magneticMoment: [ Abs: 0.98250  Tot: -0.98000 ]
SCF: Cycle: 20   F: -42.557244591474607   dF: -4.392e-08   |Residual|: 5.606e-06   |deigs|: 2.052e-05  t[s]:     92.16
	FillingsUpdate:  mu: -0.093244308  nElectrons: 9.000000  magneticMoment: [ Abs: 0.98250  Tot: -0.98000 ]
SCF: Cycle: 21   F: -42.557244600016951   dF: -8.542e-09   |Residual|: 3.526e-06   |deigs|: 1.163e-05  t[s]:     96.07
	FillingsUpdate:  mu: -0.093246199  nElectrons: 9.000000  magneticMoment: [ Abs: 0.98250  Tot: -0.98000 ]
SCF: Cycle: 22   F: -42.557244607814432   dF: -7.797e-09   |Residual|: 2.213e-06   |deigs|: 1.712e-05  t[s]:    100.00
SCF: Converged (|Delta E|<1.000000e-08 for 2 iters).


# Ionic positions in lattice coordinates:
ion Na   0.000000000000000   0.000000000000000   0.000000000000000 0

# Forces in Lattice coordinates:
force Na   0.000000000000000   0.000000000000000   0.000000000000000 0

# Energy components:
   Eewald =      -12.0320174002217755
       EH =       21.7999219991268269
     Eloc =      -54.8385388685833846
      Enl =      -12.9042106806939909
   Epulay =       -0.0000003132867683
      Exc =       -6.2208419999850175
       KE =       21.6384428474247841
-------------------------------------
     Etot =      -42.5572444162193335
       TS =        0.0000001915950980
-------------------------------------
        F =      -42.5572446078144324

IonicMinimize: Iter:   0  F: -42.557244607814432  |grad|_K:  0.000e+00  t[s]:    100.14
IonicMinimize: Converged (|grad|_K<1.000000e-04).

#--- Lowdin population analysis ---
# oxidation-state Na +0.002
# magnetic-moments Na -0.978

End date and time: Sat Feb  5 22:23:20 2022  (Duration: 0-0:01:40.19)
Done!
