
*************** JDFTx 1.6.0 (git hash 42ebbcc2) ***************

Start date and time: Sat Feb  5 22:21:36 2022
Executable jdftx with command-line: -i Alkali.in
Running on hosts (process indices):  d-3-7-1 (0-18)
Divided in process groups (process indices):  0 (0)  1 (1)  2 (2)  3 (3)  4 (4)  5 (5)  6 (6)  7 (7)  8 (8)  9 (9)  10 (10)  11 (11)  12 (12)  13 (13)  14 (14)  15 (15)  16 (16)  17 (17)  18 (18)
Resource initialization completed at t[s]:      0.00
Run totals: 19 processes, 48 threads, 0 GPUs


Input parsed successfully to the following command list (including defaults):

basis kpoint-dependent
coords-type Lattice
core-overlap-check vector
coulomb-interaction Slab 001
davidson-band-ratio 1.1
dump End None
dump-name $INPUT.$VAR
elec-cutoff 20
elec-eigen-algo Davidson
elec-ex-corr gga-PBE
elec-initial-magnetization -1.000000 yes
elec-smearing Fermi 1e-05
electronic-minimize  \
	dirUpdateScheme      FletcherReeves \
	linminMethod         DirUpdateRecommended \
	nIterations          100 \
	history              15 \
	knormThreshold       0 \
	energyDiffThreshold  1e-08 \
	nEnergyDiff          2 \
	alphaTstart          1 \
	alphaTmin            1e-10 \
	updateTestStepSize   yes \
	alphaTreduceFactor   0.1 \
	alphaTincreaseFactor 3 \
	nAlphaAdjustMax      3 \
	wolfeEnergy          0.0001 \
	wolfeGradient        0.9 \
	fdTest               no
electronic-scf  \
	nIterations	10000 \
	energyDiffThreshold	1e-08 \
	residualThreshold	1e-07 \
	mixFraction	0.5 \
	qMetric	0.8 \
	history	10 \
	nEigSteps	2 \
	eigDiffThreshold	1e-08 \
	mixedVariable	Density \
	qKerker	0.8 \
	qKappa	-1 \
	verbose	no \
	mixFractionMag	1.5
exchange-regularization WignerSeitzTruncated
fluid None
fluid-ex-corr (null) lda-PZ
fluid-gummel-loop 10 1.000000e-05
fluid-minimize  \
	dirUpdateScheme      PolakRibiere \
	linminMethod         DirUpdateRecommended \
	nIterations          100 \
	history              15 \
	knormThreshold       0 \
	energyDiffThreshold  0 \
	nEnergyDiff          2 \
	alphaTstart          1 \
	alphaTmin            1e-10 \
	updateTestStepSize   yes \
	alphaTreduceFactor   0.1 \
	alphaTincreaseFactor 3 \
	nAlphaAdjustMax      3 \
	wolfeEnergy          0.0001 \
	wolfeGradient        0.9 \
	fdTest               no
fluid-solvent H2O 55.338 ScalarEOS \
	epsBulk 78.4 \
	pMol 0.92466 \
	epsInf 1.77 \
	Pvap 1.06736e-10 \
	sigmaBulk 4.62e-05 \
	Rvdw 2.61727 \
	Res 1.42 \
	tauNuc 343133 \
	poleEl 15 7 1
forces-output-coords Positions
ion Na   0.000000000000000   0.000000000000000   0.000000000000000 0
ion-species SG15/$ID_ONCV_PBE.upf
ion-width 0
ionic-minimize  \
	dirUpdateScheme      L-BFGS \
	linminMethod         DirUpdateRecommended \
	nIterations          0 \
	history              15 \
	knormThreshold       0.0001 \
	energyDiffThreshold  1e-06 \
	nEnergyDiff          2 \
	alphaTstart          1 \
	alphaTmin            1e-10 \
	updateTestStepSize   yes \
	alphaTreduceFactor   0.1 \
	alphaTincreaseFactor 3 \
	nAlphaAdjustMax      3 \
	wolfeEnergy          0.0001 \
	wolfeGradient        0.9 \
	fdTest               no
kpoint   0.000000000000   0.000000000000   0.000000000000  1.00000000000000
kpoint-folding 12 12 1 
latt-move-scale 1 1 1
latt-scale 3 3 1 
lattice  \
	   4.727486978767153   -2.363743489383575    0.000000000000000  \
	  -0.000000000000000    4.094123819672498    0.000000000000000  \
	   0.000000000000000    0.000000000000000   40.000000000000000 
lattice-minimize  \
	dirUpdateScheme      L-BFGS \
	linminMethod         DirUpdateRecommended \
	nIterations          0 \
	history              15 \
	knormThreshold       0 \
	energyDiffThreshold  1e-06 \
	nEnergyDiff          2 \
	alphaTstart          1 \
	alphaTmin            1e-10 \
	updateTestStepSize   yes \
	alphaTreduceFactor   0.1 \
	alphaTincreaseFactor 3 \
	nAlphaAdjustMax      3 \
	wolfeEnergy          0.0001 \
	wolfeGradient        0.9 \
	fdTest               no
lcao-params -1 1e-06 1e-05
pcm-variant GLSSA13
spintype z-spin
subspace-rotation-factor 1 yes
symmetries automatic
symmetry-threshold 0.0001



---------- Setting up symmetries ----------

Found 24 point-group symmetries of the bravais lattice
Found 24 space-group symmetries with basis
Applied RMS atom displacement 0 bohrs to make symmetries exact.

---------- Initializing the Grid ----------
R = 
[      14.1825     -7.09123            0  ]
[            0      12.2824            0  ]
[            0            0           40  ]
unit cell volume = 6967.77
G =
[   0.443025   0.255781         -0  ]
[          0   0.511561         -0  ]
[         -0         -0    0.15708  ]
Minimum fftbox size, Smin = [  60  60  164  ]
Chosen fftbox size, S = [  60  60  168  ]

---------- Exchange Correlation functional ----------
Initalized PBE GGA exchange.
Initalized PBE GGA correlation.

---------- Setting up pseudopotentials ----------
Width of ionic core gaussian charges (only for fluid interactions / plotting) set to 0

Reading pseudopotential file '/home/gridsan/aligho/DFT/build-Nov24/pseudopotentials/SG15/Na_ONCV_PBE.upf':
  'Na' pseudopotential, 'PBE' functional
  Generated using ONCVPSP code by D. R. Hamann
  Author: Martin Schlipf and Francois Gygi  Date: 150915.
  9 valence electrons, 3 orbitals, 4 projectors, 1992 radial grid points, with lMax = 1
  Transforming local potential to a uniform radial grid of dG=0.02 with 1489 points.
  Transforming nonlocal projectors to a uniform radial grid of dG=0.02 with 432 points.
    2S    l: 0   occupation:  2.0   eigenvalue: -2.085640
    2P    l: 1   occupation:  6.0   eigenvalue: -1.053708
    3S    l: 0   occupation:  1.0   eigenvalue: -0.100838
  Transforming atomic orbitals to a uniform radial grid of dG=0.02 with 432 points.
  Core radius for overlap checks: 2.01 bohrs.
  Reading pulay file /home/gridsan/aligho/DFT/build-Nov24/pseudopotentials/SG15/Na_ONCV_PBE.pulay ... using dE_dnG = -2.946487e-03 computed for Ecut = 20.

Initialized 1 species with 1 total atoms.

Folded 1 k-points by 12x12x1 to 144 k-points.

---------- Setting up k-points, bands, fillings ----------
Reduced to 19 k-points under symmetry. 
Computing the number of bands and number of electrons
Calculating initial fillings.
nElectrons:   9.000000   nBands: 6   nStates: 38

----- Setting up reduced wavefunction bases (one per k-point) -----
average nbasis = 29766.104 , ideal nbasis = 29766.845

---------- Setting up coulomb interaction ----------
Initialized slab truncation along lattice direction 001

---------- Setting up 2D ewald sum ----------
Optimum gaussian width for ewald sums = 7.873530 bohr.
Real space sums over 289 unit cells with max indices [  8  8  0  ]
Reciprocal space sums over 81 terms with max indices [  4  4  0  ]

---------- Allocating electronic variables ----------
Initializing wave functions:  linear combination of atomic orbitals
Note: number of bands (6) exceeds available atomic orbitals (5)
Na pseudo-atom occupations:   s ( 2 1 )  p ( 6 )
	FillingsUpdate:  mu: -0.100000000  nElectrons: 9.000000  magneticMoment: [ Abs: 1.00000  Tot: -1.00000 ]
LCAOMinimize: Iter:   0  F: -42.5572730847012082  |grad|_K:       -nan  alpha:  1.000e+00
LCAOMinimize: |grad|_K=-nan. Stopping ...


---- Citations for features of the code used in this run ----

   Software package:
      R. Sundararaman, K. Letchworth-Weaver, K.A. Schwarz, D. Gunceler, Y. Ozhabes and T.A. Arias, 'JDFTx: software for joint density-functional theory', SoftwareX 6, 278 (2017)

   gga-PBE exchange-correlation functional:
      J.P. Perdew, K. Burke and M. Ernzerhof, Phys. Rev. Lett. 77, 3865 (1996)

   Pseudopotentials:
      M Schlipf and F Gygi, Comput. Phys. Commun. 196, 36 (2015)

   Truncated Coulomb potentials:
      R. Sundararaman and T.A. Arias, Phys. Rev. B 87, 165122 (2013)

This list may not be complete. Please suggest additional citations or
report any other bugs at https://github.com/shankar1729/jdftx/issues

Initialization completed successfully at t[s]:      6.43


-------- Electronic minimization -----------
Will mix electronic density at each iteration.
	FillingsUpdate:  mu: -0.100000000  nElectrons: 9.000000  magneticMoment: [ Abs: 1.00000  Tot: -1.00000 ]
	FillingsUpdate:  mu: -0.100000000  nElectrons: 9.000000  magneticMoment: [ Abs: 1.00000  Tot: -1.00000 ]
SCF: Cycle:  0   F: -42.557574191929582   dF: -3.011e-04   |Residual|: 3.116e-03   |deigs|: 1.547e-01  t[s]:     10.91
	FillingsUpdate:  mu: -0.100000000  nElectrons: 9.000000  magneticMoment: [ Abs: 1.00363  Tot: -1.00000 ]
SCF: Cycle:  1   F: -42.557577839914238   dF: -3.648e-06   |Residual|: 1.151e-03   |deigs|: 2.160e-02  t[s]:     14.41
	FillingsUpdate:  mu: -0.100000000  nElectrons: 9.000000  magneticMoment: [ Abs: 1.00246  Tot: -1.00000 ]
SCF: Cycle:  2   F: -42.557578663042989   dF: -8.231e-07   |Residual|: 7.378e-04   |deigs|: 3.276e-03  t[s]:     17.98
	FillingsUpdate:  mu: -0.100000000  nElectrons: 9.000000  magneticMoment: [ Abs: 1.00303  Tot: -1.00000 ]
SCF: Cycle:  3   F: -42.557579345051458   dF: -6.820e-07   |Residual|: 4.593e-04   |deigs|: 1.436e-03  t[s]:     21.60
	FillingsUpdate:  mu: -0.100000000  nElectrons: 9.000000  magneticMoment: [ Abs: 1.00266  Tot: -1.00000 ]
SCF: Cycle:  4   F: -42.557579811711676   dF: -4.667e-07   |Residual|: 2.710e-04   |deigs|: 1.099e-03  t[s]:     25.25
	FillingsUpdate:  mu: -0.100000000  nElectrons: 9.000000  magneticMoment: [ Abs: 1.00255  Tot: -1.00000 ]
SCF: Cycle:  5   F: -42.557580111518170   dF: -2.998e-07   |Residual|: 1.722e-04   |deigs|: 6.743e-04  t[s]:     29.10
	FillingsUpdate:  mu: -0.100000000  nElectrons: 9.000000  magneticMoment: [ Abs: 1.00269  Tot: -1.00000 ]
SCF: Cycle:  6   F: -42.557580222048237   dF: -1.105e-07   |Residual|: 1.248e-04   |deigs|: 5.093e-04  t[s]:     32.95
	FillingsUpdate:  mu: -0.100000000  nElectrons: 9.000000  magneticMoment: [ Abs: 1.00261  Tot: -1.00000 ]
SCF: Cycle:  7   F: -42.557580274611922   dF: -5.256e-08   |Residual|: 9.839e-05   |deigs|: 7.914e-04  t[s]:     36.83
	FillingsUpdate:  mu: -0.100000000  nElectrons: 9.000000  magneticMoment: [ Abs: 1.00259  Tot: -1.00000 ]
SCF: Cycle:  8   F: -42.557580318130995   dF: -4.352e-08   |Residual|: 7.973e-05   |deigs|: 5.435e-04  t[s]:     40.81
	FillingsUpdate:  mu: -0.100000000  nElectrons: 9.000000  magneticMoment: [ Abs: 1.00266  Tot: -1.00000 ]
SCF: Cycle:  9   F: -42.557580263580199   dF: +5.455e-08   |Residual|: 7.476e-05   |deigs|: 2.806e-04  t[s]:     44.84
	FillingsUpdate:  mu: -0.100000000  nElectrons: 9.000000  magneticMoment: [ Abs: 1.00265  Tot: -1.00000 ]
SCF: Cycle: 10   F: -42.557580162407163   dF: +1.012e-07   |Residual|: 5.673e-05   |deigs|: 4.686e-04  t[s]:     48.92
	FillingsUpdate:  mu: -0.100000000  nElectrons: 9.000000  magneticMoment: [ Abs: 1.00282  Tot: -1.00000 ]
SCF: Cycle: 11   F: -42.557580217081110   dF: -5.467e-08   |Residual|: 4.201e-05   |deigs|: 1.457e-03  t[s]:     52.98
	FillingsUpdate:  mu: -0.100000000  nElectrons: 9.000000  magneticMoment: [ Abs: 1.00287  Tot: -1.00000 ]
SCF: Cycle: 12   F: -42.557580281959304   dF: -6.488e-08   |Residual|: 3.573e-05   |deigs|: 3.120e-04  t[s]:     57.02
	FillingsUpdate:  mu: -0.100000000  nElectrons: 9.000000  magneticMoment: [ Abs: 1.00297  Tot: -1.00000 ]
SCF: Cycle: 13   F: -42.557580314022722   dF: -3.206e-08   |Residual|: 3.431e-05   |deigs|: 1.116e-04  t[s]:     61.04
	FillingsUpdate:  mu: -0.100000000  nElectrons: 9.000000  magneticMoment: [ Abs: 1.00291  Tot: -1.00000 ]
SCF: Cycle: 14   F: -42.557580314835761   dF: -8.130e-10   |Residual|: 3.290e-05   |deigs|: 4.476e-04  t[s]:     65.14
	FillingsUpdate:  mu: -0.100000000  nElectrons: 9.000000  magneticMoment: [ Abs: 1.00277  Tot: -1.00000 ]
SCF: Cycle: 15   F: -42.557580324504130   dF: -9.668e-09   |Residual|: 2.877e-05   |deigs|: 1.177e-04  t[s]:     69.17
SCF: Converged (|Delta E|<1.000000e-08 for 2 iters).


# Ionic positions in lattice coordinates:
ion Na   0.000000000000000   0.000000000000000   0.000000000000000 0

# Forces in Lattice coordinates:
force Na  -0.000000000000000   0.000000000000000   0.000000000000000 0

# Energy components:
   Eewald =      -12.0320174002217755
       EH =       21.8037321546520282
     Eloc =      -54.8426904093232821
      Enl =      -12.9043366908869253
   Epulay =       -0.0000003132867683
      Exc =       -6.2216553592444805
       KE =       21.6393876938070804
-------------------------------------
     Etot =      -42.5575803245041300
       TS =        0.0000000000000000
-------------------------------------
        F =      -42.5575803245041300

IonicMinimize: Iter:   0  F: -42.557580324504130  |grad|_K:  0.000e+00  t[s]:     69.32
IonicMinimize: Converged (|grad|_K<1.000000e-04).

#--- Lowdin population analysis ---
# oxidation-state Na +0.002
# magnetic-moments Na -0.998

End date and time: Sat Feb  5 22:22:46 2022  (Duration: 0-0:01:09.37)
Done!
