
*************** JDFTx 1.6.0 (git hash 42ebbcc2) ***************

Start date and time: Sat Feb  5 22:21:37 2022
Executable jdftx with command-line: -i Alkali.in
Running on hosts (process indices):  d-16-12-1 (0-18)
Divided in process groups (process indices):  0 (0)  1 (1)  2 (2)  3 (3)  4 (4)  5 (5)  6 (6)  7 (7)  8 (8)  9 (9)  10 (10)  11 (11)  12 (12)  13 (13)  14 (14)  15 (15)  16 (16)  17 (17)  18 (18)
Resource initialization completed at t[s]:      0.00
Run totals: 19 processes, 48 threads, 0 GPUs


Input parsed successfully to the following command list (including defaults):

basis kpoint-dependent
coords-type Lattice
core-overlap-check vector
coulomb-interaction Slab 001
davidson-band-ratio 1.1
dump End None
dump-name $INPUT.$VAR
elec-cutoff 20
elec-eigen-algo Davidson
elec-ex-corr gga-PBE
elec-initial-magnetization -0.640000 yes
elec-smearing Fermi 1e-05
electronic-minimize  \
	dirUpdateScheme      FletcherReeves \
	linminMethod         DirUpdateRecommended \
	nIterations          100 \
	history              15 \
	knormThreshold       0 \
	energyDiffThreshold  1e-08 \
	nEnergyDiff          2 \
	alphaTstart          1 \
	alphaTmin            1e-10 \
	updateTestStepSize   yes \
	alphaTreduceFactor   0.1 \
	alphaTincreaseFactor 3 \
	nAlphaAdjustMax      3 \
	wolfeEnergy          0.0001 \
	wolfeGradient        0.9 \
	fdTest               no
electronic-scf  \
	nIterations	10000 \
	energyDiffThreshold	1e-08 \
	residualThreshold	1e-07 \
	mixFraction	0.5 \
	qMetric	0.8 \
	history	10 \
	nEigSteps	2 \
	eigDiffThreshold	1e-08 \
	mixedVariable	Density \
	qKerker	0.8 \
	qKappa	-1 \
	verbose	no \
	mixFractionMag	1.5
exchange-regularization WignerSeitzTruncated
fluid None
fluid-ex-corr (null) lda-PZ
fluid-gummel-loop 10 1.000000e-05
fluid-minimize  \
	dirUpdateScheme      PolakRibiere \
	linminMethod         DirUpdateRecommended \
	nIterations          100 \
	history              15 \
	knormThreshold       0 \
	energyDiffThreshold  0 \
	nEnergyDiff          2 \
	alphaTstart          1 \
	alphaTmin            1e-10 \
	updateTestStepSize   yes \
	alphaTreduceFactor   0.1 \
	alphaTincreaseFactor 3 \
	nAlphaAdjustMax      3 \
	wolfeEnergy          0.0001 \
	wolfeGradient        0.9 \
	fdTest               no
fluid-solvent H2O 55.338 ScalarEOS \
	epsBulk 78.4 \
	pMol 0.92466 \
	epsInf 1.77 \
	Pvap 1.06736e-10 \
	sigmaBulk 4.62e-05 \
	Rvdw 2.61727 \
	Res 1.42 \
	tauNuc 343133 \
	poleEl 15 7 1
forces-output-coords Positions
ion Na   0.000000000000000   0.000000000000000   0.000000000000000 0
ion-species SG15/$ID_ONCV_PBE.upf
ion-width 0
ionic-minimize  \
	dirUpdateScheme      L-BFGS \
	linminMethod         DirUpdateRecommended \
	nIterations          0 \
	history              15 \
	knormThreshold       0.0001 \
	energyDiffThreshold  1e-06 \
	nEnergyDiff          2 \
	alphaTstart          1 \
	alphaTmin            1e-10 \
	updateTestStepSize   yes \
	alphaTreduceFactor   0.1 \
	alphaTincreaseFactor 3 \
	nAlphaAdjustMax      3 \
	wolfeEnergy          0.0001 \
	wolfeGradient        0.9 \
	fdTest               no
kpoint   0.000000000000   0.000000000000   0.000000000000  1.00000000000000
kpoint-folding 12 12 1 
latt-move-scale 1 1 1
latt-scale 3 3 1 
lattice  \
	   4.727486978767153   -2.363743489383575    0.000000000000000  \
	  -0.000000000000000    4.094123819672498    0.000000000000000  \
	   0.000000000000000    0.000000000000000   40.000000000000000 
lattice-minimize  \
	dirUpdateScheme      L-BFGS \
	linminMethod         DirUpdateRecommended \
	nIterations          0 \
	history              15 \
	knormThreshold       0 \
	energyDiffThreshold  1e-06 \
	nEnergyDiff          2 \
	alphaTstart          1 \
	alphaTmin            1e-10 \
	updateTestStepSize   yes \
	alphaTreduceFactor   0.1 \
	alphaTincreaseFactor 3 \
	nAlphaAdjustMax      3 \
	wolfeEnergy          0.0001 \
	wolfeGradient        0.9 \
	fdTest               no
lcao-params -1 1e-06 1e-05
pcm-variant GLSSA13
spintype z-spin
subspace-rotation-factor 1 yes
symmetries automatic
symmetry-threshold 0.0001



---------- Setting up symmetries ----------

Found 24 point-group symmetries of the bravais lattice
Found 24 space-group symmetries with basis
Applied RMS atom displacement 0 bohrs to make symmetries exact.

---------- Initializing the Grid ----------
R = 
[      14.1825     -7.09123            0  ]
[            0      12.2824            0  ]
[            0            0           40  ]
unit cell volume = 6967.77
G =
[   0.443025   0.255781         -0  ]
[          0   0.511561         -0  ]
[         -0         -0    0.15708  ]
Minimum fftbox size, Smin = [  60  60  164  ]
Chosen fftbox size, S = [  60  60  168  ]

---------- Exchange Correlation functional ----------
Initalized PBE GGA exchange.
Initalized PBE GGA correlation.

---------- Setting up pseudopotentials ----------
Width of ionic core gaussian charges (only for fluid interactions / plotting) set to 0

Reading pseudopotential file '/home/gridsan/aligho/DFT/build-Nov24/pseudopotentials/SG15/Na_ONCV_PBE.upf':
  'Na' pseudopotential, 'PBE' functional
  Generated using ONCVPSP code by D. R. Hamann
  Author: Martin Schlipf and Francois Gygi  Date: 150915.
  9 valence electrons, 3 orbitals, 4 projectors, 1992 radial grid points, with lMax = 1
  Transforming local potential to a uniform radial grid of dG=0.02 with 1489 points.
  Transforming nonlocal projectors to a uniform radial grid of dG=0.02 with 432 points.
    2S    l: 0   occupation:  2.0   eigenvalue: -2.085640
    2P    l: 1   occupation:  6.0   eigenvalue: -1.053708
    3S    l: 0   occupation:  1.0   eigenvalue: -0.100838
  Transforming atomic orbitals to a uniform radial grid of dG=0.02 with 432 points.
  Core radius for overlap checks: 2.01 bohrs.
  Reading pulay file /home/gridsan/aligho/DFT/build-Nov24/pseudopotentials/SG15/Na_ONCV_PBE.pulay ... using dE_dnG = -2.946487e-03 computed for Ecut = 20.

Initialized 1 species with 1 total atoms.

Folded 1 k-points by 12x12x1 to 144 k-points.

---------- Setting up k-points, bands, fillings ----------
Reduced to 19 k-points under symmetry. 
Computing the number of bands and number of electrons
Calculating initial fillings.
nElectrons:   9.000000   nBands: 6   nStates: 38

----- Setting up reduced wavefunction bases (one per k-point) -----
average nbasis = 29766.104 , ideal nbasis = 29766.845

---------- Setting up coulomb interaction ----------
Initialized slab truncation along lattice direction 001

---------- Setting up 2D ewald sum ----------
Optimum gaussian width for ewald sums = 7.873530 bohr.
Real space sums over 289 unit cells with max indices [  8  8  0  ]
Reciprocal space sums over 81 terms with max indices [  4  4  0  ]

---------- Allocating electronic variables ----------
Initializing wave functions:  linear combination of atomic orbitals
Note: number of bands (6) exceeds available atomic orbitals (5)
Na pseudo-atom occupations:   s ( 2 1 )  p ( 6 )
	FillingsUpdate:  mu: -0.102129948  nElectrons: 9.000000  magneticMoment: [ Abs: 0.64000  Tot: -0.64000 ]
LCAOMinimize: Iter:   0  F: -42.5544216733762113  |grad|_K:  5.996e-06  alpha:  1.000e+00
	FillingsUpdate:  mu: -0.102129150  nElectrons: 9.000000  magneticMoment: [ Abs: 0.64000  Tot: -0.64000 ]
LCAOMinimize: Iter:   1  F: -42.5544216978646261  |grad|_K:  2.876e-08  alpha:  9.958e-01  linmin: -1.999e-03  cgtest:  2.592e-01  t[s]:      8.81
LCAOMinimize: Encountered beta<0, resetting CG.
	FillingsUpdate:  mu: -0.102129151  nElectrons: 9.000000  magneticMoment: [ Abs: 0.64000  Tot: -0.64000 ]
LCAOMinimize: Iter:   2  F: -42.5544216978652585  |grad|_K:  2.288e-09  alpha:  9.181e-01  linmin: -3.109e-02  cgtest:  9.986e-01  t[s]:     11.17
LCAOMinimize: Encountered beta<0, resetting CG.
LCAOMinimize: Converged (|Delta F|<1.000000e-06 for 2 iters).


---- Citations for features of the code used in this run ----

   Software package:
      R. Sundararaman, K. Letchworth-Weaver, K.A. Schwarz, D. Gunceler, Y. Ozhabes and T.A. Arias, 'JDFTx: software for joint density-functional theory', SoftwareX 6, 278 (2017)

   gga-PBE exchange-correlation functional:
      J.P. Perdew, K. Burke and M. Ernzerhof, Phys. Rev. Lett. 77, 3865 (1996)

   Pseudopotentials:
      M Schlipf and F Gygi, Comput. Phys. Commun. 196, 36 (2015)

   Truncated Coulomb potentials:
      R. Sundararaman and T.A. Arias, Phys. Rev. B 87, 165122 (2013)

This list may not be complete. Please suggest additional citations or
report any other bugs at https://github.com/shankar1729/jdftx/issues

Initialization completed successfully at t[s]:     11.27


-------- Electronic minimization -----------
Will mix electronic density at each iteration.
	FillingsUpdate:  mu: -0.102129151  nElectrons: 9.000000  magneticMoment: [ Abs: 0.64000  Tot: -0.64000 ]
	FillingsUpdate:  mu: -0.102394496  nElectrons: 9.000000  magneticMoment: [ Abs: 0.64000  Tot: -0.64000 ]
SCF: Cycle:  0   F: -42.554688609499301   dF: -2.669e-04   |Residual|: 2.172e-03   |deigs|: 1.713e-01  t[s]:     15.66
	FillingsUpdate:  mu: -0.102452452  nElectrons: 9.000000  magneticMoment: [ Abs: 0.64137  Tot: -0.64000 ]
SCF: Cycle:  1   F: -42.554692019699068   dF: -3.410e-06   |Residual|: 9.084e-04   |deigs|: 7.232e-03  t[s]:     19.14
	FillingsUpdate:  mu: -0.102431271  nElectrons: 9.000000  magneticMoment: [ Abs: 0.64107  Tot: -0.64000 ]
SCF: Cycle:  2   F: -42.554692697057760   dF: -6.774e-07   |Residual|: 4.641e-04   |deigs|: 2.431e-03  t[s]:     22.69
	FillingsUpdate:  mu: -0.102447963  nElectrons: 9.000000  magneticMoment: [ Abs: 0.64132  Tot: -0.64000 ]
SCF: Cycle:  3   F: -42.554693155539830   dF: -4.585e-07   |Residual|: 2.838e-04   |deigs|: 1.786e-03  t[s]:     26.27
	FillingsUpdate:  mu: -0.102436666  nElectrons: 9.000000  magneticMoment: [ Abs: 0.64119  Tot: -0.64000 ]
SCF: Cycle:  4   F: -42.554693490554740   dF: -3.350e-07   |Residual|: 2.179e-04   |deigs|: 1.046e-03  t[s]:     29.94
	FillingsUpdate:  mu: -0.102421681  nElectrons: 9.000000  magneticMoment: [ Abs: 0.64124  Tot: -0.64000 ]
SCF: Cycle:  5   F: -42.554694015043715   dF: -5.245e-07   |Residual|: 1.373e-04   |deigs|: 8.669e-04  t[s]:     33.68
	FillingsUpdate:  mu: -0.102389908  nElectrons: 9.000000  magneticMoment: [ Abs: 0.64122  Tot: -0.64000 ]
SCF: Cycle:  6   F: -42.554694196212687   dF: -1.812e-07   |Residual|: 9.545e-05   |deigs|: 2.107e-04  t[s]:     37.48
	FillingsUpdate:  mu: -0.102360563  nElectrons: 9.000000  magneticMoment: [ Abs: 0.64125  Tot: -0.64000 ]
SCF: Cycle:  7   F: -42.554694288401393   dF: -9.219e-08   |Residual|: 7.083e-05   |deigs|: 2.311e-04  t[s]:     41.34
	FillingsUpdate:  mu: -0.102330424  nElectrons: 9.000000  magneticMoment: [ Abs: 0.64121  Tot: -0.64000 ]
SCF: Cycle:  8   F: -42.554694336647280   dF: -4.825e-08   |Residual|: 5.815e-05   |deigs|: 4.440e-04  t[s]:     45.30
	FillingsUpdate:  mu: -0.102268101  nElectrons: 9.000000  magneticMoment: [ Abs: 0.64134  Tot: -0.64000 ]
SCF: Cycle:  9   F: -42.554694343977793   dF: -7.331e-09   |Residual|: 4.794e-05   |deigs|: 8.592e-04  t[s]:     49.31
	FillingsUpdate:  mu: -0.102241978  nElectrons: 9.000000  magneticMoment: [ Abs: 0.64129  Tot: -0.64000 ]
SCF: Cycle: 10   F: -42.554694291017938   dF: +5.296e-08   |Residual|: 4.193e-05   |deigs|: 1.922e-04  t[s]:     53.38
	FillingsUpdate:  mu: -0.102187198  nElectrons: 9.000000  magneticMoment: [ Abs: 0.64145  Tot: -0.64000 ]
SCF: Cycle: 11   F: -42.554694142266293   dF: +1.488e-07   |Residual|: 3.501e-05   |deigs|: 1.069e-04  t[s]:     57.39
	FillingsUpdate:  mu: -0.102163508  nElectrons: 9.000000  magneticMoment: [ Abs: 0.64145  Tot: -0.64000 ]
SCF: Cycle: 12   F: -42.554694334199120   dF: -1.919e-07   |Residual|: 2.995e-05   |deigs|: 5.639e-05  t[s]:     61.41
	FillingsUpdate:  mu: -0.102105260  nElectrons: 9.000000  magneticMoment: [ Abs: 0.64150  Tot: -0.64000 ]
SCF: Cycle: 13   F: -42.554694322189505   dF: +1.201e-08   |Residual|: 2.901e-05   |deigs|: 7.357e-05  t[s]:     65.38
	FillingsUpdate:  mu: -0.102008994  nElectrons: 9.000000  magneticMoment: [ Abs: 0.64142  Tot: -0.64000 ]
SCF: Cycle: 14   F: -42.554694289257384   dF: +3.293e-08   |Residual|: 2.814e-05   |deigs|: 1.129e-04  t[s]:     69.49
	FillingsUpdate:  mu: -0.101981163  nElectrons: 9.000000  magneticMoment: [ Abs: 0.64130  Tot: -0.64000 ]
SCF: Cycle: 15   F: -42.554694351499201   dF: -6.224e-08   |Residual|: 2.546e-05   |deigs|: 5.077e-05  t[s]:     73.55
	FillingsUpdate:  mu: -0.101956062  nElectrons: 9.000000  magneticMoment: [ Abs: 0.64129  Tot: -0.64000 ]
SCF: Cycle: 16   F: -42.554694373736844   dF: -2.224e-08   |Residual|: 2.126e-05   |deigs|: 3.468e-05  t[s]:     77.49
	FillingsUpdate:  mu: -0.101897661  nElectrons: 9.000000  magneticMoment: [ Abs: 0.64127  Tot: -0.64000 ]
SCF: Cycle: 17   F: -42.554694387474612   dF: -1.374e-08   |Residual|: 1.881e-05   |deigs|: 5.887e-05  t[s]:     81.45
	FillingsUpdate:  mu: -0.101885556  nElectrons: 9.000000  magneticMoment: [ Abs: 0.64124  Tot: -0.64000 ]
SCF: Cycle: 18   F: -42.554694420672540   dF: -3.320e-08   |Residual|: 1.324e-05   |deigs|: 1.544e-05  t[s]:     85.52
	FillingsUpdate:  mu: -0.101884023  nElectrons: 9.000000  magneticMoment: [ Abs: 0.64123  Tot: -0.64000 ]
SCF: Cycle: 19   F: -42.554694424052400   dF: -3.380e-09   |Residual|: 6.870e-06   |deigs|: 1.050e-05  t[s]:     89.52
	FillingsUpdate:  mu: -0.101884274  nElectrons: 9.000000  magneticMoment: [ Abs: 0.64124  Tot: -0.64000 ]
SCF: Cycle: 20   F: -42.554694427631667   dF: -3.579e-09   |Residual|: 3.612e-06   |deigs|: 4.739e-06  t[s]:     93.73
SCF: Converged (|Delta E|<1.000000e-08 for 2 iters).


# Ionic positions in lattice coordinates:
ion Na   0.000000000000000   0.000000000000000   0.000000000000000 0

# Forces in Lattice coordinates:
force Na   0.000000000000000   0.000000000000000   0.000000000000000 0

# Energy components:
   Eewald =      -12.0320174002217755
       EH =       21.7482979715984968
     Eloc =      -54.7826152927146737
      Enl =      -12.9043227119008375
   Epulay =       -0.0000003132867683
      Exc =       -6.2120876603373079
       KE =       21.6280520301735670
-------------------------------------
     Etot =      -42.5546933766893005
       TS =        0.0000010509423688
-------------------------------------
        F =      -42.5546944276316665

IonicMinimize: Iter:   0  F: -42.554694427631667  |grad|_K:  0.000e+00  t[s]:     93.88
IonicMinimize: Converged (|grad|_K<1.000000e-04).

#--- Lowdin population analysis ---
# oxidation-state Na +0.003
# magnetic-moments Na -0.638

End date and time: Sat Feb  5 22:23:11 2022  (Duration: 0-0:01:33.93)
Done!
