
*************** JDFTx 1.6.0 (git hash 42ebbcc2) ***************

Start date and time: Sat Feb  5 22:21:33 2022
Executable jdftx with command-line: -i Alkali.in
Running on hosts (process indices):  d-17-1-1 (0-18)
Divided in process groups (process indices):  0 (0)  1 (1)  2 (2)  3 (3)  4 (4)  5 (5)  6 (6)  7 (7)  8 (8)  9 (9)  10 (10)  11 (11)  12 (12)  13 (13)  14 (14)  15 (15)  16 (16)  17 (17)  18 (18)
Resource initialization completed at t[s]:      0.00
Run totals: 19 processes, 48 threads, 0 GPUs


Input parsed successfully to the following command list (including defaults):

basis kpoint-dependent
coords-type Lattice
core-overlap-check vector
coulomb-interaction Slab 001
davidson-band-ratio 1.1
dump End None
dump-name $INPUT.$VAR
elec-cutoff 20
elec-eigen-algo Davidson
elec-ex-corr gga-PBE
elec-initial-magnetization -0.580000 yes
elec-smearing Fermi 1e-05
electronic-minimize  \
	dirUpdateScheme      FletcherReeves \
	linminMethod         DirUpdateRecommended \
	nIterations          100 \
	history              15 \
	knormThreshold       0 \
	energyDiffThreshold  1e-08 \
	nEnergyDiff          2 \
	alphaTstart          1 \
	alphaTmin            1e-10 \
	updateTestStepSize   yes \
	alphaTreduceFactor   0.1 \
	alphaTincreaseFactor 3 \
	nAlphaAdjustMax      3 \
	wolfeEnergy          0.0001 \
	wolfeGradient        0.9 \
	fdTest               no
electronic-scf  \
	nIterations	10000 \
	energyDiffThreshold	1e-08 \
	residualThreshold	1e-07 \
	mixFraction	0.5 \
	qMetric	0.8 \
	history	10 \
	nEigSteps	2 \
	eigDiffThreshold	1e-08 \
	mixedVariable	Density \
	qKerker	0.8 \
	qKappa	-1 \
	verbose	no \
	mixFractionMag	1.5
exchange-regularization WignerSeitzTruncated
fluid None
fluid-ex-corr (null) lda-PZ
fluid-gummel-loop 10 1.000000e-05
fluid-minimize  \
	dirUpdateScheme      PolakRibiere \
	linminMethod         DirUpdateRecommended \
	nIterations          100 \
	history              15 \
	knormThreshold       0 \
	energyDiffThreshold  0 \
	nEnergyDiff          2 \
	alphaTstart          1 \
	alphaTmin            1e-10 \
	updateTestStepSize   yes \
	alphaTreduceFactor   0.1 \
	alphaTincreaseFactor 3 \
	nAlphaAdjustMax      3 \
	wolfeEnergy          0.0001 \
	wolfeGradient        0.9 \
	fdTest               no
fluid-solvent H2O 55.338 ScalarEOS \
	epsBulk 78.4 \
	pMol 0.92466 \
	epsInf 1.77 \
	Pvap 1.06736e-10 \
	sigmaBulk 4.62e-05 \
	Rvdw 2.61727 \
	Res 1.42 \
	tauNuc 343133 \
	poleEl 15 7 1
forces-output-coords Positions
ion Na   0.000000000000000   0.000000000000000   0.000000000000000 0
ion-species SG15/$ID_ONCV_PBE.upf
ion-width 0
ionic-minimize  \
	dirUpdateScheme      L-BFGS \
	linminMethod         DirUpdateRecommended \
	nIterations          0 \
	history              15 \
	knormThreshold       0.0001 \
	energyDiffThreshold  1e-06 \
	nEnergyDiff          2 \
	alphaTstart          1 \
	alphaTmin            1e-10 \
	updateTestStepSize   yes \
	alphaTreduceFactor   0.1 \
	alphaTincreaseFactor 3 \
	nAlphaAdjustMax      3 \
	wolfeEnergy          0.0001 \
	wolfeGradient        0.9 \
	fdTest               no
kpoint   0.000000000000   0.000000000000   0.000000000000  1.00000000000000
kpoint-folding 12 12 1 
latt-move-scale 1 1 1
latt-scale 3 3 1 
lattice  \
	   4.727486978767153   -2.363743489383575    0.000000000000000  \
	  -0.000000000000000    4.094123819672498    0.000000000000000  \
	   0.000000000000000    0.000000000000000   40.000000000000000 
lattice-minimize  \
	dirUpdateScheme      L-BFGS \
	linminMethod         DirUpdateRecommended \
	nIterations          0 \
	history              15 \
	knormThreshold       0 \
	energyDiffThreshold  1e-06 \
	nEnergyDiff          2 \
	alphaTstart          1 \
	alphaTmin            1e-10 \
	updateTestStepSize   yes \
	alphaTreduceFactor   0.1 \
	alphaTincreaseFactor 3 \
	nAlphaAdjustMax      3 \
	wolfeEnergy          0.0001 \
	wolfeGradient        0.9 \
	fdTest               no
lcao-params -1 1e-06 1e-05
pcm-variant GLSSA13
spintype z-spin
subspace-rotation-factor 1 yes
symmetries automatic
symmetry-threshold 0.0001



---------- Setting up symmetries ----------

Found 24 point-group symmetries of the bravais lattice
Found 24 space-group symmetries with basis
Applied RMS atom displacement 0 bohrs to make symmetries exact.

---------- Initializing the Grid ----------
R = 
[      14.1825     -7.09123            0  ]
[            0      12.2824            0  ]
[            0            0           40  ]
unit cell volume = 6967.77
G =
[   0.443025   0.255781         -0  ]
[          0   0.511561         -0  ]
[         -0         -0    0.15708  ]
Minimum fftbox size, Smin = [  60  60  164  ]
Chosen fftbox size, S = [  60  60  168  ]

---------- Exchange Correlation functional ----------
Initalized PBE GGA exchange.
Initalized PBE GGA correlation.

---------- Setting up pseudopotentials ----------
Width of ionic core gaussian charges (only for fluid interactions / plotting) set to 0

Reading pseudopotential file '/home/gridsan/aligho/DFT/build-Nov24/pseudopotentials/SG15/Na_ONCV_PBE.upf':
  'Na' pseudopotential, 'PBE' functional
  Generated using ONCVPSP code by D. R. Hamann
  Author: Martin Schlipf and Francois Gygi  Date: 150915.
  9 valence electrons, 3 orbitals, 4 projectors, 1992 radial grid points, with lMax = 1
  Transforming local potential to a uniform radial grid of dG=0.02 with 1489 points.
  Transforming nonlocal projectors to a uniform radial grid of dG=0.02 with 432 points.
    2S    l: 0   occupation:  2.0   eigenvalue: -2.085640
    2P    l: 1   occupation:  6.0   eigenvalue: -1.053708
    3S    l: 0   occupation:  1.0   eigenvalue: -0.100838
  Transforming atomic orbitals to a uniform radial grid of dG=0.02 with 432 points.
  Core radius for overlap checks: 2.01 bohrs.
  Reading pulay file /home/gridsan/aligho/DFT/build-Nov24/pseudopotentials/SG15/Na_ONCV_PBE.pulay ... using dE_dnG = -2.946487e-03 computed for Ecut = 20.

Initialized 1 species with 1 total atoms.

Folded 1 k-points by 12x12x1 to 144 k-points.

---------- Setting up k-points, bands, fillings ----------
Reduced to 19 k-points under symmetry. 
Computing the number of bands and number of electrons
Calculating initial fillings.
nElectrons:   9.000000   nBands: 6   nStates: 38

----- Setting up reduced wavefunction bases (one per k-point) -----
average nbasis = 29766.104 , ideal nbasis = 29766.845

---------- Setting up coulomb interaction ----------
Initialized slab truncation along lattice direction 001

---------- Setting up 2D ewald sum ----------
Optimum gaussian width for ewald sums = 7.873530 bohr.
Real space sums over 289 unit cells with max indices [  8  8  0  ]
Reciprocal space sums over 81 terms with max indices [  4  4  0  ]

---------- Allocating electronic variables ----------
Initializing wave functions:  linear combination of atomic orbitals
Note: number of bands (6) exceeds available atomic orbitals (5)
Na pseudo-atom occupations:   s ( 2 1 )  p ( 6 )
	FillingsUpdate:  mu: -0.102457451  nElectrons: 9.000000  magneticMoment: [ Abs: 0.58000  Tot: -0.58000 ]
LCAOMinimize: Iter:   0  F: -42.5541299978638108  |grad|_K:  6.414e-06  alpha:  1.000e+00
	FillingsUpdate:  mu: -0.102456570  nElectrons: 9.000000  magneticMoment: [ Abs: 0.58000  Tot: -0.58000 ]
LCAOMinimize: Iter:   1  F: -42.5541300258588535  |grad|_K:  3.220e-08  alpha:  9.950e-01  linmin: -2.498e-03  cgtest:  3.399e-01  t[s]:      8.45
LCAOMinimize: Encountered beta<0, resetting CG.
LCAOMinimize: 	Step increased F by 4.973799e-14, reducing alpha to 6.176799e-02.
LCAOMinimize: 	Step increased F by 5.471179e-13, reducing alpha to 6.176799e-03.
LCAOMinimize: 	Step increased F by 3.836931e-13, reducing alpha to 6.176799e-04.
LCAOMinimize: 	Step failed to reduce F after 3 attempts. Quitting step.
LCAOMinimize: 	Undoing step.
LCAOMinimize: 	Step failed along negative gradient direction.
LCAOMinimize: Probably at roundoff error limit. (Stopping)


---- Citations for features of the code used in this run ----

   Software package:
      R. Sundararaman, K. Letchworth-Weaver, K.A. Schwarz, D. Gunceler, Y. Ozhabes and T.A. Arias, 'JDFTx: software for joint density-functional theory', SoftwareX 6, 278 (2017)

   gga-PBE exchange-correlation functional:
      J.P. Perdew, K. Burke and M. Ernzerhof, Phys. Rev. Lett. 77, 3865 (1996)

   Pseudopotentials:
      M Schlipf and F Gygi, Comput. Phys. Commun. 196, 36 (2015)

   Truncated Coulomb potentials:
      R. Sundararaman and T.A. Arias, Phys. Rev. B 87, 165122 (2013)

This list may not be complete. Please suggest additional citations or
report any other bugs at https://github.com/shankar1729/jdftx/issues

Initialization completed successfully at t[s]:     14.86


-------- Electronic minimization -----------
Will mix electronic density at each iteration.
	FillingsUpdate:  mu: -0.102456570  nElectrons: 9.000000  magneticMoment: [ Abs: 0.58000  Tot: -0.58000 ]
	FillingsUpdate:  mu: -0.102716609  nElectrons: 9.000000  magneticMoment: [ Abs: 0.58000  Tot: -0.58000 ]
SCF: Cycle:  0   F: -42.554404410572197   dF: -2.744e-04   |Residual|: 2.117e-03   |deigs|: 1.720e-01  t[s]:     19.16
	FillingsUpdate:  mu: -0.102778428  nElectrons: 9.000000  magneticMoment: [ Abs: 0.58116  Tot: -0.58000 ]
SCF: Cycle:  1   F: -42.554408163691242   dF: -3.753e-06   |Residual|: 9.451e-04   |deigs|: 6.669e-03  t[s]:     22.55
	FillingsUpdate:  mu: -0.102790324  nElectrons: 9.000000  magneticMoment: [ Abs: 0.58093  Tot: -0.58000 ]
SCF: Cycle:  2   F: -42.554408957875573   dF: -7.942e-07   |Residual|: 4.953e-04   |deigs|: 2.570e-03  t[s]:     25.89
	FillingsUpdate:  mu: -0.102832755  nElectrons: 9.000000  magneticMoment: [ Abs: 0.58116  Tot: -0.58000 ]
SCF: Cycle:  3   F: -42.554409553647751   dF: -5.958e-07   |Residual|: 3.244e-04   |deigs|: 1.851e-03  t[s]:     29.42
	FillingsUpdate:  mu: -0.102846713  nElectrons: 9.000000  magneticMoment: [ Abs: 0.58102  Tot: -0.58000 ]
SCF: Cycle:  4   F: -42.554410102248220   dF: -5.486e-07   |Residual|: 2.384e-04   |deigs|: 9.358e-04  t[s]:     32.94
	FillingsUpdate:  mu: -0.102881666  nElectrons: 9.000000  magneticMoment: [ Abs: 0.58110  Tot: -0.58000 ]
SCF: Cycle:  5   F: -42.554410813087458   dF: -7.108e-07   |Residual|: 1.378e-04   |deigs|: 9.376e-04  t[s]:     36.52
	FillingsUpdate:  mu: -0.102863497  nElectrons: 9.000000  magneticMoment: [ Abs: 0.58107  Tot: -0.58000 ]
SCF: Cycle:  6   F: -42.554411029233449   dF: -2.161e-07   |Residual|: 9.199e-05   |deigs|: 2.858e-04  t[s]:     40.24
	FillingsUpdate:  mu: -0.102841713  nElectrons: 9.000000  magneticMoment: [ Abs: 0.58111  Tot: -0.58000 ]
SCF: Cycle:  7   F: -42.554411127937797   dF: -9.870e-08   |Residual|: 6.791e-05   |deigs|: 2.215e-04  t[s]:     43.98
	FillingsUpdate:  mu: -0.102805114  nElectrons: 9.000000  magneticMoment: [ Abs: 0.58106  Tot: -0.58000 ]
SCF: Cycle:  8   F: -42.554411178587920   dF: -5.065e-08   |Residual|: 5.529e-05   |deigs|: 6.717e-04  t[s]:     47.71
	FillingsUpdate:  mu: -0.102737391  nElectrons: 9.000000  magneticMoment: [ Abs: 0.58116  Tot: -0.58000 ]
SCF: Cycle:  9   F: -42.554411193174708   dF: -1.459e-08   |Residual|: 4.685e-05   |deigs|: 7.439e-04  t[s]:     51.58
	FillingsUpdate:  mu: -0.102707814  nElectrons: 9.000000  magneticMoment: [ Abs: 0.58112  Tot: -0.58000 ]
SCF: Cycle: 10   F: -42.554411184223660   dF: +8.951e-09   |Residual|: 4.126e-05   |deigs|: 1.726e-04  t[s]:     55.51
	FillingsUpdate:  mu: -0.102643746  nElectrons: 9.000000  magneticMoment: [ Abs: 0.58129  Tot: -0.58000 ]
SCF: Cycle: 11   F: -42.554411093024157   dF: +9.120e-08   |Residual|: 3.377e-05   |deigs|: 1.124e-04  t[s]:     59.40
	FillingsUpdate:  mu: -0.102616931  nElectrons: 9.000000  magneticMoment: [ Abs: 0.58130  Tot: -0.58000 ]
SCF: Cycle: 12   F: -42.554411173825336   dF: -8.080e-08   |Residual|: 2.887e-05   |deigs|: 5.083e-05  t[s]:     63.28
	FillingsUpdate:  mu: -0.102568334  nElectrons: 9.000000  magneticMoment: [ Abs: 0.58130  Tot: -0.58000 ]
SCF: Cycle: 13   F: -42.554411160758676   dF: +1.307e-08   |Residual|: 2.756e-05   |deigs|: 6.273e-05  t[s]:     67.11
	FillingsUpdate:  mu: -0.102490122  nElectrons: 9.000000  magneticMoment: [ Abs: 0.58120  Tot: -0.58000 ]
SCF: Cycle: 14   F: -42.554411149600377   dF: +1.116e-08   |Residual|: 2.655e-05   |deigs|: 9.075e-05  t[s]:     71.03
	FillingsUpdate:  mu: -0.102464486  nElectrons: 9.000000  magneticMoment: [ Abs: 0.58113  Tot: -0.58000 ]
SCF: Cycle: 15   F: -42.554411188554795   dF: -3.895e-08   |Residual|: 2.431e-05   |deigs|: 4.329e-05  t[s]:     74.96
	FillingsUpdate:  mu: -0.102423693  nElectrons: 9.000000  magneticMoment: [ Abs: 0.58114  Tot: -0.58000 ]
SCF: Cycle: 16   F: -42.554411210651274   dF: -2.210e-08   |Residual|: 2.089e-05   |deigs|: 4.513e-05  t[s]:     78.92
	FillingsUpdate:  mu: -0.102376488  nElectrons: 9.000000  magneticMoment: [ Abs: 0.58111  Tot: -0.58000 ]
SCF: Cycle: 17   F: -42.554411227738228   dF: -1.709e-08   |Residual|: 1.730e-05   |deigs|: 4.985e-05  t[s]:     82.81
	FillingsUpdate:  mu: -0.102372063  nElectrons: 9.000000  magneticMoment: [ Abs: 0.58109  Tot: -0.58000 ]
SCF: Cycle: 18   F: -42.554411251675269   dF: -2.394e-08   |Residual|: 1.061e-05   |deigs|: 1.467e-05  t[s]:     86.59
	FillingsUpdate:  mu: -0.102364045  nElectrons: 9.000000  magneticMoment: [ Abs: 0.58109  Tot: -0.58000 ]
SCF: Cycle: 19   F: -42.554411255624686   dF: -3.949e-09   |Residual|: 5.806e-06   |deigs|: 6.208e-06  t[s]:     90.39
	FillingsUpdate:  mu: -0.102362433  nElectrons: 9.000000  magneticMoment: [ Abs: 0.58109  Tot: -0.58000 ]
SCF: Cycle: 20   F: -42.554411259118815   dF: -3.494e-09   |Residual|: 3.176e-06   |deigs|: 2.816e-06  t[s]:     94.27
SCF: Converged (|Delta E|<1.000000e-08 for 2 iters).


# Ionic positions in lattice coordinates:
ion Na   0.000000000000000   0.000000000000000   0.000000000000000 0

# Forces in Lattice coordinates:
force Na  -0.000000000000000   0.000000000000000   0.000000000000000 0

# Energy components:
   Eewald =      -12.0320174002217755
       EH =       21.7406440227791329
     Eloc =      -54.7743324668703337
      Enl =      -12.9043687919432717
   Epulay =       -0.0000003132867683
      Exc =       -6.2109352315054345
       KE =       21.6265996824450362
-------------------------------------
     Etot =      -42.5544104986034171
       TS =        0.0000007605154012
-------------------------------------
        F =      -42.5544112591188153

IonicMinimize: Iter:   0  F: -42.554411259118815  |grad|_K:  0.000e+00  t[s]:     94.41
IonicMinimize: Converged (|grad|_K<1.000000e-04).

#--- Lowdin population analysis ---
# oxidation-state Na +0.003
# magnetic-moments Na -0.578

End date and time: Sat Feb  5 22:23:07 2022  (Duration: 0-0:01:34.46)
Done!
