
*************** JDFTx 1.6.0 (git hash 42ebbcc2) ***************

Start date and time: Sat Feb  5 22:31:23 2022
Executable jdftx with command-line: -i Alkali.in
Running on hosts (process indices):  d-3-11-1 (0-18)
Divided in process groups (process indices):  0 (0)  1 (1)  2 (2)  3 (3)  4 (4)  5 (5)  6 (6)  7 (7)  8 (8)  9 (9)  10 (10)  11 (11)  12 (12)  13 (13)  14 (14)  15 (15)  16 (16)  17 (17)  18 (18)
Resource initialization completed at t[s]:      0.00
Run totals: 19 processes, 48 threads, 0 GPUs


Input parsed successfully to the following command list (including defaults):

basis kpoint-dependent
coords-type Lattice
core-overlap-check vector
coulomb-interaction Slab 001
davidson-band-ratio 1.1
dump End None
dump-name $INPUT.$VAR
elec-cutoff 20
elec-eigen-algo Davidson
elec-ex-corr gga-PBE
elec-initial-magnetization 0.220000 yes
elec-smearing Fermi 1e-05
electronic-minimize  \
	dirUpdateScheme      FletcherReeves \
	linminMethod         DirUpdateRecommended \
	nIterations          100 \
	history              15 \
	knormThreshold       0 \
	energyDiffThreshold  1e-08 \
	nEnergyDiff          2 \
	alphaTstart          1 \
	alphaTmin            1e-10 \
	updateTestStepSize   yes \
	alphaTreduceFactor   0.1 \
	alphaTincreaseFactor 3 \
	nAlphaAdjustMax      3 \
	wolfeEnergy          0.0001 \
	wolfeGradient        0.9 \
	fdTest               no
electronic-scf  \
	nIterations	10000 \
	energyDiffThreshold	1e-08 \
	residualThreshold	1e-07 \
	mixFraction	0.5 \
	qMetric	0.8 \
	history	10 \
	nEigSteps	2 \
	eigDiffThreshold	1e-08 \
	mixedVariable	Density \
	qKerker	0.8 \
	qKappa	-1 \
	verbose	no \
	mixFractionMag	1.5
exchange-regularization WignerSeitzTruncated
fluid None
fluid-ex-corr (null) lda-PZ
fluid-gummel-loop 10 1.000000e-05
fluid-minimize  \
	dirUpdateScheme      PolakRibiere \
	linminMethod         DirUpdateRecommended \
	nIterations          100 \
	history              15 \
	knormThreshold       0 \
	energyDiffThreshold  0 \
	nEnergyDiff          2 \
	alphaTstart          1 \
	alphaTmin            1e-10 \
	updateTestStepSize   yes \
	alphaTreduceFactor   0.1 \
	alphaTincreaseFactor 3 \
	nAlphaAdjustMax      3 \
	wolfeEnergy          0.0001 \
	wolfeGradient        0.9 \
	fdTest               no
fluid-solvent H2O 55.338 ScalarEOS \
	epsBulk 78.4 \
	pMol 0.92466 \
	epsInf 1.77 \
	Pvap 1.06736e-10 \
	sigmaBulk 4.62e-05 \
	Rvdw 2.61727 \
	Res 1.42 \
	tauNuc 343133 \
	poleEl 15 7 1
forces-output-coords Positions
ion Na   0.000000000000000   0.000000000000000   0.000000000000000 0
ion-species SG15/$ID_ONCV_PBE.upf
ion-width 0
ionic-minimize  \
	dirUpdateScheme      L-BFGS \
	linminMethod         DirUpdateRecommended \
	nIterations          0 \
	history              15 \
	knormThreshold       0.0001 \
	energyDiffThreshold  1e-06 \
	nEnergyDiff          2 \
	alphaTstart          1 \
	alphaTmin            1e-10 \
	updateTestStepSize   yes \
	alphaTreduceFactor   0.1 \
	alphaTincreaseFactor 3 \
	nAlphaAdjustMax      3 \
	wolfeEnergy          0.0001 \
	wolfeGradient        0.9 \
	fdTest               no
kpoint   0.000000000000   0.000000000000   0.000000000000  1.00000000000000
kpoint-folding 12 12 1 
latt-move-scale 1 1 1
latt-scale 3 3 1 
lattice  \
	   4.727486978767153   -2.363743489383575    0.000000000000000  \
	  -0.000000000000000    4.094123819672498    0.000000000000000  \
	   0.000000000000000    0.000000000000000   40.000000000000000 
lattice-minimize  \
	dirUpdateScheme      L-BFGS \
	linminMethod         DirUpdateRecommended \
	nIterations          0 \
	history              15 \
	knormThreshold       0 \
	energyDiffThreshold  1e-06 \
	nEnergyDiff          2 \
	alphaTstart          1 \
	alphaTmin            1e-10 \
	updateTestStepSize   yes \
	alphaTreduceFactor   0.1 \
	alphaTincreaseFactor 3 \
	nAlphaAdjustMax      3 \
	wolfeEnergy          0.0001 \
	wolfeGradient        0.9 \
	fdTest               no
lcao-params -1 1e-06 1e-05
pcm-variant GLSSA13
spintype z-spin
subspace-rotation-factor 1 yes
symmetries automatic
symmetry-threshold 0.0001



---------- Setting up symmetries ----------

Found 24 point-group symmetries of the bravais lattice
Found 24 space-group symmetries with basis
Applied RMS atom displacement 0 bohrs to make symmetries exact.

---------- Initializing the Grid ----------
R = 
[      14.1825     -7.09123            0  ]
[            0      12.2824            0  ]
[            0            0           40  ]
unit cell volume = 6967.77
G =
[   0.443025   0.255781         -0  ]
[          0   0.511561         -0  ]
[         -0         -0    0.15708  ]
Minimum fftbox size, Smin = [  60  60  164  ]
Chosen fftbox size, S = [  60  60  168  ]

---------- Exchange Correlation functional ----------
Initalized PBE GGA exchange.
Initalized PBE GGA correlation.

---------- Setting up pseudopotentials ----------
Width of ionic core gaussian charges (only for fluid interactions / plotting) set to 0

Reading pseudopotential file '/home/gridsan/aligho/DFT/build-Nov24/pseudopotentials/SG15/Na_ONCV_PBE.upf':
  'Na' pseudopotential, 'PBE' functional
  Generated using ONCVPSP code by D. R. Hamann
  Author: Martin Schlipf and Francois Gygi  Date: 150915.
  9 valence electrons, 3 orbitals, 4 projectors, 1992 radial grid points, with lMax = 1
  Transforming local potential to a uniform radial grid of dG=0.02 with 1489 points.
  Transforming nonlocal projectors to a uniform radial grid of dG=0.02 with 432 points.
    2S    l: 0   occupation:  2.0   eigenvalue: -2.085640
    2P    l: 1   occupation:  6.0   eigenvalue: -1.053708
    3S    l: 0   occupation:  1.0   eigenvalue: -0.100838
  Transforming atomic orbitals to a uniform radial grid of dG=0.02 with 432 points.
  Core radius for overlap checks: 2.01 bohrs.
  Reading pulay file /home/gridsan/aligho/DFT/build-Nov24/pseudopotentials/SG15/Na_ONCV_PBE.pulay ... using dE_dnG = -2.946487e-03 computed for Ecut = 20.

Initialized 1 species with 1 total atoms.

Folded 1 k-points by 12x12x1 to 144 k-points.

---------- Setting up k-points, bands, fillings ----------
Reduced to 19 k-points under symmetry. 
Computing the number of bands and number of electrons
Calculating initial fillings.
nElectrons:   9.000000   nBands: 6   nStates: 38

----- Setting up reduced wavefunction bases (one per k-point) -----
average nbasis = 29766.104 , ideal nbasis = 29766.845

---------- Setting up coulomb interaction ----------
Initialized slab truncation along lattice direction 001

---------- Setting up 2D ewald sum ----------
Optimum gaussian width for ewald sums = 7.873530 bohr.
Real space sums over 289 unit cells with max indices [  8  8  0  ]
Reciprocal space sums over 81 terms with max indices [  4  4  0  ]

---------- Allocating electronic variables ----------
Initializing wave functions:  linear combination of atomic orbitals
Note: number of bands (6) exceeds available atomic orbitals (5)
Na pseudo-atom occupations:   s ( 2 1 )  p ( 6 )
	FillingsUpdate:  mu: -0.101990910  nElectrons: 9.000000  magneticMoment: [ Abs: 0.22000  Tot: +0.22000 ]
LCAOMinimize: Iter:   0  F: -42.5530185119499365  |grad|_K:  8.661e-06  alpha:  1.000e+00
	FillingsUpdate:  mu: -0.101989025  nElectrons: 9.000000  magneticMoment: [ Abs: 0.22000  Tot: +0.22000 ]
LCAOMinimize: Iter:   1  F: -42.5530185629192275  |grad|_K:  4.795e-08  alpha:  9.934e-01  linmin: -7.268e-03  cgtest:  4.112e-01  t[s]:      8.85
LCAOMinimize: Encountered beta<0, resetting CG.
	FillingsUpdate:  mu: -0.101989020  nElectrons: 9.000000  magneticMoment: [ Abs: 0.22000  Tot: +0.22000 ]
LCAOMinimize: Iter:   2  F: -42.5530185629210536  |grad|_K:  8.417e-09  alpha:  1.175e+00  linmin:  3.134e-02  cgtest: -9.997e-01  t[s]:     11.27
LCAOMinimize: Converged (|Delta F|<1.000000e-06 for 2 iters).


---- Citations for features of the code used in this run ----

   Software package:
      R. Sundararaman, K. Letchworth-Weaver, K.A. Schwarz, D. Gunceler, Y. Ozhabes and T.A. Arias, 'JDFTx: software for joint density-functional theory', SoftwareX 6, 278 (2017)

   gga-PBE exchange-correlation functional:
      J.P. Perdew, K. Burke and M. Ernzerhof, Phys. Rev. Lett. 77, 3865 (1996)

   Pseudopotentials:
      M Schlipf and F Gygi, Comput. Phys. Commun. 196, 36 (2015)

   Truncated Coulomb potentials:
      R. Sundararaman and T.A. Arias, Phys. Rev. B 87, 165122 (2013)

This list may not be complete. Please suggest additional citations or
report any other bugs at https://github.com/shankar1729/jdftx/issues

Initialization completed successfully at t[s]:     11.38


-------- Electronic minimization -----------
Will mix electronic density at each iteration.
	FillingsUpdate:  mu: -0.101989020  nElectrons: 9.000000  magneticMoment: [ Abs: 0.22000  Tot: +0.22000 ]
	FillingsUpdate:  mu: -0.102302891  nElectrons: 9.000000  magneticMoment: [ Abs: 0.22000  Tot: +0.22000 ]
SCF: Cycle:  0   F: -42.553361403692605   dF: -3.428e-04   |Residual|: 2.104e-03   |deigs|: 1.738e-01  t[s]:     15.86
	FillingsUpdate:  mu: -0.102428371  nElectrons: 9.000000  magneticMoment: [ Abs: 0.22036  Tot: +0.22000 ]
SCF: Cycle:  1   F: -42.553367578105686   dF: -6.174e-06   |Residual|: 1.285e-03   |deigs|: 5.257e-03  t[s]:     19.35
	FillingsUpdate:  mu: -0.102624685  nElectrons: 9.000000  magneticMoment: [ Abs: 0.22030  Tot: +0.22000 ]
SCF: Cycle:  2   F: -42.553370333575302   dF: -2.755e-06   |Residual|: 7.285e-04   |deigs|: 2.713e-03  t[s]:     22.87
	FillingsUpdate:  mu: -0.102735891  nElectrons: 9.000000  magneticMoment: [ Abs: 0.22044  Tot: +0.22000 ]
SCF: Cycle:  3   F: -42.553371837932481   dF: -1.504e-06   |Residual|: 5.648e-04   |deigs|: 1.524e-03  t[s]:     26.45
	FillingsUpdate:  mu: -0.102971003  nElectrons: 9.000000  magneticMoment: [ Abs: 0.22030  Tot: +0.22000 ]
SCF: Cycle:  4   F: -42.553374493160554   dF: -2.655e-06   |Residual|: 2.547e-04   |deigs|: 1.698e-03  t[s]:     30.16
	FillingsUpdate:  mu: -0.103010298  nElectrons: 9.000000  magneticMoment: [ Abs: 0.22044  Tot: +0.22000 ]
SCF: Cycle:  5   F: -42.553374941968393   dF: -4.488e-07   |Residual|: 1.623e-04   |deigs|: 1.036e-03  t[s]:     33.86
	FillingsUpdate:  mu: -0.102991881  nElectrons: 9.000000  magneticMoment: [ Abs: 0.22034  Tot: +0.22000 ]
SCF: Cycle:  6   F: -42.553375296602212   dF: -3.546e-07   |Residual|: 1.023e-04   |deigs|: 1.107e-03  t[s]:     37.62
	FillingsUpdate:  mu: -0.102971310  nElectrons: 9.000000  magneticMoment: [ Abs: 0.22040  Tot: +0.22000 ]
SCF: Cycle:  7   F: -42.553375400048196   dF: -1.034e-07   |Residual|: 7.241e-05   |deigs|: 1.061e-03  t[s]:     41.56
	FillingsUpdate:  mu: -0.102915516  nElectrons: 9.000000  magneticMoment: [ Abs: 0.22036  Tot: +0.22000 ]
SCF: Cycle:  8   F: -42.553375457730006   dF: -5.768e-08   |Residual|: 5.911e-05   |deigs|: 7.923e-04  t[s]:     45.50
	FillingsUpdate:  mu: -0.102893414  nElectrons: 9.000000  magneticMoment: [ Abs: 0.22038  Tot: +0.22000 ]
SCF: Cycle:  9   F: -42.553375461331534   dF: -3.602e-09   |Residual|: 4.543e-05   |deigs|: 7.134e-05  t[s]:     49.44
	FillingsUpdate:  mu: -0.102843580  nElectrons: 9.000000  magneticMoment: [ Abs: 0.22042  Tot: +0.22000 ]
SCF: Cycle: 10   F: -42.553375470661663   dF: -9.330e-09   |Residual|: 4.783e-05   |deigs|: 5.277e-05  t[s]:     53.49
SCF: Converged (|Delta E|<1.000000e-08 for 2 iters).


# Ionic positions in lattice coordinates:
ion Na   0.000000000000000   0.000000000000000   0.000000000000000 0

# Forces in Lattice coordinates:
force Na   0.000000000000000  -0.000000000000000   0.000000000000000 0

# Energy components:
   Eewald =      -12.0320174002217755
       EH =       21.7079628656015267
     Eloc =      -54.7389402885591494
      Enl =      -12.9047092317341683
   Epulay =       -0.0000003132867683
      Exc =       -6.2063223854633218
       KE =       21.6206517758122700
-------------------------------------
     Etot =      -42.5533749778513837
       TS =        0.0000004928102820
-------------------------------------
        F =      -42.5533754706616634

IonicMinimize: Iter:   0  F: -42.553375470661663  |grad|_K:  0.000e+00  t[s]:     53.64
IonicMinimize: Converged (|grad|_K<1.000000e-04).

#--- Lowdin population analysis ---
# oxidation-state Na +0.005
# magnetic-moments Na +0.219

End date and time: Sat Feb  5 22:32:16 2022  (Duration: 0-0:00:53.68)
Done!
