
*************** JDFTx 1.6.0 (git hash 42ebbcc2) ***************

Start date and time: Sat Feb  5 22:21:35 2022
Executable jdftx with command-line: -i Alkali.in
Running on hosts (process indices):  d-6-8-2 (0-18)
Divided in process groups (process indices):  0 (0)  1 (1)  2 (2)  3 (3)  4 (4)  5 (5)  6 (6)  7 (7)  8 (8)  9 (9)  10 (10)  11 (11)  12 (12)  13 (13)  14 (14)  15 (15)  16 (16)  17 (17)  18 (18)
Resource initialization completed at t[s]:      0.00
Run totals: 19 processes, 48 threads, 0 GPUs


Input parsed successfully to the following command list (including defaults):

basis kpoint-dependent
coords-type Lattice
core-overlap-check vector
coulomb-interaction Slab 001
davidson-band-ratio 1.1
dump End None
dump-name $INPUT.$VAR
elec-cutoff 20
elec-eigen-algo Davidson
elec-ex-corr gga-PBE
elec-initial-magnetization -0.780000 yes
elec-smearing Fermi 1e-05
electronic-minimize  \
	dirUpdateScheme      FletcherReeves \
	linminMethod         DirUpdateRecommended \
	nIterations          100 \
	history              15 \
	knormThreshold       0 \
	energyDiffThreshold  1e-08 \
	nEnergyDiff          2 \
	alphaTstart          1 \
	alphaTmin            1e-10 \
	updateTestStepSize   yes \
	alphaTreduceFactor   0.1 \
	alphaTincreaseFactor 3 \
	nAlphaAdjustMax      3 \
	wolfeEnergy          0.0001 \
	wolfeGradient        0.9 \
	fdTest               no
electronic-scf  \
	nIterations	10000 \
	energyDiffThreshold	1e-08 \
	residualThreshold	1e-07 \
	mixFraction	0.5 \
	qMetric	0.8 \
	history	10 \
	nEigSteps	2 \
	eigDiffThreshold	1e-08 \
	mixedVariable	Density \
	qKerker	0.8 \
	qKappa	-1 \
	verbose	no \
	mixFractionMag	1.5
exchange-regularization WignerSeitzTruncated
fluid None
fluid-ex-corr (null) lda-PZ
fluid-gummel-loop 10 1.000000e-05
fluid-minimize  \
	dirUpdateScheme      PolakRibiere \
	linminMethod         DirUpdateRecommended \
	nIterations          100 \
	history              15 \
	knormThreshold       0 \
	energyDiffThreshold  0 \
	nEnergyDiff          2 \
	alphaTstart          1 \
	alphaTmin            1e-10 \
	updateTestStepSize   yes \
	alphaTreduceFactor   0.1 \
	alphaTincreaseFactor 3 \
	nAlphaAdjustMax      3 \
	wolfeEnergy          0.0001 \
	wolfeGradient        0.9 \
	fdTest               no
fluid-solvent H2O 55.338 ScalarEOS \
	epsBulk 78.4 \
	pMol 0.92466 \
	epsInf 1.77 \
	Pvap 1.06736e-10 \
	sigmaBulk 4.62e-05 \
	Rvdw 2.61727 \
	Res 1.42 \
	tauNuc 343133 \
	poleEl 15 7 1
forces-output-coords Positions
ion Na   0.000000000000000   0.000000000000000   0.000000000000000 0
ion-species SG15/$ID_ONCV_PBE.upf
ion-width 0
ionic-minimize  \
	dirUpdateScheme      L-BFGS \
	linminMethod         DirUpdateRecommended \
	nIterations          0 \
	history              15 \
	knormThreshold       0.0001 \
	energyDiffThreshold  1e-06 \
	nEnergyDiff          2 \
	alphaTstart          1 \
	alphaTmin            1e-10 \
	updateTestStepSize   yes \
	alphaTreduceFactor   0.1 \
	alphaTincreaseFactor 3 \
	nAlphaAdjustMax      3 \
	wolfeEnergy          0.0001 \
	wolfeGradient        0.9 \
	fdTest               no
kpoint   0.000000000000   0.000000000000   0.000000000000  1.00000000000000
kpoint-folding 12 12 1 
latt-move-scale 1 1 1
latt-scale 3 3 1 
lattice  \
	   4.727486978767153   -2.363743489383575    0.000000000000000  \
	  -0.000000000000000    4.094123819672498    0.000000000000000  \
	   0.000000000000000    0.000000000000000   40.000000000000000 
lattice-minimize  \
	dirUpdateScheme      L-BFGS \
	linminMethod         DirUpdateRecommended \
	nIterations          0 \
	history              15 \
	knormThreshold       0 \
	energyDiffThreshold  1e-06 \
	nEnergyDiff          2 \
	alphaTstart          1 \
	alphaTmin            1e-10 \
	updateTestStepSize   yes \
	alphaTreduceFactor   0.1 \
	alphaTincreaseFactor 3 \
	nAlphaAdjustMax      3 \
	wolfeEnergy          0.0001 \
	wolfeGradient        0.9 \
	fdTest               no
lcao-params -1 1e-06 1e-05
pcm-variant GLSSA13
spintype z-spin
subspace-rotation-factor 1 yes
symmetries automatic
symmetry-threshold 0.0001



---------- Setting up symmetries ----------

Found 24 point-group symmetries of the bravais lattice
Found 24 space-group symmetries with basis
Applied RMS atom displacement 0 bohrs to make symmetries exact.

---------- Initializing the Grid ----------
R = 
[      14.1825     -7.09123            0  ]
[            0      12.2824            0  ]
[            0            0           40  ]
unit cell volume = 6967.77
G =
[   0.443025   0.255781         -0  ]
[          0   0.511561         -0  ]
[         -0         -0    0.15708  ]
Minimum fftbox size, Smin = [  60  60  164  ]
Chosen fftbox size, S = [  60  60  168  ]

---------- Exchange Correlation functional ----------
Initalized PBE GGA exchange.
Initalized PBE GGA correlation.

---------- Setting up pseudopotentials ----------
Width of ionic core gaussian charges (only for fluid interactions / plotting) set to 0

Reading pseudopotential file '/home/gridsan/aligho/DFT/build-Nov24/pseudopotentials/SG15/Na_ONCV_PBE.upf':
  'Na' pseudopotential, 'PBE' functional
  Generated using ONCVPSP code by D. R. Hamann
  Author: Martin Schlipf and Francois Gygi  Date: 150915.
  9 valence electrons, 3 orbitals, 4 projectors, 1992 radial grid points, with lMax = 1
  Transforming local potential to a uniform radial grid of dG=0.02 with 1489 points.
  Transforming nonlocal projectors to a uniform radial grid of dG=0.02 with 432 points.
    2S    l: 0   occupation:  2.0   eigenvalue: -2.085640
    2P    l: 1   occupation:  6.0   eigenvalue: -1.053708
    3S    l: 0   occupation:  1.0   eigenvalue: -0.100838
  Transforming atomic orbitals to a uniform radial grid of dG=0.02 with 432 points.
  Core radius for overlap checks: 2.01 bohrs.
  Reading pulay file /home/gridsan/aligho/DFT/build-Nov24/pseudopotentials/SG15/Na_ONCV_PBE.pulay ... using dE_dnG = -2.946487e-03 computed for Ecut = 20.

Initialized 1 species with 1 total atoms.

Folded 1 k-points by 12x12x1 to 144 k-points.

---------- Setting up k-points, bands, fillings ----------
Reduced to 19 k-points under symmetry. 
Computing the number of bands and number of electrons
Calculating initial fillings.
nElectrons:   9.000000   nBands: 6   nStates: 38

----- Setting up reduced wavefunction bases (one per k-point) -----
average nbasis = 29766.104 , ideal nbasis = 29766.845

---------- Setting up coulomb interaction ----------
Initialized slab truncation along lattice direction 001

---------- Setting up 2D ewald sum ----------
Optimum gaussian width for ewald sums = 7.873530 bohr.
Real space sums over 289 unit cells with max indices [  8  8  0  ]
Reciprocal space sums over 81 terms with max indices [  4  4  0  ]

---------- Allocating electronic variables ----------
Initializing wave functions:  linear combination of atomic orbitals
Note: number of bands (6) exceeds available atomic orbitals (5)
Na pseudo-atom occupations:   s ( 2 1 )  p ( 6 )
	FillingsUpdate:  mu: -0.101558841  nElectrons: 9.000000  magneticMoment: [ Abs: 0.78000  Tot: -0.78000 ]
LCAOMinimize: Iter:   0  F: -42.5552552313752770  |grad|_K:  4.575e-06  alpha:  1.000e+00
	FillingsUpdate:  mu: -0.101558226  nElectrons: 9.000000  magneticMoment: [ Abs: 0.78000  Tot: -0.78000 ]
LCAOMinimize: Iter:   1  F: -42.5552552456517859  |grad|_K:  2.002e-08  alpha:  9.970e-01  linmin: -5.736e-03  cgtest:  1.840e-01  t[s]:      8.53
LCAOMinimize: Encountered beta<0, resetting CG.
LCAOMinimize: 	Predicted alpha/alphaT>3.000000, increasing alphaT to 2.991148e+00.
	FillingsUpdate:  mu: -0.101558227  nElectrons: 9.000000  magneticMoment: [ Abs: 0.78000  Tot: -0.78000 ]
LCAOMinimize: Iter:   2  F: -42.5552552456520488  |grad|_K:  3.136e-09  alpha:  8.402e-01  linmin: -1.117e-01  cgtest:  9.997e-01  t[s]:     11.78
LCAOMinimize: Encountered beta<0, resetting CG.
LCAOMinimize: Converged (|Delta F|<1.000000e-06 for 2 iters).


---- Citations for features of the code used in this run ----

   Software package:
      R. Sundararaman, K. Letchworth-Weaver, K.A. Schwarz, D. Gunceler, Y. Ozhabes and T.A. Arias, 'JDFTx: software for joint density-functional theory', SoftwareX 6, 278 (2017)

   gga-PBE exchange-correlation functional:
      J.P. Perdew, K. Burke and M. Ernzerhof, Phys. Rev. Lett. 77, 3865 (1996)

   Pseudopotentials:
      M Schlipf and F Gygi, Comput. Phys. Commun. 196, 36 (2015)

   Truncated Coulomb potentials:
      R. Sundararaman and T.A. Arias, Phys. Rev. B 87, 165122 (2013)

This list may not be complete. Please suggest additional citations or
report any other bugs at https://github.com/shankar1729/jdftx/issues

Initialization completed successfully at t[s]:     11.88


-------- Electronic minimization -----------
Will mix electronic density at each iteration.
	FillingsUpdate:  mu: -0.101558227  nElectrons: 9.000000  magneticMoment: [ Abs: 0.78000  Tot: -0.78000 ]
	FillingsUpdate:  mu: -0.101797336  nElectrons: 9.000000  magneticMoment: [ Abs: 0.78000  Tot: -0.78000 ]
SCF: Cycle:  0   F: -42.555516329239701   dF: -2.611e-04   |Residual|: 2.395e-03   |deigs|: 1.686e-01  t[s]:     16.27
	FillingsUpdate:  mu: -0.101848790  nElectrons: 9.000000  magneticMoment: [ Abs: 0.78201  Tot: -0.78000 ]
SCF: Cycle:  1   F: -42.555519220464227   dF: -2.891e-06   |Residual|: 9.032e-04   |deigs|: 9.128e-03  t[s]:     19.66
	FillingsUpdate:  mu: -0.101754687  nElectrons: 9.000000  magneticMoment: [ Abs: 0.78146  Tot: -0.78000 ]
SCF: Cycle:  2   F: -42.555519942278565   dF: -7.218e-07   |Residual|: 4.810e-04   |deigs|: 2.213e-03  t[s]:     23.13
	FillingsUpdate:  mu: -0.101697802  nElectrons: 9.000000  magneticMoment: [ Abs: 0.78178  Tot: -0.78000 ]
SCF: Cycle:  3   F: -42.555520284786944   dF: -3.425e-07   |Residual|: 2.748e-04   |deigs|: 1.809e-03  t[s]:     26.64
	FillingsUpdate:  mu: -0.101630885  nElectrons: 9.000000  magneticMoment: [ Abs: 0.78163  Tot: -0.78000 ]
SCF: Cycle:  4   F: -42.555520437396559   dF: -1.526e-07   |Residual|: 2.059e-04   |deigs|: 1.117e-03  t[s]:     30.29
	FillingsUpdate:  mu: -0.101485517  nElectrons: 9.000000  magneticMoment: [ Abs: 0.78162  Tot: -0.78000 ]
SCF: Cycle:  5   F: -42.555520578322444   dF: -1.409e-07   |Residual|: 1.398e-04   |deigs|: 7.121e-04  t[s]:     33.91
	FillingsUpdate:  mu: -0.101420709  nElectrons: 9.000000  magneticMoment: [ Abs: 0.78165  Tot: -0.78000 ]
SCF: Cycle:  6   F: -42.555520652986459   dF: -7.466e-08   |Residual|: 1.063e-04   |deigs|: 6.503e-04  t[s]:     37.58
	FillingsUpdate:  mu: -0.101362216  nElectrons: 9.000000  magneticMoment: [ Abs: 0.78164  Tot: -0.78000 ]
SCF: Cycle:  7   F: -42.555520725207572   dF: -7.222e-08   |Residual|: 8.442e-05   |deigs|: 3.971e-04  t[s]:     41.39
	FillingsUpdate:  mu: -0.101333465  nElectrons: 9.000000  magneticMoment: [ Abs: 0.78161  Tot: -0.78000 ]
SCF: Cycle:  8   F: -42.555520764251526   dF: -3.904e-08   |Residual|: 6.842e-05   |deigs|: 2.712e-04  t[s]:     45.20
	FillingsUpdate:  mu: -0.101280658  nElectrons: 9.000000  magneticMoment: [ Abs: 0.78179  Tot: -0.78000 ]
SCF: Cycle:  9   F: -42.555520663397466   dF: +1.009e-07   |Residual|: 5.489e-05   |deigs|: 2.393e-04  t[s]:     49.10
	FillingsUpdate:  mu: -0.101259951  nElectrons: 9.000000  magneticMoment: [ Abs: 0.78175  Tot: -0.78000 ]
SCF: Cycle: 10   F: -42.555520616550837   dF: +4.685e-08   |Residual|: 4.658e-05   |deigs|: 1.745e-04  t[s]:     53.02
	FillingsUpdate:  mu: -0.101206313  nElectrons: 9.000000  magneticMoment: [ Abs: 0.78174  Tot: -0.78000 ]
SCF: Cycle: 11   F: -42.555520452553253   dF: +1.640e-07   |Residual|: 3.761e-05   |deigs|: 1.637e-04  t[s]:     56.94
	FillingsUpdate:  mu: -0.101210806  nElectrons: 9.000000  magneticMoment: [ Abs: 0.78191  Tot: -0.78000 ]
SCF: Cycle: 12   F: -42.555520751910556   dF: -2.994e-07   |Residual|: 3.824e-05   |deigs|: 8.167e-05  t[s]:     60.92
	FillingsUpdate:  mu: -0.101134302  nElectrons: 9.000000  magneticMoment: [ Abs: 0.78198  Tot: -0.78000 ]
SCF: Cycle: 13   F: -42.555520776356431   dF: -2.445e-08   |Residual|: 3.145e-05   |deigs|: 9.377e-05  t[s]:     64.84
	FillingsUpdate:  mu: -0.101036061  nElectrons: 9.000000  magneticMoment: [ Abs: 0.78194  Tot: -0.78000 ]
SCF: Cycle: 14   F: -42.555520709266865   dF: +6.709e-08   |Residual|: 3.213e-05   |deigs|: 1.200e-04  t[s]:     68.76
	FillingsUpdate:  mu: -0.100970450  nElectrons: 9.000000  magneticMoment: [ Abs: 0.78185  Tot: -0.78000 ]
SCF: Cycle: 15   F: -42.555520785586651   dF: -7.632e-08   |Residual|: 2.998e-05   |deigs|: 8.636e-05  t[s]:     72.70
	FillingsUpdate:  mu: -0.100966755  nElectrons: 9.000000  magneticMoment: [ Abs: 0.78170  Tot: -0.78000 ]
SCF: Cycle: 16   F: -42.555520827449151   dF: -4.186e-08   |Residual|: 2.262e-05   |deigs|: 5.157e-05  t[s]:     76.63
	FillingsUpdate:  mu: -0.100926578  nElectrons: 9.000000  magneticMoment: [ Abs: 0.78166  Tot: -0.78000 ]
SCF: Cycle: 17   F: -42.555520864575605   dF: -3.713e-08   |Residual|: 1.727e-05   |deigs|: 4.558e-05  t[s]:     80.58
	FillingsUpdate:  mu: -0.100886507  nElectrons: 9.000000  magneticMoment: [ Abs: 0.78163  Tot: -0.78000 ]
SCF: Cycle: 18   F: -42.555520879821998   dF: -1.525e-08   |Residual|: 1.189e-05   |deigs|: 4.224e-05  t[s]:     84.44
	FillingsUpdate:  mu: -0.100879685  nElectrons: 9.000000  magneticMoment: [ Abs: 0.78163  Tot: -0.78000 ]
SCF: Cycle: 19   F: -42.555520885609262   dF: -5.787e-09   |Residual|: 8.659e-06   |deigs|: 2.843e-05  t[s]:     88.34
	FillingsUpdate:  mu: -0.100876152  nElectrons: 9.000000  magneticMoment: [ Abs: 0.78164  Tot: -0.78000 ]
SCF: Cycle: 20   F: -42.555520890705623   dF: -5.096e-09   |Residual|: 5.721e-06   |deigs|: 4.650e-05  t[s]:     92.29
SCF: Converged (|Delta E|<1.000000e-08 for 2 iters).


# Ionic positions in lattice coordinates:
ion Na   0.000000000000000   0.000000000000000   0.000000000000000 0

# Forces in Lattice coordinates:
force Na   0.000000000000000   0.000000000000000   0.000000000000000 0

# Energy components:
   Eewald =      -12.0320174002217755
       EH =       21.7676244286792233
     Eloc =      -54.8035276160969289
      Enl =      -12.9042554822018154
   Epulay =       -0.0000003132867683
      Exc =       -6.2151566022830602
       KE =       21.6318126397604473
-------------------------------------
     Etot =      -42.5555203456506845
       TS =        0.0000005450549413
-------------------------------------
        F =      -42.5555208907056226

IonicMinimize: Iter:   0  F: -42.555520890705623  |grad|_K:  0.000e+00  t[s]:     92.43
IonicMinimize: Converged (|grad|_K<1.000000e-04).

#--- Lowdin population analysis ---
# oxidation-state Na +0.002
# magnetic-moments Na -0.778

End date and time: Sat Feb  5 22:23:08 2022  (Duration: 0-0:01:32.47)
Done!
