
*************** JDFTx 1.6.0 (git hash 42ebbcc2) ***************

Start date and time: Sat Feb  5 22:21:37 2022
Executable jdftx with command-line: -i Alkali.in
Running on hosts (process indices):  d-6-4-1 (0-18)
Divided in process groups (process indices):  0 (0)  1 (1)  2 (2)  3 (3)  4 (4)  5 (5)  6 (6)  7 (7)  8 (8)  9 (9)  10 (10)  11 (11)  12 (12)  13 (13)  14 (14)  15 (15)  16 (16)  17 (17)  18 (18)
Resource initialization completed at t[s]:      0.00
Run totals: 19 processes, 48 threads, 0 GPUs


Input parsed successfully to the following command list (including defaults):

basis kpoint-dependent
coords-type Lattice
core-overlap-check vector
coulomb-interaction Slab 001
davidson-band-ratio 1.1
dump End None
dump-name $INPUT.$VAR
elec-cutoff 20
elec-eigen-algo Davidson
elec-ex-corr gga-PBE
elec-initial-magnetization -0.820000 yes
elec-smearing Fermi 1e-05
electronic-minimize  \
	dirUpdateScheme      FletcherReeves \
	linminMethod         DirUpdateRecommended \
	nIterations          100 \
	history              15 \
	knormThreshold       0 \
	energyDiffThreshold  1e-08 \
	nEnergyDiff          2 \
	alphaTstart          1 \
	alphaTmin            1e-10 \
	updateTestStepSize   yes \
	alphaTreduceFactor   0.1 \
	alphaTincreaseFactor 3 \
	nAlphaAdjustMax      3 \
	wolfeEnergy          0.0001 \
	wolfeGradient        0.9 \
	fdTest               no
electronic-scf  \
	nIterations	10000 \
	energyDiffThreshold	1e-08 \
	residualThreshold	1e-07 \
	mixFraction	0.5 \
	qMetric	0.8 \
	history	10 \
	nEigSteps	2 \
	eigDiffThreshold	1e-08 \
	mixedVariable	Density \
	qKerker	0.8 \
	qKappa	-1 \
	verbose	no \
	mixFractionMag	1.5
exchange-regularization WignerSeitzTruncated
fluid None
fluid-ex-corr (null) lda-PZ
fluid-gummel-loop 10 1.000000e-05
fluid-minimize  \
	dirUpdateScheme      PolakRibiere \
	linminMethod         DirUpdateRecommended \
	nIterations          100 \
	history              15 \
	knormThreshold       0 \
	energyDiffThreshold  0 \
	nEnergyDiff          2 \
	alphaTstart          1 \
	alphaTmin            1e-10 \
	updateTestStepSize   yes \
	alphaTreduceFactor   0.1 \
	alphaTincreaseFactor 3 \
	nAlphaAdjustMax      3 \
	wolfeEnergy          0.0001 \
	wolfeGradient        0.9 \
	fdTest               no
fluid-solvent H2O 55.338 ScalarEOS \
	epsBulk 78.4 \
	pMol 0.92466 \
	epsInf 1.77 \
	Pvap 1.06736e-10 \
	sigmaBulk 4.62e-05 \
	Rvdw 2.61727 \
	Res 1.42 \
	tauNuc 343133 \
	poleEl 15 7 1
forces-output-coords Positions
ion Na   0.000000000000000   0.000000000000000   0.000000000000000 0
ion-species SG15/$ID_ONCV_PBE.upf
ion-width 0
ionic-minimize  \
	dirUpdateScheme      L-BFGS \
	linminMethod         DirUpdateRecommended \
	nIterations          0 \
	history              15 \
	knormThreshold       0.0001 \
	energyDiffThreshold  1e-06 \
	nEnergyDiff          2 \
	alphaTstart          1 \
	alphaTmin            1e-10 \
	updateTestStepSize   yes \
	alphaTreduceFactor   0.1 \
	alphaTincreaseFactor 3 \
	nAlphaAdjustMax      3 \
	wolfeEnergy          0.0001 \
	wolfeGradient        0.9 \
	fdTest               no
kpoint   0.000000000000   0.000000000000   0.000000000000  1.00000000000000
kpoint-folding 12 12 1 
latt-move-scale 1 1 1
latt-scale 3 3 1 
lattice  \
	   4.727486978767153   -2.363743489383575    0.000000000000000  \
	  -0.000000000000000    4.094123819672498    0.000000000000000  \
	   0.000000000000000    0.000000000000000   40.000000000000000 
lattice-minimize  \
	dirUpdateScheme      L-BFGS \
	linminMethod         DirUpdateRecommended \
	nIterations          0 \
	history              15 \
	knormThreshold       0 \
	energyDiffThreshold  1e-06 \
	nEnergyDiff          2 \
	alphaTstart          1 \
	alphaTmin            1e-10 \
	updateTestStepSize   yes \
	alphaTreduceFactor   0.1 \
	alphaTincreaseFactor 3 \
	nAlphaAdjustMax      3 \
	wolfeEnergy          0.0001 \
	wolfeGradient        0.9 \
	fdTest               no
lcao-params -1 1e-06 1e-05
pcm-variant GLSSA13
spintype z-spin
subspace-rotation-factor 1 yes
symmetries automatic
symmetry-threshold 0.0001



---------- Setting up symmetries ----------

Found 24 point-group symmetries of the bravais lattice
Found 24 space-group symmetries with basis
Applied RMS atom displacement 0 bohrs to make symmetries exact.

---------- Initializing the Grid ----------
R = 
[      14.1825     -7.09123            0  ]
[            0      12.2824            0  ]
[            0            0           40  ]
unit cell volume = 6967.77
G =
[   0.443025   0.255781         -0  ]
[          0   0.511561         -0  ]
[         -0         -0    0.15708  ]
Minimum fftbox size, Smin = [  60  60  164  ]
Chosen fftbox size, S = [  60  60  168  ]

---------- Exchange Correlation functional ----------
Initalized PBE GGA exchange.
Initalized PBE GGA correlation.

---------- Setting up pseudopotentials ----------
Width of ionic core gaussian charges (only for fluid interactions / plotting) set to 0

Reading pseudopotential file '/home/gridsan/aligho/DFT/build-Nov24/pseudopotentials/SG15/Na_ONCV_PBE.upf':
  'Na' pseudopotential, 'PBE' functional
  Generated using ONCVPSP code by D. R. Hamann
  Author: Martin Schlipf and Francois Gygi  Date: 150915.
  9 valence electrons, 3 orbitals, 4 projectors, 1992 radial grid points, with lMax = 1
  Transforming local potential to a uniform radial grid of dG=0.02 with 1489 points.
  Transforming nonlocal projectors to a uniform radial grid of dG=0.02 with 432 points.
    2S    l: 0   occupation:  2.0   eigenvalue: -2.085640
    2P    l: 1   occupation:  6.0   eigenvalue: -1.053708
    3S    l: 0   occupation:  1.0   eigenvalue: -0.100838
  Transforming atomic orbitals to a uniform radial grid of dG=0.02 with 432 points.
  Core radius for overlap checks: 2.01 bohrs.
  Reading pulay file /home/gridsan/aligho/DFT/build-Nov24/pseudopotentials/SG15/Na_ONCV_PBE.pulay ... using dE_dnG = -2.946487e-03 computed for Ecut = 20.

Initialized 1 species with 1 total atoms.

Folded 1 k-points by 12x12x1 to 144 k-points.

---------- Setting up k-points, bands, fillings ----------
Reduced to 19 k-points under symmetry. 
Computing the number of bands and number of electrons
Calculating initial fillings.
nElectrons:   9.000000   nBands: 6   nStates: 38

----- Setting up reduced wavefunction bases (one per k-point) -----
average nbasis = 29766.104 , ideal nbasis = 29766.845

---------- Setting up coulomb interaction ----------
Initialized slab truncation along lattice direction 001

---------- Setting up 2D ewald sum ----------
Optimum gaussian width for ewald sums = 7.873530 bohr.
Real space sums over 289 unit cells with max indices [  8  8  0  ]
Reciprocal space sums over 81 terms with max indices [  4  4  0  ]

---------- Allocating electronic variables ----------
Initializing wave functions:  linear combination of atomic orbitals
Note: number of bands (6) exceeds available atomic orbitals (5)
Na pseudo-atom occupations:   s ( 2 1 )  p ( 6 )
	FillingsUpdate:  mu: -0.101156259  nElectrons: 9.000000  magneticMoment: [ Abs: 0.82000  Tot: -0.82000 ]
LCAOMinimize: Iter:   0  F: -42.5555184728716327  |grad|_K:  3.973e-06  alpha:  1.000e+00
	FillingsUpdate:  mu: -0.101155732  nElectrons: 9.000000  magneticMoment: [ Abs: 0.82000  Tot: -0.82000 ]
LCAOMinimize: Iter:   1  F: -42.5555184836392826  |grad|_K:  1.675e-08  alpha:  9.974e-01  linmin: -5.266e-03  cgtest:  1.578e-01  t[s]:      8.66
LCAOMinimize: Encountered beta<0, resetting CG.
LCAOMinimize: 	Wrong curvature in test step, increasing alphaT to 2.992187e+00.
	FillingsUpdate:  mu: -0.101155733  nElectrons: 9.000000  magneticMoment: [ Abs: 0.82000  Tot: -0.82000 ]
LCAOMinimize: Iter:   2  F: -42.5555184836398723  |grad|_K:  8.083e-11  alpha: -9.267e-01  linmin:  3.316e-02  cgtest: -3.206e-01  t[s]:     11.02
LCAOMinimize: Converged (|Delta F|<1.000000e-06 for 2 iters).


---- Citations for features of the code used in this run ----

   Software package:
      R. Sundararaman, K. Letchworth-Weaver, K.A. Schwarz, D. Gunceler, Y. Ozhabes and T.A. Arias, 'JDFTx: software for joint density-functional theory', SoftwareX 6, 278 (2017)

   gga-PBE exchange-correlation functional:
      J.P. Perdew, K. Burke and M. Ernzerhof, Phys. Rev. Lett. 77, 3865 (1996)

   Pseudopotentials:
      M Schlipf and F Gygi, Comput. Phys. Commun. 196, 36 (2015)

   Truncated Coulomb potentials:
      R. Sundararaman and T.A. Arias, Phys. Rev. B 87, 165122 (2013)

This list may not be complete. Please suggest additional citations or
report any other bugs at https://github.com/shankar1729/jdftx/issues

Initialization completed successfully at t[s]:     11.12


-------- Electronic minimization -----------
Will mix electronic density at each iteration.
	FillingsUpdate:  mu: -0.101155733  nElectrons: 9.000000  magneticMoment: [ Abs: 0.82000  Tot: -0.82000 ]
	FillingsUpdate:  mu: -0.101392354  nElectrons: 9.000000  magneticMoment: [ Abs: 0.82000  Tot: -0.82000 ]
SCF: Cycle:  0   F: -42.555782014201370   dF: -2.635e-04   |Residual|: 2.489e-03   |deigs|: 1.675e-01  t[s]:     15.45
	FillingsUpdate:  mu: -0.101433797  nElectrons: 9.000000  magneticMoment: [ Abs: 0.82224  Tot: -0.82000 ]
SCF: Cycle:  1   F: -42.555784831859611   dF: -2.818e-06   |Residual|: 9.272e-04   |deigs|: 9.882e-03  t[s]:     18.82
	FillingsUpdate:  mu: -0.101324902  nElectrons: 9.000000  magneticMoment: [ Abs: 0.82158  Tot: -0.82000 ]
SCF: Cycle:  2   F: -42.555785644272291   dF: -8.124e-07   |Residual|: 5.118e-04   |deigs|: 2.263e-03  t[s]:     22.28
	FillingsUpdate:  mu: -0.101245523  nElectrons: 9.000000  magneticMoment: [ Abs: 0.82194  Tot: -0.82000 ]
SCF: Cycle:  3   F: -42.555786004889242   dF: -3.606e-07   |Residual|: 2.975e-04   |deigs|: 1.782e-03  t[s]:     25.82
	FillingsUpdate:  mu: -0.101156233  nElectrons: 9.000000  magneticMoment: [ Abs: 0.82176  Tot: -0.82000 ]
SCF: Cycle:  4   F: -42.555786157966921   dF: -1.531e-07   |Residual|: 2.156e-04   |deigs|: 1.088e-03  t[s]:     29.43
	FillingsUpdate:  mu: -0.100979902  nElectrons: 9.000000  magneticMoment: [ Abs: 0.82174  Tot: -0.82000 ]
SCF: Cycle:  5   F: -42.555786248092971   dF: -9.013e-08   |Residual|: 1.435e-04   |deigs|: 8.624e-04  t[s]:     33.03
	FillingsUpdate:  mu: -0.100914276  nElectrons: 9.000000  magneticMoment: [ Abs: 0.82179  Tot: -0.82000 ]
SCF: Cycle:  6   F: -42.555786312196716   dF: -6.410e-08   |Residual|: 1.086e-04   |deigs|: 4.901e-04  t[s]:     36.75
	FillingsUpdate:  mu: -0.100850794  nElectrons: 9.000000  magneticMoment: [ Abs: 0.82177  Tot: -0.82000 ]
SCF: Cycle:  7   F: -42.555786377906934   dF: -6.571e-08   |Residual|: 8.754e-05   |deigs|: 3.204e-04  t[s]:     40.56
	FillingsUpdate:  mu: -0.100822067  nElectrons: 9.000000  magneticMoment: [ Abs: 0.82174  Tot: -0.82000 ]
SCF: Cycle:  8   F: -42.555786389593152   dF: -1.169e-08   |Residual|: 7.099e-05   |deigs|: 2.685e-04  t[s]:     44.34
	FillingsUpdate:  mu: -0.100765060  nElectrons: 9.000000  magneticMoment: [ Abs: 0.82192  Tot: -0.82000 ]
SCF: Cycle:  9   F: -42.555786330730363   dF: +5.886e-08   |Residual|: 5.845e-05   |deigs|: 2.398e-04  t[s]:     48.20
	FillingsUpdate:  mu: -0.100739867  nElectrons: 9.000000  magneticMoment: [ Abs: 0.82187  Tot: -0.82000 ]
SCF: Cycle: 10   F: -42.555786293832654   dF: +3.690e-08   |Residual|: 4.864e-05   |deigs|: 1.437e-04  t[s]:     52.13
	FillingsUpdate:  mu: -0.100681806  nElectrons: 9.000000  magneticMoment: [ Abs: 0.82186  Tot: -0.82000 ]
SCF: Cycle: 11   F: -42.555786150940236   dF: +1.429e-07   |Residual|: 3.959e-05   |deigs|: 1.541e-04  t[s]:     56.09
	FillingsUpdate:  mu: -0.100698292  nElectrons: 9.000000  magneticMoment: [ Abs: 0.82204  Tot: -0.82000 ]
SCF: Cycle: 12   F: -42.555786384803753   dF: -2.339e-07   |Residual|: 3.991e-05   |deigs|: 8.432e-05  t[s]:     60.03
	FillingsUpdate:  mu: -0.100615960  nElectrons: 9.000000  magneticMoment: [ Abs: 0.82211  Tot: -0.82000 ]
SCF: Cycle: 13   F: -42.555786431773875   dF: -4.697e-08   |Residual|: 3.257e-05   |deigs|: 9.996e-05  t[s]:     63.91
	FillingsUpdate:  mu: -0.100528668  nElectrons: 9.000000  magneticMoment: [ Abs: 0.82208  Tot: -0.82000 ]
SCF: Cycle: 14   F: -42.555786316250455   dF: +1.155e-07   |Residual|: 3.299e-05   |deigs|: 1.083e-04  t[s]:     67.89
	FillingsUpdate:  mu: -0.100457780  nElectrons: 9.000000  magneticMoment: [ Abs: 0.82203  Tot: -0.82000 ]
SCF: Cycle: 15   F: -42.555786430244211   dF: -1.140e-07   |Residual|: 3.072e-05   |deigs|: 8.732e-05  t[s]:     71.86
	FillingsUpdate:  mu: -0.100453846  nElectrons: 9.000000  magneticMoment: [ Abs: 0.82183  Tot: -0.82000 ]
SCF: Cycle: 16   F: -42.555786484406411   dF: -5.416e-08   |Residual|: 2.288e-05   |deigs|: 5.593e-05  t[s]:     75.78
	FillingsUpdate:  mu: -0.100409938  nElectrons: 9.000000  magneticMoment: [ Abs: 0.82178  Tot: -0.82000 ]
SCF: Cycle: 17   F: -42.555786527291559   dF: -4.289e-08   |Residual|: 1.775e-05   |deigs|: 1.458e-04  t[s]:     79.67
	FillingsUpdate:  mu: -0.100369607  nElectrons: 9.000000  magneticMoment: [ Abs: 0.82177  Tot: -0.82000 ]
SCF: Cycle: 18   F: -42.555786536758774   dF: -9.467e-09   |Residual|: 1.220e-05   |deigs|: 1.730e-04  t[s]:     83.56
	FillingsUpdate:  mu: -0.100355891  nElectrons: 9.000000  magneticMoment: [ Abs: 0.82177  Tot: -0.82000 ]
SCF: Cycle: 19   F: -42.555786542553456   dF: -5.795e-09   |Residual|: 9.055e-06   |deigs|: 1.672e-05  t[s]:     87.48
SCF: Converged (|Delta E|<1.000000e-08 for 2 iters).


# Ionic positions in lattice coordinates:
ion Na   0.000000000000000   0.000000000000000   0.000000000000000 0

# Forces in Lattice coordinates:
force Na   0.000000000000000   0.000000000000000   0.000000000000000 0

# Energy components:
   Eewald =      -12.0320174002217755
       EH =       21.7737542921920806
     Eloc =      -54.8101620042479354
      Enl =      -12.9042384424563394
   Epulay =       -0.0000003132867683
      Exc =       -6.2161565174143192
       KE =       21.6330341051994601
-------------------------------------
     Etot =      -42.5557862802356084
       TS =        0.0000002623178494
-------------------------------------
        F =      -42.5557865425534558

IonicMinimize: Iter:   0  F: -42.555786542553456  |grad|_K:  0.000e+00  t[s]:     87.62
IonicMinimize: Converged (|grad|_K<1.000000e-04).

#--- Lowdin population analysis ---
# oxidation-state Na +0.002
# magnetic-moments Na -0.818

End date and time: Sat Feb  5 22:23:05 2022  (Duration: 0-0:01:27.67)
Done!
