
*************** JDFTx 1.6.0 (git hash 42ebbcc2) ***************

Start date and time: Sat Feb  5 22:37:47 2022
Executable jdftx with command-line: -i Alkali.in
Running on hosts (process indices):  d-4-5-2 (0-18)
Divided in process groups (process indices):  0 (0)  1 (1)  2 (2)  3 (3)  4 (4)  5 (5)  6 (6)  7 (7)  8 (8)  9 (9)  10 (10)  11 (11)  12 (12)  13 (13)  14 (14)  15 (15)  16 (16)  17 (17)  18 (18)
Resource initialization completed at t[s]:      0.00
Run totals: 19 processes, 48 threads, 0 GPUs


Input parsed successfully to the following command list (including defaults):

basis kpoint-dependent
coords-type Lattice
core-overlap-check vector
coulomb-interaction Slab 001
davidson-band-ratio 1.1
dump End None
dump-name $INPUT.$VAR
elec-cutoff 20
elec-eigen-algo Davidson
elec-ex-corr gga-PBE
elec-initial-magnetization 0.980000 yes
elec-smearing Fermi 1e-05
electronic-minimize  \
	dirUpdateScheme      FletcherReeves \
	linminMethod         DirUpdateRecommended \
	nIterations          100 \
	history              15 \
	knormThreshold       0 \
	energyDiffThreshold  1e-08 \
	nEnergyDiff          2 \
	alphaTstart          1 \
	alphaTmin            1e-10 \
	updateTestStepSize   yes \
	alphaTreduceFactor   0.1 \
	alphaTincreaseFactor 3 \
	nAlphaAdjustMax      3 \
	wolfeEnergy          0.0001 \
	wolfeGradient        0.9 \
	fdTest               no
electronic-scf  \
	nIterations	10000 \
	energyDiffThreshold	1e-08 \
	residualThreshold	1e-07 \
	mixFraction	0.5 \
	qMetric	0.8 \
	history	10 \
	nEigSteps	2 \
	eigDiffThreshold	1e-08 \
	mixedVariable	Density \
	qKerker	0.8 \
	qKappa	-1 \
	verbose	no \
	mixFractionMag	1.5
exchange-regularization WignerSeitzTruncated
fluid None
fluid-ex-corr (null) lda-PZ
fluid-gummel-loop 10 1.000000e-05
fluid-minimize  \
	dirUpdateScheme      PolakRibiere \
	linminMethod         DirUpdateRecommended \
	nIterations          100 \
	history              15 \
	knormThreshold       0 \
	energyDiffThreshold  0 \
	nEnergyDiff          2 \
	alphaTstart          1 \
	alphaTmin            1e-10 \
	updateTestStepSize   yes \
	alphaTreduceFactor   0.1 \
	alphaTincreaseFactor 3 \
	nAlphaAdjustMax      3 \
	wolfeEnergy          0.0001 \
	wolfeGradient        0.9 \
	fdTest               no
fluid-solvent H2O 55.338 ScalarEOS \
	epsBulk 78.4 \
	pMol 0.92466 \
	epsInf 1.77 \
	Pvap 1.06736e-10 \
	sigmaBulk 4.62e-05 \
	Rvdw 2.61727 \
	Res 1.42 \
	tauNuc 343133 \
	poleEl 15 7 1
forces-output-coords Positions
ion Na   0.000000000000000   0.000000000000000   0.000000000000000 0
ion-species SG15/$ID_ONCV_PBE.upf
ion-width 0
ionic-minimize  \
	dirUpdateScheme      L-BFGS \
	linminMethod         DirUpdateRecommended \
	nIterations          0 \
	history              15 \
	knormThreshold       0.0001 \
	energyDiffThreshold  1e-06 \
	nEnergyDiff          2 \
	alphaTstart          1 \
	alphaTmin            1e-10 \
	updateTestStepSize   yes \
	alphaTreduceFactor   0.1 \
	alphaTincreaseFactor 3 \
	nAlphaAdjustMax      3 \
	wolfeEnergy          0.0001 \
	wolfeGradient        0.9 \
	fdTest               no
kpoint   0.000000000000   0.000000000000   0.000000000000  1.00000000000000
kpoint-folding 12 12 1 
latt-move-scale 1 1 1
latt-scale 3 3 1 
lattice  \
	   4.727486978767153   -2.363743489383575    0.000000000000000  \
	  -0.000000000000000    4.094123819672498    0.000000000000000  \
	   0.000000000000000    0.000000000000000   40.000000000000000 
lattice-minimize  \
	dirUpdateScheme      L-BFGS \
	linminMethod         DirUpdateRecommended \
	nIterations          0 \
	history              15 \
	knormThreshold       0 \
	energyDiffThreshold  1e-06 \
	nEnergyDiff          2 \
	alphaTstart          1 \
	alphaTmin            1e-10 \
	updateTestStepSize   yes \
	alphaTreduceFactor   0.1 \
	alphaTincreaseFactor 3 \
	nAlphaAdjustMax      3 \
	wolfeEnergy          0.0001 \
	wolfeGradient        0.9 \
	fdTest               no
lcao-params -1 1e-06 1e-05
pcm-variant GLSSA13
spintype z-spin
subspace-rotation-factor 1 yes
symmetries automatic
symmetry-threshold 0.0001



---------- Setting up symmetries ----------

Found 24 point-group symmetries of the bravais lattice
Found 24 space-group symmetries with basis
Applied RMS atom displacement 0 bohrs to make symmetries exact.

---------- Initializing the Grid ----------
R = 
[      14.1825     -7.09123            0  ]
[            0      12.2824            0  ]
[            0            0           40  ]
unit cell volume = 6967.77
G =
[   0.443025   0.255781         -0  ]
[          0   0.511561         -0  ]
[         -0         -0    0.15708  ]
Minimum fftbox size, Smin = [  60  60  164  ]
Chosen fftbox size, S = [  60  60  168  ]

---------- Exchange Correlation functional ----------
Initalized PBE GGA exchange.
Initalized PBE GGA correlation.

---------- Setting up pseudopotentials ----------
Width of ionic core gaussian charges (only for fluid interactions / plotting) set to 0

Reading pseudopotential file '/home/gridsan/aligho/DFT/build-Nov24/pseudopotentials/SG15/Na_ONCV_PBE.upf':
  'Na' pseudopotential, 'PBE' functional
  Generated using ONCVPSP code by D. R. Hamann
  Author: Martin Schlipf and Francois Gygi  Date: 150915.
  9 valence electrons, 3 orbitals, 4 projectors, 1992 radial grid points, with lMax = 1
  Transforming local potential to a uniform radial grid of dG=0.02 with 1489 points.
  Transforming nonlocal projectors to a uniform radial grid of dG=0.02 with 432 points.
    2S    l: 0   occupation:  2.0   eigenvalue: -2.085640
    2P    l: 1   occupation:  6.0   eigenvalue: -1.053708
    3S    l: 0   occupation:  1.0   eigenvalue: -0.100838
  Transforming atomic orbitals to a uniform radial grid of dG=0.02 with 432 points.
  Core radius for overlap checks: 2.01 bohrs.
  Reading pulay file /home/gridsan/aligho/DFT/build-Nov24/pseudopotentials/SG15/Na_ONCV_PBE.pulay ... using dE_dnG = -2.946487e-03 computed for Ecut = 20.

Initialized 1 species with 1 total atoms.

Folded 1 k-points by 12x12x1 to 144 k-points.

---------- Setting up k-points, bands, fillings ----------
Reduced to 19 k-points under symmetry. 
Computing the number of bands and number of electrons
Calculating initial fillings.
nElectrons:   9.000000   nBands: 6   nStates: 38

----- Setting up reduced wavefunction bases (one per k-point) -----
average nbasis = 29766.104 , ideal nbasis = 29766.845

---------- Setting up coulomb interaction ----------
Initialized slab truncation along lattice direction 001

---------- Setting up 2D ewald sum ----------
Optimum gaussian width for ewald sums = 7.873530 bohr.
Real space sums over 289 unit cells with max indices [  8  8  0  ]
Reciprocal space sums over 81 terms with max indices [  4  4  0  ]

---------- Allocating electronic variables ----------
Initializing wave functions:  linear combination of atomic orbitals
Note: number of bands (6) exceeds available atomic orbitals (5)
Na pseudo-atom occupations:   s ( 2 1 )  p ( 6 )
	FillingsUpdate:  mu: -0.094589630  nElectrons: 9.000000  magneticMoment: [ Abs: 0.98000  Tot: +0.98000 ]
LCAOMinimize: Iter:   0  F: -42.5569426845485381  |grad|_K:  7.334e-07  alpha:  1.000e+00
	FillingsUpdate:  mu: -0.094589440  nElectrons: 9.000000  magneticMoment: [ Abs: 0.98000  Tot: +0.98000 ]
LCAOMinimize: Iter:   1  F: -42.5569426849167201  |grad|_K:  2.278e-09  alpha:  1.000e+00  linmin:  2.479e-02  cgtest: -3.439e-01  t[s]:      8.63
LCAOMinimize: 	Step increased F by 2.273737e-13, reducing alpha to 7.338181e-04.
	FillingsUpdate:  mu: -0.094589440  nElectrons: 9.000000  magneticMoment: [ Abs: 0.98000  Tot: +0.98000 ]
LCAOMinimize: Iter:   2  F: -42.5569426849167840  |grad|_K:  2.276e-09  alpha:  7.338e-04  linmin: -4.643e-02  cgtest:  1.000e+00  t[s]:     12.38
LCAOMinimize: Encountered beta<0, resetting CG.
LCAOMinimize: Converged (|Delta F|<1.000000e-06 for 2 iters).


---- Citations for features of the code used in this run ----

   Software package:
      R. Sundararaman, K. Letchworth-Weaver, K.A. Schwarz, D. Gunceler, Y. Ozhabes and T.A. Arias, 'JDFTx: software for joint density-functional theory', SoftwareX 6, 278 (2017)

   gga-PBE exchange-correlation functional:
      J.P. Perdew, K. Burke and M. Ernzerhof, Phys. Rev. Lett. 77, 3865 (1996)

   Pseudopotentials:
      M Schlipf and F Gygi, Comput. Phys. Commun. 196, 36 (2015)

   Truncated Coulomb potentials:
      R. Sundararaman and T.A. Arias, Phys. Rev. B 87, 165122 (2013)

This list may not be complete. Please suggest additional citations or
report any other bugs at https://github.com/shankar1729/jdftx/issues

Initialization completed successfully at t[s]:     12.48


-------- Electronic minimization -----------
Will mix electronic density at each iteration.
	FillingsUpdate:  mu: -0.094589440  nElectrons: 9.000000  magneticMoment: [ Abs: 0.98000  Tot: +0.98000 ]
	FillingsUpdate:  mu: -0.094951593  nElectrons: 9.000000  magneticMoment: [ Abs: 0.98000  Tot: +0.98000 ]
SCF: Cycle:  0   F: -42.557238793510770   dF: -2.961e-04   |Residual|: 3.025e-03   |deigs|: 1.605e-01  t[s]:     16.91
	FillingsUpdate:  mu: -0.092998554  nElectrons: 9.000000  magneticMoment: [ Abs: 0.98342  Tot: +0.98000 ]
SCF: Cycle:  1   F: -42.557240164585679   dF: -1.371e-06   |Residual|: 1.115e-03   |deigs|: 1.408e-02  t[s]:     20.37
	FillingsUpdate:  mu: -0.093515372  nElectrons: 9.000000  magneticMoment: [ Abs: 0.98219  Tot: +0.98000 ]
SCF: Cycle:  2   F: -42.557241845654261   dF: -1.681e-06   |Residual|: 7.118e-04   |deigs|: 3.193e-03  t[s]:     23.86
	FillingsUpdate:  mu: -0.094133110  nElectrons: 9.000000  magneticMoment: [ Abs: 0.98277  Tot: +0.98000 ]
SCF: Cycle:  3   F: -42.557242064376830   dF: -2.187e-07   |Residual|: 4.495e-04   |deigs|: 1.626e-03  t[s]:     27.36
	FillingsUpdate:  mu: -0.093634640  nElectrons: 9.000000  magneticMoment: [ Abs: 0.98245  Tot: +0.98000 ]
SCF: Cycle:  4   F: -42.557241020485947   dF: +1.044e-06   |Residual|: 2.736e-04   |deigs|: 1.232e-03  t[s]:     30.99
	FillingsUpdate:  mu: -0.092436077  nElectrons: 9.000000  magneticMoment: [ Abs: 0.98238  Tot: +0.98000 ]
SCF: Cycle:  5   F: -42.557241346645256   dF: -3.262e-07   |Residual|: 1.711e-04   |deigs|: 1.135e-03  t[s]:     34.58
	FillingsUpdate:  mu: -0.092732852  nElectrons: 9.000000  magneticMoment: [ Abs: 0.98251  Tot: +0.98000 ]
SCF: Cycle:  6   F: -42.557242983161750   dF: -1.637e-06   |Residual|: 1.272e-04   |deigs|: 4.210e-04  t[s]:     38.27
	FillingsUpdate:  mu: -0.093156996  nElectrons: 9.000000  magneticMoment: [ Abs: 0.98247  Tot: +0.98000 ]
SCF: Cycle:  7   F: -42.557244036358547   dF: -1.053e-06   |Residual|: 9.938e-05   |deigs|: 4.012e-04  t[s]:     41.95
	FillingsUpdate:  mu: -0.093428659  nElectrons: 9.000000  magneticMoment: [ Abs: 0.98244  Tot: +0.98000 ]
SCF: Cycle:  8   F: -42.557244278539081   dF: -2.422e-07   |Residual|: 7.934e-05   |deigs|: 3.163e-04  t[s]:     45.79
	FillingsUpdate:  mu: -0.093534401  nElectrons: 9.000000  magneticMoment: [ Abs: 0.98246  Tot: +0.98000 ]
SCF: Cycle:  9   F: -42.557244146673760   dF: +1.319e-07   |Residual|: 6.453e-05   |deigs|: 3.533e-04  t[s]:     49.59
	FillingsUpdate:  mu: -0.093538400  nElectrons: 9.000000  magneticMoment: [ Abs: 0.98246  Tot: +0.98000 ]
SCF: Cycle: 10   F: -42.557244137798328   dF: +8.875e-09   |Residual|: 5.723e-05   |deigs|: 1.416e-04  t[s]:     53.60
	FillingsUpdate:  mu: -0.093483996  nElectrons: 9.000000  magneticMoment: [ Abs: 0.98260  Tot: +0.98000 ]
SCF: Cycle: 11   F: -42.557244218137406   dF: -8.034e-08   |Residual|: 4.421e-05   |deigs|: 1.195e-04  t[s]:     57.56
	FillingsUpdate:  mu: -0.093431844  nElectrons: 9.000000  magneticMoment: [ Abs: 0.98272  Tot: +0.98000 ]
SCF: Cycle: 12   F: -42.557244350678239   dF: -1.325e-07   |Residual|: 3.578e-05   |deigs|: 1.009e-04  t[s]:     61.49
	FillingsUpdate:  mu: -0.093346894  nElectrons: 9.000000  magneticMoment: [ Abs: 0.98274  Tot: +0.98000 ]
SCF: Cycle: 13   F: -42.557244378517261   dF: -2.784e-08   |Residual|: 3.466e-05   |deigs|: 1.067e-04  t[s]:     65.53
	FillingsUpdate:  mu: -0.093267632  nElectrons: 9.000000  magneticMoment: [ Abs: 0.98273  Tot: +0.98000 ]
SCF: Cycle: 14   F: -42.557244309821748   dF: +6.870e-08   |Residual|: 3.376e-05   |deigs|: 8.371e-05  t[s]:     69.55
	FillingsUpdate:  mu: -0.093302855  nElectrons: 9.000000  magneticMoment: [ Abs: 0.98271  Tot: +0.98000 ]
SCF: Cycle: 15   F: -42.557244282624843   dF: +2.720e-08   |Residual|: 3.150e-05   |deigs|: 9.892e-05  t[s]:     73.52
	FillingsUpdate:  mu: -0.093323684  nElectrons: 9.000000  magneticMoment: [ Abs: 0.98252  Tot: +0.98000 ]
SCF: Cycle: 16   F: -42.557244544199058   dF: -2.616e-07   |Residual|: 2.584e-05   |deigs|: 2.149e-04  t[s]:     77.44
	FillingsUpdate:  mu: -0.093294377  nElectrons: 9.000000  magneticMoment: [ Abs: 0.98252  Tot: +0.98000 ]
SCF: Cycle: 17   F: -42.557244524893363   dF: +1.931e-08   |Residual|: 1.954e-05   |deigs|: 7.846e-05  t[s]:     81.36
	FillingsUpdate:  mu: -0.093265982  nElectrons: 9.000000  magneticMoment: [ Abs: 0.98254  Tot: +0.98000 ]
SCF: Cycle: 18   F: -42.557244548612879   dF: -2.372e-08   |Residual|: 1.483e-05   |deigs|: 6.396e-05  t[s]:     85.34
	FillingsUpdate:  mu: -0.093256250  nElectrons: 9.000000  magneticMoment: [ Abs: 0.98250  Tot: +0.98000 ]
SCF: Cycle: 19   F: -42.557244546547288   dF: +2.066e-09   |Residual|: 9.684e-06   |deigs|: 7.317e-05  t[s]:     89.27
	FillingsUpdate:  mu: -0.093242692  nElectrons: 9.000000  magneticMoment: [ Abs: 0.98250  Tot: +0.98000 ]
SCF: Cycle: 20   F: -42.557244592876238   dF: -4.633e-08   |Residual|: 5.614e-06   |deigs|: 8.078e-05  t[s]:     93.27
	FillingsUpdate:  mu: -0.093244472  nElectrons: 9.000000  magneticMoment: [ Abs: 0.98250  Tot: +0.98000 ]
SCF: Cycle: 21   F: -42.557244599482217   dF: -6.606e-09   |Residual|: 3.558e-06   |deigs|: 6.382e-05  t[s]:     97.14
	FillingsUpdate:  mu: -0.093246661  nElectrons: 9.000000  magneticMoment: [ Abs: 0.98250  Tot: +0.98000 ]
SCF: Cycle: 22   F: -42.557244607651207   dF: -8.169e-09   |Residual|: 2.194e-06   |deigs|: 4.002e-05  t[s]:    101.04
SCF: Converged (|Delta E|<1.000000e-08 for 2 iters).


# Ionic positions in lattice coordinates:
ion Na   0.000000000000000   0.000000000000000   0.000000000000000 0

# Forces in Lattice coordinates:
force Na   0.000000000000000   0.000000000000000   0.000000000000000 0

# Energy components:
   Eewald =      -12.0320174002217755
       EH =       21.7999221129504051
     Eloc =      -54.8385390303600104
      Enl =      -12.9042107443720759
   Epulay =       -0.0000003132867683
      Exc =       -6.2208420161896871
       KE =       21.6384429754238035
-------------------------------------
     Etot =      -42.5572444160561076
       TS =        0.0000001915950980
-------------------------------------
        F =      -42.5572446076512065

IonicMinimize: Iter:   0  F: -42.557244607651207  |grad|_K:  0.000e+00  t[s]:    101.18
IonicMinimize: Converged (|grad|_K<1.000000e-04).

#--- Lowdin population analysis ---
# oxidation-state Na +0.002
# magnetic-moments Na +0.978

End date and time: Sat Feb  5 22:39:29 2022  (Duration: 0-0:01:41.23)
Done!
