
*************** JDFTx 1.6.0 (git hash 42ebbcc2) ***************

Start date and time: Sat Feb  5 22:35:25 2022
Executable jdftx with command-line: -i Alkali.in
Running on hosts (process indices):  d-4-6-3 (0-18)
Divided in process groups (process indices):  0 (0)  1 (1)  2 (2)  3 (3)  4 (4)  5 (5)  6 (6)  7 (7)  8 (8)  9 (9)  10 (10)  11 (11)  12 (12)  13 (13)  14 (14)  15 (15)  16 (16)  17 (17)  18 (18)
Resource initialization completed at t[s]:      0.00
Run totals: 19 processes, 48 threads, 0 GPUs


Input parsed successfully to the following command list (including defaults):

basis kpoint-dependent
coords-type Lattice
core-overlap-check vector
coulomb-interaction Slab 001
davidson-band-ratio 1.1
dump End None
dump-name $INPUT.$VAR
elec-cutoff 20
elec-eigen-algo Davidson
elec-ex-corr gga-PBE
elec-initial-magnetization 0.820000 yes
elec-smearing Fermi 1e-05
electronic-minimize  \
	dirUpdateScheme      FletcherReeves \
	linminMethod         DirUpdateRecommended \
	nIterations          100 \
	history              15 \
	knormThreshold       0 \
	energyDiffThreshold  1e-08 \
	nEnergyDiff          2 \
	alphaTstart          1 \
	alphaTmin            1e-10 \
	updateTestStepSize   yes \
	alphaTreduceFactor   0.1 \
	alphaTincreaseFactor 3 \
	nAlphaAdjustMax      3 \
	wolfeEnergy          0.0001 \
	wolfeGradient        0.9 \
	fdTest               no
electronic-scf  \
	nIterations	10000 \
	energyDiffThreshold	1e-08 \
	residualThreshold	1e-07 \
	mixFraction	0.5 \
	qMetric	0.8 \
	history	10 \
	nEigSteps	2 \
	eigDiffThreshold	1e-08 \
	mixedVariable	Density \
	qKerker	0.8 \
	qKappa	-1 \
	verbose	no \
	mixFractionMag	1.5
exchange-regularization WignerSeitzTruncated
fluid None
fluid-ex-corr (null) lda-PZ
fluid-gummel-loop 10 1.000000e-05
fluid-minimize  \
	dirUpdateScheme      PolakRibiere \
	linminMethod         DirUpdateRecommended \
	nIterations          100 \
	history              15 \
	knormThreshold       0 \
	energyDiffThreshold  0 \
	nEnergyDiff          2 \
	alphaTstart          1 \
	alphaTmin            1e-10 \
	updateTestStepSize   yes \
	alphaTreduceFactor   0.1 \
	alphaTincreaseFactor 3 \
	nAlphaAdjustMax      3 \
	wolfeEnergy          0.0001 \
	wolfeGradient        0.9 \
	fdTest               no
fluid-solvent H2O 55.338 ScalarEOS \
	epsBulk 78.4 \
	pMol 0.92466 \
	epsInf 1.77 \
	Pvap 1.06736e-10 \
	sigmaBulk 4.62e-05 \
	Rvdw 2.61727 \
	Res 1.42 \
	tauNuc 343133 \
	poleEl 15 7 1
forces-output-coords Positions
ion Na   0.000000000000000   0.000000000000000   0.000000000000000 0
ion-species SG15/$ID_ONCV_PBE.upf
ion-width 0
ionic-minimize  \
	dirUpdateScheme      L-BFGS \
	linminMethod         DirUpdateRecommended \
	nIterations          0 \
	history              15 \
	knormThreshold       0.0001 \
	energyDiffThreshold  1e-06 \
	nEnergyDiff          2 \
	alphaTstart          1 \
	alphaTmin            1e-10 \
	updateTestStepSize   yes \
	alphaTreduceFactor   0.1 \
	alphaTincreaseFactor 3 \
	nAlphaAdjustMax      3 \
	wolfeEnergy          0.0001 \
	wolfeGradient        0.9 \
	fdTest               no
kpoint   0.000000000000   0.000000000000   0.000000000000  1.00000000000000
kpoint-folding 12 12 1 
latt-move-scale 1 1 1
latt-scale 3 3 1 
lattice  \
	   4.727486978767153   -2.363743489383575    0.000000000000000  \
	  -0.000000000000000    4.094123819672498    0.000000000000000  \
	   0.000000000000000    0.000000000000000   40.000000000000000 
lattice-minimize  \
	dirUpdateScheme      L-BFGS \
	linminMethod         DirUpdateRecommended \
	nIterations          0 \
	history              15 \
	knormThreshold       0 \
	energyDiffThreshold  1e-06 \
	nEnergyDiff          2 \
	alphaTstart          1 \
	alphaTmin            1e-10 \
	updateTestStepSize   yes \
	alphaTreduceFactor   0.1 \
	alphaTincreaseFactor 3 \
	nAlphaAdjustMax      3 \
	wolfeEnergy          0.0001 \
	wolfeGradient        0.9 \
	fdTest               no
lcao-params -1 1e-06 1e-05
pcm-variant GLSSA13
spintype z-spin
subspace-rotation-factor 1 yes
symmetries automatic
symmetry-threshold 0.0001



---------- Setting up symmetries ----------

Found 24 point-group symmetries of the bravais lattice
Found 24 space-group symmetries with basis
Applied RMS atom displacement 0 bohrs to make symmetries exact.

---------- Initializing the Grid ----------
R = 
[      14.1825     -7.09123            0  ]
[            0      12.2824            0  ]
[            0            0           40  ]
unit cell volume = 6967.77
G =
[   0.443025   0.255781         -0  ]
[          0   0.511561         -0  ]
[         -0         -0    0.15708  ]
Minimum fftbox size, Smin = [  60  60  164  ]
Chosen fftbox size, S = [  60  60  168  ]

---------- Exchange Correlation functional ----------
Initalized PBE GGA exchange.
Initalized PBE GGA correlation.

---------- Setting up pseudopotentials ----------
Width of ionic core gaussian charges (only for fluid interactions / plotting) set to 0

Reading pseudopotential file '/home/gridsan/aligho/DFT/build-Nov24/pseudopotentials/SG15/Na_ONCV_PBE.upf':
  'Na' pseudopotential, 'PBE' functional
  Generated using ONCVPSP code by D. R. Hamann
  Author: Martin Schlipf and Francois Gygi  Date: 150915.
  9 valence electrons, 3 orbitals, 4 projectors, 1992 radial grid points, with lMax = 1
  Transforming local potential to a uniform radial grid of dG=0.02 with 1489 points.
  Transforming nonlocal projectors to a uniform radial grid of dG=0.02 with 432 points.
    2S    l: 0   occupation:  2.0   eigenvalue: -2.085640
    2P    l: 1   occupation:  6.0   eigenvalue: -1.053708
    3S    l: 0   occupation:  1.0   eigenvalue: -0.100838
  Transforming atomic orbitals to a uniform radial grid of dG=0.02 with 432 points.
  Core radius for overlap checks: 2.01 bohrs.
  Reading pulay file /home/gridsan/aligho/DFT/build-Nov24/pseudopotentials/SG15/Na_ONCV_PBE.pulay ... using dE_dnG = -2.946487e-03 computed for Ecut = 20.

Initialized 1 species with 1 total atoms.

Folded 1 k-points by 12x12x1 to 144 k-points.

---------- Setting up k-points, bands, fillings ----------
Reduced to 19 k-points under symmetry. 
Computing the number of bands and number of electrons
Calculating initial fillings.
nElectrons:   9.000000   nBands: 6   nStates: 38

----- Setting up reduced wavefunction bases (one per k-point) -----
average nbasis = 29766.104 , ideal nbasis = 29766.845

---------- Setting up coulomb interaction ----------
Initialized slab truncation along lattice direction 001

---------- Setting up 2D ewald sum ----------
Optimum gaussian width for ewald sums = 7.873530 bohr.
Real space sums over 289 unit cells with max indices [  8  8  0  ]
Reciprocal space sums over 81 terms with max indices [  4  4  0  ]

---------- Allocating electronic variables ----------
Initializing wave functions:  linear combination of atomic orbitals
Note: number of bands (6) exceeds available atomic orbitals (5)
Na pseudo-atom occupations:   s ( 2 1 )  p ( 6 )
	FillingsUpdate:  mu: -0.101156450  nElectrons: 9.000000  magneticMoment: [ Abs: 0.82000  Tot: +0.82000 ]
LCAOMinimize: Iter:   0  F: -42.5555184693524140  |grad|_K:  4.062e-06  alpha:  1.000e+00
	FillingsUpdate:  mu: -0.101155514  nElectrons: 9.000000  magneticMoment: [ Abs: 0.82000  Tot: +0.82000 ]
LCAOMinimize: Iter:   1  F: -42.5555184805977760  |grad|_K:  1.662e-08  alpha:  9.966e-01  linmin: -6.794e-03  cgtest:  2.092e-01  t[s]:      8.74
LCAOMinimize: Encountered beta<0, resetting CG.
LCAOMinimize: 	Step increased F by 8.526513e-14, reducing alpha to 3.427796e-02.
LCAOMinimize: 	Step increased F by 1.278977e-13, reducing alpha to 3.427796e-03.
LCAOMinimize: 	Step increased F by 1.563194e-13, reducing alpha to 3.427796e-04.
LCAOMinimize: 	Step failed to reduce F after 3 attempts. Quitting step.
LCAOMinimize: 	Undoing step.
LCAOMinimize: 	Step failed along negative gradient direction.
LCAOMinimize: Probably at roundoff error limit. (Stopping)


---- Citations for features of the code used in this run ----

   Software package:
      R. Sundararaman, K. Letchworth-Weaver, K.A. Schwarz, D. Gunceler, Y. Ozhabes and T.A. Arias, 'JDFTx: software for joint density-functional theory', SoftwareX 6, 278 (2017)

   gga-PBE exchange-correlation functional:
      J.P. Perdew, K. Burke and M. Ernzerhof, Phys. Rev. Lett. 77, 3865 (1996)

   Pseudopotentials:
      M Schlipf and F Gygi, Comput. Phys. Commun. 196, 36 (2015)

   Truncated Coulomb potentials:
      R. Sundararaman and T.A. Arias, Phys. Rev. B 87, 165122 (2013)

This list may not be complete. Please suggest additional citations or
report any other bugs at https://github.com/shankar1729/jdftx/issues

Initialization completed successfully at t[s]:     15.39


-------- Electronic minimization -----------
Will mix electronic density at each iteration.
	FillingsUpdate:  mu: -0.101155514  nElectrons: 9.000000  magneticMoment: [ Abs: 0.82000  Tot: +0.82000 ]
	FillingsUpdate:  mu: -0.101392475  nElectrons: 9.000000  magneticMoment: [ Abs: 0.82000  Tot: +0.82000 ]
SCF: Cycle:  0   F: -42.555782006964058   dF: -2.635e-04   |Residual|: 2.489e-03   |deigs|: 1.673e-01  t[s]:     19.86
	FillingsUpdate:  mu: -0.101433560  nElectrons: 9.000000  magneticMoment: [ Abs: 0.82224  Tot: +0.82000 ]
SCF: Cycle:  1   F: -42.555784839396914   dF: -2.832e-06   |Residual|: 9.275e-04   |deigs|: 1.024e-02  t[s]:     23.31
	FillingsUpdate:  mu: -0.101324942  nElectrons: 9.000000  magneticMoment: [ Abs: 0.82158  Tot: +0.82000 ]
SCF: Cycle:  2   F: -42.555785646158597   dF: -8.068e-07   |Residual|: 5.118e-04   |deigs|: 2.559e-03  t[s]:     26.87
	FillingsUpdate:  mu: -0.101245661  nElectrons: 9.000000  magneticMoment: [ Abs: 0.82194  Tot: +0.82000 ]
SCF: Cycle:  3   F: -42.555786006144288   dF: -3.600e-07   |Residual|: 2.975e-04   |deigs|: 1.177e-03  t[s]:     30.40
	FillingsUpdate:  mu: -0.101156660  nElectrons: 9.000000  magneticMoment: [ Abs: 0.82176  Tot: +0.82000 ]
SCF: Cycle:  4   F: -42.555786157518817   dF: -1.514e-07   |Residual|: 2.158e-04   |deigs|: 8.088e-04  t[s]:     34.01
	FillingsUpdate:  mu: -0.100980240  nElectrons: 9.000000  magneticMoment: [ Abs: 0.82174  Tot: +0.82000 ]
SCF: Cycle:  5   F: -42.555786250345655   dF: -9.283e-08   |Residual|: 1.437e-04   |deigs|: 9.610e-04  t[s]:     37.74
	FillingsUpdate:  mu: -0.100914954  nElectrons: 9.000000  magneticMoment: [ Abs: 0.82179  Tot: +0.82000 ]
SCF: Cycle:  6   F: -42.555786312163491   dF: -6.182e-08   |Residual|: 1.087e-04   |deigs|: 6.269e-04  t[s]:     41.52
	FillingsUpdate:  mu: -0.100850595  nElectrons: 9.000000  magneticMoment: [ Abs: 0.82177  Tot: +0.82000 ]
SCF: Cycle:  7   F: -42.555786377626333   dF: -6.546e-08   |Residual|: 8.765e-05   |deigs|: 2.833e-04  t[s]:     45.32
	FillingsUpdate:  mu: -0.100822105  nElectrons: 9.000000  magneticMoment: [ Abs: 0.82174  Tot: +0.82000 ]
SCF: Cycle:  8   F: -42.555786388670704   dF: -1.104e-08   |Residual|: 7.115e-05   |deigs|: 3.121e-04  t[s]:     49.22
	FillingsUpdate:  mu: -0.100765541  nElectrons: 9.000000  magneticMoment: [ Abs: 0.82192  Tot: +0.82000 ]
SCF: Cycle:  9   F: -42.555786331183434   dF: +5.749e-08   |Residual|: 5.895e-05   |deigs|: 2.540e-04  t[s]:     53.24
	FillingsUpdate:  mu: -0.100740040  nElectrons: 9.000000  magneticMoment: [ Abs: 0.82187  Tot: +0.82000 ]
SCF: Cycle: 10   F: -42.555786294360139   dF: +3.682e-08   |Residual|: 4.875e-05   |deigs|: 1.693e-04  t[s]:     57.25
	FillingsUpdate:  mu: -0.100682173  nElectrons: 9.000000  magneticMoment: [ Abs: 0.82186  Tot: +0.82000 ]
SCF: Cycle: 11   F: -42.555786154509669   dF: +1.399e-07   |Residual|: 3.958e-05   |deigs|: 1.567e-04  t[s]:     61.23
	FillingsUpdate:  mu: -0.100697747  nElectrons: 9.000000  magneticMoment: [ Abs: 0.82204  Tot: +0.82000 ]
SCF: Cycle: 12   F: -42.555786387179090   dF: -2.327e-07   |Residual|: 3.978e-05   |deigs|: 8.620e-05  t[s]:     65.23
	FillingsUpdate:  mu: -0.100615209  nElectrons: 9.000000  magneticMoment: [ Abs: 0.82211  Tot: +0.82000 ]
SCF: Cycle: 13   F: -42.555786431718310   dF: -4.454e-08   |Residual|: 3.252e-05   |deigs|: 1.035e-04  t[s]:     69.18
	FillingsUpdate:  mu: -0.100527766  nElectrons: 9.000000  magneticMoment: [ Abs: 0.82208  Tot: +0.82000 ]
SCF: Cycle: 14   F: -42.555786316728529   dF: +1.150e-07   |Residual|: 3.299e-05   |deigs|: 1.104e-04  t[s]:     73.26
	FillingsUpdate:  mu: -0.100458616  nElectrons: 9.000000  magneticMoment: [ Abs: 0.82203  Tot: +0.82000 ]
SCF: Cycle: 15   F: -42.555786430052500   dF: -1.133e-07   |Residual|: 3.066e-05   |deigs|: 8.857e-05  t[s]:     77.28
	FillingsUpdate:  mu: -0.100453331  nElectrons: 9.000000  magneticMoment: [ Abs: 0.82183  Tot: +0.82000 ]
SCF: Cycle: 16   F: -42.555786483546051   dF: -5.349e-08   |Residual|: 2.290e-05   |deigs|: 5.904e-05  t[s]:     81.23
	FillingsUpdate:  mu: -0.100409634  nElectrons: 9.000000  magneticMoment: [ Abs: 0.82178  Tot: +0.82000 ]
SCF: Cycle: 17   F: -42.555786526965420   dF: -4.342e-08   |Residual|: 1.774e-05   |deigs|: 5.030e-05  t[s]:     85.31
	FillingsUpdate:  mu: -0.100369695  nElectrons: 9.000000  magneticMoment: [ Abs: 0.82177  Tot: +0.82000 ]
SCF: Cycle: 18   F: -42.555786536692189   dF: -9.727e-09   |Residual|: 1.217e-05   |deigs|: 4.530e-05  t[s]:     89.18
	FillingsUpdate:  mu: -0.100355831  nElectrons: 9.000000  magneticMoment: [ Abs: 0.82177  Tot: +0.82000 ]
SCF: Cycle: 19   F: -42.555786542575049   dF: -5.883e-09   |Residual|: 9.045e-06   |deigs|: 2.120e-05  t[s]:     93.20
SCF: Converged (|Delta E|<1.000000e-08 for 2 iters).


# Ionic positions in lattice coordinates:
ion Na   0.000000000000000   0.000000000000000   0.000000000000000 0

# Forces in Lattice coordinates:
force Na   0.000000000000000   0.000000000000000   0.000000000000000 0

# Energy components:
   Eewald =      -12.0320174002217755
       EH =       21.7737543340783084
     Eloc =      -54.8101620570911550
      Enl =      -12.9042384382374671
   Epulay =       -0.0000003132867683
      Exc =       -6.2161565320349688
       KE =       21.6330341265366215
-------------------------------------
     Etot =      -42.5557862802572018
       TS =        0.0000002623178494
-------------------------------------
        F =      -42.5557865425750492

IonicMinimize: Iter:   0  F: -42.555786542575049  |grad|_K:  0.000e+00  t[s]:     93.35
IonicMinimize: Converged (|grad|_K<1.000000e-04).

#--- Lowdin population analysis ---
# oxidation-state Na +0.002
# magnetic-moments Na +0.818

End date and time: Sat Feb  5 22:36:58 2022  (Duration: 0-0:01:33.39)
Done!
