
*************** JDFTx 1.6.0 (git hash 42ebbcc2) ***************

Start date and time: Sat Feb  5 22:33:39 2022
Executable jdftx with command-line: -i Alkali.in
Running on hosts (process indices):  d-16-12-3 (0-18)
Divided in process groups (process indices):  0 (0)  1 (1)  2 (2)  3 (3)  4 (4)  5 (5)  6 (6)  7 (7)  8 (8)  9 (9)  10 (10)  11 (11)  12 (12)  13 (13)  14 (14)  15 (15)  16 (16)  17 (17)  18 (18)
Resource initialization completed at t[s]:      0.00
Run totals: 19 processes, 48 threads, 0 GPUs


Input parsed successfully to the following command list (including defaults):

basis kpoint-dependent
coords-type Lattice
core-overlap-check vector
coulomb-interaction Slab 001
davidson-band-ratio 1.1
dump End None
dump-name $INPUT.$VAR
elec-cutoff 20
elec-eigen-algo Davidson
elec-ex-corr gga-PBE
elec-initial-magnetization 0.540000 yes
elec-smearing Fermi 1e-05
electronic-minimize  \
	dirUpdateScheme      FletcherReeves \
	linminMethod         DirUpdateRecommended \
	nIterations          100 \
	history              15 \
	knormThreshold       0 \
	energyDiffThreshold  1e-08 \
	nEnergyDiff          2 \
	alphaTstart          1 \
	alphaTmin            1e-10 \
	updateTestStepSize   yes \
	alphaTreduceFactor   0.1 \
	alphaTincreaseFactor 3 \
	nAlphaAdjustMax      3 \
	wolfeEnergy          0.0001 \
	wolfeGradient        0.9 \
	fdTest               no
electronic-scf  \
	nIterations	10000 \
	energyDiffThreshold	1e-08 \
	residualThreshold	1e-07 \
	mixFraction	0.5 \
	qMetric	0.8 \
	history	10 \
	nEigSteps	2 \
	eigDiffThreshold	1e-08 \
	mixedVariable	Density \
	qKerker	0.8 \
	qKappa	-1 \
	verbose	no \
	mixFractionMag	1.5
exchange-regularization WignerSeitzTruncated
fluid None
fluid-ex-corr (null) lda-PZ
fluid-gummel-loop 10 1.000000e-05
fluid-minimize  \
	dirUpdateScheme      PolakRibiere \
	linminMethod         DirUpdateRecommended \
	nIterations          100 \
	history              15 \
	knormThreshold       0 \
	energyDiffThreshold  0 \
	nEnergyDiff          2 \
	alphaTstart          1 \
	alphaTmin            1e-10 \
	updateTestStepSize   yes \
	alphaTreduceFactor   0.1 \
	alphaTincreaseFactor 3 \
	nAlphaAdjustMax      3 \
	wolfeEnergy          0.0001 \
	wolfeGradient        0.9 \
	fdTest               no
fluid-solvent H2O 55.338 ScalarEOS \
	epsBulk 78.4 \
	pMol 0.92466 \
	epsInf 1.77 \
	Pvap 1.06736e-10 \
	sigmaBulk 4.62e-05 \
	Rvdw 2.61727 \
	Res 1.42 \
	tauNuc 343133 \
	poleEl 15 7 1
forces-output-coords Positions
ion Na   0.000000000000000   0.000000000000000   0.000000000000000 0
ion-species SG15/$ID_ONCV_PBE.upf
ion-width 0
ionic-minimize  \
	dirUpdateScheme      L-BFGS \
	linminMethod         DirUpdateRecommended \
	nIterations          0 \
	history              15 \
	knormThreshold       0.0001 \
	energyDiffThreshold  1e-06 \
	nEnergyDiff          2 \
	alphaTstart          1 \
	alphaTmin            1e-10 \
	updateTestStepSize   yes \
	alphaTreduceFactor   0.1 \
	alphaTincreaseFactor 3 \
	nAlphaAdjustMax      3 \
	wolfeEnergy          0.0001 \
	wolfeGradient        0.9 \
	fdTest               no
kpoint   0.000000000000   0.000000000000   0.000000000000  1.00000000000000
kpoint-folding 12 12 1 
latt-move-scale 1 1 1
latt-scale 3 3 1 
lattice  \
	   4.727486978767153   -2.363743489383575    0.000000000000000  \
	  -0.000000000000000    4.094123819672498    0.000000000000000  \
	   0.000000000000000    0.000000000000000   40.000000000000000 
lattice-minimize  \
	dirUpdateScheme      L-BFGS \
	linminMethod         DirUpdateRecommended \
	nIterations          0 \
	history              15 \
	knormThreshold       0 \
	energyDiffThreshold  1e-06 \
	nEnergyDiff          2 \
	alphaTstart          1 \
	alphaTmin            1e-10 \
	updateTestStepSize   yes \
	alphaTreduceFactor   0.1 \
	alphaTincreaseFactor 3 \
	nAlphaAdjustMax      3 \
	wolfeEnergy          0.0001 \
	wolfeGradient        0.9 \
	fdTest               no
lcao-params -1 1e-06 1e-05
pcm-variant GLSSA13
spintype z-spin
subspace-rotation-factor 1 yes
symmetries automatic
symmetry-threshold 0.0001



---------- Setting up symmetries ----------

Found 24 point-group symmetries of the bravais lattice
Found 24 space-group symmetries with basis
Applied RMS atom displacement 0 bohrs to make symmetries exact.

---------- Initializing the Grid ----------
R = 
[      14.1825     -7.09123            0  ]
[            0      12.2824            0  ]
[            0            0           40  ]
unit cell volume = 6967.77
G =
[   0.443025   0.255781         -0  ]
[          0   0.511561         -0  ]
[         -0         -0    0.15708  ]
Minimum fftbox size, Smin = [  60  60  164  ]
Chosen fftbox size, S = [  60  60  168  ]

---------- Exchange Correlation functional ----------
Initalized PBE GGA exchange.
Initalized PBE GGA correlation.

---------- Setting up pseudopotentials ----------
Width of ionic core gaussian charges (only for fluid interactions / plotting) set to 0

Reading pseudopotential file '/home/gridsan/aligho/DFT/build-Nov24/pseudopotentials/SG15/Na_ONCV_PBE.upf':
  'Na' pseudopotential, 'PBE' functional
  Generated using ONCVPSP code by D. R. Hamann
  Author: Martin Schlipf and Francois Gygi  Date: 150915.
  9 valence electrons, 3 orbitals, 4 projectors, 1992 radial grid points, with lMax = 1
  Transforming local potential to a uniform radial grid of dG=0.02 with 1489 points.
  Transforming nonlocal projectors to a uniform radial grid of dG=0.02 with 432 points.
    2S    l: 0   occupation:  2.0   eigenvalue: -2.085640
    2P    l: 1   occupation:  6.0   eigenvalue: -1.053708
    3S    l: 0   occupation:  1.0   eigenvalue: -0.100838
  Transforming atomic orbitals to a uniform radial grid of dG=0.02 with 432 points.
  Core radius for overlap checks: 2.01 bohrs.
  Reading pulay file /home/gridsan/aligho/DFT/build-Nov24/pseudopotentials/SG15/Na_ONCV_PBE.pulay ... using dE_dnG = -2.946487e-03 computed for Ecut = 20.

Initialized 1 species with 1 total atoms.

Folded 1 k-points by 12x12x1 to 144 k-points.

---------- Setting up k-points, bands, fillings ----------
Reduced to 19 k-points under symmetry. 
Computing the number of bands and number of electrons
Calculating initial fillings.
nElectrons:   9.000000   nBands: 6   nStates: 38

----- Setting up reduced wavefunction bases (one per k-point) -----
average nbasis = 29766.104 , ideal nbasis = 29766.845

---------- Setting up coulomb interaction ----------
Initialized slab truncation along lattice direction 001

---------- Setting up 2D ewald sum ----------
Optimum gaussian width for ewald sums = 7.873530 bohr.
Real space sums over 289 unit cells with max indices [  8  8  0  ]
Reciprocal space sums over 81 terms with max indices [  4  4  0  ]

---------- Allocating electronic variables ----------
Initializing wave functions:  linear combination of atomic orbitals
Note: number of bands (6) exceeds available atomic orbitals (5)
Na pseudo-atom occupations:   s ( 2 1 )  p ( 6 )
	FillingsUpdate:  mu: -0.102128456  nElectrons: 9.000000  magneticMoment: [ Abs: 0.54000  Tot: +0.54000 ]
LCAOMinimize: Iter:   0  F: -42.5539495515017023  |grad|_K:  7.120e-06  alpha:  1.000e+00
	FillingsUpdate:  mu: -0.102126934  nElectrons: 9.000000  magneticMoment: [ Abs: 0.54000  Tot: +0.54000 ]
LCAOMinimize: Iter:   1  F: -42.5539495860010248  |grad|_K:  3.690e-08  alpha:  9.948e-01  linmin: -1.213e-03  cgtest:  3.568e-01  t[s]:      8.82
LCAOMinimize: Encountered beta<0, resetting CG.
LCAOMinimize: 	Step increased F by 4.760636e-13, reducing alpha to 7.088090e-02.
LCAOMinimize: 	Step increased F by 4.902745e-13, reducing alpha to 7.088090e-03.
LCAOMinimize: 	Step increased F by 3.126388e-13, reducing alpha to 7.088090e-04.
LCAOMinimize: 	Step failed to reduce F after 3 attempts. Quitting step.
LCAOMinimize: 	Undoing step.
LCAOMinimize: 	Step failed along negative gradient direction.
LCAOMinimize: Probably at roundoff error limit. (Stopping)


---- Citations for features of the code used in this run ----

   Software package:
      R. Sundararaman, K. Letchworth-Weaver, K.A. Schwarz, D. Gunceler, Y. Ozhabes and T.A. Arias, 'JDFTx: software for joint density-functional theory', SoftwareX 6, 278 (2017)

   gga-PBE exchange-correlation functional:
      J.P. Perdew, K. Burke and M. Ernzerhof, Phys. Rev. Lett. 77, 3865 (1996)

   Pseudopotentials:
      M Schlipf and F Gygi, Comput. Phys. Commun. 196, 36 (2015)

   Truncated Coulomb potentials:
      R. Sundararaman and T.A. Arias, Phys. Rev. B 87, 165122 (2013)

This list may not be complete. Please suggest additional citations or
report any other bugs at https://github.com/shankar1729/jdftx/issues

Initialization completed successfully at t[s]:     15.51


-------- Electronic minimization -----------
Will mix electronic density at each iteration.
	FillingsUpdate:  mu: -0.102126934  nElectrons: 9.000000  magneticMoment: [ Abs: 0.54000  Tot: +0.54000 ]
	FillingsUpdate:  mu: -0.102405976  nElectrons: 9.000000  magneticMoment: [ Abs: 0.54000  Tot: +0.54000 ]
SCF: Cycle:  0   F: -42.554230502928050   dF: -2.809e-04   |Residual|: 2.093e-03   |deigs|: 1.723e-01  t[s]:     20.05
	FillingsUpdate:  mu: -0.102472842  nElectrons: 9.000000  magneticMoment: [ Abs: 0.54104  Tot: +0.54000 ]
SCF: Cycle:  1   F: -42.554234543775337   dF: -4.041e-06   |Residual|: 9.786e-04   |deigs|: 6.057e-03  t[s]:     23.57
	FillingsUpdate:  mu: -0.102505523  nElectrons: 9.000000  magneticMoment: [ Abs: 0.54084  Tot: +0.54000 ]
SCF: Cycle:  2   F: -42.554235455061338   dF: -9.113e-07   |Residual|: 5.235e-04   |deigs|: 3.160e-03  t[s]:     27.16
	FillingsUpdate:  mu: -0.102562397  nElectrons: 9.000000  magneticMoment: [ Abs: 0.54106  Tot: +0.54000 ]
SCF: Cycle:  3   F: -42.554236161757188   dF: -7.067e-07   |Residual|: 3.572e-04   |deigs|: 1.125e-03  t[s]:     30.80
	FillingsUpdate:  mu: -0.102595642  nElectrons: 9.000000  magneticMoment: [ Abs: 0.54091  Tot: +0.54000 ]
SCF: Cycle:  4   F: -42.554236900151622   dF: -7.384e-07   |Residual|: 2.507e-04   |deigs|: 6.653e-04  t[s]:     34.51
	FillingsUpdate:  mu: -0.102653561  nElectrons: 9.000000  magneticMoment: [ Abs: 0.54102  Tot: +0.54000 ]
SCF: Cycle:  5   F: -42.554237704807299   dF: -8.047e-07   |Residual|: 1.388e-04   |deigs|: 5.140e-04  t[s]:     38.26
	FillingsUpdate:  mu: -0.102638555  nElectrons: 9.000000  magneticMoment: [ Abs: 0.54097  Tot: +0.54000 ]
SCF: Cycle:  6   F: -42.554237933915289   dF: -2.291e-07   |Residual|: 9.131e-05   |deigs|: 1.181e-03  t[s]:     42.02
	FillingsUpdate:  mu: -0.102617821  nElectrons: 9.000000  magneticMoment: [ Abs: 0.54102  Tot: +0.54000 ]
SCF: Cycle:  7   F: -42.554238040902668   dF: -1.070e-07   |Residual|: 6.738e-05   |deigs|: 6.615e-04  t[s]:     45.87
	FillingsUpdate:  mu: -0.102575469  nElectrons: 9.000000  magneticMoment: [ Abs: 0.54097  Tot: +0.54000 ]
SCF: Cycle:  8   F: -42.554238095151639   dF: -5.425e-08   |Residual|: 5.397e-05   |deigs|: 8.178e-04  t[s]:     49.79
	FillingsUpdate:  mu: -0.102511675  nElectrons: 9.000000  magneticMoment: [ Abs: 0.54105  Tot: +0.54000 ]
SCF: Cycle:  9   F: -42.554238107545324   dF: -1.239e-08   |Residual|: 4.664e-05   |deigs|: 3.891e-04  t[s]:     53.80
	FillingsUpdate:  mu: -0.102479477  nElectrons: 9.000000  magneticMoment: [ Abs: 0.54102  Tot: +0.54000 ]
SCF: Cycle: 10   F: -42.554238103329631   dF: +4.216e-09   |Residual|: 4.115e-05   |deigs|: 1.722e-04  t[s]:     57.85
	FillingsUpdate:  mu: -0.102416147  nElectrons: 9.000000  magneticMoment: [ Abs: 0.54117  Tot: +0.54000 ]
SCF: Cycle: 11   F: -42.554237983120586   dF: +1.202e-07   |Residual|: 3.227e-05   |deigs|: 1.047e-04  t[s]:     61.98
	FillingsUpdate:  mu: -0.102388659  nElectrons: 9.000000  magneticMoment: [ Abs: 0.54117  Tot: +0.54000 ]
SCF: Cycle: 12   F: -42.554238091424445   dF: -1.083e-07   |Residual|: 2.814e-05   |deigs|: 4.519e-05  t[s]:     65.99
	FillingsUpdate:  mu: -0.102344160  nElectrons: 9.000000  magneticMoment: [ Abs: 0.54117  Tot: +0.54000 ]
SCF: Cycle: 13   F: -42.554238092983816   dF: -1.559e-09   |Residual|: 2.686e-05   |deigs|: 5.502e-05  t[s]:     69.94
	FillingsUpdate:  mu: -0.102272357  nElectrons: 9.000000  magneticMoment: [ Abs: 0.54109  Tot: +0.54000 ]
SCF: Cycle: 14   F: -42.554238074642853   dF: +1.834e-08   |Residual|: 2.582e-05   |deigs|: 8.059e-05  t[s]:     74.03
	FillingsUpdate:  mu: -0.102241085  nElectrons: 9.000000  magneticMoment: [ Abs: 0.54104  Tot: +0.54000 ]
SCF: Cycle: 15   F: -42.554238103163556   dF: -2.852e-08   |Residual|: 2.353e-05   |deigs|: 4.628e-05  t[s]:     78.07
	FillingsUpdate:  mu: -0.102197990  nElectrons: 9.000000  magneticMoment: [ Abs: 0.54105  Tot: +0.54000 ]
SCF: Cycle: 16   F: -42.554238121330862   dF: -1.817e-08   |Residual|: 2.042e-05   |deigs|: 5.297e-05  t[s]:     82.17
	FillingsUpdate:  mu: -0.102150095  nElectrons: 9.000000  magneticMoment: [ Abs: 0.54101  Tot: +0.54000 ]
SCF: Cycle: 17   F: -42.554238139033686   dF: -1.770e-08   |Residual|: 1.627e-05   |deigs|: 5.775e-05  t[s]:     86.22
	FillingsUpdate:  mu: -0.102150126  nElectrons: 9.000000  magneticMoment: [ Abs: 0.54100  Tot: +0.54000 ]
SCF: Cycle: 18   F: -42.554238160431119   dF: -2.140e-08   |Residual|: 9.928e-06   |deigs|: 3.403e-05  t[s]:     90.18
	FillingsUpdate:  mu: -0.102142657  nElectrons: 9.000000  magneticMoment: [ Abs: 0.54099  Tot: +0.54000 ]
SCF: Cycle: 19   F: -42.554238165812066   dF: -5.381e-09   |Residual|: 5.350e-06   |deigs|: 2.690e-05  t[s]:     94.13
	FillingsUpdate:  mu: -0.102140090  nElectrons: 9.000000  magneticMoment: [ Abs: 0.54100  Tot: +0.54000 ]
SCF: Cycle: 20   F: -42.554238168477561   dF: -2.665e-09   |Residual|: 3.121e-06   |deigs|: 2.149e-05  t[s]:     98.09
SCF: Converged (|Delta E|<1.000000e-08 for 2 iters).


# Ionic positions in lattice coordinates:
ion Na   0.000000000000000   0.000000000000000   0.000000000000000 0

# Forces in Lattice coordinates:
force Na   0.000000000000000  -0.000000000000000   0.000000000000000 0

# Energy components:
   Eewald =      -12.0320174002217755
       EH =       21.7358500050871370
     Eloc =      -54.7691428317296314
      Enl =      -12.9044016132364661
   Epulay =       -0.0000003132867683
      Exc =       -6.2102267671572289
       KE =       21.6257013862850194
-------------------------------------
     Etot =      -42.5542375342597126
       TS =        0.0000006342178503
-------------------------------------
        F =      -42.5542381684775606

IonicMinimize: Iter:   0  F: -42.554238168477561  |grad|_K:  0.000e+00  t[s]:     98.24
IonicMinimize: Converged (|grad|_K<1.000000e-04).

#--- Lowdin population analysis ---
# oxidation-state Na +0.003
# magnetic-moments Na +0.538

End date and time: Sat Feb  5 22:35:17 2022  (Duration: 0-0:01:38.29)
Done!
