
*************** JDFTx 1.6.0 (git hash 42ebbcc2) ***************

Start date and time: Sat Feb  5 22:21:40 2022
Executable jdftx with command-line: -i Alkali.in
Running on hosts (process indices):  d-4-8-2 (0-18)
Divided in process groups (process indices):  0 (0)  1 (1)  2 (2)  3 (3)  4 (4)  5 (5)  6 (6)  7 (7)  8 (8)  9 (9)  10 (10)  11 (11)  12 (12)  13 (13)  14 (14)  15 (15)  16 (16)  17 (17)  18 (18)
Resource initialization completed at t[s]:      0.00
Run totals: 19 processes, 48 threads, 0 GPUs


Input parsed successfully to the following command list (including defaults):

basis kpoint-dependent
coords-type Lattice
core-overlap-check vector
coulomb-interaction Slab 001
davidson-band-ratio 1.1
dump End None
dump-name $INPUT.$VAR
elec-cutoff 20
elec-eigen-algo Davidson
elec-ex-corr gga-PBE
elec-initial-magnetization -0.880000 yes
elec-smearing Fermi 1e-05
electronic-minimize  \
	dirUpdateScheme      FletcherReeves \
	linminMethod         DirUpdateRecommended \
	nIterations          100 \
	history              15 \
	knormThreshold       0 \
	energyDiffThreshold  1e-08 \
	nEnergyDiff          2 \
	alphaTstart          1 \
	alphaTmin            1e-10 \
	updateTestStepSize   yes \
	alphaTreduceFactor   0.1 \
	alphaTincreaseFactor 3 \
	nAlphaAdjustMax      3 \
	wolfeEnergy          0.0001 \
	wolfeGradient        0.9 \
	fdTest               no
electronic-scf  \
	nIterations	10000 \
	energyDiffThreshold	1e-08 \
	residualThreshold	1e-07 \
	mixFraction	0.5 \
	qMetric	0.8 \
	history	10 \
	nEigSteps	2 \
	eigDiffThreshold	1e-08 \
	mixedVariable	Density \
	qKerker	0.8 \
	qKappa	-1 \
	verbose	no \
	mixFractionMag	1.5
exchange-regularization WignerSeitzTruncated
fluid None
fluid-ex-corr (null) lda-PZ
fluid-gummel-loop 10 1.000000e-05
fluid-minimize  \
	dirUpdateScheme      PolakRibiere \
	linminMethod         DirUpdateRecommended \
	nIterations          100 \
	history              15 \
	knormThreshold       0 \
	energyDiffThreshold  0 \
	nEnergyDiff          2 \
	alphaTstart          1 \
	alphaTmin            1e-10 \
	updateTestStepSize   yes \
	alphaTreduceFactor   0.1 \
	alphaTincreaseFactor 3 \
	nAlphaAdjustMax      3 \
	wolfeEnergy          0.0001 \
	wolfeGradient        0.9 \
	fdTest               no
fluid-solvent H2O 55.338 ScalarEOS \
	epsBulk 78.4 \
	pMol 0.92466 \
	epsInf 1.77 \
	Pvap 1.06736e-10 \
	sigmaBulk 4.62e-05 \
	Rvdw 2.61727 \
	Res 1.42 \
	tauNuc 343133 \
	poleEl 15 7 1
forces-output-coords Positions
ion Na   0.000000000000000   0.000000000000000   0.000000000000000 0
ion-species SG15/$ID_ONCV_PBE.upf
ion-width 0
ionic-minimize  \
	dirUpdateScheme      L-BFGS \
	linminMethod         DirUpdateRecommended \
	nIterations          0 \
	history              15 \
	knormThreshold       0.0001 \
	energyDiffThreshold  1e-06 \
	nEnergyDiff          2 \
	alphaTstart          1 \
	alphaTmin            1e-10 \
	updateTestStepSize   yes \
	alphaTreduceFactor   0.1 \
	alphaTincreaseFactor 3 \
	nAlphaAdjustMax      3 \
	wolfeEnergy          0.0001 \
	wolfeGradient        0.9 \
	fdTest               no
kpoint   0.000000000000   0.000000000000   0.000000000000  1.00000000000000
kpoint-folding 12 12 1 
latt-move-scale 1 1 1
latt-scale 3 3 1 
lattice  \
	   4.727486978767153   -2.363743489383575    0.000000000000000  \
	  -0.000000000000000    4.094123819672498    0.000000000000000  \
	   0.000000000000000    0.000000000000000   40.000000000000000 
lattice-minimize  \
	dirUpdateScheme      L-BFGS \
	linminMethod         DirUpdateRecommended \
	nIterations          0 \
	history              15 \
	knormThreshold       0 \
	energyDiffThreshold  1e-06 \
	nEnergyDiff          2 \
	alphaTstart          1 \
	alphaTmin            1e-10 \
	updateTestStepSize   yes \
	alphaTreduceFactor   0.1 \
	alphaTincreaseFactor 3 \
	nAlphaAdjustMax      3 \
	wolfeEnergy          0.0001 \
	wolfeGradient        0.9 \
	fdTest               no
lcao-params -1 1e-06 1e-05
pcm-variant GLSSA13
spintype z-spin
subspace-rotation-factor 1 yes
symmetries automatic
symmetry-threshold 0.0001



---------- Setting up symmetries ----------

Found 24 point-group symmetries of the bravais lattice
Found 24 space-group symmetries with basis
Applied RMS atom displacement 0 bohrs to make symmetries exact.

---------- Initializing the Grid ----------
R = 
[      14.1825     -7.09123            0  ]
[            0      12.2824            0  ]
[            0            0           40  ]
unit cell volume = 6967.77
G =
[   0.443025   0.255781         -0  ]
[          0   0.511561         -0  ]
[         -0         -0    0.15708  ]
Minimum fftbox size, Smin = [  60  60  164  ]
Chosen fftbox size, S = [  60  60  168  ]

---------- Exchange Correlation functional ----------
Initalized PBE GGA exchange.
Initalized PBE GGA correlation.

---------- Setting up pseudopotentials ----------
Width of ionic core gaussian charges (only for fluid interactions / plotting) set to 0

Reading pseudopotential file '/home/gridsan/aligho/DFT/build-Nov24/pseudopotentials/SG15/Na_ONCV_PBE.upf':
  'Na' pseudopotential, 'PBE' functional
  Generated using ONCVPSP code by D. R. Hamann
  Author: Martin Schlipf and Francois Gygi  Date: 150915.
  9 valence electrons, 3 orbitals, 4 projectors, 1992 radial grid points, with lMax = 1
  Transforming local potential to a uniform radial grid of dG=0.02 with 1489 points.
  Transforming nonlocal projectors to a uniform radial grid of dG=0.02 with 432 points.
    2S    l: 0   occupation:  2.0   eigenvalue: -2.085640
    2P    l: 1   occupation:  6.0   eigenvalue: -1.053708
    3S    l: 0   occupation:  1.0   eigenvalue: -0.100838
  Transforming atomic orbitals to a uniform radial grid of dG=0.02 with 432 points.
  Core radius for overlap checks: 2.01 bohrs.
  Reading pulay file /home/gridsan/aligho/DFT/build-Nov24/pseudopotentials/SG15/Na_ONCV_PBE.pulay ... using dE_dnG = -2.946487e-03 computed for Ecut = 20.

Initialized 1 species with 1 total atoms.

Folded 1 k-points by 12x12x1 to 144 k-points.

---------- Setting up k-points, bands, fillings ----------
Reduced to 19 k-points under symmetry. 
Computing the number of bands and number of electrons
Calculating initial fillings.
nElectrons:   9.000000   nBands: 6   nStates: 38

----- Setting up reduced wavefunction bases (one per k-point) -----
average nbasis = 29766.104 , ideal nbasis = 29766.845

---------- Setting up coulomb interaction ----------
Initialized slab truncation along lattice direction 001

---------- Setting up 2D ewald sum ----------
Optimum gaussian width for ewald sums = 7.873530 bohr.
Real space sums over 289 unit cells with max indices [  8  8  0  ]
Reciprocal space sums over 81 terms with max indices [  4  4  0  ]

---------- Allocating electronic variables ----------
Initializing wave functions:  linear combination of atomic orbitals
Note: number of bands (6) exceeds available atomic orbitals (5)
Na pseudo-atom occupations:   s ( 2 1 )  p ( 6 )
	FillingsUpdate:  mu: -0.100123846  nElectrons: 9.000000  magneticMoment: [ Abs: 0.88000  Tot: -0.88000 ]
LCAOMinimize: Iter:   0  F: -42.5559537236912675  |grad|_K:  2.962e-06  alpha:  1.000e+00
	FillingsUpdate:  mu: -0.100123473  nElectrons: 9.000000  magneticMoment: [ Abs: 0.88000  Tot: -0.88000 ]
LCAOMinimize: Iter:   1  F: -42.5559537296783290  |grad|_K:  1.141e-08  alpha:  9.979e-01  linmin: -4.517e-03  cgtest:  1.122e-01  t[s]:      8.58
LCAOMinimize: Encountered beta<0, resetting CG.
LCAOMinimize: 	Wrong curvature in test step, increasing alphaT to 2.993790e+00.
	FillingsUpdate:  mu: -0.100123474  nElectrons: 9.000000  magneticMoment: [ Abs: 0.88000  Tot: -0.88000 ]
LCAOMinimize: Iter:   2  F: -42.5559537296789401  |grad|_K:  5.770e-11  alpha: -2.045e-01  linmin:  4.924e-02  cgtest: -5.458e-01  t[s]:     10.92
LCAOMinimize: Converged (|Delta F|<1.000000e-06 for 2 iters).


---- Citations for features of the code used in this run ----

   Software package:
      R. Sundararaman, K. Letchworth-Weaver, K.A. Schwarz, D. Gunceler, Y. Ozhabes and T.A. Arias, 'JDFTx: software for joint density-functional theory', SoftwareX 6, 278 (2017)

   gga-PBE exchange-correlation functional:
      J.P. Perdew, K. Burke and M. Ernzerhof, Phys. Rev. Lett. 77, 3865 (1996)

   Pseudopotentials:
      M Schlipf and F Gygi, Comput. Phys. Commun. 196, 36 (2015)

   Truncated Coulomb potentials:
      R. Sundararaman and T.A. Arias, Phys. Rev. B 87, 165122 (2013)

This list may not be complete. Please suggest additional citations or
report any other bugs at https://github.com/shankar1729/jdftx/issues

Initialization completed successfully at t[s]:     11.02


-------- Electronic minimization -----------
Will mix electronic density at each iteration.
	FillingsUpdate:  mu: -0.100123474  nElectrons: 9.000000  magneticMoment: [ Abs: 0.88000  Tot: -0.88000 ]
	FillingsUpdate:  mu: -0.100384275  nElectrons: 9.000000  magneticMoment: [ Abs: 0.88000  Tot: -0.88000 ]
SCF: Cycle:  0   F: -42.556224634408117   dF: -2.709e-04   |Residual|: 2.657e-03   |deigs|: 1.656e-01  t[s]:     15.43
	FillingsUpdate:  mu: -0.100375934  nElectrons: 9.000000  magneticMoment: [ Abs: 0.88262  Tot: -0.88000 ]
SCF: Cycle:  1   F: -42.556227423007151   dF: -2.789e-06   |Residual|: 9.833e-04   |deigs|: 1.119e-02  t[s]:     18.85
	FillingsUpdate:  mu: -0.100251691  nElectrons: 9.000000  magneticMoment: [ Abs: 0.88177  Tot: -0.88000 ]
SCF: Cycle:  2   F: -42.556228414455077   dF: -9.914e-07   |Residual|: 5.741e-04   |deigs|: 2.395e-03  t[s]:     22.35
	FillingsUpdate:  mu: -0.100142330  nElectrons: 9.000000  magneticMoment: [ Abs: 0.88220  Tot: -0.88000 ]
SCF: Cycle:  3   F: -42.556228814216709   dF: -3.998e-07   |Residual|: 3.443e-04   |deigs|: 1.806e-03  t[s]:     25.86
	FillingsUpdate:  mu: -0.100015788  nElectrons: 9.000000  magneticMoment: [ Abs: 0.88198  Tot: -0.88000 ]
SCF: Cycle:  4   F: -42.556228997178387   dF: -1.830e-07   |Residual|: 2.357e-04   |deigs|: 1.013e-03  t[s]:     29.52
	FillingsUpdate:  mu: -0.099807540  nElectrons: 9.000000  magneticMoment: [ Abs: 0.88195  Tot: -0.88000 ]
SCF: Cycle:  5   F: -42.556229069647351   dF: -7.247e-08   |Residual|: 1.526e-04   |deigs|: 8.222e-04  t[s]:     33.17
	FillingsUpdate:  mu: -0.099738986  nElectrons: 9.000000  magneticMoment: [ Abs: 0.88203  Tot: -0.88000 ]
SCF: Cycle:  6   F: -42.556229148458918   dF: -7.881e-08   |Residual|: 1.128e-04   |deigs|: 4.736e-04  t[s]:     36.89
	FillingsUpdate:  mu: -0.099676656  nElectrons: 9.000000  magneticMoment: [ Abs: 0.88199  Tot: -0.88000 ]
SCF: Cycle:  7   F: -42.556229204319543   dF: -5.586e-08   |Residual|: 9.123e-05   |deigs|: 3.404e-04  t[s]:     40.72
	FillingsUpdate:  mu: -0.099652144  nElectrons: 9.000000  magneticMoment: [ Abs: 0.88196  Tot: -0.88000 ]
SCF: Cycle:  8   F: -42.556229170530493   dF: +3.379e-08   |Residual|: 7.385e-05   |deigs|: 2.748e-04  t[s]:     44.52
	FillingsUpdate:  mu: -0.099587667  nElectrons: 9.000000  magneticMoment: [ Abs: 0.88210  Tot: -0.88000 ]
SCF: Cycle:  9   F: -42.556229176465436   dF: -5.935e-09   |Residual|: 6.295e-05   |deigs|: 2.252e-04  t[s]:     48.41
	FillingsUpdate:  mu: -0.099551508  nElectrons: 9.000000  magneticMoment: [ Abs: 0.88206  Tot: -0.88000 ]
SCF: Cycle: 10   F: -42.556229159234931   dF: +1.723e-08   |Residual|: 5.135e-05   |deigs|: 1.017e-04  t[s]:     52.42
	FillingsUpdate:  mu: -0.099494385  nElectrons: 9.000000  magneticMoment: [ Abs: 0.88208  Tot: -0.88000 ]
SCF: Cycle: 11   F: -42.556229031442072   dF: +1.278e-07   |Residual|: 4.055e-05   |deigs|: 1.011e-04  t[s]:     56.40
	FillingsUpdate:  mu: -0.099494303  nElectrons: 9.000000  magneticMoment: [ Abs: 0.88226  Tot: -0.88000 ]
SCF: Cycle: 12   F: -42.556229170911628   dF: -1.395e-07   |Residual|: 3.692e-05   |deigs|: 6.700e-05  t[s]:     60.40
	FillingsUpdate:  mu: -0.099419594  nElectrons: 9.000000  magneticMoment: [ Abs: 0.88232  Tot: -0.88000 ]
SCF: Cycle: 13   F: -42.556229247871578   dF: -7.696e-08   |Residual|: 3.314e-05   |deigs|: 9.140e-05  t[s]:     64.29
	FillingsUpdate:  mu: -0.099350435  nElectrons: 9.000000  magneticMoment: [ Abs: 0.88232  Tot: -0.88000 ]
SCF: Cycle: 14   F: -42.556229009725676   dF: +2.381e-07   |Residual|: 3.418e-05   |deigs|: 9.450e-05  t[s]:     68.26
	FillingsUpdate:  mu: -0.099283188  nElectrons: 9.000000  magneticMoment: [ Abs: 0.88229  Tot: -0.88000 ]
SCF: Cycle: 15   F: -42.556229239638185   dF: -2.299e-07   |Residual|: 3.155e-05   |deigs|: 8.217e-05  t[s]:     72.28
	FillingsUpdate:  mu: -0.099264504  nElectrons: 9.000000  magneticMoment: [ Abs: 0.88200  Tot: -0.88000 ]
SCF: Cycle: 16   F: -42.556229336123643   dF: -9.649e-08   |Residual|: 2.285e-05   |deigs|: 8.024e-05  t[s]:     76.28
	FillingsUpdate:  mu: -0.099219254  nElectrons: 9.000000  magneticMoment: [ Abs: 0.88202  Tot: -0.88000 ]
SCF: Cycle: 17   F: -42.556229370703889   dF: -3.458e-08   |Residual|: 1.822e-05   |deigs|: 4.724e-05  t[s]:     80.18
	FillingsUpdate:  mu: -0.099182460  nElectrons: 9.000000  magneticMoment: [ Abs: 0.88200  Tot: -0.88000 ]
SCF: Cycle: 18   F: -42.556229374332204   dF: -3.628e-09   |Residual|: 1.306e-05   |deigs|: 4.203e-05  t[s]:     84.03
	FillingsUpdate:  mu: -0.099168020  nElectrons: 9.000000  magneticMoment: [ Abs: 0.88199  Tot: -0.88000 ]
SCF: Cycle: 19   F: -42.556229383037717   dF: -8.706e-09   |Residual|: 9.221e-06   |deigs|: 1.705e-05  t[s]:     88.04
SCF: Converged (|Delta E|<1.000000e-08 for 2 iters).


# Ionic positions in lattice coordinates:
ion Na   0.000000000000000   0.000000000000000   0.000000000000000 0

# Forces in Lattice coordinates:
force Na  -0.000000000000000  -0.000000000000000   0.000000000000000 0

# Energy components:
   Eewald =      -12.0320174002217755
       EH =       21.7832339600420291
     Eloc =      -54.8204268960564107
      Enl =      -12.9042050321194122
   Epulay =       -0.0000003132867683
      Exc =       -6.2177546132526160
       KE =       21.6349417291243427
-------------------------------------
     Etot =      -42.5562285657706170
       TS =        0.0000008172671015
-------------------------------------
        F =      -42.5562293830377172

IonicMinimize: Iter:   0  F: -42.556229383037717  |grad|_K:  0.000e+00  t[s]:     88.19
IonicMinimize: Converged (|grad|_K<1.000000e-04).

#--- Lowdin population analysis ---
# oxidation-state Na +0.002
# magnetic-moments Na -0.878

End date and time: Sat Feb  5 22:23:08 2022  (Duration: 0-0:01:28.24)
Done!
