
*************** JDFTx 1.6.0 (git hash 42ebbcc2) ***************

Start date and time: Sat Feb  5 22:29:36 2022
Executable jdftx with command-line: -i Alkali.in
Running on hosts (process indices):  d-6-10-3 (0-18)
Divided in process groups (process indices):  0 (0)  1 (1)  2 (2)  3 (3)  4 (4)  5 (5)  6 (6)  7 (7)  8 (8)  9 (9)  10 (10)  11 (11)  12 (12)  13 (13)  14 (14)  15 (15)  16 (16)  17 (17)  18 (18)
Resource initialization completed at t[s]:      0.00
Run totals: 19 processes, 48 threads, 0 GPUs


Input parsed successfully to the following command list (including defaults):

basis kpoint-dependent
coords-type Lattice
core-overlap-check vector
coulomb-interaction Slab 001
davidson-band-ratio 1.1
dump End None
dump-name $INPUT.$VAR
elec-cutoff 20
elec-eigen-algo Davidson
elec-ex-corr gga-PBE
elec-initial-magnetization -0.080000 yes
elec-smearing Fermi 1e-05
electronic-minimize  \
	dirUpdateScheme      FletcherReeves \
	linminMethod         DirUpdateRecommended \
	nIterations          100 \
	history              15 \
	knormThreshold       0 \
	energyDiffThreshold  1e-08 \
	nEnergyDiff          2 \
	alphaTstart          1 \
	alphaTmin            1e-10 \
	updateTestStepSize   yes \
	alphaTreduceFactor   0.1 \
	alphaTincreaseFactor 3 \
	nAlphaAdjustMax      3 \
	wolfeEnergy          0.0001 \
	wolfeGradient        0.9 \
	fdTest               no
electronic-scf  \
	nIterations	10000 \
	energyDiffThreshold	1e-08 \
	residualThreshold	1e-07 \
	mixFraction	0.5 \
	qMetric	0.8 \
	history	10 \
	nEigSteps	2 \
	eigDiffThreshold	1e-08 \
	mixedVariable	Density \
	qKerker	0.8 \
	qKappa	-1 \
	verbose	no \
	mixFractionMag	1.5
exchange-regularization WignerSeitzTruncated
fluid None
fluid-ex-corr (null) lda-PZ
fluid-gummel-loop 10 1.000000e-05
fluid-minimize  \
	dirUpdateScheme      PolakRibiere \
	linminMethod         DirUpdateRecommended \
	nIterations          100 \
	history              15 \
	knormThreshold       0 \
	energyDiffThreshold  0 \
	nEnergyDiff          2 \
	alphaTstart          1 \
	alphaTmin            1e-10 \
	updateTestStepSize   yes \
	alphaTreduceFactor   0.1 \
	alphaTincreaseFactor 3 \
	nAlphaAdjustMax      3 \
	wolfeEnergy          0.0001 \
	wolfeGradient        0.9 \
	fdTest               no
fluid-solvent H2O 55.338 ScalarEOS \
	epsBulk 78.4 \
	pMol 0.92466 \
	epsInf 1.77 \
	Pvap 1.06736e-10 \
	sigmaBulk 4.62e-05 \
	Rvdw 2.61727 \
	Res 1.42 \
	tauNuc 343133 \
	poleEl 15 7 1
forces-output-coords Positions
ion Na   0.000000000000000   0.000000000000000   0.000000000000000 0
ion-species SG15/$ID_ONCV_PBE.upf
ion-width 0
ionic-minimize  \
	dirUpdateScheme      L-BFGS \
	linminMethod         DirUpdateRecommended \
	nIterations          0 \
	history              15 \
	knormThreshold       0.0001 \
	energyDiffThreshold  1e-06 \
	nEnergyDiff          2 \
	alphaTstart          1 \
	alphaTmin            1e-10 \
	updateTestStepSize   yes \
	alphaTreduceFactor   0.1 \
	alphaTincreaseFactor 3 \
	nAlphaAdjustMax      3 \
	wolfeEnergy          0.0001 \
	wolfeGradient        0.9 \
	fdTest               no
kpoint   0.000000000000   0.000000000000   0.000000000000  1.00000000000000
kpoint-folding 12 12 1 
latt-move-scale 1 1 1
latt-scale 3 3 1 
lattice  \
	   4.727486978767153   -2.363743489383575    0.000000000000000  \
	  -0.000000000000000    4.094123819672498    0.000000000000000  \
	   0.000000000000000    0.000000000000000   40.000000000000000 
lattice-minimize  \
	dirUpdateScheme      L-BFGS \
	linminMethod         DirUpdateRecommended \
	nIterations          0 \
	history              15 \
	knormThreshold       0 \
	energyDiffThreshold  1e-06 \
	nEnergyDiff          2 \
	alphaTstart          1 \
	alphaTmin            1e-10 \
	updateTestStepSize   yes \
	alphaTreduceFactor   0.1 \
	alphaTincreaseFactor 3 \
	nAlphaAdjustMax      3 \
	wolfeEnergy          0.0001 \
	wolfeGradient        0.9 \
	fdTest               no
lcao-params -1 1e-06 1e-05
pcm-variant GLSSA13
spintype z-spin
subspace-rotation-factor 1 yes
symmetries automatic
symmetry-threshold 0.0001



---------- Setting up symmetries ----------

Found 24 point-group symmetries of the bravais lattice
Found 24 space-group symmetries with basis
Applied RMS atom displacement 0 bohrs to make symmetries exact.

---------- Initializing the Grid ----------
R = 
[      14.1825     -7.09123            0  ]
[            0      12.2824            0  ]
[            0            0           40  ]
unit cell volume = 6967.77
G =
[   0.443025   0.255781         -0  ]
[          0   0.511561         -0  ]
[         -0         -0    0.15708  ]
Minimum fftbox size, Smin = [  60  60  164  ]
Chosen fftbox size, S = [  60  60  168  ]

---------- Exchange Correlation functional ----------
Initalized PBE GGA exchange.
Initalized PBE GGA correlation.

---------- Setting up pseudopotentials ----------
Width of ionic core gaussian charges (only for fluid interactions / plotting) set to 0

Reading pseudopotential file '/home/gridsan/aligho/DFT/build-Nov24/pseudopotentials/SG15/Na_ONCV_PBE.upf':
  'Na' pseudopotential, 'PBE' functional
  Generated using ONCVPSP code by D. R. Hamann
  Author: Martin Schlipf and Francois Gygi  Date: 150915.
  9 valence electrons, 3 orbitals, 4 projectors, 1992 radial grid points, with lMax = 1
  Transforming local potential to a uniform radial grid of dG=0.02 with 1489 points.
  Transforming nonlocal projectors to a uniform radial grid of dG=0.02 with 432 points.
    2S    l: 0   occupation:  2.0   eigenvalue: -2.085640
    2P    l: 1   occupation:  6.0   eigenvalue: -1.053708
    3S    l: 0   occupation:  1.0   eigenvalue: -0.100838
  Transforming atomic orbitals to a uniform radial grid of dG=0.02 with 432 points.
  Core radius for overlap checks: 2.01 bohrs.
  Reading pulay file /home/gridsan/aligho/DFT/build-Nov24/pseudopotentials/SG15/Na_ONCV_PBE.pulay ... using dE_dnG = -2.946487e-03 computed for Ecut = 20.

Initialized 1 species with 1 total atoms.

Folded 1 k-points by 12x12x1 to 144 k-points.

---------- Setting up k-points, bands, fillings ----------
Reduced to 19 k-points under symmetry. 
Computing the number of bands and number of electrons
Calculating initial fillings.
nElectrons:   9.000000   nBands: 6   nStates: 38

----- Setting up reduced wavefunction bases (one per k-point) -----
average nbasis = 29766.104 , ideal nbasis = 29766.845

---------- Setting up coulomb interaction ----------
Initialized slab truncation along lattice direction 001

---------- Setting up 2D ewald sum ----------
Optimum gaussian width for ewald sums = 7.873530 bohr.
Real space sums over 289 unit cells with max indices [  8  8  0  ]
Reciprocal space sums over 81 terms with max indices [  4  4  0  ]

---------- Allocating electronic variables ----------
Initializing wave functions:  linear combination of atomic orbitals
Note: number of bands (6) exceeds available atomic orbitals (5)
Na pseudo-atom occupations:   s ( 2 1 )  p ( 6 )
	FillingsUpdate:  mu: -0.101928493  nElectrons: 9.000000  magneticMoment: [ Abs: 0.08000  Tot: -0.08000 ]
LCAOMinimize: Iter:   0  F: -42.5528156363441781  |grad|_K:  8.577e-06  alpha:  1.000e+00
	FillingsUpdate:  mu: -0.101926703  nElectrons: 9.000000  magneticMoment: [ Abs: 0.08000  Tot: -0.08000 ]
LCAOMinimize: Iter:   1  F: -42.5528156863083993  |grad|_K:  4.775e-08  alpha:  9.930e-01  linmin: -7.353e-03  cgtest:  4.235e-01  t[s]:      8.51
LCAOMinimize: Encountered beta<0, resetting CG.
	FillingsUpdate:  mu: -0.101926699  nElectrons: 9.000000  magneticMoment: [ Abs: 0.08000  Tot: -0.08000 ]
LCAOMinimize: Iter:   2  F: -42.5528156863100335  |grad|_K:  7.837e-09  alpha:  1.164e+00  linmin:  2.654e-02  cgtest: -9.998e-01  t[s]:     10.86
LCAOMinimize: Converged (|Delta F|<1.000000e-06 for 2 iters).


---- Citations for features of the code used in this run ----

   Software package:
      R. Sundararaman, K. Letchworth-Weaver, K.A. Schwarz, D. Gunceler, Y. Ozhabes and T.A. Arias, 'JDFTx: software for joint density-functional theory', SoftwareX 6, 278 (2017)

   gga-PBE exchange-correlation functional:
      J.P. Perdew, K. Burke and M. Ernzerhof, Phys. Rev. Lett. 77, 3865 (1996)

   Pseudopotentials:
      M Schlipf and F Gygi, Comput. Phys. Commun. 196, 36 (2015)

   Truncated Coulomb potentials:
      R. Sundararaman and T.A. Arias, Phys. Rev. B 87, 165122 (2013)

This list may not be complete. Please suggest additional citations or
report any other bugs at https://github.com/shankar1729/jdftx/issues

Initialization completed successfully at t[s]:     10.96


-------- Electronic minimization -----------
Will mix electronic density at each iteration.
	FillingsUpdate:  mu: -0.101926699  nElectrons: 9.000000  magneticMoment: [ Abs: 0.08000  Tot: -0.08000 ]
	FillingsUpdate:  mu: -0.102282837  nElectrons: 9.000000  magneticMoment: [ Abs: 0.08000  Tot: -0.08000 ]
SCF: Cycle:  0   F: -42.553173329999922   dF: -3.576e-04   |Residual|: 2.138e-03   |deigs|: 1.740e-01  t[s]:     15.37
	FillingsUpdate:  mu: -0.102420810  nElectrons: 9.000000  magneticMoment: [ Abs: 0.08013  Tot: -0.08000 ]
SCF: Cycle:  1   F: -42.553179129563382   dF: -5.800e-06   |Residual|: 1.349e-03   |deigs|: 5.186e-03  t[s]:     18.79
	FillingsUpdate:  mu: -0.102678944  nElectrons: 9.000000  magneticMoment: [ Abs: 0.08011  Tot: -0.08000 ]
SCF: Cycle:  2   F: -42.553182651663384   dF: -3.522e-06   |Residual|: 7.721e-04   |deigs|: 2.755e-03  t[s]:     22.30
	FillingsUpdate:  mu: -0.102828816  nElectrons: 9.000000  magneticMoment: [ Abs: 0.08025  Tot: -0.08000 ]
SCF: Cycle:  3   F: -42.553184855324659   dF: -2.204e-06   |Residual|: 4.856e-04   |deigs|: 1.274e-03  t[s]:     25.85
	FillingsUpdate:  mu: -0.103054261  nElectrons: 9.000000  magneticMoment: [ Abs: 0.08012  Tot: -0.08000 ]
SCF: Cycle:  4   F: -42.553187007122155   dF: -2.152e-06   |Residual|: 2.556e-04   |deigs|: 1.599e-03  t[s]:     29.44
	FillingsUpdate:  mu: -0.103068570  nElectrons: 9.000000  magneticMoment: [ Abs: 0.08021  Tot: -0.08000 ]
SCF: Cycle:  5   F: -42.553187412589729   dF: -4.055e-07   |Residual|: 1.788e-04   |deigs|: 1.314e-03  t[s]:     33.10
	FillingsUpdate:  mu: -0.103049233  nElectrons: 9.000000  magneticMoment: [ Abs: 0.08013  Tot: -0.08000 ]
SCF: Cycle:  6   F: -42.553187703399594   dF: -2.908e-07   |Residual|: 1.159e-04   |deigs|: 1.516e-03  t[s]:     36.85
	FillingsUpdate:  mu: -0.103015747  nElectrons: 9.000000  magneticMoment: [ Abs: 0.08017  Tot: -0.08000 ]
SCF: Cycle:  7   F: -42.553187786691026   dF: -8.329e-08   |Residual|: 7.699e-05   |deigs|: 1.006e-03  t[s]:     40.63
	FillingsUpdate:  mu: -0.102970127  nElectrons: 9.000000  magneticMoment: [ Abs: 0.08013  Tot: -0.08000 ]
SCF: Cycle:  8   F: -42.553187818938262   dF: -3.225e-08   |Residual|: 5.317e-05   |deigs|: 2.965e-04  t[s]:     44.51
	FillingsUpdate:  mu: -0.102944962  nElectrons: 9.000000  magneticMoment: [ Abs: 0.08017  Tot: -0.08000 ]
SCF: Cycle:  9   F: -42.553187827351351   dF: -8.413e-09   |Residual|: 6.012e-05   |deigs|: 4.909e-05  t[s]:     48.48
	FillingsUpdate:  mu: -0.102885391  nElectrons: 9.000000  magneticMoment: [ Abs: 0.08017  Tot: -0.08000 ]
SCF: Cycle: 10   F: -42.553187833929648   dF: -6.578e-09   |Residual|: 3.873e-05   |deigs|: 8.506e-05  t[s]:     52.45
SCF: Converged (|Delta E|<1.000000e-08 for 2 iters).


# Ionic positions in lattice coordinates:
ion Na   0.000000000000000   0.000000000000000   0.000000000000000 0

# Forces in Lattice coordinates:
force Na  -0.000000000000000  -0.000000000000000   0.000000000000000 0

# Energy components:
   Eewald =      -12.0320174002217755
       EH =       21.7035615433466447
     Eloc =      -54.7341630950447851
      Enl =      -12.9047366150457581
   Epulay =       -0.0000003132867683
      Exc =       -6.2056948044351508
       KE =       21.6198639813748770
-------------------------------------
     Etot =      -42.5531867033127185
       TS =        0.0000011306169286
-------------------------------------
        F =      -42.5531878339296483

IonicMinimize: Iter:   0  F: -42.553187833929648  |grad|_K:  0.000e+00  t[s]:     52.60
IonicMinimize: Converged (|grad|_K<1.000000e-04).

#--- Lowdin population analysis ---
# oxidation-state Na +0.005
# magnetic-moments Na -0.080

End date and time: Sat Feb  5 22:30:29 2022  (Duration: 0-0:00:52.64)
Done!
