
*************** JDFTx 1.6.0 (git hash 42ebbcc2) ***************

Start date and time: Sat Feb  5 22:23:10 2022
Executable jdftx with command-line: -i Alkali.in
Running on hosts (process indices):  d-4-8-2 (0-18)
Divided in process groups (process indices):  0 (0)  1 (1)  2 (2)  3 (3)  4 (4)  5 (5)  6 (6)  7 (7)  8 (8)  9 (9)  10 (10)  11 (11)  12 (12)  13 (13)  14 (14)  15 (15)  16 (16)  17 (17)  18 (18)
Resource initialization completed at t[s]:      0.00
Run totals: 19 processes, 48 threads, 0 GPUs


Input parsed successfully to the following command list (including defaults):

basis kpoint-dependent
coords-type Lattice
core-overlap-check vector
coulomb-interaction Slab 001
davidson-band-ratio 1.1
dump End None
dump-name $INPUT.$VAR
elec-cutoff 20
elec-eigen-algo Davidson
elec-ex-corr gga-PBE
elec-initial-magnetization -0.880000 yes
elec-smearing Fermi 1e-05
electronic-minimize  \
	dirUpdateScheme      FletcherReeves \
	linminMethod         DirUpdateRecommended \
	nIterations          100 \
	history              15 \
	knormThreshold       0 \
	energyDiffThreshold  1e-08 \
	nEnergyDiff          2 \
	alphaTstart          1 \
	alphaTmin            1e-10 \
	updateTestStepSize   yes \
	alphaTreduceFactor   0.1 \
	alphaTincreaseFactor 3 \
	nAlphaAdjustMax      3 \
	wolfeEnergy          0.0001 \
	wolfeGradient        0.9 \
	fdTest               no
electronic-scf  \
	nIterations	10000 \
	energyDiffThreshold	1e-08 \
	residualThreshold	1e-07 \
	mixFraction	0.5 \
	qMetric	0.8 \
	history	10 \
	nEigSteps	2 \
	eigDiffThreshold	1e-08 \
	mixedVariable	Density \
	qKerker	0.8 \
	qKappa	-1 \
	verbose	no \
	mixFractionMag	1.5
exchange-regularization WignerSeitzTruncated
fluid None
fluid-ex-corr (null) lda-PZ
fluid-gummel-loop 10 1.000000e-05
fluid-minimize  \
	dirUpdateScheme      PolakRibiere \
	linminMethod         DirUpdateRecommended \
	nIterations          100 \
	history              15 \
	knormThreshold       0 \
	energyDiffThreshold  0 \
	nEnergyDiff          2 \
	alphaTstart          1 \
	alphaTmin            1e-10 \
	updateTestStepSize   yes \
	alphaTreduceFactor   0.1 \
	alphaTincreaseFactor 3 \
	nAlphaAdjustMax      3 \
	wolfeEnergy          0.0001 \
	wolfeGradient        0.9 \
	fdTest               no
fluid-solvent H2O 55.338 ScalarEOS \
	epsBulk 78.4 \
	pMol 0.92466 \
	epsInf 1.77 \
	Pvap 1.06736e-10 \
	sigmaBulk 4.62e-05 \
	Rvdw 2.61727 \
	Res 1.42 \
	tauNuc 343133 \
	poleEl 15 7 1
forces-output-coords Positions
ion Na   0.000000000000000   0.000000000000000   0.000000000000000 0
ion-species SG15/$ID_ONCV_PBE.upf
ion-width 0
ionic-minimize  \
	dirUpdateScheme      L-BFGS \
	linminMethod         DirUpdateRecommended \
	nIterations          0 \
	history              15 \
	knormThreshold       0.0001 \
	energyDiffThreshold  1e-06 \
	nEnergyDiff          2 \
	alphaTstart          1 \
	alphaTmin            1e-10 \
	updateTestStepSize   yes \
	alphaTreduceFactor   0.1 \
	alphaTincreaseFactor 3 \
	nAlphaAdjustMax      3 \
	wolfeEnergy          0.0001 \
	wolfeGradient        0.9 \
	fdTest               no
kpoint   0.000000000000   0.000000000000   0.000000000000  1.00000000000000
kpoint-folding 12 12 1 
latt-move-scale 1 1 1
latt-scale 4 4 1 
lattice  \
	   4.727486978767153   -2.363743489383575    0.000000000000000  \
	  -0.000000000000000    4.094123819672498    0.000000000000000  \
	   0.000000000000000    0.000000000000000   40.000000000000000 
lattice-minimize  \
	dirUpdateScheme      L-BFGS \
	linminMethod         DirUpdateRecommended \
	nIterations          0 \
	history              15 \
	knormThreshold       0 \
	energyDiffThreshold  1e-06 \
	nEnergyDiff          2 \
	alphaTstart          1 \
	alphaTmin            1e-10 \
	updateTestStepSize   yes \
	alphaTreduceFactor   0.1 \
	alphaTincreaseFactor 3 \
	nAlphaAdjustMax      3 \
	wolfeEnergy          0.0001 \
	wolfeGradient        0.9 \
	fdTest               no
lcao-params -1 1e-06 1e-05
pcm-variant GLSSA13
spintype z-spin
subspace-rotation-factor 1 yes
symmetries automatic
symmetry-threshold 0.0001



---------- Setting up symmetries ----------

Found 24 point-group symmetries of the bravais lattice
Found 24 space-group symmetries with basis
Applied RMS atom displacement 0 bohrs to make symmetries exact.

---------- Initializing the Grid ----------
R = 
[      18.9099     -9.45497            0  ]
[            0      16.3765            0  ]
[            0            0           40  ]
unit cell volume = 12387.1
G =
[   0.332269   0.191835         -0  ]
[          0   0.383671         -0  ]
[         -0         -0    0.15708  ]
Minimum fftbox size, Smin = [  80  80  164  ]
Chosen fftbox size, S = [  80  80  168  ]

---------- Exchange Correlation functional ----------
Initalized PBE GGA exchange.
Initalized PBE GGA correlation.

---------- Setting up pseudopotentials ----------
Width of ionic core gaussian charges (only for fluid interactions / plotting) set to 0

Reading pseudopotential file '/home/gridsan/aligho/DFT/build-Nov24/pseudopotentials/SG15/Na_ONCV_PBE.upf':
  'Na' pseudopotential, 'PBE' functional
  Generated using ONCVPSP code by D. R. Hamann
  Author: Martin Schlipf and Francois Gygi  Date: 150915.
  9 valence electrons, 3 orbitals, 4 projectors, 1992 radial grid points, with lMax = 1
  Transforming local potential to a uniform radial grid of dG=0.02 with 1489 points.
  Transforming nonlocal projectors to a uniform radial grid of dG=0.02 with 432 points.
    2S    l: 0   occupation:  2.0   eigenvalue: -2.085640
    2P    l: 1   occupation:  6.0   eigenvalue: -1.053708
    3S    l: 0   occupation:  1.0   eigenvalue: -0.100838
  Transforming atomic orbitals to a uniform radial grid of dG=0.02 with 432 points.
  Core radius for overlap checks: 2.01 bohrs.
  Reading pulay file /home/gridsan/aligho/DFT/build-Nov24/pseudopotentials/SG15/Na_ONCV_PBE.pulay ... using dE_dnG = -2.946487e-03 computed for Ecut = 20.

Initialized 1 species with 1 total atoms.

Folded 1 k-points by 12x12x1 to 144 k-points.

---------- Setting up k-points, bands, fillings ----------
Reduced to 19 k-points under symmetry. 
Computing the number of bands and number of electrons
Calculating initial fillings.
nElectrons:   9.000000   nBands: 6   nStates: 38

----- Setting up reduced wavefunction bases (one per k-point) -----
average nbasis = 52924.021 , ideal nbasis = 52918.836

---------- Setting up coulomb interaction ----------
Initialized slab truncation along lattice direction 001

---------- Setting up 2D ewald sum ----------
Optimum gaussian width for ewald sums = 10.498040 bohr.
Real space sums over 289 unit cells with max indices [  8  8  0  ]
Reciprocal space sums over 81 terms with max indices [  4  4  0  ]

---------- Allocating electronic variables ----------
Initializing wave functions:  linear combination of atomic orbitals
Note: number of bands (6) exceeds available atomic orbitals (5)
Na pseudo-atom occupations:   s ( 2 1 )  p ( 6 )
	FillingsUpdate:  mu: -0.098380573  nElectrons: 9.000000  magneticMoment: [ Abs: 0.88000  Tot: -0.88000 ]
LCAOMinimize: Iter:   0  F: -42.5552544377634376  |grad|_K:  4.296e-07  alpha:  1.000e+00
	FillingsUpdate:  mu: -0.098380499  nElectrons: 9.000000  magneticMoment: [ Abs: 0.88000  Tot: -0.88000 ]
LCAOMinimize: Iter:   1  F: -42.5552544378895519  |grad|_K:  1.729e-09  alpha:  1.000e+00  linmin:  1.707e-02  cgtest: -5.372e-01  t[s]:     14.86
LCAOMinimize: 	Wrong curvature in test step, increasing alphaT to 3.001347e+00.
	FillingsUpdate:  mu: -0.098380499  nElectrons: 9.000000  magneticMoment: [ Abs: 0.88000  Tot: -0.88000 ]
LCAOMinimize: Iter:   2  F: -42.5552544378896229  |grad|_K:  9.310e-10  alpha: -2.043e-02  linmin:  5.406e-04  cgtest:  5.288e-01  t[s]:     18.87
LCAOMinimize: Converged (|Delta F|<1.000000e-06 for 2 iters).


---- Citations for features of the code used in this run ----

   Software package:
      R. Sundararaman, K. Letchworth-Weaver, K.A. Schwarz, D. Gunceler, Y. Ozhabes and T.A. Arias, 'JDFTx: software for joint density-functional theory', SoftwareX 6, 278 (2017)

   gga-PBE exchange-correlation functional:
      J.P. Perdew, K. Burke and M. Ernzerhof, Phys. Rev. Lett. 77, 3865 (1996)

   Pseudopotentials:
      M Schlipf and F Gygi, Comput. Phys. Commun. 196, 36 (2015)

   Truncated Coulomb potentials:
      R. Sundararaman and T.A. Arias, Phys. Rev. B 87, 165122 (2013)

This list may not be complete. Please suggest additional citations or
report any other bugs at https://github.com/shankar1729/jdftx/issues

Initialization completed successfully at t[s]:     19.02


-------- Electronic minimization -----------
Will mix electronic density at each iteration.
	FillingsUpdate:  mu: -0.098380499  nElectrons: 9.000000  magneticMoment: [ Abs: 0.88000  Tot: -0.88000 ]
	FillingsUpdate:  mu: -0.098602950  nElectrons: 9.000000  magneticMoment: [ Abs: 0.88000  Tot: -0.88000 ]
SCF: Cycle:  0   F: -42.555394727002145   dF: -1.403e-04   |Residual|: 2.709e-03   |deigs|: 1.553e-01  t[s]:     26.59
	FillingsUpdate:  mu: -0.098600547  nElectrons: 9.000000  magneticMoment: [ Abs: 0.88271  Tot: -0.88000 ]
SCF: Cycle:  1   F: -42.555396415693515   dF: -1.689e-06   |Residual|: 1.133e-03   |deigs|: 1.467e-02  t[s]:     32.52
	FillingsUpdate:  mu: -0.098403545  nElectrons: 9.000000  magneticMoment: [ Abs: 0.88184  Tot: -0.88000 ]
SCF: Cycle:  2   F: -42.555397467920407   dF: -1.052e-06   |Residual|: 7.534e-04   |deigs|: 9.148e-03  t[s]:     38.57
	FillingsUpdate:  mu: -0.098127622  nElectrons: 9.000000  magneticMoment: [ Abs: 0.88229  Tot: -0.88000 ]
SCF: Cycle:  3   F: -42.555397879947691   dF: -4.120e-07   |Residual|: 4.678e-04   |deigs|: 1.955e-03  t[s]:     44.71
	FillingsUpdate:  mu: -0.097808334  nElectrons: 9.000000  magneticMoment: [ Abs: 0.88191  Tot: -0.88000 ]
SCF: Cycle:  4   F: -42.555397866440238   dF: +1.351e-08   |Residual|: 2.739e-04   |deigs|: 7.490e-04  t[s]:     50.91
	FillingsUpdate:  mu: -0.097583289  nElectrons: 9.000000  magneticMoment: [ Abs: 0.88194  Tot: -0.88000 ]
SCF: Cycle:  5   F: -42.555397941211169   dF: -7.477e-08   |Residual|: 1.834e-04   |deigs|: 4.406e-04  t[s]:     57.32
	FillingsUpdate:  mu: -0.097513863  nElectrons: 9.000000  magneticMoment: [ Abs: 0.88206  Tot: -0.88000 ]
SCF: Cycle:  6   F: -42.555398329354681   dF: -3.881e-07   |Residual|: 1.279e-04   |deigs|: 1.239e-04  t[s]:     63.97
	FillingsUpdate:  mu: -0.097482230  nElectrons: 9.000000  magneticMoment: [ Abs: 0.88218  Tot: -0.88000 ]
SCF: Cycle:  7   F: -42.555398498105198   dF: -1.688e-07   |Residual|: 8.358e-05   |deigs|: 7.379e-05  t[s]:     70.53
	FillingsUpdate:  mu: -0.097464480  nElectrons: 9.000000  magneticMoment: [ Abs: 0.88204  Tot: -0.88000 ]
SCF: Cycle:  8   F: -42.555398560969813   dF: -6.286e-08   |Residual|: 5.670e-05   |deigs|: 6.729e-05  t[s]:     77.21
	FillingsUpdate:  mu: -0.097456742  nElectrons: 9.000000  magneticMoment: [ Abs: 0.88203  Tot: -0.88000 ]
SCF: Cycle:  9   F: -42.555398534779869   dF: +2.619e-08   |Residual|: 4.023e-05   |deigs|: 8.289e-05  t[s]:     84.01
	FillingsUpdate:  mu: -0.097448746  nElectrons: 9.000000  magneticMoment: [ Abs: 0.88198  Tot: -0.88000 ]
SCF: Cycle: 10   F: -42.555398589374867   dF: -5.459e-08   |Residual|: 3.264e-05   |deigs|: 5.148e-05  t[s]:     90.93
	FillingsUpdate:  mu: -0.097426585  nElectrons: 9.000000  magneticMoment: [ Abs: 0.88205  Tot: -0.88000 ]
SCF: Cycle: 11   F: -42.555398558770342   dF: +3.060e-08   |Residual|: 2.784e-05   |deigs|: 5.425e-05  t[s]:     97.85
	FillingsUpdate:  mu: -0.097409847  nElectrons: 9.000000  magneticMoment: [ Abs: 0.88214  Tot: -0.88000 ]
SCF: Cycle: 12   F: -42.555398584150822   dF: -2.538e-08   |Residual|: 2.521e-05   |deigs|: 5.981e-05  t[s]:    104.81
	FillingsUpdate:  mu: -0.097375134  nElectrons: 9.000000  magneticMoment: [ Abs: 0.88210  Tot: -0.88000 ]
SCF: Cycle: 13   F: -42.555398579726656   dF: +4.424e-09   |Residual|: 2.198e-05   |deigs|: 4.892e-05  t[s]:    111.74
	FillingsUpdate:  mu: -0.097351899  nElectrons: 9.000000  magneticMoment: [ Abs: 0.88221  Tot: -0.88000 ]
SCF: Cycle: 14   F: -42.555398550928139   dF: +2.880e-08   |Residual|: 1.975e-05   |deigs|: 3.532e-05  t[s]:    118.65
	FillingsUpdate:  mu: -0.097332589  nElectrons: 9.000000  magneticMoment: [ Abs: 0.88219  Tot: -0.88000 ]
SCF: Cycle: 15   F: -42.555398516286211   dF: +3.464e-08   |Residual|: 1.836e-05   |deigs|: 2.513e-05  t[s]:    125.58
	FillingsUpdate:  mu: -0.097310824  nElectrons: 9.000000  magneticMoment: [ Abs: 0.88215  Tot: -0.88000 ]
SCF: Cycle: 16   F: -42.555398607938486   dF: -9.165e-08   |Residual|: 1.588e-05   |deigs|: 4.032e-05  t[s]:    132.46
	FillingsUpdate:  mu: -0.097294842  nElectrons: 9.000000  magneticMoment: [ Abs: 0.88213  Tot: -0.88000 ]
SCF: Cycle: 17   F: -42.555398597735156   dF: +1.020e-08   |Residual|: 1.381e-05   |deigs|: 2.658e-05  t[s]:    139.37
	FillingsUpdate:  mu: -0.097281547  nElectrons: 9.000000  magneticMoment: [ Abs: 0.88211  Tot: -0.88000 ]
SCF: Cycle: 18   F: -42.555398626358283   dF: -2.862e-08   |Residual|: 1.136e-05   |deigs|: 1.788e-05  t[s]:    146.34
	FillingsUpdate:  mu: -0.097269584  nElectrons: 9.000000  magneticMoment: [ Abs: 0.88211  Tot: -0.88000 ]
SCF: Cycle: 19   F: -42.555398614010798   dF: +1.235e-08   |Residual|: 8.002e-06   |deigs|: 1.524e-05  t[s]:    153.29
	FillingsUpdate:  mu: -0.097266521  nElectrons: 9.000000  magneticMoment: [ Abs: 0.88210  Tot: -0.88000 ]
SCF: Cycle: 20   F: -42.555398625630957   dF: -1.162e-08   |Residual|: 6.648e-06   |deigs|: 1.193e-05  t[s]:    160.27
	FillingsUpdate:  mu: -0.097265221  nElectrons: 9.000000  magneticMoment: [ Abs: 0.88208  Tot: -0.88000 ]
SCF: Cycle: 21   F: -42.555398624404177   dF: +1.227e-09   |Residual|: 5.300e-06   |deigs|: 4.778e-06  t[s]:    167.18
	FillingsUpdate:  mu: -0.097262607  nElectrons: 9.000000  magneticMoment: [ Abs: 0.88205  Tot: -0.88000 ]
SCF: Cycle: 22   F: -42.555398655486584   dF: -3.108e-08   |Residual|: 4.105e-06   |deigs|: 7.233e-06  t[s]:    174.11
	FillingsUpdate:  mu: -0.097260404  nElectrons: 9.000000  magneticMoment: [ Abs: 0.88204  Tot: -0.88000 ]
SCF: Cycle: 23   F: -42.555398667433089   dF: -1.195e-08   |Residual|: 3.099e-06   |deigs|: 5.909e-06  t[s]:    180.74
	FillingsUpdate:  mu: -0.097258126  nElectrons: 9.000000  magneticMoment: [ Abs: 0.88202  Tot: -0.88000 ]
SCF: Cycle: 24   F: -42.555398665958307   dF: +1.475e-09   |Residual|: 1.986e-06   |deigs|: 7.295e-06  t[s]:    187.60
	FillingsUpdate:  mu: -0.097257465  nElectrons: 9.000000  magneticMoment: [ Abs: 0.88200  Tot: -0.88000 ]
SCF: Cycle: 25   F: -42.555398659039483   dF: +6.919e-09   |Residual|: 1.517e-06   |deigs|: 5.990e-06  t[s]:    194.45
	FillingsUpdate:  mu: -0.097257479  nElectrons: 9.000000  magneticMoment: [ Abs: 0.88200  Tot: -0.88000 ]
SCF: Cycle: 26   F: -42.555398668722205   dF: -9.683e-09   |Residual|: 8.748e-07   |deigs|: 5.642e-06  t[s]:    201.18
	FillingsUpdate:  mu: -0.097257745  nElectrons: 9.000000  magneticMoment: [ Abs: 0.88199  Tot: -0.88000 ]
SCF: Cycle: 27   F: -42.555398670628023   dF: -1.906e-09   |Residual|: 6.749e-07   |deigs|: 5.131e-06  t[s]:    207.83
SCF: Converged (|Delta E|<1.000000e-08 for 2 iters).


# Ionic positions in lattice coordinates:
ion Na   0.000000000000000   0.000000000000000   0.000000000000000 0

# Forces in Lattice coordinates:
force Na   0.000000000000000   0.000000000000000   0.000000000000000 0

# Energy components:
   Eewald =       -9.0240130501663280
       EH =       24.8014241409150422
     Eloc =      -60.8475853139839984
      Enl =      -12.9036816508930237
   Epulay =        0.0000012333957556
      Exc =       -6.2184209799897650
       KE =       21.6368777932953620
-------------------------------------
     Etot =      -42.5553978274269511
       TS =        0.0000008432010691
-------------------------------------
        F =      -42.5553986706280227

IonicMinimize: Iter:   0  F: -42.555398670628023  |grad|_K:  0.000e+00  t[s]:    208.10
IonicMinimize: Converged (|grad|_K<1.000000e-04).

#--- Lowdin population analysis ---
# oxidation-state Na +0.001
# magnetic-moments Na -0.880

End date and time: Sat Feb  5 22:26:38 2022  (Duration: 0-0:03:28.17)
Done!
