
*************** JDFTx 1.6.0 (git hash 42ebbcc2) ***************

Start date and time: Sat Feb  5 22:27:02 2022
Executable jdftx with command-line: -i Alkali.in
Running on hosts (process indices):  d-16-13-1 (0-18)
Divided in process groups (process indices):  0 (0)  1 (1)  2 (2)  3 (3)  4 (4)  5 (5)  6 (6)  7 (7)  8 (8)  9 (9)  10 (10)  11 (11)  12 (12)  13 (13)  14 (14)  15 (15)  16 (16)  17 (17)  18 (18)
Resource initialization completed at t[s]:      0.00
Run totals: 19 processes, 48 threads, 0 GPUs


Input parsed successfully to the following command list (including defaults):

basis kpoint-dependent
coords-type Lattice
core-overlap-check vector
coulomb-interaction Slab 001
davidson-band-ratio 1.1
dump End None
dump-name $INPUT.$VAR
elec-cutoff 20
elec-eigen-algo Davidson
elec-ex-corr gga-PBE
elec-initial-magnetization -0.420000 yes
elec-smearing Fermi 1e-05
electronic-minimize  \
	dirUpdateScheme      FletcherReeves \
	linminMethod         DirUpdateRecommended \
	nIterations          100 \
	history              15 \
	knormThreshold       0 \
	energyDiffThreshold  1e-08 \
	nEnergyDiff          2 \
	alphaTstart          1 \
	alphaTmin            1e-10 \
	updateTestStepSize   yes \
	alphaTreduceFactor   0.1 \
	alphaTincreaseFactor 3 \
	nAlphaAdjustMax      3 \
	wolfeEnergy          0.0001 \
	wolfeGradient        0.9 \
	fdTest               no
electronic-scf  \
	nIterations	10000 \
	energyDiffThreshold	1e-08 \
	residualThreshold	1e-07 \
	mixFraction	0.5 \
	qMetric	0.8 \
	history	10 \
	nEigSteps	2 \
	eigDiffThreshold	1e-08 \
	mixedVariable	Density \
	qKerker	0.8 \
	qKappa	-1 \
	verbose	no \
	mixFractionMag	1.5
exchange-regularization WignerSeitzTruncated
fluid None
fluid-ex-corr (null) lda-PZ
fluid-gummel-loop 10 1.000000e-05
fluid-minimize  \
	dirUpdateScheme      PolakRibiere \
	linminMethod         DirUpdateRecommended \
	nIterations          100 \
	history              15 \
	knormThreshold       0 \
	energyDiffThreshold  0 \
	nEnergyDiff          2 \
	alphaTstart          1 \
	alphaTmin            1e-10 \
	updateTestStepSize   yes \
	alphaTreduceFactor   0.1 \
	alphaTincreaseFactor 3 \
	nAlphaAdjustMax      3 \
	wolfeEnergy          0.0001 \
	wolfeGradient        0.9 \
	fdTest               no
fluid-solvent H2O 55.338 ScalarEOS \
	epsBulk 78.4 \
	pMol 0.92466 \
	epsInf 1.77 \
	Pvap 1.06736e-10 \
	sigmaBulk 4.62e-05 \
	Rvdw 2.61727 \
	Res 1.42 \
	tauNuc 343133 \
	poleEl 15 7 1
forces-output-coords Positions
ion Na   0.000000000000000   0.000000000000000   0.000000000000000 0
ion-species SG15/$ID_ONCV_PBE.upf
ion-width 0
ionic-minimize  \
	dirUpdateScheme      L-BFGS \
	linminMethod         DirUpdateRecommended \
	nIterations          0 \
	history              15 \
	knormThreshold       0.0001 \
	energyDiffThreshold  1e-06 \
	nEnergyDiff          2 \
	alphaTstart          1 \
	alphaTmin            1e-10 \
	updateTestStepSize   yes \
	alphaTreduceFactor   0.1 \
	alphaTincreaseFactor 3 \
	nAlphaAdjustMax      3 \
	wolfeEnergy          0.0001 \
	wolfeGradient        0.9 \
	fdTest               no
kpoint   0.000000000000   0.000000000000   0.000000000000  1.00000000000000
kpoint-folding 12 12 1 
latt-move-scale 1 1 1
latt-scale 4 4 1 
lattice  \
	   4.727486978767153   -2.363743489383575    0.000000000000000  \
	  -0.000000000000000    4.094123819672498    0.000000000000000  \
	   0.000000000000000    0.000000000000000   40.000000000000000 
lattice-minimize  \
	dirUpdateScheme      L-BFGS \
	linminMethod         DirUpdateRecommended \
	nIterations          0 \
	history              15 \
	knormThreshold       0 \
	energyDiffThreshold  1e-06 \
	nEnergyDiff          2 \
	alphaTstart          1 \
	alphaTmin            1e-10 \
	updateTestStepSize   yes \
	alphaTreduceFactor   0.1 \
	alphaTincreaseFactor 3 \
	nAlphaAdjustMax      3 \
	wolfeEnergy          0.0001 \
	wolfeGradient        0.9 \
	fdTest               no
lcao-params -1 1e-06 1e-05
pcm-variant GLSSA13
spintype z-spin
subspace-rotation-factor 1 yes
symmetries automatic
symmetry-threshold 0.0001



---------- Setting up symmetries ----------

Found 24 point-group symmetries of the bravais lattice
Found 24 space-group symmetries with basis
Applied RMS atom displacement 0 bohrs to make symmetries exact.

---------- Initializing the Grid ----------
R = 
[      18.9099     -9.45497            0  ]
[            0      16.3765            0  ]
[            0            0           40  ]
unit cell volume = 12387.1
G =
[   0.332269   0.191835         -0  ]
[          0   0.383671         -0  ]
[         -0         -0    0.15708  ]
Minimum fftbox size, Smin = [  80  80  164  ]
Chosen fftbox size, S = [  80  80  168  ]

---------- Exchange Correlation functional ----------
Initalized PBE GGA exchange.
Initalized PBE GGA correlation.

---------- Setting up pseudopotentials ----------
Width of ionic core gaussian charges (only for fluid interactions / plotting) set to 0

Reading pseudopotential file '/home/gridsan/aligho/DFT/build-Nov24/pseudopotentials/SG15/Na_ONCV_PBE.upf':
  'Na' pseudopotential, 'PBE' functional
  Generated using ONCVPSP code by D. R. Hamann
  Author: Martin Schlipf and Francois Gygi  Date: 150915.
  9 valence electrons, 3 orbitals, 4 projectors, 1992 radial grid points, with lMax = 1
  Transforming local potential to a uniform radial grid of dG=0.02 with 1489 points.
  Transforming nonlocal projectors to a uniform radial grid of dG=0.02 with 432 points.
    2S    l: 0   occupation:  2.0   eigenvalue: -2.085640
    2P    l: 1   occupation:  6.0   eigenvalue: -1.053708
    3S    l: 0   occupation:  1.0   eigenvalue: -0.100838
  Transforming atomic orbitals to a uniform radial grid of dG=0.02 with 432 points.
  Core radius for overlap checks: 2.01 bohrs.
  Reading pulay file /home/gridsan/aligho/DFT/build-Nov24/pseudopotentials/SG15/Na_ONCV_PBE.pulay ... using dE_dnG = -2.946487e-03 computed for Ecut = 20.

Initialized 1 species with 1 total atoms.

Folded 1 k-points by 12x12x1 to 144 k-points.

---------- Setting up k-points, bands, fillings ----------
Reduced to 19 k-points under symmetry. 
Computing the number of bands and number of electrons
Calculating initial fillings.
nElectrons:   9.000000   nBands: 6   nStates: 38

----- Setting up reduced wavefunction bases (one per k-point) -----
average nbasis = 52924.021 , ideal nbasis = 52918.836

---------- Setting up coulomb interaction ----------
Initialized slab truncation along lattice direction 001

---------- Setting up 2D ewald sum ----------
Optimum gaussian width for ewald sums = 10.498040 bohr.
Real space sums over 289 unit cells with max indices [  8  8  0  ]
Reciprocal space sums over 81 terms with max indices [  4  4  0  ]

---------- Allocating electronic variables ----------
Initializing wave functions:  linear combination of atomic orbitals
Note: number of bands (6) exceeds available atomic orbitals (5)
Na pseudo-atom occupations:   s ( 2 1 )  p ( 6 )
	FillingsUpdate:  mu: -0.100745900  nElectrons: 9.000000  magneticMoment: [ Abs: 0.42000  Tot: -0.42000 ]
LCAOMinimize: Iter:   0  F: -42.5510009125209265  |grad|_K:  1.140e-06  alpha:  1.000e+00
	FillingsUpdate:  mu: -0.100745655  nElectrons: 9.000000  magneticMoment: [ Abs: 0.42000  Tot: -0.42000 ]
LCAOMinimize: Iter:   1  F: -42.5510009134046499  |grad|_K:  5.117e-09  alpha:  9.958e-01  linmin:  5.348e-04  cgtest: -1.095e-01  t[s]:     15.14
LCAOMinimize: 	Wrong curvature in test step, increasing alphaT to 2.987475e+00.
	FillingsUpdate:  mu: -0.100745655  nElectrons: 9.000000  magneticMoment: [ Abs: 0.42000  Tot: -0.42000 ]
LCAOMinimize: Iter:   2  F: -42.5510009134056233  |grad|_K:  5.601e-10  alpha: -1.870e-02  linmin: -8.724e-06  cgtest:  1.146e-01  t[s]:     19.17
LCAOMinimize: Encountered beta<0, resetting CG.
LCAOMinimize: Converged (|Delta F|<1.000000e-06 for 2 iters).


---- Citations for features of the code used in this run ----

   Software package:
      R. Sundararaman, K. Letchworth-Weaver, K.A. Schwarz, D. Gunceler, Y. Ozhabes and T.A. Arias, 'JDFTx: software for joint density-functional theory', SoftwareX 6, 278 (2017)

   gga-PBE exchange-correlation functional:
      J.P. Perdew, K. Burke and M. Ernzerhof, Phys. Rev. Lett. 77, 3865 (1996)

   Pseudopotentials:
      M Schlipf and F Gygi, Comput. Phys. Commun. 196, 36 (2015)

   Truncated Coulomb potentials:
      R. Sundararaman and T.A. Arias, Phys. Rev. B 87, 165122 (2013)

This list may not be complete. Please suggest additional citations or
report any other bugs at https://github.com/shankar1729/jdftx/issues

Initialization completed successfully at t[s]:     19.33


-------- Electronic minimization -----------
Will mix electronic density at each iteration.
	FillingsUpdate:  mu: -0.100745655  nElectrons: 9.000000  magneticMoment: [ Abs: 0.42000  Tot: -0.42000 ]
	FillingsUpdate:  mu: -0.100793487  nElectrons: 9.000000  magneticMoment: [ Abs: 0.42000  Tot: -0.42000 ]
SCF: Cycle:  0   F: -42.551050356043326   dF: -4.944e-05   |Residual|: 1.929e-03   |deigs|: 1.664e-01  t[s]:     26.90
	FillingsUpdate:  mu: -0.100784585  nElectrons: 9.000000  magneticMoment: [ Abs: 0.42081  Tot: -0.42000 ]
SCF: Cycle:  1   F: -42.551050925997671   dF: -5.700e-07   |Residual|: 8.410e-04   |deigs|: 1.342e-02  t[s]:     32.78
	FillingsUpdate:  mu: -0.100772075  nElectrons: 9.000000  magneticMoment: [ Abs: 0.42062  Tot: -0.42000 ]
SCF: Cycle:  2   F: -42.551051047866068   dF: -1.219e-07   |Residual|: 2.544e-04   |deigs|: 1.969e-03  t[s]:     38.88
	FillingsUpdate:  mu: -0.100761805  nElectrons: 9.000000  magneticMoment: [ Abs: 0.42075  Tot: -0.42000 ]
SCF: Cycle:  3   F: -42.551051091162989   dF: -4.330e-08   |Residual|: 9.808e-05   |deigs|: 5.596e-04  t[s]:     45.12
	FillingsUpdate:  mu: -0.100751645  nElectrons: 9.000000  magneticMoment: [ Abs: 0.42071  Tot: -0.42000 ]
SCF: Cycle:  4   F: -42.551051104598649   dF: -1.344e-08   |Residual|: 6.696e-05   |deigs|: 2.970e-04  t[s]:     51.44
	FillingsUpdate:  mu: -0.100728172  nElectrons: 9.000000  magneticMoment: [ Abs: 0.42073  Tot: -0.42000 ]
SCF: Cycle:  5   F: -42.551051121029353   dF: -1.643e-08   |Residual|: 4.703e-05   |deigs|: 2.057e-04  t[s]:     57.98
	FillingsUpdate:  mu: -0.100714722  nElectrons: 9.000000  magneticMoment: [ Abs: 0.42070  Tot: -0.42000 ]
SCF: Cycle:  6   F: -42.551051124193876   dF: -3.165e-09   |Residual|: 3.022e-05   |deigs|: 1.847e-04  t[s]:     64.58
	FillingsUpdate:  mu: -0.100694413  nElectrons: 9.000000  magneticMoment: [ Abs: 0.42072  Tot: -0.42000 ]
SCF: Cycle:  7   F: -42.551051125315709   dF: -1.122e-09   |Residual|: 2.529e-05   |deigs|: 2.201e-04  t[s]:     71.27
SCF: Converged (|Delta E|<1.000000e-08 for 2 iters).


# Ionic positions in lattice coordinates:
ion Na   0.000000000000000   0.000000000000000   0.000000000000000 0

# Forces in Lattice coordinates:
force Na   0.000000000000000  -0.000000000000000   0.000000000000000 0

# Energy components:
   Eewald =       -9.0240130501663280
       EH =       24.7718615359595518
     Eloc =      -60.8158562538181826
      Enl =      -12.9028134189854669
   Epulay =        0.0000012333957556
      Exc =       -6.2113472308357291
       KE =       21.6311177833284844
-------------------------------------
     Etot =      -42.5510494011219080
       TS =        0.0000017241938031
-------------------------------------
        F =      -42.5510511253157091

IonicMinimize: Iter:   0  F: -42.551051125315709  |grad|_K:  0.000e+00  t[s]:     71.52
IonicMinimize: Converged (|grad|_K<1.000000e-04).

#--- Lowdin population analysis ---
# oxidation-state Na +0.000
# magnetic-moments Na -0.420

End date and time: Sat Feb  5 22:28:14 2022  (Duration: 0-0:01:11.59)
Done!
