
*************** JDFTx 1.6.0 (git hash 42ebbcc2) ***************

Start date and time: Sat Feb  5 22:23:07 2022
Executable jdftx with command-line: -i Alkali.in
Running on hosts (process indices):  d-16-8-3 (0-18)
Divided in process groups (process indices):  0 (0)  1 (1)  2 (2)  3 (3)  4 (4)  5 (5)  6 (6)  7 (7)  8 (8)  9 (9)  10 (10)  11 (11)  12 (12)  13 (13)  14 (14)  15 (15)  16 (16)  17 (17)  18 (18)
Resource initialization completed at t[s]:      0.00
Run totals: 19 processes, 48 threads, 0 GPUs


Input parsed successfully to the following command list (including defaults):

basis kpoint-dependent
coords-type Lattice
core-overlap-check vector
coulomb-interaction Slab 001
davidson-band-ratio 1.1
dump End None
dump-name $INPUT.$VAR
elec-cutoff 20
elec-eigen-algo Davidson
elec-ex-corr gga-PBE
elec-initial-magnetization -0.660000 yes
elec-smearing Fermi 1e-05
electronic-minimize  \
	dirUpdateScheme      FletcherReeves \
	linminMethod         DirUpdateRecommended \
	nIterations          100 \
	history              15 \
	knormThreshold       0 \
	energyDiffThreshold  1e-08 \
	nEnergyDiff          2 \
	alphaTstart          1 \
	alphaTmin            1e-10 \
	updateTestStepSize   yes \
	alphaTreduceFactor   0.1 \
	alphaTincreaseFactor 3 \
	nAlphaAdjustMax      3 \
	wolfeEnergy          0.0001 \
	wolfeGradient        0.9 \
	fdTest               no
electronic-scf  \
	nIterations	10000 \
	energyDiffThreshold	1e-08 \
	residualThreshold	1e-07 \
	mixFraction	0.5 \
	qMetric	0.8 \
	history	10 \
	nEigSteps	2 \
	eigDiffThreshold	1e-08 \
	mixedVariable	Density \
	qKerker	0.8 \
	qKappa	-1 \
	verbose	no \
	mixFractionMag	1.5
exchange-regularization WignerSeitzTruncated
fluid None
fluid-ex-corr (null) lda-PZ
fluid-gummel-loop 10 1.000000e-05
fluid-minimize  \
	dirUpdateScheme      PolakRibiere \
	linminMethod         DirUpdateRecommended \
	nIterations          100 \
	history              15 \
	knormThreshold       0 \
	energyDiffThreshold  0 \
	nEnergyDiff          2 \
	alphaTstart          1 \
	alphaTmin            1e-10 \
	updateTestStepSize   yes \
	alphaTreduceFactor   0.1 \
	alphaTincreaseFactor 3 \
	nAlphaAdjustMax      3 \
	wolfeEnergy          0.0001 \
	wolfeGradient        0.9 \
	fdTest               no
fluid-solvent H2O 55.338 ScalarEOS \
	epsBulk 78.4 \
	pMol 0.92466 \
	epsInf 1.77 \
	Pvap 1.06736e-10 \
	sigmaBulk 4.62e-05 \
	Rvdw 2.61727 \
	Res 1.42 \
	tauNuc 343133 \
	poleEl 15 7 1
forces-output-coords Positions
ion Na   0.000000000000000   0.000000000000000   0.000000000000000 0
ion-species SG15/$ID_ONCV_PBE.upf
ion-width 0
ionic-minimize  \
	dirUpdateScheme      L-BFGS \
	linminMethod         DirUpdateRecommended \
	nIterations          0 \
	history              15 \
	knormThreshold       0.0001 \
	energyDiffThreshold  1e-06 \
	nEnergyDiff          2 \
	alphaTstart          1 \
	alphaTmin            1e-10 \
	updateTestStepSize   yes \
	alphaTreduceFactor   0.1 \
	alphaTincreaseFactor 3 \
	nAlphaAdjustMax      3 \
	wolfeEnergy          0.0001 \
	wolfeGradient        0.9 \
	fdTest               no
kpoint   0.000000000000   0.000000000000   0.000000000000  1.00000000000000
kpoint-folding 12 12 1 
latt-move-scale 1 1 1
latt-scale 4 4 1 
lattice  \
	   4.727486978767153   -2.363743489383575    0.000000000000000  \
	  -0.000000000000000    4.094123819672498    0.000000000000000  \
	   0.000000000000000    0.000000000000000   40.000000000000000 
lattice-minimize  \
	dirUpdateScheme      L-BFGS \
	linminMethod         DirUpdateRecommended \
	nIterations          0 \
	history              15 \
	knormThreshold       0 \
	energyDiffThreshold  1e-06 \
	nEnergyDiff          2 \
	alphaTstart          1 \
	alphaTmin            1e-10 \
	updateTestStepSize   yes \
	alphaTreduceFactor   0.1 \
	alphaTincreaseFactor 3 \
	nAlphaAdjustMax      3 \
	wolfeEnergy          0.0001 \
	wolfeGradient        0.9 \
	fdTest               no
lcao-params -1 1e-06 1e-05
pcm-variant GLSSA13
spintype z-spin
subspace-rotation-factor 1 yes
symmetries automatic
symmetry-threshold 0.0001



---------- Setting up symmetries ----------

Found 24 point-group symmetries of the bravais lattice
Found 24 space-group symmetries with basis
Applied RMS atom displacement 0 bohrs to make symmetries exact.

---------- Initializing the Grid ----------
R = 
[      18.9099     -9.45497            0  ]
[            0      16.3765            0  ]
[            0            0           40  ]
unit cell volume = 12387.1
G =
[   0.332269   0.191835         -0  ]
[          0   0.383671         -0  ]
[         -0         -0    0.15708  ]
Minimum fftbox size, Smin = [  80  80  164  ]
Chosen fftbox size, S = [  80  80  168  ]

---------- Exchange Correlation functional ----------
Initalized PBE GGA exchange.
Initalized PBE GGA correlation.

---------- Setting up pseudopotentials ----------
Width of ionic core gaussian charges (only for fluid interactions / plotting) set to 0

Reading pseudopotential file '/home/gridsan/aligho/DFT/build-Nov24/pseudopotentials/SG15/Na_ONCV_PBE.upf':
  'Na' pseudopotential, 'PBE' functional
  Generated using ONCVPSP code by D. R. Hamann
  Author: Martin Schlipf and Francois Gygi  Date: 150915.
  9 valence electrons, 3 orbitals, 4 projectors, 1992 radial grid points, with lMax = 1
  Transforming local potential to a uniform radial grid of dG=0.02 with 1489 points.
  Transforming nonlocal projectors to a uniform radial grid of dG=0.02 with 432 points.
    2S    l: 0   occupation:  2.0   eigenvalue: -2.085640
    2P    l: 1   occupation:  6.0   eigenvalue: -1.053708
    3S    l: 0   occupation:  1.0   eigenvalue: -0.100838
  Transforming atomic orbitals to a uniform radial grid of dG=0.02 with 432 points.
  Core radius for overlap checks: 2.01 bohrs.
  Reading pulay file /home/gridsan/aligho/DFT/build-Nov24/pseudopotentials/SG15/Na_ONCV_PBE.pulay ... using dE_dnG = -2.946487e-03 computed for Ecut = 20.

Initialized 1 species with 1 total atoms.

Folded 1 k-points by 12x12x1 to 144 k-points.

---------- Setting up k-points, bands, fillings ----------
Reduced to 19 k-points under symmetry. 
Computing the number of bands and number of electrons
Calculating initial fillings.
nElectrons:   9.000000   nBands: 6   nStates: 38

----- Setting up reduced wavefunction bases (one per k-point) -----
average nbasis = 52924.021 , ideal nbasis = 52918.836

---------- Setting up coulomb interaction ----------
Initialized slab truncation along lattice direction 001

---------- Setting up 2D ewald sum ----------
Optimum gaussian width for ewald sums = 10.498040 bohr.
Real space sums over 289 unit cells with max indices [  8  8  0  ]
Reciprocal space sums over 81 terms with max indices [  4  4  0  ]

---------- Allocating electronic variables ----------
Initializing wave functions:  linear combination of atomic orbitals
Note: number of bands (6) exceeds available atomic orbitals (5)
Na pseudo-atom occupations:   s ( 2 1 )  p ( 6 )
	FillingsUpdate:  mu: -0.100100384  nElectrons: 9.000000  magneticMoment: [ Abs: 0.66000  Tot: -0.66000 ]
LCAOMinimize: Iter:   0  F: -42.5528338882548596  |grad|_K:  8.976e-07  alpha:  1.000e+00
	FillingsUpdate:  mu: -0.100100191  nElectrons: 9.000000  magneticMoment: [ Abs: 0.66000  Tot: -0.66000 ]
LCAOMinimize: Iter:   1  F: -42.5528338888037325  |grad|_K:  3.968e-09  alpha:  9.952e-01  linmin: -4.617e-03  cgtest:  2.613e-01  t[s]:     14.73
LCAOMinimize: Encountered beta<0, resetting CG.
LCAOMinimize: 	Wrong curvature in test step, increasing alphaT to 2.985717e+00.
	FillingsUpdate:  mu: -0.100100191  nElectrons: 9.000000  magneticMoment: [ Abs: 0.66000  Tot: -0.66000 ]
LCAOMinimize: Iter:   2  F: -42.5528338888039457  |grad|_K:  1.860e-11  alpha: -5.561e-02  linmin: -1.964e-02  cgtest:  5.564e-01  t[s]:     18.59
LCAOMinimize: Encountered beta<0, resetting CG.
LCAOMinimize: Converged (|Delta F|<1.000000e-06 for 2 iters).


---- Citations for features of the code used in this run ----

   Software package:
      R. Sundararaman, K. Letchworth-Weaver, K.A. Schwarz, D. Gunceler, Y. Ozhabes and T.A. Arias, 'JDFTx: software for joint density-functional theory', SoftwareX 6, 278 (2017)

   gga-PBE exchange-correlation functional:
      J.P. Perdew, K. Burke and M. Ernzerhof, Phys. Rev. Lett. 77, 3865 (1996)

   Pseudopotentials:
      M Schlipf and F Gygi, Comput. Phys. Commun. 196, 36 (2015)

   Truncated Coulomb potentials:
      R. Sundararaman and T.A. Arias, Phys. Rev. B 87, 165122 (2013)

This list may not be complete. Please suggest additional citations or
report any other bugs at https://github.com/shankar1729/jdftx/issues

Initialization completed successfully at t[s]:     18.74


-------- Electronic minimization -----------
Will mix electronic density at each iteration.
	FillingsUpdate:  mu: -0.100100191  nElectrons: 9.000000  magneticMoment: [ Abs: 0.66000  Tot: -0.66000 ]
	FillingsUpdate:  mu: -0.100212949  nElectrons: 9.000000  magneticMoment: [ Abs: 0.66000  Tot: -0.66000 ]
SCF: Cycle:  0   F: -42.552923654963834   dF: -8.977e-05   |Residual|: 2.213e-03   |deigs|: 1.596e-01  t[s]:     26.23
	FillingsUpdate:  mu: -0.100212471  nElectrons: 9.000000  magneticMoment: [ Abs: 0.66153  Tot: -0.66000 ]
SCF: Cycle:  1   F: -42.552924876866989   dF: -1.222e-06   |Residual|: 8.996e-04   |deigs|: 1.696e-02  t[s]:     32.03
	FillingsUpdate:  mu: -0.100110370  nElectrons: 9.000000  magneticMoment: [ Abs: 0.66116  Tot: -0.66000 ]
SCF: Cycle:  2   F: -42.552925220991931   dF: -3.441e-07   |Residual|: 4.575e-04   |deigs|: 4.101e-03  t[s]:     37.97
	FillingsUpdate:  mu: -0.100019120  nElectrons: 9.000000  magneticMoment: [ Abs: 0.66137  Tot: -0.66000 ]
SCF: Cycle:  3   F: -42.552925372939917   dF: -1.519e-07   |Residual|: 2.653e-04   |deigs|: 8.399e-04  t[s]:     43.97
	FillingsUpdate:  mu: -0.099909303  nElectrons: 9.000000  magneticMoment: [ Abs: 0.66123  Tot: -0.66000 ]
SCF: Cycle:  4   F: -42.552925433433806   dF: -6.049e-08   |Residual|: 1.734e-04   |deigs|: 4.816e-04  t[s]:     50.12
	FillingsUpdate:  mu: -0.099759034  nElectrons: 9.000000  magneticMoment: [ Abs: 0.66126  Tot: -0.66000 ]
SCF: Cycle:  5   F: -42.552925434094483   dF: -6.607e-10   |Residual|: 1.056e-04   |deigs|: 3.871e-04  t[s]:     56.32
	FillingsUpdate:  mu: -0.099717438  nElectrons: 9.000000  magneticMoment: [ Abs: 0.66124  Tot: -0.66000 ]
SCF: Cycle:  6   F: -42.552925470286667   dF: -3.619e-08   |Residual|: 7.214e-05   |deigs|: 1.198e-04  t[s]:     62.68
	FillingsUpdate:  mu: -0.099689771  nElectrons: 9.000000  magneticMoment: [ Abs: 0.66128  Tot: -0.66000 ]
SCF: Cycle:  7   F: -42.552925514945883   dF: -4.466e-08   |Residual|: 5.182e-05   |deigs|: 7.105e-05  t[s]:     69.13
	FillingsUpdate:  mu: -0.099669361  nElectrons: 9.000000  magneticMoment: [ Abs: 0.66125  Tot: -0.66000 ]
SCF: Cycle:  8   F: -42.552925543478445   dF: -2.853e-08   |Residual|: 4.030e-05   |deigs|: 6.395e-05  t[s]:     75.74
	FillingsUpdate:  mu: -0.099659880  nElectrons: 9.000000  magneticMoment: [ Abs: 0.66129  Tot: -0.66000 ]
SCF: Cycle:  9   F: -42.552925552268142   dF: -8.790e-09   |Residual|: 2.436e-05   |deigs|: 4.842e-05  t[s]:     82.45
	FillingsUpdate:  mu: -0.099655065  nElectrons: 9.000000  magneticMoment: [ Abs: 0.66126  Tot: -0.66000 ]
SCF: Cycle: 10   F: -42.552925552548601   dF: -2.805e-10   |Residual|: 2.169e-05   |deigs|: 4.318e-05  t[s]:     89.27
SCF: Converged (|Delta E|<1.000000e-08 for 2 iters).


# Ionic positions in lattice coordinates:
ion Na   0.000000000000000   0.000000000000000   0.000000000000000 0

# Forces in Lattice coordinates:
force Na   0.000000000000000   0.000000000000000   0.000000000000000 0

# Energy components:
   Eewald =       -9.0240130501663280
       EH =       24.7850535200444106
     Eloc =      -60.8299823026928337
      Enl =      -12.9031796832826959
   Epulay =        0.0000012333957556
      Exc =       -6.2144194311998326
       KE =       21.6336156471515295
-------------------------------------
     Etot =      -42.5529240667499948
       TS =        0.0000014857986027
-------------------------------------
        F =      -42.5529255525486008

IonicMinimize: Iter:   0  F: -42.552925552548601  |grad|_K:  0.000e+00  t[s]:     89.52
IonicMinimize: Converged (|grad|_K<1.000000e-04).

#--- Lowdin population analysis ---
# oxidation-state Na +0.000
# magnetic-moments Na -0.660

End date and time: Sat Feb  5 22:24:36 2022  (Duration: 0-0:01:29.60)
Done!
