
*************** JDFTx 1.6.0 (git hash 42ebbcc2) ***************

Start date and time: Sat Feb  5 22:35:52 2022
Executable jdftx with command-line: -i Alkali.in
Running on hosts (process indices):  d-16-1-2 (0-18)
Divided in process groups (process indices):  0 (0)  1 (1)  2 (2)  3 (3)  4 (4)  5 (5)  6 (6)  7 (7)  8 (8)  9 (9)  10 (10)  11 (11)  12 (12)  13 (13)  14 (14)  15 (15)  16 (16)  17 (17)  18 (18)
Resource initialization completed at t[s]:      0.00
Run totals: 19 processes, 48 threads, 0 GPUs


Input parsed successfully to the following command list (including defaults):

basis kpoint-dependent
coords-type Lattice
core-overlap-check vector
coulomb-interaction Slab 001
davidson-band-ratio 1.1
dump End None
dump-name $INPUT.$VAR
elec-cutoff 20
elec-eigen-algo Davidson
elec-ex-corr gga-PBE
elec-initial-magnetization 0.640000 yes
elec-smearing Fermi 1e-05
electronic-minimize  \
	dirUpdateScheme      FletcherReeves \
	linminMethod         DirUpdateRecommended \
	nIterations          100 \
	history              15 \
	knormThreshold       0 \
	energyDiffThreshold  1e-08 \
	nEnergyDiff          2 \
	alphaTstart          1 \
	alphaTmin            1e-10 \
	updateTestStepSize   yes \
	alphaTreduceFactor   0.1 \
	alphaTincreaseFactor 3 \
	nAlphaAdjustMax      3 \
	wolfeEnergy          0.0001 \
	wolfeGradient        0.9 \
	fdTest               no
electronic-scf  \
	nIterations	10000 \
	energyDiffThreshold	1e-08 \
	residualThreshold	1e-07 \
	mixFraction	0.5 \
	qMetric	0.8 \
	history	10 \
	nEigSteps	2 \
	eigDiffThreshold	1e-08 \
	mixedVariable	Density \
	qKerker	0.8 \
	qKappa	-1 \
	verbose	no \
	mixFractionMag	1.5
exchange-regularization WignerSeitzTruncated
fluid None
fluid-ex-corr (null) lda-PZ
fluid-gummel-loop 10 1.000000e-05
fluid-minimize  \
	dirUpdateScheme      PolakRibiere \
	linminMethod         DirUpdateRecommended \
	nIterations          100 \
	history              15 \
	knormThreshold       0 \
	energyDiffThreshold  0 \
	nEnergyDiff          2 \
	alphaTstart          1 \
	alphaTmin            1e-10 \
	updateTestStepSize   yes \
	alphaTreduceFactor   0.1 \
	alphaTincreaseFactor 3 \
	nAlphaAdjustMax      3 \
	wolfeEnergy          0.0001 \
	wolfeGradient        0.9 \
	fdTest               no
fluid-solvent H2O 55.338 ScalarEOS \
	epsBulk 78.4 \
	pMol 0.92466 \
	epsInf 1.77 \
	Pvap 1.06736e-10 \
	sigmaBulk 4.62e-05 \
	Rvdw 2.61727 \
	Res 1.42 \
	tauNuc 343133 \
	poleEl 15 7 1
forces-output-coords Positions
ion Na   0.000000000000000   0.000000000000000   0.000000000000000 0
ion-species SG15/$ID_ONCV_PBE.upf
ion-width 0
ionic-minimize  \
	dirUpdateScheme      L-BFGS \
	linminMethod         DirUpdateRecommended \
	nIterations          0 \
	history              15 \
	knormThreshold       0.0001 \
	energyDiffThreshold  1e-06 \
	nEnergyDiff          2 \
	alphaTstart          1 \
	alphaTmin            1e-10 \
	updateTestStepSize   yes \
	alphaTreduceFactor   0.1 \
	alphaTincreaseFactor 3 \
	nAlphaAdjustMax      3 \
	wolfeEnergy          0.0001 \
	wolfeGradient        0.9 \
	fdTest               no
kpoint   0.000000000000   0.000000000000   0.000000000000  1.00000000000000
kpoint-folding 12 12 1 
latt-move-scale 1 1 1
latt-scale 4 4 1 
lattice  \
	   4.727486978767153   -2.363743489383575    0.000000000000000  \
	  -0.000000000000000    4.094123819672498    0.000000000000000  \
	   0.000000000000000    0.000000000000000   40.000000000000000 
lattice-minimize  \
	dirUpdateScheme      L-BFGS \
	linminMethod         DirUpdateRecommended \
	nIterations          0 \
	history              15 \
	knormThreshold       0 \
	energyDiffThreshold  1e-06 \
	nEnergyDiff          2 \
	alphaTstart          1 \
	alphaTmin            1e-10 \
	updateTestStepSize   yes \
	alphaTreduceFactor   0.1 \
	alphaTincreaseFactor 3 \
	nAlphaAdjustMax      3 \
	wolfeEnergy          0.0001 \
	wolfeGradient        0.9 \
	fdTest               no
lcao-params -1 1e-06 1e-05
pcm-variant GLSSA13
spintype z-spin
subspace-rotation-factor 1 yes
symmetries automatic
symmetry-threshold 0.0001



---------- Setting up symmetries ----------

Found 24 point-group symmetries of the bravais lattice
Found 24 space-group symmetries with basis
Applied RMS atom displacement 0 bohrs to make symmetries exact.

---------- Initializing the Grid ----------
R = 
[      18.9099     -9.45497            0  ]
[            0      16.3765            0  ]
[            0            0           40  ]
unit cell volume = 12387.1
G =
[   0.332269   0.191835         -0  ]
[          0   0.383671         -0  ]
[         -0         -0    0.15708  ]
Minimum fftbox size, Smin = [  80  80  164  ]
Chosen fftbox size, S = [  80  80  168  ]

---------- Exchange Correlation functional ----------
Initalized PBE GGA exchange.
Initalized PBE GGA correlation.

---------- Setting up pseudopotentials ----------
Width of ionic core gaussian charges (only for fluid interactions / plotting) set to 0

Reading pseudopotential file '/home/gridsan/aligho/DFT/build-Nov24/pseudopotentials/SG15/Na_ONCV_PBE.upf':
  'Na' pseudopotential, 'PBE' functional
  Generated using ONCVPSP code by D. R. Hamann
  Author: Martin Schlipf and Francois Gygi  Date: 150915.
  9 valence electrons, 3 orbitals, 4 projectors, 1992 radial grid points, with lMax = 1
  Transforming local potential to a uniform radial grid of dG=0.02 with 1489 points.
  Transforming nonlocal projectors to a uniform radial grid of dG=0.02 with 432 points.
    2S    l: 0   occupation:  2.0   eigenvalue: -2.085640
    2P    l: 1   occupation:  6.0   eigenvalue: -1.053708
    3S    l: 0   occupation:  1.0   eigenvalue: -0.100838
  Transforming atomic orbitals to a uniform radial grid of dG=0.02 with 432 points.
  Core radius for overlap checks: 2.01 bohrs.
  Reading pulay file /home/gridsan/aligho/DFT/build-Nov24/pseudopotentials/SG15/Na_ONCV_PBE.pulay ... using dE_dnG = -2.946487e-03 computed for Ecut = 20.

Initialized 1 species with 1 total atoms.

Folded 1 k-points by 12x12x1 to 144 k-points.

---------- Setting up k-points, bands, fillings ----------
Reduced to 19 k-points under symmetry. 
Computing the number of bands and number of electrons
Calculating initial fillings.
nElectrons:   9.000000   nBands: 6   nStates: 38

----- Setting up reduced wavefunction bases (one per k-point) -----
average nbasis = 52924.021 , ideal nbasis = 52918.836

---------- Setting up coulomb interaction ----------
Initialized slab truncation along lattice direction 001

---------- Setting up 2D ewald sum ----------
Optimum gaussian width for ewald sums = 10.498040 bohr.
Real space sums over 289 unit cells with max indices [  8  8  0  ]
Reciprocal space sums over 81 terms with max indices [  4  4  0  ]

---------- Allocating electronic variables ----------
Initializing wave functions:  linear combination of atomic orbitals
Note: number of bands (6) exceeds available atomic orbitals (5)
Na pseudo-atom occupations:   s ( 2 1 )  p ( 6 )
	FillingsUpdate:  mu: -0.100186293  nElectrons: 9.000000  magneticMoment: [ Abs: 0.64000  Tot: +0.64000 ]
LCAOMinimize: Iter:   0  F: -42.5526499280250476  |grad|_K:  8.532e-07  alpha:  1.000e+00
	FillingsUpdate:  mu: -0.100186128  nElectrons: 9.000000  magneticMoment: [ Abs: 0.64000  Tot: +0.64000 ]
LCAOMinimize: Iter:   1  F: -42.5526499285208075  |grad|_K:  3.638e-09  alpha:  9.955e-01  linmin: -5.402e-04  cgtest:  2.989e-02  t[s]:     14.75
LCAOMinimize: Encountered beta<0, resetting CG.
LCAOMinimize: 	Step increased F by 2.557954e-13, reducing alpha to 3.157137e-02.
LCAOMinimize: 	Step increased F by 2.842171e-14, reducing alpha to 3.157137e-03.
	FillingsUpdate:  mu: -0.100186128  nElectrons: 9.000000  magneticMoment: [ Abs: 0.64000  Tot: +0.64000 ]
LCAOMinimize: Iter:   2  F: -42.5526499285208928  |grad|_K:  3.627e-09  alpha:  3.157e-03  linmin: -4.051e-02  cgtest:  1.000e+00  t[s]:     23.36
LCAOMinimize: Encountered beta<0, resetting CG.
LCAOMinimize: Converged (|Delta F|<1.000000e-06 for 2 iters).


---- Citations for features of the code used in this run ----

   Software package:
      R. Sundararaman, K. Letchworth-Weaver, K.A. Schwarz, D. Gunceler, Y. Ozhabes and T.A. Arias, 'JDFTx: software for joint density-functional theory', SoftwareX 6, 278 (2017)

   gga-PBE exchange-correlation functional:
      J.P. Perdew, K. Burke and M. Ernzerhof, Phys. Rev. Lett. 77, 3865 (1996)

   Pseudopotentials:
      M Schlipf and F Gygi, Comput. Phys. Commun. 196, 36 (2015)

   Truncated Coulomb potentials:
      R. Sundararaman and T.A. Arias, Phys. Rev. B 87, 165122 (2013)

This list may not be complete. Please suggest additional citations or
report any other bugs at https://github.com/shankar1729/jdftx/issues

Initialization completed successfully at t[s]:     23.51


-------- Electronic minimization -----------
Will mix electronic density at each iteration.
	FillingsUpdate:  mu: -0.100186128  nElectrons: 9.000000  magneticMoment: [ Abs: 0.64000  Tot: +0.64000 ]
	FillingsUpdate:  mu: -0.100291601  nElectrons: 9.000000  magneticMoment: [ Abs: 0.64000  Tot: +0.64000 ]
SCF: Cycle:  0   F: -42.552735768864821   dF: -8.584e-05   |Residual|: 2.181e-03   |deigs|: 1.601e-01  t[s]:     30.98
	FillingsUpdate:  mu: -0.100286951  nElectrons: 9.000000  magneticMoment: [ Abs: 0.64146  Tot: +0.64000 ]
SCF: Cycle:  1   F: -42.552736929542107   dF: -1.161e-06   |Residual|: 8.886e-04   |deigs|: 1.661e-02  t[s]:     36.82
	FillingsUpdate:  mu: -0.100194320  nElectrons: 9.000000  magneticMoment: [ Abs: 0.64111  Tot: +0.64000 ]
SCF: Cycle:  2   F: -42.552737235981255   dF: -3.064e-07   |Residual|: 4.360e-04   |deigs|: 4.109e-03  t[s]:     42.80
	FillingsUpdate:  mu: -0.100113737  nElectrons: 9.000000  magneticMoment: [ Abs: 0.64131  Tot: +0.64000 ]
SCF: Cycle:  3   F: -42.552737372127879   dF: -1.361e-07   |Residual|: 2.479e-04   |deigs|: 6.922e-04  t[s]:     48.95
	FillingsUpdate:  mu: -0.100018947  nElectrons: 9.000000  magneticMoment: [ Abs: 0.64118  Tot: +0.64000 ]
SCF: Cycle:  4   F: -42.552737426476092   dF: -5.435e-08   |Residual|: 1.646e-04   |deigs|: 4.240e-04  t[s]:     55.17
	FillingsUpdate:  mu: -0.099878303  nElectrons: 9.000000  magneticMoment: [ Abs: 0.64121  Tot: +0.64000 ]
SCF: Cycle:  5   F: -42.552737429286054   dF: -2.810e-09   |Residual|: 9.973e-05   |deigs|: 4.227e-04  t[s]:     61.46
	FillingsUpdate:  mu: -0.099838479  nElectrons: 9.000000  magneticMoment: [ Abs: 0.64119  Tot: +0.64000 ]
SCF: Cycle:  6   F: -42.552737457038909   dF: -2.775e-08   |Residual|: 6.778e-05   |deigs|: 1.775e-04  t[s]:     67.86
	FillingsUpdate:  mu: -0.099811427  nElectrons: 9.000000  magneticMoment: [ Abs: 0.64123  Tot: +0.64000 ]
SCF: Cycle:  7   F: -42.552737493954652   dF: -3.692e-08   |Residual|: 4.907e-05   |deigs|: 1.043e-04  t[s]:     74.39
	FillingsUpdate:  mu: -0.099791580  nElectrons: 9.000000  magneticMoment: [ Abs: 0.64119  Tot: +0.64000 ]
SCF: Cycle:  8   F: -42.552737518720370   dF: -2.477e-08   |Residual|: 3.929e-05   |deigs|: 8.989e-05  t[s]:     81.00
	FillingsUpdate:  mu: -0.099782318  nElectrons: 9.000000  magneticMoment: [ Abs: 0.64123  Tot: +0.64000 ]
SCF: Cycle:  9   F: -42.552737527665258   dF: -8.945e-09   |Residual|: 2.347e-05   |deigs|: 6.909e-05  t[s]:     87.78
	FillingsUpdate:  mu: -0.099777535  nElectrons: 9.000000  magneticMoment: [ Abs: 0.64121  Tot: +0.64000 ]
SCF: Cycle: 10   F: -42.552737528181424   dF: -5.162e-10   |Residual|: 2.055e-05   |deigs|: 5.705e-05  t[s]:     94.65
SCF: Converged (|Delta E|<1.000000e-08 for 2 iters).


# Ionic positions in lattice coordinates:
ion Na   0.000000000000000   0.000000000000000   0.000000000000000 0

# Forces in Lattice coordinates:
force Na   0.000000000000000  -0.000000000000000   0.000000000000000 0

# Energy components:
   Eewald =       -9.0240130501663280
       EH =       24.7837532018539903
     Eloc =      -60.8285863698588116
      Enl =      -12.9031368605099921
   Epulay =        0.0000012333957556
      Exc =       -6.2141113922242912
       KE =       21.6333573549678562
-------------------------------------
     Etot =      -42.5527358825418105
       TS =        0.0000016456396133
-------------------------------------
        F =      -42.5527375281814244

IonicMinimize: Iter:   0  F: -42.552737528181424  |grad|_K:  0.000e+00  t[s]:     94.90
IonicMinimize: Converged (|grad|_K<1.000000e-04).

#--- Lowdin population analysis ---
# oxidation-state Na +0.000
# magnetic-moments Na +0.640

End date and time: Sat Feb  5 22:37:27 2022  (Duration: 0-0:01:34.97)
Done!
