
*************** JDFTx 1.6.0 (git hash 42ebbcc2) ***************

Start date and time: Sat Feb  5 22:23:10 2022
Executable jdftx with command-line: -i Alkali.in
Running on hosts (process indices):  d-5-12-1 (0-18)
Divided in process groups (process indices):  0 (0)  1 (1)  2 (2)  3 (3)  4 (4)  5 (5)  6 (6)  7 (7)  8 (8)  9 (9)  10 (10)  11 (11)  12 (12)  13 (13)  14 (14)  15 (15)  16 (16)  17 (17)  18 (18)
Resource initialization completed at t[s]:      0.00
Run totals: 19 processes, 48 threads, 0 GPUs


Input parsed successfully to the following command list (including defaults):

basis kpoint-dependent
coords-type Lattice
core-overlap-check vector
coulomb-interaction Slab 001
davidson-band-ratio 1.1
dump End None
dump-name $INPUT.$VAR
elec-cutoff 20
elec-eigen-algo Davidson
elec-ex-corr gga-PBE
elec-initial-magnetization -0.860000 yes
elec-smearing Fermi 1e-05
electronic-minimize  \
	dirUpdateScheme      FletcherReeves \
	linminMethod         DirUpdateRecommended \
	nIterations          100 \
	history              15 \
	knormThreshold       0 \
	energyDiffThreshold  1e-08 \
	nEnergyDiff          2 \
	alphaTstart          1 \
	alphaTmin            1e-10 \
	updateTestStepSize   yes \
	alphaTreduceFactor   0.1 \
	alphaTincreaseFactor 3 \
	nAlphaAdjustMax      3 \
	wolfeEnergy          0.0001 \
	wolfeGradient        0.9 \
	fdTest               no
electronic-scf  \
	nIterations	10000 \
	energyDiffThreshold	1e-08 \
	residualThreshold	1e-07 \
	mixFraction	0.5 \
	qMetric	0.8 \
	history	10 \
	nEigSteps	2 \
	eigDiffThreshold	1e-08 \
	mixedVariable	Density \
	qKerker	0.8 \
	qKappa	-1 \
	verbose	no \
	mixFractionMag	1.5
exchange-regularization WignerSeitzTruncated
fluid None
fluid-ex-corr (null) lda-PZ
fluid-gummel-loop 10 1.000000e-05
fluid-minimize  \
	dirUpdateScheme      PolakRibiere \
	linminMethod         DirUpdateRecommended \
	nIterations          100 \
	history              15 \
	knormThreshold       0 \
	energyDiffThreshold  0 \
	nEnergyDiff          2 \
	alphaTstart          1 \
	alphaTmin            1e-10 \
	updateTestStepSize   yes \
	alphaTreduceFactor   0.1 \
	alphaTincreaseFactor 3 \
	nAlphaAdjustMax      3 \
	wolfeEnergy          0.0001 \
	wolfeGradient        0.9 \
	fdTest               no
fluid-solvent H2O 55.338 ScalarEOS \
	epsBulk 78.4 \
	pMol 0.92466 \
	epsInf 1.77 \
	Pvap 1.06736e-10 \
	sigmaBulk 4.62e-05 \
	Rvdw 2.61727 \
	Res 1.42 \
	tauNuc 343133 \
	poleEl 15 7 1
forces-output-coords Positions
ion Na   0.000000000000000   0.000000000000000   0.000000000000000 0
ion-species SG15/$ID_ONCV_PBE.upf
ion-width 0
ionic-minimize  \
	dirUpdateScheme      L-BFGS \
	linminMethod         DirUpdateRecommended \
	nIterations          0 \
	history              15 \
	knormThreshold       0.0001 \
	energyDiffThreshold  1e-06 \
	nEnergyDiff          2 \
	alphaTstart          1 \
	alphaTmin            1e-10 \
	updateTestStepSize   yes \
	alphaTreduceFactor   0.1 \
	alphaTincreaseFactor 3 \
	nAlphaAdjustMax      3 \
	wolfeEnergy          0.0001 \
	wolfeGradient        0.9 \
	fdTest               no
kpoint   0.000000000000   0.000000000000   0.000000000000  1.00000000000000
kpoint-folding 12 12 1 
latt-move-scale 1 1 1
latt-scale 4 4 1 
lattice  \
	   4.727486978767153   -2.363743489383575    0.000000000000000  \
	  -0.000000000000000    4.094123819672498    0.000000000000000  \
	   0.000000000000000    0.000000000000000   40.000000000000000 
lattice-minimize  \
	dirUpdateScheme      L-BFGS \
	linminMethod         DirUpdateRecommended \
	nIterations          0 \
	history              15 \
	knormThreshold       0 \
	energyDiffThreshold  1e-06 \
	nEnergyDiff          2 \
	alphaTstart          1 \
	alphaTmin            1e-10 \
	updateTestStepSize   yes \
	alphaTreduceFactor   0.1 \
	alphaTincreaseFactor 3 \
	nAlphaAdjustMax      3 \
	wolfeEnergy          0.0001 \
	wolfeGradient        0.9 \
	fdTest               no
lcao-params -1 1e-06 1e-05
pcm-variant GLSSA13
spintype z-spin
subspace-rotation-factor 1 yes
symmetries automatic
symmetry-threshold 0.0001



---------- Setting up symmetries ----------

Found 24 point-group symmetries of the bravais lattice
Found 24 space-group symmetries with basis
Applied RMS atom displacement 0 bohrs to make symmetries exact.

---------- Initializing the Grid ----------
R = 
[      18.9099     -9.45497            0  ]
[            0      16.3765            0  ]
[            0            0           40  ]
unit cell volume = 12387.1
G =
[   0.332269   0.191835         -0  ]
[          0   0.383671         -0  ]
[         -0         -0    0.15708  ]
Minimum fftbox size, Smin = [  80  80  164  ]
Chosen fftbox size, S = [  80  80  168  ]

---------- Exchange Correlation functional ----------
Initalized PBE GGA exchange.
Initalized PBE GGA correlation.

---------- Setting up pseudopotentials ----------
Width of ionic core gaussian charges (only for fluid interactions / plotting) set to 0

Reading pseudopotential file '/home/gridsan/aligho/DFT/build-Nov24/pseudopotentials/SG15/Na_ONCV_PBE.upf':
  'Na' pseudopotential, 'PBE' functional
  Generated using ONCVPSP code by D. R. Hamann
  Author: Martin Schlipf and Francois Gygi  Date: 150915.
  9 valence electrons, 3 orbitals, 4 projectors, 1992 radial grid points, with lMax = 1
  Transforming local potential to a uniform radial grid of dG=0.02 with 1489 points.
  Transforming nonlocal projectors to a uniform radial grid of dG=0.02 with 432 points.
    2S    l: 0   occupation:  2.0   eigenvalue: -2.085640
    2P    l: 1   occupation:  6.0   eigenvalue: -1.053708
    3S    l: 0   occupation:  1.0   eigenvalue: -0.100838
  Transforming atomic orbitals to a uniform radial grid of dG=0.02 with 432 points.
  Core radius for overlap checks: 2.01 bohrs.
  Reading pulay file /home/gridsan/aligho/DFT/build-Nov24/pseudopotentials/SG15/Na_ONCV_PBE.pulay ... using dE_dnG = -2.946487e-03 computed for Ecut = 20.

Initialized 1 species with 1 total atoms.

Folded 1 k-points by 12x12x1 to 144 k-points.

---------- Setting up k-points, bands, fillings ----------
Reduced to 19 k-points under symmetry. 
Computing the number of bands and number of electrons
Calculating initial fillings.
nElectrons:   9.000000   nBands: 6   nStates: 38

----- Setting up reduced wavefunction bases (one per k-point) -----
average nbasis = 52924.021 , ideal nbasis = 52918.836

---------- Setting up coulomb interaction ----------
Initialized slab truncation along lattice direction 001

---------- Setting up 2D ewald sum ----------
Optimum gaussian width for ewald sums = 10.498040 bohr.
Real space sums over 289 unit cells with max indices [  8  8  0  ]
Reciprocal space sums over 81 terms with max indices [  4  4  0  ]

---------- Allocating electronic variables ----------
Initializing wave functions:  linear combination of atomic orbitals
Note: number of bands (6) exceeds available atomic orbitals (5)
Na pseudo-atom occupations:   s ( 2 1 )  p ( 6 )
	FillingsUpdate:  mu: -0.098719997  nElectrons: 9.000000  magneticMoment: [ Abs: 0.86000  Tot: -0.86000 ]
LCAOMinimize: Iter:   0  F: -42.5549983189047225  |grad|_K:  4.863e-07  alpha:  1.000e+00
	FillingsUpdate:  mu: -0.098719911  nElectrons: 9.000000  magneticMoment: [ Abs: 0.86000  Tot: -0.86000 ]
LCAOMinimize: Iter:   1  F: -42.5549983190663141  |grad|_K:  1.926e-09  alpha:  9.962e-01  linmin: -8.579e-03  cgtest:  4.421e-01  t[s]:     15.05
LCAOMinimize: Encountered beta<0, resetting CG.
LCAOMinimize: 	Step increased F by 7.815970e-14, reducing alpha to 7.877571e-04.
LCAOMinimize: 	Step increased F by 3.623768e-13, reducing alpha to 7.877571e-05.
LCAOMinimize: 	Step increased F by 2.842171e-14, reducing alpha to 7.877571e-06.
LCAOMinimize: 	Step failed to reduce F after 3 attempts. Quitting step.
LCAOMinimize: 	Undoing step.
LCAOMinimize: 	Step failed along negative gradient direction.
LCAOMinimize: Probably at roundoff error limit. (Stopping)


---- Citations for features of the code used in this run ----

   Software package:
      R. Sundararaman, K. Letchworth-Weaver, K.A. Schwarz, D. Gunceler, Y. Ozhabes and T.A. Arias, 'JDFTx: software for joint density-functional theory', SoftwareX 6, 278 (2017)

   gga-PBE exchange-correlation functional:
      J.P. Perdew, K. Burke and M. Ernzerhof, Phys. Rev. Lett. 77, 3865 (1996)

   Pseudopotentials:
      M Schlipf and F Gygi, Comput. Phys. Commun. 196, 36 (2015)

   Truncated Coulomb potentials:
      R. Sundararaman and T.A. Arias, Phys. Rev. B 87, 165122 (2013)

This list may not be complete. Please suggest additional citations or
report any other bugs at https://github.com/shankar1729/jdftx/issues

Initialization completed successfully at t[s]:     26.36


-------- Electronic minimization -----------
Will mix electronic density at each iteration.
	FillingsUpdate:  mu: -0.098719911  nElectrons: 9.000000  magneticMoment: [ Abs: 0.86000  Tot: -0.86000 ]
	FillingsUpdate:  mu: -0.098928230  nElectrons: 9.000000  magneticMoment: [ Abs: 0.86000  Tot: -0.86000 ]
SCF: Cycle:  0   F: -42.555133346639202   dF: -1.350e-04   |Residual|: 2.650e-03   |deigs|: 1.556e-01  t[s]:     34.03
	FillingsUpdate:  mu: -0.098944599  nElectrons: 9.000000  magneticMoment: [ Abs: 0.86258  Tot: -0.86000 ]
SCF: Cycle:  1   F: -42.555135019075955   dF: -1.672e-06   |Residual|: 1.103e-03   |deigs|: 1.542e-02  t[s]:     40.00
	FillingsUpdate:  mu: -0.098754594  nElectrons: 9.000000  magneticMoment: [ Abs: 0.86177  Tot: -0.86000 ]
SCF: Cycle:  2   F: -42.555135971346672   dF: -9.523e-07   |Residual|: 7.228e-04   |deigs|: 8.525e-03  t[s]:     46.06
	FillingsUpdate:  mu: -0.098500453  nElectrons: 9.000000  magneticMoment: [ Abs: 0.86219  Tot: -0.86000 ]
SCF: Cycle:  3   F: -42.555136372456133   dF: -4.011e-07   |Residual|: 4.490e-04   |deigs|: 1.649e-03  t[s]:     52.26
	FillingsUpdate:  mu: -0.098198350  nElectrons: 9.000000  magneticMoment: [ Abs: 0.86184  Tot: -0.86000 ]
SCF: Cycle:  4   F: -42.555136385712352   dF: -1.326e-08   |Residual|: 2.639e-04   |deigs|: 6.902e-04  t[s]:     58.59
	FillingsUpdate:  mu: -0.097979004  nElectrons: 9.000000  magneticMoment: [ Abs: 0.86186  Tot: -0.86000 ]
SCF: Cycle:  5   F: -42.555136439180494   dF: -5.347e-08   |Residual|: 1.757e-04   |deigs|: 4.281e-04  t[s]:     65.11
	FillingsUpdate:  mu: -0.097913498  nElectrons: 9.000000  magneticMoment: [ Abs: 0.86196  Tot: -0.86000 ]
SCF: Cycle:  6   F: -42.555136765578091   dF: -3.264e-07   |Residual|: 1.222e-04   |deigs|: 1.230e-04  t[s]:     71.71
	FillingsUpdate:  mu: -0.097878628  nElectrons: 9.000000  magneticMoment: [ Abs: 0.86208  Tot: -0.86000 ]
SCF: Cycle:  7   F: -42.555136922725566   dF: -1.571e-07   |Residual|: 8.052e-05   |deigs|: 7.292e-05  t[s]:     78.38
	FillingsUpdate:  mu: -0.097861790  nElectrons: 9.000000  magneticMoment: [ Abs: 0.86195  Tot: -0.86000 ]
SCF: Cycle:  8   F: -42.555136992822781   dF: -7.010e-08   |Residual|: 5.480e-05   |deigs|: 6.174e-05  t[s]:     85.15
	FillingsUpdate:  mu: -0.097853107  nElectrons: 9.000000  magneticMoment: [ Abs: 0.86195  Tot: -0.86000 ]
SCF: Cycle:  9   F: -42.555136981023985   dF: +1.180e-08   |Residual|: 3.854e-05   |deigs|: 5.179e-05  t[s]:     92.02
	FillingsUpdate:  mu: -0.097842284  nElectrons: 9.000000  magneticMoment: [ Abs: 0.86190  Tot: -0.86000 ]
SCF: Cycle: 10   F: -42.555136988513674   dF: -7.490e-09   |Residual|: 3.117e-05   |deigs|: 6.289e-05  t[s]:     98.95
	FillingsUpdate:  mu: -0.097818134  nElectrons: 9.000000  magneticMoment: [ Abs: 0.86195  Tot: -0.86000 ]
SCF: Cycle: 11   F: -42.555136959331598   dF: +2.918e-08   |Residual|: 2.659e-05   |deigs|: 5.476e-05  t[s]:    105.90
	FillingsUpdate:  mu: -0.097802823  nElectrons: 9.000000  magneticMoment: [ Abs: 0.86205  Tot: -0.86000 ]
SCF: Cycle: 12   F: -42.555136988104351   dF: -2.877e-08   |Residual|: 2.424e-05   |deigs|: 6.425e-05  t[s]:    112.97
	FillingsUpdate:  mu: -0.097770012  nElectrons: 9.000000  magneticMoment: [ Abs: 0.86202  Tot: -0.86000 ]
SCF: Cycle: 13   F: -42.555136979795819   dF: +8.309e-09   |Residual|: 2.134e-05   |deigs|: 4.956e-05  t[s]:    119.97
	FillingsUpdate:  mu: -0.097744803  nElectrons: 9.000000  magneticMoment: [ Abs: 0.86212  Tot: -0.86000 ]
SCF: Cycle: 14   F: -42.555136936924320   dF: +4.287e-08   |Residual|: 1.934e-05   |deigs|: 3.274e-05  t[s]:    126.94
	FillingsUpdate:  mu: -0.097727059  nElectrons: 9.000000  magneticMoment: [ Abs: 0.86211  Tot: -0.86000 ]
SCF: Cycle: 15   F: -42.555136917996606   dF: +1.893e-08   |Residual|: 1.791e-05   |deigs|: 2.569e-05  t[s]:    133.92
	FillingsUpdate:  mu: -0.097703537  nElectrons: 9.000000  magneticMoment: [ Abs: 0.86206  Tot: -0.86000 ]
SCF: Cycle: 16   F: -42.555136992889707   dF: -7.489e-08   |Residual|: 1.539e-05   |deigs|: 4.221e-05  t[s]:    140.93
	FillingsUpdate:  mu: -0.097688172  nElectrons: 9.000000  magneticMoment: [ Abs: 0.86205  Tot: -0.86000 ]
SCF: Cycle: 17   F: -42.555136988606030   dF: +4.284e-09   |Residual|: 1.395e-05   |deigs|: 2.241e-05  t[s]:    147.89
	FillingsUpdate:  mu: -0.097674548  nElectrons: 9.000000  magneticMoment: [ Abs: 0.86203  Tot: -0.86000 ]
SCF: Cycle: 18   F: -42.555137023360970   dF: -3.475e-08   |Residual|: 1.115e-05   |deigs|: 1.774e-05  t[s]:    154.92
	FillingsUpdate:  mu: -0.097666939  nElectrons: 9.000000  magneticMoment: [ Abs: 0.86202  Tot: -0.86000 ]
SCF: Cycle: 19   F: -42.555137007694547   dF: +1.567e-08   |Residual|: 8.510e-06   |deigs|: 1.270e-05  t[s]:    161.90
	FillingsUpdate:  mu: -0.097661072  nElectrons: 9.000000  magneticMoment: [ Abs: 0.86202  Tot: -0.86000 ]
SCF: Cycle: 20   F: -42.555137026463186   dF: -1.877e-08   |Residual|: 6.950e-06   |deigs|: 1.011e-05  t[s]:    168.97
	FillingsUpdate:  mu: -0.097659665  nElectrons: 9.000000  magneticMoment: [ Abs: 0.86201  Tot: -0.86000 ]
SCF: Cycle: 21   F: -42.555137057456108   dF: -3.099e-08   |Residual|: 5.329e-06   |deigs|: 6.719e-06  t[s]:    175.94
	FillingsUpdate:  mu: -0.097657163  nElectrons: 9.000000  magneticMoment: [ Abs: 0.86199  Tot: -0.86000 ]
SCF: Cycle: 22   F: -42.555137057401602   dF: +5.451e-11   |Residual|: 4.266e-06   |deigs|: 5.321e-06  t[s]:    182.75
	FillingsUpdate:  mu: -0.097654214  nElectrons: 9.000000  magneticMoment: [ Abs: 0.86197  Tot: -0.86000 ]
SCF: Cycle: 23   F: -42.555137069212400   dF: -1.181e-08   |Residual|: 3.212e-06   |deigs|: 5.945e-06  t[s]:    189.81
	FillingsUpdate:  mu: -0.097651689  nElectrons: 9.000000  magneticMoment: [ Abs: 0.86194  Tot: -0.86000 ]
SCF: Cycle: 24   F: -42.555137068030263   dF: +1.182e-09   |Residual|: 2.074e-06   |deigs|: 7.007e-06  t[s]:    196.56
	FillingsUpdate:  mu: -0.097650903  nElectrons: 9.000000  magneticMoment: [ Abs: 0.86193  Tot: -0.86000 ]
SCF: Cycle: 25   F: -42.555137066202491   dF: +1.828e-09   |Residual|: 1.601e-06   |deigs|: 6.270e-06  t[s]:    203.53
	FillingsUpdate:  mu: -0.097650618  nElectrons: 9.000000  magneticMoment: [ Abs: 0.86192  Tot: -0.86000 ]
SCF: Cycle: 26   F: -42.555137070959539   dF: -4.757e-09   |Residual|: 1.098e-06   |deigs|: 5.371e-06  t[s]:    210.29
	FillingsUpdate:  mu: -0.097650744  nElectrons: 9.000000  magneticMoment: [ Abs: 0.86191  Tot: -0.86000 ]
SCF: Cycle: 27   F: -42.555137072935572   dF: -1.976e-09   |Residual|: 8.226e-07   |deigs|: 5.084e-06  t[s]:    217.09
SCF: Converged (|Delta E|<1.000000e-08 for 2 iters).


# Ionic positions in lattice coordinates:
ion Na   0.000000000000000   0.000000000000000   0.000000000000000 0

# Forces in Lattice coordinates:
force Na  -0.000000000000000   0.000000000000000   0.000000000000000 0

# Energy components:
   Eewald =       -9.0240130501663280
       EH =       24.7997597875101619
     Eloc =      -60.8457898400255814
      Enl =      -12.9036355404105230
   Epulay =        0.0000012333957556
      Exc =       -6.2180038942483060
       KE =       21.6365450835341520
-------------------------------------
     Etot =      -42.5551362204106667
       TS =        0.0000008525249022
-------------------------------------
        F =      -42.5551370729355725

IonicMinimize: Iter:   0  F: -42.555137072935572  |grad|_K:  0.000e+00  t[s]:    217.35
IonicMinimize: Converged (|grad|_K<1.000000e-04).

#--- Lowdin population analysis ---
# oxidation-state Na +0.000
# magnetic-moments Na -0.860

End date and time: Sat Feb  5 22:26:48 2022  (Duration: 0-0:03:37.42)
Done!
