
*************** JDFTx 1.6.0 (git hash 42ebbcc2) ***************

Start date and time: Sat Feb  5 22:30:23 2022
Executable jdftx with command-line: -i Alkali.in
Running on hosts (process indices):  d-16-8-3 (0-18)
Divided in process groups (process indices):  0 (0)  1 (1)  2 (2)  3 (3)  4 (4)  5 (5)  6 (6)  7 (7)  8 (8)  9 (9)  10 (10)  11 (11)  12 (12)  13 (13)  14 (14)  15 (15)  16 (16)  17 (17)  18 (18)
Resource initialization completed at t[s]:      0.00
Run totals: 19 processes, 48 threads, 0 GPUs


Input parsed successfully to the following command list (including defaults):

basis kpoint-dependent
coords-type Lattice
core-overlap-check vector
coulomb-interaction Slab 001
davidson-band-ratio 1.1
dump End None
dump-name $INPUT.$VAR
elec-cutoff 20
elec-eigen-algo Davidson
elec-ex-corr gga-PBE
elec-initial-magnetization -0.020000 yes
elec-smearing Fermi 1e-05
electronic-minimize  \
	dirUpdateScheme      FletcherReeves \
	linminMethod         DirUpdateRecommended \
	nIterations          100 \
	history              15 \
	knormThreshold       0 \
	energyDiffThreshold  1e-08 \
	nEnergyDiff          2 \
	alphaTstart          1 \
	alphaTmin            1e-10 \
	updateTestStepSize   yes \
	alphaTreduceFactor   0.1 \
	alphaTincreaseFactor 3 \
	nAlphaAdjustMax      3 \
	wolfeEnergy          0.0001 \
	wolfeGradient        0.9 \
	fdTest               no
electronic-scf  \
	nIterations	10000 \
	energyDiffThreshold	1e-08 \
	residualThreshold	1e-07 \
	mixFraction	0.5 \
	qMetric	0.8 \
	history	10 \
	nEigSteps	2 \
	eigDiffThreshold	1e-08 \
	mixedVariable	Density \
	qKerker	0.8 \
	qKappa	-1 \
	verbose	no \
	mixFractionMag	1.5
exchange-regularization WignerSeitzTruncated
fluid None
fluid-ex-corr (null) lda-PZ
fluid-gummel-loop 10 1.000000e-05
fluid-minimize  \
	dirUpdateScheme      PolakRibiere \
	linminMethod         DirUpdateRecommended \
	nIterations          100 \
	history              15 \
	knormThreshold       0 \
	energyDiffThreshold  0 \
	nEnergyDiff          2 \
	alphaTstart          1 \
	alphaTmin            1e-10 \
	updateTestStepSize   yes \
	alphaTreduceFactor   0.1 \
	alphaTincreaseFactor 3 \
	nAlphaAdjustMax      3 \
	wolfeEnergy          0.0001 \
	wolfeGradient        0.9 \
	fdTest               no
fluid-solvent H2O 55.338 ScalarEOS \
	epsBulk 78.4 \
	pMol 0.92466 \
	epsInf 1.77 \
	Pvap 1.06736e-10 \
	sigmaBulk 4.62e-05 \
	Rvdw 2.61727 \
	Res 1.42 \
	tauNuc 343133 \
	poleEl 15 7 1
forces-output-coords Positions
ion Na   0.000000000000000   0.000000000000000   0.000000000000000 0
ion-species SG15/$ID_ONCV_PBE.upf
ion-width 0
ionic-minimize  \
	dirUpdateScheme      L-BFGS \
	linminMethod         DirUpdateRecommended \
	nIterations          0 \
	history              15 \
	knormThreshold       0.0001 \
	energyDiffThreshold  1e-06 \
	nEnergyDiff          2 \
	alphaTstart          1 \
	alphaTmin            1e-10 \
	updateTestStepSize   yes \
	alphaTreduceFactor   0.1 \
	alphaTincreaseFactor 3 \
	nAlphaAdjustMax      3 \
	wolfeEnergy          0.0001 \
	wolfeGradient        0.9 \
	fdTest               no
kpoint   0.000000000000   0.000000000000   0.000000000000  1.00000000000000
kpoint-folding 12 12 1 
latt-move-scale 1 1 1
latt-scale 4 4 1 
lattice  \
	   4.727486978767153   -2.363743489383575    0.000000000000000  \
	  -0.000000000000000    4.094123819672498    0.000000000000000  \
	   0.000000000000000    0.000000000000000   40.000000000000000 
lattice-minimize  \
	dirUpdateScheme      L-BFGS \
	linminMethod         DirUpdateRecommended \
	nIterations          0 \
	history              15 \
	knormThreshold       0 \
	energyDiffThreshold  1e-06 \
	nEnergyDiff          2 \
	alphaTstart          1 \
	alphaTmin            1e-10 \
	updateTestStepSize   yes \
	alphaTreduceFactor   0.1 \
	alphaTincreaseFactor 3 \
	nAlphaAdjustMax      3 \
	wolfeEnergy          0.0001 \
	wolfeGradient        0.9 \
	fdTest               no
lcao-params -1 1e-06 1e-05
pcm-variant GLSSA13
spintype z-spin
subspace-rotation-factor 1 yes
symmetries automatic
symmetry-threshold 0.0001



---------- Setting up symmetries ----------

Found 24 point-group symmetries of the bravais lattice
Found 24 space-group symmetries with basis
Applied RMS atom displacement 0 bohrs to make symmetries exact.

---------- Initializing the Grid ----------
R = 
[      18.9099     -9.45497            0  ]
[            0      16.3765            0  ]
[            0            0           40  ]
unit cell volume = 12387.1
G =
[   0.332269   0.191835         -0  ]
[          0   0.383671         -0  ]
[         -0         -0    0.15708  ]
Minimum fftbox size, Smin = [  80  80  164  ]
Chosen fftbox size, S = [  80  80  168  ]

---------- Exchange Correlation functional ----------
Initalized PBE GGA exchange.
Initalized PBE GGA correlation.

---------- Setting up pseudopotentials ----------
Width of ionic core gaussian charges (only for fluid interactions / plotting) set to 0

Reading pseudopotential file '/home/gridsan/aligho/DFT/build-Nov24/pseudopotentials/SG15/Na_ONCV_PBE.upf':
  'Na' pseudopotential, 'PBE' functional
  Generated using ONCVPSP code by D. R. Hamann
  Author: Martin Schlipf and Francois Gygi  Date: 150915.
  9 valence electrons, 3 orbitals, 4 projectors, 1992 radial grid points, with lMax = 1
  Transforming local potential to a uniform radial grid of dG=0.02 with 1489 points.
  Transforming nonlocal projectors to a uniform radial grid of dG=0.02 with 432 points.
    2S    l: 0   occupation:  2.0   eigenvalue: -2.085640
    2P    l: 1   occupation:  6.0   eigenvalue: -1.053708
    3S    l: 0   occupation:  1.0   eigenvalue: -0.100838
  Transforming atomic orbitals to a uniform radial grid of dG=0.02 with 432 points.
  Core radius for overlap checks: 2.01 bohrs.
  Reading pulay file /home/gridsan/aligho/DFT/build-Nov24/pseudopotentials/SG15/Na_ONCV_PBE.pulay ... using dE_dnG = -2.946487e-03 computed for Ecut = 20.

Initialized 1 species with 1 total atoms.

Folded 1 k-points by 12x12x1 to 144 k-points.

---------- Setting up k-points, bands, fillings ----------
Reduced to 19 k-points under symmetry. 
Computing the number of bands and number of electrons
Calculating initial fillings.
nElectrons:   9.000000   nBands: 6   nStates: 38

----- Setting up reduced wavefunction bases (one per k-point) -----
average nbasis = 52924.021 , ideal nbasis = 52918.836

---------- Setting up coulomb interaction ----------
Initialized slab truncation along lattice direction 001

---------- Setting up 2D ewald sum ----------
Optimum gaussian width for ewald sums = 10.498040 bohr.
Real space sums over 289 unit cells with max indices [  8  8  0  ]
Reciprocal space sums over 81 terms with max indices [  4  4  0  ]

---------- Allocating electronic variables ----------
Initializing wave functions:  linear combination of atomic orbitals
Note: number of bands (6) exceeds available atomic orbitals (5)
Na pseudo-atom occupations:   s ( 2 1 )  p ( 6 )
	FillingsUpdate:  mu: -0.101217104  nElectrons: 9.000000  magneticMoment: [ Abs: 0.02000  Tot: -0.02000 ]
LCAOMinimize: Iter:   0  F: -42.5497583805247643  |grad|_K:  1.218e-06  alpha:  1.000e+00
	FillingsUpdate:  mu: -0.101216860  nElectrons: 9.000000  magneticMoment: [ Abs: 0.02000  Tot: -0.02000 ]
LCAOMinimize: Iter:   1  F: -42.5497583815322926  |grad|_K:  5.177e-09  alpha:  9.935e-01  linmin: -6.319e-04  cgtest:  1.364e-01  t[s]:     14.71
LCAOMinimize: Encountered beta<0, resetting CG.
LCAOMinimize: 	Step increased F by 1.563194e-13, reducing alpha to 4.107706e-03.
LCAOMinimize: 	Step increased F by 2.415845e-13, reducing alpha to 4.107706e-04.
LCAOMinimize: 	Step increased F by 1.989520e-13, reducing alpha to 4.107706e-05.
LCAOMinimize: 	Step failed to reduce F after 3 attempts. Quitting step.
LCAOMinimize: 	Undoing step.
LCAOMinimize: 	Step failed along negative gradient direction.
LCAOMinimize: Probably at roundoff error limit. (Stopping)


---- Citations for features of the code used in this run ----

   Software package:
      R. Sundararaman, K. Letchworth-Weaver, K.A. Schwarz, D. Gunceler, Y. Ozhabes and T.A. Arias, 'JDFTx: software for joint density-functional theory', SoftwareX 6, 278 (2017)

   gga-PBE exchange-correlation functional:
      J.P. Perdew, K. Burke and M. Ernzerhof, Phys. Rev. Lett. 77, 3865 (1996)

   Pseudopotentials:
      M Schlipf and F Gygi, Comput. Phys. Commun. 196, 36 (2015)

   Truncated Coulomb potentials:
      R. Sundararaman and T.A. Arias, Phys. Rev. B 87, 165122 (2013)

This list may not be complete. Please suggest additional citations or
report any other bugs at https://github.com/shankar1729/jdftx/issues

Initialization completed successfully at t[s]:     25.71


-------- Electronic minimization -----------
Will mix electronic density at each iteration.
	FillingsUpdate:  mu: -0.101216860  nElectrons: 9.000000  magneticMoment: [ Abs: 0.02000  Tot: -0.02000 ]
	FillingsUpdate:  mu: -0.101228585  nElectrons: 9.000000  magneticMoment: [ Abs: 0.02000  Tot: -0.02000 ]
SCF: Cycle:  0   F: -42.549779132041415   dF: -2.075e-05   |Residual|: 1.831e-03   |deigs|: 1.735e-01  t[s]:     33.16
	FillingsUpdate:  mu: -0.101263163  nElectrons: 9.000000  magneticMoment: [ Abs: 0.02004  Tot: -0.02000 ]
SCF: Cycle:  1   F: -42.549779544782631   dF: -4.127e-07   |Residual|: 8.297e-04   |deigs|: 7.090e-03  t[s]:     39.01
	FillingsUpdate:  mu: -0.101314515  nElectrons: 9.000000  magneticMoment: [ Abs: 0.02003  Tot: -0.02000 ]
SCF: Cycle:  2   F: -42.549779689304351   dF: -1.445e-07   |Residual|: 1.809e-04   |deigs|: 1.856e-03  t[s]:     44.92
	FillingsUpdate:  mu: -0.101339770  nElectrons: 9.000000  magneticMoment: [ Abs: 0.02005  Tot: -0.02000 ]
SCF: Cycle:  3   F: -42.549779698020949   dF: -8.717e-09   |Residual|: 1.440e-04   |deigs|: 4.275e-04  t[s]:     50.92
	FillingsUpdate:  mu: -0.101382802  nElectrons: 9.000000  magneticMoment: [ Abs: 0.02003  Tot: -0.02000 ]
SCF: Cycle:  4   F: -42.549779711664328   dF: -1.364e-08   |Residual|: 1.207e-04   |deigs|: 3.583e-04  t[s]:     57.06
	FillingsUpdate:  mu: -0.101408035  nElectrons: 9.000000  magneticMoment: [ Abs: 0.02006  Tot: -0.02000 ]
SCF: Cycle:  5   F: -42.549779724524136   dF: -1.286e-08   |Residual|: 1.260e-04   |deigs|: 2.903e-04  t[s]:     63.30
	FillingsUpdate:  mu: -0.101436804  nElectrons: 9.000000  magneticMoment: [ Abs: 0.02003  Tot: -0.02000 ]
SCF: Cycle:  6   F: -42.549779731834263   dF: -7.310e-09   |Residual|: 8.757e-05   |deigs|: 2.386e-04  t[s]:     69.59
	FillingsUpdate:  mu: -0.101433751  nElectrons: 9.000000  magneticMoment: [ Abs: 0.02004  Tot: -0.02000 ]
SCF: Cycle:  7   F: -42.549779735799582   dF: -3.965e-09   |Residual|: 2.094e-05   |deigs|: 2.622e-04  t[s]:     75.98
SCF: Converged (|Delta E|<1.000000e-08 for 2 iters).


# Ionic positions in lattice coordinates:
ion Na   0.000000000000000   0.000000000000000   0.000000000000000 0

# Forces in Lattice coordinates:
force Na   0.000000000000000  -0.000000000000000   0.000000000000000 0

# Energy components:
   Eewald =       -9.0240130501663280
       EH =       24.7625328042880213
     Eloc =      -60.8058759790329617
      Enl =      -12.9026254979453086
   Epulay =        0.0000012333957556
      Exc =       -6.2092564509862429
       KE =       21.6294579931179989
-------------------------------------
     Etot =      -42.5497789473290595
       TS =        0.0000007884705209
-------------------------------------
        F =      -42.5497797357995822

IonicMinimize: Iter:   0  F: -42.549779735799582  |grad|_K:  0.000e+00  t[s]:     76.23
IonicMinimize: Converged (|grad|_K<1.000000e-04).

#--- Lowdin population analysis ---
# oxidation-state Na +0.000
# magnetic-moments Na -0.020

End date and time: Sat Feb  5 22:31:39 2022  (Duration: 0-0:01:16.30)
Done!
