The alkali metal is Li
scale=2
magnetization=0.56
--------------------------------------------------------------------------
The library attempted to open the following supporting CUDA libraries,
but each of them failed.  CUDA-aware support is disabled.
libcuda.so.1: cannot open shared object file: No such file or directory
libcuda.dylib: cannot open shared object file: No such file or directory
/usr/lib64/libcuda.so.1: cannot open shared object file: No such file or directory
/usr/lib64/libcuda.dylib: cannot open shared object file: No such file or directory
If you are not interested in CUDA-aware support, then run with
--mca opal_warn_on_missing_libcuda 0 to suppress this message.  If you are interested
in CUDA-aware support, then try setting LD_LIBRARY_PATH to the location
of libcuda.so.1 to get passed this issue.
--------------------------------------------------------------------------
--------------------------------------------------------------------------
No OpenFabrics connection schemes reported that they were able to be
used on a specific port.  As such, the openib BTL (OpenFabrics
support) will be disabled for this port.

  Local host:           d-4-5-2
  Local device:         mlx5_1
  Local port:           1
  CPCs attempted:       rdmacm, udcm
--------------------------------------------------------------------------

*************** JDFTx 1.6.0 (git hash 42ebbcc2) ***************

Start date and time: Sat Feb  5 23:06:42 2022
Executable jdftx with command-line: -i Alkali.in
Running on hosts (process indices):  d-4-5-2 (0-18)
Divided in process groups (process indices):  0 (0)  1 (1)  2 (2)  3 (3)  4 (4)  5 (5)  6 (6)  7 (7)  8 (8)  9 (9)  10 (10)  11 (11)  12 (12)  13 (13)  14 (14)  15 (15)  16 (16)  17 (17)  18 (18)
Resource initialization completed at t[s]:      0.00
Run totals: 19 processes, 48 threads, 0 GPUs


Input parsed successfully to the following command list (including defaults):

basis kpoint-dependent
coords-type Lattice
core-overlap-check vector
coulomb-interaction Slab 001
davidson-band-ratio 1.1
dump End None
dump-name $INPUT.$VAR
elec-cutoff 20
elec-eigen-algo Davidson
elec-ex-corr gga-PBE
elec-initial-magnetization 0.560000 yes
elec-smearing Fermi 1e-05
electronic-minimize  \
	dirUpdateScheme      FletcherReeves \
	linminMethod         DirUpdateRecommended \
	nIterations          100 \
	history              15 \
	knormThreshold       0 \
	energyDiffThreshold  1e-08 \
	nEnergyDiff          2 \
	alphaTstart          1 \
	alphaTmin            1e-10 \
	updateTestStepSize   yes \
	alphaTreduceFactor   0.1 \
	alphaTincreaseFactor 3 \
	nAlphaAdjustMax      3 \
	wolfeEnergy          0.0001 \
	wolfeGradient        0.9 \
	fdTest               no
electronic-scf  \
	nIterations	10000 \
	energyDiffThreshold	1e-08 \
	residualThreshold	1e-07 \
	mixFraction	0.5 \
	qMetric	0.8 \
	history	10 \
	nEigSteps	2 \
	eigDiffThreshold	1e-08 \
	mixedVariable	Density \
	qKerker	0.8 \
	qKappa	-1 \
	verbose	no \
	mixFractionMag	1.5
exchange-regularization WignerSeitzTruncated
fluid None
fluid-ex-corr (null) lda-PZ
fluid-gummel-loop 10 1.000000e-05
fluid-minimize  \
	dirUpdateScheme      PolakRibiere \
	linminMethod         DirUpdateRecommended \
	nIterations          100 \
	history              15 \
	knormThreshold       0 \
	energyDiffThreshold  0 \
	nEnergyDiff          2 \
	alphaTstart          1 \
	alphaTmin            1e-10 \
	updateTestStepSize   yes \
	alphaTreduceFactor   0.1 \
	alphaTincreaseFactor 3 \
	nAlphaAdjustMax      3 \
	wolfeEnergy          0.0001 \
	wolfeGradient        0.9 \
	fdTest               no
fluid-solvent H2O 55.338 ScalarEOS \
	epsBulk 78.4 \
	pMol 0.92466 \
	epsInf 1.77 \
	Pvap 1.06736e-10 \
	sigmaBulk 4.62e-05 \
	Rvdw 2.61727 \
	Res 1.42 \
	tauNuc 343133 \
	poleEl 15 7 1
forces-output-coords Positions
ion Li   0.000000000000000   0.000000000000000   0.000000000000000 0
ion-species SG15/$ID_ONCV_PBE.upf
ion-width 0
ionic-minimize  \
	dirUpdateScheme      L-BFGS \
	linminMethod         DirUpdateRecommended \
	nIterations          0 \
	history              15 \
	knormThreshold       0.0001 \
	energyDiffThreshold  1e-06 \
	nEnergyDiff          2 \
	alphaTstart          1 \
	alphaTmin            1e-10 \
	updateTestStepSize   yes \
	alphaTreduceFactor   0.1 \
	alphaTincreaseFactor 3 \
	nAlphaAdjustMax      3 \
	wolfeEnergy          0.0001 \
	wolfeGradient        0.9 \
	fdTest               no
kpoint   0.000000000000   0.000000000000   0.000000000000  1.00000000000000
kpoint-folding 12 12 1 
latt-move-scale 1 1 1
latt-scale 2 2 1 
lattice  \
	   4.727486978767153   -2.363743489383575    0.000000000000000  \
	  -0.000000000000000    4.094123819672498    0.000000000000000  \
	   0.000000000000000    0.000000000000000   40.000000000000000 
lattice-minimize  \
	dirUpdateScheme      L-BFGS \
	linminMethod         DirUpdateRecommended \
	nIterations          0 \
	history              15 \
	knormThreshold       0 \
	energyDiffThreshold  1e-06 \
	nEnergyDiff          2 \
	alphaTstart          1 \
	alphaTmin            1e-10 \
	updateTestStepSize   yes \
	alphaTreduceFactor   0.1 \
	alphaTincreaseFactor 3 \
	nAlphaAdjustMax      3 \
	wolfeEnergy          0.0001 \
	wolfeGradient        0.9 \
	fdTest               no
lcao-params -1 1e-06 1e-05
pcm-variant GLSSA13
spintype z-spin
subspace-rotation-factor 1 yes
symmetries automatic
symmetry-threshold 0.0001



---------- Setting up symmetries ----------

Found 24 point-group symmetries of the bravais lattice
Found 24 space-group symmetries with basis
Applied RMS atom displacement 0 bohrs to make symmetries exact.

---------- Initializing the Grid ----------
R = 
[      9.45497     -4.72749            0  ]
[            0      8.18825            0  ]
[            0            0           40  ]
unit cell volume = 3096.79
G =
[   0.664538   0.383671         -0  ]
[          0   0.767342         -0  ]
[         -0         -0    0.15708  ]
Minimum fftbox size, Smin = [  40  40  164  ]
Chosen fftbox size, S = [  40  40  168  ]

---------- Exchange Correlation functional ----------
Initalized PBE GGA exchange.
Initalized PBE GGA correlation.

---------- Setting up pseudopotentials ----------
Width of ionic core gaussian charges (only for fluid interactions / plotting) set to 0

Reading pseudopotential file '/home/gridsan/aligho/DFT/build-Nov24/pseudopotentials/SG15/Li_ONCV_PBE.upf':
  'Li' pseudopotential, 'PBE' functional
  Generated using ONCVPSP code by D. R. Hamann
  Author: Martin Schlipf and Francois Gygi  Date: 150915.
  3 valence electrons, 2 orbitals, 4 projectors, 1328 radial grid points, with lMax = 1
  Transforming local potential to a uniform radial grid of dG=0.02 with 1489 points.
  Transforming nonlocal projectors to a uniform radial grid of dG=0.02 with 432 points.
    1S    l: 0   occupation:  2.0   eigenvalue: -1.905623
    2S    l: 0   occupation:  1.0   eigenvalue: -0.105624
  Transforming atomic orbitals to a uniform radial grid of dG=0.02 with 432 points.
  WARNING: large normalization error in atomic orbital 1s (integral: 0.000000).
  Core radius for overlap checks: 1.63 bohrs.
  Reading pulay file /home/gridsan/aligho/DFT/build-Nov24/pseudopotentials/SG15/Li_ONCV_PBE.pulay ... using dE_dnG = -1.230239e-02 computed for Ecut = 20.

Initialized 1 species with 1 total atoms.

Folded 1 k-points by 12x12x1 to 144 k-points.

---------- Setting up k-points, bands, fillings ----------
Reduced to 19 k-points under symmetry. 
Computing the number of bands and number of electrons
Calculating initial fillings.
nElectrons:   3.000000   nBands: 3   nStates: 38

----- Setting up reduced wavefunction bases (one per k-point) -----
average nbasis = 13230.521 , ideal nbasis = 13229.709

---------- Setting up coulomb interaction ----------
Initialized slab truncation along lattice direction 001

---------- Setting up 2D ewald sum ----------
Optimum gaussian width for ewald sums = 5.249020 bohr.
Real space sums over 289 unit cells with max indices [  8  8  0  ]
Reciprocal space sums over 81 terms with max indices [  4  4  0  ]

---------- Allocating electronic variables ----------
Initializing wave functions:  linear combination of atomic orbitals
Note: number of bands (3) exceeds available atomic orbitals (2)
Li pseudo-atom occupations:   s ( 2 1 )
	FillingsUpdate:  mu: +0.311497913  nElectrons: 3.000000  magneticMoment: [ Abs: 0.56000  Tot: +0.56000 ]
LCAOMinimize: Iter:   0  F: -1.1662485434570291  |grad|_K:  6.461e-05  alpha:  1.000e+00
	FillingsUpdate:  mu: +0.311496052  nElectrons: 3.000000  magneticMoment: [ Abs: 0.56000  Tot: +0.56000 ]
LCAOMinimize: Iter:   1  F: -1.1662492903659465  |grad|_K:  1.515e-06  alpha:  1.046e+00  linmin: -1.927e-03  cgtest:  2.563e-02  t[s]:      3.90
LCAOMinimize: Encountered beta<0, resetting CG.
[d-4-5-2:87018] 18 more processes have sent help message help-mpi-common-cuda.txt / dlopen failed
[d-4-5-2:87018] Set MCA parameter "orte_base_help_aggregate" to 0 to see all help / error messages
[d-4-5-2:87018] 18 more processes have sent help message help-mpi-btl-openib-cpc-base.txt / no cpcs for port
	FillingsUpdate:  mu: +0.311496061  nElectrons: 3.000000  magneticMoment: [ Abs: 0.56000  Tot: +0.56000 ]
LCAOMinimize: Iter:   2  F: -1.1662492907642281  |grad|_K:  4.688e-08  alpha:  1.021e+00  linmin:  5.830e-03  cgtest: -1.547e-01  t[s]:      4.95
LCAOMinimize: Converged (|Delta F|<1.000000e-06 for 2 iters).


---- Citations for features of the code used in this run ----

   Software package:
      R. Sundararaman, K. Letchworth-Weaver, K.A. Schwarz, D. Gunceler, Y. Ozhabes and T.A. Arias, 'JDFTx: software for joint density-functional theory', SoftwareX 6, 278 (2017)

   gga-PBE exchange-correlation functional:
      J.P. Perdew, K. Burke and M. Ernzerhof, Phys. Rev. Lett. 77, 3865 (1996)

   Pseudopotentials:
      M Schlipf and F Gygi, Comput. Phys. Commun. 196, 36 (2015)

   Truncated Coulomb potentials:
      R. Sundararaman and T.A. Arias, Phys. Rev. B 87, 165122 (2013)

This list may not be complete. Please suggest additional citations or
report any other bugs at https://github.com/shankar1729/jdftx/issues

Initialization completed successfully at t[s]:      5.02


-------- Electronic minimization -----------
Will mix electronic density at each iteration.
	FillingsUpdate:  mu: +0.311496061  nElectrons: 3.000000  magneticMoment: [ Abs: 0.56000  Tot: +0.56000 ]
	FillingsUpdate:  mu: -0.988775540  nElectrons: 3.000000  magneticMoment: [ Abs: 0.56000  Tot: +0.56000 ]
SCF: Cycle:  0   F: -6.829585196606601   dF: -5.663e+00   |Residual|: 1.173e+00   |deigs|: 4.170e+00  t[s]:      6.67
	FillingsUpdate:  mu: -0.868699321  nElectrons: 3.000000  magneticMoment: [ Abs: 0.89417  Tot: +0.56000 ]
SCF: Cycle:  1   F: -6.935197284587937   dF: -1.056e-01   |Residual|: 7.751e-01   |deigs|: 2.362e-01  t[s]:      7.92
	FillingsUpdate:  mu: -0.662442542  nElectrons: 3.000000  magneticMoment: [ Abs: 1.15552  Tot: +0.56000 ]
SCF: Cycle:  2   F: -7.045930241670471   dF: -1.107e-01   |Residual|: 4.185e-01   |deigs|: 7.743e-01  t[s]:      9.22
	FillingsUpdate:  mu: -0.677579782  nElectrons: 3.000000  magneticMoment: [ Abs: 0.97145  Tot: +0.56000 ]
SCF: Cycle:  3   F: -7.054183913038856   dF: -8.254e-03   |Residual|: 1.984e-01   |deigs|: 1.260e-01  t[s]:     10.55
	FillingsUpdate:  mu: -0.625383933  nElectrons: 3.000000  magneticMoment: [ Abs: 0.73498  Tot: +0.56000 ]
SCF: Cycle:  4   F: -7.053385606416168   dF: +7.983e-04   |Residual|: 4.617e-02   |deigs|: 4.090e-02  t[s]:     11.91
	FillingsUpdate:  mu: -0.604474245  nElectrons: 3.000000  magneticMoment: [ Abs: 0.72441  Tot: +0.56000 ]
SCF: Cycle:  5   F: -7.053789181143548   dF: -4.036e-04   |Residual|: 9.087e-02   |deigs|: 1.641e-02  t[s]:     13.28
	FillingsUpdate:  mu: -0.468141014  nElectrons: 3.000000  magneticMoment: [ Abs: 0.80746  Tot: +0.56000 ]
SCF: Cycle:  6   F: -7.058254419507877   dF: -4.465e-03   |Residual|: 1.231e-01   |deigs|: 1.523e-01  t[s]:     14.66
	FillingsUpdate:  mu: -0.441749079  nElectrons: 3.000000  magneticMoment: [ Abs: 0.74929  Tot: +0.56000 ]
SCF: Cycle:  7   F: -7.059492404042837   dF: -1.238e-03   |Residual|: 4.299e-02   |deigs|: 6.345e-02  t[s]:     16.08
	FillingsUpdate:  mu: -0.400895557  nElectrons: 3.000000  magneticMoment: [ Abs: 0.71084  Tot: +0.56000 ]
SCF: Cycle:  8   F: -7.061328014196073   dF: -1.836e-03   |Residual|: 7.507e-02   |deigs|: 4.648e-02  t[s]:     17.52
	FillingsUpdate:  mu: -0.367403107  nElectrons: 3.000000  magneticMoment: [ Abs: 0.66792  Tot: +0.56000 ]
SCF: Cycle:  9   F: -7.063093543063562   dF: -1.766e-03   |Residual|: 2.514e-02   |deigs|: 3.130e-02  t[s]:     19.08
	FillingsUpdate:  mu: -0.333691013  nElectrons: 3.000000  magneticMoment: [ Abs: 0.67682  Tot: +0.56000 ]
SCF: Cycle: 10   F: -7.063763917201970   dF: -6.704e-04   |Residual|: 3.612e-02   |deigs|: 2.821e-02  t[s]:     20.58
	FillingsUpdate:  mu: -0.284010117  nElectrons: 3.000000  magneticMoment: [ Abs: 0.73045  Tot: +0.56000 ]
SCF: Cycle: 11   F: -7.064357537750985   dF: -5.936e-04   |Residual|: 2.037e-02   |deigs|: 5.511e-02  t[s]:     22.08
	FillingsUpdate:  mu: -0.239083412  nElectrons: 3.000000  magneticMoment: [ Abs: 0.73488  Tot: +0.56000 ]
SCF: Cycle: 12   F: -7.064662457354465   dF: -3.049e-04   |Residual|: 1.329e-02   |deigs|: 4.971e-02  t[s]:     23.59
	FillingsUpdate:  mu: -0.194873897  nElectrons: 3.000000  magneticMoment: [ Abs: 0.70502  Tot: +0.56000 ]
SCF: Cycle: 13   F: -7.065021840743280   dF: -3.594e-04   |Residual|: 1.146e-02   |deigs|: 4.349e-02  t[s]:     25.06
	FillingsUpdate:  mu: -0.162549303  nElectrons: 3.000000  magneticMoment: [ Abs: 0.66298  Tot: +0.56000 ]
SCF: Cycle: 14   F: -7.065064767065806   dF: -4.293e-05   |Residual|: 9.413e-03   |deigs|: 3.536e-02  t[s]:     26.53
	FillingsUpdate:  mu: -0.131276666  nElectrons: 3.000000  magneticMoment: [ Abs: 0.64382  Tot: +0.56000 ]
SCF: Cycle: 15   F: -7.065124234477927   dF: -5.947e-05   |Residual|: 7.031e-03   |deigs|: 3.117e-02  t[s]:     28.01
	FillingsUpdate:  mu: -0.119602172  nElectrons: 3.000000  magneticMoment: [ Abs: 0.63115  Tot: +0.56000 ]
SCF: Cycle: 16   F: -7.065329370990185   dF: -2.051e-04   |Residual|: 5.335e-03   |deigs|: 1.144e-02  t[s]:     29.48
	FillingsUpdate:  mu: -0.113462261  nElectrons: 3.000000  magneticMoment: [ Abs: 0.61219  Tot: +0.56000 ]
SCF: Cycle: 17   F: -7.065455814518883   dF: -1.264e-04   |Residual|: 3.339e-03   |deigs|: 5.631e-03  t[s]:     30.99
	FillingsUpdate:  mu: -0.110474675  nElectrons: 3.000000  magneticMoment: [ Abs: 0.59287  Tot: +0.56000 ]
SCF: Cycle: 18   F: -7.065537849602109   dF: -8.204e-05   |Residual|: 2.002e-03   |deigs|: 2.790e-03  t[s]:     32.48
	FillingsUpdate:  mu: -0.110554588  nElectrons: 3.000000  magneticMoment: [ Abs: 0.58004  Tot: +0.56000 ]
SCF: Cycle: 19   F: -7.065558457941669   dF: -2.061e-05   |Residual|: 1.277e-03   |deigs|: 4.885e-04  t[s]:     34.01
	FillingsUpdate:  mu: -0.110952293  nElectrons: 3.000000  magneticMoment: [ Abs: 0.57304  Tot: +0.56000 ]
SCF: Cycle: 20   F: -7.065565271072643   dF: -6.813e-06   |Residual|: 8.518e-04   |deigs|: 4.718e-04  t[s]:     35.55
	FillingsUpdate:  mu: -0.110783042  nElectrons: 3.000000  magneticMoment: [ Abs: 0.57014  Tot: +0.56000 ]
SCF: Cycle: 21   F: -7.065569594741662   dF: -4.324e-06   |Residual|: 6.648e-04   |deigs|: 4.151e-04  t[s]:     37.14
	FillingsUpdate:  mu: -0.110606227  nElectrons: 3.000000  magneticMoment: [ Abs: 0.56698  Tot: +0.56000 ]
SCF: Cycle: 22   F: -7.065571571205956   dF: -1.976e-06   |Residual|: 5.235e-04   |deigs|: 4.709e-04  t[s]:     38.72
	FillingsUpdate:  mu: -0.110760669  nElectrons: 3.000000  magneticMoment: [ Abs: 0.56420  Tot: +0.56000 ]
SCF: Cycle: 23   F: -7.065572525805566   dF: -9.546e-07   |Residual|: 4.271e-04   |deigs|: 1.474e-04  t[s]:     40.27
	FillingsUpdate:  mu: -0.110781985  nElectrons: 3.000000  magneticMoment: [ Abs: 0.56216  Tot: +0.56000 ]
SCF: Cycle: 24   F: -7.065571604794329   dF: +9.210e-07   |Residual|: 3.482e-04   |deigs|: 1.509e-04  t[s]:     41.82
	FillingsUpdate:  mu: -0.110751829  nElectrons: 3.000000  magneticMoment: [ Abs: 0.56128  Tot: +0.56000 ]
SCF: Cycle: 25   F: -7.065572881758573   dF: -1.277e-06   |Residual|: 2.650e-04   |deigs|: 9.826e-05  t[s]:     43.29
	FillingsUpdate:  mu: -0.110356452  nElectrons: 3.000000  magneticMoment: [ Abs: 0.56079  Tot: +0.56000 ]
SCF: Cycle: 26   F: -7.065572608723579   dF: +2.730e-07   |Residual|: 2.144e-04   |deigs|: 3.664e-04  t[s]:     44.77
	FillingsUpdate:  mu: -0.109820281  nElectrons: 3.000000  magneticMoment: [ Abs: 0.56052  Tot: +0.56000 ]
SCF: Cycle: 27   F: -7.065573570230489   dF: -9.615e-07   |Residual|: 1.360e-04   |deigs|: 5.545e-04  t[s]:     46.24
	FillingsUpdate:  mu: -0.109521516  nElectrons: 3.000000  magneticMoment: [ Abs: 0.56010  Tot: +0.56000 ]
SCF: Cycle: 28   F: -7.065573759735257   dF: -1.895e-07   |Residual|: 1.012e-04   |deigs|: 3.024e-04  t[s]:     47.79
	FillingsUpdate:  mu: -0.109351287  nElectrons: 3.000000  magneticMoment: [ Abs: 0.56001  Tot: +0.56000 ]
SCF: Cycle: 29   F: -7.065573816423186   dF: -5.669e-08   |Residual|: 6.960e-05   |deigs|: 1.706e-04  t[s]:     49.26
	FillingsUpdate:  mu: -0.109273682  nElectrons: 3.000000  magneticMoment: [ Abs: 0.56003  Tot: +0.56000 ]
SCF: Cycle: 30   F: -7.065573879639214   dF: -6.322e-08   |Residual|: 3.793e-05   |deigs|: 7.814e-05  t[s]:     50.80
	FillingsUpdate:  mu: -0.109237285  nElectrons: 3.000000  magneticMoment: [ Abs: 0.56000  Tot: +0.56000 ]
SCF: Cycle: 31   F: -7.065573892611058   dF: -1.297e-08   |Residual|: 2.601e-05   |deigs|: 4.155e-05  t[s]:     52.26
	FillingsUpdate:  mu: -0.109208954  nElectrons: 3.000000  magneticMoment: [ Abs: 0.56000  Tot: +0.56000 ]
SCF: Cycle: 32   F: -7.065573895366483   dF: -2.755e-09   |Residual|: 1.806e-05   |deigs|: 3.535e-05  t[s]:     53.74
	FillingsUpdate:  mu: -0.109170297  nElectrons: 3.000000  magneticMoment: [ Abs: 0.56000  Tot: +0.56000 ]
SCF: Cycle: 33   F: -7.065573897062215   dF: -1.696e-09   |Residual|: 1.248e-05   |deigs|: 3.437e-04  t[s]:     55.21
SCF: Converged (|Delta E|<1.000000e-08 for 2 iters).


# Ionic positions in lattice coordinates:
ion Li   0.000000000000000   0.000000000000000   0.000000000000000 0

# Forces in Lattice coordinates:
force Li   0.000000000000000  -0.000000000000000   0.000000000000000 0

# Energy components:
   Eewald =       -2.0053362333702967
       EH =        1.5349359930978506
     Eloc =       -6.1966881004156562
      Enl =       -3.5901545898460183
   Epulay =        0.0000032255226020
      Exc =       -1.5406073985720323
       KE =        4.7322738452643325
-------------------------------------
     Etot =       -7.0655732583192172
       TS =        0.0000006387429985
-------------------------------------
        F =       -7.0655738970622153

IonicMinimize: Iter:   0  F: -7.065573897062215  |grad|_K:  0.000e+00  t[s]:     55.27
IonicMinimize: Converged (|grad|_K<1.000000e-04).

#--- Lowdin population analysis ---
# oxidation-state Li +2.201
# magnetic-moments Li +0.389

End date and time: Sat Feb  5 23:07:37 2022  (Duration: 0-0:00:55.28)
Done!
scale=3
magnetization=0.56
--------------------------------------------------------------------------
The library attempted to open the following supporting CUDA libraries,
but each of them failed.  CUDA-aware support is disabled.
libcuda.so.1: cannot open shared object file: No such file or directory
libcuda.dylib: cannot open shared object file: No such file or directory
/usr/lib64/libcuda.so.1: cannot open shared object file: No such file or directory
/usr/lib64/libcuda.dylib: cannot open shared object file: No such file or directory
If you are not interested in CUDA-aware support, then run with
--mca opal_warn_on_missing_libcuda 0 to suppress this message.  If you are interested
in CUDA-aware support, then try setting LD_LIBRARY_PATH to the location
of libcuda.so.1 to get passed this issue.
--------------------------------------------------------------------------
--------------------------------------------------------------------------
No OpenFabrics connection schemes reported that they were able to be
used on a specific port.  As such, the openib BTL (OpenFabrics
support) will be disabled for this port.

  Local host:           d-4-5-2
  Local device:         mlx5_1
  Local port:           1
  CPCs attempted:       rdmacm, udcm
--------------------------------------------------------------------------

*************** JDFTx 1.6.0 (git hash 42ebbcc2) ***************

Start date and time: Sat Feb  5 23:07:38 2022
Executable jdftx with command-line: -i Alkali.in
Running on hosts (process indices):  d-4-5-2 (0-18)
Divided in process groups (process indices):  0 (0)  1 (1)  2 (2)  3 (3)  4 (4)  5 (5)  6 (6)  7 (7)  8 (8)  9 (9)  10 (10)  11 (11)  12 (12)  13 (13)  14 (14)  15 (15)  16 (16)  17 (17)  18 (18)
Resource initialization completed at t[s]:      0.00
Run totals: 19 processes, 48 threads, 0 GPUs


Input parsed successfully to the following command list (including defaults):

basis kpoint-dependent
coords-type Lattice
core-overlap-check vector
coulomb-interaction Slab 001
davidson-band-ratio 1.1
dump End None
dump-name $INPUT.$VAR
elec-cutoff 20
elec-eigen-algo Davidson
elec-ex-corr gga-PBE
elec-initial-magnetization 0.560000 yes
elec-smearing Fermi 1e-05
electronic-minimize  \
	dirUpdateScheme      FletcherReeves \
	linminMethod         DirUpdateRecommended \
	nIterations          100 \
	history              15 \
	knormThreshold       0 \
	energyDiffThreshold  1e-08 \
	nEnergyDiff          2 \
	alphaTstart          1 \
	alphaTmin            1e-10 \
	updateTestStepSize   yes \
	alphaTreduceFactor   0.1 \
	alphaTincreaseFactor 3 \
	nAlphaAdjustMax      3 \
	wolfeEnergy          0.0001 \
	wolfeGradient        0.9 \
	fdTest               no
electronic-scf  \
	nIterations	10000 \
	energyDiffThreshold	1e-08 \
	residualThreshold	1e-07 \
	mixFraction	0.5 \
	qMetric	0.8 \
	history	10 \
	nEigSteps	2 \
	eigDiffThreshold	1e-08 \
	mixedVariable	Density \
	qKerker	0.8 \
	qKappa	-1 \
	verbose	no \
	mixFractionMag	1.5
exchange-regularization WignerSeitzTruncated
fluid None
fluid-ex-corr (null) lda-PZ
fluid-gummel-loop 10 1.000000e-05
fluid-minimize  \
	dirUpdateScheme      PolakRibiere \
	linminMethod         DirUpdateRecommended \
	nIterations          100 \
	history              15 \
	knormThreshold       0 \
	energyDiffThreshold  0 \
	nEnergyDiff          2 \
	alphaTstart          1 \
	alphaTmin            1e-10 \
	updateTestStepSize   yes \
	alphaTreduceFactor   0.1 \
	alphaTincreaseFactor 3 \
	nAlphaAdjustMax      3 \
	wolfeEnergy          0.0001 \
	wolfeGradient        0.9 \
	fdTest               no
fluid-solvent H2O 55.338 ScalarEOS \
	epsBulk 78.4 \
	pMol 0.92466 \
	epsInf 1.77 \
	Pvap 1.06736e-10 \
	sigmaBulk 4.62e-05 \
	Rvdw 2.61727 \
	Res 1.42 \
	tauNuc 343133 \
	poleEl 15 7 1
forces-output-coords Positions
ion Li   0.000000000000000   0.000000000000000   0.000000000000000 0
ion-species SG15/$ID_ONCV_PBE.upf
ion-width 0
ionic-minimize  \
	dirUpdateScheme      L-BFGS \
	linminMethod         DirUpdateRecommended \
	nIterations          0 \
	history              15 \
	knormThreshold       0.0001 \
	energyDiffThreshold  1e-06 \
	nEnergyDiff          2 \
	alphaTstart          1 \
	alphaTmin            1e-10 \
	updateTestStepSize   yes \
	alphaTreduceFactor   0.1 \
	alphaTincreaseFactor 3 \
	nAlphaAdjustMax      3 \
	wolfeEnergy          0.0001 \
	wolfeGradient        0.9 \
	fdTest               no
kpoint   0.000000000000   0.000000000000   0.000000000000  1.00000000000000
kpoint-folding 12 12 1 
latt-move-scale 1 1 1
latt-scale 3 3 1 
lattice  \
	   4.727486978767153   -2.363743489383575    0.000000000000000  \
	  -0.000000000000000    4.094123819672498    0.000000000000000  \
	   0.000000000000000    0.000000000000000   40.000000000000000 
lattice-minimize  \
	dirUpdateScheme      L-BFGS \
	linminMethod         DirUpdateRecommended \
	nIterations          0 \
	history              15 \
	knormThreshold       0 \
	energyDiffThreshold  1e-06 \
	nEnergyDiff          2 \
	alphaTstart          1 \
	alphaTmin            1e-10 \
	updateTestStepSize   yes \
	alphaTreduceFactor   0.1 \
	alphaTincreaseFactor 3 \
	nAlphaAdjustMax      3 \
	wolfeEnergy          0.0001 \
	wolfeGradient        0.9 \
	fdTest               no
lcao-params -1 1e-06 1e-05
pcm-variant GLSSA13
spintype z-spin
subspace-rotation-factor 1 yes
symmetries automatic
symmetry-threshold 0.0001



---------- Setting up symmetries ----------

Found 24 point-group symmetries of the bravais lattice
Found 24 space-group symmetries with basis
Applied RMS atom displacement 0 bohrs to make symmetries exact.

---------- Initializing the Grid ----------
R = 
[      14.1825     -7.09123            0  ]
[            0      12.2824            0  ]
[            0            0           40  ]
unit cell volume = 6967.77
G =
[   0.443025   0.255781         -0  ]
[          0   0.511561         -0  ]
[         -0         -0    0.15708  ]
Minimum fftbox size, Smin = [  60  60  164  ]
Chosen fftbox size, S = [  60  60  168  ]

---------- Exchange Correlation functional ----------
Initalized PBE GGA exchange.
Initalized PBE GGA correlation.

---------- Setting up pseudopotentials ----------
Width of ionic core gaussian charges (only for fluid interactions / plotting) set to 0

Reading pseudopotential file '/home/gridsan/aligho/DFT/build-Nov24/pseudopotentials/SG15/Li_ONCV_PBE.upf':
  'Li' pseudopotential, 'PBE' functional
  Generated using ONCVPSP code by D. R. Hamann
  Author: Martin Schlipf and Francois Gygi  Date: 150915.
  3 valence electrons, 2 orbitals, 4 projectors, 1328 radial grid points, with lMax = 1
  Transforming local potential to a uniform radial grid of dG=0.02 with 1489 points.
  Transforming nonlocal projectors to a uniform radial grid of dG=0.02 with 432 points.
    1S    l: 0   occupation:  2.0   eigenvalue: -1.905623
    2S    l: 0   occupation:  1.0   eigenvalue: -0.105624
  Transforming atomic orbitals to a uniform radial grid of dG=0.02 with 432 points.
  WARNING: large normalization error in atomic orbital 1s (integral: 0.000000).
  Core radius for overlap checks: 1.63 bohrs.
  Reading pulay file /home/gridsan/aligho/DFT/build-Nov24/pseudopotentials/SG15/Li_ONCV_PBE.pulay ... using dE_dnG = -1.230239e-02 computed for Ecut = 20.

Initialized 1 species with 1 total atoms.

Folded 1 k-points by 12x12x1 to 144 k-points.

---------- Setting up k-points, bands, fillings ----------
Reduced to 19 k-points under symmetry. 
Computing the number of bands and number of electrons
Calculating initial fillings.
nElectrons:   3.000000   nBands: 3   nStates: 38

----- Setting up reduced wavefunction bases (one per k-point) -----
average nbasis = 29766.104 , ideal nbasis = 29766.845

---------- Setting up coulomb interaction ----------
Initialized slab truncation along lattice direction 001

---------- Setting up 2D ewald sum ----------
Optimum gaussian width for ewald sums = 7.873530 bohr.
Real space sums over 289 unit cells with max indices [  8  8  0  ]
Reciprocal space sums over 81 terms with max indices [  4  4  0  ]

---------- Allocating electronic variables ----------
Initializing wave functions:  linear combination of atomic orbitals
Note: number of bands (3) exceeds available atomic orbitals (2)
Li pseudo-atom occupations:   s ( 2 1 )
[d-4-5-2:56943] 18 more processes have sent help message help-mpi-common-cuda.txt / dlopen failed
[d-4-5-2:56943] Set MCA parameter "orte_base_help_aggregate" to 0 to see all help / error messages
[d-4-5-2:56943] 18 more processes have sent help message help-mpi-btl-openib-cpc-base.txt / no cpcs for port
	FillingsUpdate:  mu: +0.356322817  nElectrons: 3.000000  magneticMoment: [ Abs: 0.56000  Tot: +0.56000 ]
LCAOMinimize: Iter:   0  F: -1.2867619020865921  |grad|_K:  4.777e-05  alpha:  1.000e+00
	FillingsUpdate:  mu: +0.356322319  nElectrons: 3.000000  magneticMoment: [ Abs: 0.56000  Tot: +0.56000 ]
LCAOMinimize: Iter:   1  F: -1.2867623150263583  |grad|_K:  4.021e-07  alpha:  1.058e+00  linmin: -1.702e-03  cgtest:  1.116e-02  t[s]:      7.46
LCAOMinimize: Encountered beta<0, resetting CG.
	FillingsUpdate:  mu: +0.356322321  nElectrons: 3.000000  magneticMoment: [ Abs: 0.56000  Tot: +0.56000 ]
LCAOMinimize: Iter:   2  F: -1.2867623150542766  |grad|_K:  1.549e-08  alpha:  1.031e+00  linmin:  8.620e-03  cgtest: -3.591e-01  t[s]:      9.41
LCAOMinimize: Converged (|Delta F|<1.000000e-06 for 2 iters).


---- Citations for features of the code used in this run ----

   Software package:
      R. Sundararaman, K. Letchworth-Weaver, K.A. Schwarz, D. Gunceler, Y. Ozhabes and T.A. Arias, 'JDFTx: software for joint density-functional theory', SoftwareX 6, 278 (2017)

   gga-PBE exchange-correlation functional:
      J.P. Perdew, K. Burke and M. Ernzerhof, Phys. Rev. Lett. 77, 3865 (1996)

   Pseudopotentials:
      M Schlipf and F Gygi, Comput. Phys. Commun. 196, 36 (2015)

   Truncated Coulomb potentials:
      R. Sundararaman and T.A. Arias, Phys. Rev. B 87, 165122 (2013)

This list may not be complete. Please suggest additional citations or
report any other bugs at https://github.com/shankar1729/jdftx/issues

Initialization completed successfully at t[s]:      9.50


-------- Electronic minimization -----------
Will mix electronic density at each iteration.
	FillingsUpdate:  mu: +0.356322321  nElectrons: 3.000000  magneticMoment: [ Abs: 0.56000  Tot: +0.56000 ]
	FillingsUpdate:  mu: -0.696428084  nElectrons: 3.000000  magneticMoment: [ Abs: 0.56000  Tot: +0.56000 ]
SCF: Cycle:  0   F: -6.875680238729180   dF: -5.589e+00   |Residual|: 1.225e+00   |deigs|: 4.156e+00  t[s]:     12.92
	FillingsUpdate:  mu: -0.568536521  nElectrons: 3.000000  magneticMoment: [ Abs: 0.89848  Tot: +0.56000 ]
SCF: Cycle:  1   F: -6.917361809607135   dF: -4.168e-02   |Residual|: 7.635e-01   |deigs|: 2.744e-01  t[s]:     15.61
	FillingsUpdate:  mu: -0.362517078  nElectrons: 3.000000  magneticMoment: [ Abs: 1.22726  Tot: +0.56000 ]
SCF: Cycle:  2   F: -7.038859075286904   dF: -1.215e-01   |Residual|: 3.311e-01   |deigs|: 7.082e-01  t[s]:     18.34
	FillingsUpdate:  mu: -0.371308183  nElectrons: 3.000000  magneticMoment: [ Abs: 1.11192  Tot: +0.56000 ]
SCF: Cycle:  3   F: -7.040410284664795   dF: -1.551e-03   |Residual|: 1.837e-01   |deigs|: 7.993e-02  t[s]:     21.17
	FillingsUpdate:  mu: -0.328641653  nElectrons: 3.000000  magneticMoment: [ Abs: 0.94563  Tot: +0.56000 ]
SCF: Cycle:  4   F: -7.042464543080407   dF: -2.054e-03   |Residual|: 4.025e-02   |deigs|: 3.331e-02  t[s]:     24.02
	FillingsUpdate:  mu: -0.310473211  nElectrons: 3.000000  magneticMoment: [ Abs: 0.88198  Tot: +0.56000 ]
SCF: Cycle:  5   F: -7.042435902618261   dF: +2.864e-05   |Residual|: 8.369e-02   |deigs|: 1.819e-02  t[s]:     26.96
	FillingsUpdate:  mu: -0.273127056  nElectrons: 3.000000  magneticMoment: [ Abs: 0.71490  Tot: +0.56000 ]
SCF: Cycle:  6   F: -7.045196984575629   dF: -2.761e-03   |Residual|: 4.769e-02   |deigs|: 7.048e-02  t[s]:     29.95
	FillingsUpdate:  mu: -0.255466658  nElectrons: 3.000000  magneticMoment: [ Abs: 0.66661  Tot: +0.56000 ]
SCF: Cycle:  7   F: -7.046670959536014   dF: -1.474e-03   |Residual|: 5.994e-02   |deigs|: 4.934e-02  t[s]:     32.99
	FillingsUpdate:  mu: -0.254485834  nElectrons: 3.000000  magneticMoment: [ Abs: 0.63034  Tot: +0.56000 ]
SCF: Cycle:  8   F: -7.046806836734274   dF: -1.359e-04   |Residual|: 6.262e-02   |deigs|: 2.832e-03  t[s]:     36.13
	FillingsUpdate:  mu: -0.228281865  nElectrons: 3.000000  magneticMoment: [ Abs: 0.63437  Tot: +0.56000 ]
SCF: Cycle:  9   F: -7.047894329050252   dF: -1.087e-03   |Residual|: 5.566e-02   |deigs|: 3.373e-02  t[s]:     39.32
	FillingsUpdate:  mu: -0.198624426  nElectrons: 3.000000  magneticMoment: [ Abs: 0.69517  Tot: +0.56000 ]
SCF: Cycle: 10   F: -7.048412979035981   dF: -5.186e-04   |Residual|: 4.713e-02   |deigs|: 2.894e-02  t[s]:     42.57
	FillingsUpdate:  mu: -0.180258380  nElectrons: 3.000000  magneticMoment: [ Abs: 0.72507  Tot: +0.56000 ]
SCF: Cycle: 11   F: -7.048730851789322   dF: -3.179e-04   |Residual|: 1.300e-02   |deigs|: 2.451e-02  t[s]:     45.79
	FillingsUpdate:  mu: -0.169068085  nElectrons: 3.000000  magneticMoment: [ Abs: 0.72368  Tot: +0.56000 ]
SCF: Cycle: 12   F: -7.049035709824001   dF: -3.049e-04   |Residual|: 1.156e-02   |deigs|: 1.108e-02  t[s]:     49.04
	FillingsUpdate:  mu: -0.144394405  nElectrons: 3.000000  magneticMoment: [ Abs: 0.72323  Tot: +0.56000 ]
SCF: Cycle: 13   F: -7.048837814497663   dF: +1.979e-04   |Residual|: 8.038e-03   |deigs|: 2.722e-02  t[s]:     52.32
	FillingsUpdate:  mu: -0.135126154  nElectrons: 3.000000  magneticMoment: [ Abs: 0.70145  Tot: +0.56000 ]
SCF: Cycle: 14   F: -7.048810194757198   dF: +2.762e-05   |Residual|: 7.010e-03   |deigs|: 7.998e-03  t[s]:     55.57
	FillingsUpdate:  mu: -0.123632401  nElectrons: 3.000000  magneticMoment: [ Abs: 0.67067  Tot: +0.56000 ]
SCF: Cycle: 15   F: -7.048912219808154   dF: -1.020e-04   |Residual|: 6.312e-03   |deigs|: 1.181e-02  t[s]:     58.82
	FillingsUpdate:  mu: -0.114905075  nElectrons: 3.000000  magneticMoment: [ Abs: 0.63617  Tot: +0.56000 ]
SCF: Cycle: 16   F: -7.049180348185575   dF: -2.681e-04   |Residual|: 4.510e-03   |deigs|: 9.215e-03  t[s]:     62.15
	FillingsUpdate:  mu: -0.106481613  nElectrons: 3.000000  magneticMoment: [ Abs: 0.60880  Tot: +0.56000 ]
SCF: Cycle: 17   F: -7.049391536537810   dF: -2.112e-04   |Residual|: 3.017e-03   |deigs|: 9.897e-03  t[s]:     65.39
	FillingsUpdate:  mu: -0.105243896  nElectrons: 3.000000  magneticMoment: [ Abs: 0.59343  Tot: +0.56000 ]
SCF: Cycle: 18   F: -7.049467090117120   dF: -7.555e-05   |Residual|: 1.963e-03   |deigs|: 1.973e-03  t[s]:     68.58
	FillingsUpdate:  mu: -0.105181174  nElectrons: 3.000000  magneticMoment: [ Abs: 0.58241  Tot: +0.56000 ]
SCF: Cycle: 19   F: -7.049509553395768   dF: -4.246e-05   |Residual|: 1.196e-03   |deigs|: 6.044e-04  t[s]:     71.86
	FillingsUpdate:  mu: -0.105236436  nElectrons: 3.000000  magneticMoment: [ Abs: 0.57530  Tot: +0.56000 ]
SCF: Cycle: 20   F: -7.049524396367112   dF: -1.484e-05   |Residual|: 6.913e-04   |deigs|: 3.390e-04  t[s]:     75.19
	FillingsUpdate:  mu: -0.105271989  nElectrons: 3.000000  magneticMoment: [ Abs: 0.57059  Tot: +0.56000 ]
SCF: Cycle: 21   F: -7.049528738879038   dF: -4.343e-06   |Residual|: 4.332e-04   |deigs|: 1.669e-04  t[s]:     78.49
	FillingsUpdate:  mu: -0.105320739  nElectrons: 3.000000  magneticMoment: [ Abs: 0.56758  Tot: +0.56000 ]
SCF: Cycle: 22   F: -7.049530599389567   dF: -1.861e-06   |Residual|: 3.110e-04   |deigs|: 1.882e-04  t[s]:     81.71
	FillingsUpdate:  mu: -0.105250567  nElectrons: 3.000000  magneticMoment: [ Abs: 0.56529  Tot: +0.56000 ]
SCF: Cycle: 23   F: -7.049531488607837   dF: -8.892e-07   |Residual|: 2.462e-04   |deigs|: 1.865e-04  t[s]:     84.92
	FillingsUpdate:  mu: -0.105246370  nElectrons: 3.000000  magneticMoment: [ Abs: 0.56343  Tot: +0.56000 ]
SCF: Cycle: 24   F: -7.049531758105046   dF: -2.695e-07   |Residual|: 2.001e-04   |deigs|: 1.070e-04  t[s]:     88.13
	FillingsUpdate:  mu: -0.105195117  nElectrons: 3.000000  magneticMoment: [ Abs: 0.56240  Tot: +0.56000 ]
SCF: Cycle: 25   F: -7.049531546702448   dF: +2.114e-07   |Residual|: 1.648e-04   |deigs|: 1.137e-04  t[s]:     91.37
	FillingsUpdate:  mu: -0.105149313  nElectrons: 3.000000  magneticMoment: [ Abs: 0.56125  Tot: +0.56000 ]
SCF: Cycle: 26   F: -7.049531683867734   dF: -1.372e-07   |Residual|: 1.144e-04   |deigs|: 9.550e-05  t[s]:     94.61
	FillingsUpdate:  mu: -0.105094549  nElectrons: 3.000000  magneticMoment: [ Abs: 0.56062  Tot: +0.56000 ]
SCF: Cycle: 27   F: -7.049532147518923   dF: -4.637e-07   |Residual|: 6.874e-05   |deigs|: 1.071e-04  t[s]:     97.90
	FillingsUpdate:  mu: -0.105058332  nElectrons: 3.000000  magneticMoment: [ Abs: 0.56031  Tot: +0.56000 ]
SCF: Cycle: 28   F: -7.049532312476384   dF: -1.650e-07   |Residual|: 4.166e-05   |deigs|: 9.851e-05  t[s]:    101.14
	FillingsUpdate:  mu: -0.105037528  nElectrons: 3.000000  magneticMoment: [ Abs: 0.56009  Tot: +0.56000 ]
SCF: Cycle: 29   F: -7.049532350732982   dF: -3.826e-08   |Residual|: 2.642e-05   |deigs|: 8.129e-05  t[s]:    104.36
	FillingsUpdate:  mu: -0.105034135  nElectrons: 3.000000  magneticMoment: [ Abs: 0.56000  Tot: +0.56000 ]
SCF: Cycle: 30   F: -7.049532366218587   dF: -1.549e-08   |Residual|: 1.971e-05   |deigs|: 6.186e-05  t[s]:    107.56
	FillingsUpdate:  mu: -0.105037544  nElectrons: 3.000000  magneticMoment: [ Abs: 0.56001  Tot: +0.56000 ]
SCF: Cycle: 31   F: -7.049532378447118   dF: -1.223e-08   |Residual|: 1.435e-05   |deigs|: 4.871e-05  t[s]:    110.84
	FillingsUpdate:  mu: -0.105049735  nElectrons: 3.000000  magneticMoment: [ Abs: 0.56000  Tot: +0.56000 ]
SCF: Cycle: 32   F: -7.049532383535865   dF: -5.089e-09   |Residual|: 1.098e-05   |deigs|: 4.014e-05  t[s]:    114.15
	FillingsUpdate:  mu: -0.105061709  nElectrons: 3.000000  magneticMoment: [ Abs: 0.56000  Tot: +0.56000 ]
SCF: Cycle: 33   F: -7.049532389771539   dF: -6.236e-09   |Residual|: 9.110e-06   |deigs|: 3.147e-05  t[s]:    117.45
SCF: Converged (|Delta E|<1.000000e-08 for 2 iters).


# Ionic positions in lattice coordinates:
ion Li   0.000000000000000   0.000000000000000   0.000000000000000 0

# Forces in Lattice coordinates:
force Li   0.000000000000000   0.000000000000000   0.000000000000000 0

# Energy components:
   Eewald =       -1.3368908222468645
       EH =        2.2083394399425025
     Eloc =       -7.5503034101951458
      Enl =       -3.6026226359500577
   Epulay =       -0.0000013080581827
      Exc =       -1.5365004366023483
       KE =        4.7684474358969435
-------------------------------------
     Etot =       -7.0495317372131527
       TS =        0.0000006525583862
-------------------------------------
        F =       -7.0495323897715387

IonicMinimize: Iter:   0  F: -7.049532389771539  |grad|_K:  0.000e+00  t[s]:    117.59
IonicMinimize: Converged (|grad|_K<1.000000e-04).

#--- Lowdin population analysis ---
# oxidation-state Li +2.089
# magnetic-moments Li +0.516

End date and time: Sat Feb  5 23:09:36 2022  (Duration: 0-0:01:57.61)
Done!
scale=4
magnetization=0.56
--------------------------------------------------------------------------
The library attempted to open the following supporting CUDA libraries,
but each of them failed.  CUDA-aware support is disabled.
libcuda.so.1: cannot open shared object file: No such file or directory
libcuda.dylib: cannot open shared object file: No such file or directory
/usr/lib64/libcuda.so.1: cannot open shared object file: No such file or directory
/usr/lib64/libcuda.dylib: cannot open shared object file: No such file or directory
If you are not interested in CUDA-aware support, then run with
--mca opal_warn_on_missing_libcuda 0 to suppress this message.  If you are interested
in CUDA-aware support, then try setting LD_LIBRARY_PATH to the location
of libcuda.so.1 to get passed this issue.
--------------------------------------------------------------------------
--------------------------------------------------------------------------
No OpenFabrics connection schemes reported that they were able to be
used on a specific port.  As such, the openib BTL (OpenFabrics
support) will be disabled for this port.

  Local host:           d-4-5-2
  Local device:         mlx5_1
  Local port:           1
  CPCs attempted:       rdmacm, udcm
--------------------------------------------------------------------------

*************** JDFTx 1.6.0 (git hash 42ebbcc2) ***************

Start date and time: Sat Feb  5 23:09:37 2022
Executable jdftx with command-line: -i Alkali.in
Running on hosts (process indices):  d-4-5-2 (0-18)
Divided in process groups (process indices):  0 (0)  1 (1)  2 (2)  3 (3)  4 (4)  5 (5)  6 (6)  7 (7)  8 (8)  9 (9)  10 (10)  11 (11)  12 (12)  13 (13)  14 (14)  15 (15)  16 (16)  17 (17)  18 (18)
Resource initialization completed at t[s]:      0.00
Run totals: 19 processes, 48 threads, 0 GPUs


Input parsed successfully to the following command list (including defaults):

basis kpoint-dependent
coords-type Lattice
core-overlap-check vector
coulomb-interaction Slab 001
davidson-band-ratio 1.1
dump End None
dump-name $INPUT.$VAR
elec-cutoff 20
elec-eigen-algo Davidson
elec-ex-corr gga-PBE
elec-initial-magnetization 0.560000 yes
elec-smearing Fermi 1e-05
electronic-minimize  \
	dirUpdateScheme      FletcherReeves \
	linminMethod         DirUpdateRecommended \
	nIterations          100 \
	history              15 \
	knormThreshold       0 \
	energyDiffThreshold  1e-08 \
	nEnergyDiff          2 \
	alphaTstart          1 \
	alphaTmin            1e-10 \
	updateTestStepSize   yes \
	alphaTreduceFactor   0.1 \
	alphaTincreaseFactor 3 \
	nAlphaAdjustMax      3 \
	wolfeEnergy          0.0001 \
	wolfeGradient        0.9 \
	fdTest               no
electronic-scf  \
	nIterations	10000 \
	energyDiffThreshold	1e-08 \
	residualThreshold	1e-07 \
	mixFraction	0.5 \
	qMetric	0.8 \
	history	10 \
	nEigSteps	2 \
	eigDiffThreshold	1e-08 \
	mixedVariable	Density \
	qKerker	0.8 \
	qKappa	-1 \
	verbose	no \
	mixFractionMag	1.5
exchange-regularization WignerSeitzTruncated
fluid None
fluid-ex-corr (null) lda-PZ
fluid-gummel-loop 10 1.000000e-05
fluid-minimize  \
	dirUpdateScheme      PolakRibiere \
	linminMethod         DirUpdateRecommended \
	nIterations          100 \
	history              15 \
	knormThreshold       0 \
	energyDiffThreshold  0 \
	nEnergyDiff          2 \
	alphaTstart          1 \
	alphaTmin            1e-10 \
	updateTestStepSize   yes \
	alphaTreduceFactor   0.1 \
	alphaTincreaseFactor 3 \
	nAlphaAdjustMax      3 \
	wolfeEnergy          0.0001 \
	wolfeGradient        0.9 \
	fdTest               no
fluid-solvent H2O 55.338 ScalarEOS \
	epsBulk 78.4 \
	pMol 0.92466 \
	epsInf 1.77 \
	Pvap 1.06736e-10 \
	sigmaBulk 4.62e-05 \
	Rvdw 2.61727 \
	Res 1.42 \
	tauNuc 343133 \
	poleEl 15 7 1
forces-output-coords Positions
ion Li   0.000000000000000   0.000000000000000   0.000000000000000 0
ion-species SG15/$ID_ONCV_PBE.upf
ion-width 0
ionic-minimize  \
	dirUpdateScheme      L-BFGS \
	linminMethod         DirUpdateRecommended \
	nIterations          0 \
	history              15 \
	knormThreshold       0.0001 \
	energyDiffThreshold  1e-06 \
	nEnergyDiff          2 \
	alphaTstart          1 \
	alphaTmin            1e-10 \
	updateTestStepSize   yes \
	alphaTreduceFactor   0.1 \
	alphaTincreaseFactor 3 \
	nAlphaAdjustMax      3 \
	wolfeEnergy          0.0001 \
	wolfeGradient        0.9 \
	fdTest               no
kpoint   0.000000000000   0.000000000000   0.000000000000  1.00000000000000
kpoint-folding 12 12 1 
latt-move-scale 1 1 1
latt-scale 4 4 1 
lattice  \
	   4.727486978767153   -2.363743489383575    0.000000000000000  \
	  -0.000000000000000    4.094123819672498    0.000000000000000  \
	   0.000000000000000    0.000000000000000   40.000000000000000 
lattice-minimize  \
	dirUpdateScheme      L-BFGS \
	linminMethod         DirUpdateRecommended \
	nIterations          0 \
	history              15 \
	knormThreshold       0 \
	energyDiffThreshold  1e-06 \
	nEnergyDiff          2 \
	alphaTstart          1 \
	alphaTmin            1e-10 \
	updateTestStepSize   yes \
	alphaTreduceFactor   0.1 \
	alphaTincreaseFactor 3 \
	nAlphaAdjustMax      3 \
	wolfeEnergy          0.0001 \
	wolfeGradient        0.9 \
	fdTest               no
lcao-params -1 1e-06 1e-05
pcm-variant GLSSA13
spintype z-spin
subspace-rotation-factor 1 yes
symmetries automatic
symmetry-threshold 0.0001



---------- Setting up symmetries ----------

Found 24 point-group symmetries of the bravais lattice
Found 24 space-group symmetries with basis
Applied RMS atom displacement 0 bohrs to make symmetries exact.

---------- Initializing the Grid ----------
R = 
[      18.9099     -9.45497            0  ]
[            0      16.3765            0  ]
[            0            0           40  ]
unit cell volume = 12387.1
G =
[   0.332269   0.191835         -0  ]
[          0   0.383671         -0  ]
[         -0         -0    0.15708  ]
Minimum fftbox size, Smin = [  80  80  164  ]
Chosen fftbox size, S = [  80  80  168  ]

---------- Exchange Correlation functional ----------
Initalized PBE GGA exchange.
Initalized PBE GGA correlation.

---------- Setting up pseudopotentials ----------
Width of ionic core gaussian charges (only for fluid interactions / plotting) set to 0

Reading pseudopotential file '/home/gridsan/aligho/DFT/build-Nov24/pseudopotentials/SG15/Li_ONCV_PBE.upf':
  'Li' pseudopotential, 'PBE' functional
  Generated using ONCVPSP code by D. R. Hamann
  Author: Martin Schlipf and Francois Gygi  Date: 150915.
  3 valence electrons, 2 orbitals, 4 projectors, 1328 radial grid points, with lMax = 1
  Transforming local potential to a uniform radial grid of dG=0.02 with 1489 points.
  Transforming nonlocal projectors to a uniform radial grid of dG=0.02 with 432 points.
    1S    l: 0   occupation:  2.0   eigenvalue: -1.905623
    2S    l: 0   occupation:  1.0   eigenvalue: -0.105624
  Transforming atomic orbitals to a uniform radial grid of dG=0.02 with 432 points.
  WARNING: large normalization error in atomic orbital 1s (integral: 0.000000).
  Core radius for overlap checks: 1.63 bohrs.
  Reading pulay file /home/gridsan/aligho/DFT/build-Nov24/pseudopotentials/SG15/Li_ONCV_PBE.pulay ... using dE_dnG = -1.230239e-02 computed for Ecut = 20.

Initialized 1 species with 1 total atoms.

Folded 1 k-points by 12x12x1 to 144 k-points.

---------- Setting up k-points, bands, fillings ----------
Reduced to 19 k-points under symmetry. 
Computing the number of bands and number of electrons
Calculating initial fillings.
nElectrons:   3.000000   nBands: 3   nStates: 38

----- Setting up reduced wavefunction bases (one per k-point) -----
average nbasis = 52924.021 , ideal nbasis = 52918.836

---------- Setting up coulomb interaction ----------
Initialized slab truncation along lattice direction 001

---------- Setting up 2D ewald sum ----------
Optimum gaussian width for ewald sums = 10.498040 bohr.
Real space sums over 289 unit cells with max indices [  8  8  0  ]
Reciprocal space sums over 81 terms with max indices [  4  4  0  ]

---------- Allocating electronic variables ----------
Initializing wave functions:  linear combination of atomic orbitals
Note: number of bands (3) exceeds available atomic orbitals (2)
Li pseudo-atom occupations:   s ( 2 1 )
[d-4-5-2:40058] 18 more processes have sent help message help-mpi-common-cuda.txt / dlopen failed
[d-4-5-2:40058] Set MCA parameter "orte_base_help_aggregate" to 0 to see all help / error messages
[d-4-5-2:40058] 18 more processes have sent help message help-mpi-btl-openib-cpc-base.txt / no cpcs for port
	FillingsUpdate:  mu: +0.360835241  nElectrons: 3.000000  magneticMoment: [ Abs: 0.56000  Tot: +0.56000 ]
LCAOMinimize: Iter:   0  F: -1.3087589328195874  |grad|_K:  3.957e-05  alpha:  1.000e+00
	FillingsUpdate:  mu: +0.360834662  nElectrons: 3.000000  magneticMoment: [ Abs: 0.56000  Tot: +0.56000 ]
LCAOMinimize: Iter:   1  F: -1.3087592162004777  |grad|_K:  1.377e-07  alpha:  1.059e+00  linmin: -3.586e-03  cgtest:  1.892e-02  t[s]:     12.53
LCAOMinimize: Encountered beta<0, resetting CG.
LCAOMinimize: 	Predicted alpha/alphaT>3.000000, increasing alphaT to 3.175928e+00.
	FillingsUpdate:  mu: +0.360834662  nElectrons: 3.000000  magneticMoment: [ Abs: 0.56000  Tot: +0.56000 ]
LCAOMinimize: Iter:   2  F: -1.3087592162052044  |grad|_K:  9.509e-09  alpha:  1.088e+00  linmin:  7.390e-03  cgtest: -7.312e-01  t[s]:     17.07
LCAOMinimize: Converged (|Delta F|<1.000000e-06 for 2 iters).


---- Citations for features of the code used in this run ----

   Software package:
      R. Sundararaman, K. Letchworth-Weaver, K.A. Schwarz, D. Gunceler, Y. Ozhabes and T.A. Arias, 'JDFTx: software for joint density-functional theory', SoftwareX 6, 278 (2017)

   gga-PBE exchange-correlation functional:
      J.P. Perdew, K. Burke and M. Ernzerhof, Phys. Rev. Lett. 77, 3865 (1996)

   Pseudopotentials:
      M Schlipf and F Gygi, Comput. Phys. Commun. 196, 36 (2015)

   Truncated Coulomb potentials:
      R. Sundararaman and T.A. Arias, Phys. Rev. B 87, 165122 (2013)

This list may not be complete. Please suggest additional citations or
report any other bugs at https://github.com/shankar1729/jdftx/issues

Initialization completed successfully at t[s]:     17.20


-------- Electronic minimization -----------
Will mix electronic density at each iteration.
	FillingsUpdate:  mu: +0.360834662  nElectrons: 3.000000  magneticMoment: [ Abs: 0.56000  Tot: +0.56000 ]
	FillingsUpdate:  mu: -0.610857833  nElectrons: 3.000000  magneticMoment: [ Abs: 0.56000  Tot: +0.56000 ]
SCF: Cycle:  0   F: -6.875897956399442   dF: -5.567e+00   |Residual|: 1.230e+00   |deigs|: 4.155e+00  t[s]:     22.81
	FillingsUpdate:  mu: -0.486014826  nElectrons: 3.000000  magneticMoment: [ Abs: 0.96084  Tot: +0.56000 ]
SCF: Cycle:  1   F: -6.916926666838738   dF: -4.103e-02   |Residual|: 7.621e-01   |deigs|: 2.767e-01  t[s]:     27.25
	FillingsUpdate:  mu: -0.273838044  nElectrons: 3.000000  magneticMoment: [ Abs: 1.23929  Tot: +0.56000 ]
SCF: Cycle:  2   F: -7.036980181086681   dF: -1.201e-01   |Residual|: 3.199e-01   |deigs|: 7.034e-01  t[s]:     31.84
	FillingsUpdate:  mu: -0.281565498  nElectrons: 3.000000  magneticMoment: [ Abs: 1.11898  Tot: +0.56000 ]
SCF: Cycle:  3   F: -7.037259265656396   dF: -2.791e-04   |Residual|: 1.792e-01   |deigs|: 7.601e-02  t[s]:     36.51
	FillingsUpdate:  mu: -0.233789138  nElectrons: 3.000000  magneticMoment: [ Abs: 0.97807  Tot: +0.56000 ]
SCF: Cycle:  4   F: -7.039699422819955   dF: -2.440e-03   |Residual|: 5.002e-02   |deigs|: 4.046e-02  t[s]:     41.30
	FillingsUpdate:  mu: -0.221364521  nElectrons: 3.000000  magneticMoment: [ Abs: 0.97285  Tot: +0.56000 ]
SCF: Cycle:  5   F: -7.040761183764438   dF: -1.062e-03   |Residual|: 9.003e-02   |deigs|: 1.321e-02  t[s]:     46.21
	FillingsUpdate:  mu: -0.199373717  nElectrons: 3.000000  magneticMoment: [ Abs: 0.81974  Tot: +0.56000 ]
SCF: Cycle:  6   F: -7.043338411691560   dF: -2.577e-03   |Residual|: 2.424e-02   |deigs|: 5.344e-02  t[s]:     51.25
	FillingsUpdate:  mu: -0.183603436  nElectrons: 3.000000  magneticMoment: [ Abs: 0.71436  Tot: +0.56000 ]
SCF: Cycle:  7   F: -7.045216056960556   dF: -1.878e-03   |Residual|: 6.526e-02   |deigs|: 4.626e-02  t[s]:     56.45
	FillingsUpdate:  mu: -0.184565969  nElectrons: 3.000000  magneticMoment: [ Abs: 0.67195  Tot: +0.56000 ]
SCF: Cycle:  8   F: -7.045662070287631   dF: -4.460e-04   |Residual|: 4.249e-02   |deigs|: 8.101e-03  t[s]:     61.71
	FillingsUpdate:  mu: -0.182538882  nElectrons: 3.000000  magneticMoment: [ Abs: 0.64336  Tot: +0.56000 ]
SCF: Cycle:  9   F: -7.046495005542420   dF: -8.329e-04   |Residual|: 4.843e-02   |deigs|: 3.284e-02  t[s]:     67.20
	FillingsUpdate:  mu: -0.166302681  nElectrons: 3.000000  magneticMoment: [ Abs: 0.59748  Tot: +0.56000 ]
SCF: Cycle: 10   F: -7.047020136167543   dF: -5.251e-04   |Residual|: 1.546e-02   |deigs|: 2.515e-02  t[s]:     72.69
	FillingsUpdate:  mu: -0.155974640  nElectrons: 3.000000  magneticMoment: [ Abs: 0.63712  Tot: +0.56000 ]
SCF: Cycle: 11   F: -7.047148567184156   dF: -1.284e-04   |Residual|: 2.250e-02   |deigs|: 1.604e-02  t[s]:     78.13
	FillingsUpdate:  mu: -0.149676975  nElectrons: 3.000000  magneticMoment: [ Abs: 0.64963  Tot: +0.56000 ]
SCF: Cycle: 12   F: -7.047267108597851   dF: -1.185e-04   |Residual|: 1.238e-02   |deigs|: 9.280e-03  t[s]:     83.63
	FillingsUpdate:  mu: -0.127563517  nElectrons: 3.000000  magneticMoment: [ Abs: 0.70542  Tot: +0.56000 ]
SCF: Cycle: 13   F: -7.047378651331214   dF: -1.115e-04   |Residual|: 6.517e-03   |deigs|: 2.538e-02  t[s]:     89.14
	FillingsUpdate:  mu: -0.121702380  nElectrons: 3.000000  magneticMoment: [ Abs: 0.70436  Tot: +0.56000 ]
SCF: Cycle: 14   F: -7.047373347521043   dF: +5.304e-06   |Residual|: 5.750e-03   |deigs|: 6.405e-03  t[s]:     94.56
	FillingsUpdate:  mu: -0.115516265  nElectrons: 3.000000  magneticMoment: [ Abs: 0.67761  Tot: +0.56000 ]
SCF: Cycle: 15   F: -7.047418505171877   dF: -4.516e-05   |Residual|: 4.144e-03   |deigs|: 5.591e-03  t[s]:     99.99
	FillingsUpdate:  mu: -0.111760108  nElectrons: 3.000000  magneticMoment: [ Abs: 0.65964  Tot: +0.56000 ]
SCF: Cycle: 16   F: -7.047417989807506   dF: +5.154e-07   |Residual|: 3.402e-03   |deigs|: 3.490e-03  t[s]:    105.53
	FillingsUpdate:  mu: -0.108134259  nElectrons: 3.000000  magneticMoment: [ Abs: 0.63151  Tot: +0.56000 ]
SCF: Cycle: 17   F: -7.047402992251297   dF: +1.500e-05   |Residual|: 2.505e-03   |deigs|: 3.693e-03  t[s]:    111.02
	FillingsUpdate:  mu: -0.105104654  nElectrons: 3.000000  magneticMoment: [ Abs: 0.61502  Tot: +0.56000 ]
SCF: Cycle: 18   F: -7.047450335925804   dF: -4.734e-05   |Residual|: 1.764e-03   |deigs|: 3.862e-03  t[s]:    116.53
	FillingsUpdate:  mu: -0.103696184  nElectrons: 3.000000  magneticMoment: [ Abs: 0.60235  Tot: +0.56000 ]
SCF: Cycle: 19   F: -7.047486956534899   dF: -3.662e-05   |Residual|: 1.356e-03   |deigs|: 1.881e-03  t[s]:    121.95
	FillingsUpdate:  mu: -0.102539448  nElectrons: 3.000000  magneticMoment: [ Abs: 0.59274  Tot: +0.56000 ]
SCF: Cycle: 20   F: -7.047501167217064   dF: -1.421e-05   |Residual|: 9.948e-04   |deigs|: 1.552e-03  t[s]:    127.41
	FillingsUpdate:  mu: -0.102178556  nElectrons: 3.000000  magneticMoment: [ Abs: 0.58211  Tot: +0.56000 ]
SCF: Cycle: 21   F: -7.047523276269668   dF: -2.211e-05   |Residual|: 7.276e-04   |deigs|: 4.426e-04  t[s]:    132.88
	FillingsUpdate:  mu: -0.102886512  nElectrons: 3.000000  magneticMoment: [ Abs: 0.57239  Tot: +0.56000 ]
SCF: Cycle: 22   F: -7.047535692856719   dF: -1.242e-05   |Residual|: 4.642e-04   |deigs|: 9.472e-04  t[s]:    138.37
	FillingsUpdate:  mu: -0.103226621  nElectrons: 3.000000  magneticMoment: [ Abs: 0.56576  Tot: +0.56000 ]
SCF: Cycle: 23   F: -7.047540334124236   dF: -4.641e-06   |Residual|: 2.930e-04   |deigs|: 5.398e-04  t[s]:    143.80
	FillingsUpdate:  mu: -0.103368106  nElectrons: 3.000000  magneticMoment: [ Abs: 0.56301  Tot: +0.56000 ]
SCF: Cycle: 24   F: -7.047541313409575   dF: -9.793e-07   |Residual|: 2.146e-04   |deigs|: 2.543e-04  t[s]:    149.23
	FillingsUpdate:  mu: -0.103271242  nElectrons: 3.000000  magneticMoment: [ Abs: 0.56176  Tot: +0.56000 ]
SCF: Cycle: 25   F: -7.047541921680723   dF: -6.083e-07   |Residual|: 1.398e-04   |deigs|: 1.118e-04  t[s]:    154.69
	FillingsUpdate:  mu: -0.103262632  nElectrons: 3.000000  magneticMoment: [ Abs: 0.56166  Tot: +0.56000 ]
SCF: Cycle: 26   F: -7.047542199686136   dF: -2.780e-07   |Residual|: 9.322e-05   |deigs|: 8.727e-05  t[s]:    160.13
	FillingsUpdate:  mu: -0.103235622  nElectrons: 3.000000  magneticMoment: [ Abs: 0.56109  Tot: +0.56000 ]
SCF: Cycle: 27   F: -7.047542290477055   dF: -9.079e-08   |Residual|: 6.088e-05   |deigs|: 7.341e-05  t[s]:    165.61
	FillingsUpdate:  mu: -0.103242214  nElectrons: 3.000000  magneticMoment: [ Abs: 0.56087  Tot: +0.56000 ]
SCF: Cycle: 28   F: -7.047542321954640   dF: -3.148e-08   |Residual|: 3.941e-05   |deigs|: 5.762e-05  t[s]:    171.10
	FillingsUpdate:  mu: -0.103227643  nElectrons: 3.000000  magneticMoment: [ Abs: 0.56056  Tot: +0.56000 ]
SCF: Cycle: 29   F: -7.047542338005137   dF: -1.605e-08   |Residual|: 2.952e-05   |deigs|: 4.696e-05  t[s]:    176.53
	FillingsUpdate:  mu: -0.103218486  nElectrons: 3.000000  magneticMoment: [ Abs: 0.56037  Tot: +0.56000 ]
SCF: Cycle: 30   F: -7.047542340815245   dF: -2.810e-09   |Residual|: 2.330e-05   |deigs|: 3.736e-05  t[s]:    181.92
	FillingsUpdate:  mu: -0.103208799  nElectrons: 3.000000  magneticMoment: [ Abs: 0.56021  Tot: +0.56000 ]
SCF: Cycle: 31   F: -7.047542351922383   dF: -1.111e-08   |Residual|: 1.822e-05   |deigs|: 3.175e-05  t[s]:    187.38
	FillingsUpdate:  mu: -0.103210761  nElectrons: 3.000000  magneticMoment: [ Abs: 0.56009  Tot: +0.56000 ]
SCF: Cycle: 32   F: -7.047542358250618   dF: -6.328e-09   |Residual|: 1.491e-05   |deigs|: 2.853e-05  t[s]:    192.73
	FillingsUpdate:  mu: -0.103224316  nElectrons: 3.000000  magneticMoment: [ Abs: 0.56001  Tot: +0.56000 ]
SCF: Cycle: 33   F: -7.047542358105598   dF: +1.450e-10   |Residual|: 1.164e-05   |deigs|: 3.100e-05  t[s]:    198.17
	FillingsUpdate:  mu: -0.103230469  nElectrons: 3.000000  magneticMoment: [ Abs: 0.56001  Tot: +0.56000 ]
SCF: Cycle: 34   F: -7.047542363387914   dF: -5.282e-09   |Residual|: 9.370e-06   |deigs|: 2.617e-05  t[s]:    203.71
	FillingsUpdate:  mu: -0.103234453  nElectrons: 3.000000  magneticMoment: [ Abs: 0.56000  Tot: +0.56000 ]
SCF: Cycle: 35   F: -7.047542341975265   dF: +2.141e-08   |Residual|: 7.664e-06   |deigs|: 2.360e-05  t[s]:    209.20
	FillingsUpdate:  mu: -0.103235029  nElectrons: 3.000000  magneticMoment: [ Abs: 0.56001  Tot: +0.56000 ]
SCF: Cycle: 36   F: -7.047542348294652   dF: -6.319e-09   |Residual|: 5.641e-06   |deigs|: 2.051e-05  t[s]:    214.67
	FillingsUpdate:  mu: -0.103233838  nElectrons: 3.000000  magneticMoment: [ Abs: 0.56000  Tot: +0.56000 ]
SCF: Cycle: 37   F: -7.047542362366989   dF: -1.407e-08   |Residual|: 4.658e-06   |deigs|: 1.923e-05  t[s]:    220.11
	FillingsUpdate:  mu: -0.103232338  nElectrons: 3.000000  magneticMoment: [ Abs: 0.56000  Tot: +0.56000 ]
SCF: Cycle: 38   F: -7.047542354438037   dF: +7.929e-09   |Residual|: 3.831e-06   |deigs|: 1.784e-05  t[s]:    225.62
	FillingsUpdate:  mu: -0.103230739  nElectrons: 3.000000  magneticMoment: [ Abs: 0.56000  Tot: +0.56000 ]
SCF: Cycle: 39   F: -7.047542366733404   dF: -1.230e-08   |Residual|: 2.599e-06   |deigs|: 1.663e-05  t[s]:    231.14
	FillingsUpdate:  mu: -0.103230088  nElectrons: 3.000000  magneticMoment: [ Abs: 0.56000  Tot: +0.56000 ]
SCF: Cycle: 40   F: -7.047542368157846   dF: -1.424e-09   |Residual|: 1.847e-06   |deigs|: 1.553e-05  t[s]:    236.68
	FillingsUpdate:  mu: -0.103229659  nElectrons: 3.000000  magneticMoment: [ Abs: 0.56000  Tot: +0.56000 ]
SCF: Cycle: 41   F: -7.047542369973561   dF: -1.816e-09   |Residual|: 1.326e-06   |deigs|: 1.420e-05  t[s]:    242.15
SCF: Converged (|Delta E|<1.000000e-08 for 2 iters).


# Ionic positions in lattice coordinates:
ion Li   0.000000000000000   0.000000000000000   0.000000000000000 0

# Forces in Lattice coordinates:
force Li  -0.000000000000000  -0.000000000000000   0.000000000000000 0

# Energy components:
   Eewald =       -1.0026681166851483
       EH =        2.5529965727780723
     Eloc =       -8.2324084627433436
      Enl =       -3.6043469352547817
   Epulay =        0.0000051497655618
      Exc =       -1.5388701348929665
       KE =        4.7777511951680838
-------------------------------------
     Etot =       -7.0475407318645233
       TS =        0.0000016381090376
-------------------------------------
        F =       -7.0475423699735611

IonicMinimize: Iter:   0  F: -7.047542369973561  |grad|_K:  0.000e+00  t[s]:    242.39
IonicMinimize: Converged (|grad|_K<1.000000e-04).

#--- Lowdin population analysis ---
# oxidation-state Li +2.074
# magnetic-moments Li +0.519

End date and time: Sat Feb  5 23:13:39 2022  (Duration: 0-0:04:02.42)
Done!
