The alkali metal is Li
scale=2
magnetization=-0.44
--------------------------------------------------------------------------
The library attempted to open the following supporting CUDA libraries,
but each of them failed.  CUDA-aware support is disabled.
libcuda.so.1: cannot open shared object file: No such file or directory
libcuda.dylib: cannot open shared object file: No such file or directory
/usr/lib64/libcuda.so.1: cannot open shared object file: No such file or directory
/usr/lib64/libcuda.dylib: cannot open shared object file: No such file or directory
If you are not interested in CUDA-aware support, then run with
--mca opal_warn_on_missing_libcuda 0 to suppress this message.  If you are interested
in CUDA-aware support, then try setting LD_LIBRARY_PATH to the location
of libcuda.so.1 to get passed this issue.
--------------------------------------------------------------------------
--------------------------------------------------------------------------
No OpenFabrics connection schemes reported that they were able to be
used on a specific port.  As such, the openib BTL (OpenFabrics
support) will be disabled for this port.

  Local host:           d-6-7-4
  Local device:         mlx5_1
  Local port:           1
  CPCs attempted:       rdmacm, udcm
--------------------------------------------------------------------------

*************** JDFTx 1.6.0 (git hash 42ebbcc2) ***************

Start date and time: Sat Feb  5 22:52:45 2022
Executable jdftx with command-line: -i Alkali.in
Running on hosts (process indices):  d-6-7-4 (0-18)
Divided in process groups (process indices):  0 (0)  1 (1)  2 (2)  3 (3)  4 (4)  5 (5)  6 (6)  7 (7)  8 (8)  9 (9)  10 (10)  11 (11)  12 (12)  13 (13)  14 (14)  15 (15)  16 (16)  17 (17)  18 (18)
Resource initialization completed at t[s]:      0.00
Run totals: 19 processes, 48 threads, 0 GPUs


Input parsed successfully to the following command list (including defaults):

basis kpoint-dependent
coords-type Lattice
core-overlap-check vector
coulomb-interaction Slab 001
davidson-band-ratio 1.1
dump End None
dump-name $INPUT.$VAR
elec-cutoff 20
elec-eigen-algo Davidson
elec-ex-corr gga-PBE
elec-initial-magnetization -0.440000 yes
elec-smearing Fermi 1e-05
electronic-minimize  \
	dirUpdateScheme      FletcherReeves \
	linminMethod         DirUpdateRecommended \
	nIterations          100 \
	history              15 \
	knormThreshold       0 \
	energyDiffThreshold  1e-08 \
	nEnergyDiff          2 \
	alphaTstart          1 \
	alphaTmin            1e-10 \
	updateTestStepSize   yes \
	alphaTreduceFactor   0.1 \
	alphaTincreaseFactor 3 \
	nAlphaAdjustMax      3 \
	wolfeEnergy          0.0001 \
	wolfeGradient        0.9 \
	fdTest               no
electronic-scf  \
	nIterations	10000 \
	energyDiffThreshold	1e-08 \
	residualThreshold	1e-07 \
	mixFraction	0.5 \
	qMetric	0.8 \
	history	10 \
	nEigSteps	2 \
	eigDiffThreshold	1e-08 \
	mixedVariable	Density \
	qKerker	0.8 \
	qKappa	-1 \
	verbose	no \
	mixFractionMag	1.5
exchange-regularization WignerSeitzTruncated
fluid None
fluid-ex-corr (null) lda-PZ
fluid-gummel-loop 10 1.000000e-05
fluid-minimize  \
	dirUpdateScheme      PolakRibiere \
	linminMethod         DirUpdateRecommended \
	nIterations          100 \
	history              15 \
	knormThreshold       0 \
	energyDiffThreshold  0 \
	nEnergyDiff          2 \
	alphaTstart          1 \
	alphaTmin            1e-10 \
	updateTestStepSize   yes \
	alphaTreduceFactor   0.1 \
	alphaTincreaseFactor 3 \
	nAlphaAdjustMax      3 \
	wolfeEnergy          0.0001 \
	wolfeGradient        0.9 \
	fdTest               no
fluid-solvent H2O 55.338 ScalarEOS \
	epsBulk 78.4 \
	pMol 0.92466 \
	epsInf 1.77 \
	Pvap 1.06736e-10 \
	sigmaBulk 4.62e-05 \
	Rvdw 2.61727 \
	Res 1.42 \
	tauNuc 343133 \
	poleEl 15 7 1
forces-output-coords Positions
ion Li   0.000000000000000   0.000000000000000   0.000000000000000 0
ion-species SG15/$ID_ONCV_PBE.upf
ion-width 0
ionic-minimize  \
	dirUpdateScheme      L-BFGS \
	linminMethod         DirUpdateRecommended \
	nIterations          0 \
	history              15 \
	knormThreshold       0.0001 \
	energyDiffThreshold  1e-06 \
	nEnergyDiff          2 \
	alphaTstart          1 \
	alphaTmin            1e-10 \
	updateTestStepSize   yes \
	alphaTreduceFactor   0.1 \
	alphaTincreaseFactor 3 \
	nAlphaAdjustMax      3 \
	wolfeEnergy          0.0001 \
	wolfeGradient        0.9 \
	fdTest               no
kpoint   0.000000000000   0.000000000000   0.000000000000  1.00000000000000
kpoint-folding 12 12 1 
latt-move-scale 1 1 1
latt-scale 2 2 1 
lattice  \
	   4.727486978767153   -2.363743489383575    0.000000000000000  \
	  -0.000000000000000    4.094123819672498    0.000000000000000  \
	   0.000000000000000    0.000000000000000   40.000000000000000 
lattice-minimize  \
	dirUpdateScheme      L-BFGS \
	linminMethod         DirUpdateRecommended \
	nIterations          0 \
	history              15 \
	knormThreshold       0 \
	energyDiffThreshold  1e-06 \
	nEnergyDiff          2 \
	alphaTstart          1 \
	alphaTmin            1e-10 \
	updateTestStepSize   yes \
	alphaTreduceFactor   0.1 \
	alphaTincreaseFactor 3 \
	nAlphaAdjustMax      3 \
	wolfeEnergy          0.0001 \
	wolfeGradient        0.9 \
	fdTest               no
lcao-params -1 1e-06 1e-05
pcm-variant GLSSA13
spintype z-spin
subspace-rotation-factor 1 yes
symmetries automatic
symmetry-threshold 0.0001



---------- Setting up symmetries ----------

Found 24 point-group symmetries of the bravais lattice
Found 24 space-group symmetries with basis
Applied RMS atom displacement 0 bohrs to make symmetries exact.

---------- Initializing the Grid ----------
R = 
[      9.45497     -4.72749            0  ]
[            0      8.18825            0  ]
[            0            0           40  ]
unit cell volume = 3096.79
G =
[   0.664538   0.383671         -0  ]
[          0   0.767342         -0  ]
[         -0         -0    0.15708  ]
Minimum fftbox size, Smin = [  40  40  164  ]
Chosen fftbox size, S = [  40  40  168  ]

---------- Exchange Correlation functional ----------
Initalized PBE GGA exchange.
Initalized PBE GGA correlation.

---------- Setting up pseudopotentials ----------
Width of ionic core gaussian charges (only for fluid interactions / plotting) set to 0

Reading pseudopotential file '/home/gridsan/aligho/DFT/build-Nov24/pseudopotentials/SG15/Li_ONCV_PBE.upf':
  'Li' pseudopotential, 'PBE' functional
  Generated using ONCVPSP code by D. R. Hamann
  Author: Martin Schlipf and Francois Gygi  Date: 150915.
  3 valence electrons, 2 orbitals, 4 projectors, 1328 radial grid points, with lMax = 1
  Transforming local potential to a uniform radial grid of dG=0.02 with 1489 points.
  Transforming nonlocal projectors to a uniform radial grid of dG=0.02 with 432 points.
    1S    l: 0   occupation:  2.0   eigenvalue: -1.905623
    2S    l: 0   occupation:  1.0   eigenvalue: -0.105624
  Transforming atomic orbitals to a uniform radial grid of dG=0.02 with 432 points.
  WARNING: large normalization error in atomic orbital 1s (integral: 0.000000).
  Core radius for overlap checks: 1.63 bohrs.
  Reading pulay file /home/gridsan/aligho/DFT/build-Nov24/pseudopotentials/SG15/Li_ONCV_PBE.pulay ... using dE_dnG = -1.230239e-02 computed for Ecut = 20.

Initialized 1 species with 1 total atoms.

Folded 1 k-points by 12x12x1 to 144 k-points.

---------- Setting up k-points, bands, fillings ----------
Reduced to 19 k-points under symmetry. 
Computing the number of bands and number of electrons
Calculating initial fillings.
nElectrons:   3.000000   nBands: 3   nStates: 38

----- Setting up reduced wavefunction bases (one per k-point) -----
average nbasis = 13230.521 , ideal nbasis = 13229.709

---------- Setting up coulomb interaction ----------
Initialized slab truncation along lattice direction 001

---------- Setting up 2D ewald sum ----------
Optimum gaussian width for ewald sums = 5.249020 bohr.
Real space sums over 289 unit cells with max indices [  8  8  0  ]
Reciprocal space sums over 81 terms with max indices [  4  4  0  ]

---------- Allocating electronic variables ----------
Initializing wave functions:  linear combination of atomic orbitals
Note: number of bands (3) exceeds available atomic orbitals (2)
Li pseudo-atom occupations:   s ( 2 1 )
	FillingsUpdate:  mu: +0.327671252  nElectrons: 3.000000  magneticMoment: [ Abs: 0.44000  Tot: -0.44000 ]
LCAOMinimize: Iter:   0  F: -1.1816626179204723  |grad|_K:  7.283e-05  alpha:  1.000e+00
	FillingsUpdate:  mu: +0.327669983  nElectrons: 3.000000  magneticMoment: [ Abs: 0.44000  Tot: -0.44000 ]
LCAOMinimize: Iter:   1  F: -1.1816635662825217  |grad|_K:  1.785e-06  alpha:  1.046e+00  linmin: -1.797e-03  cgtest:  2.457e-02  t[s]:      3.83
LCAOMinimize: Encountered beta<0, resetting CG.
	FillingsUpdate:  mu: +0.327669982  nElectrons: 3.000000  magneticMoment: [ Abs: 0.44000  Tot: -0.44000 ]
LCAOMinimize: Iter:   2  F: -1.1816635668371496  |grad|_K:  5.955e-08  alpha:  1.017e+00  linmin: -2.721e-03  cgtest:  6.561e-02  t[s]:      4.84
LCAOMinimize: Encountered beta<0, resetting CG.
LCAOMinimize: Converged (|Delta F|<1.000000e-06 for 2 iters).
[d-6-7-4:21390] 18 more processes have sent help message help-mpi-common-cuda.txt / dlopen failed
[d-6-7-4:21390] Set MCA parameter "orte_base_help_aggregate" to 0 to see all help / error messages
[d-6-7-4:21390] 18 more processes have sent help message help-mpi-btl-openib-cpc-base.txt / no cpcs for port


---- Citations for features of the code used in this run ----

   Software package:
      R. Sundararaman, K. Letchworth-Weaver, K.A. Schwarz, D. Gunceler, Y. Ozhabes and T.A. Arias, 'JDFTx: software for joint density-functional theory', SoftwareX 6, 278 (2017)

   gga-PBE exchange-correlation functional:
      J.P. Perdew, K. Burke and M. Ernzerhof, Phys. Rev. Lett. 77, 3865 (1996)

   Pseudopotentials:
      M Schlipf and F Gygi, Comput. Phys. Commun. 196, 36 (2015)

   Truncated Coulomb potentials:
      R. Sundararaman and T.A. Arias, Phys. Rev. B 87, 165122 (2013)

This list may not be complete. Please suggest additional citations or
report any other bugs at https://github.com/shankar1729/jdftx/issues

Initialization completed successfully at t[s]:      4.91


-------- Electronic minimization -----------
Will mix electronic density at each iteration.
	FillingsUpdate:  mu: +0.327669982  nElectrons: 3.000000  magneticMoment: [ Abs: 0.44000  Tot: -0.44000 ]
	FillingsUpdate:  mu: -0.971448557  nElectrons: 3.000000  magneticMoment: [ Abs: 0.44000  Tot: -0.44000 ]
SCF: Cycle:  0   F: -6.835016312953276   dF: -5.653e+00   |Residual|: 1.173e+00   |deigs|: 4.171e+00  t[s]:      6.50
	FillingsUpdate:  mu: -0.851808148  nElectrons: 3.000000  magneticMoment: [ Abs: 0.67141  Tot: -0.44000 ]
SCF: Cycle:  1   F: -6.937337941208204   dF: -1.023e-01   |Residual|: 7.744e-01   |deigs|: 2.361e-01  t[s]:      7.74
	FillingsUpdate:  mu: -0.639974761  nElectrons: 3.000000  magneticMoment: [ Abs: 0.87522  Tot: -0.44000 ]
SCF: Cycle:  2   F: -7.048958457507680   dF: -1.116e-01   |Residual|: 4.222e-01   |deigs|: 7.753e-01  t[s]:      9.01
	FillingsUpdate:  mu: -0.659560047  nElectrons: 3.000000  magneticMoment: [ Abs: 0.73718  Tot: -0.44000 ]
SCF: Cycle:  3   F: -7.056641702624868   dF: -7.683e-03   |Residual|: 2.071e-01   |deigs|: 1.229e-01  t[s]:     10.29
	FillingsUpdate:  mu: -0.618260893  nElectrons: 3.000000  magneticMoment: [ Abs: 0.56508  Tot: -0.44000 ]
SCF: Cycle:  4   F: -7.055246451808663   dF: +1.395e-03   |Residual|: 3.904e-02   |deigs|: 3.639e-02  t[s]:     11.61
	FillingsUpdate:  mu: -0.591824054  nElectrons: 3.000000  magneticMoment: [ Abs: 0.55146  Tot: -0.44000 ]
SCF: Cycle:  5   F: -7.054898192620134   dF: +3.483e-04   |Residual|: 1.135e-01   |deigs|: 2.064e-02  t[s]:     12.95
	FillingsUpdate:  mu: -0.463402718  nElectrons: 3.000000  magneticMoment: [ Abs: 0.63072  Tot: -0.44000 ]
SCF: Cycle:  6   F: -7.059347609535581   dF: -4.449e-03   |Residual|: 9.823e-02   |deigs|: 1.569e-01  t[s]:     14.33
	FillingsUpdate:  mu: -0.425132632  nElectrons: 3.000000  magneticMoment: [ Abs: 0.58217  Tot: -0.44000 ]
SCF: Cycle:  7   F: -7.060357977717675   dF: -1.010e-03   |Residual|: 1.187e-01   |deigs|: 9.165e-02  t[s]:     15.70
	FillingsUpdate:  mu: -0.405098189  nElectrons: 3.000000  magneticMoment: [ Abs: 0.54250  Tot: -0.44000 ]
SCF: Cycle:  8   F: -7.061495209142409   dF: -1.137e-03   |Residual|: 8.555e-02   |deigs|: 1.590e-02  t[s]:     17.21
	FillingsUpdate:  mu: -0.346997651  nElectrons: 3.000000  magneticMoment: [ Abs: 0.55472  Tot: -0.44000 ]
SCF: Cycle:  9   F: -7.064041755492546   dF: -2.547e-03   |Residual|: 6.913e-02   |deigs|: 5.341e-02  t[s]:     18.63
	FillingsUpdate:  mu: -0.316483440  nElectrons: 3.000000  magneticMoment: [ Abs: 0.54167  Tot: -0.44000 ]
SCF: Cycle: 10   F: -7.064707916120483   dF: -6.662e-04   |Residual|: 3.413e-02   |deigs|: 3.533e-02  t[s]:     20.10
	FillingsUpdate:  mu: -0.259783159  nElectrons: 3.000000  magneticMoment: [ Abs: 0.57916  Tot: -0.44000 ]
SCF: Cycle: 11   F: -7.065475980984999   dF: -7.681e-04   |Residual|: 1.855e-02   |deigs|: 6.445e-02  t[s]:     21.58
	FillingsUpdate:  mu: -0.228949311  nElectrons: 3.000000  magneticMoment: [ Abs: 0.57684  Tot: -0.44000 ]
SCF: Cycle: 12   F: -7.065772050359483   dF: -2.961e-04   |Residual|: 1.363e-02   |deigs|: 3.482e-02  t[s]:     23.03
	FillingsUpdate:  mu: -0.178355724  nElectrons: 3.000000  magneticMoment: [ Abs: 0.55058  Tot: -0.44000 ]
SCF: Cycle: 13   F: -7.066031780787857   dF: -2.597e-04   |Residual|: 1.195e-02   |deigs|: 5.111e-02  t[s]:     24.49
	FillingsUpdate:  mu: -0.154634145  nElectrons: 3.000000  magneticMoment: [ Abs: 0.52151  Tot: -0.44000 ]
SCF: Cycle: 14   F: -7.066097646755996   dF: -6.587e-05   |Residual|: 9.294e-03   |deigs|: 2.367e-02  t[s]:     25.92
	FillingsUpdate:  mu: -0.135305613  nElectrons: 3.000000  magneticMoment: [ Abs: 0.50101  Tot: -0.44000 ]
SCF: Cycle: 15   F: -7.066118908213459   dF: -2.126e-05   |Residual|: 7.069e-03   |deigs|: 1.820e-02  t[s]:     27.37
	FillingsUpdate:  mu: -0.118176445  nElectrons: 3.000000  magneticMoment: [ Abs: 0.49465  Tot: -0.44000 ]
SCF: Cycle: 16   F: -7.066297817471557   dF: -1.789e-04   |Residual|: 5.228e-03   |deigs|: 1.764e-02  t[s]:     28.83
	FillingsUpdate:  mu: -0.111162837  nElectrons: 3.000000  magneticMoment: [ Abs: 0.48099  Tot: -0.44000 ]
SCF: Cycle: 17   F: -7.066444790015042   dF: -1.470e-04   |Residual|: 3.061e-03   |deigs|: 7.837e-03  t[s]:     30.33
	FillingsUpdate:  mu: -0.110802150  nElectrons: 3.000000  magneticMoment: [ Abs: 0.46924  Tot: -0.44000 ]
SCF: Cycle: 18   F: -7.066492486365211   dF: -4.770e-05   |Residual|: 2.073e-03   |deigs|: 5.529e-04  t[s]:     31.79
	FillingsUpdate:  mu: -0.111956169  nElectrons: 3.000000  magneticMoment: [ Abs: 0.45727  Tot: -0.44000 ]
SCF: Cycle: 19   F: -7.066510537421752   dF: -1.805e-05   |Residual|: 1.230e-03   |deigs|: 1.243e-03  t[s]:     33.26
	FillingsUpdate:  mu: -0.111426556  nElectrons: 3.000000  magneticMoment: [ Abs: 0.45372  Tot: -0.44000 ]
SCF: Cycle: 20   F: -7.066517748079675   dF: -7.211e-06   |Residual|: 7.834e-04   |deigs|: 5.957e-04  t[s]:     34.67
	FillingsUpdate:  mu: -0.110795491  nElectrons: 3.000000  magneticMoment: [ Abs: 0.45100  Tot: -0.44000 ]
SCF: Cycle: 21   F: -7.066522097655692   dF: -4.350e-06   |Residual|: 5.577e-04   |deigs|: 7.384e-04  t[s]:     36.11
	FillingsUpdate:  mu: -0.109982289  nElectrons: 3.000000  magneticMoment: [ Abs: 0.44905  Tot: -0.44000 ]
SCF: Cycle: 22   F: -7.066522567367756   dF: -4.697e-07   |Residual|: 3.747e-04   |deigs|: 8.582e-04  t[s]:     37.60
	FillingsUpdate:  mu: -0.109657807  nElectrons: 3.000000  magneticMoment: [ Abs: 0.44703  Tot: -0.44000 ]
SCF: Cycle: 23   F: -7.066523708522239   dF: -1.141e-06   |Residual|: 3.200e-04   |deigs|: 3.648e-04  t[s]:     39.06
	FillingsUpdate:  mu: -0.109275228  nElectrons: 3.000000  magneticMoment: [ Abs: 0.44394  Tot: -0.44000 ]
SCF: Cycle: 24   F: -7.066523158714711   dF: +5.498e-07   |Residual|: 2.414e-04   |deigs|: 4.426e-04  t[s]:     40.54
	FillingsUpdate:  mu: -0.109279909  nElectrons: 3.000000  magneticMoment: [ Abs: 0.44198  Tot: -0.44000 ]
SCF: Cycle: 25   F: -7.066523975469812   dF: -8.168e-07   |Residual|: 1.788e-04   |deigs|: 6.797e-05  t[s]:     41.97
	FillingsUpdate:  mu: -0.109506850  nElectrons: 3.000000  magneticMoment: [ Abs: 0.44112  Tot: -0.44000 ]
SCF: Cycle: 26   F: -7.066524535421892   dF: -5.600e-07   |Residual|: 1.357e-04   |deigs|: 2.488e-04  t[s]:     43.43
	FillingsUpdate:  mu: -0.109796527  nElectrons: 3.000000  magneticMoment: [ Abs: 0.44052  Tot: -0.44000 ]
SCF: Cycle: 27   F: -7.066524745430041   dF: -2.100e-07   |Residual|: 6.921e-05   |deigs|: 3.118e-04  t[s]:     44.87
	FillingsUpdate:  mu: -0.109908184  nElectrons: 3.000000  magneticMoment: [ Abs: 0.44011  Tot: -0.44000 ]
SCF: Cycle: 28   F: -7.066524784523072   dF: -3.909e-08   |Residual|: 4.187e-05   |deigs|: 1.304e-04  t[s]:     46.28
	FillingsUpdate:  mu: -0.109955151  nElectrons: 3.000000  magneticMoment: [ Abs: 0.44000  Tot: -0.44000 ]
SCF: Cycle: 29   F: -7.066524795701968   dF: -1.118e-08   |Residual|: 2.432e-05   |deigs|: 7.572e-05  t[s]:     47.81
	FillingsUpdate:  mu: -0.110005474  nElectrons: 3.000000  magneticMoment: [ Abs: 0.44001  Tot: -0.44000 ]
SCF: Cycle: 30   F: -7.066524802526295   dF: -6.824e-09   |Residual|: 2.026e-05   |deigs|: 7.648e-05  t[s]:     49.27
	FillingsUpdate:  mu: -0.110053214  nElectrons: 3.000000  magneticMoment: [ Abs: 0.44001  Tot: -0.44000 ]
SCF: Cycle: 31   F: -7.066524804609296   dF: -2.083e-09   |Residual|: 1.599e-05   |deigs|: 7.066e-05  t[s]:     50.75
SCF: Converged (|Delta E|<1.000000e-08 for 2 iters).


# Ionic positions in lattice coordinates:
ion Li   0.000000000000000   0.000000000000000   0.000000000000000 0

# Forces in Lattice coordinates:
force Li   0.000000000000000   0.000000000000000   0.000000000000000 0

# Energy components:
   Eewald =       -2.0053362333702967
       EH =        1.5320597273926089
     Eloc =       -6.1933827593771582
      Enl =       -3.5902905376508829
   Epulay =        0.0000032255226020
      Exc =       -1.5391799139228228
       KE =        4.7296025454923738
-------------------------------------
     Etot =       -7.0665239459135742
       TS =        0.0000008586957218
-------------------------------------
        F =       -7.0665248046092959

IonicMinimize: Iter:   0  F: -7.066524804609296  |grad|_K:  0.000e+00  t[s]:     50.82
IonicMinimize: Converged (|grad|_K<1.000000e-04).

#--- Lowdin population analysis ---
# oxidation-state Li +2.186
# magnetic-moments Li -0.305

End date and time: Sat Feb  5 22:53:36 2022  (Duration: 0-0:00:50.83)
Done!
scale=3
magnetization=-0.44
--------------------------------------------------------------------------
The library attempted to open the following supporting CUDA libraries,
but each of them failed.  CUDA-aware support is disabled.
libcuda.so.1: cannot open shared object file: No such file or directory
libcuda.dylib: cannot open shared object file: No such file or directory
/usr/lib64/libcuda.so.1: cannot open shared object file: No such file or directory
/usr/lib64/libcuda.dylib: cannot open shared object file: No such file or directory
If you are not interested in CUDA-aware support, then run with
--mca opal_warn_on_missing_libcuda 0 to suppress this message.  If you are interested
in CUDA-aware support, then try setting LD_LIBRARY_PATH to the location
of libcuda.so.1 to get passed this issue.
--------------------------------------------------------------------------
--------------------------------------------------------------------------
No OpenFabrics connection schemes reported that they were able to be
used on a specific port.  As such, the openib BTL (OpenFabrics
support) will be disabled for this port.

  Local host:           d-6-7-4
  Local device:         mlx5_1
  Local port:           1
  CPCs attempted:       rdmacm, udcm
--------------------------------------------------------------------------

*************** JDFTx 1.6.0 (git hash 42ebbcc2) ***************

Start date and time: Sat Feb  5 22:53:37 2022
Executable jdftx with command-line: -i Alkali.in
Running on hosts (process indices):  d-6-7-4 (0-18)
Divided in process groups (process indices):  0 (0)  1 (1)  2 (2)  3 (3)  4 (4)  5 (5)  6 (6)  7 (7)  8 (8)  9 (9)  10 (10)  11 (11)  12 (12)  13 (13)  14 (14)  15 (15)  16 (16)  17 (17)  18 (18)
Resource initialization completed at t[s]:      0.00
Run totals: 19 processes, 48 threads, 0 GPUs


Input parsed successfully to the following command list (including defaults):

basis kpoint-dependent
coords-type Lattice
core-overlap-check vector
coulomb-interaction Slab 001
davidson-band-ratio 1.1
dump End None
dump-name $INPUT.$VAR
elec-cutoff 20
elec-eigen-algo Davidson
elec-ex-corr gga-PBE
elec-initial-magnetization -0.440000 yes
elec-smearing Fermi 1e-05
electronic-minimize  \
	dirUpdateScheme      FletcherReeves \
	linminMethod         DirUpdateRecommended \
	nIterations          100 \
	history              15 \
	knormThreshold       0 \
	energyDiffThreshold  1e-08 \
	nEnergyDiff          2 \
	alphaTstart          1 \
	alphaTmin            1e-10 \
	updateTestStepSize   yes \
	alphaTreduceFactor   0.1 \
	alphaTincreaseFactor 3 \
	nAlphaAdjustMax      3 \
	wolfeEnergy          0.0001 \
	wolfeGradient        0.9 \
	fdTest               no
electronic-scf  \
	nIterations	10000 \
	energyDiffThreshold	1e-08 \
	residualThreshold	1e-07 \
	mixFraction	0.5 \
	qMetric	0.8 \
	history	10 \
	nEigSteps	2 \
	eigDiffThreshold	1e-08 \
	mixedVariable	Density \
	qKerker	0.8 \
	qKappa	-1 \
	verbose	no \
	mixFractionMag	1.5
exchange-regularization WignerSeitzTruncated
fluid None
fluid-ex-corr (null) lda-PZ
fluid-gummel-loop 10 1.000000e-05
fluid-minimize  \
	dirUpdateScheme      PolakRibiere \
	linminMethod         DirUpdateRecommended \
	nIterations          100 \
	history              15 \
	knormThreshold       0 \
	energyDiffThreshold  0 \
	nEnergyDiff          2 \
	alphaTstart          1 \
	alphaTmin            1e-10 \
	updateTestStepSize   yes \
	alphaTreduceFactor   0.1 \
	alphaTincreaseFactor 3 \
	nAlphaAdjustMax      3 \
	wolfeEnergy          0.0001 \
	wolfeGradient        0.9 \
	fdTest               no
fluid-solvent H2O 55.338 ScalarEOS \
	epsBulk 78.4 \
	pMol 0.92466 \
	epsInf 1.77 \
	Pvap 1.06736e-10 \
	sigmaBulk 4.62e-05 \
	Rvdw 2.61727 \
	Res 1.42 \
	tauNuc 343133 \
	poleEl 15 7 1
forces-output-coords Positions
ion Li   0.000000000000000   0.000000000000000   0.000000000000000 0
ion-species SG15/$ID_ONCV_PBE.upf
ion-width 0
ionic-minimize  \
	dirUpdateScheme      L-BFGS \
	linminMethod         DirUpdateRecommended \
	nIterations          0 \
	history              15 \
	knormThreshold       0.0001 \
	energyDiffThreshold  1e-06 \
	nEnergyDiff          2 \
	alphaTstart          1 \
	alphaTmin            1e-10 \
	updateTestStepSize   yes \
	alphaTreduceFactor   0.1 \
	alphaTincreaseFactor 3 \
	nAlphaAdjustMax      3 \
	wolfeEnergy          0.0001 \
	wolfeGradient        0.9 \
	fdTest               no
kpoint   0.000000000000   0.000000000000   0.000000000000  1.00000000000000
kpoint-folding 12 12 1 
latt-move-scale 1 1 1
latt-scale 3 3 1 
lattice  \
	   4.727486978767153   -2.363743489383575    0.000000000000000  \
	  -0.000000000000000    4.094123819672498    0.000000000000000  \
	   0.000000000000000    0.000000000000000   40.000000000000000 
lattice-minimize  \
	dirUpdateScheme      L-BFGS \
	linminMethod         DirUpdateRecommended \
	nIterations          0 \
	history              15 \
	knormThreshold       0 \
	energyDiffThreshold  1e-06 \
	nEnergyDiff          2 \
	alphaTstart          1 \
	alphaTmin            1e-10 \
	updateTestStepSize   yes \
	alphaTreduceFactor   0.1 \
	alphaTincreaseFactor 3 \
	nAlphaAdjustMax      3 \
	wolfeEnergy          0.0001 \
	wolfeGradient        0.9 \
	fdTest               no
lcao-params -1 1e-06 1e-05
pcm-variant GLSSA13
spintype z-spin
subspace-rotation-factor 1 yes
symmetries automatic
symmetry-threshold 0.0001



---------- Setting up symmetries ----------

Found 24 point-group symmetries of the bravais lattice
Found 24 space-group symmetries with basis
Applied RMS atom displacement 0 bohrs to make symmetries exact.

---------- Initializing the Grid ----------
R = 
[      14.1825     -7.09123            0  ]
[            0      12.2824            0  ]
[            0            0           40  ]
unit cell volume = 6967.77
G =
[   0.443025   0.255781         -0  ]
[          0   0.511561         -0  ]
[         -0         -0    0.15708  ]
Minimum fftbox size, Smin = [  60  60  164  ]
Chosen fftbox size, S = [  60  60  168  ]

---------- Exchange Correlation functional ----------
Initalized PBE GGA exchange.
Initalized PBE GGA correlation.

---------- Setting up pseudopotentials ----------
Width of ionic core gaussian charges (only for fluid interactions / plotting) set to 0

Reading pseudopotential file '/home/gridsan/aligho/DFT/build-Nov24/pseudopotentials/SG15/Li_ONCV_PBE.upf':
  'Li' pseudopotential, 'PBE' functional
  Generated using ONCVPSP code by D. R. Hamann
  Author: Martin Schlipf and Francois Gygi  Date: 150915.
  3 valence electrons, 2 orbitals, 4 projectors, 1328 radial grid points, with lMax = 1
  Transforming local potential to a uniform radial grid of dG=0.02 with 1489 points.
  Transforming nonlocal projectors to a uniform radial grid of dG=0.02 with 432 points.
    1S    l: 0   occupation:  2.0   eigenvalue: -1.905623
    2S    l: 0   occupation:  1.0   eigenvalue: -0.105624
  Transforming atomic orbitals to a uniform radial grid of dG=0.02 with 432 points.
  WARNING: large normalization error in atomic orbital 1s (integral: 0.000000).
  Core radius for overlap checks: 1.63 bohrs.
  Reading pulay file /home/gridsan/aligho/DFT/build-Nov24/pseudopotentials/SG15/Li_ONCV_PBE.pulay ... using dE_dnG = -1.230239e-02 computed for Ecut = 20.

Initialized 1 species with 1 total atoms.

Folded 1 k-points by 12x12x1 to 144 k-points.

---------- Setting up k-points, bands, fillings ----------
Reduced to 19 k-points under symmetry. 
Computing the number of bands and number of electrons
Calculating initial fillings.
nElectrons:   3.000000   nBands: 3   nStates: 38

----- Setting up reduced wavefunction bases (one per k-point) -----
average nbasis = 29766.104 , ideal nbasis = 29766.845

---------- Setting up coulomb interaction ----------
Initialized slab truncation along lattice direction 001

---------- Setting up 2D ewald sum ----------
Optimum gaussian width for ewald sums = 7.873530 bohr.
Real space sums over 289 unit cells with max indices [  8  8  0  ]
Reciprocal space sums over 81 terms with max indices [  4  4  0  ]

---------- Allocating electronic variables ----------
Initializing wave functions:  linear combination of atomic orbitals
Note: number of bands (3) exceeds available atomic orbitals (2)
Li pseudo-atom occupations:   s ( 2 1 )
[d-6-7-4:66193] 18 more processes have sent help message help-mpi-common-cuda.txt / dlopen failed
[d-6-7-4:66193] Set MCA parameter "orte_base_help_aggregate" to 0 to see all help / error messages
[d-6-7-4:66193] 18 more processes have sent help message help-mpi-btl-openib-cpc-base.txt / no cpcs for port
	FillingsUpdate:  mu: +0.353159863  nElectrons: 3.000000  magneticMoment: [ Abs: 0.44035  Tot: -0.44000 ]
LCAOMinimize: Iter:   0  F: -1.2867551102990886  |grad|_K:  4.891e-05  alpha:  1.000e+00
	FillingsUpdate:  mu: +0.353159332  nElectrons: 3.000000  magneticMoment: [ Abs: 0.44035  Tot: -0.44000 ]
LCAOMinimize: Iter:   1  F: -1.2867555427130357  |grad|_K:  4.919e-07  alpha:  1.057e+00  linmin: -1.077e-03  cgtest:  9.282e-03  t[s]:      7.28
	FillingsUpdate:  mu: +0.353159334  nElectrons: 3.000000  magneticMoment: [ Abs: 0.44035  Tot: -0.44000 ]
LCAOMinimize: Iter:   2  F: -1.2867555427509492  |grad|_K:  2.755e-08  alpha:  9.506e-01  linmin: -2.044e-02  cgtest:  9.557e-01  t[s]:      9.24
LCAOMinimize: Encountered beta<0, resetting CG.
LCAOMinimize: Converged (|Delta F|<1.000000e-06 for 2 iters).


---- Citations for features of the code used in this run ----

   Software package:
      R. Sundararaman, K. Letchworth-Weaver, K.A. Schwarz, D. Gunceler, Y. Ozhabes and T.A. Arias, 'JDFTx: software for joint density-functional theory', SoftwareX 6, 278 (2017)

   gga-PBE exchange-correlation functional:
      J.P. Perdew, K. Burke and M. Ernzerhof, Phys. Rev. Lett. 77, 3865 (1996)

   Pseudopotentials:
      M Schlipf and F Gygi, Comput. Phys. Commun. 196, 36 (2015)

   Truncated Coulomb potentials:
      R. Sundararaman and T.A. Arias, Phys. Rev. B 87, 165122 (2013)

This list may not be complete. Please suggest additional citations or
report any other bugs at https://github.com/shankar1729/jdftx/issues

Initialization completed successfully at t[s]:      9.33


-------- Electronic minimization -----------
Will mix electronic density at each iteration.
	FillingsUpdate:  mu: +0.353159334  nElectrons: 3.000000  magneticMoment: [ Abs: 0.44035  Tot: -0.44000 ]
	FillingsUpdate:  mu: -0.694277424  nElectrons: 3.000000  magneticMoment: [ Abs: 0.44035  Tot: -0.44000 ]
SCF: Cycle:  0   F: -6.875069198565391   dF: -5.588e+00   |Residual|: 1.225e+00   |deigs|: 4.156e+00  t[s]:     12.61
	FillingsUpdate:  mu: -0.571418456  nElectrons: 3.000000  magneticMoment: [ Abs: 0.69763  Tot: -0.44000 ]
SCF: Cycle:  1   F: -6.917603573678395   dF: -4.253e-02   |Residual|: 7.627e-01   |deigs|: 2.738e-01  t[s]:     15.28
	FillingsUpdate:  mu: -0.351628923  nElectrons: 3.000000  magneticMoment: [ Abs: 0.95893  Tot: -0.44000 ]
SCF: Cycle:  2   F: -7.038728015216641   dF: -1.211e-01   |Residual|: 3.293e-01   |deigs|: 7.098e-01  t[s]:     17.99
	FillingsUpdate:  mu: -0.364272773  nElectrons: 3.000000  magneticMoment: [ Abs: 0.89037  Tot: -0.44000 ]
SCF: Cycle:  3   F: -7.040336155386138   dF: -1.608e-03   |Residual|: 1.842e-01   |deigs|: 7.940e-02  t[s]:     20.74
	FillingsUpdate:  mu: -0.324267525  nElectrons: 3.000000  magneticMoment: [ Abs: 0.80867  Tot: -0.44000 ]
SCF: Cycle:  4   F: -7.041788203065726   dF: -1.452e-03   |Residual|: 4.952e-02   |deigs|: 3.137e-02  t[s]:     23.54
	FillingsUpdate:  mu: -0.307696054  nElectrons: 3.000000  magneticMoment: [ Abs: 0.74764  Tot: -0.44000 ]
SCF: Cycle:  5   F: -7.041189203361931   dF: +5.990e-04   |Residual|: 1.007e-01   |deigs|: 1.589e-02  t[s]:     26.41
	FillingsUpdate:  mu: -0.259329278  nElectrons: 3.000000  magneticMoment: [ Abs: 0.56896  Tot: -0.44000 ]
SCF: Cycle:  6   F: -7.045118623419731   dF: -3.929e-03   |Residual|: 3.595e-02   |deigs|: 9.665e-02  t[s]:     29.31
	FillingsUpdate:  mu: -0.244561218  nElectrons: 3.000000  magneticMoment: [ Abs: 0.54029  Tot: -0.44000 ]
SCF: Cycle:  7   F: -7.046031530505757   dF: -9.129e-04   |Residual|: 1.052e-01   |deigs|: 5.253e-02  t[s]:     32.32
	FillingsUpdate:  mu: -0.248956860  nElectrons: 3.000000  magneticMoment: [ Abs: 0.50660  Tot: -0.44000 ]
SCF: Cycle:  8   F: -7.045978501169585   dF: +5.303e-05   |Residual|: 7.610e-02   |deigs|: 1.774e-02  t[s]:     35.39
	FillingsUpdate:  mu: -0.218458328  nElectrons: 3.000000  magneticMoment: [ Abs: 0.52282  Tot: -0.44000 ]
SCF: Cycle:  9   F: -7.047023207863761   dF: -1.045e-03   |Residual|: 8.146e-02   |deigs|: 4.584e-02  t[s]:     38.49
	FillingsUpdate:  mu: -0.207096378  nElectrons: 3.000000  magneticMoment: [ Abs: 0.52007  Tot: -0.44000 ]
SCF: Cycle: 10   F: -7.047297231941188   dF: -2.740e-04   |Residual|: 5.311e-02   |deigs|: 1.269e-02  t[s]:     41.75
	FillingsUpdate:  mu: -0.176014885  nElectrons: 3.000000  magneticMoment: [ Abs: 0.58109  Tot: -0.44000 ]
SCF: Cycle: 11   F: -7.047954284257446   dF: -6.571e-04   |Residual|: 1.844e-02   |deigs|: 4.060e-02  t[s]:     44.96
	FillingsUpdate:  mu: -0.166515702  nElectrons: 3.000000  magneticMoment: [ Abs: 0.58194  Tot: -0.44000 ]
SCF: Cycle: 12   F: -7.048218914582932   dF: -2.646e-04   |Residual|: 1.077e-02   |deigs|: 8.014e-03  t[s]:     48.15
	FillingsUpdate:  mu: -0.145412487  nElectrons: 3.000000  magneticMoment: [ Abs: 0.57773  Tot: -0.44000 ]
SCF: Cycle: 13   F: -7.048178171244469   dF: +4.074e-05   |Residual|: 8.173e-03   |deigs|: 2.184e-02  t[s]:     51.34
	FillingsUpdate:  mu: -0.132361307  nElectrons: 3.000000  magneticMoment: [ Abs: 0.56258  Tot: -0.44000 ]
SCF: Cycle: 14   F: -7.048121881199346   dF: +5.629e-05   |Residual|: 7.197e-03   |deigs|: 1.498e-02  t[s]:     54.49
	FillingsUpdate:  mu: -0.120729075  nElectrons: 3.000000  magneticMoment: [ Abs: 0.53221  Tot: -0.44000 ]
SCF: Cycle: 15   F: -7.048131499781755   dF: -9.619e-06   |Residual|: 5.598e-03   |deigs|: 1.123e-02  t[s]:     57.72
	FillingsUpdate:  mu: -0.113565907  nElectrons: 3.000000  magneticMoment: [ Abs: 0.49968  Tot: -0.44000 ]
SCF: Cycle: 16   F: -7.048391631268236   dF: -2.601e-04   |Residual|: 4.341e-03   |deigs|: 7.264e-03  t[s]:     60.96
	FillingsUpdate:  mu: -0.108371787  nElectrons: 3.000000  magneticMoment: [ Abs: 0.47911  Tot: -0.44000 ]
SCF: Cycle: 17   F: -7.048554343752197   dF: -1.627e-04   |Residual|: 2.874e-03   |deigs|: 6.418e-03  t[s]:     64.18
	FillingsUpdate:  mu: -0.105965572  nElectrons: 3.000000  magneticMoment: [ Abs: 0.46862  Tot: -0.44000 ]
SCF: Cycle: 18   F: -7.048630193915639   dF: -7.585e-05   |Residual|: 1.919e-03   |deigs|: 2.951e-03  t[s]:     67.38
	FillingsUpdate:  mu: -0.104767257  nElectrons: 3.000000  magneticMoment: [ Abs: 0.46170  Tot: -0.44000 ]
SCF: Cycle: 19   F: -7.048670480364668   dF: -4.029e-05   |Residual|: 1.131e-03   |deigs|: 1.397e-03  t[s]:     70.60
	FillingsUpdate:  mu: -0.104920496  nElectrons: 3.000000  magneticMoment: [ Abs: 0.45744  Tot: -0.44000 ]
SCF: Cycle: 20   F: -7.048687228211018   dF: -1.675e-05   |Residual|: 7.016e-04   |deigs|: 4.281e-04  t[s]:     73.86
	FillingsUpdate:  mu: -0.104768927  nElectrons: 3.000000  magneticMoment: [ Abs: 0.45427  Tot: -0.44000 ]
SCF: Cycle: 21   F: -7.048695914763889   dF: -8.687e-06   |Residual|: 4.623e-04   |deigs|: 1.730e-04  t[s]:     77.02
	FillingsUpdate:  mu: -0.104796476  nElectrons: 3.000000  magneticMoment: [ Abs: 0.45196  Tot: -0.44000 ]
SCF: Cycle: 22   F: -7.048697772974281   dF: -1.858e-06   |Residual|: 3.564e-04   |deigs|: 1.228e-04  t[s]:     80.16
	FillingsUpdate:  mu: -0.104772593  nElectrons: 3.000000  magneticMoment: [ Abs: 0.44813  Tot: -0.44000 ]
SCF: Cycle: 23   F: -7.048698878279575   dF: -1.105e-06   |Residual|: 2.274e-04   |deigs|: 1.439e-04  t[s]:     83.42
	FillingsUpdate:  mu: -0.104875409  nElectrons: 3.000000  magneticMoment: [ Abs: 0.44568  Tot: -0.44000 ]
SCF: Cycle: 24   F: -7.048698968359692   dF: -9.008e-08   |Residual|: 2.039e-04   |deigs|: 1.413e-04  t[s]:     86.60
	FillingsUpdate:  mu: -0.105075398  nElectrons: 3.000000  magneticMoment: [ Abs: 0.44346  Tot: -0.44000 ]
SCF: Cycle: 25   F: -7.048699150008978   dF: -1.816e-07   |Residual|: 1.631e-04   |deigs|: 2.224e-04  t[s]:     89.76
	FillingsUpdate:  mu: -0.105233797  nElectrons: 3.000000  magneticMoment: [ Abs: 0.44152  Tot: -0.44000 ]
SCF: Cycle: 26   F: -7.048699512118159   dF: -3.621e-07   |Residual|: 1.044e-04   |deigs|: 1.832e-04  t[s]:     92.98
	FillingsUpdate:  mu: -0.105347931  nElectrons: 3.000000  magneticMoment: [ Abs: 0.44072  Tot: -0.44000 ]
SCF: Cycle: 27   F: -7.048699642683969   dF: -1.306e-07   |Residual|: 7.779e-05   |deigs|: 1.513e-04  t[s]:     96.16
	FillingsUpdate:  mu: -0.105415851  nElectrons: 3.000000  magneticMoment: [ Abs: 0.44017  Tot: -0.44000 ]
SCF: Cycle: 28   F: -7.048699725297979   dF: -8.261e-08   |Residual|: 5.322e-05   |deigs|: 1.113e-04  t[s]:     99.35
	FillingsUpdate:  mu: -0.105490490  nElectrons: 3.000000  magneticMoment: [ Abs: 0.44002  Tot: -0.44000 ]
SCF: Cycle: 29   F: -7.048699763585861   dF: -3.829e-08   |Residual|: 3.297e-05   |deigs|: 1.094e-04  t[s]:    102.63
	FillingsUpdate:  mu: -0.105537011  nElectrons: 3.000000  magneticMoment: [ Abs: 0.44005  Tot: -0.44000 ]
SCF: Cycle: 30   F: -7.048699787616624   dF: -2.403e-08   |Residual|: 2.497e-05   |deigs|: 7.440e-05  t[s]:    105.88
	FillingsUpdate:  mu: -0.105577276  nElectrons: 3.000000  magneticMoment: [ Abs: 0.44002  Tot: -0.44000 ]
SCF: Cycle: 31   F: -7.048699793077922   dF: -5.461e-09   |Residual|: 1.691e-05   |deigs|: 6.069e-05  t[s]:    109.02
	FillingsUpdate:  mu: -0.105596544  nElectrons: 3.000000  magneticMoment: [ Abs: 0.44003  Tot: -0.44000 ]
SCF: Cycle: 32   F: -7.048699809767562   dF: -1.669e-08   |Residual|: 1.012e-05   |deigs|: 3.868e-05  t[s]:    112.27
	FillingsUpdate:  mu: -0.105605724  nElectrons: 3.000000  magneticMoment: [ Abs: 0.44001  Tot: -0.44000 ]
SCF: Cycle: 33   F: -7.048699815747927   dF: -5.980e-09   |Residual|: 6.454e-06   |deigs|: 2.736e-05  t[s]:    115.48
	FillingsUpdate:  mu: -0.105611171  nElectrons: 3.000000  magneticMoment: [ Abs: 0.44000  Tot: -0.44000 ]
SCF: Cycle: 34   F: -7.048699819243662   dF: -3.496e-09   |Residual|: 4.196e-06   |deigs|: 2.034e-05  t[s]:    118.73
SCF: Converged (|Delta E|<1.000000e-08 for 2 iters).


# Ionic positions in lattice coordinates:
ion Li   0.000000000000000   0.000000000000000   0.000000000000000 0

# Forces in Lattice coordinates:
force Li  -0.000000000000000  -0.000000000000000   0.000000000000000 0

# Energy components:
   Eewald =       -1.3368908222468645
       EH =        2.2033224920352406
     Eloc =       -7.5438939345599909
      Enl =       -3.6018420457393669
   Epulay =       -0.0000013080581827
      Exc =       -1.5341490915438354
       KE =        4.7647557861183127
-------------------------------------
     Etot =       -7.0486989239946869
       TS =        0.0000008952489754
-------------------------------------
        F =       -7.0486998192436623

IonicMinimize: Iter:   0  F: -7.048699819243662  |grad|_K:  0.000e+00  t[s]:    118.87
IonicMinimize: Converged (|grad|_K<1.000000e-04).

#--- Lowdin population analysis ---
# oxidation-state Li +2.096
# magnetic-moments Li -0.406

End date and time: Sat Feb  5 22:55:36 2022  (Duration: 0-0:01:58.89)
Done!
scale=4
magnetization=-0.44
--------------------------------------------------------------------------
The library attempted to open the following supporting CUDA libraries,
but each of them failed.  CUDA-aware support is disabled.
libcuda.so.1: cannot open shared object file: No such file or directory
libcuda.dylib: cannot open shared object file: No such file or directory
/usr/lib64/libcuda.so.1: cannot open shared object file: No such file or directory
/usr/lib64/libcuda.dylib: cannot open shared object file: No such file or directory
If you are not interested in CUDA-aware support, then run with
--mca opal_warn_on_missing_libcuda 0 to suppress this message.  If you are interested
in CUDA-aware support, then try setting LD_LIBRARY_PATH to the location
of libcuda.so.1 to get passed this issue.
--------------------------------------------------------------------------
--------------------------------------------------------------------------
No OpenFabrics connection schemes reported that they were able to be
used on a specific port.  As such, the openib BTL (OpenFabrics
support) will be disabled for this port.

  Local host:           d-6-7-4
  Local device:         mlx5_1
  Local port:           1
  CPCs attempted:       rdmacm, udcm
--------------------------------------------------------------------------

*************** JDFTx 1.6.0 (git hash 42ebbcc2) ***************

Start date and time: Sat Feb  5 22:55:37 2022
Executable jdftx with command-line: -i Alkali.in
Running on hosts (process indices):  d-6-7-4 (0-18)
Divided in process groups (process indices):  0 (0)  1 (1)  2 (2)  3 (3)  4 (4)  5 (5)  6 (6)  7 (7)  8 (8)  9 (9)  10 (10)  11 (11)  12 (12)  13 (13)  14 (14)  15 (15)  16 (16)  17 (17)  18 (18)
Resource initialization completed at t[s]:      0.00
Run totals: 19 processes, 48 threads, 0 GPUs


Input parsed successfully to the following command list (including defaults):

basis kpoint-dependent
coords-type Lattice
core-overlap-check vector
coulomb-interaction Slab 001
davidson-band-ratio 1.1
dump End None
dump-name $INPUT.$VAR
elec-cutoff 20
elec-eigen-algo Davidson
elec-ex-corr gga-PBE
elec-initial-magnetization -0.440000 yes
elec-smearing Fermi 1e-05
electronic-minimize  \
	dirUpdateScheme      FletcherReeves \
	linminMethod         DirUpdateRecommended \
	nIterations          100 \
	history              15 \
	knormThreshold       0 \
	energyDiffThreshold  1e-08 \
	nEnergyDiff          2 \
	alphaTstart          1 \
	alphaTmin            1e-10 \
	updateTestStepSize   yes \
	alphaTreduceFactor   0.1 \
	alphaTincreaseFactor 3 \
	nAlphaAdjustMax      3 \
	wolfeEnergy          0.0001 \
	wolfeGradient        0.9 \
	fdTest               no
electronic-scf  \
	nIterations	10000 \
	energyDiffThreshold	1e-08 \
	residualThreshold	1e-07 \
	mixFraction	0.5 \
	qMetric	0.8 \
	history	10 \
	nEigSteps	2 \
	eigDiffThreshold	1e-08 \
	mixedVariable	Density \
	qKerker	0.8 \
	qKappa	-1 \
	verbose	no \
	mixFractionMag	1.5
exchange-regularization WignerSeitzTruncated
fluid None
fluid-ex-corr (null) lda-PZ
fluid-gummel-loop 10 1.000000e-05
fluid-minimize  \
	dirUpdateScheme      PolakRibiere \
	linminMethod         DirUpdateRecommended \
	nIterations          100 \
	history              15 \
	knormThreshold       0 \
	energyDiffThreshold  0 \
	nEnergyDiff          2 \
	alphaTstart          1 \
	alphaTmin            1e-10 \
	updateTestStepSize   yes \
	alphaTreduceFactor   0.1 \
	alphaTincreaseFactor 3 \
	nAlphaAdjustMax      3 \
	wolfeEnergy          0.0001 \
	wolfeGradient        0.9 \
	fdTest               no
fluid-solvent H2O 55.338 ScalarEOS \
	epsBulk 78.4 \
	pMol 0.92466 \
	epsInf 1.77 \
	Pvap 1.06736e-10 \
	sigmaBulk 4.62e-05 \
	Rvdw 2.61727 \
	Res 1.42 \
	tauNuc 343133 \
	poleEl 15 7 1
forces-output-coords Positions
ion Li   0.000000000000000   0.000000000000000   0.000000000000000 0
ion-species SG15/$ID_ONCV_PBE.upf
ion-width 0
ionic-minimize  \
	dirUpdateScheme      L-BFGS \
	linminMethod         DirUpdateRecommended \
	nIterations          0 \
	history              15 \
	knormThreshold       0.0001 \
	energyDiffThreshold  1e-06 \
	nEnergyDiff          2 \
	alphaTstart          1 \
	alphaTmin            1e-10 \
	updateTestStepSize   yes \
	alphaTreduceFactor   0.1 \
	alphaTincreaseFactor 3 \
	nAlphaAdjustMax      3 \
	wolfeEnergy          0.0001 \
	wolfeGradient        0.9 \
	fdTest               no
kpoint   0.000000000000   0.000000000000   0.000000000000  1.00000000000000
kpoint-folding 12 12 1 
latt-move-scale 1 1 1
latt-scale 4 4 1 
lattice  \
	   4.727486978767153   -2.363743489383575    0.000000000000000  \
	  -0.000000000000000    4.094123819672498    0.000000000000000  \
	   0.000000000000000    0.000000000000000   40.000000000000000 
lattice-minimize  \
	dirUpdateScheme      L-BFGS \
	linminMethod         DirUpdateRecommended \
	nIterations          0 \
	history              15 \
	knormThreshold       0 \
	energyDiffThreshold  1e-06 \
	nEnergyDiff          2 \
	alphaTstart          1 \
	alphaTmin            1e-10 \
	updateTestStepSize   yes \
	alphaTreduceFactor   0.1 \
	alphaTincreaseFactor 3 \
	nAlphaAdjustMax      3 \
	wolfeEnergy          0.0001 \
	wolfeGradient        0.9 \
	fdTest               no
lcao-params -1 1e-06 1e-05
pcm-variant GLSSA13
spintype z-spin
subspace-rotation-factor 1 yes
symmetries automatic
symmetry-threshold 0.0001



---------- Setting up symmetries ----------

Found 24 point-group symmetries of the bravais lattice
Found 24 space-group symmetries with basis
Applied RMS atom displacement 0 bohrs to make symmetries exact.

---------- Initializing the Grid ----------
R = 
[      18.9099     -9.45497            0  ]
[            0      16.3765            0  ]
[            0            0           40  ]
unit cell volume = 12387.1
G =
[   0.332269   0.191835         -0  ]
[          0   0.383671         -0  ]
[         -0         -0    0.15708  ]
Minimum fftbox size, Smin = [  80  80  164  ]
Chosen fftbox size, S = [  80  80  168  ]

---------- Exchange Correlation functional ----------
Initalized PBE GGA exchange.
Initalized PBE GGA correlation.

---------- Setting up pseudopotentials ----------
Width of ionic core gaussian charges (only for fluid interactions / plotting) set to 0

Reading pseudopotential file '/home/gridsan/aligho/DFT/build-Nov24/pseudopotentials/SG15/Li_ONCV_PBE.upf':
  'Li' pseudopotential, 'PBE' functional
  Generated using ONCVPSP code by D. R. Hamann
  Author: Martin Schlipf and Francois Gygi  Date: 150915.
  3 valence electrons, 2 orbitals, 4 projectors, 1328 radial grid points, with lMax = 1
  Transforming local potential to a uniform radial grid of dG=0.02 with 1489 points.
  Transforming nonlocal projectors to a uniform radial grid of dG=0.02 with 432 points.
    1S    l: 0   occupation:  2.0   eigenvalue: -1.905623
    2S    l: 0   occupation:  1.0   eigenvalue: -0.105624
  Transforming atomic orbitals to a uniform radial grid of dG=0.02 with 432 points.
  WARNING: large normalization error in atomic orbital 1s (integral: 0.000000).
  Core radius for overlap checks: 1.63 bohrs.
  Reading pulay file /home/gridsan/aligho/DFT/build-Nov24/pseudopotentials/SG15/Li_ONCV_PBE.pulay ... using dE_dnG = -1.230239e-02 computed for Ecut = 20.

Initialized 1 species with 1 total atoms.

Folded 1 k-points by 12x12x1 to 144 k-points.

---------- Setting up k-points, bands, fillings ----------
Reduced to 19 k-points under symmetry. 
Computing the number of bands and number of electrons
Calculating initial fillings.
nElectrons:   3.000000   nBands: 3   nStates: 38

----- Setting up reduced wavefunction bases (one per k-point) -----
average nbasis = 52924.021 , ideal nbasis = 52918.836

---------- Setting up coulomb interaction ----------
Initialized slab truncation along lattice direction 001

---------- Setting up 2D ewald sum ----------
Optimum gaussian width for ewald sums = 10.498040 bohr.
Real space sums over 289 unit cells with max indices [  8  8  0  ]
Reciprocal space sums over 81 terms with max indices [  4  4  0  ]

---------- Allocating electronic variables ----------
Initializing wave functions:  linear combination of atomic orbitals
Note: number of bands (3) exceeds available atomic orbitals (2)
Li pseudo-atom occupations:   s ( 2 1 )
[d-6-7-4:57872] 18 more processes have sent help message help-mpi-common-cuda.txt / dlopen failed
[d-6-7-4:57872] Set MCA parameter "orte_base_help_aggregate" to 0 to see all help / error messages
[d-6-7-4:57872] 18 more processes have sent help message help-mpi-btl-openib-cpc-base.txt / no cpcs for port
	FillingsUpdate:  mu: +0.368617103  nElectrons: 3.000000  magneticMoment: [ Abs: 0.44000  Tot: -0.44000 ]
LCAOMinimize: Iter:   0  F: -1.3108813959459200  |grad|_K:  4.064e-05  alpha:  1.000e+00
LCAOMinimize: 	Wrong curvature in test step, increasing alphaT to 3.000000e+00.
	FillingsUpdate:  mu: +0.368801417  nElectrons: 3.000000  magneticMoment: [ Abs: 0.44000  Tot: -0.44000 ]
LCAOMinimize: Iter:   1  F: -1.3109232536335904  |grad|_K:  2.576e-06  alpha: -6.840e-03  linmin: -5.982e-01  cgtest:  9.881e-01  t[s]:     12.48
LCAOMinimize: Encountered beta<0, resetting CG.
LCAOMinimize: 	Wrong curvature in test step, increasing alphaT to 3.000000e+00.
	FillingsUpdate:  mu: +0.368755482  nElectrons: 3.000000  magneticMoment: [ Abs: 0.44000  Tot: -0.44000 ]
LCAOMinimize: Iter:   2  F: -1.3109252581143207  |grad|_K:  1.667e-07  alpha: -5.667e-04  linmin: -4.610e-02  cgtest:  9.678e-01  t[s]:     15.67
LCAOMinimize: Encountered beta<0, resetting CG.
	FillingsUpdate:  mu: +0.368755480  nElectrons: 3.000000  magneticMoment: [ Abs: 0.44000  Tot: -0.44000 ]
LCAOMinimize: Iter:   3  F: -1.3109252581196706  |grad|_K:  3.241e-08  alpha:  8.487e-01  linmin: -3.631e-02  cgtest:  9.975e-01  t[s]:     18.80
LCAOMinimize: Encountered beta<0, resetting CG.
LCAOMinimize: 	Step increased F by 6.661338e-15, reducing alpha to 2.530450e-02.
	FillingsUpdate:  mu: +0.368755480  nElectrons: 3.000000  magneticMoment: [ Abs: 0.44000  Tot: -0.44000 ]
LCAOMinimize: Iter:   4  F: -1.3109252581197106  |grad|_K:  3.163e-08  alpha:  2.530e-02  linmin: -4.673e-02  cgtest:  1.000e+00  t[s]:     23.72
LCAOMinimize: Encountered beta<0, resetting CG.
LCAOMinimize: Converged (|Delta F|<1.000000e-06 for 2 iters).


---- Citations for features of the code used in this run ----

   Software package:
      R. Sundararaman, K. Letchworth-Weaver, K.A. Schwarz, D. Gunceler, Y. Ozhabes and T.A. Arias, 'JDFTx: software for joint density-functional theory', SoftwareX 6, 278 (2017)

   gga-PBE exchange-correlation functional:
      J.P. Perdew, K. Burke and M. Ernzerhof, Phys. Rev. Lett. 77, 3865 (1996)

   Pseudopotentials:
      M Schlipf and F Gygi, Comput. Phys. Commun. 196, 36 (2015)

   Truncated Coulomb potentials:
      R. Sundararaman and T.A. Arias, Phys. Rev. B 87, 165122 (2013)

This list may not be complete. Please suggest additional citations or
report any other bugs at https://github.com/shankar1729/jdftx/issues

Initialization completed successfully at t[s]:     23.85


-------- Electronic minimization -----------
Will mix electronic density at each iteration.
	FillingsUpdate:  mu: +0.368755480  nElectrons: 3.000000  magneticMoment: [ Abs: 0.44000  Tot: -0.44000 ]
	FillingsUpdate:  mu: -0.615615633  nElectrons: 3.000000  magneticMoment: [ Abs: 0.44000  Tot: -0.44000 ]
SCF: Cycle:  0   F: -6.872499124263173   dF: -5.562e+00   |Residual|: 1.229e+00   |deigs|: 4.155e+00  t[s]:     29.34
	FillingsUpdate:  mu: -0.489885151  nElectrons: 3.000000  magneticMoment: [ Abs: 0.76205  Tot: -0.44000 ]
SCF: Cycle:  1   F: -6.916758486421126   dF: -4.426e-02   |Residual|: 7.617e-01   |deigs|: 2.766e-01  t[s]:     33.71
	FillingsUpdate:  mu: -0.265256552  nElectrons: 3.000000  magneticMoment: [ Abs: 0.98125  Tot: -0.44000 ]
SCF: Cycle:  2   F: -7.036802827924212   dF: -1.200e-01   |Residual|: 3.208e-01   |deigs|: 7.059e-01  t[s]:     38.26
	FillingsUpdate:  mu: -0.275400325  nElectrons: 3.000000  magneticMoment: [ Abs: 0.90314  Tot: -0.44000 ]
SCF: Cycle:  3   F: -7.037168038309216   dF: -3.652e-04   |Residual|: 1.860e-01   |deigs|: 7.286e-02  t[s]:     42.92
	FillingsUpdate:  mu: -0.232335666  nElectrons: 3.000000  magneticMoment: [ Abs: 0.81204  Tot: -0.44000 ]
SCF: Cycle:  4   F: -7.037976591847816   dF: -8.086e-04   |Residual|: 5.864e-02   |deigs|: 3.562e-02  t[s]:     47.65
	FillingsUpdate:  mu: -0.220620810  nElectrons: 3.000000  magneticMoment: [ Abs: 0.81062  Tot: -0.44000 ]
SCF: Cycle:  5   F: -7.038987352575645   dF: -1.011e-03   |Residual|: 1.074e-01   |deigs|: 1.225e-02  t[s]:     52.46
	FillingsUpdate:  mu: -0.195324889  nElectrons: 3.000000  magneticMoment: [ Abs: 0.66211  Tot: -0.44000 ]
SCF: Cycle:  6   F: -7.042581071568545   dF: -3.594e-03   |Residual|: 2.209e-02   |deigs|: 6.964e-02  t[s]:     57.38
	FillingsUpdate:  mu: -0.182181187  nElectrons: 3.000000  magneticMoment: [ Abs: 0.55261  Tot: -0.44000 ]
SCF: Cycle:  7   F: -7.044077688232460   dF: -1.497e-03   |Residual|: 9.557e-02   |deigs|: 4.580e-02  t[s]:     62.53
	FillingsUpdate:  mu: -0.185677276  nElectrons: 3.000000  magneticMoment: [ Abs: 0.51901  Tot: -0.44000 ]
SCF: Cycle:  8   F: -7.044381513960094   dF: -3.038e-04   |Residual|: 5.157e-02   |deigs|: 1.770e-02  t[s]:     67.71
	FillingsUpdate:  mu: -0.186138730  nElectrons: 3.000000  magneticMoment: [ Abs: 0.50490  Tot: -0.44000 ]
SCF: Cycle:  9   F: -7.045026153923587   dF: -6.446e-04   |Residual|: 9.207e-02   |deigs|: 5.332e-02  t[s]:     72.97
	FillingsUpdate:  mu: -0.165758136  nElectrons: 3.000000  magneticMoment: [ Abs: 0.47964  Tot: -0.44000 ]
SCF: Cycle: 10   F: -7.045828816361824   dF: -8.027e-04   |Residual|: 1.391e-02   |deigs|: 4.618e-02  t[s]:     78.33
	FillingsUpdate:  mu: -0.151977683  nElectrons: 3.000000  magneticMoment: [ Abs: 0.53536  Tot: -0.44000 ]
SCF: Cycle: 11   F: -7.045919841339131   dF: -9.102e-05   |Residual|: 4.063e-02   |deigs|: 2.112e-02  t[s]:     83.76
	FillingsUpdate:  mu: -0.149381729  nElectrons: 3.000000  magneticMoment: [ Abs: 0.51376  Tot: -0.44000 ]
SCF: Cycle: 12   F: -7.046054483611103   dF: -1.346e-04   |Residual|: 1.137e-02   |deigs|: 1.445e-02  t[s]:     89.21
	FillingsUpdate:  mu: -0.128768058  nElectrons: 3.000000  magneticMoment: [ Abs: 0.57179  Tot: -0.44000 ]
SCF: Cycle: 13   F: -7.046229067422129   dF: -1.746e-04   |Residual|: 6.852e-03   |deigs|: 2.268e-02  t[s]:     94.68
	FillingsUpdate:  mu: -0.122436696  nElectrons: 3.000000  magneticMoment: [ Abs: 0.56994  Tot: -0.44000 ]
SCF: Cycle: 14   F: -7.046255747566626   dF: -2.668e-05   |Residual|: 5.779e-03   |deigs|: 7.500e-03  t[s]:    100.02
	FillingsUpdate:  mu: -0.114949316  nElectrons: 3.000000  magneticMoment: [ Abs: 0.54365  Tot: -0.44000 ]
SCF: Cycle: 15   F: -7.046241416737254   dF: +1.433e-05   |Residual|: 4.086e-03   |deigs|: 6.720e-03  t[s]:    105.46
	FillingsUpdate:  mu: -0.111195382  nElectrons: 3.000000  magneticMoment: [ Abs: 0.53155  Tot: -0.44000 ]
SCF: Cycle: 16   F: -7.046272130088384   dF: -3.071e-05   |Residual|: 3.246e-03   |deigs|: 4.000e-03  t[s]:    110.81
	FillingsUpdate:  mu: -0.108754177  nElectrons: 3.000000  magneticMoment: [ Abs: 0.50198  Tot: -0.44000 ]
SCF: Cycle: 17   F: -7.046257534532122   dF: +1.460e-05   |Residual|: 2.396e-03   |deigs|: 2.146e-03  t[s]:    116.23
	FillingsUpdate:  mu: -0.106941764  nElectrons: 3.000000  magneticMoment: [ Abs: 0.48810  Tot: -0.44000 ]
SCF: Cycle: 18   F: -7.046282498773679   dF: -2.496e-05   |Residual|: 1.817e-03   |deigs|: 2.014e-03  t[s]:    121.51
	FillingsUpdate:  mu: -0.105597955  nElectrons: 3.000000  magneticMoment: [ Abs: 0.47452  Tot: -0.44000 ]
SCF: Cycle: 19   F: -7.046314515500318   dF: -3.202e-05   |Residual|: 1.303e-03   |deigs|: 1.852e-03  t[s]:    126.88
	FillingsUpdate:  mu: -0.104127548  nElectrons: 3.000000  magneticMoment: [ Abs: 0.46713  Tot: -0.44000 ]
SCF: Cycle: 20   F: -7.046343883521627   dF: -2.937e-05   |Residual|: 8.879e-04   |deigs|: 1.926e-03  t[s]:    132.20
	FillingsUpdate:  mu: -0.103419624  nElectrons: 3.000000  magneticMoment: [ Abs: 0.46182  Tot: -0.44000 ]
SCF: Cycle: 21   F: -7.046353975493094   dF: -1.009e-05   |Residual|: 6.953e-04   |deigs|: 8.275e-04  t[s]:    137.57
	FillingsUpdate:  mu: -0.103269049  nElectrons: 3.000000  magneticMoment: [ Abs: 0.45616  Tot: -0.44000 ]
SCF: Cycle: 22   F: -7.046360049375878   dF: -6.074e-06   |Residual|: 5.153e-04   |deigs|: 2.246e-04  t[s]:    142.92
	FillingsUpdate:  mu: -0.103425306  nElectrons: 3.000000  magneticMoment: [ Abs: 0.45061  Tot: -0.44000 ]
SCF: Cycle: 23   F: -7.046370452190092   dF: -1.040e-05   |Residual|: 3.561e-04   |deigs|: 4.359e-04  t[s]:    148.28
	FillingsUpdate:  mu: -0.103647124  nElectrons: 3.000000  magneticMoment: [ Abs: 0.44640  Tot: -0.44000 ]
SCF: Cycle: 24   F: -7.046372751216488   dF: -2.299e-06   |Residual|: 2.553e-04   |deigs|: 3.052e-04  t[s]:    153.59
	FillingsUpdate:  mu: -0.103933962  nElectrons: 3.000000  magneticMoment: [ Abs: 0.44339  Tot: -0.44000 ]
SCF: Cycle: 25   F: -7.046373622637407   dF: -8.714e-07   |Residual|: 1.264e-04   |deigs|: 3.398e-04  t[s]:    158.93
	FillingsUpdate:  mu: -0.103988879  nElectrons: 3.000000  magneticMoment: [ Abs: 0.44241  Tot: -0.44000 ]
SCF: Cycle: 26   F: -7.046373879653010   dF: -2.570e-07   |Residual|: 8.496e-05   |deigs|: 1.204e-04  t[s]:    164.34
	FillingsUpdate:  mu: -0.104058873  nElectrons: 3.000000  magneticMoment: [ Abs: 0.44118  Tot: -0.44000 ]
SCF: Cycle: 27   F: -7.046373939707225   dF: -6.005e-08   |Residual|: 5.863e-05   |deigs|: 1.036e-04  t[s]:    169.73
	FillingsUpdate:  mu: -0.104081322  nElectrons: 3.000000  magneticMoment: [ Abs: 0.44067  Tot: -0.44000 ]
SCF: Cycle: 28   F: -7.046373988149651   dF: -4.844e-08   |Residual|: 4.444e-05   |deigs|: 6.209e-05  t[s]:    175.15
	FillingsUpdate:  mu: -0.104100484  nElectrons: 3.000000  magneticMoment: [ Abs: 0.44038  Tot: -0.44000 ]
SCF: Cycle: 29   F: -7.046374054939803   dF: -6.679e-08   |Residual|: 3.405e-05   |deigs|: 5.276e-05  t[s]:    180.48
	FillingsUpdate:  mu: -0.104117036  nElectrons: 3.000000  magneticMoment: [ Abs: 0.44018  Tot: -0.44000 ]
SCF: Cycle: 30   F: -7.046374065402317   dF: -1.046e-08   |Residual|: 2.651e-05   |deigs|: 4.861e-05  t[s]:    185.89
	FillingsUpdate:  mu: -0.104126593  nElectrons: 3.000000  magneticMoment: [ Abs: 0.44008  Tot: -0.44000 ]
SCF: Cycle: 31   F: -7.046374079086375   dF: -1.368e-08   |Residual|: 1.877e-05   |deigs|: 4.073e-05  t[s]:    191.23
	FillingsUpdate:  mu: -0.104131588  nElectrons: 3.000000  magneticMoment: [ Abs: 0.44005  Tot: -0.44000 ]
SCF: Cycle: 32   F: -7.046374094761639   dF: -1.568e-08   |Residual|: 1.533e-05   |deigs|: 3.671e-05  t[s]:    196.68
	FillingsUpdate:  mu: -0.104135374  nElectrons: 3.000000  magneticMoment: [ Abs: 0.44003  Tot: -0.44000 ]
SCF: Cycle: 33   F: -7.046374082735268   dF: +1.203e-08   |Residual|: 1.163e-05   |deigs|: 3.221e-05  t[s]:    202.06
	FillingsUpdate:  mu: -0.104138368  nElectrons: 3.000000  magneticMoment: [ Abs: 0.44003  Tot: -0.44000 ]
SCF: Cycle: 34   F: -7.046374101929380   dF: -1.919e-08   |Residual|: 8.811e-06   |deigs|: 2.927e-05  t[s]:    207.42
	FillingsUpdate:  mu: -0.104142560  nElectrons: 3.000000  magneticMoment: [ Abs: 0.44001  Tot: -0.44000 ]
SCF: Cycle: 35   F: -7.046374090147847   dF: +1.178e-08   |Residual|: 6.927e-06   |deigs|: 2.621e-05  t[s]:    212.83
	FillingsUpdate:  mu: -0.104144527  nElectrons: 3.000000  magneticMoment: [ Abs: 0.44000  Tot: -0.44000 ]
SCF: Cycle: 36   F: -7.046374101077162   dF: -1.093e-08   |Residual|: 5.536e-06   |deigs|: 2.311e-05  t[s]:    218.23
	FillingsUpdate:  mu: -0.104146916  nElectrons: 3.000000  magneticMoment: [ Abs: 0.44000  Tot: -0.44000 ]
SCF: Cycle: 37   F: -7.046374096645380   dF: +4.432e-09   |Residual|: 4.497e-06   |deigs|: 2.090e-05  t[s]:    223.61
	FillingsUpdate:  mu: -0.104148538  nElectrons: 3.000000  magneticMoment: [ Abs: 0.44001  Tot: -0.44000 ]
SCF: Cycle: 38   F: -7.046374112112499   dF: -1.547e-08   |Residual|: 3.306e-06   |deigs|: 1.813e-05  t[s]:    229.01
	FillingsUpdate:  mu: -0.104150282  nElectrons: 3.000000  magneticMoment: [ Abs: 0.44001  Tot: -0.44000 ]
SCF: Cycle: 39   F: -7.046374109591102   dF: +2.521e-09   |Residual|: 2.679e-06   |deigs|: 1.624e-05  t[s]:    234.44
	FillingsUpdate:  mu: -0.104151638  nElectrons: 3.000000  magneticMoment: [ Abs: 0.44000  Tot: -0.44000 ]
SCF: Cycle: 40   F: -7.046374112972644   dF: -3.382e-09   |Residual|: 2.228e-06   |deigs|: 1.464e-05  t[s]:    239.76
	FillingsUpdate:  mu: -0.104152790  nElectrons: 3.000000  magneticMoment: [ Abs: 0.44000  Tot: -0.44000 ]
SCF: Cycle: 41   F: -7.046374112860584   dF: +1.121e-10   |Residual|: 1.849e-06   |deigs|: 1.332e-05  t[s]:    245.12
	FillingsUpdate:  mu: -0.104154009  nElectrons: 3.000000  magneticMoment: [ Abs: 0.44000  Tot: -0.44000 ]
SCF: Cycle: 42   F: -7.046374114529974   dF: -1.669e-09   |Residual|: 1.482e-06   |deigs|: 1.240e-05  t[s]:    250.49
	FillingsUpdate:  mu: -0.104154725  nElectrons: 3.000000  magneticMoment: [ Abs: 0.44000  Tot: -0.44000 ]
SCF: Cycle: 43   F: -7.046374114328552   dF: +2.014e-10   |Residual|: 1.311e-06   |deigs|: 1.124e-05  t[s]:    255.84
	FillingsUpdate:  mu: -0.104155273  nElectrons: 3.000000  magneticMoment: [ Abs: 0.44001  Tot: -0.44000 ]
SCF: Cycle: 44   F: -7.046374114964569   dF: -6.360e-10   |Residual|: 1.011e-06   |deigs|: 1.039e-05  t[s]:    261.26
	FillingsUpdate:  mu: -0.104155681  nElectrons: 3.000000  magneticMoment: [ Abs: 0.44001  Tot: -0.44000 ]
SCF: Cycle: 45   F: -7.046374114832012   dF: +1.326e-10   |Residual|: 8.360e-07   |deigs|: 9.606e-06  t[s]:    266.68
	FillingsUpdate:  mu: -0.104156024  nElectrons: 3.000000  magneticMoment: [ Abs: 0.44000  Tot: -0.44000 ]
SCF: Cycle: 46   F: -7.046374114954716   dF: -1.227e-10   |Residual|: 7.120e-07   |deigs|: 8.888e-06  t[s]:    272.07
	FillingsUpdate:  mu: -0.104156291  nElectrons: 3.000000  magneticMoment: [ Abs: 0.44000  Tot: -0.44000 ]
SCF: Cycle: 47   F: -7.046374114923741   dF: +3.098e-11   |Residual|: 6.366e-07   |deigs|: 8.100e-06  t[s]:    277.44
	FillingsUpdate:  mu: -0.104156699  nElectrons: 3.000000  magneticMoment: [ Abs: 0.44001  Tot: -0.44000 ]
SCF: Cycle: 48   F: -7.046374114774188   dF: +1.496e-10   |Residual|: 5.707e-07   |deigs|: 7.433e-06  t[s]:    282.92
	FillingsUpdate:  mu: -0.104157016  nElectrons: 3.000000  magneticMoment: [ Abs: 0.44001  Tot: -0.44000 ]
SCF: Cycle: 49   F: -7.046374115143355   dF: -3.692e-10   |Residual|: 4.653e-07   |deigs|: 6.700e-06  t[s]:    288.32
	FillingsUpdate:  mu: -0.104157227  nElectrons: 3.000000  magneticMoment: [ Abs: 0.44001  Tot: -0.44000 ]
SCF: Cycle: 50   F: -7.046374115125047   dF: +1.831e-11   |Residual|: 3.649e-07   |deigs|: 6.006e-06  t[s]:    293.73
	FillingsUpdate:  mu: -0.104157394  nElectrons: 3.000000  magneticMoment: [ Abs: 0.44001  Tot: -0.44000 ]
SCF: Cycle: 51   F: -7.046374115166159   dF: -4.111e-11   |Residual|: 2.743e-07   |deigs|: 5.357e-06  t[s]:    299.15
	FillingsUpdate:  mu: -0.104157465  nElectrons: 3.000000  magneticMoment: [ Abs: 0.44001  Tot: -0.44000 ]
SCF: Cycle: 52   F: -7.046374115172737   dF: -6.578e-12   |Residual|: 2.131e-07   |deigs|: 4.736e-06  t[s]:    304.54
SCF: Converged (|Delta E|<1.000000e-08 for 2 iters).


# Ionic positions in lattice coordinates:
ion Li   0.000000000000000   0.000000000000000   0.000000000000000 0

# Forces in Lattice coordinates:
force Li   0.000000000000000   0.000000000000000   0.000000000000000 0

# Energy components:
   Eewald =       -1.0026681166851483
       EH =        2.5500875384814026
     Eloc =       -8.2287829877210736
      Enl =       -3.6039014789363497
   Epulay =        0.0000051497655618
      Exc =       -1.5369838679829404
       KE =        4.7758714996743867
-------------------------------------
     Etot =       -7.0463722634041615
       TS =        0.0000018517685760
-------------------------------------
        F =       -7.0463741151727373

IonicMinimize: Iter:   0  F: -7.046374115172737  |grad|_K:  0.000e+00  t[s]:    304.78
IonicMinimize: Converged (|grad|_K<1.000000e-04).

#--- Lowdin population analysis ---
# oxidation-state Li +2.077
# magnetic-moments Li -0.407

End date and time: Sat Feb  5 23:00:42 2022  (Duration: 0-0:05:04.81)
Done!
