The alkali metal is Li
scale=2
magnetization=1.0
--------------------------------------------------------------------------
The library attempted to open the following supporting CUDA libraries,
but each of them failed.  CUDA-aware support is disabled.
libcuda.so.1: cannot open shared object file: No such file or directory
libcuda.dylib: cannot open shared object file: No such file or directory
/usr/lib64/libcuda.so.1: cannot open shared object file: No such file or directory
/usr/lib64/libcuda.dylib: cannot open shared object file: No such file or directory
If you are not interested in CUDA-aware support, then run with
--mca opal_warn_on_missing_libcuda 0 to suppress this message.  If you are interested
in CUDA-aware support, then try setting LD_LIBRARY_PATH to the location
of libcuda.so.1 to get passed this issue.
--------------------------------------------------------------------------
--------------------------------------------------------------------------
No OpenFabrics connection schemes reported that they were able to be
used on a specific port.  As such, the openib BTL (OpenFabrics
support) will be disabled for this port.

  Local host:           d-3-7-3
  Local device:         mlx5_1
  Local port:           1
  CPCs attempted:       rdmacm, udcm
--------------------------------------------------------------------------

*************** JDFTx 1.6.0 (git hash 42ebbcc2) ***************

Start date and time: Sat Feb  5 23:13:32 2022
Executable jdftx with command-line: -i Alkali.in
Running on hosts (process indices):  d-3-7-3 (0-18)
Divided in process groups (process indices):  0 (0)  1 (1)  2 (2)  3 (3)  4 (4)  5 (5)  6 (6)  7 (7)  8 (8)  9 (9)  10 (10)  11 (11)  12 (12)  13 (13)  14 (14)  15 (15)  16 (16)  17 (17)  18 (18)
Resource initialization completed at t[s]:      0.00
Run totals: 19 processes, 48 threads, 0 GPUs


Input parsed successfully to the following command list (including defaults):

basis kpoint-dependent
coords-type Lattice
core-overlap-check vector
coulomb-interaction Slab 001
davidson-band-ratio 1.1
dump End None
dump-name $INPUT.$VAR
elec-cutoff 20
elec-eigen-algo Davidson
elec-ex-corr gga-PBE
elec-initial-magnetization 1.000000 yes
elec-smearing Fermi 1e-05
electronic-minimize  \
	dirUpdateScheme      FletcherReeves \
	linminMethod         DirUpdateRecommended \
	nIterations          100 \
	history              15 \
	knormThreshold       0 \
	energyDiffThreshold  1e-08 \
	nEnergyDiff          2 \
	alphaTstart          1 \
	alphaTmin            1e-10 \
	updateTestStepSize   yes \
	alphaTreduceFactor   0.1 \
	alphaTincreaseFactor 3 \
	nAlphaAdjustMax      3 \
	wolfeEnergy          0.0001 \
	wolfeGradient        0.9 \
	fdTest               no
electronic-scf  \
	nIterations	10000 \
	energyDiffThreshold	1e-08 \
	residualThreshold	1e-07 \
	mixFraction	0.5 \
	qMetric	0.8 \
	history	10 \
	nEigSteps	2 \
	eigDiffThreshold	1e-08 \
	mixedVariable	Density \
	qKerker	0.8 \
	qKappa	-1 \
	verbose	no \
	mixFractionMag	1.5
exchange-regularization WignerSeitzTruncated
fluid None
fluid-ex-corr (null) lda-PZ
fluid-gummel-loop 10 1.000000e-05
fluid-minimize  \
	dirUpdateScheme      PolakRibiere \
	linminMethod         DirUpdateRecommended \
	nIterations          100 \
	history              15 \
	knormThreshold       0 \
	energyDiffThreshold  0 \
	nEnergyDiff          2 \
	alphaTstart          1 \
	alphaTmin            1e-10 \
	updateTestStepSize   yes \
	alphaTreduceFactor   0.1 \
	alphaTincreaseFactor 3 \
	nAlphaAdjustMax      3 \
	wolfeEnergy          0.0001 \
	wolfeGradient        0.9 \
	fdTest               no
fluid-solvent H2O 55.338 ScalarEOS \
	epsBulk 78.4 \
	pMol 0.92466 \
	epsInf 1.77 \
	Pvap 1.06736e-10 \
	sigmaBulk 4.62e-05 \
	Rvdw 2.61727 \
	Res 1.42 \
	tauNuc 343133 \
	poleEl 15 7 1
forces-output-coords Positions
ion Li   0.000000000000000   0.000000000000000   0.000000000000000 0
ion-species SG15/$ID_ONCV_PBE.upf
ion-width 0
ionic-minimize  \
	dirUpdateScheme      L-BFGS \
	linminMethod         DirUpdateRecommended \
	nIterations          0 \
	history              15 \
	knormThreshold       0.0001 \
	energyDiffThreshold  1e-06 \
	nEnergyDiff          2 \
	alphaTstart          1 \
	alphaTmin            1e-10 \
	updateTestStepSize   yes \
	alphaTreduceFactor   0.1 \
	alphaTincreaseFactor 3 \
	nAlphaAdjustMax      3 \
	wolfeEnergy          0.0001 \
	wolfeGradient        0.9 \
	fdTest               no
kpoint   0.000000000000   0.000000000000   0.000000000000  1.00000000000000
kpoint-folding 12 12 1 
latt-move-scale 1 1 1
latt-scale 2 2 1 
lattice  \
	   4.727486978767153   -2.363743489383575    0.000000000000000  \
	  -0.000000000000000    4.094123819672498    0.000000000000000  \
	   0.000000000000000    0.000000000000000   40.000000000000000 
lattice-minimize  \
	dirUpdateScheme      L-BFGS \
	linminMethod         DirUpdateRecommended \
	nIterations          0 \
	history              15 \
	knormThreshold       0 \
	energyDiffThreshold  1e-06 \
	nEnergyDiff          2 \
	alphaTstart          1 \
	alphaTmin            1e-10 \
	updateTestStepSize   yes \
	alphaTreduceFactor   0.1 \
	alphaTincreaseFactor 3 \
	nAlphaAdjustMax      3 \
	wolfeEnergy          0.0001 \
	wolfeGradient        0.9 \
	fdTest               no
lcao-params -1 1e-06 1e-05
pcm-variant GLSSA13
spintype z-spin
subspace-rotation-factor 1 yes
symmetries automatic
symmetry-threshold 0.0001



---------- Setting up symmetries ----------

Found 24 point-group symmetries of the bravais lattice
Found 24 space-group symmetries with basis
Applied RMS atom displacement 0 bohrs to make symmetries exact.

---------- Initializing the Grid ----------
R = 
[      9.45497     -4.72749            0  ]
[            0      8.18825            0  ]
[            0            0           40  ]
unit cell volume = 3096.79
G =
[   0.664538   0.383671         -0  ]
[          0   0.767342         -0  ]
[         -0         -0    0.15708  ]
Minimum fftbox size, Smin = [  40  40  164  ]
Chosen fftbox size, S = [  40  40  168  ]

---------- Exchange Correlation functional ----------
Initalized PBE GGA exchange.
Initalized PBE GGA correlation.

---------- Setting up pseudopotentials ----------
Width of ionic core gaussian charges (only for fluid interactions / plotting) set to 0

Reading pseudopotential file '/home/gridsan/aligho/DFT/build-Nov24/pseudopotentials/SG15/Li_ONCV_PBE.upf':
  'Li' pseudopotential, 'PBE' functional
  Generated using ONCVPSP code by D. R. Hamann
  Author: Martin Schlipf and Francois Gygi  Date: 150915.
  3 valence electrons, 2 orbitals, 4 projectors, 1328 radial grid points, with lMax = 1
  Transforming local potential to a uniform radial grid of dG=0.02 with 1489 points.
  Transforming nonlocal projectors to a uniform radial grid of dG=0.02 with 432 points.
    1S    l: 0   occupation:  2.0   eigenvalue: -1.905623
    2S    l: 0   occupation:  1.0   eigenvalue: -0.105624
  Transforming atomic orbitals to a uniform radial grid of dG=0.02 with 432 points.
  WARNING: large normalization error in atomic orbital 1s (integral: 0.000000).
  Core radius for overlap checks: 1.63 bohrs.
  Reading pulay file /home/gridsan/aligho/DFT/build-Nov24/pseudopotentials/SG15/Li_ONCV_PBE.pulay ... using dE_dnG = -1.230239e-02 computed for Ecut = 20.

Initialized 1 species with 1 total atoms.

Folded 1 k-points by 12x12x1 to 144 k-points.

---------- Setting up k-points, bands, fillings ----------
Reduced to 19 k-points under symmetry. 
Computing the number of bands and number of electrons
Calculating initial fillings.
nElectrons:   3.000000   nBands: 3   nStates: 38

----- Setting up reduced wavefunction bases (one per k-point) -----
average nbasis = 13230.521 , ideal nbasis = 13229.709

---------- Setting up coulomb interaction ----------
Initialized slab truncation along lattice direction 001

---------- Setting up 2D ewald sum ----------
Optimum gaussian width for ewald sums = 5.249020 bohr.
Real space sums over 289 unit cells with max indices [  8  8  0  ]
Reciprocal space sums over 81 terms with max indices [  4  4  0  ]

---------- Allocating electronic variables ----------
Initializing wave functions:  linear combination of atomic orbitals
Note: number of bands (3) exceeds available atomic orbitals (2)
Li pseudo-atom occupations:   s ( 2 1 )
	FillingsUpdate:  mu: -0.100000000  nElectrons: 3.000000  magneticMoment: [ Abs: 1.00000  Tot: +1.00000 ]
LCAOMinimize: Iter:   0  F: -1.1348143103026807  |grad|_K:       -nan  alpha:  1.000e+00
LCAOMinimize: |grad|_K=-nan. Stopping ...


---- Citations for features of the code used in this run ----

   Software package:
      R. Sundararaman, K. Letchworth-Weaver, K.A. Schwarz, D. Gunceler, Y. Ozhabes and T.A. Arias, 'JDFTx: software for joint density-functional theory', SoftwareX 6, 278 (2017)

   gga-PBE exchange-correlation functional:
      J.P. Perdew, K. Burke and M. Ernzerhof, Phys. Rev. Lett. 77, 3865 (1996)

   Pseudopotentials:
      M Schlipf and F Gygi, Comput. Phys. Commun. 196, 36 (2015)

   Truncated Coulomb potentials:
      R. Sundararaman and T.A. Arias, Phys. Rev. B 87, 165122 (2013)

This list may not be complete. Please suggest additional citations or
report any other bugs at https://github.com/shankar1729/jdftx/issues

Initialization completed successfully at t[s]:      2.87


-------- Electronic minimization -----------
Will mix electronic density at each iteration.
	FillingsUpdate:  mu: -0.100000000  nElectrons: 3.000000  magneticMoment: [ Abs: 1.00000  Tot: +1.00000 ]
	FillingsUpdate:  mu: -1.600000000  nElectrons: 3.000000  magneticMoment: [ Abs: 1.00000  Tot: +1.00000 ]
SCF: Cycle:  0   F: -6.835286618101295   dF: -5.700e+00   |Residual|: 1.176e+00   |deigs|: 4.169e+00  t[s]:      4.59
[d-3-7-3:39572] 18 more processes have sent help message help-mpi-common-cuda.txt / dlopen failed
[d-3-7-3:39572] Set MCA parameter "orte_base_help_aggregate" to 0 to see all help / error messages
[d-3-7-3:39572] 18 more processes have sent help message help-mpi-btl-openib-cpc-base.txt / no cpcs for port
	FillingsUpdate:  mu: -1.600000000  nElectrons: 3.000000  magneticMoment: [ Abs: 1.58304  Tot: +1.00000 ]
SCF: Cycle:  1   F: -6.923337036720135   dF: -8.805e-02   |Residual|: 7.790e-01   |deigs|: 2.362e-01  t[s]:      5.88
	FillingsUpdate:  mu: -0.800000000  nElectrons: 3.000000  magneticMoment: [ Abs: 1.99582  Tot: +1.00000 ]
SCF: Cycle:  2   F: -7.039014361848851   dF: -1.157e-01   |Residual|: 4.064e-01   |deigs|: 7.681e-01  t[s]:      7.20
	FillingsUpdate:  mu: -0.800000000  nElectrons: 3.000000  magneticMoment: [ Abs: 1.59853  Tot: +1.00000 ]
SCF: Cycle:  3   F: -7.044818778003807   dF: -5.804e-03   |Residual|: 1.533e-01   |deigs|: 1.428e-01  t[s]:      8.59
	FillingsUpdate:  mu: -0.800000000  nElectrons: 3.000000  magneticMoment: [ Abs: 1.28549  Tot: +1.00000 ]
SCF: Cycle:  4   F: -7.046960048326588   dF: -2.141e-03   |Residual|: 4.292e-02   |deigs|: 5.336e-02  t[s]:      9.93
	FillingsUpdate:  mu: -0.622640935  nElectrons: 3.000000  magneticMoment: [ Abs: 1.25376  Tot: +1.00000 ]
SCF: Cycle:  5   F: -7.048317245048263   dF: -1.357e-03   |Residual|: 5.655e-02   |deigs|: 2.352e-02  t[s]:     11.33
	FillingsUpdate:  mu: -0.733854036  nElectrons: 3.000000  magneticMoment: [ Abs: 1.29864  Tot: +1.00000 ]
SCF: Cycle:  6   F: -7.052540645354487   dF: -4.223e-03   |Residual|: 8.483e-02   |deigs|: 1.184e-01  t[s]:     12.71
	FillingsUpdate:  mu: -0.760448738  nElectrons: 3.000000  magneticMoment: [ Abs: 1.31332  Tot: +1.00000 ]
SCF: Cycle:  7   F: -7.055030038740376   dF: -2.489e-03   |Residual|: 4.218e-02   |deigs|: 7.240e-02  t[s]:     14.10
	FillingsUpdate:  mu: -0.800000000  nElectrons: 3.000000  magneticMoment: [ Abs: 1.25123  Tot: +1.00000 ]
SCF: Cycle:  8   F: -7.056399015644711   dF: -1.369e-03   |Residual|: 3.529e-02   |deigs|: 3.259e-02  t[s]:     15.55
	FillingsUpdate:  mu: -0.384289805  nElectrons: 3.000000  magneticMoment: [ Abs: 1.16854  Tot: +1.00000 ]
SCF: Cycle:  9   F: -7.057896895089219   dF: -1.498e-03   |Residual|: 2.042e-02   |deigs|: 3.647e-02  t[s]:     17.02
	FillingsUpdate:  mu: -0.400000000  nElectrons: 3.000000  magneticMoment: [ Abs: 1.15887  Tot: +1.00000 ]
SCF: Cycle: 10   F: -7.058395257023145   dF: -4.984e-04   |Residual|: 2.386e-02   |deigs|: 3.360e-02  t[s]:     18.55
	FillingsUpdate:  mu: -0.400000000  nElectrons: 3.000000  magneticMoment: [ Abs: 1.21481  Tot: +1.00000 ]
SCF: Cycle: 11   F: -7.058725785086743   dF: -3.305e-04   |Residual|: 1.487e-02   |deigs|: 4.624e-02  t[s]:     20.10
	FillingsUpdate:  mu: -0.269596418  nElectrons: 3.000000  magneticMoment: [ Abs: 1.23189  Tot: +1.00000 ]
SCF: Cycle: 12   F: -7.058919759857919   dF: -1.940e-04   |Residual|: 1.390e-02   |deigs|: 3.594e-02  t[s]:     21.63
	FillingsUpdate:  mu: -0.228509743  nElectrons: 3.000000  magneticMoment: [ Abs: 1.19832  Tot: +1.00000 ]
SCF: Cycle: 13   F: -7.059025061718620   dF: -1.053e-04   |Residual|: 1.260e-02   |deigs|: 4.127e-02  t[s]:     23.10
	FillingsUpdate:  mu: -0.200000000  nElectrons: 3.000000  magneticMoment: [ Abs: 1.12242  Tot: +1.00000 ]
SCF: Cycle: 14   F: -7.059212619775780   dF: -1.876e-04   |Residual|: 1.084e-02   |deigs|: 5.684e-02  t[s]:     24.62
	FillingsUpdate:  mu: -0.134740130  nElectrons: 3.000000  magneticMoment: [ Abs: 1.08850  Tot: +1.00000 ]
SCF: Cycle: 15   F: -7.059579655899992   dF: -3.670e-04   |Residual|: 8.565e-03   |deigs|: 3.431e-02  t[s]:     26.14
	FillingsUpdate:  mu: -0.116500335  nElectrons: 3.000000  magneticMoment: [ Abs: 1.06653  Tot: +1.00000 ]
SCF: Cycle: 16   F: -7.059905324929527   dF: -3.257e-04   |Residual|: 5.959e-03   |deigs|: 2.050e-02  t[s]:     27.63
	FillingsUpdate:  mu: -0.200000000  nElectrons: 3.000000  magneticMoment: [ Abs: 1.04773  Tot: +1.00000 ]
SCF: Cycle: 17   F: -7.060012747382100   dF: -1.074e-04   |Residual|: 3.768e-03   |deigs|: 1.287e-02  t[s]:     29.11
	FillingsUpdate:  mu: -0.100000000  nElectrons: 3.000000  magneticMoment: [ Abs: 1.03252  Tot: +1.00000 ]
SCF: Cycle: 18   F: -7.060031960062739   dF: -1.921e-05   |Residual|: 2.236e-03   |deigs|: 5.477e-03  t[s]:     30.64
	FillingsUpdate:  mu: -0.095480531  nElectrons: 3.000000  magneticMoment: [ Abs: 1.02158  Tot: +1.00000 ]
SCF: Cycle: 19   F: -7.060043521292816   dF: -1.156e-05   |Residual|: 1.576e-03   |deigs|: 3.245e-03  t[s]:     32.13
	FillingsUpdate:  mu: -0.100000000  nElectrons: 3.000000  magneticMoment: [ Abs: 1.01443  Tot: +1.00000 ]
SCF: Cycle: 20   F: -7.060048994855549   dF: -5.474e-06   |Residual|: 1.032e-03   |deigs|: 1.802e-03  t[s]:     33.63
	FillingsUpdate:  mu: -0.095812901  nElectrons: 3.000000  magneticMoment: [ Abs: 1.01162  Tot: +1.00000 ]
SCF: Cycle: 21   F: -7.060051431896705   dF: -2.437e-06   |Residual|: 7.722e-04   |deigs|: 7.512e-04  t[s]:     35.10
	FillingsUpdate:  mu: -0.095717966  nElectrons: 3.000000  magneticMoment: [ Abs: 1.00840  Tot: +1.00000 ]
SCF: Cycle: 22   F: -7.060052749201311   dF: -1.317e-06   |Residual|: 6.076e-04   |deigs|: 3.928e-04  t[s]:     36.67
	FillingsUpdate:  mu: -0.095102183  nElectrons: 3.000000  magneticMoment: [ Abs: 1.00515  Tot: +1.00000 ]
SCF: Cycle: 23   F: -7.060053475254810   dF: -7.261e-07   |Residual|: 4.709e-04   |deigs|: 6.577e-04  t[s]:     38.15
	FillingsUpdate:  mu: -0.093812815  nElectrons: 3.000000  magneticMoment: [ Abs: 1.00266  Tot: +1.00000 ]
SCF: Cycle: 24   F: -7.060053952180732   dF: -4.769e-07   |Residual|: 3.482e-04   |deigs|: 1.421e-03  t[s]:     39.68
	FillingsUpdate:  mu: -0.092220456  nElectrons: 3.000000  magneticMoment: [ Abs: 1.00098  Tot: +1.00000 ]
SCF: Cycle: 25   F: -7.060054215164485   dF: -2.630e-07   |Residual|: 2.116e-04   |deigs|: 1.939e-03  t[s]:     41.15
	FillingsUpdate:  mu: -0.100000000  nElectrons: 3.000000  magneticMoment: [ Abs: 1.00086  Tot: +1.00000 ]
SCF: Cycle: 26   F: -7.060054320146847   dF: -1.050e-07   |Residual|: 1.173e-04   |deigs|: 5.176e-04  t[s]:     42.68
	FillingsUpdate:  mu: -0.089763049  nElectrons: 3.000000  magneticMoment: [ Abs: 1.00025  Tot: +1.00000 ]
SCF: Cycle: 27   F: -7.060054376728215   dF: -5.658e-08   |Residual|: 5.728e-05   |deigs|: 2.654e-03  t[s]:     44.17
	FillingsUpdate:  mu: -0.100000000  nElectrons: 3.000000  magneticMoment: [ Abs: 1.00000  Tot: +1.00000 ]
SCF: Cycle: 28   F: -7.060054386714047   dF: -9.986e-09   |Residual|: 3.242e-05   |deigs|: 2.343e-03  t[s]:     45.61
	FillingsUpdate:  mu: -0.084255724  nElectrons: 3.000000  magneticMoment: [ Abs: 1.00000  Tot: +1.00000 ]
SCF: Cycle: 29   F: -7.060054392118647   dF: -5.405e-09   |Residual|: 2.049e-05   |deigs|: 3.101e-03  t[s]:     47.09
SCF: Converged (|Delta E|<1.000000e-08 for 2 iters).


# Ionic positions in lattice coordinates:
ion Li   0.000000000000000   0.000000000000000   0.000000000000000 0

# Forces in Lattice coordinates:
force Li   0.000000000000000   0.000000000000000   0.000000000000000 0

# Energy components:
   Eewald =       -2.0053362333702967
       EH =        1.5544702453552033
     Eloc =       -6.2209510032211552
      Enl =       -3.5915159365666445
   Epulay =        0.0000032255226020
      Exc =       -1.5499829709957127
       KE =        4.7532584688911923
-------------------------------------
     Etot =       -7.0600542043848096
       TS =        0.0000001877338370
-------------------------------------
        F =       -7.0600543921186469

IonicMinimize: Iter:   0  F: -7.060054392118647  |grad|_K:  0.000e+00  t[s]:     47.15
IonicMinimize: Converged (|grad|_K<1.000000e-04).

#--- Lowdin population analysis ---
# oxidation-state Li +2.259
# magnetic-moments Li +0.728

End date and time: Sat Feb  5 23:14:20 2022  (Duration: 0-0:00:47.16)
Done!
scale=3
magnetization=1.0
--------------------------------------------------------------------------
The library attempted to open the following supporting CUDA libraries,
but each of them failed.  CUDA-aware support is disabled.
libcuda.so.1: cannot open shared object file: No such file or directory
libcuda.dylib: cannot open shared object file: No such file or directory
/usr/lib64/libcuda.so.1: cannot open shared object file: No such file or directory
/usr/lib64/libcuda.dylib: cannot open shared object file: No such file or directory
If you are not interested in CUDA-aware support, then run with
--mca opal_warn_on_missing_libcuda 0 to suppress this message.  If you are interested
in CUDA-aware support, then try setting LD_LIBRARY_PATH to the location
of libcuda.so.1 to get passed this issue.
--------------------------------------------------------------------------
--------------------------------------------------------------------------
No OpenFabrics connection schemes reported that they were able to be
used on a specific port.  As such, the openib BTL (OpenFabrics
support) will be disabled for this port.

  Local host:           d-3-7-3
  Local device:         mlx5_1
  Local port:           1
  CPCs attempted:       rdmacm, udcm
--------------------------------------------------------------------------

*************** JDFTx 1.6.0 (git hash 42ebbcc2) ***************

Start date and time: Sat Feb  5 23:14:21 2022
Executable jdftx with command-line: -i Alkali.in
Running on hosts (process indices):  d-3-7-3 (0-18)
Divided in process groups (process indices):  0 (0)  1 (1)  2 (2)  3 (3)  4 (4)  5 (5)  6 (6)  7 (7)  8 (8)  9 (9)  10 (10)  11 (11)  12 (12)  13 (13)  14 (14)  15 (15)  16 (16)  17 (17)  18 (18)
Resource initialization completed at t[s]:      0.00
Run totals: 19 processes, 48 threads, 0 GPUs


Input parsed successfully to the following command list (including defaults):

basis kpoint-dependent
coords-type Lattice
core-overlap-check vector
coulomb-interaction Slab 001
davidson-band-ratio 1.1
dump End None
dump-name $INPUT.$VAR
elec-cutoff 20
elec-eigen-algo Davidson
elec-ex-corr gga-PBE
elec-initial-magnetization 1.000000 yes
elec-smearing Fermi 1e-05
electronic-minimize  \
	dirUpdateScheme      FletcherReeves \
	linminMethod         DirUpdateRecommended \
	nIterations          100 \
	history              15 \
	knormThreshold       0 \
	energyDiffThreshold  1e-08 \
	nEnergyDiff          2 \
	alphaTstart          1 \
	alphaTmin            1e-10 \
	updateTestStepSize   yes \
	alphaTreduceFactor   0.1 \
	alphaTincreaseFactor 3 \
	nAlphaAdjustMax      3 \
	wolfeEnergy          0.0001 \
	wolfeGradient        0.9 \
	fdTest               no
electronic-scf  \
	nIterations	10000 \
	energyDiffThreshold	1e-08 \
	residualThreshold	1e-07 \
	mixFraction	0.5 \
	qMetric	0.8 \
	history	10 \
	nEigSteps	2 \
	eigDiffThreshold	1e-08 \
	mixedVariable	Density \
	qKerker	0.8 \
	qKappa	-1 \
	verbose	no \
	mixFractionMag	1.5
exchange-regularization WignerSeitzTruncated
fluid None
fluid-ex-corr (null) lda-PZ
fluid-gummel-loop 10 1.000000e-05
fluid-minimize  \
	dirUpdateScheme      PolakRibiere \
	linminMethod         DirUpdateRecommended \
	nIterations          100 \
	history              15 \
	knormThreshold       0 \
	energyDiffThreshold  0 \
	nEnergyDiff          2 \
	alphaTstart          1 \
	alphaTmin            1e-10 \
	updateTestStepSize   yes \
	alphaTreduceFactor   0.1 \
	alphaTincreaseFactor 3 \
	nAlphaAdjustMax      3 \
	wolfeEnergy          0.0001 \
	wolfeGradient        0.9 \
	fdTest               no
fluid-solvent H2O 55.338 ScalarEOS \
	epsBulk 78.4 \
	pMol 0.92466 \
	epsInf 1.77 \
	Pvap 1.06736e-10 \
	sigmaBulk 4.62e-05 \
	Rvdw 2.61727 \
	Res 1.42 \
	tauNuc 343133 \
	poleEl 15 7 1
forces-output-coords Positions
ion Li   0.000000000000000   0.000000000000000   0.000000000000000 0
ion-species SG15/$ID_ONCV_PBE.upf
ion-width 0
ionic-minimize  \
	dirUpdateScheme      L-BFGS \
	linminMethod         DirUpdateRecommended \
	nIterations          0 \
	history              15 \
	knormThreshold       0.0001 \
	energyDiffThreshold  1e-06 \
	nEnergyDiff          2 \
	alphaTstart          1 \
	alphaTmin            1e-10 \
	updateTestStepSize   yes \
	alphaTreduceFactor   0.1 \
	alphaTincreaseFactor 3 \
	nAlphaAdjustMax      3 \
	wolfeEnergy          0.0001 \
	wolfeGradient        0.9 \
	fdTest               no
kpoint   0.000000000000   0.000000000000   0.000000000000  1.00000000000000
kpoint-folding 12 12 1 
latt-move-scale 1 1 1
latt-scale 3 3 1 
lattice  \
	   4.727486978767153   -2.363743489383575    0.000000000000000  \
	  -0.000000000000000    4.094123819672498    0.000000000000000  \
	   0.000000000000000    0.000000000000000   40.000000000000000 
lattice-minimize  \
	dirUpdateScheme      L-BFGS \
	linminMethod         DirUpdateRecommended \
	nIterations          0 \
	history              15 \
	knormThreshold       0 \
	energyDiffThreshold  1e-06 \
	nEnergyDiff          2 \
	alphaTstart          1 \
	alphaTmin            1e-10 \
	updateTestStepSize   yes \
	alphaTreduceFactor   0.1 \
	alphaTincreaseFactor 3 \
	nAlphaAdjustMax      3 \
	wolfeEnergy          0.0001 \
	wolfeGradient        0.9 \
	fdTest               no
lcao-params -1 1e-06 1e-05
pcm-variant GLSSA13
spintype z-spin
subspace-rotation-factor 1 yes
symmetries automatic
symmetry-threshold 0.0001



---------- Setting up symmetries ----------

Found 24 point-group symmetries of the bravais lattice
Found 24 space-group symmetries with basis
Applied RMS atom displacement 0 bohrs to make symmetries exact.

---------- Initializing the Grid ----------
R = 
[      14.1825     -7.09123            0  ]
[            0      12.2824            0  ]
[            0            0           40  ]
unit cell volume = 6967.77
G =
[   0.443025   0.255781         -0  ]
[          0   0.511561         -0  ]
[         -0         -0    0.15708  ]
Minimum fftbox size, Smin = [  60  60  164  ]
Chosen fftbox size, S = [  60  60  168  ]

---------- Exchange Correlation functional ----------
Initalized PBE GGA exchange.
Initalized PBE GGA correlation.

---------- Setting up pseudopotentials ----------
Width of ionic core gaussian charges (only for fluid interactions / plotting) set to 0

Reading pseudopotential file '/home/gridsan/aligho/DFT/build-Nov24/pseudopotentials/SG15/Li_ONCV_PBE.upf':
  'Li' pseudopotential, 'PBE' functional
  Generated using ONCVPSP code by D. R. Hamann
  Author: Martin Schlipf and Francois Gygi  Date: 150915.
  3 valence electrons, 2 orbitals, 4 projectors, 1328 radial grid points, with lMax = 1
  Transforming local potential to a uniform radial grid of dG=0.02 with 1489 points.
  Transforming nonlocal projectors to a uniform radial grid of dG=0.02 with 432 points.
    1S    l: 0   occupation:  2.0   eigenvalue: -1.905623
    2S    l: 0   occupation:  1.0   eigenvalue: -0.105624
  Transforming atomic orbitals to a uniform radial grid of dG=0.02 with 432 points.
  WARNING: large normalization error in atomic orbital 1s (integral: 0.000000).
  Core radius for overlap checks: 1.63 bohrs.
  Reading pulay file /home/gridsan/aligho/DFT/build-Nov24/pseudopotentials/SG15/Li_ONCV_PBE.pulay ... using dE_dnG = -1.230239e-02 computed for Ecut = 20.

Initialized 1 species with 1 total atoms.

Folded 1 k-points by 12x12x1 to 144 k-points.

---------- Setting up k-points, bands, fillings ----------
Reduced to 19 k-points under symmetry. 
Computing the number of bands and number of electrons
Calculating initial fillings.
nElectrons:   3.000000   nBands: 3   nStates: 38

----- Setting up reduced wavefunction bases (one per k-point) -----
average nbasis = 29766.104 , ideal nbasis = 29766.845

---------- Setting up coulomb interaction ----------
Initialized slab truncation along lattice direction 001

---------- Setting up 2D ewald sum ----------
Optimum gaussian width for ewald sums = 7.873530 bohr.
Real space sums over 289 unit cells with max indices [  8  8  0  ]
Reciprocal space sums over 81 terms with max indices [  4  4  0  ]

---------- Allocating electronic variables ----------
Initializing wave functions:  linear combination of atomic orbitals
Note: number of bands (3) exceeds available atomic orbitals (2)
Li pseudo-atom occupations:   s ( 2 1 )
[d-3-7-3:60159] 18 more processes have sent help message help-mpi-common-cuda.txt / dlopen failed
[d-3-7-3:60159] Set MCA parameter "orte_base_help_aggregate" to 0 to see all help / error messages
[d-3-7-3:60159] 18 more processes have sent help message help-mpi-btl-openib-cpc-base.txt / no cpcs for port
	FillingsUpdate:  mu: -0.100000000  nElectrons: 3.000000  magneticMoment: [ Abs: 1.00000  Tot: +1.00000 ]
LCAOMinimize: Iter:   0  F: -1.2752662038749896  |grad|_K:       -nan  alpha:  1.000e+00
LCAOMinimize: |grad|_K=-nan. Stopping ...


---- Citations for features of the code used in this run ----

   Software package:
      R. Sundararaman, K. Letchworth-Weaver, K.A. Schwarz, D. Gunceler, Y. Ozhabes and T.A. Arias, 'JDFTx: software for joint density-functional theory', SoftwareX 6, 278 (2017)

   gga-PBE exchange-correlation functional:
      J.P. Perdew, K. Burke and M. Ernzerhof, Phys. Rev. Lett. 77, 3865 (1996)

   Pseudopotentials:
      M Schlipf and F Gygi, Comput. Phys. Commun. 196, 36 (2015)

   Truncated Coulomb potentials:
      R. Sundararaman and T.A. Arias, Phys. Rev. B 87, 165122 (2013)

This list may not be complete. Please suggest additional citations or
report any other bugs at https://github.com/shankar1729/jdftx/issues

Initialization completed successfully at t[s]:      5.55


-------- Electronic minimization -----------
Will mix electronic density at each iteration.
	FillingsUpdate:  mu: -0.100000000  nElectrons: 3.000000  magneticMoment: [ Abs: 1.00000  Tot: +1.00000 ]
	FillingsUpdate:  mu: -0.800000000  nElectrons: 3.000000  magneticMoment: [ Abs: 1.00000  Tot: +1.00000 ]
SCF: Cycle:  0   F: -6.894743975440157   dF: -5.619e+00   |Residual|: 1.223e+00   |deigs|: 4.155e+00  t[s]:      8.91
	FillingsUpdate:  mu: -0.800000000  nElectrons: 3.000000  magneticMoment: [ Abs: 1.59613  Tot: +1.00000 ]
SCF: Cycle:  1   F: -6.915935654924540   dF: -2.119e-02   |Residual|: 7.686e-01   |deigs|: 2.725e-01  t[s]:     11.61
	FillingsUpdate:  mu: -0.400000000  nElectrons: 3.000000  magneticMoment: [ Abs: 2.19440  Tot: +1.00000 ]
SCF: Cycle:  2   F: -7.041411189284609   dF: -1.255e-01   |Residual|: 3.382e-01   |deigs|: 7.111e-01  t[s]:     14.35
	FillingsUpdate:  mu: -0.400000000  nElectrons: 3.000000  magneticMoment: [ Abs: 1.89005  Tot: +1.00000 ]
SCF: Cycle:  3   F: -7.042817784217525   dF: -1.407e-03   |Residual|: 1.502e-01   |deigs|: 1.001e-01  t[s]:     17.11
	FillingsUpdate:  mu: -0.400000000  nElectrons: 3.000000  magneticMoment: [ Abs: 1.56100  Tot: +1.00000 ]
SCF: Cycle:  4   F: -7.047824794083779   dF: -5.007e-03   |Residual|: 4.056e-02   |deigs|: 4.751e-02  t[s]:     19.95
	FillingsUpdate:  mu: -0.400000000  nElectrons: 3.000000  magneticMoment: [ Abs: 1.42264  Tot: +1.00000 ]
SCF: Cycle:  5   F: -7.048974513970307   dF: -1.150e-03   |Residual|: 5.470e-02   |deigs|: 2.725e-02  t[s]:     22.95
	FillingsUpdate:  mu: -0.400000000  nElectrons: 3.000000  magneticMoment: [ Abs: 1.20902  Tot: +1.00000 ]
SCF: Cycle:  6   F: -7.050542352433480   dF: -1.568e-03   |Residual|: 4.129e-02   |deigs|: 4.769e-02  t[s]:     25.94
	FillingsUpdate:  mu: -0.400000000  nElectrons: 3.000000  magneticMoment: [ Abs: 1.17316  Tot: +1.00000 ]
SCF: Cycle:  7   F: -7.052287724665912   dF: -1.745e-03   |Residual|: 2.326e-02   |deigs|: 3.837e-02  t[s]:     29.04
	FillingsUpdate:  mu: -0.400000000  nElectrons: 3.000000  magneticMoment: [ Abs: 1.15447  Tot: +1.00000 ]
SCF: Cycle:  8   F: -7.053097209902718   dF: -8.095e-04   |Residual|: 4.670e-02   |deigs|: 2.020e-02  t[s]:     32.16
	FillingsUpdate:  mu: -0.400000000  nElectrons: 3.000000  magneticMoment: [ Abs: 1.09864  Tot: +1.00000 ]
SCF: Cycle:  9   F: -7.053878142263232   dF: -7.809e-04   |Residual|: 2.442e-02   |deigs|: 1.237e-02  t[s]:     35.41
	FillingsUpdate:  mu: -0.200000000  nElectrons: 3.000000  magneticMoment: [ Abs: 1.13530  Tot: +1.00000 ]
SCF: Cycle: 10   F: -7.054240172916526   dF: -3.620e-04   |Residual|: 4.815e-02   |deigs|: 2.301e-02  t[s]:     38.64
	FillingsUpdate:  mu: -0.200000000  nElectrons: 3.000000  magneticMoment: [ Abs: 1.17644  Tot: +1.00000 ]
SCF: Cycle: 11   F: -7.054400587530353   dF: -1.604e-04   |Residual|: 1.243e-02   |deigs|: 2.681e-02  t[s]:     41.88
	FillingsUpdate:  mu: -0.200000000  nElectrons: 3.000000  magneticMoment: [ Abs: 1.20775  Tot: +1.00000 ]
SCF: Cycle: 12   F: -7.054508802466575   dF: -1.082e-04   |Residual|: 9.279e-03   |deigs|: 1.885e-02  t[s]:     45.10
	FillingsUpdate:  mu: -0.200000000  nElectrons: 3.000000  magneticMoment: [ Abs: 1.20355  Tot: +1.00000 ]
SCF: Cycle: 13   F: -7.054621833499602   dF: -1.130e-04   |Residual|: 8.172e-03   |deigs|: 1.452e-02  t[s]:     48.32
	FillingsUpdate:  mu: -0.200000000  nElectrons: 3.000000  magneticMoment: [ Abs: 1.16220  Tot: +1.00000 ]
SCF: Cycle: 14   F: -7.054655697888661   dF: -3.386e-05   |Residual|: 8.153e-03   |deigs|: 1.825e-02  t[s]:     51.60
	FillingsUpdate:  mu: -0.100000000  nElectrons: 3.000000  magneticMoment: [ Abs: 1.13057  Tot: +1.00000 ]
SCF: Cycle: 15   F: -7.054750700675297   dF: -9.500e-05   |Residual|: 7.490e-03   |deigs|: 2.199e-02  t[s]:     54.78
	FillingsUpdate:  mu: -0.100000000  nElectrons: 3.000000  magneticMoment: [ Abs: 1.08184  Tot: +1.00000 ]
SCF: Cycle: 16   F: -7.054896932625816   dF: -1.462e-04   |Residual|: 4.871e-03   |deigs|: 2.303e-02  t[s]:     58.01
	FillingsUpdate:  mu: -0.100000000  nElectrons: 3.000000  magneticMoment: [ Abs: 1.05483  Tot: +1.00000 ]
SCF: Cycle: 17   F: -7.054992896073494   dF: -9.596e-05   |Residual|: 3.396e-03   |deigs|: 7.772e-03  t[s]:     61.28
	FillingsUpdate:  mu: -0.100000000  nElectrons: 3.000000  magneticMoment: [ Abs: 1.03147  Tot: +1.00000 ]
SCF: Cycle: 18   F: -7.055047477285409   dF: -5.458e-05   |Residual|: 2.112e-03   |deigs|: 1.401e-03  t[s]:     64.51
	FillingsUpdate:  mu: -0.100000000  nElectrons: 3.000000  magneticMoment: [ Abs: 1.02040  Tot: +1.00000 ]
SCF: Cycle: 19   F: -7.055060988423483   dF: -1.351e-05   |Residual|: 1.414e-03   |deigs|: 1.515e-03  t[s]:     67.74
	FillingsUpdate:  mu: -0.100000000  nElectrons: 3.000000  magneticMoment: [ Abs: 1.01510  Tot: +1.00000 ]
SCF: Cycle: 20   F: -7.055062359638615   dF: -1.371e-06   |Residual|: 1.002e-03   |deigs|: 1.320e-03  t[s]:     70.96
	FillingsUpdate:  mu: -0.100000000  nElectrons: 3.000000  magneticMoment: [ Abs: 1.01082  Tot: +1.00000 ]
SCF: Cycle: 21   F: -7.055063992006216   dF: -1.632e-06   |Residual|: 5.870e-04   |deigs|: 1.369e-03  t[s]:     74.16
	FillingsUpdate:  mu: -0.100000000  nElectrons: 3.000000  magneticMoment: [ Abs: 1.00836  Tot: +1.00000 ]
SCF: Cycle: 22   F: -7.055064440479059   dF: -4.485e-07   |Residual|: 4.705e-04   |deigs|: 1.158e-03  t[s]:     77.37
	FillingsUpdate:  mu: -0.100000000  nElectrons: 3.000000  magneticMoment: [ Abs: 1.00493  Tot: +1.00000 ]
SCF: Cycle: 23   F: -7.055065155907681   dF: -7.154e-07   |Residual|: 3.746e-04   |deigs|: 2.506e-03  t[s]:     80.59
	FillingsUpdate:  mu: -0.100000000  nElectrons: 3.000000  magneticMoment: [ Abs: 1.00236  Tot: +1.00000 ]
SCF: Cycle: 24   F: -7.055065467140183   dF: -3.112e-07   |Residual|: 2.841e-04   |deigs|: 7.546e-04  t[s]:     83.78
	FillingsUpdate:  mu: -0.100000000  nElectrons: 3.000000  magneticMoment: [ Abs: 1.00070  Tot: +1.00000 ]
SCF: Cycle: 25   F: -7.055065709726049   dF: -2.426e-07   |Residual|: 1.933e-04   |deigs|: 2.529e-03  t[s]:     86.97
	FillingsUpdate:  mu: -0.100000000  nElectrons: 3.000000  magneticMoment: [ Abs: 1.00011  Tot: +1.00000 ]
SCF: Cycle: 26   F: -7.055065807897802   dF: -9.817e-08   |Residual|: 1.353e-04   |deigs|: 2.154e-03  t[s]:     90.15
	FillingsUpdate:  mu: -0.100000000  nElectrons: 3.000000  magneticMoment: [ Abs: 1.00004  Tot: +1.00000 ]
SCF: Cycle: 27   F: -7.055065834228010   dF: -2.633e-08   |Residual|: 8.415e-05   |deigs|: 2.460e-03  t[s]:     93.35
	FillingsUpdate:  mu: -0.100000000  nElectrons: 3.000000  magneticMoment: [ Abs: 1.00002  Tot: +1.00000 ]
SCF: Cycle: 28   F: -7.055065836729867   dF: -2.502e-09   |Residual|: 5.716e-05   |deigs|: 1.266e-03  t[s]:     96.51
	FillingsUpdate:  mu: -0.100000000  nElectrons: 3.000000  magneticMoment: [ Abs: 1.00000  Tot: +1.00000 ]
SCF: Cycle: 29   F: -7.055065851426542   dF: -1.470e-08   |Residual|: 4.371e-05   |deigs|: 2.293e-03  t[s]:     99.78
	FillingsUpdate:  mu: -0.100000000  nElectrons: 3.000000  magneticMoment: [ Abs: 1.00000  Tot: +1.00000 ]
SCF: Cycle: 30   F: -7.055065861927557   dF: -1.050e-08   |Residual|: 3.805e-05   |deigs|: 6.199e-04  t[s]:    102.99
	FillingsUpdate:  mu: -0.100000000  nElectrons: 3.000000  magneticMoment: [ Abs: 1.00003  Tot: +1.00000 ]
SCF: Cycle: 31   F: -7.055065871745882   dF: -9.818e-09   |Residual|: 3.151e-05   |deigs|: 1.093e-03  t[s]:    106.23
	FillingsUpdate:  mu: -0.100000000  nElectrons: 3.000000  magneticMoment: [ Abs: 1.00000  Tot: +1.00000 ]
SCF: Cycle: 32   F: -7.055065887734161   dF: -1.599e-08   |Residual|: 2.319e-05   |deigs|: 3.870e-03  t[s]:    109.51
	FillingsUpdate:  mu: -0.100000000  nElectrons: 3.000000  magneticMoment: [ Abs: 1.00006  Tot: +1.00000 ]
SCF: Cycle: 33   F: -7.055065895670286   dF: -7.936e-09   |Residual|: 1.615e-05   |deigs|: 4.057e-04  t[s]:    112.72
	FillingsUpdate:  mu: -0.100000000  nElectrons: 3.000000  magneticMoment: [ Abs: 1.00006  Tot: +1.00000 ]
SCF: Cycle: 34   F: -7.055065898307637   dF: -2.637e-09   |Residual|: 9.616e-06   |deigs|: 3.563e-03  t[s]:    116.04
SCF: Converged (|Delta E|<1.000000e-08 for 2 iters).


# Ionic positions in lattice coordinates:
ion Li   0.000000000000000   0.000000000000000   0.000000000000000 0

# Forces in Lattice coordinates:
force Li   0.000000000000000  -0.000000000000000   0.000000000000000 0

# Energy components:
   Eewald =       -1.3368908222468645
       EH =        2.2340991733234503
     Eloc =       -7.5831092478501771
      Enl =       -3.6069932699320093
   Epulay =       -0.0000013080581827
      Exc =       -1.5503250755248053
       KE =        4.7881546519809515
-------------------------------------
     Etot =       -7.0550658983076371
       TS =        0.0000000000000000
-------------------------------------
        F =       -7.0550658983076371

IonicMinimize: Iter:   0  F: -7.055065898307637  |grad|_K:  0.000e+00  t[s]:    116.18
IonicMinimize: Converged (|grad|_K<1.000000e-04).

#--- Lowdin population analysis ---
# oxidation-state Li +2.061
# magnetic-moments Li +0.926

End date and time: Sat Feb  5 23:16:17 2022  (Duration: 0-0:01:56.20)
Done!
scale=4
magnetization=1.0
--------------------------------------------------------------------------
The library attempted to open the following supporting CUDA libraries,
but each of them failed.  CUDA-aware support is disabled.
libcuda.so.1: cannot open shared object file: No such file or directory
libcuda.dylib: cannot open shared object file: No such file or directory
/usr/lib64/libcuda.so.1: cannot open shared object file: No such file or directory
/usr/lib64/libcuda.dylib: cannot open shared object file: No such file or directory
If you are not interested in CUDA-aware support, then run with
--mca opal_warn_on_missing_libcuda 0 to suppress this message.  If you are interested
in CUDA-aware support, then try setting LD_LIBRARY_PATH to the location
of libcuda.so.1 to get passed this issue.
--------------------------------------------------------------------------
--------------------------------------------------------------------------
No OpenFabrics connection schemes reported that they were able to be
used on a specific port.  As such, the openib BTL (OpenFabrics
support) will be disabled for this port.

  Local host:           d-3-7-3
  Local device:         mlx5_1
  Local port:           1
  CPCs attempted:       rdmacm, udcm
--------------------------------------------------------------------------

*************** JDFTx 1.6.0 (git hash 42ebbcc2) ***************

Start date and time: Sat Feb  5 23:16:18 2022
Executable jdftx with command-line: -i Alkali.in
Running on hosts (process indices):  d-3-7-3 (0-18)
Divided in process groups (process indices):  0 (0)  1 (1)  2 (2)  3 (3)  4 (4)  5 (5)  6 (6)  7 (7)  8 (8)  9 (9)  10 (10)  11 (11)  12 (12)  13 (13)  14 (14)  15 (15)  16 (16)  17 (17)  18 (18)
Resource initialization completed at t[s]:      0.00
Run totals: 19 processes, 48 threads, 0 GPUs


Input parsed successfully to the following command list (including defaults):

basis kpoint-dependent
coords-type Lattice
core-overlap-check vector
coulomb-interaction Slab 001
davidson-band-ratio 1.1
dump End None
dump-name $INPUT.$VAR
elec-cutoff 20
elec-eigen-algo Davidson
elec-ex-corr gga-PBE
elec-initial-magnetization 1.000000 yes
elec-smearing Fermi 1e-05
electronic-minimize  \
	dirUpdateScheme      FletcherReeves \
	linminMethod         DirUpdateRecommended \
	nIterations          100 \
	history              15 \
	knormThreshold       0 \
	energyDiffThreshold  1e-08 \
	nEnergyDiff          2 \
	alphaTstart          1 \
	alphaTmin            1e-10 \
	updateTestStepSize   yes \
	alphaTreduceFactor   0.1 \
	alphaTincreaseFactor 3 \
	nAlphaAdjustMax      3 \
	wolfeEnergy          0.0001 \
	wolfeGradient        0.9 \
	fdTest               no
electronic-scf  \
	nIterations	10000 \
	energyDiffThreshold	1e-08 \
	residualThreshold	1e-07 \
	mixFraction	0.5 \
	qMetric	0.8 \
	history	10 \
	nEigSteps	2 \
	eigDiffThreshold	1e-08 \
	mixedVariable	Density \
	qKerker	0.8 \
	qKappa	-1 \
	verbose	no \
	mixFractionMag	1.5
exchange-regularization WignerSeitzTruncated
fluid None
fluid-ex-corr (null) lda-PZ
fluid-gummel-loop 10 1.000000e-05
fluid-minimize  \
	dirUpdateScheme      PolakRibiere \
	linminMethod         DirUpdateRecommended \
	nIterations          100 \
	history              15 \
	knormThreshold       0 \
	energyDiffThreshold  0 \
	nEnergyDiff          2 \
	alphaTstart          1 \
	alphaTmin            1e-10 \
	updateTestStepSize   yes \
	alphaTreduceFactor   0.1 \
	alphaTincreaseFactor 3 \
	nAlphaAdjustMax      3 \
	wolfeEnergy          0.0001 \
	wolfeGradient        0.9 \
	fdTest               no
fluid-solvent H2O 55.338 ScalarEOS \
	epsBulk 78.4 \
	pMol 0.92466 \
	epsInf 1.77 \
	Pvap 1.06736e-10 \
	sigmaBulk 4.62e-05 \
	Rvdw 2.61727 \
	Res 1.42 \
	tauNuc 343133 \
	poleEl 15 7 1
forces-output-coords Positions
ion Li   0.000000000000000   0.000000000000000   0.000000000000000 0
ion-species SG15/$ID_ONCV_PBE.upf
ion-width 0
ionic-minimize  \
	dirUpdateScheme      L-BFGS \
	linminMethod         DirUpdateRecommended \
	nIterations          0 \
	history              15 \
	knormThreshold       0.0001 \
	energyDiffThreshold  1e-06 \
	nEnergyDiff          2 \
	alphaTstart          1 \
	alphaTmin            1e-10 \
	updateTestStepSize   yes \
	alphaTreduceFactor   0.1 \
	alphaTincreaseFactor 3 \
	nAlphaAdjustMax      3 \
	wolfeEnergy          0.0001 \
	wolfeGradient        0.9 \
	fdTest               no
kpoint   0.000000000000   0.000000000000   0.000000000000  1.00000000000000
kpoint-folding 12 12 1 
latt-move-scale 1 1 1
latt-scale 4 4 1 
lattice  \
	   4.727486978767153   -2.363743489383575    0.000000000000000  \
	  -0.000000000000000    4.094123819672498    0.000000000000000  \
	   0.000000000000000    0.000000000000000   40.000000000000000 
lattice-minimize  \
	dirUpdateScheme      L-BFGS \
	linminMethod         DirUpdateRecommended \
	nIterations          0 \
	history              15 \
	knormThreshold       0 \
	energyDiffThreshold  1e-06 \
	nEnergyDiff          2 \
	alphaTstart          1 \
	alphaTmin            1e-10 \
	updateTestStepSize   yes \
	alphaTreduceFactor   0.1 \
	alphaTincreaseFactor 3 \
	nAlphaAdjustMax      3 \
	wolfeEnergy          0.0001 \
	wolfeGradient        0.9 \
	fdTest               no
lcao-params -1 1e-06 1e-05
pcm-variant GLSSA13
spintype z-spin
subspace-rotation-factor 1 yes
symmetries automatic
symmetry-threshold 0.0001



---------- Setting up symmetries ----------

Found 24 point-group symmetries of the bravais lattice
Found 24 space-group symmetries with basis
Applied RMS atom displacement 0 bohrs to make symmetries exact.

---------- Initializing the Grid ----------
R = 
[      18.9099     -9.45497            0  ]
[            0      16.3765            0  ]
[            0            0           40  ]
unit cell volume = 12387.1
G =
[   0.332269   0.191835         -0  ]
[          0   0.383671         -0  ]
[         -0         -0    0.15708  ]
Minimum fftbox size, Smin = [  80  80  164  ]
Chosen fftbox size, S = [  80  80  168  ]

---------- Exchange Correlation functional ----------
Initalized PBE GGA exchange.
Initalized PBE GGA correlation.

---------- Setting up pseudopotentials ----------
Width of ionic core gaussian charges (only for fluid interactions / plotting) set to 0

Reading pseudopotential file '/home/gridsan/aligho/DFT/build-Nov24/pseudopotentials/SG15/Li_ONCV_PBE.upf':
  'Li' pseudopotential, 'PBE' functional
  Generated using ONCVPSP code by D. R. Hamann
  Author: Martin Schlipf and Francois Gygi  Date: 150915.
  3 valence electrons, 2 orbitals, 4 projectors, 1328 radial grid points, with lMax = 1
  Transforming local potential to a uniform radial grid of dG=0.02 with 1489 points.
  Transforming nonlocal projectors to a uniform radial grid of dG=0.02 with 432 points.
    1S    l: 0   occupation:  2.0   eigenvalue: -1.905623
    2S    l: 0   occupation:  1.0   eigenvalue: -0.105624
  Transforming atomic orbitals to a uniform radial grid of dG=0.02 with 432 points.
  WARNING: large normalization error in atomic orbital 1s (integral: 0.000000).
  Core radius for overlap checks: 1.63 bohrs.
  Reading pulay file /home/gridsan/aligho/DFT/build-Nov24/pseudopotentials/SG15/Li_ONCV_PBE.pulay ... using dE_dnG = -1.230239e-02 computed for Ecut = 20.

Initialized 1 species with 1 total atoms.

Folded 1 k-points by 12x12x1 to 144 k-points.

---------- Setting up k-points, bands, fillings ----------
Reduced to 19 k-points under symmetry. 
Computing the number of bands and number of electrons
Calculating initial fillings.
nElectrons:   3.000000   nBands: 3   nStates: 38

----- Setting up reduced wavefunction bases (one per k-point) -----
average nbasis = 52924.021 , ideal nbasis = 52918.836

---------- Setting up coulomb interaction ----------
Initialized slab truncation along lattice direction 001

---------- Setting up 2D ewald sum ----------
Optimum gaussian width for ewald sums = 10.498040 bohr.
Real space sums over 289 unit cells with max indices [  8  8  0  ]
Reciprocal space sums over 81 terms with max indices [  4  4  0  ]

---------- Allocating electronic variables ----------
Initializing wave functions:  linear combination of atomic orbitals
Note: number of bands (3) exceeds available atomic orbitals (2)
Li pseudo-atom occupations:   s ( 2 1 )
[d-3-7-3:49994] 18 more processes have sent help message help-mpi-common-cuda.txt / dlopen failed
[d-3-7-3:49994] Set MCA parameter "orte_base_help_aggregate" to 0 to see all help / error messages
[d-3-7-3:49994] 18 more processes have sent help message help-mpi-btl-openib-cpc-base.txt / no cpcs for port
	FillingsUpdate:  mu: -0.093208119  nElectrons: 3.000000  magneticMoment: [ Abs: 1.00000  Tot: +1.00000 ]
LCAOMinimize: Iter:   0  F: -1.3030874183428991  |grad|_K:  3.999e-05  alpha:  1.000e+00
	FillingsUpdate:  mu: -0.093214403  nElectrons: 3.000000  magneticMoment: [ Abs: 1.00000  Tot: +1.00000 ]
LCAOMinimize: Iter:   1  F: -1.3030877080827792  |grad|_K:  1.347e-07  alpha:  1.059e+00  linmin: -1.685e-02  cgtest:  1.963e-02  t[s]:     12.55
LCAOMinimize: Encountered beta<0, resetting CG.
	FillingsUpdate:  mu: -0.093214400  nElectrons: 3.000000  magneticMoment: [ Abs: 1.00000  Tot: +1.00000 ]
LCAOMinimize: Iter:   2  F: -1.3030877080861683  |grad|_K:  4.206e-10  alpha:  1.097e+00  linmin: -3.619e-02  cgtest:  8.801e-02  t[s]:     15.75
LCAOMinimize: Encountered beta<0, resetting CG.
LCAOMinimize: Converged (|Delta F|<1.000000e-06 for 2 iters).


---- Citations for features of the code used in this run ----

   Software package:
      R. Sundararaman, K. Letchworth-Weaver, K.A. Schwarz, D. Gunceler, Y. Ozhabes and T.A. Arias, 'JDFTx: software for joint density-functional theory', SoftwareX 6, 278 (2017)

   gga-PBE exchange-correlation functional:
      J.P. Perdew, K. Burke and M. Ernzerhof, Phys. Rev. Lett. 77, 3865 (1996)

   Pseudopotentials:
      M Schlipf and F Gygi, Comput. Phys. Commun. 196, 36 (2015)

   Truncated Coulomb potentials:
      R. Sundararaman and T.A. Arias, Phys. Rev. B 87, 165122 (2013)

This list may not be complete. Please suggest additional citations or
report any other bugs at https://github.com/shankar1729/jdftx/issues

Initialization completed successfully at t[s]:     15.87


-------- Electronic minimization -----------
Will mix electronic density at each iteration.
	FillingsUpdate:  mu: -0.093214400  nElectrons: 3.000000  magneticMoment: [ Abs: 1.00000  Tot: +1.00000 ]
	FillingsUpdate:  mu: -0.800000000  nElectrons: 3.000000  magneticMoment: [ Abs: 1.00000  Tot: +1.00000 ]
SCF: Cycle:  0   F: -6.895005890891940   dF: -5.592e+00   |Residual|: 1.230e+00   |deigs|: 4.155e+00  t[s]:     21.41
	FillingsUpdate:  mu: -0.800000000  nElectrons: 3.000000  magneticMoment: [ Abs: 1.71438  Tot: +1.00000 ]
SCF: Cycle:  1   F: -6.915252117290731   dF: -2.025e-02   |Residual|: 7.665e-01   |deigs|: 2.758e-01  t[s]:     25.88
	FillingsUpdate:  mu: -0.400000000  nElectrons: 3.000000  magneticMoment: [ Abs: 2.21312  Tot: +1.00000 ]
SCF: Cycle:  2   F: -7.040996389980687   dF: -1.257e-01   |Residual|: 3.227e-01   |deigs|: 7.021e-01  t[s]:     30.54
	FillingsUpdate:  mu: -0.400000000  nElectrons: 3.000000  magneticMoment: [ Abs: 1.89924  Tot: +1.00000 ]
SCF: Cycle:  3   F: -7.041373488576220   dF: -3.771e-04   |Residual|: 1.422e-01   |deigs|: 9.559e-02  t[s]:     35.18
	FillingsUpdate:  mu: -0.400000000  nElectrons: 3.000000  magneticMoment: [ Abs: 1.66547  Tot: +1.00000 ]
SCF: Cycle:  4   F: -7.047737980048269   dF: -6.364e-03   |Residual|: 3.602e-02   |deigs|: 5.600e-02  t[s]:     39.88
	FillingsUpdate:  mu: -0.200000000  nElectrons: 3.000000  magneticMoment: [ Abs: 1.60983  Tot: +1.00000 ]
SCF: Cycle:  5   F: -7.049416329026208   dF: -1.678e-03   |Residual|: 5.052e-02   |deigs|: 2.054e-02  t[s]:     44.74
	FillingsUpdate:  mu: -0.200000000  nElectrons: 3.000000  magneticMoment: [ Abs: 1.38365  Tot: +1.00000 ]
SCF: Cycle:  6   F: -7.051270525213178   dF: -1.854e-03   |Residual|: 3.309e-02   |deigs|: 4.169e-02  t[s]:     49.73
	FillingsUpdate:  mu: -0.200000000  nElectrons: 3.000000  magneticMoment: [ Abs: 1.27066  Tot: +1.00000 ]
SCF: Cycle:  7   F: -7.052881463128662   dF: -1.611e-03   |Residual|: 2.368e-02   |deigs|: 3.644e-02  t[s]:     54.82
	FillingsUpdate:  mu: -0.200000000  nElectrons: 3.000000  magneticMoment: [ Abs: 1.19708  Tot: +1.00000 ]
SCF: Cycle:  8   F: -7.053625062605125   dF: -7.436e-04   |Residual|: 2.876e-02   |deigs|: 7.182e-03  t[s]:     60.02
	FillingsUpdate:  mu: -0.200000000  nElectrons: 3.000000  magneticMoment: [ Abs: 1.13800  Tot: +1.00000 ]
SCF: Cycle:  9   F: -7.054158502211738   dF: -5.334e-04   |Residual|: 1.254e-02   |deigs|: 1.067e-02  t[s]:     65.32
	FillingsUpdate:  mu: -0.200000000  nElectrons: 3.000000  magneticMoment: [ Abs: 1.06466  Tot: +1.00000 ]
SCF: Cycle: 10   F: -7.054426304671133   dF: -2.678e-04   |Residual|: 3.417e-02   |deigs|: 1.366e-02  t[s]:     70.74
	FillingsUpdate:  mu: -0.200000000  nElectrons: 3.000000  magneticMoment: [ Abs: 1.06719  Tot: +1.00000 ]
SCF: Cycle: 11   F: -7.054555395057765   dF: -1.291e-04   |Residual|: 9.661e-03   |deigs|: 1.819e-02  t[s]:     76.21
	FillingsUpdate:  mu: -0.200000000  nElectrons: 3.000000  magneticMoment: [ Abs: 1.13085  Tot: +1.00000 ]
SCF: Cycle: 12   F: -7.054681113263371   dF: -1.257e-04   |Residual|: 8.899e-03   |deigs|: 1.178e-02  t[s]:     81.64
	FillingsUpdate:  mu: -0.100000000  nElectrons: 3.000000  magneticMoment: [ Abs: 1.17522  Tot: +1.00000 ]
SCF: Cycle: 13   F: -7.054728785216287   dF: -4.767e-05   |Residual|: 6.658e-03   |deigs|: 1.499e-02  t[s]:     87.00
	FillingsUpdate:  mu: -0.100000000  nElectrons: 3.000000  magneticMoment: [ Abs: 1.18235  Tot: +1.00000 ]
SCF: Cycle: 14   F: -7.054713020259522   dF: +1.576e-05   |Residual|: 5.798e-03   |deigs|: 9.435e-03  t[s]:     92.37
	FillingsUpdate:  mu: -0.100000000  nElectrons: 3.000000  magneticMoment: [ Abs: 1.16954  Tot: +1.00000 ]
SCF: Cycle: 15   F: -7.054769485248999   dF: -5.646e-05   |Residual|: 5.085e-03   |deigs|: 5.869e-03  t[s]:     97.79
	FillingsUpdate:  mu: -0.100000000  nElectrons: 3.000000  magneticMoment: [ Abs: 1.12599  Tot: +1.00000 ]
SCF: Cycle: 16   F: -7.054775977368086   dF: -6.492e-06   |Residual|: 4.130e-03   |deigs|: 7.930e-03  t[s]:    103.19
	FillingsUpdate:  mu: -0.100000000  nElectrons: 3.000000  magneticMoment: [ Abs: 1.08902  Tot: +1.00000 ]
SCF: Cycle: 17   F: -7.054763970346500   dF: +1.201e-05   |Residual|: 3.778e-03   |deigs|: 5.339e-03  t[s]:    108.65
	FillingsUpdate:  mu: -0.100000000  nElectrons: 3.000000  magneticMoment: [ Abs: 1.05677  Tot: +1.00000 ]
SCF: Cycle: 18   F: -7.054808025005091   dF: -4.405e-05   |Residual|: 2.638e-03   |deigs|: 6.302e-03  t[s]:    114.09
	FillingsUpdate:  mu: -0.100000000  nElectrons: 3.000000  magneticMoment: [ Abs: 1.03788  Tot: +1.00000 ]
SCF: Cycle: 19   F: -7.054852424709724   dF: -4.440e-05   |Residual|: 1.865e-03   |deigs|: 3.819e-03  t[s]:    119.48
	FillingsUpdate:  mu: -0.100000000  nElectrons: 3.000000  magneticMoment: [ Abs: 1.03390  Tot: +1.00000 ]
SCF: Cycle: 20   F: -7.054868408523893   dF: -1.598e-05   |Residual|: 1.292e-03   |deigs|: 2.084e-03  t[s]:    124.91
	FillingsUpdate:  mu: -0.100000000  nElectrons: 3.000000  magneticMoment: [ Abs: 1.02481  Tot: +1.00000 ]
SCF: Cycle: 21   F: -7.054875863881182   dF: -7.455e-06   |Residual|: 8.998e-04   |deigs|: 2.002e-03  t[s]:    130.38
	FillingsUpdate:  mu: -0.100000000  nElectrons: 3.000000  magneticMoment: [ Abs: 1.01675  Tot: +1.00000 ]
SCF: Cycle: 22   F: -7.054877451902250   dF: -1.588e-06   |Residual|: 6.853e-04   |deigs|: 1.988e-03  t[s]:    135.86
	FillingsUpdate:  mu: -0.100000000  nElectrons: 3.000000  magneticMoment: [ Abs: 1.00672  Tot: +1.00000 ]
SCF: Cycle: 23   F: -7.054880684158649   dF: -3.232e-06   |Residual|: 3.760e-04   |deigs|: 8.769e-04  t[s]:    141.25
	FillingsUpdate:  mu: -0.100000000  nElectrons: 3.000000  magneticMoment: [ Abs: 1.00312  Tot: +1.00000 ]
SCF: Cycle: 24   F: -7.054881584626888   dF: -9.005e-07   |Residual|: 2.795e-04   |deigs|: 2.045e-03  t[s]:    146.64
	FillingsUpdate:  mu: -0.100000000  nElectrons: 3.000000  magneticMoment: [ Abs: 1.00240  Tot: +1.00000 ]
SCF: Cycle: 25   F: -7.054881830909940   dF: -2.463e-07   |Residual|: 1.516e-04   |deigs|: 3.084e-03  t[s]:    152.10
	FillingsUpdate:  mu: -0.100000000  nElectrons: 3.000000  magneticMoment: [ Abs: 1.00175  Tot: +1.00000 ]
SCF: Cycle: 26   F: -7.054881915778859   dF: -8.487e-08   |Residual|: 1.119e-04   |deigs|: 2.882e-04  t[s]:    157.54
	FillingsUpdate:  mu: -0.100000000  nElectrons: 3.000000  magneticMoment: [ Abs: 1.00140  Tot: +1.00000 ]
SCF: Cycle: 27   F: -7.054881909590932   dF: +6.188e-09   |Residual|: 8.702e-05   |deigs|: 2.528e-03  t[s]:    162.91
	FillingsUpdate:  mu: -0.100000000  nElectrons: 3.000000  magneticMoment: [ Abs: 1.00127  Tot: +1.00000 ]
SCF: Cycle: 28   F: -7.054881951224349   dF: -4.163e-08   |Residual|: 7.096e-05   |deigs|: 1.437e-03  t[s]:    168.33
	FillingsUpdate:  mu: -0.100000000  nElectrons: 3.000000  magneticMoment: [ Abs: 1.00096  Tot: +1.00000 ]
SCF: Cycle: 29   F: -7.054881991633799   dF: -4.041e-08   |Residual|: 4.977e-05   |deigs|: 1.941e-03  t[s]:    173.77
	FillingsUpdate:  mu: -0.100000000  nElectrons: 3.000000  magneticMoment: [ Abs: 1.00070  Tot: +1.00000 ]
SCF: Cycle: 30   F: -7.054882013992659   dF: -2.236e-08   |Residual|: 3.439e-05   |deigs|: 4.974e-04  t[s]:    179.18
	FillingsUpdate:  mu: -0.100000000  nElectrons: 3.000000  magneticMoment: [ Abs: 1.00056  Tot: +1.00000 ]
SCF: Cycle: 31   F: -7.054882017242717   dF: -3.250e-09   |Residual|: 2.636e-05   |deigs|: 1.505e-03  t[s]:    184.59
	FillingsUpdate:  mu: -0.100000000  nElectrons: 3.000000  magneticMoment: [ Abs: 1.00038  Tot: +1.00000 ]
SCF: Cycle: 32   F: -7.054882018366001   dF: -1.123e-09   |Residual|: 1.949e-05   |deigs|: 4.007e-03  t[s]:    189.97
SCF: Converged (|Delta E|<1.000000e-08 for 2 iters).


# Ionic positions in lattice coordinates:
ion Li   0.000000000000000   0.000000000000000   0.000000000000000 0

# Forces in Lattice coordinates:
force Li  -0.000000000000000   0.000000000000000   0.000000000000000 0

# Energy components:
   Eewald =       -1.0026681166851483
       EH =        2.5689502039776952
     Eloc =       -8.2524378947330561
      Enl =       -3.6072154643329823
   Epulay =        0.0000051497655618
      Exc =       -1.5503151336225085
       KE =        4.7887992372644366
-------------------------------------
     Etot =       -7.0548820183660013
       TS =        0.0000000000000000
-------------------------------------
        F =       -7.0548820183660013

IonicMinimize: Iter:   0  F: -7.054882018366001  |grad|_K:  0.000e+00  t[s]:    190.21
IonicMinimize: Converged (|grad|_K<1.000000e-04).

#--- Lowdin population analysis ---
# oxidation-state Li +2.058
# magnetic-moments Li +0.929

End date and time: Sat Feb  5 23:19:28 2022  (Duration: 0-0:03:10.24)
Done!
