The alkali metal is Li
scale=2
magnetization=0.94
--------------------------------------------------------------------------
The library attempted to open the following supporting CUDA libraries,
but each of them failed.  CUDA-aware support is disabled.
libcuda.so.1: cannot open shared object file: No such file or directory
libcuda.dylib: cannot open shared object file: No such file or directory
/usr/lib64/libcuda.so.1: cannot open shared object file: No such file or directory
/usr/lib64/libcuda.dylib: cannot open shared object file: No such file or directory
If you are not interested in CUDA-aware support, then run with
--mca opal_warn_on_missing_libcuda 0 to suppress this message.  If you are interested
in CUDA-aware support, then try setting LD_LIBRARY_PATH to the location
of libcuda.so.1 to get passed this issue.
--------------------------------------------------------------------------
--------------------------------------------------------------------------
No OpenFabrics connection schemes reported that they were able to be
used on a specific port.  As such, the openib BTL (OpenFabrics
support) will be disabled for this port.

  Local host:           d-6-13-4
  Local device:         mlx5_1
  Local port:           1
  CPCs attempted:       rdmacm, udcm
--------------------------------------------------------------------------

*************** JDFTx 1.6.0 (git hash 42ebbcc2) ***************

Start date and time: Sat Feb  5 23:13:02 2022
Executable jdftx with command-line: -i Alkali.in
Running on hosts (process indices):  d-6-13-4 (0-18)
Divided in process groups (process indices):  0 (0)  1 (1)  2 (2)  3 (3)  4 (4)  5 (5)  6 (6)  7 (7)  8 (8)  9 (9)  10 (10)  11 (11)  12 (12)  13 (13)  14 (14)  15 (15)  16 (16)  17 (17)  18 (18)
Resource initialization completed at t[s]:      0.00
Run totals: 19 processes, 48 threads, 0 GPUs


Input parsed successfully to the following command list (including defaults):

basis kpoint-dependent
coords-type Lattice
core-overlap-check vector
coulomb-interaction Slab 001
davidson-band-ratio 1.1
dump End None
dump-name $INPUT.$VAR
elec-cutoff 20
elec-eigen-algo Davidson
elec-ex-corr gga-PBE
elec-initial-magnetization 0.940000 yes
elec-smearing Fermi 1e-05
electronic-minimize  \
	dirUpdateScheme      FletcherReeves \
	linminMethod         DirUpdateRecommended \
	nIterations          100 \
	history              15 \
	knormThreshold       0 \
	energyDiffThreshold  1e-08 \
	nEnergyDiff          2 \
	alphaTstart          1 \
	alphaTmin            1e-10 \
	updateTestStepSize   yes \
	alphaTreduceFactor   0.1 \
	alphaTincreaseFactor 3 \
	nAlphaAdjustMax      3 \
	wolfeEnergy          0.0001 \
	wolfeGradient        0.9 \
	fdTest               no
electronic-scf  \
	nIterations	10000 \
	energyDiffThreshold	1e-08 \
	residualThreshold	1e-07 \
	mixFraction	0.5 \
	qMetric	0.8 \
	history	10 \
	nEigSteps	2 \
	eigDiffThreshold	1e-08 \
	mixedVariable	Density \
	qKerker	0.8 \
	qKappa	-1 \
	verbose	no \
	mixFractionMag	1.5
exchange-regularization WignerSeitzTruncated
fluid None
fluid-ex-corr (null) lda-PZ
fluid-gummel-loop 10 1.000000e-05
fluid-minimize  \
	dirUpdateScheme      PolakRibiere \
	linminMethod         DirUpdateRecommended \
	nIterations          100 \
	history              15 \
	knormThreshold       0 \
	energyDiffThreshold  0 \
	nEnergyDiff          2 \
	alphaTstart          1 \
	alphaTmin            1e-10 \
	updateTestStepSize   yes \
	alphaTreduceFactor   0.1 \
	alphaTincreaseFactor 3 \
	nAlphaAdjustMax      3 \
	wolfeEnergy          0.0001 \
	wolfeGradient        0.9 \
	fdTest               no
fluid-solvent H2O 55.338 ScalarEOS \
	epsBulk 78.4 \
	pMol 0.92466 \
	epsInf 1.77 \
	Pvap 1.06736e-10 \
	sigmaBulk 4.62e-05 \
	Rvdw 2.61727 \
	Res 1.42 \
	tauNuc 343133 \
	poleEl 15 7 1
forces-output-coords Positions
ion Li   0.000000000000000   0.000000000000000   0.000000000000000 0
ion-species SG15/$ID_ONCV_PBE.upf
ion-width 0
ionic-minimize  \
	dirUpdateScheme      L-BFGS \
	linminMethod         DirUpdateRecommended \
	nIterations          0 \
	history              15 \
	knormThreshold       0.0001 \
	energyDiffThreshold  1e-06 \
	nEnergyDiff          2 \
	alphaTstart          1 \
	alphaTmin            1e-10 \
	updateTestStepSize   yes \
	alphaTreduceFactor   0.1 \
	alphaTincreaseFactor 3 \
	nAlphaAdjustMax      3 \
	wolfeEnergy          0.0001 \
	wolfeGradient        0.9 \
	fdTest               no
kpoint   0.000000000000   0.000000000000   0.000000000000  1.00000000000000
kpoint-folding 12 12 1 
latt-move-scale 1 1 1
latt-scale 2 2 1 
lattice  \
	   4.727486978767153   -2.363743489383575    0.000000000000000  \
	  -0.000000000000000    4.094123819672498    0.000000000000000  \
	   0.000000000000000    0.000000000000000   40.000000000000000 
lattice-minimize  \
	dirUpdateScheme      L-BFGS \
	linminMethod         DirUpdateRecommended \
	nIterations          0 \
	history              15 \
	knormThreshold       0 \
	energyDiffThreshold  1e-06 \
	nEnergyDiff          2 \
	alphaTstart          1 \
	alphaTmin            1e-10 \
	updateTestStepSize   yes \
	alphaTreduceFactor   0.1 \
	alphaTincreaseFactor 3 \
	nAlphaAdjustMax      3 \
	wolfeEnergy          0.0001 \
	wolfeGradient        0.9 \
	fdTest               no
lcao-params -1 1e-06 1e-05
pcm-variant GLSSA13
spintype z-spin
subspace-rotation-factor 1 yes
symmetries automatic
symmetry-threshold 0.0001



---------- Setting up symmetries ----------

Found 24 point-group symmetries of the bravais lattice
Found 24 space-group symmetries with basis
Applied RMS atom displacement 0 bohrs to make symmetries exact.

---------- Initializing the Grid ----------
R = 
[      9.45497     -4.72749            0  ]
[            0      8.18825            0  ]
[            0            0           40  ]
unit cell volume = 3096.79
G =
[   0.664538   0.383671         -0  ]
[          0   0.767342         -0  ]
[         -0         -0    0.15708  ]
Minimum fftbox size, Smin = [  40  40  164  ]
Chosen fftbox size, S = [  40  40  168  ]

---------- Exchange Correlation functional ----------
Initalized PBE GGA exchange.
Initalized PBE GGA correlation.

---------- Setting up pseudopotentials ----------
Width of ionic core gaussian charges (only for fluid interactions / plotting) set to 0

Reading pseudopotential file '/home/gridsan/aligho/DFT/build-Nov24/pseudopotentials/SG15/Li_ONCV_PBE.upf':
  'Li' pseudopotential, 'PBE' functional
  Generated using ONCVPSP code by D. R. Hamann
  Author: Martin Schlipf and Francois Gygi  Date: 150915.
  3 valence electrons, 2 orbitals, 4 projectors, 1328 radial grid points, with lMax = 1
  Transforming local potential to a uniform radial grid of dG=0.02 with 1489 points.
  Transforming nonlocal projectors to a uniform radial grid of dG=0.02 with 432 points.
    1S    l: 0   occupation:  2.0   eigenvalue: -1.905623
    2S    l: 0   occupation:  1.0   eigenvalue: -0.105624
  Transforming atomic orbitals to a uniform radial grid of dG=0.02 with 432 points.
  WARNING: large normalization error in atomic orbital 1s (integral: 0.000000).
  Core radius for overlap checks: 1.63 bohrs.
  Reading pulay file /home/gridsan/aligho/DFT/build-Nov24/pseudopotentials/SG15/Li_ONCV_PBE.pulay ... using dE_dnG = -1.230239e-02 computed for Ecut = 20.

Initialized 1 species with 1 total atoms.

Folded 1 k-points by 12x12x1 to 144 k-points.

---------- Setting up k-points, bands, fillings ----------
Reduced to 19 k-points under symmetry. 
Computing the number of bands and number of electrons
Calculating initial fillings.
nElectrons:   3.000000   nBands: 3   nStates: 38

----- Setting up reduced wavefunction bases (one per k-point) -----
average nbasis = 13230.521 , ideal nbasis = 13229.709

---------- Setting up coulomb interaction ----------
Initialized slab truncation along lattice direction 001

---------- Setting up 2D ewald sum ----------
Optimum gaussian width for ewald sums = 5.249020 bohr.
Real space sums over 289 unit cells with max indices [  8  8  0  ]
Reciprocal space sums over 81 terms with max indices [  4  4  0  ]

---------- Allocating electronic variables ----------
Initializing wave functions:  linear combination of atomic orbitals
Note: number of bands (3) exceeds available atomic orbitals (2)
Li pseudo-atom occupations:   s ( 2 1 )
	FillingsUpdate:  mu: +0.305971001  nElectrons: 3.000000  magneticMoment: [ Abs: 0.94000  Tot: +0.94000 ]
LCAOMinimize: Iter:   0  F: -1.1409320512719927  |grad|_K:  4.828e-05  alpha:  1.000e+00
	FillingsUpdate:  mu: +0.305970237  nElectrons: 3.000000  magneticMoment: [ Abs: 0.94000  Tot: +0.94000 ]
LCAOMinimize: Iter:   1  F: -1.1409324736100208  |grad|_K:  6.022e-07  alpha:  1.060e+00  linmin: -9.562e-04  cgtest:  6.524e-03  t[s]:      3.86
[d-6-13-4:13865] 18 more processes have sent help message help-mpi-common-cuda.txt / dlopen failed
[d-6-13-4:13865] Set MCA parameter "orte_base_help_aggregate" to 0 to see all help / error messages
[d-6-13-4:13865] 18 more processes have sent help message help-mpi-btl-openib-cpc-base.txt / no cpcs for port
	FillingsUpdate:  mu: +0.305970251  nElectrons: 3.000000  magneticMoment: [ Abs: 0.94000  Tot: +0.94000 ]
LCAOMinimize: Iter:   2  F: -1.1409324736770903  |grad|_K:  3.201e-08  alpha:  1.093e+00  linmin:  1.250e-02  cgtest: -5.089e-01  t[s]:      4.93
LCAOMinimize: Converged (|Delta F|<1.000000e-06 for 2 iters).


---- Citations for features of the code used in this run ----

   Software package:
      R. Sundararaman, K. Letchworth-Weaver, K.A. Schwarz, D. Gunceler, Y. Ozhabes and T.A. Arias, 'JDFTx: software for joint density-functional theory', SoftwareX 6, 278 (2017)

   gga-PBE exchange-correlation functional:
      J.P. Perdew, K. Burke and M. Ernzerhof, Phys. Rev. Lett. 77, 3865 (1996)

   Pseudopotentials:
      M Schlipf and F Gygi, Comput. Phys. Commun. 196, 36 (2015)

   Truncated Coulomb potentials:
      R. Sundararaman and T.A. Arias, Phys. Rev. B 87, 165122 (2013)

This list may not be complete. Please suggest additional citations or
report any other bugs at https://github.com/shankar1729/jdftx/issues

Initialization completed successfully at t[s]:      4.99


-------- Electronic minimization -----------
Will mix electronic density at each iteration.
	FillingsUpdate:  mu: +0.305970251  nElectrons: 3.000000  magneticMoment: [ Abs: 0.94000  Tot: +0.94000 ]
	FillingsUpdate:  mu: -1.014094736  nElectrons: 3.000000  magneticMoment: [ Abs: 0.94000  Tot: +0.94000 ]
SCF: Cycle:  0   F: -6.834409400200382   dF: -5.693e+00   |Residual|: 1.175e+00   |deigs|: 4.169e+00  t[s]:      6.67
	FillingsUpdate:  mu: -0.894425950  nElectrons: 3.000000  magneticMoment: [ Abs: 1.49070  Tot: +0.94000 ]
SCF: Cycle:  1   F: -6.924731242097603   dF: -9.032e-02   |Residual|: 7.787e-01   |deigs|: 2.360e-01  t[s]:      7.98
	FillingsUpdate:  mu: -0.699819902  nElectrons: 3.000000  magneticMoment: [ Abs: 1.88370  Tot: +0.94000 ]
SCF: Cycle:  2   F: -7.039572917717284   dF: -1.148e-01   |Residual|: 4.102e-01   |deigs|: 7.699e-01  t[s]:      9.33
	FillingsUpdate:  mu: -0.708816481  nElectrons: 3.000000  magneticMoment: [ Abs: 1.51670  Tot: +0.94000 ]
SCF: Cycle:  3   F: -7.045953706596007   dF: -6.381e-03   |Residual|: 1.596e-01   |deigs|: 1.415e-01  t[s]:     10.80
	FillingsUpdate:  mu: -0.645472216  nElectrons: 3.000000  magneticMoment: [ Abs: 1.20932  Tot: +0.94000 ]
SCF: Cycle:  4   F: -7.047705893142301   dF: -1.752e-03   |Residual|: 4.285e-02   |deigs|: 5.030e-02  t[s]:     12.15
	FillingsUpdate:  mu: -0.618235599  nElectrons: 3.000000  magneticMoment: [ Abs: 1.18039  Tot: +0.94000 ]
SCF: Cycle:  5   F: -7.048955889753870   dF: -1.250e-03   |Residual|: 5.882e-02   |deigs|: 2.242e-02  t[s]:     13.66
	FillingsUpdate:  mu: -0.494684455  nElectrons: 3.000000  magneticMoment: [ Abs: 1.23700  Tot: +0.94000 ]
SCF: Cycle:  6   F: -7.053278185046700   dF: -4.322e-03   |Residual|: 8.429e-02   |deigs|: 1.259e-01  t[s]:     15.18
	FillingsUpdate:  mu: -0.458615956  nElectrons: 3.000000  magneticMoment: [ Abs: 1.23485  Tot: +0.94000 ]
SCF: Cycle:  7   F: -7.055274840702999   dF: -1.997e-03   |Residual|: 4.007e-02   |deigs|: 6.509e-02  t[s]:     16.69
	FillingsUpdate:  mu: -0.422597184  nElectrons: 3.000000  magneticMoment: [ Abs: 1.17764  Tot: +0.94000 ]
SCF: Cycle:  8   F: -7.056777146404348   dF: -1.502e-03   |Residual|: 3.470e-02   |deigs|: 3.359e-02  t[s]:     18.22
	FillingsUpdate:  mu: -0.379952069  nElectrons: 3.000000  magneticMoment: [ Abs: 1.10199  Tot: +0.94000 ]
SCF: Cycle:  9   F: -7.058462471966117   dF: -1.685e-03   |Residual|: 2.116e-02   |deigs|: 3.711e-02  t[s]:     19.72
	FillingsUpdate:  mu: -0.343456751  nElectrons: 3.000000  magneticMoment: [ Abs: 1.09373  Tot: +0.94000 ]
SCF: Cycle: 10   F: -7.059048198311349   dF: -5.857e-04   |Residual|: 2.644e-02   |deigs|: 3.182e-02  t[s]:     21.25
	FillingsUpdate:  mu: -0.301912127  nElectrons: 3.000000  magneticMoment: [ Abs: 1.15227  Tot: +0.94000 ]
SCF: Cycle: 11   F: -7.059426574918088   dF: -3.784e-04   |Residual|: 1.494e-02   |deigs|: 4.823e-02  t[s]:     22.74
	FillingsUpdate:  mu: -0.262950856  nElectrons: 3.000000  magneticMoment: [ Abs: 1.16621  Tot: +0.94000 ]
SCF: Cycle: 12   F: -7.059662644325705   dF: -2.361e-04   |Residual|: 1.397e-02   |deigs|: 3.831e-02  t[s]:     24.34
	FillingsUpdate:  mu: -0.222885435  nElectrons: 3.000000  magneticMoment: [ Abs: 1.13209  Tot: +0.94000 ]
SCF: Cycle: 13   F: -7.059817826600831   dF: -1.552e-04   |Residual|: 1.232e-02   |deigs|: 4.096e-02  t[s]:     25.92
	FillingsUpdate:  mu: -0.167638026  nElectrons: 3.000000  magneticMoment: [ Abs: 1.06251  Tot: +0.94000 ]
SCF: Cycle: 14   F: -7.059944317060165   dF: -1.265e-04   |Residual|: 1.017e-02   |deigs|: 5.430e-02  t[s]:     27.47
	FillingsUpdate:  mu: -0.133074326  nElectrons: 3.000000  magneticMoment: [ Abs: 1.02847  Tot: +0.94000 ]
SCF: Cycle: 15   F: -7.060214719071300   dF: -2.704e-04   |Residual|: 7.841e-03   |deigs|: 3.399e-02  t[s]:     28.97
	FillingsUpdate:  mu: -0.116499792  nElectrons: 3.000000  magneticMoment: [ Abs: 1.00498  Tot: +0.94000 ]
SCF: Cycle: 16   F: -7.060553895590854   dF: -3.392e-04   |Residual|: 5.444e-03   |deigs|: 1.853e-02  t[s]:     30.60
	FillingsUpdate:  mu: -0.105514766  nElectrons: 3.000000  magneticMoment: [ Abs: 0.99162  Tot: +0.94000 ]
SCF: Cycle: 17   F: -7.060664833912673   dF: -1.109e-04   |Residual|: 3.629e-03   |deigs|: 1.119e-02  t[s]:     32.14
	FillingsUpdate:  mu: -0.100634762  nElectrons: 3.000000  magneticMoment: [ Abs: 0.97823  Tot: +0.94000 ]
SCF: Cycle: 18   F: -7.060708535699490   dF: -4.370e-05   |Residual|: 2.107e-03   |deigs|: 5.230e-03  t[s]:     33.64
	FillingsUpdate:  mu: -0.101083129  nElectrons: 3.000000  magneticMoment: [ Abs: 0.96810  Tot: +0.94000 ]
SCF: Cycle: 19   F: -7.060715302937962   dF: -6.767e-06   |Residual|: 1.357e-03   |deigs|: 1.930e-03  t[s]:     35.15
	FillingsUpdate:  mu: -0.101101368  nElectrons: 3.000000  magneticMoment: [ Abs: 0.96165  Tot: +0.94000 ]
SCF: Cycle: 20   F: -7.060726638716727   dF: -1.134e-05   |Residual|: 9.882e-04   |deigs|: 8.675e-04  t[s]:     36.74
	FillingsUpdate:  mu: -0.101941653  nElectrons: 3.000000  magneticMoment: [ Abs: 0.95605  Tot: +0.94000 ]
SCF: Cycle: 21   F: -7.060738641508506   dF: -1.200e-05   |Residual|: 7.290e-04   |deigs|: 8.956e-04  t[s]:     38.33
	FillingsUpdate:  mu: -0.102373863  nElectrons: 3.000000  magneticMoment: [ Abs: 0.94974  Tot: +0.94000 ]
SCF: Cycle: 22   F: -7.060742614474854   dF: -3.973e-06   |Residual|: 5.487e-04   |deigs|: 5.673e-04  t[s]:     39.91
	FillingsUpdate:  mu: -0.103235071  nElectrons: 3.000000  magneticMoment: [ Abs: 0.94392  Tot: +0.94000 ]
SCF: Cycle: 23   F: -7.060744446288601   dF: -1.832e-06   |Residual|: 4.625e-04   |deigs|: 8.594e-04  t[s]:     41.51
	FillingsUpdate:  mu: -0.103791480  nElectrons: 3.000000  magneticMoment: [ Abs: 0.94168  Tot: +0.94000 ]
SCF: Cycle: 24   F: -7.060745499832681   dF: -1.054e-06   |Residual|: 3.319e-04   |deigs|: 6.195e-04  t[s]:     43.11
	FillingsUpdate:  mu: -0.104113338  nElectrons: 3.000000  magneticMoment: [ Abs: 0.94037  Tot: +0.94000 ]
SCF: Cycle: 25   F: -7.060746022845177   dF: -5.230e-07   |Residual|: 2.332e-04   |deigs|: 3.874e-04  t[s]:     44.64
	FillingsUpdate:  mu: -0.104362469  nElectrons: 3.000000  magneticMoment: [ Abs: 0.94034  Tot: +0.94000 ]
SCF: Cycle: 26   F: -7.060745957723626   dF: +6.512e-08   |Residual|: 1.514e-04   |deigs|: 3.103e-04  t[s]:     46.16
	FillingsUpdate:  mu: -0.104220920  nElectrons: 3.000000  magneticMoment: [ Abs: 0.94001  Tot: +0.94000 ]
SCF: Cycle: 27   F: -7.060746372945243   dF: -4.152e-07   |Residual|: 1.169e-04   |deigs|: 2.213e-04  t[s]:     47.67
	FillingsUpdate:  mu: -0.104097126  nElectrons: 3.000000  magneticMoment: [ Abs: 0.94000  Tot: +0.94000 ]
SCF: Cycle: 28   F: -7.060746351251892   dF: +2.169e-08   |Residual|: 1.045e-04   |deigs|: 1.295e-04  t[s]:     49.28
	FillingsUpdate:  mu: -0.103749347  nElectrons: 3.000000  magneticMoment: [ Abs: 0.94004  Tot: +0.94000 ]
SCF: Cycle: 29   F: -7.060746341403482   dF: +9.848e-09   |Residual|: 9.066e-05   |deigs|: 3.529e-04  t[s]:     50.86
	FillingsUpdate:  mu: -0.103334095  nElectrons: 3.000000  magneticMoment: [ Abs: 0.94000  Tot: +0.94000 ]
SCF: Cycle: 30   F: -7.060746502999899   dF: -1.616e-07   |Residual|: 5.606e-05   |deigs|: 4.311e-04  t[s]:     52.37
	FillingsUpdate:  mu: -0.103291203  nElectrons: 3.000000  magneticMoment: [ Abs: 0.94002  Tot: +0.94000 ]
SCF: Cycle: 31   F: -7.060746548722023   dF: -4.572e-08   |Residual|: 3.832e-05   |deigs|: 5.412e-05  t[s]:     53.86
	FillingsUpdate:  mu: -0.103277724  nElectrons: 3.000000  magneticMoment: [ Abs: 0.94001  Tot: +0.94000 ]
SCF: Cycle: 32   F: -7.060746563066828   dF: -1.434e-08   |Residual|: 2.278e-05   |deigs|: 4.671e-05  t[s]:     55.38
	FillingsUpdate:  mu: -0.103258858  nElectrons: 3.000000  magneticMoment: [ Abs: 0.94000  Tot: +0.94000 ]
SCF: Cycle: 33   F: -7.060746574267388   dF: -1.120e-08   |Residual|: 1.496e-05   |deigs|: 2.510e-05  t[s]:     56.88
	FillingsUpdate:  mu: -0.103267232  nElectrons: 3.000000  magneticMoment: [ Abs: 0.94000  Tot: +0.94000 ]
SCF: Cycle: 34   F: -7.060746578495125   dF: -4.228e-09   |Residual|: 8.512e-06   |deigs|: 1.554e-05  t[s]:     58.43
	FillingsUpdate:  mu: -0.103271783  nElectrons: 3.000000  magneticMoment: [ Abs: 0.94000  Tot: +0.94000 ]
SCF: Cycle: 35   F: -7.060746579716461   dF: -1.221e-09   |Residual|: 6.908e-06   |deigs|: 5.825e-06  t[s]:     59.98
SCF: Converged (|Delta E|<1.000000e-08 for 2 iters).


# Ionic positions in lattice coordinates:
ion Li   0.000000000000000   0.000000000000000   0.000000000000000 0

# Forces in Lattice coordinates:
force Li  -0.000000000000000  -0.000000000000000   0.000000000000000 0

# Energy components:
   Eewald =       -2.0053362333702967
       EH =        1.5494702325635688
     Eloc =       -6.2140044616017835
      Enl =       -3.5902088754868373
   Epulay =        0.0000032255226020
      Exc =       -1.5478251959201343
       KE =        4.7471551622746180
-------------------------------------
     Etot =       -7.0607461460182623
       TS =        0.0000004336981983
-------------------------------------
        F =       -7.0607465797164606

IonicMinimize: Iter:   0  F: -7.060746579716461  |grad|_K:  0.000e+00  t[s]:     60.05
IonicMinimize: Converged (|grad|_K<1.000000e-04).

#--- Lowdin population analysis ---
# oxidation-state Li +2.264
# magnetic-moments Li +0.666

End date and time: Sat Feb  5 23:14:02 2022  (Duration: 0-0:01:00.07)
Done!
scale=3
magnetization=0.94
--------------------------------------------------------------------------
The library attempted to open the following supporting CUDA libraries,
but each of them failed.  CUDA-aware support is disabled.
libcuda.so.1: cannot open shared object file: No such file or directory
libcuda.dylib: cannot open shared object file: No such file or directory
/usr/lib64/libcuda.so.1: cannot open shared object file: No such file or directory
/usr/lib64/libcuda.dylib: cannot open shared object file: No such file or directory
If you are not interested in CUDA-aware support, then run with
--mca opal_warn_on_missing_libcuda 0 to suppress this message.  If you are interested
in CUDA-aware support, then try setting LD_LIBRARY_PATH to the location
of libcuda.so.1 to get passed this issue.
--------------------------------------------------------------------------
--------------------------------------------------------------------------
No OpenFabrics connection schemes reported that they were able to be
used on a specific port.  As such, the openib BTL (OpenFabrics
support) will be disabled for this port.

  Local host:           d-6-13-4
  Local device:         mlx5_1
  Local port:           1
  CPCs attempted:       rdmacm, udcm
--------------------------------------------------------------------------

*************** JDFTx 1.6.0 (git hash 42ebbcc2) ***************

Start date and time: Sat Feb  5 23:14:03 2022
Executable jdftx with command-line: -i Alkali.in
Running on hosts (process indices):  d-6-13-4 (0-18)
Divided in process groups (process indices):  0 (0)  1 (1)  2 (2)  3 (3)  4 (4)  5 (5)  6 (6)  7 (7)  8 (8)  9 (9)  10 (10)  11 (11)  12 (12)  13 (13)  14 (14)  15 (15)  16 (16)  17 (17)  18 (18)
Resource initialization completed at t[s]:      0.00
Run totals: 19 processes, 48 threads, 0 GPUs


Input parsed successfully to the following command list (including defaults):

basis kpoint-dependent
coords-type Lattice
core-overlap-check vector
coulomb-interaction Slab 001
davidson-band-ratio 1.1
dump End None
dump-name $INPUT.$VAR
elec-cutoff 20
elec-eigen-algo Davidson
elec-ex-corr gga-PBE
elec-initial-magnetization 0.940000 yes
elec-smearing Fermi 1e-05
electronic-minimize  \
	dirUpdateScheme      FletcherReeves \
	linminMethod         DirUpdateRecommended \
	nIterations          100 \
	history              15 \
	knormThreshold       0 \
	energyDiffThreshold  1e-08 \
	nEnergyDiff          2 \
	alphaTstart          1 \
	alphaTmin            1e-10 \
	updateTestStepSize   yes \
	alphaTreduceFactor   0.1 \
	alphaTincreaseFactor 3 \
	nAlphaAdjustMax      3 \
	wolfeEnergy          0.0001 \
	wolfeGradient        0.9 \
	fdTest               no
electronic-scf  \
	nIterations	10000 \
	energyDiffThreshold	1e-08 \
	residualThreshold	1e-07 \
	mixFraction	0.5 \
	qMetric	0.8 \
	history	10 \
	nEigSteps	2 \
	eigDiffThreshold	1e-08 \
	mixedVariable	Density \
	qKerker	0.8 \
	qKappa	-1 \
	verbose	no \
	mixFractionMag	1.5
exchange-regularization WignerSeitzTruncated
fluid None
fluid-ex-corr (null) lda-PZ
fluid-gummel-loop 10 1.000000e-05
fluid-minimize  \
	dirUpdateScheme      PolakRibiere \
	linminMethod         DirUpdateRecommended \
	nIterations          100 \
	history              15 \
	knormThreshold       0 \
	energyDiffThreshold  0 \
	nEnergyDiff          2 \
	alphaTstart          1 \
	alphaTmin            1e-10 \
	updateTestStepSize   yes \
	alphaTreduceFactor   0.1 \
	alphaTincreaseFactor 3 \
	nAlphaAdjustMax      3 \
	wolfeEnergy          0.0001 \
	wolfeGradient        0.9 \
	fdTest               no
fluid-solvent H2O 55.338 ScalarEOS \
	epsBulk 78.4 \
	pMol 0.92466 \
	epsInf 1.77 \
	Pvap 1.06736e-10 \
	sigmaBulk 4.62e-05 \
	Rvdw 2.61727 \
	Res 1.42 \
	tauNuc 343133 \
	poleEl 15 7 1
forces-output-coords Positions
ion Li   0.000000000000000   0.000000000000000   0.000000000000000 0
ion-species SG15/$ID_ONCV_PBE.upf
ion-width 0
ionic-minimize  \
	dirUpdateScheme      L-BFGS \
	linminMethod         DirUpdateRecommended \
	nIterations          0 \
	history              15 \
	knormThreshold       0.0001 \
	energyDiffThreshold  1e-06 \
	nEnergyDiff          2 \
	alphaTstart          1 \
	alphaTmin            1e-10 \
	updateTestStepSize   yes \
	alphaTreduceFactor   0.1 \
	alphaTincreaseFactor 3 \
	nAlphaAdjustMax      3 \
	wolfeEnergy          0.0001 \
	wolfeGradient        0.9 \
	fdTest               no
kpoint   0.000000000000   0.000000000000   0.000000000000  1.00000000000000
kpoint-folding 12 12 1 
latt-move-scale 1 1 1
latt-scale 3 3 1 
lattice  \
	   4.727486978767153   -2.363743489383575    0.000000000000000  \
	  -0.000000000000000    4.094123819672498    0.000000000000000  \
	   0.000000000000000    0.000000000000000   40.000000000000000 
lattice-minimize  \
	dirUpdateScheme      L-BFGS \
	linminMethod         DirUpdateRecommended \
	nIterations          0 \
	history              15 \
	knormThreshold       0 \
	energyDiffThreshold  1e-06 \
	nEnergyDiff          2 \
	alphaTstart          1 \
	alphaTmin            1e-10 \
	updateTestStepSize   yes \
	alphaTreduceFactor   0.1 \
	alphaTincreaseFactor 3 \
	nAlphaAdjustMax      3 \
	wolfeEnergy          0.0001 \
	wolfeGradient        0.9 \
	fdTest               no
lcao-params -1 1e-06 1e-05
pcm-variant GLSSA13
spintype z-spin
subspace-rotation-factor 1 yes
symmetries automatic
symmetry-threshold 0.0001



---------- Setting up symmetries ----------

Found 24 point-group symmetries of the bravais lattice
Found 24 space-group symmetries with basis
Applied RMS atom displacement 0 bohrs to make symmetries exact.

---------- Initializing the Grid ----------
R = 
[      14.1825     -7.09123            0  ]
[            0      12.2824            0  ]
[            0            0           40  ]
unit cell volume = 6967.77
G =
[   0.443025   0.255781         -0  ]
[          0   0.511561         -0  ]
[         -0         -0    0.15708  ]
Minimum fftbox size, Smin = [  60  60  164  ]
Chosen fftbox size, S = [  60  60  168  ]

---------- Exchange Correlation functional ----------
Initalized PBE GGA exchange.
Initalized PBE GGA correlation.

---------- Setting up pseudopotentials ----------
Width of ionic core gaussian charges (only for fluid interactions / plotting) set to 0

Reading pseudopotential file '/home/gridsan/aligho/DFT/build-Nov24/pseudopotentials/SG15/Li_ONCV_PBE.upf':
  'Li' pseudopotential, 'PBE' functional
  Generated using ONCVPSP code by D. R. Hamann
  Author: Martin Schlipf and Francois Gygi  Date: 150915.
  3 valence electrons, 2 orbitals, 4 projectors, 1328 radial grid points, with lMax = 1
  Transforming local potential to a uniform radial grid of dG=0.02 with 1489 points.
  Transforming nonlocal projectors to a uniform radial grid of dG=0.02 with 432 points.
    1S    l: 0   occupation:  2.0   eigenvalue: -1.905623
    2S    l: 0   occupation:  1.0   eigenvalue: -0.105624
  Transforming atomic orbitals to a uniform radial grid of dG=0.02 with 432 points.
  WARNING: large normalization error in atomic orbital 1s (integral: 0.000000).
  Core radius for overlap checks: 1.63 bohrs.
  Reading pulay file /home/gridsan/aligho/DFT/build-Nov24/pseudopotentials/SG15/Li_ONCV_PBE.pulay ... using dE_dnG = -1.230239e-02 computed for Ecut = 20.

Initialized 1 species with 1 total atoms.

Folded 1 k-points by 12x12x1 to 144 k-points.

---------- Setting up k-points, bands, fillings ----------
Reduced to 19 k-points under symmetry. 
Computing the number of bands and number of electrons
Calculating initial fillings.
nElectrons:   3.000000   nBands: 3   nStates: 38

----- Setting up reduced wavefunction bases (one per k-point) -----
average nbasis = 29766.104 , ideal nbasis = 29766.845

---------- Setting up coulomb interaction ----------
Initialized slab truncation along lattice direction 001

---------- Setting up 2D ewald sum ----------
Optimum gaussian width for ewald sums = 7.873530 bohr.
Real space sums over 289 unit cells with max indices [  8  8  0  ]
Reciprocal space sums over 81 terms with max indices [  4  4  0  ]

---------- Allocating electronic variables ----------
Initializing wave functions:  linear combination of atomic orbitals
Note: number of bands (3) exceeds available atomic orbitals (2)
Li pseudo-atom occupations:   s ( 2 1 )
[d-6-13-4:04210] 18 more processes have sent help message help-mpi-common-cuda.txt / dlopen failed
[d-6-13-4:04210] Set MCA parameter "orte_base_help_aggregate" to 0 to see all help / error messages
[d-6-13-4:04210] 18 more processes have sent help message help-mpi-btl-openib-cpc-base.txt / no cpcs for port
	FillingsUpdate:  mu: +0.346631203  nElectrons: 3.000000  magneticMoment: [ Abs: 0.94000  Tot: +0.94000 ]
LCAOMinimize: Iter:   0  F: -1.2775515155787072  |grad|_K:  4.288e-05  alpha:  1.000e+00
	FillingsUpdate:  mu: +0.346630814  nElectrons: 3.000000  magneticMoment: [ Abs: 0.94000  Tot: +0.94000 ]
LCAOMinimize: Iter:   1  F: -1.2775518487583442  |grad|_K:  2.803e-07  alpha:  1.060e+00  linmin: -1.410e-03  cgtest:  9.340e-03  t[s]:      7.57
LCAOMinimize: Encountered beta<0, resetting CG.
	FillingsUpdate:  mu: +0.346630816  nElectrons: 3.000000  magneticMoment: [ Abs: 0.94000  Tot: +0.94000 ]
LCAOMinimize: Iter:   2  F: -1.2775518487761008  |grad|_K:  3.158e-08  alpha:  1.176e+00  linmin:  1.196e-02  cgtest: -9.058e-01  t[s]:      9.57
LCAOMinimize: Converged (|Delta F|<1.000000e-06 for 2 iters).


---- Citations for features of the code used in this run ----

   Software package:
      R. Sundararaman, K. Letchworth-Weaver, K.A. Schwarz, D. Gunceler, Y. Ozhabes and T.A. Arias, 'JDFTx: software for joint density-functional theory', SoftwareX 6, 278 (2017)

   gga-PBE exchange-correlation functional:
      J.P. Perdew, K. Burke and M. Ernzerhof, Phys. Rev. Lett. 77, 3865 (1996)

   Pseudopotentials:
      M Schlipf and F Gygi, Comput. Phys. Commun. 196, 36 (2015)

   Truncated Coulomb potentials:
      R. Sundararaman and T.A. Arias, Phys. Rev. B 87, 165122 (2013)

This list may not be complete. Please suggest additional citations or
report any other bugs at https://github.com/shankar1729/jdftx/issues

Initialization completed successfully at t[s]:      9.66


-------- Electronic minimization -----------
Will mix electronic density at each iteration.
	FillingsUpdate:  mu: +0.346630816  nElectrons: 3.000000  magneticMoment: [ Abs: 0.94000  Tot: +0.94000 ]
	FillingsUpdate:  mu: -0.695711443  nElectrons: 3.000000  magneticMoment: [ Abs: 0.94000  Tot: +0.94000 ]
SCF: Cycle:  0   F: -6.891340638680071   dF: -5.614e+00   |Residual|: 1.223e+00   |deigs|: 4.155e+00  t[s]:     13.13
	FillingsUpdate:  mu: -0.572854302  nElectrons: 3.000000  magneticMoment: [ Abs: 1.49983  Tot: +0.94000 ]
SCF: Cycle:  1   F: -6.915878225247647   dF: -2.454e-02   |Residual|: 7.676e-01   |deigs|: 2.728e-01  t[s]:     15.94
	FillingsUpdate:  mu: -0.385158586  nElectrons: 3.000000  magneticMoment: [ Abs: 2.06300  Tot: +0.94000 ]
SCF: Cycle:  2   F: -7.040512450889024   dF: -1.246e-01   |Residual|: 3.369e-01   |deigs|: 7.104e-01  t[s]:     18.69
	FillingsUpdate:  mu: -0.391310639  nElectrons: 3.000000  magneticMoment: [ Abs: 1.78813  Tot: +0.94000 ]
SCF: Cycle:  3   F: -7.041910592615948   dF: -1.398e-03   |Residual|: 1.548e-01   |deigs|: 9.712e-02  t[s]:     21.52
	FillingsUpdate:  mu: -0.342396282  nElectrons: 3.000000  magneticMoment: [ Abs: 1.47365  Tot: +0.94000 ]
SCF: Cycle:  4   F: -7.046525585328656   dF: -4.615e-03   |Residual|: 3.993e-02   |deigs|: 4.547e-02  t[s]:     24.40
	FillingsUpdate:  mu: -0.316066421  nElectrons: 3.000000  magneticMoment: [ Abs: 1.34777  Tot: +0.94000 ]
SCF: Cycle:  5   F: -7.047624401826137   dF: -1.099e-03   |Residual|: 5.716e-02   |deigs|: 2.625e-02  t[s]:     27.34
	FillingsUpdate:  mu: -0.280021791  nElectrons: 3.000000  magneticMoment: [ Abs: 1.14385  Tot: +0.94000 ]
SCF: Cycle:  6   F: -7.049241983770479   dF: -1.618e-03   |Residual|: 4.128e-02   |deigs|: 4.906e-02  t[s]:     30.41
	FillingsUpdate:  mu: -0.264616622  nElectrons: 3.000000  magneticMoment: [ Abs: 1.10840  Tot: +0.94000 ]
SCF: Cycle:  7   F: -7.050951461359869   dF: -1.709e-03   |Residual|: 2.401e-02   |deigs|: 3.814e-02  t[s]:     33.48
	FillingsUpdate:  mu: -0.251165662  nElectrons: 3.000000  magneticMoment: [ Abs: 1.08742  Tot: +0.94000 ]
SCF: Cycle:  8   F: -7.051767416085819   dF: -8.160e-04   |Residual|: 4.747e-02   |deigs|: 1.903e-02  t[s]:     36.66
	FillingsUpdate:  mu: -0.235875980  nElectrons: 3.000000  magneticMoment: [ Abs: 1.03361  Tot: +0.94000 ]
SCF: Cycle:  9   F: -7.052576722098540   dF: -8.093e-04   |Residual|: 2.383e-02   |deigs|: 1.339e-02  t[s]:     39.85
	FillingsUpdate:  mu: -0.210800738  nElectrons: 3.000000  magneticMoment: [ Abs: 1.07495  Tot: +0.94000 ]
SCF: Cycle: 10   F: -7.052925615188839   dF: -3.489e-04   |Residual|: 5.116e-02   |deigs|: 2.320e-02  t[s]:     43.14
	FillingsUpdate:  mu: -0.191026387  nElectrons: 3.000000  magneticMoment: [ Abs: 1.11814  Tot: +0.94000 ]
SCF: Cycle: 11   F: -7.053120986686494   dF: -1.954e-04   |Residual|: 1.278e-02   |deigs|: 2.703e-02  t[s]:     46.42
	FillingsUpdate:  mu: -0.172545190  nElectrons: 3.000000  magneticMoment: [ Abs: 1.14655  Tot: +0.94000 ]
SCF: Cycle: 12   F: -7.053198960791598   dF: -7.797e-05   |Residual|: 9.457e-03   |deigs|: 1.969e-02  t[s]:     49.70
	FillingsUpdate:  mu: -0.158325038  nElectrons: 3.000000  magneticMoment: [ Abs: 1.14202  Tot: +0.94000 ]
SCF: Cycle: 13   F: -7.053280447731967   dF: -8.149e-05   |Residual|: 8.174e-03   |deigs|: 1.616e-02  t[s]:     52.98
	FillingsUpdate:  mu: -0.141653845  nElectrons: 3.000000  magneticMoment: [ Abs: 1.10297  Tot: +0.94000 ]
SCF: Cycle: 14   F: -7.053299689350907   dF: -1.924e-05   |Residual|: 8.015e-03   |deigs|: 1.684e-02  t[s]:     56.28
	FillingsUpdate:  mu: -0.122275394  nElectrons: 3.000000  magneticMoment: [ Abs: 1.07128  Tot: +0.94000 ]
SCF: Cycle: 15   F: -7.053423621118731   dF: -1.239e-04   |Residual|: 7.287e-03   |deigs|: 2.009e-02  t[s]:     59.58
	FillingsUpdate:  mu: -0.103094439  nElectrons: 3.000000  magneticMoment: [ Abs: 1.01833  Tot: +0.94000 ]
SCF: Cycle: 16   F: -7.053608408015281   dF: -1.848e-04   |Residual|: 4.818e-03   |deigs|: 1.824e-02  t[s]:     62.83
	FillingsUpdate:  mu: -0.097585717  nElectrons: 3.000000  magneticMoment: [ Abs: 0.99366  Tot: +0.94000 ]
SCF: Cycle: 17   F: -7.053711521451671   dF: -1.031e-04   |Residual|: 3.357e-03   |deigs|: 8.212e-03  t[s]:     66.10
	FillingsUpdate:  mu: -0.097708933  nElectrons: 3.000000  magneticMoment: [ Abs: 0.97137  Tot: +0.94000 ]
SCF: Cycle: 18   F: -7.053773368011658   dF: -6.185e-05   |Residual|: 2.175e-03   |deigs|: 1.578e-03  t[s]:     69.35
	FillingsUpdate:  mu: -0.097563289  nElectrons: 3.000000  magneticMoment: [ Abs: 0.96240  Tot: +0.94000 ]
SCF: Cycle: 19   F: -7.053790680754437   dF: -1.731e-05   |Residual|: 1.346e-03   |deigs|: 8.457e-04  t[s]:     72.59
	FillingsUpdate:  mu: -0.097080857  nElectrons: 3.000000  magneticMoment: [ Abs: 0.95723  Tot: +0.94000 ]
SCF: Cycle: 20   F: -7.053798503528150   dF: -7.823e-06   |Residual|: 9.531e-04   |deigs|: 8.314e-04  t[s]:     75.93
	FillingsUpdate:  mu: -0.097217691  nElectrons: 3.000000  magneticMoment: [ Abs: 0.95288  Tot: +0.94000 ]
SCF: Cycle: 21   F: -7.053806733573502   dF: -8.230e-06   |Residual|: 5.843e-04   |deigs|: 7.640e-04  t[s]:     79.22
	FillingsUpdate:  mu: -0.097451175  nElectrons: 3.000000  magneticMoment: [ Abs: 0.95043  Tot: +0.94000 ]
SCF: Cycle: 22   F: -7.053808268363706   dF: -1.535e-06   |Residual|: 4.459e-04   |deigs|: 5.544e-04  t[s]:     82.45
	FillingsUpdate:  mu: -0.097969712  nElectrons: 3.000000  magneticMoment: [ Abs: 0.94672  Tot: +0.94000 ]
SCF: Cycle: 23   F: -7.053810303582314   dF: -2.035e-06   |Residual|: 3.576e-04   |deigs|: 6.007e-04  t[s]:     85.79
	FillingsUpdate:  mu: -0.098208154  nElectrons: 3.000000  magneticMoment: [ Abs: 0.94339  Tot: +0.94000 ]
SCF: Cycle: 24   F: -7.053811585518499   dF: -1.282e-06   |Residual|: 2.837e-04   |deigs|: 4.379e-04  t[s]:     89.03
	FillingsUpdate:  mu: -0.098656816  nElectrons: 3.000000  magneticMoment: [ Abs: 0.94105  Tot: +0.94000 ]
SCF: Cycle: 25   F: -7.053810841537404   dF: +7.440e-07   |Residual|: 1.786e-04   |deigs|: 4.648e-04  t[s]:     92.31
	FillingsUpdate:  mu: -0.098600912  nElectrons: 3.000000  magneticMoment: [ Abs: 0.94028  Tot: +0.94000 ]
SCF: Cycle: 26   F: -7.053812309519072   dF: -1.468e-06   |Residual|: 1.311e-04   |deigs|: 1.193e-04  t[s]:     95.58
	FillingsUpdate:  mu: -0.098633684  nElectrons: 3.000000  magneticMoment: [ Abs: 0.94001  Tot: +0.94000 ]
SCF: Cycle: 27   F: -7.053812578000228   dF: -2.685e-07   |Residual|: 8.816e-05   |deigs|: 1.015e-04  t[s]:     98.82
	FillingsUpdate:  mu: -0.098529334  nElectrons: 3.000000  magneticMoment: [ Abs: 0.94009  Tot: +0.94000 ]
SCF: Cycle: 28   F: -7.053812975107184   dF: -3.971e-07   |Residual|: 4.472e-05   |deigs|: 1.278e-04  t[s]:    102.15
	FillingsUpdate:  mu: -0.098498764  nElectrons: 3.000000  magneticMoment: [ Abs: 0.94002  Tot: +0.94000 ]
SCF: Cycle: 29   F: -7.053813044685538   dF: -6.958e-08   |Residual|: 3.486e-05   |deigs|: 4.921e-05  t[s]:    105.39
	FillingsUpdate:  mu: -0.098473762  nElectrons: 3.000000  magneticMoment: [ Abs: 0.94000  Tot: +0.94000 ]
SCF: Cycle: 30   F: -7.053812929014557   dF: +1.157e-07   |Residual|: 2.450e-05   |deigs|: 6.231e-05  t[s]:    108.68
	FillingsUpdate:  mu: -0.098454597  nElectrons: 3.000000  magneticMoment: [ Abs: 0.94001  Tot: +0.94000 ]
SCF: Cycle: 31   F: -7.053813015802037   dF: -8.679e-08   |Residual|: 1.844e-05   |deigs|: 3.591e-05  t[s]:    111.97
	FillingsUpdate:  mu: -0.098436821  nElectrons: 3.000000  magneticMoment: [ Abs: 0.94000  Tot: +0.94000 ]
SCF: Cycle: 32   F: -7.053813077687661   dF: -6.189e-08   |Residual|: 1.365e-05   |deigs|: 2.905e-05  t[s]:    115.24
	FillingsUpdate:  mu: -0.098429031  nElectrons: 3.000000  magneticMoment: [ Abs: 0.94000  Tot: +0.94000 ]
SCF: Cycle: 33   F: -7.053813121035208   dF: -4.335e-08   |Residual|: 9.279e-06   |deigs|: 2.319e-05  t[s]:    118.57
	FillingsUpdate:  mu: -0.098426302  nElectrons: 3.000000  magneticMoment: [ Abs: 0.94000  Tot: +0.94000 ]
SCF: Cycle: 34   F: -7.053813136386278   dF: -1.535e-08   |Residual|: 5.903e-06   |deigs|: 1.991e-05  t[s]:    121.90
	FillingsUpdate:  mu: -0.098422387  nElectrons: 3.000000  magneticMoment: [ Abs: 0.94000  Tot: +0.94000 ]
SCF: Cycle: 35   F: -7.053813143412645   dF: -7.026e-09   |Residual|: 3.810e-06   |deigs|: 1.628e-05  t[s]:    125.16
	FillingsUpdate:  mu: -0.098422352  nElectrons: 3.000000  magneticMoment: [ Abs: 0.94000  Tot: +0.94000 ]
SCF: Cycle: 36   F: -7.053813148364323   dF: -4.952e-09   |Residual|: 2.634e-06   |deigs|: 1.528e-05  t[s]:    128.47
SCF: Converged (|Delta E|<1.000000e-08 for 2 iters).


# Ionic positions in lattice coordinates:
ion Li   0.000000000000000   0.000000000000000   0.000000000000000 0

# Forces in Lattice coordinates:
force Li   0.000000000000000  -0.000000000000000   0.000000000000000 0

# Energy components:
   Eewald =       -1.3368908222468645
       EH =        2.2298115626535497
     Eloc =       -7.5776016658061671
      Enl =       -3.6061493838900773
   Epulay =       -0.0000013080581827
      Exc =       -1.5476647741437910
       KE =        4.7846839387473086
-------------------------------------
     Etot =       -7.0538124527442232
       TS =        0.0000006956201006
-------------------------------------
        F =       -7.0538131483643234

IonicMinimize: Iter:   0  F: -7.053813148364323  |grad|_K:  0.000e+00  t[s]:    128.61
IonicMinimize: Converged (|grad|_K<1.000000e-04).

#--- Lowdin population analysis ---
# oxidation-state Li +2.065
# magnetic-moments Li +0.870

End date and time: Sat Feb  5 23:16:11 2022  (Duration: 0-0:02:08.63)
Done!
scale=4
magnetization=0.94
--------------------------------------------------------------------------
The library attempted to open the following supporting CUDA libraries,
but each of them failed.  CUDA-aware support is disabled.
libcuda.so.1: cannot open shared object file: No such file or directory
libcuda.dylib: cannot open shared object file: No such file or directory
/usr/lib64/libcuda.so.1: cannot open shared object file: No such file or directory
/usr/lib64/libcuda.dylib: cannot open shared object file: No such file or directory
If you are not interested in CUDA-aware support, then run with
--mca opal_warn_on_missing_libcuda 0 to suppress this message.  If you are interested
in CUDA-aware support, then try setting LD_LIBRARY_PATH to the location
of libcuda.so.1 to get passed this issue.
--------------------------------------------------------------------------
--------------------------------------------------------------------------
No OpenFabrics connection schemes reported that they were able to be
used on a specific port.  As such, the openib BTL (OpenFabrics
support) will be disabled for this port.

  Local host:           d-6-13-4
  Local device:         mlx5_1
  Local port:           1
  CPCs attempted:       rdmacm, udcm
--------------------------------------------------------------------------

*************** JDFTx 1.6.0 (git hash 42ebbcc2) ***************

Start date and time: Sat Feb  5 23:16:13 2022
Executable jdftx with command-line: -i Alkali.in
Running on hosts (process indices):  d-6-13-4 (0-18)
Divided in process groups (process indices):  0 (0)  1 (1)  2 (2)  3 (3)  4 (4)  5 (5)  6 (6)  7 (7)  8 (8)  9 (9)  10 (10)  11 (11)  12 (12)  13 (13)  14 (14)  15 (15)  16 (16)  17 (17)  18 (18)
Resource initialization completed at t[s]:      0.00
Run totals: 19 processes, 48 threads, 0 GPUs


Input parsed successfully to the following command list (including defaults):

basis kpoint-dependent
coords-type Lattice
core-overlap-check vector
coulomb-interaction Slab 001
davidson-band-ratio 1.1
dump End None
dump-name $INPUT.$VAR
elec-cutoff 20
elec-eigen-algo Davidson
elec-ex-corr gga-PBE
elec-initial-magnetization 0.940000 yes
elec-smearing Fermi 1e-05
electronic-minimize  \
	dirUpdateScheme      FletcherReeves \
	linminMethod         DirUpdateRecommended \
	nIterations          100 \
	history              15 \
	knormThreshold       0 \
	energyDiffThreshold  1e-08 \
	nEnergyDiff          2 \
	alphaTstart          1 \
	alphaTmin            1e-10 \
	updateTestStepSize   yes \
	alphaTreduceFactor   0.1 \
	alphaTincreaseFactor 3 \
	nAlphaAdjustMax      3 \
	wolfeEnergy          0.0001 \
	wolfeGradient        0.9 \
	fdTest               no
electronic-scf  \
	nIterations	10000 \
	energyDiffThreshold	1e-08 \
	residualThreshold	1e-07 \
	mixFraction	0.5 \
	qMetric	0.8 \
	history	10 \
	nEigSteps	2 \
	eigDiffThreshold	1e-08 \
	mixedVariable	Density \
	qKerker	0.8 \
	qKappa	-1 \
	verbose	no \
	mixFractionMag	1.5
exchange-regularization WignerSeitzTruncated
fluid None
fluid-ex-corr (null) lda-PZ
fluid-gummel-loop 10 1.000000e-05
fluid-minimize  \
	dirUpdateScheme      PolakRibiere \
	linminMethod         DirUpdateRecommended \
	nIterations          100 \
	history              15 \
	knormThreshold       0 \
	energyDiffThreshold  0 \
	nEnergyDiff          2 \
	alphaTstart          1 \
	alphaTmin            1e-10 \
	updateTestStepSize   yes \
	alphaTreduceFactor   0.1 \
	alphaTincreaseFactor 3 \
	nAlphaAdjustMax      3 \
	wolfeEnergy          0.0001 \
	wolfeGradient        0.9 \
	fdTest               no
fluid-solvent H2O 55.338 ScalarEOS \
	epsBulk 78.4 \
	pMol 0.92466 \
	epsInf 1.77 \
	Pvap 1.06736e-10 \
	sigmaBulk 4.62e-05 \
	Rvdw 2.61727 \
	Res 1.42 \
	tauNuc 343133 \
	poleEl 15 7 1
forces-output-coords Positions
ion Li   0.000000000000000   0.000000000000000   0.000000000000000 0
ion-species SG15/$ID_ONCV_PBE.upf
ion-width 0
ionic-minimize  \
	dirUpdateScheme      L-BFGS \
	linminMethod         DirUpdateRecommended \
	nIterations          0 \
	history              15 \
	knormThreshold       0.0001 \
	energyDiffThreshold  1e-06 \
	nEnergyDiff          2 \
	alphaTstart          1 \
	alphaTmin            1e-10 \
	updateTestStepSize   yes \
	alphaTreduceFactor   0.1 \
	alphaTincreaseFactor 3 \
	nAlphaAdjustMax      3 \
	wolfeEnergy          0.0001 \
	wolfeGradient        0.9 \
	fdTest               no
kpoint   0.000000000000   0.000000000000   0.000000000000  1.00000000000000
kpoint-folding 12 12 1 
latt-move-scale 1 1 1
latt-scale 4 4 1 
lattice  \
	   4.727486978767153   -2.363743489383575    0.000000000000000  \
	  -0.000000000000000    4.094123819672498    0.000000000000000  \
	   0.000000000000000    0.000000000000000   40.000000000000000 
lattice-minimize  \
	dirUpdateScheme      L-BFGS \
	linminMethod         DirUpdateRecommended \
	nIterations          0 \
	history              15 \
	knormThreshold       0 \
	energyDiffThreshold  1e-06 \
	nEnergyDiff          2 \
	alphaTstart          1 \
	alphaTmin            1e-10 \
	updateTestStepSize   yes \
	alphaTreduceFactor   0.1 \
	alphaTincreaseFactor 3 \
	nAlphaAdjustMax      3 \
	wolfeEnergy          0.0001 \
	wolfeGradient        0.9 \
	fdTest               no
lcao-params -1 1e-06 1e-05
pcm-variant GLSSA13
spintype z-spin
subspace-rotation-factor 1 yes
symmetries automatic
symmetry-threshold 0.0001



---------- Setting up symmetries ----------

Found 24 point-group symmetries of the bravais lattice
Found 24 space-group symmetries with basis
Applied RMS atom displacement 0 bohrs to make symmetries exact.

---------- Initializing the Grid ----------
R = 
[      18.9099     -9.45497            0  ]
[            0      16.3765            0  ]
[            0            0           40  ]
unit cell volume = 12387.1
G =
[   0.332269   0.191835         -0  ]
[          0   0.383671         -0  ]
[         -0         -0    0.15708  ]
Minimum fftbox size, Smin = [  80  80  164  ]
Chosen fftbox size, S = [  80  80  168  ]

---------- Exchange Correlation functional ----------
Initalized PBE GGA exchange.
Initalized PBE GGA correlation.

---------- Setting up pseudopotentials ----------
Width of ionic core gaussian charges (only for fluid interactions / plotting) set to 0

Reading pseudopotential file '/home/gridsan/aligho/DFT/build-Nov24/pseudopotentials/SG15/Li_ONCV_PBE.upf':
  'Li' pseudopotential, 'PBE' functional
  Generated using ONCVPSP code by D. R. Hamann
  Author: Martin Schlipf and Francois Gygi  Date: 150915.
  3 valence electrons, 2 orbitals, 4 projectors, 1328 radial grid points, with lMax = 1
  Transforming local potential to a uniform radial grid of dG=0.02 with 1489 points.
  Transforming nonlocal projectors to a uniform radial grid of dG=0.02 with 432 points.
    1S    l: 0   occupation:  2.0   eigenvalue: -1.905623
    2S    l: 0   occupation:  1.0   eigenvalue: -0.105624
  Transforming atomic orbitals to a uniform radial grid of dG=0.02 with 432 points.
  WARNING: large normalization error in atomic orbital 1s (integral: 0.000000).
  Core radius for overlap checks: 1.63 bohrs.
  Reading pulay file /home/gridsan/aligho/DFT/build-Nov24/pseudopotentials/SG15/Li_ONCV_PBE.pulay ... using dE_dnG = -1.230239e-02 computed for Ecut = 20.

Initialized 1 species with 1 total atoms.

Folded 1 k-points by 12x12x1 to 144 k-points.

---------- Setting up k-points, bands, fillings ----------
Reduced to 19 k-points under symmetry. 
Computing the number of bands and number of electrons
Calculating initial fillings.
nElectrons:   3.000000   nBands: 3   nStates: 38

----- Setting up reduced wavefunction bases (one per k-point) -----
average nbasis = 52924.021 , ideal nbasis = 52918.836

---------- Setting up coulomb interaction ----------
Initialized slab truncation along lattice direction 001

---------- Setting up 2D ewald sum ----------
Optimum gaussian width for ewald sums = 10.498040 bohr.
Real space sums over 289 unit cells with max indices [  8  8  0  ]
Reciprocal space sums over 81 terms with max indices [  4  4  0  ]

---------- Allocating electronic variables ----------
Initializing wave functions:  linear combination of atomic orbitals
Note: number of bands (3) exceeds available atomic orbitals (2)
Li pseudo-atom occupations:   s ( 2 1 )
[d-6-13-4:15186] 18 more processes have sent help message help-mpi-common-cuda.txt / dlopen failed
[d-6-13-4:15186] Set MCA parameter "orte_base_help_aggregate" to 0 to see all help / error messages
[d-6-13-4:15186] 18 more processes have sent help message help-mpi-btl-openib-cpc-base.txt / no cpcs for port
	FillingsUpdate:  mu: +0.361621242  nElectrons: 3.000000  magneticMoment: [ Abs: 0.94000  Tot: +0.94000 ]
LCAOMinimize: Iter:   0  F: -1.3040206154839433  |grad|_K:  3.999e-05  alpha:  1.000e+00
	FillingsUpdate:  mu: +0.361620971  nElectrons: 3.000000  magneticMoment: [ Abs: 0.94000  Tot: +0.94000 ]
LCAOMinimize: Iter:   1  F: -1.3040209050954199  |grad|_K:  1.703e-07  alpha:  1.059e+00  linmin: -1.632e-03  cgtest:  7.693e-03  t[s]:     12.71
LCAOMinimize: Encountered beta<0, resetting CG.
LCAOMinimize: 	Wrong curvature in test step, increasing alphaT to 3.177667e+00.
	FillingsUpdate:  mu: +0.361620971  nElectrons: 3.000000  magneticMoment: [ Abs: 0.94000  Tot: +0.94000 ]
LCAOMinimize: Iter:   2  F: -1.3040209051080538  |grad|_K:  7.509e-09  alpha: -2.606e+00  linmin: -1.601e-03  cgtest:  1.158e-01  t[s]:     15.95
LCAOMinimize: Encountered beta<0, resetting CG.
LCAOMinimize: Converged (|Delta F|<1.000000e-06 for 2 iters).


---- Citations for features of the code used in this run ----

   Software package:
      R. Sundararaman, K. Letchworth-Weaver, K.A. Schwarz, D. Gunceler, Y. Ozhabes and T.A. Arias, 'JDFTx: software for joint density-functional theory', SoftwareX 6, 278 (2017)

   gga-PBE exchange-correlation functional:
      J.P. Perdew, K. Burke and M. Ernzerhof, Phys. Rev. Lett. 77, 3865 (1996)

   Pseudopotentials:
      M Schlipf and F Gygi, Comput. Phys. Commun. 196, 36 (2015)

   Truncated Coulomb potentials:
      R. Sundararaman and T.A. Arias, Phys. Rev. B 87, 165122 (2013)

This list may not be complete. Please suggest additional citations or
report any other bugs at https://github.com/shankar1729/jdftx/issues

Initialization completed successfully at t[s]:     16.09


-------- Electronic minimization -----------
Will mix electronic density at each iteration.
	FillingsUpdate:  mu: +0.361620971  nElectrons: 3.000000  magneticMoment: [ Abs: 0.94000  Tot: +0.94000 ]
	FillingsUpdate:  mu: -0.610765857  nElectrons: 3.000000  magneticMoment: [ Abs: 0.94000  Tot: +0.94000 ]
SCF: Cycle:  0   F: -6.891630141689647   dF: -5.588e+00   |Residual|: 1.230e+00   |deigs|: 4.155e+00  t[s]:     21.77
	FillingsUpdate:  mu: -0.485570883  nElectrons: 3.000000  magneticMoment: [ Abs: 1.61121  Tot: +0.94000 ]
SCF: Cycle:  1   F: -6.915037581926274   dF: -2.341e-02   |Residual|: 7.659e-01   |deigs|: 2.759e-01  t[s]:     26.37
	FillingsUpdate:  mu: -0.291912952  nElectrons: 3.000000  magneticMoment: [ Abs: 2.08162  Tot: +0.94000 ]
SCF: Cycle:  2   F: -7.039895432513902   dF: -1.249e-01   |Residual|: 3.226e-01   |deigs|: 7.024e-01  t[s]:     30.97
	FillingsUpdate:  mu: -0.297268321  nElectrons: 3.000000  magneticMoment: [ Abs: 1.79603  Tot: +0.94000 ]
SCF: Cycle:  3   F: -7.040184674137330   dF: -2.892e-04   |Residual|: 1.470e-01   |deigs|: 9.339e-02  t[s]:     35.73
	FillingsUpdate:  mu: -0.244665008  nElectrons: 3.000000  magneticMoment: [ Abs: 1.56900  Tot: +0.94000 ]
SCF: Cycle:  4   F: -7.046177391464120   dF: -5.993e-03   |Residual|: 3.631e-02   |deigs|: 5.439e-02  t[s]:     40.61
	FillingsUpdate:  mu: -0.224777255  nElectrons: 3.000000  magneticMoment: [ Abs: 1.52143  Tot: +0.94000 ]
SCF: Cycle:  5   F: -7.047780943381776   dF: -1.604e-03   |Residual|: 5.394e-02   |deigs|: 1.934e-02  t[s]:     45.67
	FillingsUpdate:  mu: -0.197074369  nElectrons: 3.000000  magneticMoment: [ Abs: 1.31085  Tot: +0.94000 ]
SCF: Cycle:  6   F: -7.049580554102247   dF: -1.800e-03   |Residual|: 3.180e-02   |deigs|: 4.174e-02  t[s]:     50.84
	FillingsUpdate:  mu: -0.180609945  nElectrons: 3.000000  magneticMoment: [ Abs: 1.20306  Tot: +0.94000 ]
SCF: Cycle:  7   F: -7.051267366224518   dF: -1.687e-03   |Residual|: 2.591e-02   |deigs|: 3.731e-02  t[s]:     56.04
	FillingsUpdate:  mu: -0.175814809  nElectrons: 3.000000  magneticMoment: [ Abs: 1.13484  Tot: +0.94000 ]
SCF: Cycle:  8   F: -7.052015910209118   dF: -7.485e-04   |Residual|: 2.819e-02   |deigs|: 5.968e-03  t[s]:     61.40
	FillingsUpdate:  mu: -0.175867983  nElectrons: 3.000000  magneticMoment: [ Abs: 1.07538  Tot: +0.94000 ]
SCF: Cycle:  9   F: -7.052596203874091   dF: -5.803e-04   |Residual|: 1.226e-02   |deigs|: 1.034e-02  t[s]:     66.86
	FillingsUpdate:  mu: -0.166541330  nElectrons: 3.000000  magneticMoment: [ Abs: 1.00002  Tot: +0.94000 ]
SCF: Cycle: 10   F: -7.052855419229157   dF: -2.592e-04   |Residual|: 3.354e-02   |deigs|: 1.157e-02  t[s]:     72.37
	FillingsUpdate:  mu: -0.152020891  nElectrons: 3.000000  magneticMoment: [ Abs: 1.01012  Tot: +0.94000 ]
SCF: Cycle: 11   F: -7.052903967808884   dF: -4.855e-05   |Residual|: 9.905e-03   |deigs|: 1.923e-02  t[s]:     77.94
	FillingsUpdate:  mu: -0.141161441  nElectrons: 3.000000  magneticMoment: [ Abs: 1.07156  Tot: +0.94000 ]
SCF: Cycle: 12   F: -7.053078362251763   dF: -1.744e-04   |Residual|: 9.403e-03   |deigs|: 1.042e-02  t[s]:     83.46
	FillingsUpdate:  mu: -0.124927101  nElectrons: 3.000000  magneticMoment: [ Abs: 1.11437  Tot: +0.94000 ]
SCF: Cycle: 13   F: -7.053165318360717   dF: -8.696e-05   |Residual|: 6.589e-03   |deigs|: 1.806e-02  t[s]:     89.01
	FillingsUpdate:  mu: -0.116840290  nElectrons: 3.000000  magneticMoment: [ Abs: 1.12042  Tot: +0.94000 ]
SCF: Cycle: 14   F: -7.053140453158001   dF: +2.487e-05   |Residual|: 5.723e-03   |deigs|: 8.004e-03  t[s]:     94.60
	FillingsUpdate:  mu: -0.110061845  nElectrons: 3.000000  magneticMoment: [ Abs: 1.10531  Tot: +0.94000 ]
SCF: Cycle: 15   F: -7.053181217406330   dF: -4.076e-05   |Residual|: 4.784e-03   |deigs|: 5.898e-03  t[s]:    100.20
	FillingsUpdate:  mu: -0.104440640  nElectrons: 3.000000  magneticMoment: [ Abs: 1.06399  Tot: +0.94000 ]
SCF: Cycle: 16   F: -7.053217216858003   dF: -3.600e-05   |Residual|: 4.027e-03   |deigs|: 5.091e-03  t[s]:    105.75
	FillingsUpdate:  mu: -0.100862012  nElectrons: 3.000000  magneticMoment: [ Abs: 1.02492  Tot: +0.94000 ]
SCF: Cycle: 17   F: -7.053211563692493   dF: +5.653e-06   |Residual|: 3.512e-03   |deigs|: 4.639e-03  t[s]:    111.37
	FillingsUpdate:  mu: -0.096802779  nElectrons: 3.000000  magneticMoment: [ Abs: 1.00015  Tot: +0.94000 ]
SCF: Cycle: 18   F: -7.053275101071582   dF: -6.354e-05   |Residual|: 2.615e-03   |deigs|: 7.793e-03  t[s]:    117.02
	FillingsUpdate:  mu: -0.096609413  nElectrons: 3.000000  magneticMoment: [ Abs: 0.98591  Tot: +0.94000 ]
SCF: Cycle: 19   F: -7.053298353821665   dF: -2.325e-05   |Residual|: 1.861e-03   |deigs|: 2.177e-03  t[s]:    122.54
	FillingsUpdate:  mu: -0.095175231  nElectrons: 3.000000  magneticMoment: [ Abs: 0.98141  Tot: +0.94000 ]
SCF: Cycle: 20   F: -7.053317699539477   dF: -1.935e-05   |Residual|: 1.399e-03   |deigs|: 1.562e-03  t[s]:    128.10
	FillingsUpdate:  mu: -0.095136346  nElectrons: 3.000000  magneticMoment: [ Abs: 0.96562  Tot: +0.94000 ]
SCF: Cycle: 21   F: -7.053327075757156   dF: -9.376e-06   |Residual|: 9.295e-04   |deigs|: 6.750e-04  t[s]:    133.63
	FillingsUpdate:  mu: -0.095292371  nElectrons: 3.000000  magneticMoment: [ Abs: 0.95271  Tot: +0.94000 ]
SCF: Cycle: 22   F: -7.053333333257737   dF: -6.258e-06   |Residual|: 6.565e-04   |deigs|: 3.683e-04  t[s]:    139.15
	FillingsUpdate:  mu: -0.095917095  nElectrons: 3.000000  magneticMoment: [ Abs: 0.94304  Tot: +0.94000 ]
SCF: Cycle: 23   F: -7.053337069332846   dF: -3.736e-06   |Residual|: 4.283e-04   |deigs|: 7.596e-04  t[s]:    144.71
	FillingsUpdate:  mu: -0.096190734  nElectrons: 3.000000  magneticMoment: [ Abs: 0.94157  Tot: +0.94000 ]
SCF: Cycle: 24   F: -7.053340363899052   dF: -3.295e-06   |Residual|: 2.784e-04   |deigs|: 6.018e-04  t[s]:    150.26
	FillingsUpdate:  mu: -0.096306566  nElectrons: 3.000000  magneticMoment: [ Abs: 0.94221  Tot: +0.94000 ]
SCF: Cycle: 25   F: -7.053341038653151   dF: -6.748e-07   |Residual|: 1.593e-04   |deigs|: 4.721e-04  t[s]:    155.84
	FillingsUpdate:  mu: -0.096141836  nElectrons: 3.000000  magneticMoment: [ Abs: 0.94202  Tot: +0.94000 ]
SCF: Cycle: 26   F: -7.053341605485882   dF: -5.668e-07   |Residual|: 1.119e-04   |deigs|: 2.038e-04  t[s]:    161.34
	FillingsUpdate:  mu: -0.096121729  nElectrons: 3.000000  magneticMoment: [ Abs: 0.94157  Tot: +0.94000 ]
SCF: Cycle: 27   F: -7.053341632267947   dF: -2.678e-08   |Residual|: 8.929e-05   |deigs|: 1.050e-04  t[s]:    166.91
	FillingsUpdate:  mu: -0.096129682  nElectrons: 3.000000  magneticMoment: [ Abs: 0.94066  Tot: +0.94000 ]
SCF: Cycle: 28   F: -7.053341603526916   dF: +2.874e-08   |Residual|: 6.433e-05   |deigs|: 5.234e-05  t[s]:    172.42
	FillingsUpdate:  mu: -0.096124096  nElectrons: 3.000000  magneticMoment: [ Abs: 0.94032  Tot: +0.94000 ]
SCF: Cycle: 29   F: -7.053341686156209   dF: -8.263e-08   |Residual|: 5.135e-05   |deigs|: 3.939e-05  t[s]:    177.96
	FillingsUpdate:  mu: -0.096213770  nElectrons: 3.000000  magneticMoment: [ Abs: 0.94015  Tot: +0.94000 ]
SCF: Cycle: 30   F: -7.053341821592280   dF: -1.354e-07   |Residual|: 3.734e-05   |deigs|: 1.035e-04  t[s]:    183.48
	FillingsUpdate:  mu: -0.096247523  nElectrons: 3.000000  magneticMoment: [ Abs: 0.94007  Tot: +0.94000 ]
SCF: Cycle: 31   F: -7.053341859617166   dF: -3.802e-08   |Residual|: 2.408e-05   |deigs|: 5.043e-05  t[s]:    188.94
	FillingsUpdate:  mu: -0.096273688  nElectrons: 3.000000  magneticMoment: [ Abs: 0.94003  Tot: +0.94000 ]
SCF: Cycle: 32   F: -7.053341873693422   dF: -1.408e-08   |Residual|: 1.476e-05   |deigs|: 4.992e-05  t[s]:    194.53
	FillingsUpdate:  mu: -0.096288093  nElectrons: 3.000000  magneticMoment: [ Abs: 0.94004  Tot: +0.94000 ]
SCF: Cycle: 33   F: -7.053341880381804   dF: -6.688e-09   |Residual|: 1.063e-05   |deigs|: 3.966e-05  t[s]:    200.11
	FillingsUpdate:  mu: -0.096285920  nElectrons: 3.000000  magneticMoment: [ Abs: 0.94008  Tot: +0.94000 ]
SCF: Cycle: 34   F: -7.053341884871568   dF: -4.490e-09   |Residual|: 7.889e-06   |deigs|: 3.632e-05  t[s]:    205.60
SCF: Converged (|Delta E|<1.000000e-08 for 2 iters).


# Ionic positions in lattice coordinates:
ion Li   0.000000000000000   0.000000000000000   0.000000000000000 0

# Forces in Lattice coordinates:
force Li   0.000000000000000   0.000000000000000   0.000000000000000 0

# Energy components:
   Eewald =       -1.0026681166851483
       EH =        2.5660907043354184
     Eloc =       -8.2487635180072356
      Enl =       -3.6065718557361195
   Epulay =        0.0000051497655618
      Exc =       -1.5480325213311357
       KE =        4.7865990310581052
-------------------------------------
     Etot =       -7.0533411266005546
       TS =        0.0000007582710131
-------------------------------------
        F =       -7.0533418848715677

IonicMinimize: Iter:   0  F: -7.053341884871568  |grad|_K:  0.000e+00  t[s]:    205.85
IonicMinimize: Converged (|grad|_K<1.000000e-04).

#--- Lowdin population analysis ---
# oxidation-state Li +2.061
# magnetic-moments Li +0.873

End date and time: Sat Feb  5 23:19:38 2022  (Duration: 0-0:03:25.89)
Done!
