The alkali metal is Li
scale=2
magnetization=0.14
--------------------------------------------------------------------------
The library attempted to open the following supporting CUDA libraries,
but each of them failed.  CUDA-aware support is disabled.
libcuda.so.1: cannot open shared object file: No such file or directory
libcuda.dylib: cannot open shared object file: No such file or directory
/usr/lib64/libcuda.so.1: cannot open shared object file: No such file or directory
/usr/lib64/libcuda.dylib: cannot open shared object file: No such file or directory
If you are not interested in CUDA-aware support, then run with
--mca opal_warn_on_missing_libcuda 0 to suppress this message.  If you are interested
in CUDA-aware support, then try setting LD_LIBRARY_PATH to the location
of libcuda.so.1 to get passed this issue.
--------------------------------------------------------------------------
--------------------------------------------------------------------------
No OpenFabrics connection schemes reported that they were able to be
used on a specific port.  As such, the openib BTL (OpenFabrics
support) will be disabled for this port.

  Local host:           d-6-12-3
  Local device:         mlx5_1
  Local port:           1
  CPCs attempted:       rdmacm, udcm
--------------------------------------------------------------------------

*************** JDFTx 1.6.0 (git hash 42ebbcc2) ***************

Start date and time: Sat Feb  5 22:59:55 2022
Executable jdftx with command-line: -i Alkali.in
Running on hosts (process indices):  d-6-12-3 (0-18)
Divided in process groups (process indices):  0 (0)  1 (1)  2 (2)  3 (3)  4 (4)  5 (5)  6 (6)  7 (7)  8 (8)  9 (9)  10 (10)  11 (11)  12 (12)  13 (13)  14 (14)  15 (15)  16 (16)  17 (17)  18 (18)
Resource initialization completed at t[s]:      0.00
Run totals: 19 processes, 48 threads, 0 GPUs


Input parsed successfully to the following command list (including defaults):

basis kpoint-dependent
coords-type Lattice
core-overlap-check vector
coulomb-interaction Slab 001
davidson-band-ratio 1.1
dump End None
dump-name $INPUT.$VAR
elec-cutoff 20
elec-eigen-algo Davidson
elec-ex-corr gga-PBE
elec-initial-magnetization 0.140000 yes
elec-smearing Fermi 1e-05
electronic-minimize  \
	dirUpdateScheme      FletcherReeves \
	linminMethod         DirUpdateRecommended \
	nIterations          100 \
	history              15 \
	knormThreshold       0 \
	energyDiffThreshold  1e-08 \
	nEnergyDiff          2 \
	alphaTstart          1 \
	alphaTmin            1e-10 \
	updateTestStepSize   yes \
	alphaTreduceFactor   0.1 \
	alphaTincreaseFactor 3 \
	nAlphaAdjustMax      3 \
	wolfeEnergy          0.0001 \
	wolfeGradient        0.9 \
	fdTest               no
electronic-scf  \
	nIterations	10000 \
	energyDiffThreshold	1e-08 \
	residualThreshold	1e-07 \
	mixFraction	0.5 \
	qMetric	0.8 \
	history	10 \
	nEigSteps	2 \
	eigDiffThreshold	1e-08 \
	mixedVariable	Density \
	qKerker	0.8 \
	qKappa	-1 \
	verbose	no \
	mixFractionMag	1.5
exchange-regularization WignerSeitzTruncated
fluid None
fluid-ex-corr (null) lda-PZ
fluid-gummel-loop 10 1.000000e-05
fluid-minimize  \
	dirUpdateScheme      PolakRibiere \
	linminMethod         DirUpdateRecommended \
	nIterations          100 \
	history              15 \
	knormThreshold       0 \
	energyDiffThreshold  0 \
	nEnergyDiff          2 \
	alphaTstart          1 \
	alphaTmin            1e-10 \
	updateTestStepSize   yes \
	alphaTreduceFactor   0.1 \
	alphaTincreaseFactor 3 \
	nAlphaAdjustMax      3 \
	wolfeEnergy          0.0001 \
	wolfeGradient        0.9 \
	fdTest               no
fluid-solvent H2O 55.338 ScalarEOS \
	epsBulk 78.4 \
	pMol 0.92466 \
	epsInf 1.77 \
	Pvap 1.06736e-10 \
	sigmaBulk 4.62e-05 \
	Rvdw 2.61727 \
	Res 1.42 \
	tauNuc 343133 \
	poleEl 15 7 1
forces-output-coords Positions
ion Li   0.000000000000000   0.000000000000000   0.000000000000000 0
ion-species SG15/$ID_ONCV_PBE.upf
ion-width 0
ionic-minimize  \
	dirUpdateScheme      L-BFGS \
	linminMethod         DirUpdateRecommended \
	nIterations          0 \
	history              15 \
	knormThreshold       0.0001 \
	energyDiffThreshold  1e-06 \
	nEnergyDiff          2 \
	alphaTstart          1 \
	alphaTmin            1e-10 \
	updateTestStepSize   yes \
	alphaTreduceFactor   0.1 \
	alphaTincreaseFactor 3 \
	nAlphaAdjustMax      3 \
	wolfeEnergy          0.0001 \
	wolfeGradient        0.9 \
	fdTest               no
kpoint   0.000000000000   0.000000000000   0.000000000000  1.00000000000000
kpoint-folding 12 12 1 
latt-move-scale 1 1 1
latt-scale 2 2 1 
lattice  \
	   4.727486978767153   -2.363743489383575    0.000000000000000  \
	  -0.000000000000000    4.094123819672498    0.000000000000000  \
	   0.000000000000000    0.000000000000000   40.000000000000000 
lattice-minimize  \
	dirUpdateScheme      L-BFGS \
	linminMethod         DirUpdateRecommended \
	nIterations          0 \
	history              15 \
	knormThreshold       0 \
	energyDiffThreshold  1e-06 \
	nEnergyDiff          2 \
	alphaTstart          1 \
	alphaTmin            1e-10 \
	updateTestStepSize   yes \
	alphaTreduceFactor   0.1 \
	alphaTincreaseFactor 3 \
	nAlphaAdjustMax      3 \
	wolfeEnergy          0.0001 \
	wolfeGradient        0.9 \
	fdTest               no
lcao-params -1 1e-06 1e-05
pcm-variant GLSSA13
spintype z-spin
subspace-rotation-factor 1 yes
symmetries automatic
symmetry-threshold 0.0001



---------- Setting up symmetries ----------

Found 24 point-group symmetries of the bravais lattice
Found 24 space-group symmetries with basis
Applied RMS atom displacement 0 bohrs to make symmetries exact.

---------- Initializing the Grid ----------
R = 
[      9.45497     -4.72749            0  ]
[            0      8.18825            0  ]
[            0            0           40  ]
unit cell volume = 3096.79
G =
[   0.664538   0.383671         -0  ]
[          0   0.767342         -0  ]
[         -0         -0    0.15708  ]
Minimum fftbox size, Smin = [  40  40  164  ]
Chosen fftbox size, S = [  40  40  168  ]

---------- Exchange Correlation functional ----------
Initalized PBE GGA exchange.
Initalized PBE GGA correlation.

---------- Setting up pseudopotentials ----------
Width of ionic core gaussian charges (only for fluid interactions / plotting) set to 0

Reading pseudopotential file '/home/gridsan/aligho/DFT/build-Nov24/pseudopotentials/SG15/Li_ONCV_PBE.upf':
  'Li' pseudopotential, 'PBE' functional
  Generated using ONCVPSP code by D. R. Hamann
  Author: Martin Schlipf and Francois Gygi  Date: 150915.
  3 valence electrons, 2 orbitals, 4 projectors, 1328 radial grid points, with lMax = 1
  Transforming local potential to a uniform radial grid of dG=0.02 with 1489 points.
  Transforming nonlocal projectors to a uniform radial grid of dG=0.02 with 432 points.
    1S    l: 0   occupation:  2.0   eigenvalue: -1.905623
    2S    l: 0   occupation:  1.0   eigenvalue: -0.105624
  Transforming atomic orbitals to a uniform radial grid of dG=0.02 with 432 points.
  WARNING: large normalization error in atomic orbital 1s (integral: 0.000000).
  Core radius for overlap checks: 1.63 bohrs.
  Reading pulay file /home/gridsan/aligho/DFT/build-Nov24/pseudopotentials/SG15/Li_ONCV_PBE.pulay ... using dE_dnG = -1.230239e-02 computed for Ecut = 20.

Initialized 1 species with 1 total atoms.

Folded 1 k-points by 12x12x1 to 144 k-points.

---------- Setting up k-points, bands, fillings ----------
Reduced to 19 k-points under symmetry. 
Computing the number of bands and number of electrons
Calculating initial fillings.
nElectrons:   3.000000   nBands: 3   nStates: 38

----- Setting up reduced wavefunction bases (one per k-point) -----
average nbasis = 13230.521 , ideal nbasis = 13229.709

---------- Setting up coulomb interaction ----------
Initialized slab truncation along lattice direction 001

---------- Setting up 2D ewald sum ----------
Optimum gaussian width for ewald sums = 5.249020 bohr.
Real space sums over 289 unit cells with max indices [  8  8  0  ]
Reciprocal space sums over 81 terms with max indices [  4  4  0  ]

---------- Allocating electronic variables ----------
Initializing wave functions:  linear combination of atomic orbitals
Note: number of bands (3) exceeds available atomic orbitals (2)
Li pseudo-atom occupations:   s ( 2 1 )
	FillingsUpdate:  mu: +0.331050799  nElectrons: 3.000000  magneticMoment: [ Abs: 0.14628  Tot: +0.14000 ]
LCAOMinimize: Iter:   0  F: -1.1783614554445612  |grad|_K:  7.220e-05  alpha:  1.000e+00
	FillingsUpdate:  mu: +0.331049853  nElectrons: 3.000000  magneticMoment: [ Abs: 0.14628  Tot: +0.14000 ]
LCAOMinimize: Iter:   1  F: -1.1783623858000920  |grad|_K:  1.728e-06  alpha:  1.044e+00  linmin: -1.891e-03  cgtest:  2.889e-02  t[s]:      3.89
LCAOMinimize: Encountered beta<0, resetting CG.
[d-6-12-3:35627] 18 more processes have sent help message help-mpi-common-cuda.txt / dlopen failed
[d-6-12-3:35627] Set MCA parameter "orte_base_help_aggregate" to 0 to see all help / error messages
[d-6-12-3:35627] 18 more processes have sent help message help-mpi-btl-openib-cpc-base.txt / no cpcs for port
	FillingsUpdate:  mu: +0.331049853  nElectrons: 3.000000  magneticMoment: [ Abs: 0.14628  Tot: +0.14000 ]
LCAOMinimize: Iter:   2  F: -1.1783623863166572  |grad|_K:  4.257e-08  alpha:  1.011e+00  linmin: -4.860e-03  cgtest:  1.269e-01  t[s]:      4.92
LCAOMinimize: Encountered beta<0, resetting CG.
LCAOMinimize: Converged (|Delta F|<1.000000e-06 for 2 iters).


---- Citations for features of the code used in this run ----

   Software package:
      R. Sundararaman, K. Letchworth-Weaver, K.A. Schwarz, D. Gunceler, Y. Ozhabes and T.A. Arias, 'JDFTx: software for joint density-functional theory', SoftwareX 6, 278 (2017)

   gga-PBE exchange-correlation functional:
      J.P. Perdew, K. Burke and M. Ernzerhof, Phys. Rev. Lett. 77, 3865 (1996)

   Pseudopotentials:
      M Schlipf and F Gygi, Comput. Phys. Commun. 196, 36 (2015)

   Truncated Coulomb potentials:
      R. Sundararaman and T.A. Arias, Phys. Rev. B 87, 165122 (2013)

This list may not be complete. Please suggest additional citations or
report any other bugs at https://github.com/shankar1729/jdftx/issues

Initialization completed successfully at t[s]:      4.98


-------- Electronic minimization -----------
Will mix electronic density at each iteration.
	FillingsUpdate:  mu: +0.331049853  nElectrons: 3.000000  magneticMoment: [ Abs: 0.14628  Tot: +0.14000 ]
	FillingsUpdate:  mu: -0.978503413  nElectrons: 3.000000  magneticMoment: [ Abs: 0.14628  Tot: +0.14000 ]
SCF: Cycle:  0   F: -6.826172786185007   dF: -5.648e+00   |Residual|: 1.172e+00   |deigs|: 4.170e+00  t[s]:      6.68
	FillingsUpdate:  mu: -0.865446484  nElectrons: 3.000000  magneticMoment: [ Abs: 0.23983  Tot: +0.14000 ]
SCF: Cycle:  1   F: -6.935817251541475   dF: -1.096e-01   |Residual|: 7.729e-01   |deigs|: 2.330e-01  t[s]:      8.02
	FillingsUpdate:  mu: -0.617462713  nElectrons: 3.000000  magneticMoment: [ Abs: 0.30573  Tot: +0.14000 ]
SCF: Cycle:  2   F: -7.050277337571710   dF: -1.145e-01   |Residual|: 4.185e-01   |deigs|: 7.845e-01  t[s]:      9.38
	FillingsUpdate:  mu: -0.653795689  nElectrons: 3.000000  magneticMoment: [ Abs: 0.27656  Tot: +0.14000 ]
SCF: Cycle:  3   F: -7.057530888862250   dF: -7.254e-03   |Residual|: 2.108e-01   |deigs|: 1.261e-01  t[s]:     10.74
	FillingsUpdate:  mu: -0.619886764  nElectrons: 3.000000  magneticMoment: [ Abs: 0.30624  Tot: +0.14000 ]
SCF: Cycle:  4   F: -7.056180206943423   dF: +1.351e-03   |Residual|: 5.924e-02   |deigs|: 3.874e-02  t[s]:     12.17
	FillingsUpdate:  mu: -0.582139253  nElectrons: 3.000000  magneticMoment: [ Abs: 0.25623  Tot: +0.14000 ]
SCF: Cycle:  5   F: -7.055624935463469   dF: +5.553e-04   |Residual|: 1.684e-01   |deigs|: 3.026e-02  t[s]:     13.65
	FillingsUpdate:  mu: -0.484772886  nElectrons: 3.000000  magneticMoment: [ Abs: 0.28867  Tot: +0.14000 ]
SCF: Cycle:  6   F: -7.060310087711867   dF: -4.685e-03   |Residual|: 1.013e-01   |deigs|: 1.281e-01  t[s]:     15.10
	FillingsUpdate:  mu: -0.424720138  nElectrons: 3.000000  magneticMoment: [ Abs: 0.24805  Tot: +0.14000 ]
SCF: Cycle:  7   F: -7.061542273851948   dF: -1.232e-03   |Residual|: 1.714e-01   |deigs|: 1.380e-01  t[s]:     16.57
	FillingsUpdate:  mu: -0.372087846  nElectrons: 3.000000  magneticMoment: [ Abs: 0.18888  Tot: +0.14000 ]
SCF: Cycle:  8   F: -7.064883265258728   dF: -3.341e-03   |Residual|: 3.428e-02   |deigs|: 4.629e-02  t[s]:     18.04
	FillingsUpdate:  mu: -0.320627326  nElectrons: 3.000000  magneticMoment: [ Abs: 0.41852  Tot: +0.14000 ]
SCF: Cycle:  9   F: -7.064628609302565   dF: +2.547e-04   |Residual|: 1.415e-01   |deigs|: 5.914e-02  t[s]:     19.53
	FillingsUpdate:  mu: -0.288966269  nElectrons: 3.000000  magneticMoment: [ Abs: 0.31397  Tot: +0.14000 ]
SCF: Cycle: 10   F: -7.065305119723072   dF: -6.765e-04   |Residual|: 1.441e-01   |deigs|: 2.722e-02  t[s]:     21.10
	FillingsUpdate:  mu: -0.243531199  nElectrons: 3.000000  magneticMoment: [ Abs: 0.24766  Tot: +0.14000 ]
SCF: Cycle: 11   F: -7.067243353620708   dF: -1.938e-03   |Residual|: 2.203e-02   |deigs|: 1.033e-01  t[s]:     22.62
	FillingsUpdate:  mu: -0.211433914  nElectrons: 3.000000  magneticMoment: [ Abs: 0.20577  Tot: +0.14000 ]
SCF: Cycle: 12   F: -7.067660197329587   dF: -4.168e-04   |Residual|: 1.375e-02   |deigs|: 2.791e-02  t[s]:     24.17
	FillingsUpdate:  mu: -0.171640074  nElectrons: 3.000000  magneticMoment: [ Abs: 0.19562  Tot: +0.14000 ]
SCF: Cycle: 13   F: -7.067886416221611   dF: -2.262e-04   |Residual|: 1.016e-02   |deigs|: 4.094e-02  t[s]:     25.73
	FillingsUpdate:  mu: -0.143969137  nElectrons: 3.000000  magneticMoment: [ Abs: 0.18081  Tot: +0.14000 ]
SCF: Cycle: 14   F: -7.067906667155451   dF: -2.025e-05   |Residual|: 8.308e-03   |deigs|: 2.898e-02  t[s]:     27.37
	FillingsUpdate:  mu: -0.129780061  nElectrons: 3.000000  magneticMoment: [ Abs: 0.17683  Tot: +0.14000 ]
SCF: Cycle: 15   F: -7.067951249269652   dF: -4.458e-05   |Residual|: 6.388e-03   |deigs|: 1.390e-02  t[s]:     28.93
	FillingsUpdate:  mu: -0.115725311  nElectrons: 3.000000  magneticMoment: [ Abs: 0.16386  Tot: +0.14000 ]
SCF: Cycle: 16   F: -7.068075186774803   dF: -1.239e-04   |Residual|: 3.721e-03   |deigs|: 1.350e-02  t[s]:     30.47
	FillingsUpdate:  mu: -0.115081530  nElectrons: 3.000000  magneticMoment: [ Abs: 0.15514  Tot: +0.14000 ]
SCF: Cycle: 17   F: -7.068136097860390   dF: -6.091e-05   |Residual|: 2.487e-03   |deigs|: 6.565e-04  t[s]:     31.99
	FillingsUpdate:  mu: -0.114660477  nElectrons: 3.000000  magneticMoment: [ Abs: 0.14988  Tot: +0.14000 ]
SCF: Cycle: 18   F: -7.068168275578684   dF: -3.218e-05   |Residual|: 1.616e-03   |deigs|: 7.636e-04  t[s]:     33.50
	FillingsUpdate:  mu: -0.115207015  nElectrons: 3.000000  magneticMoment: [ Abs: 0.14728  Tot: +0.14000 ]
SCF: Cycle: 19   F: -7.068180550693596   dF: -1.228e-05   |Residual|: 9.194e-04   |deigs|: 6.071e-04  t[s]:     34.98
	FillingsUpdate:  mu: -0.113249509  nElectrons: 3.000000  magneticMoment: [ Abs: 0.14678  Tot: +0.14000 ]
SCF: Cycle: 20   F: -7.068188002674053   dF: -7.452e-06   |Residual|: 4.596e-04   |deigs|: 1.815e-03  t[s]:     36.53
	FillingsUpdate:  mu: -0.112255518  nElectrons: 3.000000  magneticMoment: [ Abs: 0.14549  Tot: +0.14000 ]
SCF: Cycle: 21   F: -7.068188972829808   dF: -9.702e-07   |Residual|: 2.834e-04   |deigs|: 1.152e-03  t[s]:     38.03
	FillingsUpdate:  mu: -0.111676333  nElectrons: 3.000000  magneticMoment: [ Abs: 0.14486  Tot: +0.14000 ]
SCF: Cycle: 22   F: -7.068189349813782   dF: -3.770e-07   |Residual|: 1.864e-04   |deigs|: 6.630e-04  t[s]:     39.59
	FillingsUpdate:  mu: -0.111611016  nElectrons: 3.000000  magneticMoment: [ Abs: 0.14417  Tot: +0.14000 ]
SCF: Cycle: 23   F: -7.068189610546115   dF: -2.607e-07   |Residual|: 1.330e-04   |deigs|: 1.141e-04  t[s]:     41.09
	FillingsUpdate:  mu: -0.111527887  nElectrons: 3.000000  magneticMoment: [ Abs: 0.14329  Tot: +0.14000 ]
SCF: Cycle: 24   F: -7.068189834039695   dF: -2.235e-07   |Residual|: 1.154e-04   |deigs|: 1.201e-04  t[s]:     42.61
	FillingsUpdate:  mu: -0.111547646  nElectrons: 3.000000  magneticMoment: [ Abs: 0.14195  Tot: +0.14000 ]
SCF: Cycle: 25   F: -7.068189813169391   dF: +2.087e-08   |Residual|: 1.087e-04   |deigs|: 3.897e-05  t[s]:     44.11
	FillingsUpdate:  mu: -0.111651444  nElectrons: 3.000000  magneticMoment: [ Abs: 0.14085  Tot: +0.14000 ]
SCF: Cycle: 26   F: -7.068189892560253   dF: -7.939e-08   |Residual|: 8.247e-05   |deigs|: 1.365e-04  t[s]:     45.63
	FillingsUpdate:  mu: -0.111752345  nElectrons: 3.000000  magneticMoment: [ Abs: 0.14047  Tot: +0.14000 ]
SCF: Cycle: 27   F: -7.068189922272187   dF: -2.971e-08   |Residual|: 5.818e-05   |deigs|: 1.129e-04  t[s]:     47.16
	FillingsUpdate:  mu: -0.111772596  nElectrons: 3.000000  magneticMoment: [ Abs: 0.14013  Tot: +0.14000 ]
SCF: Cycle: 28   F: -7.068189941774473   dF: -1.950e-08   |Residual|: 3.387e-05   |deigs|: 3.943e-05  t[s]:     48.77
	FillingsUpdate:  mu: -0.111752650  nElectrons: 3.000000  magneticMoment: [ Abs: 0.14004  Tot: +0.14000 ]
SCF: Cycle: 29   F: -7.068189950322055   dF: -8.548e-09   |Residual|: 2.172e-05   |deigs|: 3.847e-05  t[s]:     50.26
	FillingsUpdate:  mu: -0.111736485  nElectrons: 3.000000  magneticMoment: [ Abs: 0.14000  Tot: +0.14000 ]
SCF: Cycle: 30   F: -7.068189953107134   dF: -2.785e-09   |Residual|: 1.331e-05   |deigs|: 4.506e-05  t[s]:     51.80
SCF: Converged (|Delta E|<1.000000e-08 for 2 iters).


# Ionic positions in lattice coordinates:
ion Li   0.000000000000000   0.000000000000000   0.000000000000000 0

# Forces in Lattice coordinates:
force Li   0.000000000000000   0.000000000000000   0.000000000000000 0

# Energy components:
   Eewald =       -2.0053362333702967
       EH =        1.5279236739251456
     Eloc =       -6.1885919700946976
      Enl =       -3.5905144688621267
   Epulay =        0.0000032255226020
      Exc =       -1.5371514634447068
       KE =        4.7254779710865993
-------------------------------------
     Etot =       -7.0681892652374803
       TS =        0.0000006878696540
-------------------------------------
        F =       -7.0681899531071339

IonicMinimize: Iter:   0  F: -7.068189953107134  |grad|_K:  0.000e+00  t[s]:     51.91
IonicMinimize: Converged (|grad|_K<1.000000e-04).

#--- Lowdin population analysis ---
# oxidation-state Li +2.162
# magnetic-moments Li +0.097

End date and time: Sat Feb  5 23:00:47 2022  (Duration: 0-0:00:51.92)
Done!
scale=3
magnetization=0.14
--------------------------------------------------------------------------
The library attempted to open the following supporting CUDA libraries,
but each of them failed.  CUDA-aware support is disabled.
libcuda.so.1: cannot open shared object file: No such file or directory
libcuda.dylib: cannot open shared object file: No such file or directory
/usr/lib64/libcuda.so.1: cannot open shared object file: No such file or directory
/usr/lib64/libcuda.dylib: cannot open shared object file: No such file or directory
If you are not interested in CUDA-aware support, then run with
--mca opal_warn_on_missing_libcuda 0 to suppress this message.  If you are interested
in CUDA-aware support, then try setting LD_LIBRARY_PATH to the location
of libcuda.so.1 to get passed this issue.
--------------------------------------------------------------------------
--------------------------------------------------------------------------
No OpenFabrics connection schemes reported that they were able to be
used on a specific port.  As such, the openib BTL (OpenFabrics
support) will be disabled for this port.

  Local host:           d-6-12-3
  Local device:         mlx5_1
  Local port:           1
  CPCs attempted:       rdmacm, udcm
--------------------------------------------------------------------------

*************** JDFTx 1.6.0 (git hash 42ebbcc2) ***************

Start date and time: Sat Feb  5 23:00:48 2022
Executable jdftx with command-line: -i Alkali.in
Running on hosts (process indices):  d-6-12-3 (0-18)
Divided in process groups (process indices):  0 (0)  1 (1)  2 (2)  3 (3)  4 (4)  5 (5)  6 (6)  7 (7)  8 (8)  9 (9)  10 (10)  11 (11)  12 (12)  13 (13)  14 (14)  15 (15)  16 (16)  17 (17)  18 (18)
Resource initialization completed at t[s]:      0.00
Run totals: 19 processes, 48 threads, 0 GPUs


Input parsed successfully to the following command list (including defaults):

basis kpoint-dependent
coords-type Lattice
core-overlap-check vector
coulomb-interaction Slab 001
davidson-band-ratio 1.1
dump End None
dump-name $INPUT.$VAR
elec-cutoff 20
elec-eigen-algo Davidson
elec-ex-corr gga-PBE
elec-initial-magnetization 0.140000 yes
elec-smearing Fermi 1e-05
electronic-minimize  \
	dirUpdateScheme      FletcherReeves \
	linminMethod         DirUpdateRecommended \
	nIterations          100 \
	history              15 \
	knormThreshold       0 \
	energyDiffThreshold  1e-08 \
	nEnergyDiff          2 \
	alphaTstart          1 \
	alphaTmin            1e-10 \
	updateTestStepSize   yes \
	alphaTreduceFactor   0.1 \
	alphaTincreaseFactor 3 \
	nAlphaAdjustMax      3 \
	wolfeEnergy          0.0001 \
	wolfeGradient        0.9 \
	fdTest               no
electronic-scf  \
	nIterations	10000 \
	energyDiffThreshold	1e-08 \
	residualThreshold	1e-07 \
	mixFraction	0.5 \
	qMetric	0.8 \
	history	10 \
	nEigSteps	2 \
	eigDiffThreshold	1e-08 \
	mixedVariable	Density \
	qKerker	0.8 \
	qKappa	-1 \
	verbose	no \
	mixFractionMag	1.5
exchange-regularization WignerSeitzTruncated
fluid None
fluid-ex-corr (null) lda-PZ
fluid-gummel-loop 10 1.000000e-05
fluid-minimize  \
	dirUpdateScheme      PolakRibiere \
	linminMethod         DirUpdateRecommended \
	nIterations          100 \
	history              15 \
	knormThreshold       0 \
	energyDiffThreshold  0 \
	nEnergyDiff          2 \
	alphaTstart          1 \
	alphaTmin            1e-10 \
	updateTestStepSize   yes \
	alphaTreduceFactor   0.1 \
	alphaTincreaseFactor 3 \
	nAlphaAdjustMax      3 \
	wolfeEnergy          0.0001 \
	wolfeGradient        0.9 \
	fdTest               no
fluid-solvent H2O 55.338 ScalarEOS \
	epsBulk 78.4 \
	pMol 0.92466 \
	epsInf 1.77 \
	Pvap 1.06736e-10 \
	sigmaBulk 4.62e-05 \
	Rvdw 2.61727 \
	Res 1.42 \
	tauNuc 343133 \
	poleEl 15 7 1
forces-output-coords Positions
ion Li   0.000000000000000   0.000000000000000   0.000000000000000 0
ion-species SG15/$ID_ONCV_PBE.upf
ion-width 0
ionic-minimize  \
	dirUpdateScheme      L-BFGS \
	linminMethod         DirUpdateRecommended \
	nIterations          0 \
	history              15 \
	knormThreshold       0.0001 \
	energyDiffThreshold  1e-06 \
	nEnergyDiff          2 \
	alphaTstart          1 \
	alphaTmin            1e-10 \
	updateTestStepSize   yes \
	alphaTreduceFactor   0.1 \
	alphaTincreaseFactor 3 \
	nAlphaAdjustMax      3 \
	wolfeEnergy          0.0001 \
	wolfeGradient        0.9 \
	fdTest               no
kpoint   0.000000000000   0.000000000000   0.000000000000  1.00000000000000
kpoint-folding 12 12 1 
latt-move-scale 1 1 1
latt-scale 3 3 1 
lattice  \
	   4.727486978767153   -2.363743489383575    0.000000000000000  \
	  -0.000000000000000    4.094123819672498    0.000000000000000  \
	   0.000000000000000    0.000000000000000   40.000000000000000 
lattice-minimize  \
	dirUpdateScheme      L-BFGS \
	linminMethod         DirUpdateRecommended \
	nIterations          0 \
	history              15 \
	knormThreshold       0 \
	energyDiffThreshold  1e-06 \
	nEnergyDiff          2 \
	alphaTstart          1 \
	alphaTmin            1e-10 \
	updateTestStepSize   yes \
	alphaTreduceFactor   0.1 \
	alphaTincreaseFactor 3 \
	nAlphaAdjustMax      3 \
	wolfeEnergy          0.0001 \
	wolfeGradient        0.9 \
	fdTest               no
lcao-params -1 1e-06 1e-05
pcm-variant GLSSA13
spintype z-spin
subspace-rotation-factor 1 yes
symmetries automatic
symmetry-threshold 0.0001



---------- Setting up symmetries ----------

Found 24 point-group symmetries of the bravais lattice
Found 24 space-group symmetries with basis
Applied RMS atom displacement 0 bohrs to make symmetries exact.

---------- Initializing the Grid ----------
R = 
[      14.1825     -7.09123            0  ]
[            0      12.2824            0  ]
[            0            0           40  ]
unit cell volume = 6967.77
G =
[   0.443025   0.255781         -0  ]
[          0   0.511561         -0  ]
[         -0         -0    0.15708  ]
Minimum fftbox size, Smin = [  60  60  164  ]
Chosen fftbox size, S = [  60  60  168  ]

---------- Exchange Correlation functional ----------
Initalized PBE GGA exchange.
Initalized PBE GGA correlation.

---------- Setting up pseudopotentials ----------
Width of ionic core gaussian charges (only for fluid interactions / plotting) set to 0

Reading pseudopotential file '/home/gridsan/aligho/DFT/build-Nov24/pseudopotentials/SG15/Li_ONCV_PBE.upf':
  'Li' pseudopotential, 'PBE' functional
  Generated using ONCVPSP code by D. R. Hamann
  Author: Martin Schlipf and Francois Gygi  Date: 150915.
  3 valence electrons, 2 orbitals, 4 projectors, 1328 radial grid points, with lMax = 1
  Transforming local potential to a uniform radial grid of dG=0.02 with 1489 points.
  Transforming nonlocal projectors to a uniform radial grid of dG=0.02 with 432 points.
    1S    l: 0   occupation:  2.0   eigenvalue: -1.905623
    2S    l: 0   occupation:  1.0   eigenvalue: -0.105624
  Transforming atomic orbitals to a uniform radial grid of dG=0.02 with 432 points.
  WARNING: large normalization error in atomic orbital 1s (integral: 0.000000).
  Core radius for overlap checks: 1.63 bohrs.
  Reading pulay file /home/gridsan/aligho/DFT/build-Nov24/pseudopotentials/SG15/Li_ONCV_PBE.pulay ... using dE_dnG = -1.230239e-02 computed for Ecut = 20.

Initialized 1 species with 1 total atoms.

Folded 1 k-points by 12x12x1 to 144 k-points.

---------- Setting up k-points, bands, fillings ----------
Reduced to 19 k-points under symmetry. 
Computing the number of bands and number of electrons
Calculating initial fillings.
nElectrons:   3.000000   nBands: 3   nStates: 38

----- Setting up reduced wavefunction bases (one per k-point) -----
average nbasis = 29766.104 , ideal nbasis = 29766.845

---------- Setting up coulomb interaction ----------
Initialized slab truncation along lattice direction 001

---------- Setting up 2D ewald sum ----------
Optimum gaussian width for ewald sums = 7.873530 bohr.
Real space sums over 289 unit cells with max indices [  8  8  0  ]
Reciprocal space sums over 81 terms with max indices [  4  4  0  ]

---------- Allocating electronic variables ----------
Initializing wave functions:  linear combination of atomic orbitals
Note: number of bands (3) exceeds available atomic orbitals (2)
Li pseudo-atom occupations:   s ( 2 1 )
[d-6-12-3:70799] 18 more processes have sent help message help-mpi-common-cuda.txt / dlopen failed
[d-6-12-3:70799] Set MCA parameter "orte_base_help_aggregate" to 0 to see all help / error messages
[d-6-12-3:70799] 18 more processes have sent help message help-mpi-btl-openib-cpc-base.txt / no cpcs for port
	FillingsUpdate:  mu: +0.351105813  nElectrons: 3.000000  magneticMoment: [ Abs: 0.14312  Tot: +0.14000 ]
LCAOMinimize: Iter:   0  F: -1.2891326718327760  |grad|_K:  4.881e-05  alpha:  1.000e+00
	FillingsUpdate:  mu: +0.351105127  nElectrons: 3.000000  magneticMoment: [ Abs: 0.14312  Tot: +0.14000 ]
LCAOMinimize: Iter:   1  F: -1.2891331021881134  |grad|_K:  5.483e-07  alpha:  1.056e+00  linmin: -1.054e-03  cgtest:  9.244e-03  t[s]:      7.46
	FillingsUpdate:  mu: +0.351105129  nElectrons: 3.000000  magneticMoment: [ Abs: 0.14312  Tot: +0.14000 ]
LCAOMinimize: Iter:   2  F: -1.2891331022439345  |grad|_K:  2.060e-08  alpha:  1.038e+00  linmin:  2.048e-02  cgtest: -9.283e-01  t[s]:      9.44
LCAOMinimize: Converged (|Delta F|<1.000000e-06 for 2 iters).


---- Citations for features of the code used in this run ----

   Software package:
      R. Sundararaman, K. Letchworth-Weaver, K.A. Schwarz, D. Gunceler, Y. Ozhabes and T.A. Arias, 'JDFTx: software for joint density-functional theory', SoftwareX 6, 278 (2017)

   gga-PBE exchange-correlation functional:
      J.P. Perdew, K. Burke and M. Ernzerhof, Phys. Rev. Lett. 77, 3865 (1996)

   Pseudopotentials:
      M Schlipf and F Gygi, Comput. Phys. Commun. 196, 36 (2015)

   Truncated Coulomb potentials:
      R. Sundararaman and T.A. Arias, Phys. Rev. B 87, 165122 (2013)

This list may not be complete. Please suggest additional citations or
report any other bugs at https://github.com/shankar1729/jdftx/issues

Initialization completed successfully at t[s]:      9.53


-------- Electronic minimization -----------
Will mix electronic density at each iteration.
	FillingsUpdate:  mu: +0.351105129  nElectrons: 3.000000  magneticMoment: [ Abs: 0.14312  Tot: +0.14000 ]
	FillingsUpdate:  mu: -0.692711000  nElectrons: 3.000000  magneticMoment: [ Abs: 0.14312  Tot: +0.14000 ]
SCF: Cycle:  0   F: -6.868451020785431   dF: -5.579e+00   |Residual|: 1.224e+00   |deigs|: 4.156e+00  t[s]:     12.96
	FillingsUpdate:  mu: -0.576834572  nElectrons: 3.000000  magneticMoment: [ Abs: 0.23175  Tot: +0.14000 ]
SCF: Cycle:  1   F: -6.915201244016262   dF: -4.675e-02   |Residual|: 7.611e-01   |deigs|: 2.725e-01  t[s]:     15.72
	FillingsUpdate:  mu: -0.323689779  nElectrons: 3.000000  magneticMoment: [ Abs: 0.30735  Tot: +0.14000 ]
SCF: Cycle:  2   F: -7.040123099565649   dF: -1.249e-01   |Residual|: 3.269e-01   |deigs|: 7.161e-01  t[s]:     18.52
	FillingsUpdate:  mu: -0.355346728  nElectrons: 3.000000  magneticMoment: [ Abs: 0.32128  Tot: +0.14000 ]
SCF: Cycle:  3   F: -7.041557065702144   dF: -1.434e-03   |Residual|: 1.845e-01   |deigs|: 8.295e-02  t[s]:     21.35
	FillingsUpdate:  mu: -0.329707483  nElectrons: 3.000000  magneticMoment: [ Abs: 0.37360  Tot: +0.14000 ]
SCF: Cycle:  4   F: -7.039187982358965   dF: +2.369e-03   |Residual|: 8.460e-02   |deigs|: 2.501e-02  t[s]:     24.24
	FillingsUpdate:  mu: -0.317151635  nElectrons: 3.000000  magneticMoment: [ Abs: 0.33336  Tot: +0.14000 ]
SCF: Cycle:  5   F: -7.039107809783045   dF: +8.017e-05   |Residual|: 1.056e-01   |deigs|: 1.545e-02  t[s]:     27.26
	FillingsUpdate:  mu: -0.277793710  nElectrons: 3.000000  magneticMoment: [ Abs: 0.22479  Tot: +0.14000 ]
SCF: Cycle:  6   F: -7.042756235107108   dF: -3.648e-03   |Residual|: 2.635e-02   |deigs|: 8.367e-02  t[s]:     30.25
	FillingsUpdate:  mu: -0.247333348  nElectrons: 3.000000  magneticMoment: [ Abs: 0.17048  Tot: +0.14000 ]
SCF: Cycle:  7   F: -7.044351205858512   dF: -1.595e-03   |Residual|: 1.455e-01   |deigs|: 7.722e-02  t[s]:     33.35
	FillingsUpdate:  mu: -0.239327197  nElectrons: 3.000000  magneticMoment: [ Abs: 0.15781  Tot: +0.14000 ]
SCF: Cycle:  8   F: -7.045035458217670   dF: -6.843e-04   |Residual|: 8.780e-02   |deigs|: 1.599e-02  t[s]:     36.47
	FillingsUpdate:  mu: -0.235051528  nElectrons: 3.000000  magneticMoment: [ Abs: 0.27708  Tot: +0.14000 ]
SCF: Cycle:  9   F: -7.043703256675383   dF: +1.332e-03   |Residual|: 2.101e-01   |deigs|: 1.167e-01  t[s]:     39.70
	FillingsUpdate:  mu: -0.211034519  nElectrons: 3.000000  magneticMoment: [ Abs: 0.35003  Tot: +0.14000 ]
SCF: Cycle: 10   F: -7.043534887705611   dF: +1.684e-04   |Residual|: 2.386e-01   |deigs|: 2.126e-02  t[s]:     43.08
	FillingsUpdate:  mu: -0.172744878  nElectrons: 3.000000  magneticMoment: [ Abs: 0.24388  Tot: +0.14000 ]
SCF: Cycle: 11   F: -7.046607036073132   dF: -3.072e-03   |Residual|: 2.712e-02   |deigs|: 1.251e-01  t[s]:     46.39
	FillingsUpdate:  mu: -0.163376155  nElectrons: 3.000000  magneticMoment: [ Abs: 0.21445  Tot: +0.14000 ]
SCF: Cycle: 12   F: -7.047057627211224   dF: -4.506e-04   |Residual|: 1.132e-02   |deigs|: 8.097e-03  t[s]:     49.74
	FillingsUpdate:  mu: -0.140254330  nElectrons: 3.000000  magneticMoment: [ Abs: 0.21300  Tot: +0.14000 ]
SCF: Cycle: 13   F: -7.047163516242439   dF: -1.059e-04   |Residual|: 8.814e-03   |deigs|: 2.726e-02  t[s]:     53.00
	FillingsUpdate:  mu: -0.132210353  nElectrons: 3.000000  magneticMoment: [ Abs: 0.19857  Tot: +0.14000 ]
SCF: Cycle: 14   F: -7.047213582673729   dF: -5.007e-05   |Residual|: 6.973e-03   |deigs|: 6.371e-03  t[s]:     56.24
	FillingsUpdate:  mu: -0.125187401  nElectrons: 3.000000  magneticMoment: [ Abs: 0.18861  Tot: +0.14000 ]
SCF: Cycle: 15   F: -7.047244798225550   dF: -3.122e-05   |Residual|: 5.644e-03   |deigs|: 6.003e-03  t[s]:     59.53
	FillingsUpdate:  mu: -0.118630305  nElectrons: 3.000000  magneticMoment: [ Abs: 0.17675  Tot: +0.14000 ]
SCF: Cycle: 16   F: -7.047272237522519   dF: -2.744e-05   |Residual|: 4.756e-03   |deigs|: 7.209e-03  t[s]:     62.81
	FillingsUpdate:  mu: -0.110429287  nElectrons: 3.000000  magneticMoment: [ Abs: 0.16886  Tot: +0.14000 ]
SCF: Cycle: 17   F: -7.047413468097717   dF: -1.412e-04   |Residual|: 3.690e-03   |deigs|: 9.122e-03  t[s]:     66.05
	FillingsUpdate:  mu: -0.106627186  nElectrons: 3.000000  magneticMoment: [ Abs: 0.15709  Tot: +0.14000 ]
SCF: Cycle: 18   F: -7.047505456168763   dF: -9.199e-05   |Residual|: 2.034e-03   |deigs|: 4.729e-03  t[s]:     69.41
	FillingsUpdate:  mu: -0.105735019  nElectrons: 3.000000  magneticMoment: [ Abs: 0.15383  Tot: +0.14000 ]
SCF: Cycle: 19   F: -7.047536913760741   dF: -3.146e-05   |Residual|: 1.427e-03   |deigs|: 1.125e-03  t[s]:     72.65
	FillingsUpdate:  mu: -0.107485981  nElectrons: 3.000000  magneticMoment: [ Abs: 0.14681  Tot: +0.14000 ]
SCF: Cycle: 20   F: -7.047556608323534   dF: -1.969e-05   |Residual|: 8.436e-04   |deigs|: 1.748e-03  t[s]:     75.90
	FillingsUpdate:  mu: -0.107426753  nElectrons: 3.000000  magneticMoment: [ Abs: 0.14504  Tot: +0.14000 ]
SCF: Cycle: 21   F: -7.047564977484909   dF: -8.369e-06   |Residual|: 5.137e-04   |deigs|: 1.765e-04  t[s]:     79.15
	FillingsUpdate:  mu: -0.106772428  nElectrons: 3.000000  magneticMoment: [ Abs: 0.14446  Tot: +0.14000 ]
SCF: Cycle: 22   F: -7.047569256385120   dF: -4.279e-06   |Residual|: 2.353e-04   |deigs|: 6.116e-04  t[s]:     82.32
	FillingsUpdate:  mu: -0.106611385  nElectrons: 3.000000  magneticMoment: [ Abs: 0.14391  Tot: +0.14000 ]
SCF: Cycle: 23   F: -7.047569817411946   dF: -5.610e-07   |Residual|: 1.501e-04   |deigs|: 1.356e-04  t[s]:     85.58
	FillingsUpdate:  mu: -0.106571657  nElectrons: 3.000000  magneticMoment: [ Abs: 0.14331  Tot: +0.14000 ]
SCF: Cycle: 24   F: -7.047570030086423   dF: -2.127e-07   |Residual|: 1.011e-04   |deigs|: 8.775e-05  t[s]:     88.90
	FillingsUpdate:  mu: -0.106620147  nElectrons: 3.000000  magneticMoment: [ Abs: 0.14257  Tot: +0.14000 ]
SCF: Cycle: 25   F: -7.047570349073627   dF: -3.190e-07   |Residual|: 7.040e-05   |deigs|: 1.289e-04  t[s]:     92.17
	FillingsUpdate:  mu: -0.106713209  nElectrons: 3.000000  magneticMoment: [ Abs: 0.14174  Tot: +0.14000 ]
SCF: Cycle: 26   F: -7.047570444749434   dF: -9.568e-08   |Residual|: 5.677e-05   |deigs|: 1.466e-04  t[s]:     95.44
	FillingsUpdate:  mu: -0.106741348  nElectrons: 3.000000  magneticMoment: [ Abs: 0.14128  Tot: +0.14000 ]
SCF: Cycle: 27   F: -7.047570485716872   dF: -4.097e-08   |Residual|: 4.559e-05   |deigs|: 1.154e-04  t[s]:     98.77
	FillingsUpdate:  mu: -0.106717690  nElectrons: 3.000000  magneticMoment: [ Abs: 0.14086  Tot: +0.14000 ]
SCF: Cycle: 28   F: -7.047570482748970   dF: +2.968e-09   |Residual|: 3.597e-05   |deigs|: 9.708e-05  t[s]:    102.10
	FillingsUpdate:  mu: -0.106695302  nElectrons: 3.000000  magneticMoment: [ Abs: 0.14052  Tot: +0.14000 ]
SCF: Cycle: 29   F: -7.047570490472192   dF: -7.723e-09   |Residual|: 3.054e-05   |deigs|: 8.493e-05  t[s]:    105.37
	FillingsUpdate:  mu: -0.106698502  nElectrons: 3.000000  magneticMoment: [ Abs: 0.14032  Tot: +0.14000 ]
SCF: Cycle: 30   F: -7.047570496613679   dF: -6.141e-09   |Residual|: 2.445e-05   |deigs|: 7.205e-05  t[s]:    108.64
SCF: Converged (|Delta E|<1.000000e-08 for 2 iters).


# Ionic positions in lattice coordinates:
ion Li   0.000000000000000   0.000000000000000   0.000000000000000 0

# Forces in Lattice coordinates:
force Li  -0.000000000000000  -0.000000000000000   0.000000000000000 0

# Energy components:
   Eewald =       -1.3368908222468645
       EH =        2.1952722752884375
     Eloc =       -7.5335736292420989
      Enl =       -3.6005878318805751
   Epulay =       -0.0000013080581827
      Exc =       -1.5306425667186903
       KE =        4.7588540741139482
-------------------------------------
     Etot =       -7.0475698087440257
       TS =        0.0000006878696540
-------------------------------------
        F =       -7.0475704966136794

IonicMinimize: Iter:   0  F: -7.047570496613679  |grad|_K:  0.000e+00  t[s]:    108.79
IonicMinimize: Converged (|grad|_K<1.000000e-04).

#--- Lowdin population analysis ---
# oxidation-state Li +2.106
# magnetic-moments Li +0.129

End date and time: Sat Feb  5 23:02:37 2022  (Duration: 0-0:01:48.81)
Done!
scale=4
magnetization=0.14
--------------------------------------------------------------------------
The library attempted to open the following supporting CUDA libraries,
but each of them failed.  CUDA-aware support is disabled.
libcuda.so.1: cannot open shared object file: No such file or directory
libcuda.dylib: cannot open shared object file: No such file or directory
/usr/lib64/libcuda.so.1: cannot open shared object file: No such file or directory
/usr/lib64/libcuda.dylib: cannot open shared object file: No such file or directory
If you are not interested in CUDA-aware support, then run with
--mca opal_warn_on_missing_libcuda 0 to suppress this message.  If you are interested
in CUDA-aware support, then try setting LD_LIBRARY_PATH to the location
of libcuda.so.1 to get passed this issue.
--------------------------------------------------------------------------
--------------------------------------------------------------------------
No OpenFabrics connection schemes reported that they were able to be
used on a specific port.  As such, the openib BTL (OpenFabrics
support) will be disabled for this port.

  Local host:           d-6-12-3
  Local device:         mlx5_1
  Local port:           1
  CPCs attempted:       rdmacm, udcm
--------------------------------------------------------------------------

*************** JDFTx 1.6.0 (git hash 42ebbcc2) ***************

Start date and time: Sat Feb  5 23:02:38 2022
Executable jdftx with command-line: -i Alkali.in
Running on hosts (process indices):  d-6-12-3 (0-18)
Divided in process groups (process indices):  0 (0)  1 (1)  2 (2)  3 (3)  4 (4)  5 (5)  6 (6)  7 (7)  8 (8)  9 (9)  10 (10)  11 (11)  12 (12)  13 (13)  14 (14)  15 (15)  16 (16)  17 (17)  18 (18)
Resource initialization completed at t[s]:      0.00
Run totals: 19 processes, 48 threads, 0 GPUs


Input parsed successfully to the following command list (including defaults):

basis kpoint-dependent
coords-type Lattice
core-overlap-check vector
coulomb-interaction Slab 001
davidson-band-ratio 1.1
dump End None
dump-name $INPUT.$VAR
elec-cutoff 20
elec-eigen-algo Davidson
elec-ex-corr gga-PBE
elec-initial-magnetization 0.140000 yes
elec-smearing Fermi 1e-05
electronic-minimize  \
	dirUpdateScheme      FletcherReeves \
	linminMethod         DirUpdateRecommended \
	nIterations          100 \
	history              15 \
	knormThreshold       0 \
	energyDiffThreshold  1e-08 \
	nEnergyDiff          2 \
	alphaTstart          1 \
	alphaTmin            1e-10 \
	updateTestStepSize   yes \
	alphaTreduceFactor   0.1 \
	alphaTincreaseFactor 3 \
	nAlphaAdjustMax      3 \
	wolfeEnergy          0.0001 \
	wolfeGradient        0.9 \
	fdTest               no
electronic-scf  \
	nIterations	10000 \
	energyDiffThreshold	1e-08 \
	residualThreshold	1e-07 \
	mixFraction	0.5 \
	qMetric	0.8 \
	history	10 \
	nEigSteps	2 \
	eigDiffThreshold	1e-08 \
	mixedVariable	Density \
	qKerker	0.8 \
	qKappa	-1 \
	verbose	no \
	mixFractionMag	1.5
exchange-regularization WignerSeitzTruncated
fluid None
fluid-ex-corr (null) lda-PZ
fluid-gummel-loop 10 1.000000e-05
fluid-minimize  \
	dirUpdateScheme      PolakRibiere \
	linminMethod         DirUpdateRecommended \
	nIterations          100 \
	history              15 \
	knormThreshold       0 \
	energyDiffThreshold  0 \
	nEnergyDiff          2 \
	alphaTstart          1 \
	alphaTmin            1e-10 \
	updateTestStepSize   yes \
	alphaTreduceFactor   0.1 \
	alphaTincreaseFactor 3 \
	nAlphaAdjustMax      3 \
	wolfeEnergy          0.0001 \
	wolfeGradient        0.9 \
	fdTest               no
fluid-solvent H2O 55.338 ScalarEOS \
	epsBulk 78.4 \
	pMol 0.92466 \
	epsInf 1.77 \
	Pvap 1.06736e-10 \
	sigmaBulk 4.62e-05 \
	Rvdw 2.61727 \
	Res 1.42 \
	tauNuc 343133 \
	poleEl 15 7 1
forces-output-coords Positions
ion Li   0.000000000000000   0.000000000000000   0.000000000000000 0
ion-species SG15/$ID_ONCV_PBE.upf
ion-width 0
ionic-minimize  \
	dirUpdateScheme      L-BFGS \
	linminMethod         DirUpdateRecommended \
	nIterations          0 \
	history              15 \
	knormThreshold       0.0001 \
	energyDiffThreshold  1e-06 \
	nEnergyDiff          2 \
	alphaTstart          1 \
	alphaTmin            1e-10 \
	updateTestStepSize   yes \
	alphaTreduceFactor   0.1 \
	alphaTincreaseFactor 3 \
	nAlphaAdjustMax      3 \
	wolfeEnergy          0.0001 \
	wolfeGradient        0.9 \
	fdTest               no
kpoint   0.000000000000   0.000000000000   0.000000000000  1.00000000000000
kpoint-folding 12 12 1 
latt-move-scale 1 1 1
latt-scale 4 4 1 
lattice  \
	   4.727486978767153   -2.363743489383575    0.000000000000000  \
	  -0.000000000000000    4.094123819672498    0.000000000000000  \
	   0.000000000000000    0.000000000000000   40.000000000000000 
lattice-minimize  \
	dirUpdateScheme      L-BFGS \
	linminMethod         DirUpdateRecommended \
	nIterations          0 \
	history              15 \
	knormThreshold       0 \
	energyDiffThreshold  1e-06 \
	nEnergyDiff          2 \
	alphaTstart          1 \
	alphaTmin            1e-10 \
	updateTestStepSize   yes \
	alphaTreduceFactor   0.1 \
	alphaTincreaseFactor 3 \
	nAlphaAdjustMax      3 \
	wolfeEnergy          0.0001 \
	wolfeGradient        0.9 \
	fdTest               no
lcao-params -1 1e-06 1e-05
pcm-variant GLSSA13
spintype z-spin
subspace-rotation-factor 1 yes
symmetries automatic
symmetry-threshold 0.0001



---------- Setting up symmetries ----------

Found 24 point-group symmetries of the bravais lattice
Found 24 space-group symmetries with basis
Applied RMS atom displacement 0 bohrs to make symmetries exact.

---------- Initializing the Grid ----------
R = 
[      18.9099     -9.45497            0  ]
[            0      16.3765            0  ]
[            0            0           40  ]
unit cell volume = 12387.1
G =
[   0.332269   0.191835         -0  ]
[          0   0.383671         -0  ]
[         -0         -0    0.15708  ]
Minimum fftbox size, Smin = [  80  80  164  ]
Chosen fftbox size, S = [  80  80  168  ]

---------- Exchange Correlation functional ----------
Initalized PBE GGA exchange.
Initalized PBE GGA correlation.

---------- Setting up pseudopotentials ----------
Width of ionic core gaussian charges (only for fluid interactions / plotting) set to 0

Reading pseudopotential file '/home/gridsan/aligho/DFT/build-Nov24/pseudopotentials/SG15/Li_ONCV_PBE.upf':
  'Li' pseudopotential, 'PBE' functional
  Generated using ONCVPSP code by D. R. Hamann
  Author: Martin Schlipf and Francois Gygi  Date: 150915.
  3 valence electrons, 2 orbitals, 4 projectors, 1328 radial grid points, with lMax = 1
  Transforming local potential to a uniform radial grid of dG=0.02 with 1489 points.
  Transforming nonlocal projectors to a uniform radial grid of dG=0.02 with 432 points.
    1S    l: 0   occupation:  2.0   eigenvalue: -1.905623
    2S    l: 0   occupation:  1.0   eigenvalue: -0.105624
  Transforming atomic orbitals to a uniform radial grid of dG=0.02 with 432 points.
  WARNING: large normalization error in atomic orbital 1s (integral: 0.000000).
  Core radius for overlap checks: 1.63 bohrs.
  Reading pulay file /home/gridsan/aligho/DFT/build-Nov24/pseudopotentials/SG15/Li_ONCV_PBE.pulay ... using dE_dnG = -1.230239e-02 computed for Ecut = 20.

Initialized 1 species with 1 total atoms.

Folded 1 k-points by 12x12x1 to 144 k-points.

---------- Setting up k-points, bands, fillings ----------
Reduced to 19 k-points under symmetry. 
Computing the number of bands and number of electrons
Calculating initial fillings.
nElectrons:   3.000000   nBands: 3   nStates: 38

----- Setting up reduced wavefunction bases (one per k-point) -----
average nbasis = 52924.021 , ideal nbasis = 52918.836

---------- Setting up coulomb interaction ----------
Initialized slab truncation along lattice direction 001

---------- Setting up 2D ewald sum ----------
Optimum gaussian width for ewald sums = 10.498040 bohr.
Real space sums over 289 unit cells with max indices [  8  8  0  ]
Reciprocal space sums over 81 terms with max indices [  4  4  0  ]

---------- Allocating electronic variables ----------
Initializing wave functions:  linear combination of atomic orbitals
Note: number of bands (3) exceeds available atomic orbitals (2)
Li pseudo-atom occupations:   s ( 2 1 )
[d-6-12-3:18336] 18 more processes have sent help message help-mpi-common-cuda.txt / dlopen failed
[d-6-12-3:18336] Set MCA parameter "orte_base_help_aggregate" to 0 to see all help / error messages
[d-6-12-3:18336] 18 more processes have sent help message help-mpi-btl-openib-cpc-base.txt / no cpcs for port
	FillingsUpdate:  mu: +0.360267781  nElectrons: 3.000000  magneticMoment: [ Abs: 0.14203  Tot: +0.14000 ]
LCAOMinimize: Iter:   0  F: -1.3115116187190261  |grad|_K:  4.105e-05  alpha:  1.000e+00
	FillingsUpdate:  mu: +0.360266874  nElectrons: 3.000000  magneticMoment: [ Abs: 0.14203  Tot: +0.14000 ]
LCAOMinimize: Iter:   1  F: -1.3115119217925086  |grad|_K:  4.668e-06  alpha:  1.059e+00  linmin:  1.931e-02  cgtest: -1.411e-03  t[s]:     12.78
	FillingsUpdate:  mu: +0.360267224  nElectrons: 3.000000  magneticMoment: [ Abs: 0.14203  Tot: +0.14000 ]
LCAOMinimize: Iter:   2  F: -1.3115119235911730  |grad|_K:  1.126e-06  alpha:  7.720e-01  linmin: -1.838e-02  cgtest:  1.998e+00  t[s]:     16.05
LCAOMinimize: Encountered beta<0, resetting CG.
LCAOMinimize: Converged (|Delta F|<1.000000e-06 for 2 iters).


---- Citations for features of the code used in this run ----

   Software package:
      R. Sundararaman, K. Letchworth-Weaver, K.A. Schwarz, D. Gunceler, Y. Ozhabes and T.A. Arias, 'JDFTx: software for joint density-functional theory', SoftwareX 6, 278 (2017)

   gga-PBE exchange-correlation functional:
      J.P. Perdew, K. Burke and M. Ernzerhof, Phys. Rev. Lett. 77, 3865 (1996)

   Pseudopotentials:
      M Schlipf and F Gygi, Comput. Phys. Commun. 196, 36 (2015)

   Truncated Coulomb potentials:
      R. Sundararaman and T.A. Arias, Phys. Rev. B 87, 165122 (2013)

This list may not be complete. Please suggest additional citations or
report any other bugs at https://github.com/shankar1729/jdftx/issues

Initialization completed successfully at t[s]:     16.19


-------- Electronic minimization -----------
Will mix electronic density at each iteration.
	FillingsUpdate:  mu: +0.360267224  nElectrons: 3.000000  magneticMoment: [ Abs: 0.14203  Tot: +0.14000 ]
	FillingsUpdate:  mu: -0.613122315  nElectrons: 3.000000  magneticMoment: [ Abs: 0.14203  Tot: +0.14000 ]
SCF: Cycle:  0   F: -6.868239590660408   dF: -5.557e+00   |Residual|: 1.229e+00   |deigs|: 4.155e+00  t[s]:     21.84
	FillingsUpdate:  mu: -0.495182554  nElectrons: 3.000000  magneticMoment: [ Abs: 0.24037  Tot: +0.14000 ]
SCF: Cycle:  1   F: -6.914290075904169   dF: -4.605e-02   |Residual|: 7.597e-01   |deigs|: 2.754e-01  t[s]:     26.36
	FillingsUpdate:  mu: -0.232575200  nElectrons: 3.000000  magneticMoment: [ Abs: 0.30885  Tot: +0.14000 ]
SCF: Cycle:  2   F: -7.037307600858701   dF: -1.230e-01   |Residual|: 3.160e-01   |deigs|: 7.127e-01  t[s]:     31.03
	FillingsUpdate:  mu: -0.265467742  nElectrons: 3.000000  magneticMoment: [ Abs: 0.32294  Tot: +0.14000 ]
SCF: Cycle:  3   F: -7.038101250399750   dF: -7.936e-04   |Residual|: 1.852e-01   |deigs|: 7.630e-02  t[s]:     35.82
	FillingsUpdate:  mu: -0.239013022  nElectrons: 3.000000  magneticMoment: [ Abs: 0.30677  Tot: +0.14000 ]
SCF: Cycle:  4   F: -7.034904370564288   dF: +3.197e-03   |Residual|: 9.290e-02   |deigs|: 2.517e-02  t[s]:     40.68
	FillingsUpdate:  mu: -0.224079539  nElectrons: 3.000000  magneticMoment: [ Abs: 0.31230  Tot: +0.14000 ]
SCF: Cycle:  5   F: -7.036620758825750   dF: -1.716e-03   |Residual|: 1.180e-01   |deigs|: 1.889e-02  t[s]:     45.70
	FillingsUpdate:  mu: -0.203049093  nElectrons: 3.000000  magneticMoment: [ Abs: 0.25297  Tot: +0.14000 ]
SCF: Cycle:  6   F: -7.040065243487113   dF: -3.444e-03   |Residual|: 2.222e-02   |deigs|: 6.434e-02  t[s]:     50.79
	FillingsUpdate:  mu: -0.178291274  nElectrons: 3.000000  magneticMoment: [ Abs: 0.19488  Tot: +0.14000 ]
SCF: Cycle:  7   F: -7.042365106396413   dF: -2.300e-03   |Residual|: 1.182e-01   |deigs|: 6.531e-02  t[s]:     55.93
	FillingsUpdate:  mu: -0.178855992  nElectrons: 3.000000  magneticMoment: [ Abs: 0.17582  Tot: +0.14000 ]
SCF: Cycle:  8   F: -7.043050107364538   dF: -6.850e-04   |Residual|: 6.352e-02   |deigs|: 1.888e-02  t[s]:     61.22
	FillingsUpdate:  mu: -0.188599015  nElectrons: 3.000000  magneticMoment: [ Abs: 0.18854  Tot: +0.14000 ]
SCF: Cycle:  9   F: -7.043021311496345   dF: +2.880e-05   |Residual|: 1.098e-01   |deigs|: 7.567e-02  t[s]:     66.65
	FillingsUpdate:  mu: -0.181699120  nElectrons: 3.000000  magneticMoment: [ Abs: 0.19243  Tot: +0.14000 ]
SCF: Cycle: 10   F: -7.043204540315528   dF: -1.832e-04   |Residual|: 1.193e-01   |deigs|: 5.670e-03  t[s]:     72.14
	FillingsUpdate:  mu: -0.153132081  nElectrons: 3.000000  magneticMoment: [ Abs: 0.30788  Tot: +0.14000 ]
SCF: Cycle: 11   F: -7.043990876519329   dF: -7.863e-04   |Residual|: 5.544e-02   |deigs|: 7.991e-02  t[s]:     77.69
	FillingsUpdate:  mu: -0.151992513  nElectrons: 3.000000  magneticMoment: [ Abs: 0.22810  Tot: +0.14000 ]
SCF: Cycle: 12   F: -7.044317702323320   dF: -3.268e-04   |Residual|: 1.226e-02   |deigs|: 2.331e-02  t[s]:     83.26
	FillingsUpdate:  mu: -0.135509210  nElectrons: 3.000000  magneticMoment: [ Abs: 0.24708  Tot: +0.14000 ]
SCF: Cycle: 13   F: -7.044525612833206   dF: -2.079e-04   |Residual|: 8.201e-03   |deigs|: 2.121e-02  t[s]:     88.78
	FillingsUpdate:  mu: -0.125216197  nElectrons: 3.000000  magneticMoment: [ Abs: 0.21223  Tot: +0.14000 ]
SCF: Cycle: 14   F: -7.044598316991366   dF: -7.270e-05   |Residual|: 6.101e-03   |deigs|: 1.230e-02  t[s]:     94.38
	FillingsUpdate:  mu: -0.116327203  nElectrons: 3.000000  magneticMoment: [ Abs: 0.20289  Tot: +0.14000 ]
SCF: Cycle: 15   F: -7.044629479418142   dF: -3.116e-05   |Residual|: 5.108e-03   |deigs|: 9.573e-03  t[s]:     99.84
	FillingsUpdate:  mu: -0.113772432  nElectrons: 3.000000  magneticMoment: [ Abs: 0.18402  Tot: +0.14000 ]
SCF: Cycle: 16   F: -7.044636482793186   dF: -7.003e-06   |Residual|: 3.633e-03   |deigs|: 2.113e-03  t[s]:    105.34
	FillingsUpdate:  mu: -0.109926868  nElectrons: 3.000000  magneticMoment: [ Abs: 0.17982  Tot: +0.14000 ]
SCF: Cycle: 17   F: -7.044648124268173   dF: -1.164e-05   |Residual|: 2.502e-03   |deigs|: 3.614e-03  t[s]:    110.89
	FillingsUpdate:  mu: -0.107014418  nElectrons: 3.000000  magneticMoment: [ Abs: 0.17178  Tot: +0.14000 ]
SCF: Cycle: 18   F: -7.044637211027006   dF: +1.091e-05   |Residual|: 1.902e-03   |deigs|: 3.058e-03  t[s]:    116.37
	FillingsUpdate:  mu: -0.105395906  nElectrons: 3.000000  magneticMoment: [ Abs: 0.16434  Tot: +0.14000 ]
SCF: Cycle: 19   F: -7.044635650788377   dF: +1.560e-06   |Residual|: 1.429e-03   |deigs|: 1.957e-03  t[s]:    121.86
	FillingsUpdate:  mu: -0.104691076  nElectrons: 3.000000  magneticMoment: [ Abs: 0.15776  Tot: +0.14000 ]
SCF: Cycle: 20   F: -7.044671028165461   dF: -3.538e-05   |Residual|: 9.811e-04   |deigs|: 6.947e-04  t[s]:    127.32
	FillingsUpdate:  mu: -0.105199666  nElectrons: 3.000000  magneticMoment: [ Abs: 0.15325  Tot: +0.14000 ]
SCF: Cycle: 21   F: -7.044687936430669   dF: -1.691e-05   |Residual|: 6.873e-04   |deigs|: 5.977e-04  t[s]:    132.88
	FillingsUpdate:  mu: -0.105396327  nElectrons: 3.000000  magneticMoment: [ Abs: 0.14982  Tot: +0.14000 ]
SCF: Cycle: 22   F: -7.044696545609268   dF: -8.609e-06   |Residual|: 5.418e-04   |deigs|: 2.708e-04  t[s]:    138.36
	FillingsUpdate:  mu: -0.105407016  nElectrons: 3.000000  magneticMoment: [ Abs: 0.14544  Tot: +0.14000 ]
SCF: Cycle: 23   F: -7.044703421333370   dF: -6.876e-06   |Residual|: 3.555e-04   |deigs|: 9.210e-05  t[s]:    143.84
	FillingsUpdate:  mu: -0.105502444  nElectrons: 3.000000  magneticMoment: [ Abs: 0.14429  Tot: +0.14000 ]
SCF: Cycle: 24   F: -7.044706493134632   dF: -3.072e-06   |Residual|: 2.535e-04   |deigs|: 1.267e-04  t[s]:    149.35
	FillingsUpdate:  mu: -0.105524567  nElectrons: 3.000000  magneticMoment: [ Abs: 0.14255  Tot: +0.14000 ]
SCF: Cycle: 25   F: -7.044707441584396   dF: -9.484e-07   |Residual|: 1.770e-04   |deigs|: 9.411e-05  t[s]:    154.77
	FillingsUpdate:  mu: -0.105578470  nElectrons: 3.000000  magneticMoment: [ Abs: 0.14156  Tot: +0.14000 ]
SCF: Cycle: 26   F: -7.044708101245921   dF: -6.597e-07   |Residual|: 1.071e-04   |deigs|: 1.140e-04  t[s]:    160.28
	FillingsUpdate:  mu: -0.105605891  nElectrons: 3.000000  magneticMoment: [ Abs: 0.14083  Tot: +0.14000 ]
SCF: Cycle: 27   F: -7.044708145128824   dF: -4.388e-08   |Residual|: 6.595e-05   |deigs|: 9.051e-05  t[s]:    165.78
	FillingsUpdate:  mu: -0.105605496  nElectrons: 3.000000  magneticMoment: [ Abs: 0.14072  Tot: +0.14000 ]
SCF: Cycle: 28   F: -7.044708264979118   dF: -1.199e-07   |Residual|: 4.483e-05   |deigs|: 6.961e-05  t[s]:    171.25
	FillingsUpdate:  mu: -0.105585241  nElectrons: 3.000000  magneticMoment: [ Abs: 0.14066  Tot: +0.14000 ]
SCF: Cycle: 29   F: -7.044708293764528   dF: -2.879e-08   |Residual|: 3.003e-05   |deigs|: 5.752e-05  t[s]:    176.82
	FillingsUpdate:  mu: -0.105558516  nElectrons: 3.000000  magneticMoment: [ Abs: 0.14056  Tot: +0.14000 ]
SCF: Cycle: 30   F: -7.044708312884626   dF: -1.912e-08   |Residual|: 1.895e-05   |deigs|: 5.392e-05  t[s]:    182.38
	FillingsUpdate:  mu: -0.105541772  nElectrons: 3.000000  magneticMoment: [ Abs: 0.14041  Tot: +0.14000 ]
SCF: Cycle: 31   F: -7.044708290371072   dF: +2.251e-08   |Residual|: 1.459e-05   |deigs|: 4.379e-05  t[s]:    187.91
	FillingsUpdate:  mu: -0.105533168  nElectrons: 3.000000  magneticMoment: [ Abs: 0.14029  Tot: +0.14000 ]
SCF: Cycle: 32   F: -7.044708309609531   dF: -1.924e-08   |Residual|: 1.007e-05   |deigs|: 3.600e-05  t[s]:    193.46
	FillingsUpdate:  mu: -0.105527926  nElectrons: 3.000000  magneticMoment: [ Abs: 0.14021  Tot: +0.14000 ]
SCF: Cycle: 33   F: -7.044708302787572   dF: +6.822e-09   |Residual|: 7.413e-06   |deigs|: 2.934e-05  t[s]:    198.92
	FillingsUpdate:  mu: -0.105524093  nElectrons: 3.000000  magneticMoment: [ Abs: 0.14014  Tot: +0.14000 ]
SCF: Cycle: 34   F: -7.044708327328070   dF: -2.454e-08   |Residual|: 5.157e-06   |deigs|: 2.386e-05  t[s]:    204.43
	FillingsUpdate:  mu: -0.105522877  nElectrons: 3.000000  magneticMoment: [ Abs: 0.14011  Tot: +0.14000 ]
SCF: Cycle: 35   F: -7.044708330602307   dF: -3.274e-09   |Residual|: 3.886e-06   |deigs|: 2.018e-05  t[s]:    209.95
	FillingsUpdate:  mu: -0.105522041  nElectrons: 3.000000  magneticMoment: [ Abs: 0.14009  Tot: +0.14000 ]
SCF: Cycle: 36   F: -7.044708331063724   dF: -4.614e-10   |Residual|: 2.824e-06   |deigs|: 1.741e-05  t[s]:    215.45
SCF: Converged (|Delta E|<1.000000e-08 for 2 iters).


# Ionic positions in lattice coordinates:
ion Li   0.000000000000000   0.000000000000000   0.000000000000000 0

# Forces in Lattice coordinates:
force Li  -0.000000000000000   0.000000000000000   0.000000000000000 0

# Energy components:
   Eewald =       -1.0026681166851483
       EH =        2.5457185922786603
     Eloc =       -8.2233215629322665
      Enl =       -3.6032291156957577
   Epulay =        0.0000051497655618
      Exc =       -1.5342597522923493
       KE =        4.7730471843375053
-------------------------------------
     Etot =       -7.0447076212237949
       TS =        0.0000007098399291
-------------------------------------
        F =       -7.0447083310637240

IonicMinimize: Iter:   0  F: -7.044708331063724  |grad|_K:  0.000e+00  t[s]:    215.69
IonicMinimize: Converged (|grad|_K<1.000000e-04).

#--- Lowdin population analysis ---
# oxidation-state Li +2.082
# magnetic-moments Li +0.130

End date and time: Sat Feb  5 23:06:14 2022  (Duration: 0-0:03:35.73)
Done!
