The alkali metal is Li
scale=2
magnetization=-0.32
--------------------------------------------------------------------------
The library attempted to open the following supporting CUDA libraries,
but each of them failed.  CUDA-aware support is disabled.
libcuda.so.1: cannot open shared object file: No such file or directory
libcuda.dylib: cannot open shared object file: No such file or directory
/usr/lib64/libcuda.so.1: cannot open shared object file: No such file or directory
/usr/lib64/libcuda.dylib: cannot open shared object file: No such file or directory
If you are not interested in CUDA-aware support, then run with
--mca opal_warn_on_missing_libcuda 0 to suppress this message.  If you are interested
in CUDA-aware support, then try setting LD_LIBRARY_PATH to the location
of libcuda.so.1 to get passed this issue.
--------------------------------------------------------------------------
--------------------------------------------------------------------------
No OpenFabrics connection schemes reported that they were able to be
used on a specific port.  As such, the openib BTL (OpenFabrics
support) will be disabled for this port.

  Local host:           d-4-5-2
  Local device:         mlx5_1
  Local port:           1
  CPCs attempted:       rdmacm, udcm
--------------------------------------------------------------------------

*************** JDFTx 1.6.0 (git hash 42ebbcc2) ***************

Start date and time: Sat Feb  5 22:53:19 2022
Executable jdftx with command-line: -i Alkali.in
Running on hosts (process indices):  d-4-5-2 (0-18)
Divided in process groups (process indices):  0 (0)  1 (1)  2 (2)  3 (3)  4 (4)  5 (5)  6 (6)  7 (7)  8 (8)  9 (9)  10 (10)  11 (11)  12 (12)  13 (13)  14 (14)  15 (15)  16 (16)  17 (17)  18 (18)
Resource initialization completed at t[s]:      0.00
Run totals: 19 processes, 48 threads, 0 GPUs


Input parsed successfully to the following command list (including defaults):

basis kpoint-dependent
coords-type Lattice
core-overlap-check vector
coulomb-interaction Slab 001
davidson-band-ratio 1.1
dump End None
dump-name $INPUT.$VAR
elec-cutoff 20
elec-eigen-algo Davidson
elec-ex-corr gga-PBE
elec-initial-magnetization -0.320000 yes
elec-smearing Fermi 1e-05
electronic-minimize  \
	dirUpdateScheme      FletcherReeves \
	linminMethod         DirUpdateRecommended \
	nIterations          100 \
	history              15 \
	knormThreshold       0 \
	energyDiffThreshold  1e-08 \
	nEnergyDiff          2 \
	alphaTstart          1 \
	alphaTmin            1e-10 \
	updateTestStepSize   yes \
	alphaTreduceFactor   0.1 \
	alphaTincreaseFactor 3 \
	nAlphaAdjustMax      3 \
	wolfeEnergy          0.0001 \
	wolfeGradient        0.9 \
	fdTest               no
electronic-scf  \
	nIterations	10000 \
	energyDiffThreshold	1e-08 \
	residualThreshold	1e-07 \
	mixFraction	0.5 \
	qMetric	0.8 \
	history	10 \
	nEigSteps	2 \
	eigDiffThreshold	1e-08 \
	mixedVariable	Density \
	qKerker	0.8 \
	qKappa	-1 \
	verbose	no \
	mixFractionMag	1.5
exchange-regularization WignerSeitzTruncated
fluid None
fluid-ex-corr (null) lda-PZ
fluid-gummel-loop 10 1.000000e-05
fluid-minimize  \
	dirUpdateScheme      PolakRibiere \
	linminMethod         DirUpdateRecommended \
	nIterations          100 \
	history              15 \
	knormThreshold       0 \
	energyDiffThreshold  0 \
	nEnergyDiff          2 \
	alphaTstart          1 \
	alphaTmin            1e-10 \
	updateTestStepSize   yes \
	alphaTreduceFactor   0.1 \
	alphaTincreaseFactor 3 \
	nAlphaAdjustMax      3 \
	wolfeEnergy          0.0001 \
	wolfeGradient        0.9 \
	fdTest               no
fluid-solvent H2O 55.338 ScalarEOS \
	epsBulk 78.4 \
	pMol 0.92466 \
	epsInf 1.77 \
	Pvap 1.06736e-10 \
	sigmaBulk 4.62e-05 \
	Rvdw 2.61727 \
	Res 1.42 \
	tauNuc 343133 \
	poleEl 15 7 1
forces-output-coords Positions
ion Li   0.000000000000000   0.000000000000000   0.000000000000000 0
ion-species SG15/$ID_ONCV_PBE.upf
ion-width 0
ionic-minimize  \
	dirUpdateScheme      L-BFGS \
	linminMethod         DirUpdateRecommended \
	nIterations          0 \
	history              15 \
	knormThreshold       0.0001 \
	energyDiffThreshold  1e-06 \
	nEnergyDiff          2 \
	alphaTstart          1 \
	alphaTmin            1e-10 \
	updateTestStepSize   yes \
	alphaTreduceFactor   0.1 \
	alphaTincreaseFactor 3 \
	nAlphaAdjustMax      3 \
	wolfeEnergy          0.0001 \
	wolfeGradient        0.9 \
	fdTest               no
kpoint   0.000000000000   0.000000000000   0.000000000000  1.00000000000000
kpoint-folding 12 12 1 
latt-move-scale 1 1 1
latt-scale 2 2 1 
lattice  \
	   4.727486978767153   -2.363743489383575    0.000000000000000  \
	  -0.000000000000000    4.094123819672498    0.000000000000000  \
	   0.000000000000000    0.000000000000000   40.000000000000000 
lattice-minimize  \
	dirUpdateScheme      L-BFGS \
	linminMethod         DirUpdateRecommended \
	nIterations          0 \
	history              15 \
	knormThreshold       0 \
	energyDiffThreshold  1e-06 \
	nEnergyDiff          2 \
	alphaTstart          1 \
	alphaTmin            1e-10 \
	updateTestStepSize   yes \
	alphaTreduceFactor   0.1 \
	alphaTincreaseFactor 3 \
	nAlphaAdjustMax      3 \
	wolfeEnergy          0.0001 \
	wolfeGradient        0.9 \
	fdTest               no
lcao-params -1 1e-06 1e-05
pcm-variant GLSSA13
spintype z-spin
subspace-rotation-factor 1 yes
symmetries automatic
symmetry-threshold 0.0001



---------- Setting up symmetries ----------

Found 24 point-group symmetries of the bravais lattice
Found 24 space-group symmetries with basis
Applied RMS atom displacement 0 bohrs to make symmetries exact.

---------- Initializing the Grid ----------
R = 
[      9.45497     -4.72749            0  ]
[            0      8.18825            0  ]
[            0            0           40  ]
unit cell volume = 3096.79
G =
[   0.664538   0.383671         -0  ]
[          0   0.767342         -0  ]
[         -0         -0    0.15708  ]
Minimum fftbox size, Smin = [  40  40  164  ]
Chosen fftbox size, S = [  40  40  168  ]

---------- Exchange Correlation functional ----------
Initalized PBE GGA exchange.
Initalized PBE GGA correlation.

---------- Setting up pseudopotentials ----------
Width of ionic core gaussian charges (only for fluid interactions / plotting) set to 0

Reading pseudopotential file '/home/gridsan/aligho/DFT/build-Nov24/pseudopotentials/SG15/Li_ONCV_PBE.upf':
  'Li' pseudopotential, 'PBE' functional
  Generated using ONCVPSP code by D. R. Hamann
  Author: Martin Schlipf and Francois Gygi  Date: 150915.
  3 valence electrons, 2 orbitals, 4 projectors, 1328 radial grid points, with lMax = 1
  Transforming local potential to a uniform radial grid of dG=0.02 with 1489 points.
  Transforming nonlocal projectors to a uniform radial grid of dG=0.02 with 432 points.
    1S    l: 0   occupation:  2.0   eigenvalue: -1.905623
    2S    l: 0   occupation:  1.0   eigenvalue: -0.105624
  Transforming atomic orbitals to a uniform radial grid of dG=0.02 with 432 points.
  WARNING: large normalization error in atomic orbital 1s (integral: 0.000000).
  Core radius for overlap checks: 1.63 bohrs.
  Reading pulay file /home/gridsan/aligho/DFT/build-Nov24/pseudopotentials/SG15/Li_ONCV_PBE.pulay ... using dE_dnG = -1.230239e-02 computed for Ecut = 20.

Initialized 1 species with 1 total atoms.

Folded 1 k-points by 12x12x1 to 144 k-points.

---------- Setting up k-points, bands, fillings ----------
Reduced to 19 k-points under symmetry. 
Computing the number of bands and number of electrons
Calculating initial fillings.
nElectrons:   3.000000   nBands: 3   nStates: 38

----- Setting up reduced wavefunction bases (one per k-point) -----
average nbasis = 13230.521 , ideal nbasis = 13229.709

---------- Setting up coulomb interaction ----------
Initialized slab truncation along lattice direction 001

---------- Setting up 2D ewald sum ----------
Optimum gaussian width for ewald sums = 5.249020 bohr.
Real space sums over 289 unit cells with max indices [  8  8  0  ]
Reciprocal space sums over 81 terms with max indices [  4  4  0  ]

---------- Allocating electronic variables ----------
Initializing wave functions:  linear combination of atomic orbitals
Note: number of bands (3) exceeds available atomic orbitals (2)
Li pseudo-atom occupations:   s ( 2 1 )
	FillingsUpdate:  mu: +0.325759627  nElectrons: 3.000000  magneticMoment: [ Abs: 0.32044  Tot: -0.32000 ]
LCAOMinimize: Iter:   0  F: -1.1817910518238344  |grad|_K:  7.381e-05  alpha:  1.000e+00
	FillingsUpdate:  mu: +0.325757986  nElectrons: 3.000000  magneticMoment: [ Abs: 0.32044  Tot: -0.32000 ]
LCAOMinimize: Iter:   1  F: -1.1817920242554976  |grad|_K:  1.849e-06  alpha:  1.044e+00  linmin: -1.780e-03  cgtest:  2.745e-02  t[s]:      3.87
LCAOMinimize: Encountered beta<0, resetting CG.
[d-4-5-2:26421] 18 more processes have sent help message help-mpi-common-cuda.txt / dlopen failed
[d-4-5-2:26421] Set MCA parameter "orte_base_help_aggregate" to 0 to see all help / error messages
[d-4-5-2:26421] 18 more processes have sent help message help-mpi-btl-openib-cpc-base.txt / no cpcs for port
	FillingsUpdate:  mu: +0.325757977  nElectrons: 3.000000  magneticMoment: [ Abs: 0.32044  Tot: -0.32000 ]
LCAOMinimize: Iter:   2  F: -1.1817920248525589  |grad|_K:  5.750e-08  alpha:  1.019e+00  linmin:  9.908e-04  cgtest: -2.610e-02  t[s]:      4.91
LCAOMinimize: Converged (|Delta F|<1.000000e-06 for 2 iters).


---- Citations for features of the code used in this run ----

   Software package:
      R. Sundararaman, K. Letchworth-Weaver, K.A. Schwarz, D. Gunceler, Y. Ozhabes and T.A. Arias, 'JDFTx: software for joint density-functional theory', SoftwareX 6, 278 (2017)

   gga-PBE exchange-correlation functional:
      J.P. Perdew, K. Burke and M. Ernzerhof, Phys. Rev. Lett. 77, 3865 (1996)

   Pseudopotentials:
      M Schlipf and F Gygi, Comput. Phys. Commun. 196, 36 (2015)

   Truncated Coulomb potentials:
      R. Sundararaman and T.A. Arias, Phys. Rev. B 87, 165122 (2013)

This list may not be complete. Please suggest additional citations or
report any other bugs at https://github.com/shankar1729/jdftx/issues

Initialization completed successfully at t[s]:      4.97


-------- Electronic minimization -----------
Will mix electronic density at each iteration.
	FillingsUpdate:  mu: +0.325757977  nElectrons: 3.000000  magneticMoment: [ Abs: 0.32044  Tot: -0.32000 ]
	FillingsUpdate:  mu: -0.971644495  nElectrons: 3.000000  magneticMoment: [ Abs: 0.32044  Tot: -0.32000 ]
SCF: Cycle:  0   F: -6.832476559218705   dF: -5.651e+00   |Residual|: 1.172e+00   |deigs|: 4.171e+00  t[s]:      6.65
	FillingsUpdate:  mu: -0.854564883  nElectrons: 3.000000  magneticMoment: [ Abs: 0.48709  Tot: -0.32000 ]
SCF: Cycle:  1   F: -6.937735805425690   dF: -1.053e-01   |Residual|: 7.738e-01   |deigs|: 2.352e-01  t[s]:      7.97
	FillingsUpdate:  mu: -0.632130680  nElectrons: 3.000000  magneticMoment: [ Abs: 0.63405  Tot: -0.32000 ]
SCF: Cycle:  2   F: -7.050035642965210   dF: -1.123e-01   |Residual|: 4.223e-01   |deigs|: 7.785e-01  t[s]:      9.28
	FillingsUpdate:  mu: -0.655276372  nElectrons: 3.000000  magneticMoment: [ Abs: 0.53843  Tot: -0.32000 ]
SCF: Cycle:  3   F: -7.057613394964387   dF: -7.578e-03   |Residual|: 2.100e-01   |deigs|: 1.232e-01  t[s]:     10.72
	FillingsUpdate:  mu: -0.620578604  nElectrons: 3.000000  magneticMoment: [ Abs: 0.41539  Tot: -0.32000 ]
SCF: Cycle:  4   F: -7.056205473561297   dF: +1.408e-03   |Residual|: 3.878e-02   |deigs|: 3.433e-02  t[s]:     12.09
	FillingsUpdate:  mu: -0.589201021  nElectrons: 3.000000  magneticMoment: [ Abs: 0.40388  Tot: -0.32000 ]
SCF: Cycle:  5   F: -7.055348243149545   dF: +8.572e-04   |Residual|: 1.402e-01   |deigs|: 2.588e-02  t[s]:     13.46
	FillingsUpdate:  mu: -0.464183205  nElectrons: 3.000000  magneticMoment: [ Abs: 0.47420  Tot: -0.32000 ]
SCF: Cycle:  6   F: -7.060059561436841   dF: -4.711e-03   |Residual|: 1.032e-01   |deigs|: 1.558e-01  t[s]:     14.86
	FillingsUpdate:  mu: -0.414801384  nElectrons: 3.000000  magneticMoment: [ Abs: 0.41845  Tot: -0.32000 ]
SCF: Cycle:  7   F: -7.060923343825583   dF: -8.638e-04   |Residual|: 1.654e-01   |deigs|: 1.196e-01  t[s]:     16.30
	FillingsUpdate:  mu: -0.395565972  nElectrons: 3.000000  magneticMoment: [ Abs: 0.39054  Tot: -0.32000 ]
SCF: Cycle:  8   F: -7.062459909085828   dF: -1.537e-03   |Residual|: 8.976e-02   |deigs|: 2.347e-02  t[s]:     17.88
	FillingsUpdate:  mu: -0.332838556  nElectrons: 3.000000  magneticMoment: [ Abs: 0.43465  Tot: -0.32000 ]
SCF: Cycle:  9   F: -7.064401164848761   dF: -1.941e-03   |Residual|: 1.700e-01   |deigs|: 8.129e-02  t[s]:     19.36
	FillingsUpdate:  mu: -0.312652919  nElectrons: 3.000000  magneticMoment: [ Abs: 0.43699  Tot: -0.32000 ]
SCF: Cycle: 10   F: -7.064405733235206   dF: -4.568e-06   |Residual|: 1.753e-01   |deigs|: 1.801e-02  t[s]:     20.85
	FillingsUpdate:  mu: -0.248399415  nElectrons: 3.000000  magneticMoment: [ Abs: 0.42308  Tot: -0.32000 ]
SCF: Cycle: 11   F: -7.066430547686707   dF: -2.025e-03   |Residual|: 1.595e-02   |deigs|: 1.154e-01  t[s]:     22.36
	FillingsUpdate:  mu: -0.219285971  nElectrons: 3.000000  magneticMoment: [ Abs: 0.42958  Tot: -0.32000 ]
SCF: Cycle: 12   F: -7.066714442447548   dF: -2.839e-04   |Residual|: 1.398e-02   |deigs|: 2.895e-02  t[s]:     23.92
	FillingsUpdate:  mu: -0.181151400  nElectrons: 3.000000  magneticMoment: [ Abs: 0.40754  Tot: -0.32000 ]
SCF: Cycle: 13   F: -7.066993640832795   dF: -2.792e-04   |Residual|: 1.225e-02   |deigs|: 3.997e-02  t[s]:     25.44
	FillingsUpdate:  mu: -0.145283340  nElectrons: 3.000000  magneticMoment: [ Abs: 0.37905  Tot: -0.32000 ]
SCF: Cycle: 14   F: -7.066989610105498   dF: +4.031e-06   |Residual|: 8.830e-03   |deigs|: 3.732e-02  t[s]:     26.93
	FillingsUpdate:  mu: -0.133332096  nElectrons: 3.000000  magneticMoment: [ Abs: 0.36805  Tot: -0.32000 ]
SCF: Cycle: 15   F: -7.067023135403238   dF: -3.353e-05   |Residual|: 6.438e-03   |deigs|: 1.057e-02  t[s]:     28.40
	FillingsUpdate:  mu: -0.118251363  nElectrons: 3.000000  magneticMoment: [ Abs: 0.35708  Tot: -0.32000 ]
SCF: Cycle: 16   F: -7.067189630851018   dF: -1.665e-04   |Residual|: 4.215e-03   |deigs|: 1.478e-02  t[s]:     29.90
	FillingsUpdate:  mu: -0.114486313  nElectrons: 3.000000  magneticMoment: [ Abs: 0.34526  Tot: -0.32000 ]
SCF: Cycle: 17   F: -7.067246771037691   dF: -5.714e-05   |Residual|: 2.783e-03   |deigs|: 4.494e-03  t[s]:     31.36
	FillingsUpdate:  mu: -0.112392798  nElectrons: 3.000000  magneticMoment: [ Abs: 0.34002  Tot: -0.32000 ]
SCF: Cycle: 18   F: -7.067293773392160   dF: -4.700e-05   |Residual|: 1.812e-03   |deigs|: 2.242e-03  t[s]:     32.96
	FillingsUpdate:  mu: -0.112049046  nElectrons: 3.000000  magneticMoment: [ Abs: 0.33472  Tot: -0.32000 ]
SCF: Cycle: 19   F: -7.067308807813678   dF: -1.503e-05   |Residual|: 1.082e-03   |deigs|: 5.035e-04  t[s]:     34.45
	FillingsUpdate:  mu: -0.111034243  nElectrons: 3.000000  magneticMoment: [ Abs: 0.33202  Tot: -0.32000 ]
SCF: Cycle: 20   F: -7.067320545690917   dF: -1.174e-05   |Residual|: 6.507e-04   |deigs|: 9.317e-04  t[s]:     35.99
	FillingsUpdate:  mu: -0.110697922  nElectrons: 3.000000  magneticMoment: [ Abs: 0.33013  Tot: -0.32000 ]
SCF: Cycle: 21   F: -7.067323825079725   dF: -3.279e-06   |Residual|: 3.886e-04   |deigs|: 3.278e-04  t[s]:     37.57
	FillingsUpdate:  mu: -0.110489225  nElectrons: 3.000000  magneticMoment: [ Abs: 0.32852  Tot: -0.32000 ]
SCF: Cycle: 22   F: -7.067325023026662   dF: -1.198e-06   |Residual|: 2.827e-04   |deigs|: 2.311e-04  t[s]:     39.04
	FillingsUpdate:  mu: -0.110394076  nElectrons: 3.000000  magneticMoment: [ Abs: 0.32655  Tot: -0.32000 ]
SCF: Cycle: 23   F: -7.067325775427331   dF: -7.524e-07   |Residual|: 2.509e-04   |deigs|: 1.193e-04  t[s]:     40.53
	FillingsUpdate:  mu: -0.110437394  nElectrons: 3.000000  magneticMoment: [ Abs: 0.32397  Tot: -0.32000 ]
SCF: Cycle: 24   F: -7.067326029232333   dF: -2.538e-07   |Residual|: 2.151e-04   |deigs|: 6.407e-05  t[s]:     42.01
	FillingsUpdate:  mu: -0.110413907  nElectrons: 3.000000  magneticMoment: [ Abs: 0.32162  Tot: -0.32000 ]
SCF: Cycle: 25   F: -7.067326124066660   dF: -9.483e-08   |Residual|: 1.700e-04   |deigs|: 6.937e-05  t[s]:     43.53
	FillingsUpdate:  mu: -0.110442520  nElectrons: 3.000000  magneticMoment: [ Abs: 0.32065  Tot: -0.32000 ]
SCF: Cycle: 26   F: -7.067326436526564   dF: -3.125e-07   |Residual|: 1.221e-04   |deigs|: 3.828e-05  t[s]:     45.06
	FillingsUpdate:  mu: -0.110431792  nElectrons: 3.000000  magneticMoment: [ Abs: 0.32031  Tot: -0.32000 ]
SCF: Cycle: 27   F: -7.067326452550202   dF: -1.602e-08   |Residual|: 8.659e-05   |deigs|: 4.067e-05  t[s]:     46.53
	FillingsUpdate:  mu: -0.110452074  nElectrons: 3.000000  magneticMoment: [ Abs: 0.32016  Tot: -0.32000 ]
SCF: Cycle: 28   F: -7.067326484462823   dF: -3.191e-08   |Residual|: 6.063e-05   |deigs|: 5.088e-05  t[s]:     47.98
	FillingsUpdate:  mu: -0.110536372  nElectrons: 3.000000  magneticMoment: [ Abs: 0.32008  Tot: -0.32000 ]
SCF: Cycle: 29   F: -7.067326503599388   dF: -1.914e-08   |Residual|: 4.739e-05   |deigs|: 1.095e-04  t[s]:     49.53
	FillingsUpdate:  mu: -0.110659838  nElectrons: 3.000000  magneticMoment: [ Abs: 0.32004  Tot: -0.32000 ]
SCF: Cycle: 30   F: -7.067326556124583   dF: -5.253e-08   |Residual|: 3.663e-05   |deigs|: 1.462e-04  t[s]:     51.05
	FillingsUpdate:  mu: -0.110748731  nElectrons: 3.000000  magneticMoment: [ Abs: 0.32003  Tot: -0.32000 ]
SCF: Cycle: 31   F: -7.067326590235802   dF: -3.411e-08   |Residual|: 2.916e-05   |deigs|: 1.011e-04  t[s]:     52.55
	FillingsUpdate:  mu: -0.110799042  nElectrons: 3.000000  magneticMoment: [ Abs: 0.32003  Tot: -0.32000 ]
SCF: Cycle: 32   F: -7.067326590669996   dF: -4.342e-10   |Residual|: 2.226e-05   |deigs|: 6.168e-05  t[s]:     54.09
	FillingsUpdate:  mu: -0.110829361  nElectrons: 3.000000  magneticMoment: [ Abs: 0.32002  Tot: -0.32000 ]
SCF: Cycle: 33   F: -7.067326584079140   dF: +6.591e-09   |Residual|: 1.722e-05   |deigs|: 4.885e-05  t[s]:     55.59
	FillingsUpdate:  mu: -0.110859663  nElectrons: 3.000000  magneticMoment: [ Abs: 0.32001  Tot: -0.32000 ]
SCF: Cycle: 34   F: -7.067326579272515   dF: +4.807e-09   |Residual|: 1.333e-05   |deigs|: 8.404e-05  t[s]:     57.10
	FillingsUpdate:  mu: -0.110884434  nElectrons: 3.000000  magneticMoment: [ Abs: 0.32000  Tot: -0.32000 ]
SCF: Cycle: 35   F: -7.067326584584736   dF: -5.312e-09   |Residual|: 1.096e-05   |deigs|: 7.614e-05  t[s]:     58.64
	FillingsUpdate:  mu: -0.110896949  nElectrons: 3.000000  magneticMoment: [ Abs: 0.32000  Tot: -0.32000 ]
SCF: Cycle: 36   F: -7.067326590152840   dF: -5.568e-09   |Residual|: 9.713e-06   |deigs|: 5.500e-05  t[s]:     60.16
SCF: Converged (|Delta E|<1.000000e-08 for 2 iters).


# Ionic positions in lattice coordinates:
ion Li   0.000000000000000   0.000000000000000   0.000000000000000 0

# Forces in Lattice coordinates:
force Li  -0.000000000000000   0.000000000000000   0.000000000000000 0

# Energy components:
   Eewald =       -2.0053362333702967
       EH =        1.5299665927565818
     Eloc =       -6.1909511927588508
      Enl =       -3.5903917180796947
   Epulay =        0.0000032255226020
      Exc =       -1.5381156226013162
       KE =        4.7274991992292854
-------------------------------------
     Etot =       -7.0673257493016877
       TS =        0.0000008408511521
-------------------------------------
        F =       -7.0673265901528399

IonicMinimize: Iter:   0  F: -7.067326590152840  |grad|_K:  0.000e+00  t[s]:     60.23
IonicMinimize: Converged (|grad|_K<1.000000e-04).

#--- Lowdin population analysis ---
# oxidation-state Li +2.174
# magnetic-moments Li -0.222

End date and time: Sat Feb  5 22:54:19 2022  (Duration: 0-0:01:00.24)
Done!
scale=3
magnetization=-0.32
--------------------------------------------------------------------------
The library attempted to open the following supporting CUDA libraries,
but each of them failed.  CUDA-aware support is disabled.
libcuda.so.1: cannot open shared object file: No such file or directory
libcuda.dylib: cannot open shared object file: No such file or directory
/usr/lib64/libcuda.so.1: cannot open shared object file: No such file or directory
/usr/lib64/libcuda.dylib: cannot open shared object file: No such file or directory
If you are not interested in CUDA-aware support, then run with
--mca opal_warn_on_missing_libcuda 0 to suppress this message.  If you are interested
in CUDA-aware support, then try setting LD_LIBRARY_PATH to the location
of libcuda.so.1 to get passed this issue.
--------------------------------------------------------------------------
--------------------------------------------------------------------------
No OpenFabrics connection schemes reported that they were able to be
used on a specific port.  As such, the openib BTL (OpenFabrics
support) will be disabled for this port.

  Local host:           d-4-5-2
  Local device:         mlx5_1
  Local port:           1
  CPCs attempted:       rdmacm, udcm
--------------------------------------------------------------------------

*************** JDFTx 1.6.0 (git hash 42ebbcc2) ***************

Start date and time: Sat Feb  5 22:54:20 2022
Executable jdftx with command-line: -i Alkali.in
Running on hosts (process indices):  d-4-5-2 (0-18)
Divided in process groups (process indices):  0 (0)  1 (1)  2 (2)  3 (3)  4 (4)  5 (5)  6 (6)  7 (7)  8 (8)  9 (9)  10 (10)  11 (11)  12 (12)  13 (13)  14 (14)  15 (15)  16 (16)  17 (17)  18 (18)
Resource initialization completed at t[s]:      0.00
Run totals: 19 processes, 48 threads, 0 GPUs


Input parsed successfully to the following command list (including defaults):

basis kpoint-dependent
coords-type Lattice
core-overlap-check vector
coulomb-interaction Slab 001
davidson-band-ratio 1.1
dump End None
dump-name $INPUT.$VAR
elec-cutoff 20
elec-eigen-algo Davidson
elec-ex-corr gga-PBE
elec-initial-magnetization -0.320000 yes
elec-smearing Fermi 1e-05
electronic-minimize  \
	dirUpdateScheme      FletcherReeves \
	linminMethod         DirUpdateRecommended \
	nIterations          100 \
	history              15 \
	knormThreshold       0 \
	energyDiffThreshold  1e-08 \
	nEnergyDiff          2 \
	alphaTstart          1 \
	alphaTmin            1e-10 \
	updateTestStepSize   yes \
	alphaTreduceFactor   0.1 \
	alphaTincreaseFactor 3 \
	nAlphaAdjustMax      3 \
	wolfeEnergy          0.0001 \
	wolfeGradient        0.9 \
	fdTest               no
electronic-scf  \
	nIterations	10000 \
	energyDiffThreshold	1e-08 \
	residualThreshold	1e-07 \
	mixFraction	0.5 \
	qMetric	0.8 \
	history	10 \
	nEigSteps	2 \
	eigDiffThreshold	1e-08 \
	mixedVariable	Density \
	qKerker	0.8 \
	qKappa	-1 \
	verbose	no \
	mixFractionMag	1.5
exchange-regularization WignerSeitzTruncated
fluid None
fluid-ex-corr (null) lda-PZ
fluid-gummel-loop 10 1.000000e-05
fluid-minimize  \
	dirUpdateScheme      PolakRibiere \
	linminMethod         DirUpdateRecommended \
	nIterations          100 \
	history              15 \
	knormThreshold       0 \
	energyDiffThreshold  0 \
	nEnergyDiff          2 \
	alphaTstart          1 \
	alphaTmin            1e-10 \
	updateTestStepSize   yes \
	alphaTreduceFactor   0.1 \
	alphaTincreaseFactor 3 \
	nAlphaAdjustMax      3 \
	wolfeEnergy          0.0001 \
	wolfeGradient        0.9 \
	fdTest               no
fluid-solvent H2O 55.338 ScalarEOS \
	epsBulk 78.4 \
	pMol 0.92466 \
	epsInf 1.77 \
	Pvap 1.06736e-10 \
	sigmaBulk 4.62e-05 \
	Rvdw 2.61727 \
	Res 1.42 \
	tauNuc 343133 \
	poleEl 15 7 1
forces-output-coords Positions
ion Li   0.000000000000000   0.000000000000000   0.000000000000000 0
ion-species SG15/$ID_ONCV_PBE.upf
ion-width 0
ionic-minimize  \
	dirUpdateScheme      L-BFGS \
	linminMethod         DirUpdateRecommended \
	nIterations          0 \
	history              15 \
	knormThreshold       0.0001 \
	energyDiffThreshold  1e-06 \
	nEnergyDiff          2 \
	alphaTstart          1 \
	alphaTmin            1e-10 \
	updateTestStepSize   yes \
	alphaTreduceFactor   0.1 \
	alphaTincreaseFactor 3 \
	nAlphaAdjustMax      3 \
	wolfeEnergy          0.0001 \
	wolfeGradient        0.9 \
	fdTest               no
kpoint   0.000000000000   0.000000000000   0.000000000000  1.00000000000000
kpoint-folding 12 12 1 
latt-move-scale 1 1 1
latt-scale 3 3 1 
lattice  \
	   4.727486978767153   -2.363743489383575    0.000000000000000  \
	  -0.000000000000000    4.094123819672498    0.000000000000000  \
	   0.000000000000000    0.000000000000000   40.000000000000000 
lattice-minimize  \
	dirUpdateScheme      L-BFGS \
	linminMethod         DirUpdateRecommended \
	nIterations          0 \
	history              15 \
	knormThreshold       0 \
	energyDiffThreshold  1e-06 \
	nEnergyDiff          2 \
	alphaTstart          1 \
	alphaTmin            1e-10 \
	updateTestStepSize   yes \
	alphaTreduceFactor   0.1 \
	alphaTincreaseFactor 3 \
	nAlphaAdjustMax      3 \
	wolfeEnergy          0.0001 \
	wolfeGradient        0.9 \
	fdTest               no
lcao-params -1 1e-06 1e-05
pcm-variant GLSSA13
spintype z-spin
subspace-rotation-factor 1 yes
symmetries automatic
symmetry-threshold 0.0001



---------- Setting up symmetries ----------

Found 24 point-group symmetries of the bravais lattice
Found 24 space-group symmetries with basis
Applied RMS atom displacement 0 bohrs to make symmetries exact.

---------- Initializing the Grid ----------
R = 
[      14.1825     -7.09123            0  ]
[            0      12.2824            0  ]
[            0            0           40  ]
unit cell volume = 6967.77
G =
[   0.443025   0.255781         -0  ]
[          0   0.511561         -0  ]
[         -0         -0    0.15708  ]
Minimum fftbox size, Smin = [  60  60  164  ]
Chosen fftbox size, S = [  60  60  168  ]

---------- Exchange Correlation functional ----------
Initalized PBE GGA exchange.
Initalized PBE GGA correlation.

---------- Setting up pseudopotentials ----------
Width of ionic core gaussian charges (only for fluid interactions / plotting) set to 0

Reading pseudopotential file '/home/gridsan/aligho/DFT/build-Nov24/pseudopotentials/SG15/Li_ONCV_PBE.upf':
  'Li' pseudopotential, 'PBE' functional
  Generated using ONCVPSP code by D. R. Hamann
  Author: Martin Schlipf and Francois Gygi  Date: 150915.
  3 valence electrons, 2 orbitals, 4 projectors, 1328 radial grid points, with lMax = 1
  Transforming local potential to a uniform radial grid of dG=0.02 with 1489 points.
  Transforming nonlocal projectors to a uniform radial grid of dG=0.02 with 432 points.
    1S    l: 0   occupation:  2.0   eigenvalue: -1.905623
    2S    l: 0   occupation:  1.0   eigenvalue: -0.105624
  Transforming atomic orbitals to a uniform radial grid of dG=0.02 with 432 points.
  WARNING: large normalization error in atomic orbital 1s (integral: 0.000000).
  Core radius for overlap checks: 1.63 bohrs.
  Reading pulay file /home/gridsan/aligho/DFT/build-Nov24/pseudopotentials/SG15/Li_ONCV_PBE.pulay ... using dE_dnG = -1.230239e-02 computed for Ecut = 20.

Initialized 1 species with 1 total atoms.

Folded 1 k-points by 12x12x1 to 144 k-points.

---------- Setting up k-points, bands, fillings ----------
Reduced to 19 k-points under symmetry. 
Computing the number of bands and number of electrons
Calculating initial fillings.
nElectrons:   3.000000   nBands: 3   nStates: 38

----- Setting up reduced wavefunction bases (one per k-point) -----
average nbasis = 29766.104 , ideal nbasis = 29766.845

---------- Setting up coulomb interaction ----------
Initialized slab truncation along lattice direction 001

---------- Setting up 2D ewald sum ----------
Optimum gaussian width for ewald sums = 7.873530 bohr.
Real space sums over 289 unit cells with max indices [  8  8  0  ]
Reciprocal space sums over 81 terms with max indices [  4  4  0  ]

---------- Allocating electronic variables ----------
Initializing wave functions:  linear combination of atomic orbitals
Note: number of bands (3) exceeds available atomic orbitals (2)
Li pseudo-atom occupations:   s ( 2 1 )
[d-4-5-2:26640] 18 more processes have sent help message help-mpi-common-cuda.txt / dlopen failed
[d-4-5-2:26640] Set MCA parameter "orte_base_help_aggregate" to 0 to see all help / error messages
[d-4-5-2:26640] 18 more processes have sent help message help-mpi-btl-openib-cpc-base.txt / no cpcs for port
	FillingsUpdate:  mu: +0.350437766  nElectrons: 3.000000  magneticMoment: [ Abs: 0.32077  Tot: -0.32000 ]
LCAOMinimize: Iter:   0  F: -1.2879254348264177  |grad|_K:  4.807e-05  alpha:  1.000e+00
	FillingsUpdate:  mu: +0.350437261  nElectrons: 3.000000  magneticMoment: [ Abs: 0.32077  Tot: -0.32000 ]
LCAOMinimize: Iter:   1  F: -1.2879258524638186  |grad|_K:  4.771e-07  alpha:  1.057e+00  linmin: -1.055e-03  cgtest:  9.410e-03  t[s]:      7.62
	FillingsUpdate:  mu: +0.350437262  nElectrons: 3.000000  magneticMoment: [ Abs: 0.32077  Tot: -0.32000 ]
LCAOMinimize: Iter:   2  F: -1.2879258525022070  |grad|_K:  8.838e-09  alpha:  9.890e-01  linmin: -1.678e-02  cgtest:  7.370e-01  t[s]:      9.59
LCAOMinimize: Encountered beta<0, resetting CG.
LCAOMinimize: Converged (|Delta F|<1.000000e-06 for 2 iters).


---- Citations for features of the code used in this run ----

   Software package:
      R. Sundararaman, K. Letchworth-Weaver, K.A. Schwarz, D. Gunceler, Y. Ozhabes and T.A. Arias, 'JDFTx: software for joint density-functional theory', SoftwareX 6, 278 (2017)

   gga-PBE exchange-correlation functional:
      J.P. Perdew, K. Burke and M. Ernzerhof, Phys. Rev. Lett. 77, 3865 (1996)

   Pseudopotentials:
      M Schlipf and F Gygi, Comput. Phys. Commun. 196, 36 (2015)

   Truncated Coulomb potentials:
      R. Sundararaman and T.A. Arias, Phys. Rev. B 87, 165122 (2013)

This list may not be complete. Please suggest additional citations or
report any other bugs at https://github.com/shankar1729/jdftx/issues

Initialization completed successfully at t[s]:      9.68


-------- Electronic minimization -----------
Will mix electronic density at each iteration.
	FillingsUpdate:  mu: +0.350437262  nElectrons: 3.000000  magneticMoment: [ Abs: 0.32077  Tot: -0.32000 ]
	FillingsUpdate:  mu: -0.694648277  nElectrons: 3.000000  magneticMoment: [ Abs: 0.32077  Tot: -0.32000 ]
SCF: Cycle:  0   F: -6.872338200169040   dF: -5.584e+00   |Residual|: 1.224e+00   |deigs|: 4.156e+00  t[s]:     13.08
	FillingsUpdate:  mu: -0.575031742  nElectrons: 3.000000  magneticMoment: [ Abs: 0.50757  Tot: -0.32000 ]
SCF: Cycle:  1   F: -6.916570228084680   dF: -4.423e-02   |Residual|: 7.621e-01   |deigs|: 2.731e-01  t[s]:     15.79
	FillingsUpdate:  mu: -0.342227606  nElectrons: 3.000000  magneticMoment: [ Abs: 0.69672  Tot: -0.32000 ]
SCF: Cycle:  2   F: -7.039085728377685   dF: -1.225e-01   |Residual|: 3.289e-01   |deigs|: 7.126e-01  t[s]:     18.52
	FillingsUpdate:  mu: -0.359377832  nElectrons: 3.000000  magneticMoment: [ Abs: 0.66561  Tot: -0.32000 ]
SCF: Cycle:  3   F: -7.041016295887236   dF: -1.931e-03   |Residual|: 1.857e-01   |deigs|: 7.972e-02  t[s]:     21.32
	FillingsUpdate:  mu: -0.327965707  nElectrons: 3.000000  magneticMoment: [ Abs: 0.66036  Tot: -0.32000 ]
SCF: Cycle:  4   F: -7.040675701741935   dF: +3.406e-04   |Residual|: 5.312e-02   |deigs|: 2.604e-02  t[s]:     24.19
	FillingsUpdate:  mu: -0.313832263  nElectrons: 3.000000  magneticMoment: [ Abs: 0.60198  Tot: -0.32000 ]
SCF: Cycle:  5   F: -7.040137632064170   dF: +5.381e-04   |Residual|: 1.189e-01   |deigs|: 1.372e-02  t[s]:     27.16
	FillingsUpdate:  mu: -0.242488662  nElectrons: 3.000000  magneticMoment: [ Abs: 0.46749  Tot: -0.32000 ]
SCF: Cycle:  6   F: -7.045453085952734   dF: -5.315e-03   |Residual|: 5.210e-02   |deigs|: 1.412e-01  t[s]:     30.15
	FillingsUpdate:  mu: -0.232304344  nElectrons: 3.000000  magneticMoment: [ Abs: 0.42425  Tot: -0.32000 ]
SCF: Cycle:  7   F: -7.045472660822178   dF: -1.957e-05   |Residual|: 1.336e-01   |deigs|: 3.929e-02  t[s]:     33.19
	FillingsUpdate:  mu: -0.236720323  nElectrons: 3.000000  magneticMoment: [ Abs: 0.39400  Tot: -0.32000 ]
SCF: Cycle:  8   F: -7.045583368750616   dF: -1.107e-04   |Residual|: 9.651e-02   |deigs|: 1.982e-02  t[s]:     36.35
	FillingsUpdate:  mu: -0.217047040  nElectrons: 3.000000  magneticMoment: [ Abs: 0.38744  Tot: -0.32000 ]
SCF: Cycle:  9   F: -7.046373257012157   dF: -7.899e-04   |Residual|: 7.019e-02   |deigs|: 5.604e-02  t[s]:     39.50
	FillingsUpdate:  mu: -0.206775172  nElectrons: 3.000000  magneticMoment: [ Abs: 0.40019  Tot: -0.32000 ]
SCF: Cycle: 10   F: -7.046397712267032   dF: -2.446e-05   |Residual|: 9.028e-02   |deigs|: 1.606e-02  t[s]:     42.74
	FillingsUpdate:  mu: -0.176368404  nElectrons: 3.000000  magneticMoment: [ Abs: 0.42403  Tot: -0.32000 ]
SCF: Cycle: 11   F: -7.047422111212073   dF: -1.024e-03   |Residual|: 1.610e-02   |deigs|: 5.529e-02  t[s]:     46.01
	FillingsUpdate:  mu: -0.163597915  nElectrons: 3.000000  magneticMoment: [ Abs: 0.42911  Tot: -0.32000 ]
SCF: Cycle: 12   F: -7.047618775655497   dF: -1.967e-04   |Residual|: 1.008e-02   |deigs|: 1.163e-02  t[s]:     49.33
	FillingsUpdate:  mu: -0.144609576  nElectrons: 3.000000  magneticMoment: [ Abs: 0.42812  Tot: -0.32000 ]
SCF: Cycle: 13   F: -7.047638737303564   dF: -1.996e-05   |Residual|: 8.776e-03   |deigs|: 1.747e-02  t[s]:     52.64
	FillingsUpdate:  mu: -0.133477848  nElectrons: 3.000000  magneticMoment: [ Abs: 0.41812  Tot: -0.32000 ]
SCF: Cycle: 14   F: -7.047616281497055   dF: +2.246e-05   |Residual|: 7.100e-03   |deigs|: 1.239e-02  t[s]:     55.84
	FillingsUpdate:  mu: -0.121101611  nElectrons: 3.000000  magneticMoment: [ Abs: 0.39958  Tot: -0.32000 ]
SCF: Cycle: 15   F: -7.047592323270350   dF: +2.396e-05   |Residual|: 5.679e-03   |deigs|: 1.408e-02  t[s]:     59.13
	FillingsUpdate:  mu: -0.109997418  nElectrons: 3.000000  magneticMoment: [ Abs: 0.37326  Tot: -0.32000 ]
SCF: Cycle: 16   F: -7.047829672857053   dF: -2.373e-04   |Residual|: 4.126e-03   |deigs|: 1.232e-02  t[s]:     62.38
	FillingsUpdate:  mu: -0.108493439  nElectrons: 3.000000  magneticMoment: [ Abs: 0.35482  Tot: -0.32000 ]
SCF: Cycle: 17   F: -7.047947804618290   dF: -1.181e-04   |Residual|: 2.859e-03   |deigs|: 1.454e-03  t[s]:     65.65
	FillingsUpdate:  mu: -0.108442862  nElectrons: 3.000000  magneticMoment: [ Abs: 0.34256  Tot: -0.32000 ]
SCF: Cycle: 18   F: -7.048011896262085   dF: -6.409e-05   |Residual|: 1.821e-03   |deigs|: 7.588e-04  t[s]:     68.92
	FillingsUpdate:  mu: -0.107536376  nElectrons: 3.000000  magneticMoment: [ Abs: 0.33629  Tot: -0.32000 ]
SCF: Cycle: 19   F: -7.048057864852879   dF: -4.597e-05   |Residual|: 1.242e-03   |deigs|: 1.310e-03  t[s]:     72.09
	FillingsUpdate:  mu: -0.106663469  nElectrons: 3.000000  magneticMoment: [ Abs: 0.33317  Tot: -0.32000 ]
SCF: Cycle: 20   F: -7.048077189494006   dF: -1.932e-05   |Residual|: 7.913e-04   |deigs|: 1.132e-03  t[s]:     75.36
	FillingsUpdate:  mu: -0.105805719  nElectrons: 3.000000  magneticMoment: [ Abs: 0.33185  Tot: -0.32000 ]
SCF: Cycle: 21   F: -7.048085858153754   dF: -8.669e-06   |Residual|: 4.949e-04   |deigs|: 9.582e-04  t[s]:     78.60
	FillingsUpdate:  mu: -0.105876298  nElectrons: 3.000000  magneticMoment: [ Abs: 0.32944  Tot: -0.32000 ]
SCF: Cycle: 22   F: -7.048088813662425   dF: -2.956e-06   |Residual|: 3.201e-04   |deigs|: 2.233e-04  t[s]:     81.79
	FillingsUpdate:  mu: -0.105995369  nElectrons: 3.000000  magneticMoment: [ Abs: 0.32636  Tot: -0.32000 ]
SCF: Cycle: 23   F: -7.048090476036545   dF: -1.662e-06   |Residual|: 1.795e-04   |deigs|: 3.012e-04  t[s]:     84.99
	FillingsUpdate:  mu: -0.106126495  nElectrons: 3.000000  magneticMoment: [ Abs: 0.32503  Tot: -0.32000 ]
SCF: Cycle: 24   F: -7.048090892332384   dF: -4.163e-07   |Residual|: 1.516e-04   |deigs|: 1.836e-04  t[s]:     88.19
	FillingsUpdate:  mu: -0.106181183  nElectrons: 3.000000  magneticMoment: [ Abs: 0.32359  Tot: -0.32000 ]
SCF: Cycle: 25   F: -7.048091002653336   dF: -1.103e-07   |Residual|: 1.110e-04   |deigs|: 1.387e-04  t[s]:     91.43
	FillingsUpdate:  mu: -0.106282427  nElectrons: 3.000000  magneticMoment: [ Abs: 0.32178  Tot: -0.32000 ]
SCF: Cycle: 26   F: -7.048091052542011   dF: -4.989e-08   |Residual|: 9.623e-05   |deigs|: 1.367e-04  t[s]:     94.66
	FillingsUpdate:  mu: -0.106319528  nElectrons: 3.000000  magneticMoment: [ Abs: 0.32115  Tot: -0.32000 ]
SCF: Cycle: 27   F: -7.048091098294550   dF: -4.575e-08   |Residual|: 7.930e-05   |deigs|: 1.084e-04  t[s]:     97.92
	FillingsUpdate:  mu: -0.106332303  nElectrons: 3.000000  magneticMoment: [ Abs: 0.32039  Tot: -0.32000 ]
SCF: Cycle: 28   F: -7.048091139509332   dF: -4.121e-08   |Residual|: 5.651e-05   |deigs|: 9.863e-05  t[s]:    101.16
	FillingsUpdate:  mu: -0.106319226  nElectrons: 3.000000  magneticMoment: [ Abs: 0.32014  Tot: -0.32000 ]
SCF: Cycle: 29   F: -7.048091204471894   dF: -6.496e-08   |Residual|: 4.230e-05   |deigs|: 8.047e-05  t[s]:    104.47
	FillingsUpdate:  mu: -0.106303453  nElectrons: 3.000000  magneticMoment: [ Abs: 0.32003  Tot: -0.32000 ]
SCF: Cycle: 30   F: -7.048091230331311   dF: -2.586e-08   |Residual|: 3.350e-05   |deigs|: 6.843e-05  t[s]:    107.65
	FillingsUpdate:  mu: -0.106280146  nElectrons: 3.000000  magneticMoment: [ Abs: 0.32000  Tot: -0.32000 ]
SCF: Cycle: 31   F: -7.048091263330544   dF: -3.300e-08   |Residual|: 2.534e-05   |deigs|: 5.637e-05  t[s]:    110.86
	FillingsUpdate:  mu: -0.106265454  nElectrons: 3.000000  magneticMoment: [ Abs: 0.32000  Tot: -0.32000 ]
SCF: Cycle: 32   F: -7.048091280142525   dF: -1.681e-08   |Residual|: 1.633e-05   |deigs|: 4.104e-05  t[s]:    114.08
	FillingsUpdate:  mu: -0.106269077  nElectrons: 3.000000  magneticMoment: [ Abs: 0.32000  Tot: -0.32000 ]
SCF: Cycle: 33   F: -7.048091280872431   dF: -7.299e-10   |Residual|: 9.182e-06   |deigs|: 3.515e-05  t[s]:    117.28
	FillingsUpdate:  mu: -0.106272340  nElectrons: 3.000000  magneticMoment: [ Abs: 0.32000  Tot: -0.32000 ]
SCF: Cycle: 34   F: -7.048091284135139   dF: -3.263e-09   |Residual|: 5.828e-06   |deigs|: 2.746e-05  t[s]:    120.55
SCF: Converged (|Delta E|<1.000000e-08 for 2 iters).


# Ionic positions in lattice coordinates:
ion Li   0.000000000000000   0.000000000000000   0.000000000000000 0

# Forces in Lattice coordinates:
force Li   0.000000000000000  -0.000000000000000   0.000000000000000 0

# Energy components:
   Eewald =       -1.3368908222468645
       EH =        2.1992263187935670
     Eloc =       -7.5386492399349985
      Enl =       -3.6012058484669947
   Epulay =       -0.0000013080581827
      Exc =       -1.5323259923412125
       KE =        4.7617565656124272
-------------------------------------
     Etot =       -7.0480903266422592
       TS =        0.0000009574928798
-------------------------------------
        F =       -7.0480912841351389

IonicMinimize: Iter:   0  F: -7.048091284135139  |grad|_K:  0.000e+00  t[s]:    120.70
IonicMinimize: Converged (|grad|_K<1.000000e-04).

#--- Lowdin population analysis ---
# oxidation-state Li +2.101
# magnetic-moments Li -0.295

End date and time: Sat Feb  5 22:56:21 2022  (Duration: 0-0:02:00.72)
Done!
scale=4
magnetization=-0.32
--------------------------------------------------------------------------
The library attempted to open the following supporting CUDA libraries,
but each of them failed.  CUDA-aware support is disabled.
libcuda.so.1: cannot open shared object file: No such file or directory
libcuda.dylib: cannot open shared object file: No such file or directory
/usr/lib64/libcuda.so.1: cannot open shared object file: No such file or directory
/usr/lib64/libcuda.dylib: cannot open shared object file: No such file or directory
If you are not interested in CUDA-aware support, then run with
--mca opal_warn_on_missing_libcuda 0 to suppress this message.  If you are interested
in CUDA-aware support, then try setting LD_LIBRARY_PATH to the location
of libcuda.so.1 to get passed this issue.
--------------------------------------------------------------------------
--------------------------------------------------------------------------
No OpenFabrics connection schemes reported that they were able to be
used on a specific port.  As such, the openib BTL (OpenFabrics
support) will be disabled for this port.

  Local host:           d-4-5-2
  Local device:         mlx5_1
  Local port:           1
  CPCs attempted:       rdmacm, udcm
--------------------------------------------------------------------------

*************** JDFTx 1.6.0 (git hash 42ebbcc2) ***************

Start date and time: Sat Feb  5 22:56:22 2022
Executable jdftx with command-line: -i Alkali.in
Running on hosts (process indices):  d-4-5-2 (0-18)
Divided in process groups (process indices):  0 (0)  1 (1)  2 (2)  3 (3)  4 (4)  5 (5)  6 (6)  7 (7)  8 (8)  9 (9)  10 (10)  11 (11)  12 (12)  13 (13)  14 (14)  15 (15)  16 (16)  17 (17)  18 (18)
Resource initialization completed at t[s]:      0.00
Run totals: 19 processes, 48 threads, 0 GPUs


Input parsed successfully to the following command list (including defaults):

basis kpoint-dependent
coords-type Lattice
core-overlap-check vector
coulomb-interaction Slab 001
davidson-band-ratio 1.1
dump End None
dump-name $INPUT.$VAR
elec-cutoff 20
elec-eigen-algo Davidson
elec-ex-corr gga-PBE
elec-initial-magnetization -0.320000 yes
elec-smearing Fermi 1e-05
electronic-minimize  \
	dirUpdateScheme      FletcherReeves \
	linminMethod         DirUpdateRecommended \
	nIterations          100 \
	history              15 \
	knormThreshold       0 \
	energyDiffThreshold  1e-08 \
	nEnergyDiff          2 \
	alphaTstart          1 \
	alphaTmin            1e-10 \
	updateTestStepSize   yes \
	alphaTreduceFactor   0.1 \
	alphaTincreaseFactor 3 \
	nAlphaAdjustMax      3 \
	wolfeEnergy          0.0001 \
	wolfeGradient        0.9 \
	fdTest               no
electronic-scf  \
	nIterations	10000 \
	energyDiffThreshold	1e-08 \
	residualThreshold	1e-07 \
	mixFraction	0.5 \
	qMetric	0.8 \
	history	10 \
	nEigSteps	2 \
	eigDiffThreshold	1e-08 \
	mixedVariable	Density \
	qKerker	0.8 \
	qKappa	-1 \
	verbose	no \
	mixFractionMag	1.5
exchange-regularization WignerSeitzTruncated
fluid None
fluid-ex-corr (null) lda-PZ
fluid-gummel-loop 10 1.000000e-05
fluid-minimize  \
	dirUpdateScheme      PolakRibiere \
	linminMethod         DirUpdateRecommended \
	nIterations          100 \
	history              15 \
	knormThreshold       0 \
	energyDiffThreshold  0 \
	nEnergyDiff          2 \
	alphaTstart          1 \
	alphaTmin            1e-10 \
	updateTestStepSize   yes \
	alphaTreduceFactor   0.1 \
	alphaTincreaseFactor 3 \
	nAlphaAdjustMax      3 \
	wolfeEnergy          0.0001 \
	wolfeGradient        0.9 \
	fdTest               no
fluid-solvent H2O 55.338 ScalarEOS \
	epsBulk 78.4 \
	pMol 0.92466 \
	epsInf 1.77 \
	Pvap 1.06736e-10 \
	sigmaBulk 4.62e-05 \
	Rvdw 2.61727 \
	Res 1.42 \
	tauNuc 343133 \
	poleEl 15 7 1
forces-output-coords Positions
ion Li   0.000000000000000   0.000000000000000   0.000000000000000 0
ion-species SG15/$ID_ONCV_PBE.upf
ion-width 0
ionic-minimize  \
	dirUpdateScheme      L-BFGS \
	linminMethod         DirUpdateRecommended \
	nIterations          0 \
	history              15 \
	knormThreshold       0.0001 \
	energyDiffThreshold  1e-06 \
	nEnergyDiff          2 \
	alphaTstart          1 \
	alphaTmin            1e-10 \
	updateTestStepSize   yes \
	alphaTreduceFactor   0.1 \
	alphaTincreaseFactor 3 \
	nAlphaAdjustMax      3 \
	wolfeEnergy          0.0001 \
	wolfeGradient        0.9 \
	fdTest               no
kpoint   0.000000000000   0.000000000000   0.000000000000  1.00000000000000
kpoint-folding 12 12 1 
latt-move-scale 1 1 1
latt-scale 4 4 1 
lattice  \
	   4.727486978767153   -2.363743489383575    0.000000000000000  \
	  -0.000000000000000    4.094123819672498    0.000000000000000  \
	   0.000000000000000    0.000000000000000   40.000000000000000 
lattice-minimize  \
	dirUpdateScheme      L-BFGS \
	linminMethod         DirUpdateRecommended \
	nIterations          0 \
	history              15 \
	knormThreshold       0 \
	energyDiffThreshold  1e-06 \
	nEnergyDiff          2 \
	alphaTstart          1 \
	alphaTmin            1e-10 \
	updateTestStepSize   yes \
	alphaTreduceFactor   0.1 \
	alphaTincreaseFactor 3 \
	nAlphaAdjustMax      3 \
	wolfeEnergy          0.0001 \
	wolfeGradient        0.9 \
	fdTest               no
lcao-params -1 1e-06 1e-05
pcm-variant GLSSA13
spintype z-spin
subspace-rotation-factor 1 yes
symmetries automatic
symmetry-threshold 0.0001



---------- Setting up symmetries ----------

Found 24 point-group symmetries of the bravais lattice
Found 24 space-group symmetries with basis
Applied RMS atom displacement 0 bohrs to make symmetries exact.

---------- Initializing the Grid ----------
R = 
[      18.9099     -9.45497            0  ]
[            0      16.3765            0  ]
[            0            0           40  ]
unit cell volume = 12387.1
G =
[   0.332269   0.191835         -0  ]
[          0   0.383671         -0  ]
[         -0         -0    0.15708  ]
Minimum fftbox size, Smin = [  80  80  164  ]
Chosen fftbox size, S = [  80  80  168  ]

---------- Exchange Correlation functional ----------
Initalized PBE GGA exchange.
Initalized PBE GGA correlation.

---------- Setting up pseudopotentials ----------
Width of ionic core gaussian charges (only for fluid interactions / plotting) set to 0

Reading pseudopotential file '/home/gridsan/aligho/DFT/build-Nov24/pseudopotentials/SG15/Li_ONCV_PBE.upf':
  'Li' pseudopotential, 'PBE' functional
  Generated using ONCVPSP code by D. R. Hamann
  Author: Martin Schlipf and Francois Gygi  Date: 150915.
  3 valence electrons, 2 orbitals, 4 projectors, 1328 radial grid points, with lMax = 1
  Transforming local potential to a uniform radial grid of dG=0.02 with 1489 points.
  Transforming nonlocal projectors to a uniform radial grid of dG=0.02 with 432 points.
    1S    l: 0   occupation:  2.0   eigenvalue: -1.905623
    2S    l: 0   occupation:  1.0   eigenvalue: -0.105624
  Transforming atomic orbitals to a uniform radial grid of dG=0.02 with 432 points.
  WARNING: large normalization error in atomic orbital 1s (integral: 0.000000).
  Core radius for overlap checks: 1.63 bohrs.
  Reading pulay file /home/gridsan/aligho/DFT/build-Nov24/pseudopotentials/SG15/Li_ONCV_PBE.pulay ... using dE_dnG = -1.230239e-02 computed for Ecut = 20.

Initialized 1 species with 1 total atoms.

Folded 1 k-points by 12x12x1 to 144 k-points.

---------- Setting up k-points, bands, fillings ----------
Reduced to 19 k-points under symmetry. 
Computing the number of bands and number of electrons
Calculating initial fillings.
nElectrons:   3.000000   nBands: 3   nStates: 38

----- Setting up reduced wavefunction bases (one per k-point) -----
average nbasis = 52924.021 , ideal nbasis = 52918.836

---------- Setting up coulomb interaction ----------
Initialized slab truncation along lattice direction 001

---------- Setting up 2D ewald sum ----------
Optimum gaussian width for ewald sums = 10.498040 bohr.
Real space sums over 289 unit cells with max indices [  8  8  0  ]
Reciprocal space sums over 81 terms with max indices [  4  4  0  ]

---------- Allocating electronic variables ----------
Initializing wave functions:  linear combination of atomic orbitals
Note: number of bands (3) exceeds available atomic orbitals (2)
Li pseudo-atom occupations:   s ( 2 1 )
[d-4-5-2:19839] 18 more processes have sent help message help-mpi-common-cuda.txt / dlopen failed
[d-4-5-2:19839] Set MCA parameter "orte_base_help_aggregate" to 0 to see all help / error messages
[d-4-5-2:19839] 18 more processes have sent help message help-mpi-btl-openib-cpc-base.txt / no cpcs for port
	FillingsUpdate:  mu: +0.365114689  nElectrons: 3.000000  magneticMoment: [ Abs: 0.32000  Tot: -0.32000 ]
LCAOMinimize: Iter:   0  F: -1.3114815021927413  |grad|_K:  3.669e-04  alpha:  1.000e+00
	FillingsUpdate:  mu: +0.365102107  nElectrons: 3.000000  magneticMoment: [ Abs: 0.32000  Tot: -0.32000 ]
LCAOMinimize: Iter:   1  F: -1.3114827355175971  |grad|_K:  2.092e-05  alpha:  5.147e-01  linmin: -6.287e-01  cgtest:  9.949e+00  t[s]:     12.53
LCAOMinimize: Encountered beta<0, resetting CG.
	FillingsUpdate:  mu: +0.365101850  nElectrons: 3.000000  magneticMoment: [ Abs: 0.32000  Tot: -0.32000 ]
LCAOMinimize: Iter:   2  F: -1.3114828147776558  |grad|_K:  3.247e-08  alpha:  1.059e+00  linmin: -1.289e-02  cgtest:  4.312e-02  t[s]:     15.79
LCAOMinimize: Encountered beta<0, resetting CG.
LCAOMinimize: 	Step increased F by 2.664535e-14, reducing alpha to 9.014260e-03.
	FillingsUpdate:  mu: +0.365101850  nElectrons: 3.000000  magneticMoment: [ Abs: 0.32000  Tot: -0.32000 ]
LCAOMinimize: Iter:   3  F: -1.3114828147776714  |grad|_K:  3.219e-08  alpha:  9.014e-03  linmin: -1.038e-02  cgtest:  1.000e+00  t[s]:     20.80
LCAOMinimize: Encountered beta<0, resetting CG.
LCAOMinimize: Converged (|Delta F|<1.000000e-06 for 2 iters).


---- Citations for features of the code used in this run ----

   Software package:
      R. Sundararaman, K. Letchworth-Weaver, K.A. Schwarz, D. Gunceler, Y. Ozhabes and T.A. Arias, 'JDFTx: software for joint density-functional theory', SoftwareX 6, 278 (2017)

   gga-PBE exchange-correlation functional:
      J.P. Perdew, K. Burke and M. Ernzerhof, Phys. Rev. Lett. 77, 3865 (1996)

   Pseudopotentials:
      M Schlipf and F Gygi, Comput. Phys. Commun. 196, 36 (2015)

   Truncated Coulomb potentials:
      R. Sundararaman and T.A. Arias, Phys. Rev. B 87, 165122 (2013)

This list may not be complete. Please suggest additional citations or
report any other bugs at https://github.com/shankar1729/jdftx/issues

Initialization completed successfully at t[s]:     20.95


-------- Electronic minimization -----------
Will mix electronic density at each iteration.
	FillingsUpdate:  mu: +0.365101850  nElectrons: 3.000000  magneticMoment: [ Abs: 0.32000  Tot: -0.32000 ]
	FillingsUpdate:  mu: -0.616080974  nElectrons: 3.000000  magneticMoment: [ Abs: 0.32000  Tot: -0.32000 ]
SCF: Cycle:  0   F: -6.870120099706669   dF: -5.559e+00   |Residual|: 1.229e+00   |deigs|: 4.155e+00  t[s]:     26.51
	FillingsUpdate:  mu: -0.492439266  nElectrons: 3.000000  magneticMoment: [ Abs: 0.55402  Tot: -0.32000 ]
SCF: Cycle:  1   F: -6.915710407188175   dF: -4.559e-02   |Residual|: 7.611e-01   |deigs|: 2.763e-01  t[s]:     31.01
	FillingsUpdate:  mu: -0.254378852  nElectrons: 3.000000  magneticMoment: [ Abs: 0.71338  Tot: -0.32000 ]
SCF: Cycle:  2   F: -7.036667026224869   dF: -1.210e-01   |Residual|: 3.203e-01   |deigs|: 7.082e-01  t[s]:     35.67
	FillingsUpdate:  mu: -0.267955884  nElectrons: 3.000000  magneticMoment: [ Abs: 0.67343  Tot: -0.32000 ]
SCF: Cycle:  3   F: -7.037281029286449   dF: -6.140e-04   |Residual|: 1.886e-01   |deigs|: 7.171e-02  t[s]:     40.47
	FillingsUpdate:  mu: -0.235797072  nElectrons: 3.000000  magneticMoment: [ Abs: 0.64926  Tot: -0.32000 ]
SCF: Cycle:  4   F: -7.035931485805149   dF: +1.350e-03   |Residual|: 6.370e-02   |deigs|: 2.832e-02  t[s]:     45.31
	FillingsUpdate:  mu: -0.223704259  nElectrons: 3.000000  magneticMoment: [ Abs: 0.63478  Tot: -0.32000 ]
SCF: Cycle:  5   F: -7.037364211310974   dF: -1.433e-03   |Residual|: 1.200e-01   |deigs|: 1.088e-02  t[s]:     50.22
	FillingsUpdate:  mu: -0.200281695  nElectrons: 3.000000  magneticMoment: [ Abs: 0.54315  Tot: -0.32000 ]
SCF: Cycle:  6   F: -7.041292493743085   dF: -3.928e-03   |Residual|: 2.942e-02   |deigs|: 6.377e-02  t[s]:     55.23
	FillingsUpdate:  mu: -0.179025482  nElectrons: 3.000000  magneticMoment: [ Abs: 0.42899  Tot: -0.32000 ]
SCF: Cycle:  7   F: -7.043245906311348   dF: -1.953e-03   |Residual|: 1.089e-01   |deigs|: 6.548e-02  t[s]:     60.44
	FillingsUpdate:  mu: -0.186282538  nElectrons: 3.000000  magneticMoment: [ Abs: 0.36162  Tot: -0.32000 ]
SCF: Cycle:  8   F: -7.043400615168732   dF: -1.547e-04   |Residual|: 5.751e-02   |deigs|: 2.461e-02  t[s]:     65.70
	FillingsUpdate:  mu: -0.189371460  nElectrons: 3.000000  magneticMoment: [ Abs: 0.42202  Tot: -0.32000 ]
SCF: Cycle:  9   F: -7.043858836071094   dF: -4.582e-04   |Residual|: 9.840e-02   |deigs|: 6.122e-02  t[s]:     71.10
	FillingsUpdate:  mu: -0.166451823  nElectrons: 3.000000  magneticMoment: [ Abs: 0.42092  Tot: -0.32000 ]
SCF: Cycle: 10   F: -7.044683808012295   dF: -8.250e-04   |Residual|: 7.178e-02   |deigs|: 2.852e-02  t[s]:     76.57
	FillingsUpdate:  mu: -0.153247323  nElectrons: 3.000000  magneticMoment: [ Abs: 0.43484  Tot: -0.32000 ]
SCF: Cycle: 11   F: -7.045023280475669   dF: -3.395e-04   |Residual|: 3.857e-02   |deigs|: 4.631e-02  t[s]:     82.08
	FillingsUpdate:  mu: -0.148381370  nElectrons: 3.000000  magneticMoment: [ Abs: 0.38014  Tot: -0.32000 ]
SCF: Cycle: 12   F: -7.045165828222458   dF: -1.425e-04   |Residual|: 1.336e-02   |deigs|: 1.551e-02  t[s]:     87.57
	FillingsUpdate:  mu: -0.130624301  nElectrons: 3.000000  magneticMoment: [ Abs: 0.43086  Tot: -0.32000 ]
SCF: Cycle: 13   F: -7.045338458354261   dF: -1.726e-04   |Residual|: 6.917e-03   |deigs|: 2.026e-02  t[s]:     93.04
	FillingsUpdate:  mu: -0.121950166  nElectrons: 3.000000  magneticMoment: [ Abs: 0.42574  Tot: -0.32000 ]
SCF: Cycle: 14   F: -7.045381472877438   dF: -4.301e-05   |Residual|: 5.705e-03   |deigs|: 9.874e-03  t[s]:     98.50
	FillingsUpdate:  mu: -0.114330166  nElectrons: 3.000000  magneticMoment: [ Abs: 0.40519  Tot: -0.32000 ]
SCF: Cycle: 15   F: -7.045347473462223   dF: +3.400e-05   |Residual|: 4.068e-03   |deigs|: 7.511e-03  t[s]:    103.98
	FillingsUpdate:  mu: -0.111272034  nElectrons: 3.000000  magneticMoment: [ Abs: 0.39922  Tot: -0.32000 ]
SCF: Cycle: 16   F: -7.045412653944375   dF: -6.518e-05   |Residual|: 3.134e-03   |deigs|: 2.996e-03  t[s]:    109.47
	FillingsUpdate:  mu: -0.109003925  nElectrons: 3.000000  magneticMoment: [ Abs: 0.37734  Tot: -0.32000 ]
SCF: Cycle: 17   F: -7.045382949027140   dF: +2.970e-05   |Residual|: 2.224e-03   |deigs|: 2.019e-03  t[s]:    114.94
	FillingsUpdate:  mu: -0.107225827  nElectrons: 3.000000  magneticMoment: [ Abs: 0.36746  Tot: -0.32000 ]
SCF: Cycle: 18   F: -7.045397961297376   dF: -1.501e-05   |Residual|: 1.718e-03   |deigs|: 1.783e-03  t[s]:    120.39
	FillingsUpdate:  mu: -0.106456787  nElectrons: 3.000000  magneticMoment: [ Abs: 0.35407  Tot: -0.32000 ]
SCF: Cycle: 19   F: -7.045427903937522   dF: -2.994e-05   |Residual|: 1.354e-03   |deigs|: 1.046e-03  t[s]:    125.90
	FillingsUpdate:  mu: -0.105927127  nElectrons: 3.000000  magneticMoment: [ Abs: 0.34229  Tot: -0.32000 ]
SCF: Cycle: 20   F: -7.045465874625644   dF: -3.797e-05   |Residual|: 9.068e-04   |deigs|: 7.373e-04  t[s]:    131.39
	FillingsUpdate:  mu: -0.105064525  nElectrons: 3.000000  magneticMoment: [ Abs: 0.33730  Tot: -0.32000 ]
SCF: Cycle: 21   F: -7.045479602187958   dF: -1.373e-05   |Residual|: 6.776e-04   |deigs|: 1.050e-03  t[s]:    136.87
	FillingsUpdate:  mu: -0.104601424  nElectrons: 3.000000  magneticMoment: [ Abs: 0.33342  Tot: -0.32000 ]
SCF: Cycle: 22   F: -7.045485143238150   dF: -5.541e-06   |Residual|: 5.302e-04   |deigs|: 5.265e-04  t[s]:    142.28
	FillingsUpdate:  mu: -0.104156537  nElectrons: 3.000000  magneticMoment: [ Abs: 0.32936  Tot: -0.32000 ]
SCF: Cycle: 23   F: -7.045491040882045   dF: -5.898e-06   |Residual|: 3.525e-04   |deigs|: 4.828e-04  t[s]:    147.69
	FillingsUpdate:  mu: -0.104185796  nElectrons: 3.000000  magneticMoment: [ Abs: 0.32741  Tot: -0.32000 ]
SCF: Cycle: 24   F: -7.045493020678894   dF: -1.980e-06   |Residual|: 2.504e-04   |deigs|: 1.577e-04  t[s]:    153.24
	FillingsUpdate:  mu: -0.104496812  nElectrons: 3.000000  magneticMoment: [ Abs: 0.32492  Tot: -0.32000 ]
SCF: Cycle: 25   F: -7.045495020703650   dF: -2.000e-06   |Residual|: 1.514e-04   |deigs|: 4.362e-04  t[s]:    158.68
	FillingsUpdate:  mu: -0.104619654  nElectrons: 3.000000  magneticMoment: [ Abs: 0.32355  Tot: -0.32000 ]
SCF: Cycle: 26   F: -7.045495356545157   dF: -3.358e-07   |Residual|: 1.099e-04   |deigs|: 1.728e-04  t[s]:    164.11
	FillingsUpdate:  mu: -0.104809928  nElectrons: 3.000000  magneticMoment: [ Abs: 0.32194  Tot: -0.32000 ]
SCF: Cycle: 27   F: -7.045495617470749   dF: -2.609e-07   |Residual|: 6.361e-05   |deigs|: 2.214e-04  t[s]:    169.60
	FillingsUpdate:  mu: -0.104871601  nElectrons: 3.000000  magneticMoment: [ Abs: 0.32118  Tot: -0.32000 ]
SCF: Cycle: 28   F: -7.045495683474778   dF: -6.600e-08   |Residual|: 4.417e-05   |deigs|: 8.545e-05  t[s]:    175.06
	FillingsUpdate:  mu: -0.104903215  nElectrons: 3.000000  magneticMoment: [ Abs: 0.32076  Tot: -0.32000 ]
SCF: Cycle: 29   F: -7.045495708404954   dF: -2.493e-08   |Residual|: 2.856e-05   |deigs|: 5.543e-05  t[s]:    180.59
	FillingsUpdate:  mu: -0.104913511  nElectrons: 3.000000  magneticMoment: [ Abs: 0.32057  Tot: -0.32000 ]
SCF: Cycle: 30   F: -7.045495719170912   dF: -1.077e-08   |Residual|: 2.116e-05   |deigs|: 4.199e-05  t[s]:    186.06
	FillingsUpdate:  mu: -0.104921770  nElectrons: 3.000000  magneticMoment: [ Abs: 0.32037  Tot: -0.32000 ]
SCF: Cycle: 31   F: -7.045495727614662   dF: -8.444e-09   |Residual|: 1.420e-05   |deigs|: 3.842e-05  t[s]:    191.47
	FillingsUpdate:  mu: -0.104922406  nElectrons: 3.000000  magneticMoment: [ Abs: 0.32029  Tot: -0.32000 ]
SCF: Cycle: 32   F: -7.045495730791340   dF: -3.177e-09   |Residual|: 1.181e-05   |deigs|: 3.156e-05  t[s]:    196.96
SCF: Converged (|Delta E|<1.000000e-08 for 2 iters).


# Ionic positions in lattice coordinates:
ion Li   0.000000000000000   0.000000000000000   0.000000000000000 0

# Forces in Lattice coordinates:
force Li  -0.000000000000000   0.000000000000000   0.000000000000000 0

# Energy components:
   Eewald =       -1.0026681166851483
       EH =        2.5478095127402125
     Eloc =       -8.2259391123880494
      Enl =       -3.6035512758751622
   Epulay =        0.0000051497655618
      Exc =       -1.5355522650786111
       KE =        4.7744018293058357
-------------------------------------
     Etot =       -7.0454942782153616
       TS =        0.0000014525759785
-------------------------------------
        F =       -7.0454957307913402

IonicMinimize: Iter:   0  F: -7.045495730791340  |grad|_K:  0.000e+00  t[s]:    197.20
IonicMinimize: Converged (|grad|_K<1.000000e-04).

#--- Lowdin population analysis ---
# oxidation-state Li +2.080
# magnetic-moments Li -0.296

End date and time: Sat Feb  5 22:59:39 2022  (Duration: 0-0:03:17.24)
Done!
