The alkali metal is Li
scale=2
magnetization=0.26
--------------------------------------------------------------------------
The library attempted to open the following supporting CUDA libraries,
but each of them failed.  CUDA-aware support is disabled.
libcuda.so.1: cannot open shared object file: No such file or directory
libcuda.dylib: cannot open shared object file: No such file or directory
/usr/lib64/libcuda.so.1: cannot open shared object file: No such file or directory
/usr/lib64/libcuda.dylib: cannot open shared object file: No such file or directory
If you are not interested in CUDA-aware support, then run with
--mca opal_warn_on_missing_libcuda 0 to suppress this message.  If you are interested
in CUDA-aware support, then try setting LD_LIBRARY_PATH to the location
of libcuda.so.1 to get passed this issue.
--------------------------------------------------------------------------
--------------------------------------------------------------------------
No OpenFabrics connection schemes reported that they were able to be
used on a specific port.  As such, the openib BTL (OpenFabrics
support) will be disabled for this port.

  Local host:           d-4-8-2
  Local device:         mlx5_1
  Local port:           1
  CPCs attempted:       rdmacm, udcm
--------------------------------------------------------------------------

*************** JDFTx 1.6.0 (git hash 42ebbcc2) ***************

Start date and time: Sat Feb  5 23:00:29 2022
Executable jdftx with command-line: -i Alkali.in
Running on hosts (process indices):  d-4-8-2 (0-18)
Divided in process groups (process indices):  0 (0)  1 (1)  2 (2)  3 (3)  4 (4)  5 (5)  6 (6)  7 (7)  8 (8)  9 (9)  10 (10)  11 (11)  12 (12)  13 (13)  14 (14)  15 (15)  16 (16)  17 (17)  18 (18)
Resource initialization completed at t[s]:      0.00
Run totals: 19 processes, 48 threads, 0 GPUs


Input parsed successfully to the following command list (including defaults):

basis kpoint-dependent
coords-type Lattice
core-overlap-check vector
coulomb-interaction Slab 001
davidson-band-ratio 1.1
dump End None
dump-name $INPUT.$VAR
elec-cutoff 20
elec-eigen-algo Davidson
elec-ex-corr gga-PBE
elec-initial-magnetization 0.260000 yes
elec-smearing Fermi 1e-05
electronic-minimize  \
	dirUpdateScheme      FletcherReeves \
	linminMethod         DirUpdateRecommended \
	nIterations          100 \
	history              15 \
	knormThreshold       0 \
	energyDiffThreshold  1e-08 \
	nEnergyDiff          2 \
	alphaTstart          1 \
	alphaTmin            1e-10 \
	updateTestStepSize   yes \
	alphaTreduceFactor   0.1 \
	alphaTincreaseFactor 3 \
	nAlphaAdjustMax      3 \
	wolfeEnergy          0.0001 \
	wolfeGradient        0.9 \
	fdTest               no
electronic-scf  \
	nIterations	10000 \
	energyDiffThreshold	1e-08 \
	residualThreshold	1e-07 \
	mixFraction	0.5 \
	qMetric	0.8 \
	history	10 \
	nEigSteps	2 \
	eigDiffThreshold	1e-08 \
	mixedVariable	Density \
	qKerker	0.8 \
	qKappa	-1 \
	verbose	no \
	mixFractionMag	1.5
exchange-regularization WignerSeitzTruncated
fluid None
fluid-ex-corr (null) lda-PZ
fluid-gummel-loop 10 1.000000e-05
fluid-minimize  \
	dirUpdateScheme      PolakRibiere \
	linminMethod         DirUpdateRecommended \
	nIterations          100 \
	history              15 \
	knormThreshold       0 \
	energyDiffThreshold  0 \
	nEnergyDiff          2 \
	alphaTstart          1 \
	alphaTmin            1e-10 \
	updateTestStepSize   yes \
	alphaTreduceFactor   0.1 \
	alphaTincreaseFactor 3 \
	nAlphaAdjustMax      3 \
	wolfeEnergy          0.0001 \
	wolfeGradient        0.9 \
	fdTest               no
fluid-solvent H2O 55.338 ScalarEOS \
	epsBulk 78.4 \
	pMol 0.92466 \
	epsInf 1.77 \
	Pvap 1.06736e-10 \
	sigmaBulk 4.62e-05 \
	Rvdw 2.61727 \
	Res 1.42 \
	tauNuc 343133 \
	poleEl 15 7 1
forces-output-coords Positions
ion Li   0.000000000000000   0.000000000000000   0.000000000000000 0
ion-species SG15/$ID_ONCV_PBE.upf
ion-width 0
ionic-minimize  \
	dirUpdateScheme      L-BFGS \
	linminMethod         DirUpdateRecommended \
	nIterations          0 \
	history              15 \
	knormThreshold       0.0001 \
	energyDiffThreshold  1e-06 \
	nEnergyDiff          2 \
	alphaTstart          1 \
	alphaTmin            1e-10 \
	updateTestStepSize   yes \
	alphaTreduceFactor   0.1 \
	alphaTincreaseFactor 3 \
	nAlphaAdjustMax      3 \
	wolfeEnergy          0.0001 \
	wolfeGradient        0.9 \
	fdTest               no
kpoint   0.000000000000   0.000000000000   0.000000000000  1.00000000000000
kpoint-folding 12 12 1 
latt-move-scale 1 1 1
latt-scale 2 2 1 
lattice  \
	   4.727486978767153   -2.363743489383575    0.000000000000000  \
	  -0.000000000000000    4.094123819672498    0.000000000000000  \
	   0.000000000000000    0.000000000000000   40.000000000000000 
lattice-minimize  \
	dirUpdateScheme      L-BFGS \
	linminMethod         DirUpdateRecommended \
	nIterations          0 \
	history              15 \
	knormThreshold       0 \
	energyDiffThreshold  1e-06 \
	nEnergyDiff          2 \
	alphaTstart          1 \
	alphaTmin            1e-10 \
	updateTestStepSize   yes \
	alphaTreduceFactor   0.1 \
	alphaTincreaseFactor 3 \
	nAlphaAdjustMax      3 \
	wolfeEnergy          0.0001 \
	wolfeGradient        0.9 \
	fdTest               no
lcao-params -1 1e-06 1e-05
pcm-variant GLSSA13
spintype z-spin
subspace-rotation-factor 1 yes
symmetries automatic
symmetry-threshold 0.0001



---------- Setting up symmetries ----------

Found 24 point-group symmetries of the bravais lattice
Found 24 space-group symmetries with basis
Applied RMS atom displacement 0 bohrs to make symmetries exact.

---------- Initializing the Grid ----------
R = 
[      9.45497     -4.72749            0  ]
[            0      8.18825            0  ]
[            0            0           40  ]
unit cell volume = 3096.79
G =
[   0.664538   0.383671         -0  ]
[          0   0.767342         -0  ]
[         -0         -0    0.15708  ]
Minimum fftbox size, Smin = [  40  40  164  ]
Chosen fftbox size, S = [  40  40  168  ]

---------- Exchange Correlation functional ----------
Initalized PBE GGA exchange.
Initalized PBE GGA correlation.

---------- Setting up pseudopotentials ----------
Width of ionic core gaussian charges (only for fluid interactions / plotting) set to 0

Reading pseudopotential file '/home/gridsan/aligho/DFT/build-Nov24/pseudopotentials/SG15/Li_ONCV_PBE.upf':
  'Li' pseudopotential, 'PBE' functional
  Generated using ONCVPSP code by D. R. Hamann
  Author: Martin Schlipf and Francois Gygi  Date: 150915.
  3 valence electrons, 2 orbitals, 4 projectors, 1328 radial grid points, with lMax = 1
  Transforming local potential to a uniform radial grid of dG=0.02 with 1489 points.
  Transforming nonlocal projectors to a uniform radial grid of dG=0.02 with 432 points.
    1S    l: 0   occupation:  2.0   eigenvalue: -1.905623
    2S    l: 0   occupation:  1.0   eigenvalue: -0.105624
  Transforming atomic orbitals to a uniform radial grid of dG=0.02 with 432 points.
  WARNING: large normalization error in atomic orbital 1s (integral: 0.000000).
  Core radius for overlap checks: 1.63 bohrs.
  Reading pulay file /home/gridsan/aligho/DFT/build-Nov24/pseudopotentials/SG15/Li_ONCV_PBE.pulay ... using dE_dnG = -1.230239e-02 computed for Ecut = 20.

Initialized 1 species with 1 total atoms.

Folded 1 k-points by 12x12x1 to 144 k-points.

---------- Setting up k-points, bands, fillings ----------
Reduced to 19 k-points under symmetry. 
Computing the number of bands and number of electrons
Calculating initial fillings.
nElectrons:   3.000000   nBands: 3   nStates: 38

----- Setting up reduced wavefunction bases (one per k-point) -----
average nbasis = 13230.521 , ideal nbasis = 13229.709

---------- Setting up coulomb interaction ----------
Initialized slab truncation along lattice direction 001

---------- Setting up 2D ewald sum ----------
Optimum gaussian width for ewald sums = 5.249020 bohr.
Real space sums over 289 unit cells with max indices [  8  8  0  ]
Reciprocal space sums over 81 terms with max indices [  4  4  0  ]

---------- Allocating electronic variables ----------
Initializing wave functions:  linear combination of atomic orbitals
Note: number of bands (3) exceeds available atomic orbitals (2)
Li pseudo-atom occupations:   s ( 2 1 )
	FillingsUpdate:  mu: +0.319879061  nElectrons: 3.000000  magneticMoment: [ Abs: 0.26026  Tot: +0.26000 ]
LCAOMinimize: Iter:   0  F: -1.1759652242734653  |grad|_K:  7.047e-05  alpha:  1.000e+00
	FillingsUpdate:  mu: +0.319878075  nElectrons: 3.000000  magneticMoment: [ Abs: 0.26026  Tot: +0.26000 ]
LCAOMinimize: Iter:   1  F: -1.1759661104535812  |grad|_K:  1.687e-06  alpha:  1.044e+00  linmin: -1.840e-03  cgtest:  2.907e-02  t[s]:      3.85
LCAOMinimize: Encountered beta<0, resetting CG.
[d-4-8-2:74707] 18 more processes have sent help message help-mpi-common-cuda.txt / dlopen failed
[d-4-8-2:74707] Set MCA parameter "orte_base_help_aggregate" to 0 to see all help / error messages
[d-4-8-2:74707] 18 more processes have sent help message help-mpi-btl-openib-cpc-base.txt / no cpcs for port
	FillingsUpdate:  mu: +0.319878066  nElectrons: 3.000000  magneticMoment: [ Abs: 0.26026  Tot: +0.26000 ]
LCAOMinimize: Iter:   2  F: -1.1759661109477506  |grad|_K:  4.093e-08  alpha:  1.016e+00  linmin:  2.618e-03  cgtest: -7.491e-02  t[s]:      4.87
LCAOMinimize: Converged (|Delta F|<1.000000e-06 for 2 iters).


---- Citations for features of the code used in this run ----

   Software package:
      R. Sundararaman, K. Letchworth-Weaver, K.A. Schwarz, D. Gunceler, Y. Ozhabes and T.A. Arias, 'JDFTx: software for joint density-functional theory', SoftwareX 6, 278 (2017)

   gga-PBE exchange-correlation functional:
      J.P. Perdew, K. Burke and M. Ernzerhof, Phys. Rev. Lett. 77, 3865 (1996)

   Pseudopotentials:
      M Schlipf and F Gygi, Comput. Phys. Commun. 196, 36 (2015)

   Truncated Coulomb potentials:
      R. Sundararaman and T.A. Arias, Phys. Rev. B 87, 165122 (2013)

This list may not be complete. Please suggest additional citations or
report any other bugs at https://github.com/shankar1729/jdftx/issues

Initialization completed successfully at t[s]:      4.93


-------- Electronic minimization -----------
Will mix electronic density at each iteration.
	FillingsUpdate:  mu: +0.319878066  nElectrons: 3.000000  magneticMoment: [ Abs: 0.26026  Tot: +0.26000 ]
	FillingsUpdate:  mu: -0.979782415  nElectrons: 3.000000  magneticMoment: [ Abs: 0.26026  Tot: +0.26000 ]
SCF: Cycle:  0   F: -6.826271203040923   dF: -5.650e+00   |Residual|: 1.172e+00   |deigs|: 4.170e+00  t[s]:      6.66
	FillingsUpdate:  mu: -0.866842173  nElectrons: 3.000000  magneticMoment: [ Abs: 0.43031  Tot: +0.26000 ]
SCF: Cycle:  1   F: -6.936103308380373   dF: -1.098e-01   |Residual|: 7.733e-01   |deigs|: 2.336e-01  t[s]:      7.96
	FillingsUpdate:  mu: -0.633732879  nElectrons: 3.000000  magneticMoment: [ Abs: 0.54759  Tot: +0.26000 ]
SCF: Cycle:  2   F: -7.049623590356452   dF: -1.135e-01   |Residual|: 4.190e-01   |deigs|: 7.812e-01  t[s]:      9.25
	FillingsUpdate:  mu: -0.661133722  nElectrons: 3.000000  magneticMoment: [ Abs: 0.48081  Tot: +0.26000 ]
SCF: Cycle:  3   F: -7.057741451767987   dF: -8.118e-03   |Residual|: 2.093e-01   |deigs|: 1.240e-01  t[s]:     10.58
	FillingsUpdate:  mu: -0.626994168  nElectrons: 3.000000  magneticMoment: [ Abs: 0.36804  Tot: +0.26000 ]
SCF: Cycle:  4   F: -7.056369177021224   dF: +1.372e-03   |Residual|: 4.107e-02   |deigs|: 3.504e-02  t[s]:     11.94
	FillingsUpdate:  mu: -0.579024614  nElectrons: 3.000000  magneticMoment: [ Abs: 0.38063  Tot: +0.26000 ]
SCF: Cycle:  5   F: -7.055284997985501   dF: +1.084e-03   |Residual|: 2.027e-01   |deigs|: 4.024e-02  t[s]:     13.30
	FillingsUpdate:  mu: -0.471733041  nElectrons: 3.000000  magneticMoment: [ Abs: 0.37520  Tot: +0.26000 ]
SCF: Cycle:  6   F: -7.059987351063967   dF: -4.702e-03   |Residual|: 1.330e-01   |deigs|: 1.441e-01  t[s]:     14.72
	FillingsUpdate:  mu: -0.429631826  nElectrons: 3.000000  magneticMoment: [ Abs: 0.34935  Tot: +0.26000 ]
SCF: Cycle:  7   F: -7.061666092617300   dF: -1.679e-03   |Residual|: 1.107e-01   |deigs|: 1.083e-01  t[s]:     16.19
	FillingsUpdate:  mu: -0.382555919  nElectrons: 3.000000  magneticMoment: [ Abs: 0.34075  Tot: +0.26000 ]
SCF: Cycle:  8   F: -7.063880737876641   dF: -2.215e-03   |Residual|: 7.706e-02   |deigs|: 3.932e-02  t[s]:     17.63
	FillingsUpdate:  mu: -0.340724303  nElectrons: 3.000000  magneticMoment: [ Abs: 0.38916  Tot: +0.26000 ]
SCF: Cycle:  9   F: -7.064990121067562   dF: -1.109e-03   |Residual|: 1.405e-01   |deigs|: 8.487e-02  t[s]:     19.12
	FillingsUpdate:  mu: -0.311743968  nElectrons: 3.000000  magneticMoment: [ Abs: 0.38391  Tot: +0.26000 ]
SCF: Cycle: 10   F: -7.065131571562951   dF: -1.415e-04   |Residual|: 1.687e-01   |deigs|: 2.469e-02  t[s]:     20.70
	FillingsUpdate:  mu: -0.253357860  nElectrons: 3.000000  magneticMoment: [ Abs: 0.36718  Tot: +0.26000 ]
SCF: Cycle: 11   F: -7.066924203408284   dF: -1.793e-03   |Residual|: 1.894e-02   |deigs|: 1.127e-01  t[s]:     22.17
	FillingsUpdate:  mu: -0.218451725  nElectrons: 3.000000  magneticMoment: [ Abs: 0.36871  Tot: +0.26000 ]
SCF: Cycle: 12   F: -7.067169161046268   dF: -2.450e-04   |Residual|: 1.538e-02   |deigs|: 3.949e-02  t[s]:     23.68
	FillingsUpdate:  mu: -0.179364669  nElectrons: 3.000000  magneticMoment: [ Abs: 0.34411  Tot: +0.26000 ]
SCF: Cycle: 13   F: -7.067413902840701   dF: -2.447e-04   |Residual|: 1.173e-02   |deigs|: 3.825e-02  t[s]:     25.15
	FillingsUpdate:  mu: -0.150319087  nElectrons: 3.000000  magneticMoment: [ Abs: 0.32231  Tot: +0.26000 ]
SCF: Cycle: 14   F: -7.067463664120234   dF: -4.976e-05   |Residual|: 8.867e-03   |deigs|: 3.272e-02  t[s]:     26.66
	FillingsUpdate:  mu: -0.129053366  nElectrons: 3.000000  magneticMoment: [ Abs: 0.31415  Tot: +0.26000 ]
SCF: Cycle: 15   F: -7.067515754007589   dF: -5.209e-05   |Residual|: 6.600e-03   |deigs|: 2.188e-02  t[s]:     28.16
	FillingsUpdate:  mu: -0.117986312  nElectrons: 3.000000  magneticMoment: [ Abs: 0.30046  Tot: +0.26000 ]
SCF: Cycle: 16   F: -7.067618201236966   dF: -1.024e-04   |Residual|: 4.335e-03   |deigs|: 9.963e-03  t[s]:     29.82
	FillingsUpdate:  mu: -0.113887801  nElectrons: 3.000000  magneticMoment: [ Abs: 0.28477  Tot: +0.26000 ]
SCF: Cycle: 17   F: -7.067709727935872   dF: -9.153e-05   |Residual|: 2.904e-03   |deigs|: 3.184e-03  t[s]:     31.32
	FillingsUpdate:  mu: -0.113305398  nElectrons: 3.000000  magneticMoment: [ Abs: 0.27903  Tot: +0.26000 ]
SCF: Cycle: 18   F: -7.067739392207125   dF: -2.966e-05   |Residual|: 1.467e-03   |deigs|: 5.583e-04  t[s]:     32.83
	FillingsUpdate:  mu: -0.113058875  nElectrons: 3.000000  magneticMoment: [ Abs: 0.27412  Tot: +0.26000 ]
SCF: Cycle: 19   F: -7.067751631334154   dF: -1.224e-05   |Residual|: 9.835e-04   |deigs|: 7.414e-04  t[s]:     34.31
	FillingsUpdate:  mu: -0.113680888  nElectrons: 3.000000  magneticMoment: [ Abs: 0.27118  Tot: +0.26000 ]
SCF: Cycle: 20   F: -7.067757434899878   dF: -5.804e-06   |Residual|: 5.680e-04   |deigs|: 6.168e-04  t[s]:     35.82
	FillingsUpdate:  mu: -0.113742388  nElectrons: 3.000000  magneticMoment: [ Abs: 0.26915  Tot: +0.26000 ]
SCF: Cycle: 21   F: -7.067760057583527   dF: -2.623e-06   |Residual|: 3.512e-04   |deigs|: 2.407e-04  t[s]:     37.32
	FillingsUpdate:  mu: -0.113685381  nElectrons: 3.000000  magneticMoment: [ Abs: 0.26672  Tot: +0.26000 ]
SCF: Cycle: 22   F: -7.067761188576430   dF: -1.131e-06   |Residual|: 2.875e-04   |deigs|: 1.909e-04  t[s]:     38.80
	FillingsUpdate:  mu: -0.113675096  nElectrons: 3.000000  magneticMoment: [ Abs: 0.26477  Tot: +0.26000 ]
SCF: Cycle: 23   F: -7.067761481286590   dF: -2.927e-07   |Residual|: 2.473e-04   |deigs|: 7.960e-05  t[s]:     40.29
	FillingsUpdate:  mu: -0.113623398  nElectrons: 3.000000  magneticMoment: [ Abs: 0.26245  Tot: +0.26000 ]
SCF: Cycle: 24   F: -7.067761689713413   dF: -2.084e-07   |Residual|: 2.265e-04   |deigs|: 7.650e-05  t[s]:     41.83
	FillingsUpdate:  mu: -0.113609436  nElectrons: 3.000000  magneticMoment: [ Abs: 0.26127  Tot: +0.26000 ]
SCF: Cycle: 25   F: -7.067761999606880   dF: -3.099e-07   |Residual|: 1.674e-04   |deigs|: 5.697e-05  t[s]:     43.32
	FillingsUpdate:  mu: -0.113506029  nElectrons: 3.000000  magneticMoment: [ Abs: 0.26025  Tot: +0.26000 ]
SCF: Cycle: 26   F: -7.067762119629212   dF: -1.200e-07   |Residual|: 9.847e-05   |deigs|: 1.208e-04  t[s]:     44.87
	FillingsUpdate:  mu: -0.113430735  nElectrons: 3.000000  magneticMoment: [ Abs: 0.26026  Tot: +0.26000 ]
SCF: Cycle: 27   F: -7.067762184465433   dF: -6.484e-08   |Residual|: 5.549e-05   |deigs|: 1.001e-04  t[s]:     46.36
	FillingsUpdate:  mu: -0.113379856  nElectrons: 3.000000  magneticMoment: [ Abs: 0.26012  Tot: +0.26000 ]
SCF: Cycle: 28   F: -7.067762194287467   dF: -9.822e-09   |Residual|: 3.547e-05   |deigs|: 7.504e-05  t[s]:     47.86
	FillingsUpdate:  mu: -0.113321264  nElectrons: 3.000000  magneticMoment: [ Abs: 0.26000  Tot: +0.26000 ]
SCF: Cycle: 29   F: -7.067762209264290   dF: -1.498e-08   |Residual|: 2.174e-05   |deigs|: 8.128e-05  t[s]:     49.39
	FillingsUpdate:  mu: -0.113294418  nElectrons: 3.000000  magneticMoment: [ Abs: 0.26000  Tot: +0.26000 ]
SCF: Cycle: 30   F: -7.067762212699330   dF: -3.435e-09   |Residual|: 1.912e-05   |deigs|: 6.984e-05  t[s]:     50.87
	FillingsUpdate:  mu: -0.113258215  nElectrons: 3.000000  magneticMoment: [ Abs: 0.26000  Tot: +0.26000 ]
SCF: Cycle: 31   F: -7.067762217628113   dF: -4.929e-09   |Residual|: 1.605e-05   |deigs|: 7.225e-05  t[s]:     52.35
SCF: Converged (|Delta E|<1.000000e-08 for 2 iters).


# Ionic positions in lattice coordinates:
ion Li   0.000000000000000   0.000000000000000   0.000000000000000 0

# Forces in Lattice coordinates:
force Li   0.000000000000000  -0.000000000000000   0.000000000000000 0

# Energy components:
   Eewald =       -2.0053362333702967
       EH =        1.5291443024735469
     Eloc =       -6.1899872047171769
      Enl =       -3.5904486706676884
   Epulay =        0.0000032255226020
      Exc =       -1.5377132047161464
       KE =        4.7265759888962808
-------------------------------------
     Etot =       -7.0677617965788784
       TS =        0.0000004210492349
-------------------------------------
        F =       -7.0677622176281130

IonicMinimize: Iter:   0  F: -7.067762217628113  |grad|_K:  0.000e+00  t[s]:     52.42
IonicMinimize: Converged (|grad|_K<1.000000e-04).

#--- Lowdin population analysis ---
# oxidation-state Li +2.169
# magnetic-moments Li +0.180

End date and time: Sat Feb  5 23:01:22 2022  (Duration: 0-0:00:52.42)
Done!
scale=3
magnetization=0.26
--------------------------------------------------------------------------
The library attempted to open the following supporting CUDA libraries,
but each of them failed.  CUDA-aware support is disabled.
libcuda.so.1: cannot open shared object file: No such file or directory
libcuda.dylib: cannot open shared object file: No such file or directory
/usr/lib64/libcuda.so.1: cannot open shared object file: No such file or directory
/usr/lib64/libcuda.dylib: cannot open shared object file: No such file or directory
If you are not interested in CUDA-aware support, then run with
--mca opal_warn_on_missing_libcuda 0 to suppress this message.  If you are interested
in CUDA-aware support, then try setting LD_LIBRARY_PATH to the location
of libcuda.so.1 to get passed this issue.
--------------------------------------------------------------------------
--------------------------------------------------------------------------
No OpenFabrics connection schemes reported that they were able to be
used on a specific port.  As such, the openib BTL (OpenFabrics
support) will be disabled for this port.

  Local host:           d-4-8-2
  Local device:         mlx5_1
  Local port:           1
  CPCs attempted:       rdmacm, udcm
--------------------------------------------------------------------------

*************** JDFTx 1.6.0 (git hash 42ebbcc2) ***************

Start date and time: Sat Feb  5 23:01:23 2022
Executable jdftx with command-line: -i Alkali.in
Running on hosts (process indices):  d-4-8-2 (0-18)
Divided in process groups (process indices):  0 (0)  1 (1)  2 (2)  3 (3)  4 (4)  5 (5)  6 (6)  7 (7)  8 (8)  9 (9)  10 (10)  11 (11)  12 (12)  13 (13)  14 (14)  15 (15)  16 (16)  17 (17)  18 (18)
Resource initialization completed at t[s]:      0.00
Run totals: 19 processes, 48 threads, 0 GPUs


Input parsed successfully to the following command list (including defaults):

basis kpoint-dependent
coords-type Lattice
core-overlap-check vector
coulomb-interaction Slab 001
davidson-band-ratio 1.1
dump End None
dump-name $INPUT.$VAR
elec-cutoff 20
elec-eigen-algo Davidson
elec-ex-corr gga-PBE
elec-initial-magnetization 0.260000 yes
elec-smearing Fermi 1e-05
electronic-minimize  \
	dirUpdateScheme      FletcherReeves \
	linminMethod         DirUpdateRecommended \
	nIterations          100 \
	history              15 \
	knormThreshold       0 \
	energyDiffThreshold  1e-08 \
	nEnergyDiff          2 \
	alphaTstart          1 \
	alphaTmin            1e-10 \
	updateTestStepSize   yes \
	alphaTreduceFactor   0.1 \
	alphaTincreaseFactor 3 \
	nAlphaAdjustMax      3 \
	wolfeEnergy          0.0001 \
	wolfeGradient        0.9 \
	fdTest               no
electronic-scf  \
	nIterations	10000 \
	energyDiffThreshold	1e-08 \
	residualThreshold	1e-07 \
	mixFraction	0.5 \
	qMetric	0.8 \
	history	10 \
	nEigSteps	2 \
	eigDiffThreshold	1e-08 \
	mixedVariable	Density \
	qKerker	0.8 \
	qKappa	-1 \
	verbose	no \
	mixFractionMag	1.5
exchange-regularization WignerSeitzTruncated
fluid None
fluid-ex-corr (null) lda-PZ
fluid-gummel-loop 10 1.000000e-05
fluid-minimize  \
	dirUpdateScheme      PolakRibiere \
	linminMethod         DirUpdateRecommended \
	nIterations          100 \
	history              15 \
	knormThreshold       0 \
	energyDiffThreshold  0 \
	nEnergyDiff          2 \
	alphaTstart          1 \
	alphaTmin            1e-10 \
	updateTestStepSize   yes \
	alphaTreduceFactor   0.1 \
	alphaTincreaseFactor 3 \
	nAlphaAdjustMax      3 \
	wolfeEnergy          0.0001 \
	wolfeGradient        0.9 \
	fdTest               no
fluid-solvent H2O 55.338 ScalarEOS \
	epsBulk 78.4 \
	pMol 0.92466 \
	epsInf 1.77 \
	Pvap 1.06736e-10 \
	sigmaBulk 4.62e-05 \
	Rvdw 2.61727 \
	Res 1.42 \
	tauNuc 343133 \
	poleEl 15 7 1
forces-output-coords Positions
ion Li   0.000000000000000   0.000000000000000   0.000000000000000 0
ion-species SG15/$ID_ONCV_PBE.upf
ion-width 0
ionic-minimize  \
	dirUpdateScheme      L-BFGS \
	linminMethod         DirUpdateRecommended \
	nIterations          0 \
	history              15 \
	knormThreshold       0.0001 \
	energyDiffThreshold  1e-06 \
	nEnergyDiff          2 \
	alphaTstart          1 \
	alphaTmin            1e-10 \
	updateTestStepSize   yes \
	alphaTreduceFactor   0.1 \
	alphaTincreaseFactor 3 \
	nAlphaAdjustMax      3 \
	wolfeEnergy          0.0001 \
	wolfeGradient        0.9 \
	fdTest               no
kpoint   0.000000000000   0.000000000000   0.000000000000  1.00000000000000
kpoint-folding 12 12 1 
latt-move-scale 1 1 1
latt-scale 3 3 1 
lattice  \
	   4.727486978767153   -2.363743489383575    0.000000000000000  \
	  -0.000000000000000    4.094123819672498    0.000000000000000  \
	   0.000000000000000    0.000000000000000   40.000000000000000 
lattice-minimize  \
	dirUpdateScheme      L-BFGS \
	linminMethod         DirUpdateRecommended \
	nIterations          0 \
	history              15 \
	knormThreshold       0 \
	energyDiffThreshold  1e-06 \
	nEnergyDiff          2 \
	alphaTstart          1 \
	alphaTmin            1e-10 \
	updateTestStepSize   yes \
	alphaTreduceFactor   0.1 \
	alphaTincreaseFactor 3 \
	nAlphaAdjustMax      3 \
	wolfeEnergy          0.0001 \
	wolfeGradient        0.9 \
	fdTest               no
lcao-params -1 1e-06 1e-05
pcm-variant GLSSA13
spintype z-spin
subspace-rotation-factor 1 yes
symmetries automatic
symmetry-threshold 0.0001



---------- Setting up symmetries ----------

Found 24 point-group symmetries of the bravais lattice
Found 24 space-group symmetries with basis
Applied RMS atom displacement 0 bohrs to make symmetries exact.

---------- Initializing the Grid ----------
R = 
[      14.1825     -7.09123            0  ]
[            0      12.2824            0  ]
[            0            0           40  ]
unit cell volume = 6967.77
G =
[   0.443025   0.255781         -0  ]
[          0   0.511561         -0  ]
[         -0         -0    0.15708  ]
Minimum fftbox size, Smin = [  60  60  164  ]
Chosen fftbox size, S = [  60  60  168  ]

---------- Exchange Correlation functional ----------
Initalized PBE GGA exchange.
Initalized PBE GGA correlation.

---------- Setting up pseudopotentials ----------
Width of ionic core gaussian charges (only for fluid interactions / plotting) set to 0

Reading pseudopotential file '/home/gridsan/aligho/DFT/build-Nov24/pseudopotentials/SG15/Li_ONCV_PBE.upf':
  'Li' pseudopotential, 'PBE' functional
  Generated using ONCVPSP code by D. R. Hamann
  Author: Martin Schlipf and Francois Gygi  Date: 150915.
  3 valence electrons, 2 orbitals, 4 projectors, 1328 radial grid points, with lMax = 1
  Transforming local potential to a uniform radial grid of dG=0.02 with 1489 points.
  Transforming nonlocal projectors to a uniform radial grid of dG=0.02 with 432 points.
    1S    l: 0   occupation:  2.0   eigenvalue: -1.905623
    2S    l: 0   occupation:  1.0   eigenvalue: -0.105624
  Transforming atomic orbitals to a uniform radial grid of dG=0.02 with 432 points.
  WARNING: large normalization error in atomic orbital 1s (integral: 0.000000).
  Core radius for overlap checks: 1.63 bohrs.
  Reading pulay file /home/gridsan/aligho/DFT/build-Nov24/pseudopotentials/SG15/Li_ONCV_PBE.pulay ... using dE_dnG = -1.230239e-02 computed for Ecut = 20.

Initialized 1 species with 1 total atoms.

Folded 1 k-points by 12x12x1 to 144 k-points.

---------- Setting up k-points, bands, fillings ----------
Reduced to 19 k-points under symmetry. 
Computing the number of bands and number of electrons
Calculating initial fillings.
nElectrons:   3.000000   nBands: 3   nStates: 38

----- Setting up reduced wavefunction bases (one per k-point) -----
average nbasis = 29766.104 , ideal nbasis = 29766.845

---------- Setting up coulomb interaction ----------
Initialized slab truncation along lattice direction 001

---------- Setting up 2D ewald sum ----------
Optimum gaussian width for ewald sums = 7.873530 bohr.
Real space sums over 289 unit cells with max indices [  8  8  0  ]
Reciprocal space sums over 81 terms with max indices [  4  4  0  ]

---------- Allocating electronic variables ----------
Initializing wave functions:  linear combination of atomic orbitals
Note: number of bands (3) exceeds available atomic orbitals (2)
Li pseudo-atom occupations:   s ( 2 1 )
[d-4-8-2:25171] 18 more processes have sent help message help-mpi-common-cuda.txt / dlopen failed
[d-4-8-2:25171] Set MCA parameter "orte_base_help_aggregate" to 0 to see all help / error messages
[d-4-8-2:25171] 18 more processes have sent help message help-mpi-btl-openib-cpc-base.txt / no cpcs for port
	FillingsUpdate:  mu: +0.351523631  nElectrons: 3.000000  magneticMoment: [ Abs: 0.26026  Tot: +0.26000 ]
LCAOMinimize: Iter:   0  F: -1.2889990141612466  |grad|_K:  4.919e-05  alpha:  1.000e+00
	FillingsUpdate:  mu: +0.351522915  nElectrons: 3.000000  magneticMoment: [ Abs: 0.26026  Tot: +0.26000 ]
LCAOMinimize: Iter:   1  F: -1.2889994514622101  |grad|_K:  5.128e-07  alpha:  1.057e+00  linmin: -1.185e-03  cgtest:  9.507e-03  t[s]:      7.47
	FillingsUpdate:  mu: +0.351522917  nElectrons: 3.000000  magneticMoment: [ Abs: 0.26026  Tot: +0.26000 ]
LCAOMinimize: Iter:   2  F: -1.2889994515045040  |grad|_K:  2.867e-08  alpha:  9.500e-01  linmin: -2.285e-02  cgtest:  9.620e-01  t[s]:      9.58
LCAOMinimize: Encountered beta<0, resetting CG.
LCAOMinimize: Converged (|Delta F|<1.000000e-06 for 2 iters).


---- Citations for features of the code used in this run ----

   Software package:
      R. Sundararaman, K. Letchworth-Weaver, K.A. Schwarz, D. Gunceler, Y. Ozhabes and T.A. Arias, 'JDFTx: software for joint density-functional theory', SoftwareX 6, 278 (2017)

   gga-PBE exchange-correlation functional:
      J.P. Perdew, K. Burke and M. Ernzerhof, Phys. Rev. Lett. 77, 3865 (1996)

   Pseudopotentials:
      M Schlipf and F Gygi, Comput. Phys. Commun. 196, 36 (2015)

   Truncated Coulomb potentials:
      R. Sundararaman and T.A. Arias, Phys. Rev. B 87, 165122 (2013)

This list may not be complete. Please suggest additional citations or
report any other bugs at https://github.com/shankar1729/jdftx/issues

Initialization completed successfully at t[s]:      9.67


-------- Electronic minimization -----------
Will mix electronic density at each iteration.
	FillingsUpdate:  mu: +0.351522917  nElectrons: 3.000000  magneticMoment: [ Abs: 0.26026  Tot: +0.26000 ]
	FillingsUpdate:  mu: -0.693343732  nElectrons: 3.000000  magneticMoment: [ Abs: 0.26026  Tot: +0.26000 ]
SCF: Cycle:  0   F: -6.869553794954630   dF: -5.581e+00   |Residual|: 1.224e+00   |deigs|: 4.156e+00  t[s]:     13.05
	FillingsUpdate:  mu: -0.573992630  nElectrons: 3.000000  magneticMoment: [ Abs: 0.42176  Tot: +0.26000 ]
SCF: Cycle:  1   F: -6.916160001290363   dF: -4.661e-02   |Residual|: 7.617e-01   |deigs|: 2.733e-01  t[s]:     15.70
	FillingsUpdate:  mu: -0.339636910  nElectrons: 3.000000  magneticMoment: [ Abs: 0.56842  Tot: +0.26000 ]
SCF: Cycle:  2   F: -7.039892958244439   dF: -1.237e-01   |Residual|: 3.291e-01   |deigs|: 7.122e-01  t[s]:     18.44
	FillingsUpdate:  mu: -0.356178087  nElectrons: 3.000000  magneticMoment: [ Abs: 0.54595  Tot: +0.26000 ]
SCF: Cycle:  3   F: -7.041636089672738   dF: -1.743e-03   |Residual|: 1.882e-01   |deigs|: 7.780e-02  t[s]:     21.22
	FillingsUpdate:  mu: -0.330486335  nElectrons: 3.000000  magneticMoment: [ Abs: 0.58268  Tot: +0.26000 ]
SCF: Cycle:  4   F: -7.040320268040539   dF: +1.316e-03   |Residual|: 4.585e-02   |deigs|: 2.246e-02  t[s]:     24.09
	FillingsUpdate:  mu: -0.320862501  nElectrons: 3.000000  magneticMoment: [ Abs: 0.54704  Tot: +0.26000 ]
SCF: Cycle:  5   F: -7.039869862838458   dF: +4.504e-04   |Residual|: 1.009e-01   |deigs|: 1.002e-02  t[s]:     27.00
	FillingsUpdate:  mu: -0.273202183  nElectrons: 3.000000  magneticMoment: [ Abs: 0.40081  Tot: +0.26000 ]
SCF: Cycle:  6   F: -7.043116266160103   dF: -3.246e-03   |Residual|: 7.953e-02   |deigs|: 7.614e-02  t[s]:     29.99
	FillingsUpdate:  mu: -0.233633094  nElectrons: 3.000000  magneticMoment: [ Abs: 0.33580  Tot: +0.26000 ]
SCF: Cycle:  7   F: -7.045351482440993   dF: -2.235e-03   |Residual|: 1.237e-01   |deigs|: 1.049e-01  t[s]:     33.03
	FillingsUpdate:  mu: -0.235209834  nElectrons: 3.000000  magneticMoment: [ Abs: 0.31369  Tot: +0.26000 ]
SCF: Cycle:  8   F: -7.045459310133644   dF: -1.078e-04   |Residual|: 9.035e-02   |deigs|: 1.631e-02  t[s]:     36.17
	FillingsUpdate:  mu: -0.230169963  nElectrons: 3.000000  magneticMoment: [ Abs: 0.41113  Tot: +0.26000 ]
SCF: Cycle:  9   F: -7.045615330457673   dF: -1.560e-04   |Residual|: 9.676e-02   |deigs|: 7.593e-02  t[s]:     39.38
	FillingsUpdate:  mu: -0.206529842  nElectrons: 3.000000  magneticMoment: [ Abs: 0.38985  Tot: +0.26000 ]
SCF: Cycle: 10   F: -7.045945909782724   dF: -3.306e-04   |Residual|: 1.147e-01   |deigs|: 1.885e-02  t[s]:     42.67
	FillingsUpdate:  mu: -0.168742286  nElectrons: 3.000000  magneticMoment: [ Abs: 0.37527  Tot: +0.26000 ]
SCF: Cycle: 11   F: -7.047247934728359   dF: -1.302e-03   |Residual|: 3.705e-02   |deigs|: 8.229e-02  t[s]:     45.99
	FillingsUpdate:  mu: -0.165473666  nElectrons: 3.000000  magneticMoment: [ Abs: 0.35139  Tot: +0.26000 ]
SCF: Cycle: 12   F: -7.047398281386785   dF: -1.503e-04   |Residual|: 1.065e-02   |deigs|: 1.340e-02  t[s]:     49.21
	FillingsUpdate:  mu: -0.147695823  nElectrons: 3.000000  magneticMoment: [ Abs: 0.35637  Tot: +0.26000 ]
SCF: Cycle: 13   F: -7.047503130676288   dF: -1.048e-04   |Residual|: 8.353e-03   |deigs|: 1.731e-02  t[s]:     52.56
	FillingsUpdate:  mu: -0.134317725  nElectrons: 3.000000  magneticMoment: [ Abs: 0.34671  Tot: +0.26000 ]
SCF: Cycle: 14   F: -7.047491783974163   dF: +1.135e-05   |Residual|: 6.856e-03   |deigs|: 1.417e-02  t[s]:     55.82
	FillingsUpdate:  mu: -0.122263314  nElectrons: 3.000000  magneticMoment: [ Abs: 0.32909  Tot: +0.26000 ]
SCF: Cycle: 15   F: -7.047492027908508   dF: -2.439e-07   |Residual|: 6.076e-03   |deigs|: 1.248e-02  t[s]:     59.09
	FillingsUpdate:  mu: -0.116369408  nElectrons: 3.000000  magneticMoment: [ Abs: 0.30398  Tot: +0.26000 ]
SCF: Cycle: 16   F: -7.047622048785297   dF: -1.300e-04   |Residual|: 4.319e-03   |deigs|: 5.552e-03  t[s]:     62.28
	FillingsUpdate:  mu: -0.111845645  nElectrons: 3.000000  magneticMoment: [ Abs: 0.29069  Tot: +0.26000 ]
SCF: Cycle: 17   F: -7.047730892751529   dF: -1.088e-04   |Residual|: 2.911e-03   |deigs|: 4.838e-03  t[s]:     65.57
	FillingsUpdate:  mu: -0.108666424  nElectrons: 3.000000  magneticMoment: [ Abs: 0.28424  Tot: +0.26000 ]
SCF: Cycle: 18   F: -7.047813866387925   dF: -8.297e-05   |Residual|: 1.868e-03   |deigs|: 4.274e-03  t[s]:     68.81
	FillingsUpdate:  mu: -0.107358388  nElectrons: 3.000000  magneticMoment: [ Abs: 0.27645  Tot: +0.26000 ]
SCF: Cycle: 19   F: -7.047857910338417   dF: -4.404e-05   |Residual|: 1.201e-03   |deigs|: 1.583e-03  t[s]:     72.04
	FillingsUpdate:  mu: -0.106338575  nElectrons: 3.000000  magneticMoment: [ Abs: 0.27320  Tot: +0.26000 ]
SCF: Cycle: 20   F: -7.047876788344290   dF: -1.888e-05   |Residual|: 7.298e-04   |deigs|: 1.033e-03  t[s]:     75.31
	FillingsUpdate:  mu: -0.105935545  nElectrons: 3.000000  magneticMoment: [ Abs: 0.27135  Tot: +0.26000 ]
SCF: Cycle: 21   F: -7.047883859142774   dF: -7.071e-06   |Residual|: 3.911e-04   |deigs|: 4.191e-04  t[s]:     78.57
	FillingsUpdate:  mu: -0.105954650  nElectrons: 3.000000  magneticMoment: [ Abs: 0.26970  Tot: +0.26000 ]
SCF: Cycle: 22   F: -7.047885521458226   dF: -1.662e-06   |Residual|: 3.030e-04   |deigs|: 9.113e-05  t[s]:     81.82
	FillingsUpdate:  mu: -0.106164154  nElectrons: 3.000000  magneticMoment: [ Abs: 0.26675  Tot: +0.26000 ]
SCF: Cycle: 23   F: -7.047887059610980   dF: -1.538e-06   |Residual|: 1.998e-04   |deigs|: 2.190e-04  t[s]:     85.07
	FillingsUpdate:  mu: -0.106502234  nElectrons: 3.000000  magneticMoment: [ Abs: 0.26458  Tot: +0.26000 ]
SCF: Cycle: 24   F: -7.047887528894422   dF: -4.693e-07   |Residual|: 1.516e-04   |deigs|: 3.488e-04  t[s]:     88.32
	FillingsUpdate:  mu: -0.106785075  nElectrons: 3.000000  magneticMoment: [ Abs: 0.26282  Tot: +0.26000 ]
SCF: Cycle: 25   F: -7.047887487631837   dF: +4.126e-08   |Residual|: 1.168e-04   |deigs|: 3.210e-04  t[s]:     91.65
	FillingsUpdate:  mu: -0.106943251  nElectrons: 3.000000  magneticMoment: [ Abs: 0.26183  Tot: +0.26000 ]
SCF: Cycle: 26   F: -7.047887587370957   dF: -9.974e-08   |Residual|: 7.431e-05   |deigs|: 2.205e-04  t[s]:     94.96
	FillingsUpdate:  mu: -0.107034291  nElectrons: 3.000000  magneticMoment: [ Abs: 0.26122  Tot: +0.26000 ]
SCF: Cycle: 27   F: -7.047887721895115   dF: -1.345e-07   |Residual|: 5.359e-05   |deigs|: 1.501e-04  t[s]:     98.17
	FillingsUpdate:  mu: -0.107043480  nElectrons: 3.000000  magneticMoment: [ Abs: 0.26086  Tot: +0.26000 ]
SCF: Cycle: 28   F: -7.047887775046656   dF: -5.315e-08   |Residual|: 4.052e-05   |deigs|: 8.989e-05  t[s]:    101.41
	FillingsUpdate:  mu: -0.107045827  nElectrons: 3.000000  magneticMoment: [ Abs: 0.26052  Tot: +0.26000 ]
SCF: Cycle: 29   F: -7.047887798669644   dF: -2.362e-08   |Residual|: 3.125e-05   |deigs|: 8.039e-05  t[s]:    104.67
	FillingsUpdate:  mu: -0.107040711  nElectrons: 3.000000  magneticMoment: [ Abs: 0.26035  Tot: +0.26000 ]
SCF: Cycle: 30   F: -7.047887806975995   dF: -8.306e-09   |Residual|: 2.406e-05   |deigs|: 6.721e-05  t[s]:    108.03
	FillingsUpdate:  mu: -0.107025834  nElectrons: 3.000000  magneticMoment: [ Abs: 0.26023  Tot: +0.26000 ]
SCF: Cycle: 31   F: -7.047887811428108   dF: -4.452e-09   |Residual|: 1.884e-05   |deigs|: 5.574e-05  t[s]:    111.27
SCF: Converged (|Delta E|<1.000000e-08 for 2 iters).


# Ionic positions in lattice coordinates:
ion Li   0.000000000000000   0.000000000000000   0.000000000000000 0

# Forces in Lattice coordinates:
force Li  -0.000000000000000  -0.000000000000000   0.000000000000000 0

# Energy components:
   Eewald =       -1.3368908222468645
       EH =        2.1975146963382137
     Eloc =       -7.5364542580258602
      Enl =       -3.6009437469393064
   Epulay =       -0.0000013080581827
      Exc =       -1.5316022875933102
       KE =        4.7604903361464377
-------------------------------------
     Etot =       -7.0478873903788735
       TS =        0.0000004210492349
-------------------------------------
        F =       -7.0478878114281081

IonicMinimize: Iter:   0  F: -7.047887811428108  |grad|_K:  0.000e+00  t[s]:    111.41
IonicMinimize: Converged (|grad|_K<1.000000e-04).

#--- Lowdin population analysis ---
# oxidation-state Li +2.103
# magnetic-moments Li +0.240

End date and time: Sat Feb  5 23:03:14 2022  (Duration: 0-0:01:51.43)
Done!
scale=4
magnetization=0.26
--------------------------------------------------------------------------
The library attempted to open the following supporting CUDA libraries,
but each of them failed.  CUDA-aware support is disabled.
libcuda.so.1: cannot open shared object file: No such file or directory
libcuda.dylib: cannot open shared object file: No such file or directory
/usr/lib64/libcuda.so.1: cannot open shared object file: No such file or directory
/usr/lib64/libcuda.dylib: cannot open shared object file: No such file or directory
If you are not interested in CUDA-aware support, then run with
--mca opal_warn_on_missing_libcuda 0 to suppress this message.  If you are interested
in CUDA-aware support, then try setting LD_LIBRARY_PATH to the location
of libcuda.so.1 to get passed this issue.
--------------------------------------------------------------------------
--------------------------------------------------------------------------
No OpenFabrics connection schemes reported that they were able to be
used on a specific port.  As such, the openib BTL (OpenFabrics
support) will be disabled for this port.

  Local host:           d-4-8-2
  Local device:         mlx5_1
  Local port:           1
  CPCs attempted:       rdmacm, udcm
--------------------------------------------------------------------------

*************** JDFTx 1.6.0 (git hash 42ebbcc2) ***************

Start date and time: Sat Feb  5 23:03:15 2022
Executable jdftx with command-line: -i Alkali.in
Running on hosts (process indices):  d-4-8-2 (0-18)
Divided in process groups (process indices):  0 (0)  1 (1)  2 (2)  3 (3)  4 (4)  5 (5)  6 (6)  7 (7)  8 (8)  9 (9)  10 (10)  11 (11)  12 (12)  13 (13)  14 (14)  15 (15)  16 (16)  17 (17)  18 (18)
Resource initialization completed at t[s]:      0.00
Run totals: 19 processes, 48 threads, 0 GPUs


Input parsed successfully to the following command list (including defaults):

basis kpoint-dependent
coords-type Lattice
core-overlap-check vector
coulomb-interaction Slab 001
davidson-band-ratio 1.1
dump End None
dump-name $INPUT.$VAR
elec-cutoff 20
elec-eigen-algo Davidson
elec-ex-corr gga-PBE
elec-initial-magnetization 0.260000 yes
elec-smearing Fermi 1e-05
electronic-minimize  \
	dirUpdateScheme      FletcherReeves \
	linminMethod         DirUpdateRecommended \
	nIterations          100 \
	history              15 \
	knormThreshold       0 \
	energyDiffThreshold  1e-08 \
	nEnergyDiff          2 \
	alphaTstart          1 \
	alphaTmin            1e-10 \
	updateTestStepSize   yes \
	alphaTreduceFactor   0.1 \
	alphaTincreaseFactor 3 \
	nAlphaAdjustMax      3 \
	wolfeEnergy          0.0001 \
	wolfeGradient        0.9 \
	fdTest               no
electronic-scf  \
	nIterations	10000 \
	energyDiffThreshold	1e-08 \
	residualThreshold	1e-07 \
	mixFraction	0.5 \
	qMetric	0.8 \
	history	10 \
	nEigSteps	2 \
	eigDiffThreshold	1e-08 \
	mixedVariable	Density \
	qKerker	0.8 \
	qKappa	-1 \
	verbose	no \
	mixFractionMag	1.5
exchange-regularization WignerSeitzTruncated
fluid None
fluid-ex-corr (null) lda-PZ
fluid-gummel-loop 10 1.000000e-05
fluid-minimize  \
	dirUpdateScheme      PolakRibiere \
	linminMethod         DirUpdateRecommended \
	nIterations          100 \
	history              15 \
	knormThreshold       0 \
	energyDiffThreshold  0 \
	nEnergyDiff          2 \
	alphaTstart          1 \
	alphaTmin            1e-10 \
	updateTestStepSize   yes \
	alphaTreduceFactor   0.1 \
	alphaTincreaseFactor 3 \
	nAlphaAdjustMax      3 \
	wolfeEnergy          0.0001 \
	wolfeGradient        0.9 \
	fdTest               no
fluid-solvent H2O 55.338 ScalarEOS \
	epsBulk 78.4 \
	pMol 0.92466 \
	epsInf 1.77 \
	Pvap 1.06736e-10 \
	sigmaBulk 4.62e-05 \
	Rvdw 2.61727 \
	Res 1.42 \
	tauNuc 343133 \
	poleEl 15 7 1
forces-output-coords Positions
ion Li   0.000000000000000   0.000000000000000   0.000000000000000 0
ion-species SG15/$ID_ONCV_PBE.upf
ion-width 0
ionic-minimize  \
	dirUpdateScheme      L-BFGS \
	linminMethod         DirUpdateRecommended \
	nIterations          0 \
	history              15 \
	knormThreshold       0.0001 \
	energyDiffThreshold  1e-06 \
	nEnergyDiff          2 \
	alphaTstart          1 \
	alphaTmin            1e-10 \
	updateTestStepSize   yes \
	alphaTreduceFactor   0.1 \
	alphaTincreaseFactor 3 \
	nAlphaAdjustMax      3 \
	wolfeEnergy          0.0001 \
	wolfeGradient        0.9 \
	fdTest               no
kpoint   0.000000000000   0.000000000000   0.000000000000  1.00000000000000
kpoint-folding 12 12 1 
latt-move-scale 1 1 1
latt-scale 4 4 1 
lattice  \
	   4.727486978767153   -2.363743489383575    0.000000000000000  \
	  -0.000000000000000    4.094123819672498    0.000000000000000  \
	   0.000000000000000    0.000000000000000   40.000000000000000 
lattice-minimize  \
	dirUpdateScheme      L-BFGS \
	linminMethod         DirUpdateRecommended \
	nIterations          0 \
	history              15 \
	knormThreshold       0 \
	energyDiffThreshold  1e-06 \
	nEnergyDiff          2 \
	alphaTstart          1 \
	alphaTmin            1e-10 \
	updateTestStepSize   yes \
	alphaTreduceFactor   0.1 \
	alphaTincreaseFactor 3 \
	nAlphaAdjustMax      3 \
	wolfeEnergy          0.0001 \
	wolfeGradient        0.9 \
	fdTest               no
lcao-params -1 1e-06 1e-05
pcm-variant GLSSA13
spintype z-spin
subspace-rotation-factor 1 yes
symmetries automatic
symmetry-threshold 0.0001



---------- Setting up symmetries ----------

Found 24 point-group symmetries of the bravais lattice
Found 24 space-group symmetries with basis
Applied RMS atom displacement 0 bohrs to make symmetries exact.

---------- Initializing the Grid ----------
R = 
[      18.9099     -9.45497            0  ]
[            0      16.3765            0  ]
[            0            0           40  ]
unit cell volume = 12387.1
G =
[   0.332269   0.191835         -0  ]
[          0   0.383671         -0  ]
[         -0         -0    0.15708  ]
Minimum fftbox size, Smin = [  80  80  164  ]
Chosen fftbox size, S = [  80  80  168  ]

---------- Exchange Correlation functional ----------
Initalized PBE GGA exchange.
Initalized PBE GGA correlation.

---------- Setting up pseudopotentials ----------
Width of ionic core gaussian charges (only for fluid interactions / plotting) set to 0

Reading pseudopotential file '/home/gridsan/aligho/DFT/build-Nov24/pseudopotentials/SG15/Li_ONCV_PBE.upf':
  'Li' pseudopotential, 'PBE' functional
  Generated using ONCVPSP code by D. R. Hamann
  Author: Martin Schlipf and Francois Gygi  Date: 150915.
  3 valence electrons, 2 orbitals, 4 projectors, 1328 radial grid points, with lMax = 1
  Transforming local potential to a uniform radial grid of dG=0.02 with 1489 points.
  Transforming nonlocal projectors to a uniform radial grid of dG=0.02 with 432 points.
    1S    l: 0   occupation:  2.0   eigenvalue: -1.905623
    2S    l: 0   occupation:  1.0   eigenvalue: -0.105624
  Transforming atomic orbitals to a uniform radial grid of dG=0.02 with 432 points.
  WARNING: large normalization error in atomic orbital 1s (integral: 0.000000).
  Core radius for overlap checks: 1.63 bohrs.
  Reading pulay file /home/gridsan/aligho/DFT/build-Nov24/pseudopotentials/SG15/Li_ONCV_PBE.pulay ... using dE_dnG = -1.230239e-02 computed for Ecut = 20.

Initialized 1 species with 1 total atoms.

Folded 1 k-points by 12x12x1 to 144 k-points.

---------- Setting up k-points, bands, fillings ----------
Reduced to 19 k-points under symmetry. 
Computing the number of bands and number of electrons
Calculating initial fillings.
nElectrons:   3.000000   nBands: 3   nStates: 38

----- Setting up reduced wavefunction bases (one per k-point) -----
average nbasis = 52924.021 , ideal nbasis = 52918.836

---------- Setting up coulomb interaction ----------
Initialized slab truncation along lattice direction 001

---------- Setting up 2D ewald sum ----------
Optimum gaussian width for ewald sums = 10.498040 bohr.
Real space sums over 289 unit cells with max indices [  8  8  0  ]
Reciprocal space sums over 81 terms with max indices [  4  4  0  ]

---------- Allocating electronic variables ----------
Initializing wave functions:  linear combination of atomic orbitals
Note: number of bands (3) exceeds available atomic orbitals (2)
Li pseudo-atom occupations:   s ( 2 1 )
[d-4-8-2:82524] 18 more processes have sent help message help-mpi-common-cuda.txt / dlopen failed
[d-4-8-2:82524] Set MCA parameter "orte_base_help_aggregate" to 0 to see all help / error messages
[d-4-8-2:82524] 18 more processes have sent help message help-mpi-btl-openib-cpc-base.txt / no cpcs for port
	FillingsUpdate:  mu: +0.361951649  nElectrons: 3.000000  magneticMoment: [ Abs: 0.26000  Tot: +0.26000 ]
LCAOMinimize: Iter:   0  F: -1.3109249359090327  |grad|_K:  4.119e-05  alpha:  1.000e+00
	FillingsUpdate:  mu: +0.361951265  nElectrons: 3.000000  magneticMoment: [ Abs: 0.26000  Tot: +0.26000 ]
LCAOMinimize: Iter:   1  F: -1.3109252430897063  |grad|_K:  8.878e-08  alpha:  1.059e+00  linmin: -1.275e-02  cgtest:  3.393e-02  t[s]:     12.67
LCAOMinimize: Encountered beta<0, resetting CG.
LCAOMinimize: 	Wrong curvature in test step, increasing alphaT to 3.175682e+00.
	FillingsUpdate:  mu: +0.361951265  nElectrons: 3.000000  magneticMoment: [ Abs: 0.26000  Tot: +0.26000 ]
LCAOMinimize: Iter:   2  F: -1.3109252430962692  |grad|_K:  4.498e-09  alpha: -4.072e-01  linmin:  8.290e-03  cgtest: -4.260e-01  t[s]:     15.90
LCAOMinimize: Converged (|Delta F|<1.000000e-06 for 2 iters).


---- Citations for features of the code used in this run ----

   Software package:
      R. Sundararaman, K. Letchworth-Weaver, K.A. Schwarz, D. Gunceler, Y. Ozhabes and T.A. Arias, 'JDFTx: software for joint density-functional theory', SoftwareX 6, 278 (2017)

   gga-PBE exchange-correlation functional:
      J.P. Perdew, K. Burke and M. Ernzerhof, Phys. Rev. Lett. 77, 3865 (1996)

   Pseudopotentials:
      M Schlipf and F Gygi, Comput. Phys. Commun. 196, 36 (2015)

   Truncated Coulomb potentials:
      R. Sundararaman and T.A. Arias, Phys. Rev. B 87, 165122 (2013)

This list may not be complete. Please suggest additional citations or
report any other bugs at https://github.com/shankar1729/jdftx/issues

Initialization completed successfully at t[s]:     16.04


-------- Electronic minimization -----------
Will mix electronic density at each iteration.
	FillingsUpdate:  mu: +0.361951265  nElectrons: 3.000000  magneticMoment: [ Abs: 0.26000  Tot: +0.26000 ]
	FillingsUpdate:  mu: -0.613024975  nElectrons: 3.000000  magneticMoment: [ Abs: 0.26000  Tot: +0.26000 ]
SCF: Cycle:  0   F: -6.869461929123609   dF: -5.559e+00   |Residual|: 1.230e+00   |deigs|: 4.155e+00  t[s]:     21.59
	FillingsUpdate:  mu: -0.492150578  nElectrons: 3.000000  magneticMoment: [ Abs: 0.44689  Tot: +0.26000 ]
SCF: Cycle:  1   F: -6.915325218084478   dF: -4.586e-02   |Residual|: 7.604e-01   |deigs|: 2.762e-01  t[s]:     26.03
	FillingsUpdate:  mu: -0.247859112  nElectrons: 3.000000  magneticMoment: [ Abs: 0.57561  Tot: +0.26000 ]
SCF: Cycle:  2   F: -7.036700688520560   dF: -1.214e-01   |Residual|: 3.179e-01   |deigs|: 7.084e-01  t[s]:     30.59
	FillingsUpdate:  mu: -0.263578429  nElectrons: 3.000000  magneticMoment: [ Abs: 0.55312  Tot: +0.26000 ]
SCF: Cycle:  3   F: -7.037464165345319   dF: -7.635e-04   |Residual|: 1.879e-01   |deigs|: 7.117e-02  t[s]:     35.33
	FillingsUpdate:  mu: -0.234854999  nElectrons: 3.000000  magneticMoment: [ Abs: 0.57154  Tot: +0.26000 ]
SCF: Cycle:  4   F: -7.035347236750930   dF: +2.117e-03   |Residual|: 6.344e-02   |deigs|: 2.582e-02  t[s]:     40.15
	FillingsUpdate:  mu: -0.225249397  nElectrons: 3.000000  magneticMoment: [ Abs: 0.54886  Tot: +0.26000 ]
SCF: Cycle:  5   F: -7.036672181389655   dF: -1.325e-03   |Residual|: 1.205e-01   |deigs|: 8.985e-03  t[s]:     45.09
	FillingsUpdate:  mu: -0.201969866  nElectrons: 3.000000  magneticMoment: [ Abs: 0.49278  Tot: +0.26000 ]
SCF: Cycle:  6   F: -7.040588905384217   dF: -3.917e-03   |Residual|: 4.856e-02   |deigs|: 5.718e-02  t[s]:     50.13
	FillingsUpdate:  mu: -0.177028629  nElectrons: 3.000000  magneticMoment: [ Abs: 0.38318  Tot: +0.26000 ]
SCF: Cycle:  7   F: -7.042948827294876   dF: -2.360e-03   |Residual|: 1.055e-01   |deigs|: 7.589e-02  t[s]:     55.23
	FillingsUpdate:  mu: -0.184183045  nElectrons: 3.000000  magneticMoment: [ Abs: 0.29935  Tot: +0.26000 ]
SCF: Cycle:  8   F: -7.043082279067962   dF: -1.335e-04   |Residual|: 6.474e-02   |deigs|: 2.211e-02  t[s]:     60.49
	FillingsUpdate:  mu: -0.187390475  nElectrons: 3.000000  magneticMoment: [ Abs: 0.38254  Tot: +0.26000 ]
SCF: Cycle:  9   F: -7.043527840587814   dF: -4.456e-04   |Residual|: 9.271e-02   |deigs|: 6.176e-02  t[s]:     65.84
	FillingsUpdate:  mu: -0.171183284  nElectrons: 3.000000  magneticMoment: [ Abs: 0.37514  Tot: +0.26000 ]
SCF: Cycle: 10   F: -7.043961184418268   dF: -4.333e-04   |Residual|: 1.102e-01   |deigs|: 1.230e-02  t[s]:     71.36
	FillingsUpdate:  mu: -0.156600047  nElectrons: 3.000000  magneticMoment: [ Abs: 0.37501  Tot: +0.26000 ]
SCF: Cycle: 11   F: -7.044719514365233   dF: -7.583e-04   |Residual|: 2.724e-02   |deigs|: 5.864e-02  t[s]:     76.89
	FillingsUpdate:  mu: -0.150265124  nElectrons: 3.000000  magneticMoment: [ Abs: 0.31925  Tot: +0.26000 ]
SCF: Cycle: 12   F: -7.044850703566106   dF: -1.312e-04   |Residual|: 1.128e-02   |deigs|: 1.019e-02  t[s]:     82.32
	FillingsUpdate:  mu: -0.131532668  nElectrons: 3.000000  magneticMoment: [ Abs: 0.35532  Tot: +0.26000 ]
SCF: Cycle: 13   F: -7.045018995941806   dF: -1.683e-04   |Residual|: 6.978e-03   |deigs|: 1.967e-02  t[s]:     87.80
	FillingsUpdate:  mu: -0.122771399  nElectrons: 3.000000  magneticMoment: [ Abs: 0.35080  Tot: +0.26000 ]
SCF: Cycle: 14   F: -7.045062058540940   dF: -4.306e-05   |Residual|: 5.784e-03   |deigs|: 1.027e-02  t[s]:     93.27
	FillingsUpdate:  mu: -0.114786301  nElectrons: 3.000000  magneticMoment: [ Abs: 0.33077  Tot: +0.26000 ]
SCF: Cycle: 15   F: -7.045056572751696   dF: +5.486e-06   |Residual|: 4.367e-03   |deigs|: 7.820e-03  t[s]:     98.78
	FillingsUpdate:  mu: -0.111174873  nElectrons: 3.000000  magneticMoment: [ Abs: 0.32770  Tot: +0.26000 ]
SCF: Cycle: 16   F: -7.045096539688681   dF: -3.997e-05   |Residual|: 3.212e-03   |deigs|: 3.606e-03  t[s]:    104.35
	FillingsUpdate:  mu: -0.109865033  nElectrons: 3.000000  magneticMoment: [ Abs: 0.30702  Tot: +0.26000 ]
SCF: Cycle: 17   F: -7.045085894529781   dF: +1.065e-05   |Residual|: 2.360e-03   |deigs|: 1.044e-03  t[s]:    109.80
	FillingsUpdate:  mu: -0.108043509  nElectrons: 3.000000  magneticMoment: [ Abs: 0.29938  Tot: +0.26000 ]
SCF: Cycle: 18   F: -7.045083398666234   dF: +2.496e-06   |Residual|: 1.793e-03   |deigs|: 1.819e-03  t[s]:    115.37
	FillingsUpdate:  mu: -0.106952345  nElectrons: 3.000000  magneticMoment: [ Abs: 0.28743  Tot: +0.26000 ]
SCF: Cycle: 19   F: -7.045102040678451   dF: -1.864e-05   |Residual|: 1.338e-03   |deigs|: 1.347e-03  t[s]:    120.87
	FillingsUpdate:  mu: -0.105571811  nElectrons: 3.000000  magneticMoment: [ Abs: 0.28112  Tot: +0.26000 ]
SCF: Cycle: 20   F: -7.045137727390011   dF: -3.569e-05   |Residual|: 8.646e-04   |deigs|: 1.541e-03  t[s]:    126.29
	FillingsUpdate:  mu: -0.104940592  nElectrons: 3.000000  magneticMoment: [ Abs: 0.27695  Tot: +0.26000 ]
SCF: Cycle: 21   F: -7.045147833017424   dF: -1.011e-05   |Residual|: 6.369e-04   |deigs|: 8.099e-04  t[s]:    131.81
	FillingsUpdate:  mu: -0.104718397  nElectrons: 3.000000  magneticMoment: [ Abs: 0.27242  Tot: +0.26000 ]
SCF: Cycle: 22   F: -7.045153912351470   dF: -6.079e-06   |Residual|: 5.072e-04   |deigs|: 3.676e-04  t[s]:    137.24
	FillingsUpdate:  mu: -0.104687460  nElectrons: 3.000000  magneticMoment: [ Abs: 0.26794  Tot: +0.26000 ]
SCF: Cycle: 23   F: -7.045160157441778   dF: -6.245e-06   |Residual|: 3.900e-04   |deigs|: 1.553e-04  t[s]:    142.70
	FillingsUpdate:  mu: -0.104902695  nElectrons: 3.000000  magneticMoment: [ Abs: 0.26494  Tot: +0.26000 ]
SCF: Cycle: 24   F: -7.045164032922727   dF: -3.875e-06   |Residual|: 2.611e-04   |deigs|: 2.904e-04  t[s]:    148.19
	FillingsUpdate:  mu: -0.105071565  nElectrons: 3.000000  magneticMoment: [ Abs: 0.26280  Tot: +0.26000 ]
SCF: Cycle: 25   F: -7.045164701776383   dF: -6.689e-07   |Residual|: 1.675e-04   |deigs|: 2.954e-04  t[s]:    153.67
	FillingsUpdate:  mu: -0.105077394  nElectrons: 3.000000  magneticMoment: [ Abs: 0.26170  Tot: +0.26000 ]
SCF: Cycle: 26   F: -7.045165026746259   dF: -3.250e-07   |Residual|: 9.092e-05   |deigs|: 1.205e-04  t[s]:    159.18
	FillingsUpdate:  mu: -0.105083643  nElectrons: 3.000000  magneticMoment: [ Abs: 0.26135  Tot: +0.26000 ]
SCF: Cycle: 27   F: -7.045165120530657   dF: -9.378e-08   |Residual|: 6.482e-05   |deigs|: 7.221e-05  t[s]:    164.72
	FillingsUpdate:  mu: -0.105089944  nElectrons: 3.000000  magneticMoment: [ Abs: 0.26103  Tot: +0.26000 ]
SCF: Cycle: 28   F: -7.045165158067274   dF: -3.754e-08   |Residual|: 4.799e-05   |deigs|: 6.531e-05  t[s]:    170.24
	FillingsUpdate:  mu: -0.105087448  nElectrons: 3.000000  magneticMoment: [ Abs: 0.26075  Tot: +0.26000 ]
SCF: Cycle: 29   F: -7.045165158565242   dF: -4.980e-10   |Residual|: 3.604e-05   |deigs|: 5.044e-05  t[s]:    175.71
	FillingsUpdate:  mu: -0.105093537  nElectrons: 3.000000  magneticMoment: [ Abs: 0.26043  Tot: +0.26000 ]
SCF: Cycle: 30   F: -7.045165150723487   dF: +7.842e-09   |Residual|: 2.789e-05   |deigs|: 4.122e-05  t[s]:    181.19
	FillingsUpdate:  mu: -0.105097953  nElectrons: 3.000000  magneticMoment: [ Abs: 0.26030  Tot: +0.26000 ]
SCF: Cycle: 31   F: -7.045165161781558   dF: -1.106e-08   |Residual|: 2.402e-05   |deigs|: 3.164e-05  t[s]:    186.69
	FillingsUpdate:  mu: -0.105114794  nElectrons: 3.000000  magneticMoment: [ Abs: 0.26015  Tot: +0.26000 ]
SCF: Cycle: 32   F: -7.045165097177736   dF: +6.460e-08   |Residual|: 1.909e-05   |deigs|: 3.025e-05  t[s]:    192.17
	FillingsUpdate:  mu: -0.105138669  nElectrons: 3.000000  magneticMoment: [ Abs: 0.26007  Tot: +0.26000 ]
SCF: Cycle: 33   F: -7.045165151255162   dF: -5.408e-08   |Residual|: 1.529e-05   |deigs|: 3.215e-05  t[s]:    197.75
	FillingsUpdate:  mu: -0.105159128  nElectrons: 3.000000  magneticMoment: [ Abs: 0.26011  Tot: +0.26000 ]
SCF: Cycle: 34   F: -7.045165183994528   dF: -3.274e-08   |Residual|: 1.244e-05   |deigs|: 2.788e-05  t[s]:    203.23
	FillingsUpdate:  mu: -0.105174287  nElectrons: 3.000000  magneticMoment: [ Abs: 0.26008  Tot: +0.26000 ]
SCF: Cycle: 35   F: -7.045165172279309   dF: +1.172e-08   |Residual|: 1.068e-05   |deigs|: 2.244e-05  t[s]:    208.77
	FillingsUpdate:  mu: -0.105188991  nElectrons: 3.000000  magneticMoment: [ Abs: 0.26002  Tot: +0.26000 ]
SCF: Cycle: 36   F: -7.045165167340337   dF: +4.939e-09   |Residual|: 7.535e-06   |deigs|: 2.145e-05  t[s]:    214.17
	FillingsUpdate:  mu: -0.105193703  nElectrons: 3.000000  magneticMoment: [ Abs: 0.26004  Tot: +0.26000 ]
SCF: Cycle: 37   F: -7.045165190753058   dF: -2.341e-08   |Residual|: 5.066e-06   |deigs|: 1.491e-05  t[s]:    219.56
	FillingsUpdate:  mu: -0.105195234  nElectrons: 3.000000  magneticMoment: [ Abs: 0.26002  Tot: +0.26000 ]
SCF: Cycle: 38   F: -7.045165197183877   dF: -6.431e-09   |Residual|: 3.683e-06   |deigs|: 1.336e-05  t[s]:    225.00
	FillingsUpdate:  mu: -0.105196910  nElectrons: 3.000000  magneticMoment: [ Abs: 0.26000  Tot: +0.26000 ]
SCF: Cycle: 39   F: -7.045165201960269   dF: -4.776e-09   |Residual|: 2.395e-06   |deigs|: 1.308e-05  t[s]:    230.47
SCF: Converged (|Delta E|<1.000000e-08 for 2 iters).


# Ionic positions in lattice coordinates:
ion Li   0.000000000000000   0.000000000000000   0.000000000000000 0

# Forces in Lattice coordinates:
force Li   0.000000000000000   0.000000000000000   0.000000000000000 0

# Energy components:
   Eewald =       -1.0026681166851483
       EH =        2.5469238170417889
     Eloc =       -8.2248301472239085
      Enl =       -3.6034156579194043
   Epulay =        0.0000051497655618
      Exc =       -1.5350043236857447
       KE =        4.7738245569170719
-------------------------------------
     Etot =       -7.0451647217897833
       TS =        0.0000004801704858
-------------------------------------
        F =       -7.0451652019602689

IonicMinimize: Iter:   0  F: -7.045165201960269  |grad|_K:  0.000e+00  t[s]:    230.71
IonicMinimize: Converged (|grad|_K<1.000000e-04).

#--- Lowdin population analysis ---
# oxidation-state Li +2.081
# magnetic-moments Li +0.241

End date and time: Sat Feb  5 23:07:06 2022  (Duration: 0-0:03:50.74)
Done!
