The alkali metal is Li
scale=2
magnetization=0.64
--------------------------------------------------------------------------
The library attempted to open the following supporting CUDA libraries,
but each of them failed.  CUDA-aware support is disabled.
libcuda.so.1: cannot open shared object file: No such file or directory
libcuda.dylib: cannot open shared object file: No such file or directory
/usr/lib64/libcuda.so.1: cannot open shared object file: No such file or directory
/usr/lib64/libcuda.dylib: cannot open shared object file: No such file or directory
If you are not interested in CUDA-aware support, then run with
--mca opal_warn_on_missing_libcuda 0 to suppress this message.  If you are interested
in CUDA-aware support, then try setting LD_LIBRARY_PATH to the location
of libcuda.so.1 to get passed this issue.
--------------------------------------------------------------------------
--------------------------------------------------------------------------
No OpenFabrics connection schemes reported that they were able to be
used on a specific port.  As such, the openib BTL (OpenFabrics
support) will be disabled for this port.

  Local host:           d-16-8-3
  Local device:         mlx5_1
  Local port:           1
  CPCs attempted:       rdmacm, udcm
--------------------------------------------------------------------------

*************** JDFTx 1.6.0 (git hash 42ebbcc2) ***************

Start date and time: Sat Feb  5 23:06:42 2022
Executable jdftx with command-line: -i Alkali.in
Running on hosts (process indices):  d-16-8-3 (0-18)
Divided in process groups (process indices):  0 (0)  1 (1)  2 (2)  3 (3)  4 (4)  5 (5)  6 (6)  7 (7)  8 (8)  9 (9)  10 (10)  11 (11)  12 (12)  13 (13)  14 (14)  15 (15)  16 (16)  17 (17)  18 (18)
Resource initialization completed at t[s]:      0.00
Run totals: 19 processes, 48 threads, 0 GPUs


Input parsed successfully to the following command list (including defaults):

basis kpoint-dependent
coords-type Lattice
core-overlap-check vector
coulomb-interaction Slab 001
davidson-band-ratio 1.1
dump End None
dump-name $INPUT.$VAR
elec-cutoff 20
elec-eigen-algo Davidson
elec-ex-corr gga-PBE
elec-initial-magnetization 0.640000 yes
elec-smearing Fermi 1e-05
electronic-minimize  \
	dirUpdateScheme      FletcherReeves \
	linminMethod         DirUpdateRecommended \
	nIterations          100 \
	history              15 \
	knormThreshold       0 \
	energyDiffThreshold  1e-08 \
	nEnergyDiff          2 \
	alphaTstart          1 \
	alphaTmin            1e-10 \
	updateTestStepSize   yes \
	alphaTreduceFactor   0.1 \
	alphaTincreaseFactor 3 \
	nAlphaAdjustMax      3 \
	wolfeEnergy          0.0001 \
	wolfeGradient        0.9 \
	fdTest               no
electronic-scf  \
	nIterations	10000 \
	energyDiffThreshold	1e-08 \
	residualThreshold	1e-07 \
	mixFraction	0.5 \
	qMetric	0.8 \
	history	10 \
	nEigSteps	2 \
	eigDiffThreshold	1e-08 \
	mixedVariable	Density \
	qKerker	0.8 \
	qKappa	-1 \
	verbose	no \
	mixFractionMag	1.5
exchange-regularization WignerSeitzTruncated
fluid None
fluid-ex-corr (null) lda-PZ
fluid-gummel-loop 10 1.000000e-05
fluid-minimize  \
	dirUpdateScheme      PolakRibiere \
	linminMethod         DirUpdateRecommended \
	nIterations          100 \
	history              15 \
	knormThreshold       0 \
	energyDiffThreshold  0 \
	nEnergyDiff          2 \
	alphaTstart          1 \
	alphaTmin            1e-10 \
	updateTestStepSize   yes \
	alphaTreduceFactor   0.1 \
	alphaTincreaseFactor 3 \
	nAlphaAdjustMax      3 \
	wolfeEnergy          0.0001 \
	wolfeGradient        0.9 \
	fdTest               no
fluid-solvent H2O 55.338 ScalarEOS \
	epsBulk 78.4 \
	pMol 0.92466 \
	epsInf 1.77 \
	Pvap 1.06736e-10 \
	sigmaBulk 4.62e-05 \
	Rvdw 2.61727 \
	Res 1.42 \
	tauNuc 343133 \
	poleEl 15 7 1
forces-output-coords Positions
ion Li   0.000000000000000   0.000000000000000   0.000000000000000 0
ion-species SG15/$ID_ONCV_PBE.upf
ion-width 0
ionic-minimize  \
	dirUpdateScheme      L-BFGS \
	linminMethod         DirUpdateRecommended \
	nIterations          0 \
	history              15 \
	knormThreshold       0.0001 \
	energyDiffThreshold  1e-06 \
	nEnergyDiff          2 \
	alphaTstart          1 \
	alphaTmin            1e-10 \
	updateTestStepSize   yes \
	alphaTreduceFactor   0.1 \
	alphaTincreaseFactor 3 \
	nAlphaAdjustMax      3 \
	wolfeEnergy          0.0001 \
	wolfeGradient        0.9 \
	fdTest               no
kpoint   0.000000000000   0.000000000000   0.000000000000  1.00000000000000
kpoint-folding 12 12 1 
latt-move-scale 1 1 1
latt-scale 2 2 1 
lattice  \
	   4.727486978767153   -2.363743489383575    0.000000000000000  \
	  -0.000000000000000    4.094123819672498    0.000000000000000  \
	   0.000000000000000    0.000000000000000   40.000000000000000 
lattice-minimize  \
	dirUpdateScheme      L-BFGS \
	linminMethod         DirUpdateRecommended \
	nIterations          0 \
	history              15 \
	knormThreshold       0 \
	energyDiffThreshold  1e-06 \
	nEnergyDiff          2 \
	alphaTstart          1 \
	alphaTmin            1e-10 \
	updateTestStepSize   yes \
	alphaTreduceFactor   0.1 \
	alphaTincreaseFactor 3 \
	nAlphaAdjustMax      3 \
	wolfeEnergy          0.0001 \
	wolfeGradient        0.9 \
	fdTest               no
lcao-params -1 1e-06 1e-05
pcm-variant GLSSA13
spintype z-spin
subspace-rotation-factor 1 yes
symmetries automatic
symmetry-threshold 0.0001



---------- Setting up symmetries ----------

Found 24 point-group symmetries of the bravais lattice
Found 24 space-group symmetries with basis
Applied RMS atom displacement 0 bohrs to make symmetries exact.

---------- Initializing the Grid ----------
R = 
[      9.45497     -4.72749            0  ]
[            0      8.18825            0  ]
[            0            0           40  ]
unit cell volume = 3096.79
G =
[   0.664538   0.383671         -0  ]
[          0   0.767342         -0  ]
[         -0         -0    0.15708  ]
Minimum fftbox size, Smin = [  40  40  164  ]
Chosen fftbox size, S = [  40  40  168  ]

---------- Exchange Correlation functional ----------
Initalized PBE GGA exchange.
Initalized PBE GGA correlation.

---------- Setting up pseudopotentials ----------
Width of ionic core gaussian charges (only for fluid interactions / plotting) set to 0

Reading pseudopotential file '/home/gridsan/aligho/DFT/build-Nov24/pseudopotentials/SG15/Li_ONCV_PBE.upf':
  'Li' pseudopotential, 'PBE' functional
  Generated using ONCVPSP code by D. R. Hamann
  Author: Martin Schlipf and Francois Gygi  Date: 150915.
  3 valence electrons, 2 orbitals, 4 projectors, 1328 radial grid points, with lMax = 1
  Transforming local potential to a uniform radial grid of dG=0.02 with 1489 points.
  Transforming nonlocal projectors to a uniform radial grid of dG=0.02 with 432 points.
    1S    l: 0   occupation:  2.0   eigenvalue: -1.905623
    2S    l: 0   occupation:  1.0   eigenvalue: -0.105624
  Transforming atomic orbitals to a uniform radial grid of dG=0.02 with 432 points.
  WARNING: large normalization error in atomic orbital 1s (integral: 0.000000).
  Core radius for overlap checks: 1.63 bohrs.
  Reading pulay file /home/gridsan/aligho/DFT/build-Nov24/pseudopotentials/SG15/Li_ONCV_PBE.pulay ... using dE_dnG = -1.230239e-02 computed for Ecut = 20.

Initialized 1 species with 1 total atoms.

Folded 1 k-points by 12x12x1 to 144 k-points.

---------- Setting up k-points, bands, fillings ----------
Reduced to 19 k-points under symmetry. 
Computing the number of bands and number of electrons
Calculating initial fillings.
nElectrons:   3.000000   nBands: 3   nStates: 38

----- Setting up reduced wavefunction bases (one per k-point) -----
average nbasis = 13230.521 , ideal nbasis = 13229.709

---------- Setting up coulomb interaction ----------
Initialized slab truncation along lattice direction 001

---------- Setting up 2D ewald sum ----------
Optimum gaussian width for ewald sums = 5.249020 bohr.
Real space sums over 289 unit cells with max indices [  8  8  0  ]
Reciprocal space sums over 81 terms with max indices [  4  4  0  ]

---------- Allocating electronic variables ----------
Initializing wave functions:  linear combination of atomic orbitals
Note: number of bands (3) exceeds available atomic orbitals (2)
Li pseudo-atom occupations:   s ( 2 1 )
	FillingsUpdate:  mu: +0.310110936  nElectrons: 3.000000  magneticMoment: [ Abs: 0.64000  Tot: +0.64000 ]
LCAOMinimize: Iter:   0  F: -1.1625875003390398  |grad|_K:  6.365e-05  alpha:  1.000e+00
	FillingsUpdate:  mu: +0.310109501  nElectrons: 3.000000  magneticMoment: [ Abs: 0.64000  Tot: +0.64000 ]
LCAOMinimize: Iter:   1  F: -1.1625882258898270  |grad|_K:  1.512e-06  alpha:  1.047e+00  linmin: -1.906e-03  cgtest:  2.468e-02  t[s]:      3.89
LCAOMinimize: Encountered beta<0, resetting CG.
[d-16-8-3:71217] 18 more processes have sent help message help-mpi-common-cuda.txt / dlopen failed
[d-16-8-3:71217] Set MCA parameter "orte_base_help_aggregate" to 0 to see all help / error messages
[d-16-8-3:71217] 18 more processes have sent help message help-mpi-btl-openib-cpc-base.txt / no cpcs for port
	FillingsUpdate:  mu: +0.310109516  nElectrons: 3.000000  magneticMoment: [ Abs: 0.64000  Tot: +0.64000 ]
LCAOMinimize: Iter:   2  F: -1.1625882262873597  |grad|_K:  5.145e-08  alpha:  1.020e+00  linmin:  1.080e-03  cgtest: -2.730e-02  t[s]:      4.89
LCAOMinimize: Converged (|Delta F|<1.000000e-06 for 2 iters).


---- Citations for features of the code used in this run ----

   Software package:
      R. Sundararaman, K. Letchworth-Weaver, K.A. Schwarz, D. Gunceler, Y. Ozhabes and T.A. Arias, 'JDFTx: software for joint density-functional theory', SoftwareX 6, 278 (2017)

   gga-PBE exchange-correlation functional:
      J.P. Perdew, K. Burke and M. Ernzerhof, Phys. Rev. Lett. 77, 3865 (1996)

   Pseudopotentials:
      M Schlipf and F Gygi, Comput. Phys. Commun. 196, 36 (2015)

   Truncated Coulomb potentials:
      R. Sundararaman and T.A. Arias, Phys. Rev. B 87, 165122 (2013)

This list may not be complete. Please suggest additional citations or
report any other bugs at https://github.com/shankar1729/jdftx/issues

Initialization completed successfully at t[s]:      4.95


-------- Electronic minimization -----------
Will mix electronic density at each iteration.
	FillingsUpdate:  mu: +0.310109516  nElectrons: 3.000000  magneticMoment: [ Abs: 0.64000  Tot: +0.64000 ]
	FillingsUpdate:  mu: -0.991289770  nElectrons: 3.000000  magneticMoment: [ Abs: 0.64000  Tot: +0.64000 ]
SCF: Cycle:  0   F: -6.831382088471889   dF: -5.669e+00   |Residual|: 1.172e+00   |deigs|: 4.170e+00  t[s]:      6.65
	FillingsUpdate:  mu: -0.872012729  nElectrons: 3.000000  magneticMoment: [ Abs: 1.01732  Tot: +0.64000 ]
SCF: Cycle:  1   F: -6.933567753853015   dF: -1.022e-01   |Residual|: 7.757e-01   |deigs|: 2.363e-01  t[s]:      7.90
	FillingsUpdate:  mu: -0.671482504  nElectrons: 3.000000  magneticMoment: [ Abs: 1.31011  Tot: +0.64000 ]
SCF: Cycle:  2   F: -7.044549770884541   dF: -1.110e-01   |Residual|: 4.177e-01   |deigs|: 7.736e-01  t[s]:      9.16
	FillingsUpdate:  mu: -0.683953728  nElectrons: 3.000000  magneticMoment: [ Abs: 1.09051  Tot: +0.64000 ]
SCF: Cycle:  3   F: -7.052699701795000   dF: -8.150e-03   |Residual|: 1.913e-01   |deigs|: 1.294e-01  t[s]:     10.44
	FillingsUpdate:  mu: -0.629144133  nElectrons: 3.000000  magneticMoment: [ Abs: 0.83509  Tot: +0.64000 ]
SCF: Cycle:  4   F: -7.052482198109105   dF: +2.175e-04   |Residual|: 4.655e-02   |deigs|: 4.159e-02  t[s]:     11.74
	FillingsUpdate:  mu: -0.609048481  nElectrons: 3.000000  magneticMoment: [ Abs: 0.81682  Tot: +0.64000 ]
SCF: Cycle:  5   F: -7.053071236778045   dF: -5.890e-04   |Residual|: 7.922e-02   |deigs|: 1.646e-02  t[s]:     13.15
	FillingsUpdate:  mu: -0.463086264  nElectrons: 3.000000  magneticMoment: [ Abs: 0.92551  Tot: +0.64000 ]
SCF: Cycle:  6   F: -7.057783144728893   dF: -4.712e-03   |Residual|: 1.161e-01   |deigs|: 1.599e-01  t[s]:     14.58
	FillingsUpdate:  mu: -0.446845973  nElectrons: 3.000000  magneticMoment: [ Abs: 0.85282  Tot: +0.64000 ]
SCF: Cycle:  7   F: -7.058582130701910   dF: -7.990e-04   |Residual|: 3.856e-02   |deigs|: 4.821e-02  t[s]:     15.98
	FillingsUpdate:  mu: -0.410151773  nElectrons: 3.000000  magneticMoment: [ Abs: 0.80616  Tot: +0.64000 ]
SCF: Cycle:  8   F: -7.060477938985502   dF: -1.896e-03   |Residual|: 6.505e-02   |deigs|: 4.306e-02  t[s]:     17.43
	FillingsUpdate:  mu: -0.371520784  nElectrons: 3.000000  magneticMoment: [ Abs: 0.76076  Tot: +0.64000 ]
SCF: Cycle:  9   F: -7.062263379410184   dF: -1.785e-03   |Residual|: 2.353e-02   |deigs|: 3.123e-02  t[s]:     18.96
	FillingsUpdate:  mu: -0.335067791  nElectrons: 3.000000  magneticMoment: [ Abs: 0.76727  Tot: +0.64000 ]
SCF: Cycle: 10   F: -7.063086673228653   dF: -8.233e-04   |Residual|: 2.919e-02   |deigs|: 3.111e-02  t[s]:     20.43
	FillingsUpdate:  mu: -0.291457845  nElectrons: 3.000000  magneticMoment: [ Abs: 0.82189  Tot: +0.64000 ]
SCF: Cycle: 11   F: -7.063524061780412   dF: -4.374e-04   |Residual|: 1.909e-02   |deigs|: 4.789e-02  t[s]:     21.88
	FillingsUpdate:  mu: -0.246714920  nElectrons: 3.000000  magneticMoment: [ Abs: 0.83078  Tot: +0.64000 ]
SCF: Cycle: 12   F: -7.063847633885604   dF: -3.236e-04   |Residual|: 1.345e-02   |deigs|: 4.750e-02  t[s]:     23.33
	FillingsUpdate:  mu: -0.205055037  nElectrons: 3.000000  magneticMoment: [ Abs: 0.79837  Tot: +0.64000 ]
SCF: Cycle: 13   F: -7.064145488569243   dF: -2.979e-04   |Residual|: 1.219e-02   |deigs|: 4.221e-02  t[s]:     24.80
	FillingsUpdate:  mu: -0.168864974  nElectrons: 3.000000  magneticMoment: [ Abs: 0.75315  Tot: +0.64000 ]
SCF: Cycle: 14   F: -7.064193987575583   dF: -4.850e-05   |Residual|: 9.223e-03   |deigs|: 3.741e-02  t[s]:     26.28
	FillingsUpdate:  mu: -0.136387560  nElectrons: 3.000000  magneticMoment: [ Abs: 0.72712  Tot: +0.64000 ]
SCF: Cycle: 15   F: -7.064233796254491   dF: -3.981e-05   |Residual|: 7.131e-03   |deigs|: 3.254e-02  t[s]:     27.80
	FillingsUpdate:  mu: -0.121860703  nElectrons: 3.000000  magneticMoment: [ Abs: 0.71361  Tot: +0.64000 ]
SCF: Cycle: 16   F: -7.064480483511032   dF: -2.467e-04   |Residual|: 5.380e-03   |deigs|: 1.478e-02  t[s]:     29.26
	FillingsUpdate:  mu: -0.115155875  nElectrons: 3.000000  magneticMoment: [ Abs: 0.68854  Tot: +0.64000 ]
SCF: Cycle: 17   F: -7.064641491245275   dF: -1.610e-04   |Residual|: 3.456e-03   |deigs|: 6.649e-03  t[s]:     30.75
	FillingsUpdate:  mu: -0.112464045  nElectrons: 3.000000  magneticMoment: [ Abs: 0.66853  Tot: +0.64000 ]
SCF: Cycle: 18   F: -7.064715735053338   dF: -7.424e-05   |Residual|: 2.111e-03   |deigs|: 2.466e-03  t[s]:     32.27
	FillingsUpdate:  mu: -0.112660598  nElectrons: 3.000000  magneticMoment: [ Abs: 0.65754  Tot: +0.64000 ]
SCF: Cycle: 19   F: -7.064735422258580   dF: -1.969e-05   |Residual|: 1.474e-03   |deigs|: 9.492e-04  t[s]:     33.74
	FillingsUpdate:  mu: -0.112773299  nElectrons: 3.000000  magneticMoment: [ Abs: 0.65105  Tot: +0.64000 ]
SCF: Cycle: 20   F: -7.064744537606712   dF: -9.115e-06   |Residual|: 9.281e-04   |deigs|: 8.877e-04  t[s]:     35.17
	FillingsUpdate:  mu: -0.112034877  nElectrons: 3.000000  magneticMoment: [ Abs: 0.64838  Tot: +0.64000 ]
SCF: Cycle: 21   F: -7.064749588434555   dF: -5.051e-06   |Residual|: 7.043e-04   |deigs|: 1.025e-03  t[s]:     36.68
	FillingsUpdate:  mu: -0.111303969  nElectrons: 3.000000  magneticMoment: [ Abs: 0.64647  Tot: +0.64000 ]
SCF: Cycle: 22   F: -7.064749918460537   dF: -3.300e-07   |Residual|: 5.679e-04   |deigs|: 9.382e-04  t[s]:     38.16
	FillingsUpdate:  mu: -0.110865510  nElectrons: 3.000000  magneticMoment: [ Abs: 0.64444  Tot: +0.64000 ]
SCF: Cycle: 23   F: -7.064750885147515   dF: -9.667e-07   |Residual|: 4.303e-04   |deigs|: 5.376e-04  t[s]:     39.61
	FillingsUpdate:  mu: -0.110343589  nElectrons: 3.000000  magneticMoment: [ Abs: 0.64296  Tot: +0.64000 ]
SCF: Cycle: 24   F: -7.064751109125440   dF: -2.240e-07   |Residual|: 3.494e-04   |deigs|: 5.167e-04  t[s]:     41.11
	FillingsUpdate:  mu: -0.110169798  nElectrons: 3.000000  magneticMoment: [ Abs: 0.64191  Tot: +0.64000 ]
SCF: Cycle: 25   F: -7.064752753100621   dF: -1.644e-06   |Residual|: 2.192e-04   |deigs|: 1.848e-04  t[s]:     42.65
	FillingsUpdate:  mu: -0.110051016  nElectrons: 3.000000  magneticMoment: [ Abs: 0.64079  Tot: +0.64000 ]
SCF: Cycle: 26   F: -7.064753404399522   dF: -6.513e-07   |Residual|: 1.255e-04   |deigs|: 9.487e-05  t[s]:     44.11
	FillingsUpdate:  mu: -0.110027685  nElectrons: 3.000000  magneticMoment: [ Abs: 0.64041  Tot: +0.64000 ]
SCF: Cycle: 27   F: -7.064753556499698   dF: -1.521e-07   |Residual|: 6.286e-05   |deigs|: 3.789e-05  t[s]:     45.69
	FillingsUpdate:  mu: -0.110032777  nElectrons: 3.000000  magneticMoment: [ Abs: 0.64014  Tot: +0.64000 ]
SCF: Cycle: 28   F: -7.064753600201842   dF: -4.370e-08   |Residual|: 3.544e-05   |deigs|: 1.600e-05  t[s]:     47.14
	FillingsUpdate:  mu: -0.110019436  nElectrons: 3.000000  magneticMoment: [ Abs: 0.64003  Tot: +0.64000 ]
SCF: Cycle: 29   F: -7.064753608839663   dF: -8.638e-09   |Residual|: 2.116e-05   |deigs|: 7.690e-05  t[s]:     48.71
	FillingsUpdate:  mu: -0.110007954  nElectrons: 3.000000  magneticMoment: [ Abs: 0.64003  Tot: +0.64000 ]
SCF: Cycle: 30   F: -7.064753610862805   dF: -2.023e-09   |Residual|: 1.272e-05   |deigs|: 2.510e-05  t[s]:     50.20
SCF: Converged (|Delta E|<1.000000e-08 for 2 iters).


# Ionic positions in lattice coordinates:
ion Li   0.000000000000000   0.000000000000000   0.000000000000000 0

# Forces in Lattice coordinates:
force Li   0.000000000000000  -0.000000000000000   0.000000000000000 0

# Energy components:
   Eewald =       -2.0053362333702967
       EH =        1.5371304187354544
     Eloc =       -6.1992119545090372
      Enl =       -3.5900270763227775
   Epulay =        0.0000032255226020
      Exc =       -1.5417492346864723
       KE =        4.7344382739651829
-------------------------------------
     Etot =       -7.0647525806653446
       TS =        0.0000010301974605
-------------------------------------
        F =       -7.0647536108628053

IonicMinimize: Iter:   0  F: -7.064753610862805  |grad|_K:  0.000e+00  t[s]:     50.30
IonicMinimize: Converged (|grad|_K<1.000000e-04).

#--- Lowdin population analysis ---
# oxidation-state Li +2.214
# magnetic-moments Li +0.445

End date and time: Sat Feb  5 23:07:32 2022  (Duration: 0-0:00:50.31)
Done!
scale=3
magnetization=0.64
--------------------------------------------------------------------------
The library attempted to open the following supporting CUDA libraries,
but each of them failed.  CUDA-aware support is disabled.
libcuda.so.1: cannot open shared object file: No such file or directory
libcuda.dylib: cannot open shared object file: No such file or directory
/usr/lib64/libcuda.so.1: cannot open shared object file: No such file or directory
/usr/lib64/libcuda.dylib: cannot open shared object file: No such file or directory
If you are not interested in CUDA-aware support, then run with
--mca opal_warn_on_missing_libcuda 0 to suppress this message.  If you are interested
in CUDA-aware support, then try setting LD_LIBRARY_PATH to the location
of libcuda.so.1 to get passed this issue.
--------------------------------------------------------------------------
--------------------------------------------------------------------------
No OpenFabrics connection schemes reported that they were able to be
used on a specific port.  As such, the openib BTL (OpenFabrics
support) will be disabled for this port.

  Local host:           d-16-8-3
  Local device:         mlx5_1
  Local port:           1
  CPCs attempted:       rdmacm, udcm
--------------------------------------------------------------------------

*************** JDFTx 1.6.0 (git hash 42ebbcc2) ***************

Start date and time: Sat Feb  5 23:07:33 2022
Executable jdftx with command-line: -i Alkali.in
Running on hosts (process indices):  d-16-8-3 (0-18)
Divided in process groups (process indices):  0 (0)  1 (1)  2 (2)  3 (3)  4 (4)  5 (5)  6 (6)  7 (7)  8 (8)  9 (9)  10 (10)  11 (11)  12 (12)  13 (13)  14 (14)  15 (15)  16 (16)  17 (17)  18 (18)
Resource initialization completed at t[s]:      0.00
Run totals: 19 processes, 48 threads, 0 GPUs


Input parsed successfully to the following command list (including defaults):

basis kpoint-dependent
coords-type Lattice
core-overlap-check vector
coulomb-interaction Slab 001
davidson-band-ratio 1.1
dump End None
dump-name $INPUT.$VAR
elec-cutoff 20
elec-eigen-algo Davidson
elec-ex-corr gga-PBE
elec-initial-magnetization 0.640000 yes
elec-smearing Fermi 1e-05
electronic-minimize  \
	dirUpdateScheme      FletcherReeves \
	linminMethod         DirUpdateRecommended \
	nIterations          100 \
	history              15 \
	knormThreshold       0 \
	energyDiffThreshold  1e-08 \
	nEnergyDiff          2 \
	alphaTstart          1 \
	alphaTmin            1e-10 \
	updateTestStepSize   yes \
	alphaTreduceFactor   0.1 \
	alphaTincreaseFactor 3 \
	nAlphaAdjustMax      3 \
	wolfeEnergy          0.0001 \
	wolfeGradient        0.9 \
	fdTest               no
electronic-scf  \
	nIterations	10000 \
	energyDiffThreshold	1e-08 \
	residualThreshold	1e-07 \
	mixFraction	0.5 \
	qMetric	0.8 \
	history	10 \
	nEigSteps	2 \
	eigDiffThreshold	1e-08 \
	mixedVariable	Density \
	qKerker	0.8 \
	qKappa	-1 \
	verbose	no \
	mixFractionMag	1.5
exchange-regularization WignerSeitzTruncated
fluid None
fluid-ex-corr (null) lda-PZ
fluid-gummel-loop 10 1.000000e-05
fluid-minimize  \
	dirUpdateScheme      PolakRibiere \
	linminMethod         DirUpdateRecommended \
	nIterations          100 \
	history              15 \
	knormThreshold       0 \
	energyDiffThreshold  0 \
	nEnergyDiff          2 \
	alphaTstart          1 \
	alphaTmin            1e-10 \
	updateTestStepSize   yes \
	alphaTreduceFactor   0.1 \
	alphaTincreaseFactor 3 \
	nAlphaAdjustMax      3 \
	wolfeEnergy          0.0001 \
	wolfeGradient        0.9 \
	fdTest               no
fluid-solvent H2O 55.338 ScalarEOS \
	epsBulk 78.4 \
	pMol 0.92466 \
	epsInf 1.77 \
	Pvap 1.06736e-10 \
	sigmaBulk 4.62e-05 \
	Rvdw 2.61727 \
	Res 1.42 \
	tauNuc 343133 \
	poleEl 15 7 1
forces-output-coords Positions
ion Li   0.000000000000000   0.000000000000000   0.000000000000000 0
ion-species SG15/$ID_ONCV_PBE.upf
ion-width 0
ionic-minimize  \
	dirUpdateScheme      L-BFGS \
	linminMethod         DirUpdateRecommended \
	nIterations          0 \
	history              15 \
	knormThreshold       0.0001 \
	energyDiffThreshold  1e-06 \
	nEnergyDiff          2 \
	alphaTstart          1 \
	alphaTmin            1e-10 \
	updateTestStepSize   yes \
	alphaTreduceFactor   0.1 \
	alphaTincreaseFactor 3 \
	nAlphaAdjustMax      3 \
	wolfeEnergy          0.0001 \
	wolfeGradient        0.9 \
	fdTest               no
kpoint   0.000000000000   0.000000000000   0.000000000000  1.00000000000000
kpoint-folding 12 12 1 
latt-move-scale 1 1 1
latt-scale 3 3 1 
lattice  \
	   4.727486978767153   -2.363743489383575    0.000000000000000  \
	  -0.000000000000000    4.094123819672498    0.000000000000000  \
	   0.000000000000000    0.000000000000000   40.000000000000000 
lattice-minimize  \
	dirUpdateScheme      L-BFGS \
	linminMethod         DirUpdateRecommended \
	nIterations          0 \
	history              15 \
	knormThreshold       0 \
	energyDiffThreshold  1e-06 \
	nEnergyDiff          2 \
	alphaTstart          1 \
	alphaTmin            1e-10 \
	updateTestStepSize   yes \
	alphaTreduceFactor   0.1 \
	alphaTincreaseFactor 3 \
	nAlphaAdjustMax      3 \
	wolfeEnergy          0.0001 \
	wolfeGradient        0.9 \
	fdTest               no
lcao-params -1 1e-06 1e-05
pcm-variant GLSSA13
spintype z-spin
subspace-rotation-factor 1 yes
symmetries automatic
symmetry-threshold 0.0001



---------- Setting up symmetries ----------

Found 24 point-group symmetries of the bravais lattice
Found 24 space-group symmetries with basis
Applied RMS atom displacement 0 bohrs to make symmetries exact.

---------- Initializing the Grid ----------
R = 
[      14.1825     -7.09123            0  ]
[            0      12.2824            0  ]
[            0            0           40  ]
unit cell volume = 6967.77
G =
[   0.443025   0.255781         -0  ]
[          0   0.511561         -0  ]
[         -0         -0    0.15708  ]
Minimum fftbox size, Smin = [  60  60  164  ]
Chosen fftbox size, S = [  60  60  168  ]

---------- Exchange Correlation functional ----------
Initalized PBE GGA exchange.
Initalized PBE GGA correlation.

---------- Setting up pseudopotentials ----------
Width of ionic core gaussian charges (only for fluid interactions / plotting) set to 0

Reading pseudopotential file '/home/gridsan/aligho/DFT/build-Nov24/pseudopotentials/SG15/Li_ONCV_PBE.upf':
  'Li' pseudopotential, 'PBE' functional
  Generated using ONCVPSP code by D. R. Hamann
  Author: Martin Schlipf and Francois Gygi  Date: 150915.
  3 valence electrons, 2 orbitals, 4 projectors, 1328 radial grid points, with lMax = 1
  Transforming local potential to a uniform radial grid of dG=0.02 with 1489 points.
  Transforming nonlocal projectors to a uniform radial grid of dG=0.02 with 432 points.
    1S    l: 0   occupation:  2.0   eigenvalue: -1.905623
    2S    l: 0   occupation:  1.0   eigenvalue: -0.105624
  Transforming atomic orbitals to a uniform radial grid of dG=0.02 with 432 points.
  WARNING: large normalization error in atomic orbital 1s (integral: 0.000000).
  Core radius for overlap checks: 1.63 bohrs.
  Reading pulay file /home/gridsan/aligho/DFT/build-Nov24/pseudopotentials/SG15/Li_ONCV_PBE.pulay ... using dE_dnG = -1.230239e-02 computed for Ecut = 20.

Initialized 1 species with 1 total atoms.

Folded 1 k-points by 12x12x1 to 144 k-points.

---------- Setting up k-points, bands, fillings ----------
Reduced to 19 k-points under symmetry. 
Computing the number of bands and number of electrons
Calculating initial fillings.
nElectrons:   3.000000   nBands: 3   nStates: 38

----- Setting up reduced wavefunction bases (one per k-point) -----
average nbasis = 29766.104 , ideal nbasis = 29766.845

---------- Setting up coulomb interaction ----------
Initialized slab truncation along lattice direction 001

---------- Setting up 2D ewald sum ----------
Optimum gaussian width for ewald sums = 7.873530 bohr.
Real space sums over 289 unit cells with max indices [  8  8  0  ]
Reciprocal space sums over 81 terms with max indices [  4  4  0  ]

---------- Allocating electronic variables ----------
Initializing wave functions:  linear combination of atomic orbitals
Note: number of bands (3) exceeds available atomic orbitals (2)
Li pseudo-atom occupations:   s ( 2 1 )
[d-16-8-3:09584] 18 more processes have sent help message help-mpi-common-cuda.txt / dlopen failed
[d-16-8-3:09584] Set MCA parameter "orte_base_help_aggregate" to 0 to see all help / error messages
[d-16-8-3:09584] 18 more processes have sent help message help-mpi-btl-openib-cpc-base.txt / no cpcs for port
	FillingsUpdate:  mu: +0.357216547  nElectrons: 3.000000  magneticMoment: [ Abs: 0.64000  Tot: +0.64000 ]
LCAOMinimize: Iter:   0  F: -1.2855110432836976  |grad|_K:  4.759e-05  alpha:  1.000e+00
LCAOMinimize: 	Wrong curvature in test step, increasing alphaT to 3.000000e+00.
	FillingsUpdate:  mu: +0.357016313  nElectrons: 3.000000  magneticMoment: [ Abs: 0.64000  Tot: +0.64000 ]
LCAOMinimize: Iter:   1  F: -1.2855147424652675  |grad|_K:  2.882e-06  alpha: -1.325e-01  linmin: -2.618e-01  cgtest:  9.099e-01  t[s]:      7.33
LCAOMinimize: Encountered beta<0, resetting CG.
	FillingsUpdate:  mu: +0.357016293  nElectrons: 3.000000  magneticMoment: [ Abs: 0.64000  Tot: +0.64000 ]
LCAOMinimize: Iter:   2  F: -1.2855147437390329  |grad|_K:  3.563e-07  alpha:  9.182e-01  linmin: -1.675e-01  cgtest:  1.018e+00  t[s]:      9.30
LCAOMinimize: Encountered beta<0, resetting CG.
	FillingsUpdate:  mu: +0.357016290  nElectrons: 3.000000  magneticMoment: [ Abs: 0.64000  Tot: +0.64000 ]
LCAOMinimize: Iter:   3  F: -1.2855147437644514  |grad|_K:  3.812e-08  alpha:  1.173e+00  linmin:  2.624e-01  cgtest: -9.960e-01  t[s]:     11.29
LCAOMinimize: Converged (|Delta F|<1.000000e-06 for 2 iters).


---- Citations for features of the code used in this run ----

   Software package:
      R. Sundararaman, K. Letchworth-Weaver, K.A. Schwarz, D. Gunceler, Y. Ozhabes and T.A. Arias, 'JDFTx: software for joint density-functional theory', SoftwareX 6, 278 (2017)

   gga-PBE exchange-correlation functional:
      J.P. Perdew, K. Burke and M. Ernzerhof, Phys. Rev. Lett. 77, 3865 (1996)

   Pseudopotentials:
      M Schlipf and F Gygi, Comput. Phys. Commun. 196, 36 (2015)

   Truncated Coulomb potentials:
      R. Sundararaman and T.A. Arias, Phys. Rev. B 87, 165122 (2013)

This list may not be complete. Please suggest additional citations or
report any other bugs at https://github.com/shankar1729/jdftx/issues

Initialization completed successfully at t[s]:     11.38


-------- Electronic minimization -----------
Will mix electronic density at each iteration.
	FillingsUpdate:  mu: +0.357016290  nElectrons: 3.000000  magneticMoment: [ Abs: 0.64000  Tot: +0.64000 ]
	FillingsUpdate:  mu: -0.695687914  nElectrons: 3.000000  magneticMoment: [ Abs: 0.64000  Tot: +0.64000 ]
SCF: Cycle:  0   F: -6.878195467543389   dF: -5.593e+00   |Residual|: 1.225e+00   |deigs|: 4.156e+00  t[s]:     14.70
	FillingsUpdate:  mu: -0.568306094  nElectrons: 3.000000  magneticMoment: [ Abs: 1.02486  Tot: +0.64000 ]
SCF: Cycle:  1   F: -6.917301571567579   dF: -3.911e-02   |Residual|: 7.641e-01   |deigs|: 2.743e-01  t[s]:     17.40
	FillingsUpdate:  mu: -0.367981981  nElectrons: 3.000000  magneticMoment: [ Abs: 1.40391  Tot: +0.64000 ]
SCF: Cycle:  2   F: -7.038905991235145   dF: -1.216e-01   |Residual|: 3.314e-01   |deigs|: 7.078e-01  t[s]:     20.13
	FillingsUpdate:  mu: -0.376139890  nElectrons: 3.000000  magneticMoment: [ Abs: 1.25862  Tot: +0.64000 ]
SCF: Cycle:  3   F: -7.040439916582381   dF: -1.534e-03   |Residual|: 1.787e-01   |deigs|: 8.273e-02  t[s]:     22.95
	FillingsUpdate:  mu: -0.330756104  nElectrons: 3.000000  magneticMoment: [ Abs: 1.04803  Tot: +0.64000 ]
SCF: Cycle:  4   F: -7.043052733075408   dF: -2.613e-03   |Residual|: 3.921e-02   |deigs|: 3.596e-02  t[s]:     25.74
	FillingsUpdate:  mu: -0.310662578  nElectrons: 3.000000  magneticMoment: [ Abs: 0.97660  Tot: +0.64000 ]
SCF: Cycle:  5   F: -7.043427890346463   dF: -3.752e-04   |Residual|: 7.625e-02   |deigs|: 2.015e-02  t[s]:     28.66
	FillingsUpdate:  mu: -0.277463701  nElectrons: 3.000000  magneticMoment: [ Abs: 0.81229  Tot: +0.64000 ]
SCF: Cycle:  6   F: -7.045576446302084   dF: -2.149e-03   |Residual|: 4.434e-02   |deigs|: 6.267e-02  t[s]:     31.61
	FillingsUpdate:  mu: -0.259770962  nElectrons: 3.000000  magneticMoment: [ Abs: 0.76327  Tot: +0.64000 ]
SCF: Cycle:  7   F: -7.047213820238660   dF: -1.637e-03   |Residual|: 4.332e-02   |deigs|: 4.367e-02  t[s]:     34.71
	FillingsUpdate:  mu: -0.255721732  nElectrons: 3.000000  magneticMoment: [ Abs: 0.72649  Tot: +0.64000 ]
SCF: Cycle:  8   F: -7.047566892820158   dF: -3.531e-04   |Residual|: 5.940e-02   |deigs|: 6.092e-03  t[s]:     37.73
	FillingsUpdate:  mu: -0.232423481  nElectrons: 3.000000  magneticMoment: [ Abs: 0.71061  Tot: +0.64000 ]
SCF: Cycle:  9   F: -7.048658935672512   dF: -1.092e-03   |Residual|: 2.880e-02   |deigs|: 2.492e-02  t[s]:     40.97
	FillingsUpdate:  mu: -0.202907715  nElectrons: 3.000000  magneticMoment: [ Abs: 0.78159  Tot: +0.64000 ]
SCF: Cycle: 10   F: -7.049083220711420   dF: -4.243e-04   |Residual|: 6.596e-02   |deigs|: 2.346e-02  t[s]:     44.20
	FillingsUpdate:  mu: -0.184761636  nElectrons: 3.000000  magneticMoment: [ Abs: 0.81379  Tot: +0.64000 ]
SCF: Cycle: 11   F: -7.049351047330297   dF: -2.678e-04   |Residual|: 1.126e-02   |deigs|: 2.768e-02  t[s]:     47.38
	FillingsUpdate:  mu: -0.171645790  nElectrons: 3.000000  magneticMoment: [ Abs: 0.81861  Tot: +0.64000 ]
SCF: Cycle: 12   F: -7.049631972567907   dF: -2.809e-04   |Residual|: 1.131e-02   |deigs|: 1.341e-02  t[s]:     50.58
	FillingsUpdate:  mu: -0.145453501  nElectrons: 3.000000  magneticMoment: [ Abs: 0.81422  Tot: +0.64000 ]
SCF: Cycle: 13   F: -7.049461805300957   dF: +1.702e-04   |Residual|: 7.813e-03   |deigs|: 2.921e-02  t[s]:     53.75
	FillingsUpdate:  mu: -0.135416050  nElectrons: 3.000000  magneticMoment: [ Abs: 0.78607  Tot: +0.64000 ]
SCF: Cycle: 14   F: -7.049453350364179   dF: +8.455e-06   |Residual|: 7.260e-03   |deigs|: 9.453e-03  t[s]:     57.01
	FillingsUpdate:  mu: -0.124087574  nElectrons: 3.000000  magneticMoment: [ Abs: 0.75664  Tot: +0.64000 ]
SCF: Cycle: 15   F: -7.049581145280340   dF: -1.278e-04   |Residual|: 6.499e-03   |deigs|: 1.156e-02  t[s]:     60.16
	FillingsUpdate:  mu: -0.114567286  nElectrons: 3.000000  magneticMoment: [ Abs: 0.71928  Tot: +0.64000 ]
SCF: Cycle: 16   F: -7.049867783261758   dF: -2.866e-04   |Residual|: 4.382e-03   |deigs|: 1.033e-02  t[s]:     63.31
	FillingsUpdate:  mu: -0.106017678  nElectrons: 3.000000  magneticMoment: [ Abs: 0.68802  Tot: +0.64000 ]
SCF: Cycle: 17   F: -7.050072660845973   dF: -2.049e-04   |Residual|: 2.942e-03   |deigs|: 1.011e-02  t[s]:     66.48
	FillingsUpdate:  mu: -0.104587906  nElectrons: 3.000000  magneticMoment: [ Abs: 0.67655  Tot: +0.64000 ]
SCF: Cycle: 18   F: -7.050138253183113   dF: -6.559e-05   |Residual|: 2.052e-03   |deigs|: 1.946e-03  t[s]:     69.61
	FillingsUpdate:  mu: -0.104404846  nElectrons: 3.000000  magneticMoment: [ Abs: 0.66519  Tot: +0.64000 ]
SCF: Cycle: 19   F: -7.050177465686643   dF: -3.921e-05   |Residual|: 1.226e-03   |deigs|: 6.768e-04  t[s]:     72.79
	FillingsUpdate:  mu: -0.103971535  nElectrons: 3.000000  magneticMoment: [ Abs: 0.65949  Tot: +0.64000 ]
SCF: Cycle: 20   F: -7.050190547541891   dF: -1.308e-05   |Residual|: 7.830e-04   |deigs|: 3.922e-04  t[s]:     75.99
	FillingsUpdate:  mu: -0.103924588  nElectrons: 3.000000  magneticMoment: [ Abs: 0.65515  Tot: +0.64000 ]
SCF: Cycle: 21   F: -7.050197092469314   dF: -6.545e-06   |Residual|: 4.701e-04   |deigs|: 2.638e-04  t[s]:     79.25
	FillingsUpdate:  mu: -0.104041872  nElectrons: 3.000000  magneticMoment: [ Abs: 0.65168  Tot: +0.64000 ]
SCF: Cycle: 22   F: -7.050198857649897   dF: -1.765e-06   |Residual|: 3.618e-04   |deigs|: 1.519e-04  t[s]:     82.47
	FillingsUpdate:  mu: -0.104079395  nElectrons: 3.000000  magneticMoment: [ Abs: 0.64791  Tot: +0.64000 ]
SCF: Cycle: 23   F: -7.050199510739030   dF: -6.531e-07   |Residual|: 2.712e-04   |deigs|: 1.793e-04  t[s]:     85.68
	FillingsUpdate:  mu: -0.104346115  nElectrons: 3.000000  magneticMoment: [ Abs: 0.64463  Tot: +0.64000 ]
SCF: Cycle: 24   F: -7.050200023790672   dF: -5.131e-07   |Residual|: 2.246e-04   |deigs|: 3.212e-04  t[s]:     88.88
	FillingsUpdate:  mu: -0.104425138  nElectrons: 3.000000  magneticMoment: [ Abs: 0.64238  Tot: +0.64000 ]
SCF: Cycle: 25   F: -7.050199929442918   dF: +9.435e-08   |Residual|: 1.762e-04   |deigs|: 1.759e-04  t[s]:     92.05
	FillingsUpdate:  mu: -0.104608741  nElectrons: 3.000000  magneticMoment: [ Abs: 0.64057  Tot: +0.64000 ]
SCF: Cycle: 26   F: -7.050200328325230   dF: -3.989e-07   |Residual|: 1.120e-04   |deigs|: 2.295e-04  t[s]:     95.27
	FillingsUpdate:  mu: -0.104665238  nElectrons: 3.000000  magneticMoment: [ Abs: 0.64017  Tot: +0.64000 ]
SCF: Cycle: 27   F: -7.050200755663655   dF: -4.273e-07   |Residual|: 6.741e-05   |deigs|: 1.164e-04  t[s]:     98.51
	FillingsUpdate:  mu: -0.104690082  nElectrons: 3.000000  magneticMoment: [ Abs: 0.64004  Tot: +0.64000 ]
SCF: Cycle: 28   F: -7.050200860417034   dF: -1.048e-07   |Residual|: 5.027e-05   |deigs|: 8.796e-05  t[s]:    101.72
	FillingsUpdate:  mu: -0.104683435  nElectrons: 3.000000  magneticMoment: [ Abs: 0.64000  Tot: +0.64000 ]
SCF: Cycle: 29   F: -7.050200899511773   dF: -3.909e-08   |Residual|: 3.641e-05   |deigs|: 5.861e-05  t[s]:    104.90
	FillingsUpdate:  mu: -0.104674491  nElectrons: 3.000000  magneticMoment: [ Abs: 0.64000  Tot: +0.64000 ]
SCF: Cycle: 30   F: -7.050200921315856   dF: -2.180e-08   |Residual|: 3.008e-05   |deigs|: 4.013e-05  t[s]:    108.09
	FillingsUpdate:  mu: -0.104651869  nElectrons: 3.000000  magneticMoment: [ Abs: 0.64000  Tot: +0.64000 ]
SCF: Cycle: 31   F: -7.050200906888668   dF: +1.443e-08   |Residual|: 2.390e-05   |deigs|: 3.832e-05  t[s]:    111.22
	FillingsUpdate:  mu: -0.104636959  nElectrons: 3.000000  magneticMoment: [ Abs: 0.64000  Tot: +0.64000 ]
SCF: Cycle: 32   F: -7.050200927768983   dF: -2.088e-08   |Residual|: 2.050e-05   |deigs|: 2.624e-05  t[s]:    114.41
	FillingsUpdate:  mu: -0.104632338  nElectrons: 3.000000  magneticMoment: [ Abs: 0.64000  Tot: +0.64000 ]
SCF: Cycle: 33   F: -7.050200926362844   dF: +1.406e-09   |Residual|: 1.443e-05   |deigs|: 1.592e-05  t[s]:    117.60
	FillingsUpdate:  mu: -0.104624291  nElectrons: 3.000000  magneticMoment: [ Abs: 0.64001  Tot: +0.64000 ]
SCF: Cycle: 34   F: -7.050200968177307   dF: -4.181e-08   |Residual|: 9.420e-06   |deigs|: 1.218e-05  t[s]:    120.80
	FillingsUpdate:  mu: -0.104619344  nElectrons: 3.000000  magneticMoment: [ Abs: 0.64000  Tot: +0.64000 ]
SCF: Cycle: 35   F: -7.050200969983853   dF: -1.807e-09   |Residual|: 7.167e-06   |deigs|: 8.412e-06  t[s]:    123.98
	FillingsUpdate:  mu: -0.104614945  nElectrons: 3.000000  magneticMoment: [ Abs: 0.64001  Tot: +0.64000 ]
SCF: Cycle: 36   F: -7.050200973257378   dF: -3.274e-09   |Residual|: 4.591e-06   |deigs|: 6.521e-06  t[s]:    127.20
SCF: Converged (|Delta E|<1.000000e-08 for 2 iters).


# Ionic positions in lattice coordinates:
ion Li   0.000000000000000   0.000000000000000   0.000000000000000 0

# Forces in Lattice coordinates:
force Li   0.000000000000000  -0.000000000000000   0.000000000000000 0

# Energy components:
   Eewald =       -1.3368908222468645
       EH =        2.2123165694755320
     Eloc =       -7.5553627727190511
      Enl =       -3.6032332716946076
   Epulay =       -0.0000013080581827
      Exc =       -1.5383925324526018
       KE =        4.7713642608756093
-------------------------------------
     Etot =       -7.0501998768201659
       TS =        0.0000010964372119
-------------------------------------
        F =       -7.0502009732573780

IonicMinimize: Iter:   0  F: -7.050200973257378  |grad|_K:  0.000e+00  t[s]:    127.33
IonicMinimize: Converged (|grad|_K<1.000000e-04).

#--- Lowdin population analysis ---
# oxidation-state Li +2.085
# magnetic-moments Li +0.590

End date and time: Sat Feb  5 23:09:41 2022  (Duration: 0-0:02:07.36)
Done!
scale=4
magnetization=0.64
--------------------------------------------------------------------------
The library attempted to open the following supporting CUDA libraries,
but each of them failed.  CUDA-aware support is disabled.
libcuda.so.1: cannot open shared object file: No such file or directory
libcuda.dylib: cannot open shared object file: No such file or directory
/usr/lib64/libcuda.so.1: cannot open shared object file: No such file or directory
/usr/lib64/libcuda.dylib: cannot open shared object file: No such file or directory
If you are not interested in CUDA-aware support, then run with
--mca opal_warn_on_missing_libcuda 0 to suppress this message.  If you are interested
in CUDA-aware support, then try setting LD_LIBRARY_PATH to the location
of libcuda.so.1 to get passed this issue.
--------------------------------------------------------------------------
--------------------------------------------------------------------------
No OpenFabrics connection schemes reported that they were able to be
used on a specific port.  As such, the openib BTL (OpenFabrics
support) will be disabled for this port.

  Local host:           d-16-8-3
  Local device:         mlx5_1
  Local port:           1
  CPCs attempted:       rdmacm, udcm
--------------------------------------------------------------------------

*************** JDFTx 1.6.0 (git hash 42ebbcc2) ***************

Start date and time: Sat Feb  5 23:09:42 2022
Executable jdftx with command-line: -i Alkali.in
Running on hosts (process indices):  d-16-8-3 (0-18)
Divided in process groups (process indices):  0 (0)  1 (1)  2 (2)  3 (3)  4 (4)  5 (5)  6 (6)  7 (7)  8 (8)  9 (9)  10 (10)  11 (11)  12 (12)  13 (13)  14 (14)  15 (15)  16 (16)  17 (17)  18 (18)
Resource initialization completed at t[s]:      0.00
Run totals: 19 processes, 48 threads, 0 GPUs


Input parsed successfully to the following command list (including defaults):

basis kpoint-dependent
coords-type Lattice
core-overlap-check vector
coulomb-interaction Slab 001
davidson-band-ratio 1.1
dump End None
dump-name $INPUT.$VAR
elec-cutoff 20
elec-eigen-algo Davidson
elec-ex-corr gga-PBE
elec-initial-magnetization 0.640000 yes
elec-smearing Fermi 1e-05
electronic-minimize  \
	dirUpdateScheme      FletcherReeves \
	linminMethod         DirUpdateRecommended \
	nIterations          100 \
	history              15 \
	knormThreshold       0 \
	energyDiffThreshold  1e-08 \
	nEnergyDiff          2 \
	alphaTstart          1 \
	alphaTmin            1e-10 \
	updateTestStepSize   yes \
	alphaTreduceFactor   0.1 \
	alphaTincreaseFactor 3 \
	nAlphaAdjustMax      3 \
	wolfeEnergy          0.0001 \
	wolfeGradient        0.9 \
	fdTest               no
electronic-scf  \
	nIterations	10000 \
	energyDiffThreshold	1e-08 \
	residualThreshold	1e-07 \
	mixFraction	0.5 \
	qMetric	0.8 \
	history	10 \
	nEigSteps	2 \
	eigDiffThreshold	1e-08 \
	mixedVariable	Density \
	qKerker	0.8 \
	qKappa	-1 \
	verbose	no \
	mixFractionMag	1.5
exchange-regularization WignerSeitzTruncated
fluid None
fluid-ex-corr (null) lda-PZ
fluid-gummel-loop 10 1.000000e-05
fluid-minimize  \
	dirUpdateScheme      PolakRibiere \
	linminMethod         DirUpdateRecommended \
	nIterations          100 \
	history              15 \
	knormThreshold       0 \
	energyDiffThreshold  0 \
	nEnergyDiff          2 \
	alphaTstart          1 \
	alphaTmin            1e-10 \
	updateTestStepSize   yes \
	alphaTreduceFactor   0.1 \
	alphaTincreaseFactor 3 \
	nAlphaAdjustMax      3 \
	wolfeEnergy          0.0001 \
	wolfeGradient        0.9 \
	fdTest               no
fluid-solvent H2O 55.338 ScalarEOS \
	epsBulk 78.4 \
	pMol 0.92466 \
	epsInf 1.77 \
	Pvap 1.06736e-10 \
	sigmaBulk 4.62e-05 \
	Rvdw 2.61727 \
	Res 1.42 \
	tauNuc 343133 \
	poleEl 15 7 1
forces-output-coords Positions
ion Li   0.000000000000000   0.000000000000000   0.000000000000000 0
ion-species SG15/$ID_ONCV_PBE.upf
ion-width 0
ionic-minimize  \
	dirUpdateScheme      L-BFGS \
	linminMethod         DirUpdateRecommended \
	nIterations          0 \
	history              15 \
	knormThreshold       0.0001 \
	energyDiffThreshold  1e-06 \
	nEnergyDiff          2 \
	alphaTstart          1 \
	alphaTmin            1e-10 \
	updateTestStepSize   yes \
	alphaTreduceFactor   0.1 \
	alphaTincreaseFactor 3 \
	nAlphaAdjustMax      3 \
	wolfeEnergy          0.0001 \
	wolfeGradient        0.9 \
	fdTest               no
kpoint   0.000000000000   0.000000000000   0.000000000000  1.00000000000000
kpoint-folding 12 12 1 
latt-move-scale 1 1 1
latt-scale 4 4 1 
lattice  \
	   4.727486978767153   -2.363743489383575    0.000000000000000  \
	  -0.000000000000000    4.094123819672498    0.000000000000000  \
	   0.000000000000000    0.000000000000000   40.000000000000000 
lattice-minimize  \
	dirUpdateScheme      L-BFGS \
	linminMethod         DirUpdateRecommended \
	nIterations          0 \
	history              15 \
	knormThreshold       0 \
	energyDiffThreshold  1e-06 \
	nEnergyDiff          2 \
	alphaTstart          1 \
	alphaTmin            1e-10 \
	updateTestStepSize   yes \
	alphaTreduceFactor   0.1 \
	alphaTincreaseFactor 3 \
	nAlphaAdjustMax      3 \
	wolfeEnergy          0.0001 \
	wolfeGradient        0.9 \
	fdTest               no
lcao-params -1 1e-06 1e-05
pcm-variant GLSSA13
spintype z-spin
subspace-rotation-factor 1 yes
symmetries automatic
symmetry-threshold 0.0001



---------- Setting up symmetries ----------

Found 24 point-group symmetries of the bravais lattice
Found 24 space-group symmetries with basis
Applied RMS atom displacement 0 bohrs to make symmetries exact.

---------- Initializing the Grid ----------
R = 
[      18.9099     -9.45497            0  ]
[            0      16.3765            0  ]
[            0            0           40  ]
unit cell volume = 12387.1
G =
[   0.332269   0.191835         -0  ]
[          0   0.383671         -0  ]
[         -0         -0    0.15708  ]
Minimum fftbox size, Smin = [  80  80  164  ]
Chosen fftbox size, S = [  80  80  168  ]

---------- Exchange Correlation functional ----------
Initalized PBE GGA exchange.
Initalized PBE GGA correlation.

---------- Setting up pseudopotentials ----------
Width of ionic core gaussian charges (only for fluid interactions / plotting) set to 0

Reading pseudopotential file '/home/gridsan/aligho/DFT/build-Nov24/pseudopotentials/SG15/Li_ONCV_PBE.upf':
  'Li' pseudopotential, 'PBE' functional
  Generated using ONCVPSP code by D. R. Hamann
  Author: Martin Schlipf and Francois Gygi  Date: 150915.
  3 valence electrons, 2 orbitals, 4 projectors, 1328 radial grid points, with lMax = 1
  Transforming local potential to a uniform radial grid of dG=0.02 with 1489 points.
  Transforming nonlocal projectors to a uniform radial grid of dG=0.02 with 432 points.
    1S    l: 0   occupation:  2.0   eigenvalue: -1.905623
    2S    l: 0   occupation:  1.0   eigenvalue: -0.105624
  Transforming atomic orbitals to a uniform radial grid of dG=0.02 with 432 points.
  WARNING: large normalization error in atomic orbital 1s (integral: 0.000000).
  Core radius for overlap checks: 1.63 bohrs.
  Reading pulay file /home/gridsan/aligho/DFT/build-Nov24/pseudopotentials/SG15/Li_ONCV_PBE.pulay ... using dE_dnG = -1.230239e-02 computed for Ecut = 20.

Initialized 1 species with 1 total atoms.

Folded 1 k-points by 12x12x1 to 144 k-points.

---------- Setting up k-points, bands, fillings ----------
Reduced to 19 k-points under symmetry. 
Computing the number of bands and number of electrons
Calculating initial fillings.
nElectrons:   3.000000   nBands: 3   nStates: 38

----- Setting up reduced wavefunction bases (one per k-point) -----
average nbasis = 52924.021 , ideal nbasis = 52918.836

---------- Setting up coulomb interaction ----------
Initialized slab truncation along lattice direction 001

---------- Setting up 2D ewald sum ----------
Optimum gaussian width for ewald sums = 10.498040 bohr.
Real space sums over 289 unit cells with max indices [  8  8  0  ]
Reciprocal space sums over 81 terms with max indices [  4  4  0  ]

---------- Allocating electronic variables ----------
Initializing wave functions:  linear combination of atomic orbitals
Note: number of bands (3) exceeds available atomic orbitals (2)
Li pseudo-atom occupations:   s ( 2 1 )
[d-16-8-3:28333] 18 more processes have sent help message help-mpi-common-cuda.txt / dlopen failed
[d-16-8-3:28333] Set MCA parameter "orte_base_help_aggregate" to 0 to see all help / error messages
[d-16-8-3:28333] 18 more processes have sent help message help-mpi-btl-openib-cpc-base.txt / no cpcs for port
	FillingsUpdate:  mu: +0.359555078  nElectrons: 3.000000  magneticMoment: [ Abs: 0.64000  Tot: +0.64000 ]
LCAOMinimize: Iter:   0  F: -1.3080304173302215  |grad|_K:  3.956e-05  alpha:  1.000e+00
	FillingsUpdate:  mu: +0.359554569  nElectrons: 3.000000  magneticMoment: [ Abs: 0.64000  Tot: +0.64000 ]
LCAOMinimize: Iter:   1  F: -1.3080307006317697  |grad|_K:  1.560e-07  alpha:  1.059e+00  linmin: -5.958e-03  cgtest:  1.758e-02  t[s]:     12.57
LCAOMinimize: Encountered beta<0, resetting CG.
	FillingsUpdate:  mu: +0.359554569  nElectrons: 3.000000  magneticMoment: [ Abs: 0.64000  Tot: +0.64000 ]
LCAOMinimize: Iter:   2  F: -1.3080307006378626  |grad|_K:  1.015e-08  alpha:  1.091e+00  linmin:  1.756e-02  cgtest: -6.678e-01  t[s]:     15.77
LCAOMinimize: Converged (|Delta F|<1.000000e-06 for 2 iters).


---- Citations for features of the code used in this run ----

   Software package:
      R. Sundararaman, K. Letchworth-Weaver, K.A. Schwarz, D. Gunceler, Y. Ozhabes and T.A. Arias, 'JDFTx: software for joint density-functional theory', SoftwareX 6, 278 (2017)

   gga-PBE exchange-correlation functional:
      J.P. Perdew, K. Burke and M. Ernzerhof, Phys. Rev. Lett. 77, 3865 (1996)

   Pseudopotentials:
      M Schlipf and F Gygi, Comput. Phys. Commun. 196, 36 (2015)

   Truncated Coulomb potentials:
      R. Sundararaman and T.A. Arias, Phys. Rev. B 87, 165122 (2013)

This list may not be complete. Please suggest additional citations or
report any other bugs at https://github.com/shankar1729/jdftx/issues

Initialization completed successfully at t[s]:     15.90


-------- Electronic minimization -----------
Will mix electronic density at each iteration.
	FillingsUpdate:  mu: +0.359554569  nElectrons: 3.000000  magneticMoment: [ Abs: 0.64000  Tot: +0.64000 ]
	FillingsUpdate:  mu: -0.610631607  nElectrons: 3.000000  magneticMoment: [ Abs: 0.64000  Tot: +0.64000 ]
SCF: Cycle:  0   F: -6.878686156479667   dF: -5.571e+00   |Residual|: 1.230e+00   |deigs|: 4.155e+00  t[s]:     21.46
	FillingsUpdate:  mu: -0.484748047  nElectrons: 3.000000  magneticMoment: [ Abs: 1.09774  Tot: +0.64000 ]
SCF: Cycle:  1   F: -6.916714877281607   dF: -3.803e-02   |Residual|: 7.627e-01   |deigs|: 2.766e-01  t[s]:     25.96
	FillingsUpdate:  mu: -0.278727156  nElectrons: 3.000000  magneticMoment: [ Abs: 1.41744  Tot: +0.64000 ]
SCF: Cycle:  2   F: -7.037232754566131   dF: -1.205e-01   |Residual|: 3.202e-01   |deigs|: 7.027e-01  t[s]:     30.57
	FillingsUpdate:  mu: -0.285504380  nElectrons: 3.000000  magneticMoment: [ Abs: 1.26648  Tot: +0.64000 ]
SCF: Cycle:  3   F: -7.037480178041157   dF: -2.474e-04   |Residual|: 1.732e-01   |deigs|: 7.927e-02  t[s]:     35.23
	FillingsUpdate:  mu: -0.235369315  nElectrons: 3.000000  magneticMoment: [ Abs: 1.09922  Tot: +0.64000 ]
SCF: Cycle:  4   F: -7.040941067570757   dF: -3.461e-03   |Residual|: 4.573e-02   |deigs|: 4.363e-02  t[s]:     40.02
	FillingsUpdate:  mu: -0.221571391  nElectrons: 3.000000  magneticMoment: [ Abs: 1.08667  Tot: +0.64000 ]
SCF: Cycle:  5   F: -7.042122842947748   dF: -1.182e-03   |Residual|: 7.981e-02   |deigs|: 1.445e-02  t[s]:     44.92
	FillingsUpdate:  mu: -0.200261043  nElectrons: 3.000000  magneticMoment: [ Abs: 0.92356  Tot: +0.64000 ]
SCF: Cycle:  6   F: -7.044221259416223   dF: -2.098e-03   |Residual|: 2.577e-02   |deigs|: 4.895e-02  t[s]:     49.94
	FillingsUpdate:  mu: -0.183733569  nElectrons: 3.000000  magneticMoment: [ Abs: 0.82570  Tot: +0.64000 ]
SCF: Cycle:  7   F: -7.046185518887522   dF: -1.964e-03   |Residual|: 5.056e-02   |deigs|: 4.339e-02  t[s]:     55.08
	FillingsUpdate:  mu: -0.183678431  nElectrons: 3.000000  magneticMoment: [ Abs: 0.77439  Tot: +0.64000 ]
SCF: Cycle:  8   F: -7.046725636039736   dF: -5.401e-04   |Residual|: 3.730e-02   |deigs|: 4.443e-03  t[s]:     60.28
	FillingsUpdate:  mu: -0.180933355  nElectrons: 3.000000  magneticMoment: [ Abs: 0.73533  Tot: +0.64000 ]
SCF: Cycle:  9   F: -7.047523843407682   dF: -7.982e-04   |Residual|: 2.807e-02   |deigs|: 2.318e-02  t[s]:     65.63
	FillingsUpdate:  mu: -0.167787576  nElectrons: 3.000000  magneticMoment: [ Abs: 0.67567  Tot: +0.64000 ]
SCF: Cycle: 10   F: -7.047954790514556   dF: -4.309e-04   |Residual|: 2.603e-02   |deigs|: 1.292e-02  t[s]:     70.99
	FillingsUpdate:  mu: -0.157656104  nElectrons: 3.000000  magneticMoment: [ Abs: 0.71159  Tot: +0.64000 ]
SCF: Cycle: 11   F: -7.048035331015894   dF: -8.054e-05   |Residual|: 1.156e-02   |deigs|: 1.563e-02  t[s]:     76.43
	FillingsUpdate:  mu: -0.148924919  nElectrons: 3.000000  magneticMoment: [ Abs: 0.74635  Tot: +0.64000 ]
SCF: Cycle: 12   F: -7.048204112271208   dF: -1.688e-04   |Residual|: 1.271e-02   |deigs|: 7.771e-03  t[s]:     81.87
	FillingsUpdate:  mu: -0.128098257  nElectrons: 3.000000  magneticMoment: [ Abs: 0.79458  Tot: +0.64000 ]
SCF: Cycle: 13   F: -7.048320177792080   dF: -1.161e-04   |Residual|: 6.459e-03   |deigs|: 2.530e-02  t[s]:     87.24
	FillingsUpdate:  mu: -0.121383332  nElectrons: 3.000000  magneticMoment: [ Abs: 0.79445  Tot: +0.64000 ]
SCF: Cycle: 14   F: -7.048293729014963   dF: +2.645e-05   |Residual|: 5.685e-03   |deigs|: 6.938e-03  t[s]:     92.70
	FillingsUpdate:  mu: -0.114999964  nElectrons: 3.000000  magneticMoment: [ Abs: 0.77124  Tot: +0.64000 ]
SCF: Cycle: 15   F: -7.048345043700577   dF: -5.131e-05   |Residual|: 4.131e-03   |deigs|: 6.223e-03  t[s]:     98.04
	FillingsUpdate:  mu: -0.110575258  nElectrons: 3.000000  magneticMoment: [ Abs: 0.75072  Tot: +0.64000 ]
SCF: Cycle: 16   F: -7.048345870425188   dF: -8.267e-07   |Residual|: 3.231e-03   |deigs|: 4.319e-03  t[s]:    103.39
	FillingsUpdate:  mu: -0.106999765  nElectrons: 3.000000  magneticMoment: [ Abs: 0.72237  Tot: +0.64000 ]
SCF: Cycle: 17   F: -7.048325406166783   dF: +2.046e-05   |Residual|: 2.771e-03   |deigs|: 3.683e-03  t[s]:    108.82
	FillingsUpdate:  mu: -0.104180505  nElectrons: 3.000000  magneticMoment: [ Abs: 0.70393  Tot: +0.64000 ]
SCF: Cycle: 18   F: -7.048373533285954   dF: -4.813e-05   |Residual|: 2.011e-03   |deigs|: 3.339e-03  t[s]:    114.22
	FillingsUpdate:  mu: -0.103010338  nElectrons: 3.000000  magneticMoment: [ Abs: 0.68361  Tot: +0.64000 ]
SCF: Cycle: 19   F: -7.048424823076045   dF: -5.129e-05   |Residual|: 1.469e-03   |deigs|: 1.610e-03  t[s]:    119.60
	FillingsUpdate:  mu: -0.102071419  nElectrons: 3.000000  magneticMoment: [ Abs: 0.67448  Tot: +0.64000 ]
SCF: Cycle: 20   F: -7.048446920592716   dF: -2.210e-05   |Residual|: 1.093e-03   |deigs|: 1.021e-03  t[s]:    124.96
	FillingsUpdate:  mu: -0.101485991  nElectrons: 3.000000  magneticMoment: [ Abs: 0.66361  Tot: +0.64000 ]
SCF: Cycle: 21   F: -7.048465286025701   dF: -1.837e-05   |Residual|: 7.706e-04   |deigs|: 8.038e-04  t[s]:    130.40
	FillingsUpdate:  mu: -0.101942993  nElectrons: 3.000000  magneticMoment: [ Abs: 0.65540  Tot: +0.64000 ]
SCF: Cycle: 22   F: -7.048470215263401   dF: -4.929e-06   |Residual|: 5.810e-04   |deigs|: 5.284e-04  t[s]:    135.86
	FillingsUpdate:  mu: -0.102106331  nElectrons: 3.000000  magneticMoment: [ Abs: 0.64726  Tot: +0.64000 ]
SCF: Cycle: 23   F: -7.048478283744255   dF: -8.068e-06   |Residual|: 3.748e-04   |deigs|: 4.372e-04  t[s]:    141.27
	FillingsUpdate:  mu: -0.102443072  nElectrons: 3.000000  magneticMoment: [ Abs: 0.64344  Tot: +0.64000 ]
SCF: Cycle: 24   F: -7.048482349908731   dF: -4.066e-06   |Residual|: 2.452e-04   |deigs|: 4.793e-04  t[s]:    146.74
	FillingsUpdate:  mu: -0.102422667  nElectrons: 3.000000  magneticMoment: [ Abs: 0.64229  Tot: +0.64000 ]
SCF: Cycle: 25   F: -7.048483366463409   dF: -1.017e-06   |Residual|: 1.397e-04   |deigs|: 1.621e-04  t[s]:    152.14
	FillingsUpdate:  mu: -0.102412912  nElectrons: 3.000000  magneticMoment: [ Abs: 0.64153  Tot: +0.64000 ]
SCF: Cycle: 26   F: -7.048483541709934   dF: -1.752e-07   |Residual|: 7.968e-05   |deigs|: 1.037e-04  t[s]:    157.62
	FillingsUpdate:  mu: -0.102413525  nElectrons: 3.000000  magneticMoment: [ Abs: 0.64103  Tot: +0.64000 ]
SCF: Cycle: 27   F: -7.048483605323424   dF: -6.361e-08   |Residual|: 6.007e-05   |deigs|: 7.230e-05  t[s]:    163.02
	FillingsUpdate:  mu: -0.102439464  nElectrons: 3.000000  magneticMoment: [ Abs: 0.64072  Tot: +0.64000 ]
SCF: Cycle: 28   F: -7.048483603229928   dF: +2.093e-09   |Residual|: 4.540e-05   |deigs|: 7.031e-05  t[s]:    168.43
	FillingsUpdate:  mu: -0.102451880  nElectrons: 3.000000  magneticMoment: [ Abs: 0.64055  Tot: +0.64000 ]
SCF: Cycle: 29   F: -7.048483627301036   dF: -2.407e-08   |Residual|: 3.678e-05   |deigs|: 4.428e-05  t[s]:    173.88
	FillingsUpdate:  mu: -0.102465116  nElectrons: 3.000000  magneticMoment: [ Abs: 0.64048  Tot: +0.64000 ]
SCF: Cycle: 30   F: -7.048483672670062   dF: -4.537e-08   |Residual|: 2.878e-05   |deigs|: 3.439e-05  t[s]:    179.29
	FillingsUpdate:  mu: -0.102460677  nElectrons: 3.000000  magneticMoment: [ Abs: 0.64034  Tot: +0.64000 ]
SCF: Cycle: 31   F: -7.048483686350374   dF: -1.368e-08   |Residual|: 1.994e-05   |deigs|: 3.012e-05  t[s]:    184.72
	FillingsUpdate:  mu: -0.102451323  nElectrons: 3.000000  magneticMoment: [ Abs: 0.64017  Tot: +0.64000 ]
SCF: Cycle: 32   F: -7.048483686591554   dF: -2.412e-10   |Residual|: 1.405e-05   |deigs|: 2.957e-05  t[s]:    190.09
	FillingsUpdate:  mu: -0.102444387  nElectrons: 3.000000  magneticMoment: [ Abs: 0.64005  Tot: +0.64000 ]
SCF: Cycle: 33   F: -7.048483668731695   dF: +1.786e-08   |Residual|: 9.774e-06   |deigs|: 2.567e-05  t[s]:    195.58
	FillingsUpdate:  mu: -0.102440389  nElectrons: 3.000000  magneticMoment: [ Abs: 0.64002  Tot: +0.64000 ]
SCF: Cycle: 34   F: -7.048483687590493   dF: -1.886e-08   |Residual|: 7.471e-06   |deigs|: 2.327e-05  t[s]:    201.03
	FillingsUpdate:  mu: -0.102439088  nElectrons: 3.000000  magneticMoment: [ Abs: 0.64001  Tot: +0.64000 ]
SCF: Cycle: 35   F: -7.048483713370517   dF: -2.578e-08   |Residual|: 6.004e-06   |deigs|: 2.220e-05  t[s]:    206.43
	FillingsUpdate:  mu: -0.102438656  nElectrons: 3.000000  magneticMoment: [ Abs: 0.64001  Tot: +0.64000 ]
SCF: Cycle: 36   F: -7.048483718879779   dF: -5.509e-09   |Residual|: 4.525e-06   |deigs|: 2.104e-05  t[s]:    211.85
	FillingsUpdate:  mu: -0.102437872  nElectrons: 3.000000  magneticMoment: [ Abs: 0.64000  Tot: +0.64000 ]
SCF: Cycle: 37   F: -7.048483719936004   dF: -1.056e-09   |Residual|: 3.529e-06   |deigs|: 2.027e-05  t[s]:    217.32
SCF: Converged (|Delta E|<1.000000e-08 for 2 iters).


# Ionic positions in lattice coordinates:
ion Li   0.000000000000000   0.000000000000000   0.000000000000000 0

# Forces in Lattice coordinates:
force Li   0.000000000000000   0.000000000000000   0.000000000000000 0

# Energy components:
   Eewald =       -1.0026681166851483
       EH =        2.5552963886343658
     Eloc =       -8.2352689428776582
      Enl =       -3.6046987212602493
   Epulay =        0.0000051497655618
      Exc =       -1.5403884370040424
       KE =        4.7792406206277969
-------------------------------------
     Etot =       -7.0484820587993733
       TS =        0.0000016611366311
-------------------------------------
        F =       -7.0484837199360042

IonicMinimize: Iter:   0  F: -7.048483719936004  |grad|_K:  0.000e+00  t[s]:    217.56
IonicMinimize: Converged (|grad|_K<1.000000e-04).

#--- Lowdin population analysis ---
# oxidation-state Li +2.072
# magnetic-moments Li +0.593

End date and time: Sat Feb  5 23:13:19 2022  (Duration: 0-0:03:37.59)
Done!
