The alkali metal is Li
scale=2
magnetization=0.52
--------------------------------------------------------------------------
The library attempted to open the following supporting CUDA libraries,
but each of them failed.  CUDA-aware support is disabled.
libcuda.so.1: cannot open shared object file: No such file or directory
libcuda.dylib: cannot open shared object file: No such file or directory
/usr/lib64/libcuda.so.1: cannot open shared object file: No such file or directory
/usr/lib64/libcuda.dylib: cannot open shared object file: No such file or directory
If you are not interested in CUDA-aware support, then run with
--mca opal_warn_on_missing_libcuda 0 to suppress this message.  If you are interested
in CUDA-aware support, then try setting LD_LIBRARY_PATH to the location
of libcuda.so.1 to get passed this issue.
--------------------------------------------------------------------------
--------------------------------------------------------------------------
No OpenFabrics connection schemes reported that they were able to be
used on a specific port.  As such, the openib BTL (OpenFabrics
support) will be disabled for this port.

  Local host:           d-3-10-4
  Local device:         mlx5_1
  Local port:           1
  CPCs attempted:       rdmacm, udcm
--------------------------------------------------------------------------

*************** JDFTx 1.6.0 (git hash 42ebbcc2) ***************

Start date and time: Sat Feb  5 23:06:42 2022
Executable jdftx with command-line: -i Alkali.in
Running on hosts (process indices):  d-3-10-4 (0-18)
Divided in process groups (process indices):  0 (0)  1 (1)  2 (2)  3 (3)  4 (4)  5 (5)  6 (6)  7 (7)  8 (8)  9 (9)  10 (10)  11 (11)  12 (12)  13 (13)  14 (14)  15 (15)  16 (16)  17 (17)  18 (18)
Resource initialization completed at t[s]:      0.00
Run totals: 19 processes, 48 threads, 0 GPUs


Input parsed successfully to the following command list (including defaults):

basis kpoint-dependent
coords-type Lattice
core-overlap-check vector
coulomb-interaction Slab 001
davidson-band-ratio 1.1
dump End None
dump-name $INPUT.$VAR
elec-cutoff 20
elec-eigen-algo Davidson
elec-ex-corr gga-PBE
elec-initial-magnetization 0.520000 yes
elec-smearing Fermi 1e-05
electronic-minimize  \
	dirUpdateScheme      FletcherReeves \
	linminMethod         DirUpdateRecommended \
	nIterations          100 \
	history              15 \
	knormThreshold       0 \
	energyDiffThreshold  1e-08 \
	nEnergyDiff          2 \
	alphaTstart          1 \
	alphaTmin            1e-10 \
	updateTestStepSize   yes \
	alphaTreduceFactor   0.1 \
	alphaTincreaseFactor 3 \
	nAlphaAdjustMax      3 \
	wolfeEnergy          0.0001 \
	wolfeGradient        0.9 \
	fdTest               no
electronic-scf  \
	nIterations	10000 \
	energyDiffThreshold	1e-08 \
	residualThreshold	1e-07 \
	mixFraction	0.5 \
	qMetric	0.8 \
	history	10 \
	nEigSteps	2 \
	eigDiffThreshold	1e-08 \
	mixedVariable	Density \
	qKerker	0.8 \
	qKappa	-1 \
	verbose	no \
	mixFractionMag	1.5
exchange-regularization WignerSeitzTruncated
fluid None
fluid-ex-corr (null) lda-PZ
fluid-gummel-loop 10 1.000000e-05
fluid-minimize  \
	dirUpdateScheme      PolakRibiere \
	linminMethod         DirUpdateRecommended \
	nIterations          100 \
	history              15 \
	knormThreshold       0 \
	energyDiffThreshold  0 \
	nEnergyDiff          2 \
	alphaTstart          1 \
	alphaTmin            1e-10 \
	updateTestStepSize   yes \
	alphaTreduceFactor   0.1 \
	alphaTincreaseFactor 3 \
	nAlphaAdjustMax      3 \
	wolfeEnergy          0.0001 \
	wolfeGradient        0.9 \
	fdTest               no
fluid-solvent H2O 55.338 ScalarEOS \
	epsBulk 78.4 \
	pMol 0.92466 \
	epsInf 1.77 \
	Pvap 1.06736e-10 \
	sigmaBulk 4.62e-05 \
	Rvdw 2.61727 \
	Res 1.42 \
	tauNuc 343133 \
	poleEl 15 7 1
forces-output-coords Positions
ion Li   0.000000000000000   0.000000000000000   0.000000000000000 0
ion-species SG15/$ID_ONCV_PBE.upf
ion-width 0
ionic-minimize  \
	dirUpdateScheme      L-BFGS \
	linminMethod         DirUpdateRecommended \
	nIterations          0 \
	history              15 \
	knormThreshold       0.0001 \
	energyDiffThreshold  1e-06 \
	nEnergyDiff          2 \
	alphaTstart          1 \
	alphaTmin            1e-10 \
	updateTestStepSize   yes \
	alphaTreduceFactor   0.1 \
	alphaTincreaseFactor 3 \
	nAlphaAdjustMax      3 \
	wolfeEnergy          0.0001 \
	wolfeGradient        0.9 \
	fdTest               no
kpoint   0.000000000000   0.000000000000   0.000000000000  1.00000000000000
kpoint-folding 12 12 1 
latt-move-scale 1 1 1
latt-scale 2 2 1 
lattice  \
	   4.727486978767153   -2.363743489383575    0.000000000000000  \
	  -0.000000000000000    4.094123819672498    0.000000000000000  \
	   0.000000000000000    0.000000000000000   40.000000000000000 
lattice-minimize  \
	dirUpdateScheme      L-BFGS \
	linminMethod         DirUpdateRecommended \
	nIterations          0 \
	history              15 \
	knormThreshold       0 \
	energyDiffThreshold  1e-06 \
	nEnergyDiff          2 \
	alphaTstart          1 \
	alphaTmin            1e-10 \
	updateTestStepSize   yes \
	alphaTreduceFactor   0.1 \
	alphaTincreaseFactor 3 \
	nAlphaAdjustMax      3 \
	wolfeEnergy          0.0001 \
	wolfeGradient        0.9 \
	fdTest               no
lcao-params -1 1e-06 1e-05
pcm-variant GLSSA13
spintype z-spin
subspace-rotation-factor 1 yes
symmetries automatic
symmetry-threshold 0.0001



---------- Setting up symmetries ----------

Found 24 point-group symmetries of the bravais lattice
Found 24 space-group symmetries with basis
Applied RMS atom displacement 0 bohrs to make symmetries exact.

---------- Initializing the Grid ----------
R = 
[      9.45497     -4.72749            0  ]
[            0      8.18825            0  ]
[            0            0           40  ]
unit cell volume = 3096.79
G =
[   0.664538   0.383671         -0  ]
[          0   0.767342         -0  ]
[         -0         -0    0.15708  ]
Minimum fftbox size, Smin = [  40  40  164  ]
Chosen fftbox size, S = [  40  40  168  ]

---------- Exchange Correlation functional ----------
Initalized PBE GGA exchange.
Initalized PBE GGA correlation.

---------- Setting up pseudopotentials ----------
Width of ionic core gaussian charges (only for fluid interactions / plotting) set to 0

Reading pseudopotential file '/home/gridsan/aligho/DFT/build-Nov24/pseudopotentials/SG15/Li_ONCV_PBE.upf':
  'Li' pseudopotential, 'PBE' functional
  Generated using ONCVPSP code by D. R. Hamann
  Author: Martin Schlipf and Francois Gygi  Date: 150915.
  3 valence electrons, 2 orbitals, 4 projectors, 1328 radial grid points, with lMax = 1
  Transforming local potential to a uniform radial grid of dG=0.02 with 1489 points.
  Transforming nonlocal projectors to a uniform radial grid of dG=0.02 with 432 points.
    1S    l: 0   occupation:  2.0   eigenvalue: -1.905623
    2S    l: 0   occupation:  1.0   eigenvalue: -0.105624
  Transforming atomic orbitals to a uniform radial grid of dG=0.02 with 432 points.
  WARNING: large normalization error in atomic orbital 1s (integral: 0.000000).
  Core radius for overlap checks: 1.63 bohrs.
  Reading pulay file /home/gridsan/aligho/DFT/build-Nov24/pseudopotentials/SG15/Li_ONCV_PBE.pulay ... using dE_dnG = -1.230239e-02 computed for Ecut = 20.

Initialized 1 species with 1 total atoms.

Folded 1 k-points by 12x12x1 to 144 k-points.

---------- Setting up k-points, bands, fillings ----------
Reduced to 19 k-points under symmetry. 
Computing the number of bands and number of electrons
Calculating initial fillings.
nElectrons:   3.000000   nBands: 3   nStates: 38

----- Setting up reduced wavefunction bases (one per k-point) -----
average nbasis = 13230.521 , ideal nbasis = 13229.709

---------- Setting up coulomb interaction ----------
Initialized slab truncation along lattice direction 001

---------- Setting up 2D ewald sum ----------
Optimum gaussian width for ewald sums = 5.249020 bohr.
Real space sums over 289 unit cells with max indices [  8  8  0  ]
Reciprocal space sums over 81 terms with max indices [  4  4  0  ]

---------- Allocating electronic variables ----------
Initializing wave functions:  linear combination of atomic orbitals
Note: number of bands (3) exceeds available atomic orbitals (2)
Li pseudo-atom occupations:   s ( 2 1 )
	FillingsUpdate:  mu: +0.310897584  nElectrons: 3.000000  magneticMoment: [ Abs: 0.52000  Tot: +0.52000 ]
LCAOMinimize: Iter:   0  F: -1.1679911069127056  |grad|_K:  6.498e-05  alpha:  1.000e+00
	FillingsUpdate:  mu: +0.310895734  nElectrons: 3.000000  magneticMoment: [ Abs: 0.52000  Tot: +0.52000 ]
LCAOMinimize: Iter:   1  F: -1.1679918621270113  |grad|_K:  1.519e-06  alpha:  1.046e+00  linmin: -1.812e-03  cgtest:  2.577e-02  t[s]:      3.86
LCAOMinimize: Encountered beta<0, resetting CG.
[d-3-10-4:82485] 18 more processes have sent help message help-mpi-common-cuda.txt / dlopen failed
[d-3-10-4:82485] Set MCA parameter "orte_base_help_aggregate" to 0 to see all help / error messages
[d-3-10-4:82485] 18 more processes have sent help message help-mpi-btl-openib-cpc-base.txt / no cpcs for port
	FillingsUpdate:  mu: +0.310895742  nElectrons: 3.000000  magneticMoment: [ Abs: 0.52000  Tot: +0.52000 ]
LCAOMinimize: Iter:   2  F: -1.1679918625255126  |grad|_K:  4.356e-08  alpha:  1.014e+00  linmin: -1.479e-03  cgtest:  3.993e-02  t[s]:      4.89
LCAOMinimize: Encountered beta<0, resetting CG.
LCAOMinimize: Converged (|Delta F|<1.000000e-06 for 2 iters).


---- Citations for features of the code used in this run ----

   Software package:
      R. Sundararaman, K. Letchworth-Weaver, K.A. Schwarz, D. Gunceler, Y. Ozhabes and T.A. Arias, 'JDFTx: software for joint density-functional theory', SoftwareX 6, 278 (2017)

   gga-PBE exchange-correlation functional:
      J.P. Perdew, K. Burke and M. Ernzerhof, Phys. Rev. Lett. 77, 3865 (1996)

   Pseudopotentials:
      M Schlipf and F Gygi, Comput. Phys. Commun. 196, 36 (2015)

   Truncated Coulomb potentials:
      R. Sundararaman and T.A. Arias, Phys. Rev. B 87, 165122 (2013)

This list may not be complete. Please suggest additional citations or
report any other bugs at https://github.com/shankar1729/jdftx/issues

Initialization completed successfully at t[s]:      4.95


-------- Electronic minimization -----------
Will mix electronic density at each iteration.
	FillingsUpdate:  mu: +0.310895742  nElectrons: 3.000000  magneticMoment: [ Abs: 0.52000  Tot: +0.52000 ]
	FillingsUpdate:  mu: -0.987518395  nElectrons: 3.000000  magneticMoment: [ Abs: 0.52000  Tot: +0.52000 ]
SCF: Cycle:  0   F: -6.829079457432865   dF: -5.661e+00   |Residual|: 1.173e+00   |deigs|: 4.170e+00  t[s]:      6.70
	FillingsUpdate:  mu: -0.868427944  nElectrons: 3.000000  magneticMoment: [ Abs: 0.83446  Tot: +0.52000 ]
SCF: Cycle:  1   F: -6.935582529584619   dF: -1.065e-01   |Residual|: 7.748e-01   |deigs|: 2.360e-01  t[s]:      8.00
	FillingsUpdate:  mu: -0.659043815  nElectrons: 3.000000  magneticMoment: [ Abs: 1.07771  Tot: +0.52000 ]
SCF: Cycle:  2   F: -7.046629319138447   dF: -1.110e-01   |Residual|: 4.187e-01   |deigs|: 7.748e-01  t[s]:      9.36
	FillingsUpdate:  mu: -0.675384170  nElectrons: 3.000000  magneticMoment: [ Abs: 0.90907  Tot: +0.52000 ]
SCF: Cycle:  3   F: -7.054898684639339   dF: -8.269e-03   |Residual|: 2.005e-01   |deigs|: 1.250e-01  t[s]:     10.78
	FillingsUpdate:  mu: -0.624513166  nElectrons: 3.000000  magneticMoment: [ Abs: 0.68561  Tot: +0.52000 ]
SCF: Cycle:  4   F: -7.053795341274022   dF: +1.103e-03   |Residual|: 4.549e-02   |deigs|: 4.049e-02  t[s]:     12.22
	FillingsUpdate:  mu: -0.603025645  nElectrons: 3.000000  magneticMoment: [ Abs: 0.67874  Tot: +0.52000 ]
SCF: Cycle:  5   F: -7.054098661281375   dF: -3.033e-04   |Residual|: 9.735e-02   |deigs|: 1.674e-02  t[s]:     13.64
	FillingsUpdate:  mu: -0.472202533  nElectrons: 3.000000  magneticMoment: [ Abs: 0.74656  Tot: +0.52000 ]
SCF: Cycle:  6   F: -7.058442019756817   dF: -4.343e-03   |Residual|: 1.253e-01   |deigs|: 1.477e-01  t[s]:     15.07
	FillingsUpdate:  mu: -0.439451350  nElectrons: 3.000000  magneticMoment: [ Abs: 0.69607  Tot: +0.52000 ]
SCF: Cycle:  7   F: -7.059946664109898   dF: -1.505e-03   |Residual|: 4.647e-02   |deigs|: 7.253e-02  t[s]:     16.52
	FillingsUpdate:  mu: -0.397160285  nElectrons: 3.000000  magneticMoment: [ Abs: 0.66329  Tot: +0.52000 ]
SCF: Cycle:  8   F: -7.061786960198768   dF: -1.840e-03   |Residual|: 7.518e-02   |deigs|: 4.629e-02  t[s]:     18.06
	FillingsUpdate:  mu: -0.366333165  nElectrons: 3.000000  magneticMoment: [ Abs: 0.62097  Tot: +0.52000 ]
SCF: Cycle:  9   F: -7.063500778924448   dF: -1.714e-03   |Residual|: 2.689e-02   |deigs|: 3.142e-02  t[s]:     19.72
	FillingsUpdate:  mu: -0.333806994  nElectrons: 3.000000  magneticMoment: [ Abs: 0.63329  Tot: +0.52000 ]
SCF: Cycle: 10   F: -7.064125967061913   dF: -6.252e-04   |Residual|: 4.222e-02   |deigs|: 2.656e-02  t[s]:     21.26
	FillingsUpdate:  mu: -0.281129955  nElectrons: 3.000000  magneticMoment: [ Abs: 0.68251  Tot: +0.52000 ]
SCF: Cycle: 11   F: -7.064765737817021   dF: -6.398e-04   |Residual|: 2.140e-02   |deigs|: 5.875e-02  t[s]:     22.79
	FillingsUpdate:  mu: -0.237365041  nElectrons: 3.000000  magneticMoment: [ Abs: 0.68740  Tot: +0.52000 ]
SCF: Cycle: 12   F: -7.065044810670753   dF: -2.791e-04   |Residual|: 1.372e-02   |deigs|: 4.979e-02  t[s]:     24.33
	FillingsUpdate:  mu: -0.192131388  nElectrons: 3.000000  magneticMoment: [ Abs: 0.65937  Tot: +0.52000 ]
SCF: Cycle: 13   F: -7.065417863187960   dF: -3.731e-04   |Residual|: 1.119e-02   |deigs|: 4.445e-02  t[s]:     25.90
	FillingsUpdate:  mu: -0.161035843  nElectrons: 3.000000  magneticMoment: [ Abs: 0.61715  Tot: +0.52000 ]
SCF: Cycle: 14   F: -7.065492737454228   dF: -7.487e-05   |Residual|: 9.650e-03   |deigs|: 3.457e-02  t[s]:     27.45
	FillingsUpdate:  mu: -0.130783144  nElectrons: 3.000000  magneticMoment: [ Abs: 0.60444  Tot: +0.52000 ]
SCF: Cycle: 15   F: -7.065586864447141   dF: -9.413e-05   |Residual|: 6.803e-03   |deigs|: 3.046e-02  t[s]:     29.00
	FillingsUpdate:  mu: -0.117586407  nElectrons: 3.000000  magneticMoment: [ Abs: 0.59175  Tot: +0.52000 ]
SCF: Cycle: 16   F: -7.065760590755700   dF: -1.737e-04   |Residual|: 5.351e-03   |deigs|: 1.281e-02  t[s]:     30.54
	FillingsUpdate:  mu: -0.112819973  nElectrons: 3.000000  magneticMoment: [ Abs: 0.57504  Tot: +0.52000 ]
SCF: Cycle: 17   F: -7.065843286636186   dF: -8.270e-05   |Residual|: 3.373e-03   |deigs|: 4.141e-03  t[s]:     32.07
	FillingsUpdate:  mu: -0.108488069  nElectrons: 3.000000  magneticMoment: [ Abs: 0.55957  Tot: +0.52000 ]
SCF: Cycle: 18   F: -7.065934943431978   dF: -9.166e-05   |Residual|: 2.055e-03   |deigs|: 4.126e-03  t[s]:     33.63
	FillingsUpdate:  mu: -0.108593414  nElectrons: 3.000000  magneticMoment: [ Abs: 0.54538  Tot: +0.52000 ]
SCF: Cycle: 19   F: -7.065956023886255   dF: -2.108e-05   |Residual|: 1.147e-03   |deigs|: 3.545e-04  t[s]:     35.15
	FillingsUpdate:  mu: -0.109010678  nElectrons: 3.000000  magneticMoment: [ Abs: 0.53676  Tot: +0.52000 ]
SCF: Cycle: 20   F: -7.065962164868220   dF: -6.141e-06   |Residual|: 7.822e-04   |deigs|: 4.230e-04  t[s]:     36.67
	FillingsUpdate:  mu: -0.109212572  nElectrons: 3.000000  magneticMoment: [ Abs: 0.53278  Tot: +0.52000 ]
SCF: Cycle: 21   F: -7.065964374362519   dF: -2.209e-06   |Residual|: 5.776e-04   |deigs|: 2.346e-04  t[s]:     38.19
	FillingsUpdate:  mu: -0.109430929  nElectrons: 3.000000  magneticMoment: [ Abs: 0.52969  Tot: +0.52000 ]
SCF: Cycle: 22   F: -7.065965565300317   dF: -1.191e-06   |Residual|: 4.546e-04   |deigs|: 1.931e-04  t[s]:     39.73
	FillingsUpdate:  mu: -0.109888675  nElectrons: 3.000000  magneticMoment: [ Abs: 0.52582  Tot: +0.52000 ]
SCF: Cycle: 23   F: -7.065966468164437   dF: -9.029e-07   |Residual|: 3.938e-04   |deigs|: 4.624e-04  t[s]:     41.26
	FillingsUpdate:  mu: -0.110083355  nElectrons: 3.000000  magneticMoment: [ Abs: 0.52182  Tot: +0.52000 ]
SCF: Cycle: 24   F: -7.065966599279073   dF: -1.311e-07   |Residual|: 2.774e-04   |deigs|: 2.882e-04  t[s]:     42.78
	FillingsUpdate:  mu: -0.110163910  nElectrons: 3.000000  magneticMoment: [ Abs: 0.52093  Tot: +0.52000 ]
SCF: Cycle: 25   F: -7.065966526307464   dF: +7.297e-08   |Residual|: 1.966e-04   |deigs|: 1.030e-04  t[s]:     44.30
	FillingsUpdate:  mu: -0.110010823  nElectrons: 3.000000  magneticMoment: [ Abs: 0.52052  Tot: +0.52000 ]
SCF: Cycle: 26   F: -7.065966763910865   dF: -2.376e-07   |Residual|: 1.410e-04   |deigs|: 1.572e-04  t[s]:     45.86
	FillingsUpdate:  mu: -0.109939327  nElectrons: 3.000000  magneticMoment: [ Abs: 0.52020  Tot: +0.52000 ]
SCF: Cycle: 27   F: -7.065967131999567   dF: -3.681e-07   |Residual|: 9.586e-05   |deigs|: 8.559e-05  t[s]:     47.44
	FillingsUpdate:  mu: -0.109870235  nElectrons: 3.000000  magneticMoment: [ Abs: 0.52006  Tot: +0.52000 ]
SCF: Cycle: 28   F: -7.065967225248485   dF: -9.325e-08   |Residual|: 7.189e-05   |deigs|: 7.923e-05  t[s]:     48.95
	FillingsUpdate:  mu: -0.109804898  nElectrons: 3.000000  magneticMoment: [ Abs: 0.52004  Tot: +0.52000 ]
SCF: Cycle: 29   F: -7.065967243959975   dF: -1.871e-08   |Residual|: 5.657e-05   |deigs|: 7.504e-05  t[s]:     50.45
	FillingsUpdate:  mu: -0.109760121  nElectrons: 3.000000  magneticMoment: [ Abs: 0.52001  Tot: +0.52000 ]
SCF: Cycle: 30   F: -7.065967279109869   dF: -3.515e-08   |Residual|: 4.185e-05   |deigs|: 6.433e-05  t[s]:     51.98
	FillingsUpdate:  mu: -0.109720523  nElectrons: 3.000000  magneticMoment: [ Abs: 0.52002  Tot: +0.52000 ]
SCF: Cycle: 31   F: -7.065967294569738   dF: -1.546e-08   |Residual|: 3.250e-05   |deigs|: 5.236e-05  t[s]:     53.51
	FillingsUpdate:  mu: -0.109678365  nElectrons: 3.000000  magneticMoment: [ Abs: 0.52007  Tot: +0.52000 ]
SCF: Cycle: 32   F: -7.065967298930274   dF: -4.361e-09   |Residual|: 2.212e-05   |deigs|: 5.495e-05  t[s]:     55.04
	FillingsUpdate:  mu: -0.109631647  nElectrons: 3.000000  magneticMoment: [ Abs: 0.52005  Tot: +0.52000 ]
SCF: Cycle: 33   F: -7.065967295997852   dF: +2.932e-09   |Residual|: 1.483e-05   |deigs|: 5.609e-05  t[s]:     56.63
	FillingsUpdate:  mu: -0.109597991  nElectrons: 3.000000  magneticMoment: [ Abs: 0.52002  Tot: +0.52000 ]
SCF: Cycle: 34   F: -7.065967306099234   dF: -1.010e-08   |Residual|: 9.911e-06   |deigs|: 4.383e-05  t[s]:     58.17
	FillingsUpdate:  mu: -0.109577906  nElectrons: 3.000000  magneticMoment: [ Abs: 0.52000  Tot: +0.52000 ]
SCF: Cycle: 35   F: -7.065967310745878   dF: -4.647e-09   |Residual|: 7.906e-06   |deigs|: 5.896e-05  t[s]:     59.78
	FillingsUpdate:  mu: -0.109559010  nElectrons: 3.000000  magneticMoment: [ Abs: 0.52000  Tot: +0.52000 ]
SCF: Cycle: 36   F: -7.065967311155589   dF: -4.097e-10   |Residual|: 7.569e-06   |deigs|: 6.680e-05  t[s]:     61.35
SCF: Converged (|Delta E|<1.000000e-08 for 2 iters).


# Ionic positions in lattice coordinates:
ion Li   0.000000000000000   0.000000000000000   0.000000000000000 0

# Forces in Lattice coordinates:
force Li   0.000000000000000  -0.000000000000000   0.000000000000000 0

# Energy components:
   Eewald =       -2.0053362333702967
       EH =        1.5338987344044375
     Eloc =       -6.1954941581998515
      Enl =       -3.5902154123658918
   Epulay =        0.0000032255226020
      Exc =       -1.5400922415409273
       KE =        4.7312691869052621
-------------------------------------
     Etot =       -7.0659668986446640
       TS =        0.0000004125109251
-------------------------------------
        F =       -7.0659673111555890

IonicMinimize: Iter:   0  F: -7.065967311155589  |grad|_K:  0.000e+00  t[s]:     61.42
IonicMinimize: Converged (|grad|_K<1.000000e-04).

#--- Lowdin population analysis ---
# oxidation-state Li +2.195
# magnetic-moments Li +0.361

End date and time: Sat Feb  5 23:07:43 2022  (Duration: 0-0:01:01.42)
Done!
scale=3
magnetization=0.52
--------------------------------------------------------------------------
The library attempted to open the following supporting CUDA libraries,
but each of them failed.  CUDA-aware support is disabled.
libcuda.so.1: cannot open shared object file: No such file or directory
libcuda.dylib: cannot open shared object file: No such file or directory
/usr/lib64/libcuda.so.1: cannot open shared object file: No such file or directory
/usr/lib64/libcuda.dylib: cannot open shared object file: No such file or directory
If you are not interested in CUDA-aware support, then run with
--mca opal_warn_on_missing_libcuda 0 to suppress this message.  If you are interested
in CUDA-aware support, then try setting LD_LIBRARY_PATH to the location
of libcuda.so.1 to get passed this issue.
--------------------------------------------------------------------------
--------------------------------------------------------------------------
No OpenFabrics connection schemes reported that they were able to be
used on a specific port.  As such, the openib BTL (OpenFabrics
support) will be disabled for this port.

  Local host:           d-3-10-4
  Local device:         mlx5_1
  Local port:           1
  CPCs attempted:       rdmacm, udcm
--------------------------------------------------------------------------

*************** JDFTx 1.6.0 (git hash 42ebbcc2) ***************

Start date and time: Sat Feb  5 23:07:45 2022
Executable jdftx with command-line: -i Alkali.in
Running on hosts (process indices):  d-3-10-4 (0-18)
Divided in process groups (process indices):  0 (0)  1 (1)  2 (2)  3 (3)  4 (4)  5 (5)  6 (6)  7 (7)  8 (8)  9 (9)  10 (10)  11 (11)  12 (12)  13 (13)  14 (14)  15 (15)  16 (16)  17 (17)  18 (18)
Resource initialization completed at t[s]:      0.00
Run totals: 19 processes, 48 threads, 0 GPUs


Input parsed successfully to the following command list (including defaults):

basis kpoint-dependent
coords-type Lattice
core-overlap-check vector
coulomb-interaction Slab 001
davidson-band-ratio 1.1
dump End None
dump-name $INPUT.$VAR
elec-cutoff 20
elec-eigen-algo Davidson
elec-ex-corr gga-PBE
elec-initial-magnetization 0.520000 yes
elec-smearing Fermi 1e-05
electronic-minimize  \
	dirUpdateScheme      FletcherReeves \
	linminMethod         DirUpdateRecommended \
	nIterations          100 \
	history              15 \
	knormThreshold       0 \
	energyDiffThreshold  1e-08 \
	nEnergyDiff          2 \
	alphaTstart          1 \
	alphaTmin            1e-10 \
	updateTestStepSize   yes \
	alphaTreduceFactor   0.1 \
	alphaTincreaseFactor 3 \
	nAlphaAdjustMax      3 \
	wolfeEnergy          0.0001 \
	wolfeGradient        0.9 \
	fdTest               no
electronic-scf  \
	nIterations	10000 \
	energyDiffThreshold	1e-08 \
	residualThreshold	1e-07 \
	mixFraction	0.5 \
	qMetric	0.8 \
	history	10 \
	nEigSteps	2 \
	eigDiffThreshold	1e-08 \
	mixedVariable	Density \
	qKerker	0.8 \
	qKappa	-1 \
	verbose	no \
	mixFractionMag	1.5
exchange-regularization WignerSeitzTruncated
fluid None
fluid-ex-corr (null) lda-PZ
fluid-gummel-loop 10 1.000000e-05
fluid-minimize  \
	dirUpdateScheme      PolakRibiere \
	linminMethod         DirUpdateRecommended \
	nIterations          100 \
	history              15 \
	knormThreshold       0 \
	energyDiffThreshold  0 \
	nEnergyDiff          2 \
	alphaTstart          1 \
	alphaTmin            1e-10 \
	updateTestStepSize   yes \
	alphaTreduceFactor   0.1 \
	alphaTincreaseFactor 3 \
	nAlphaAdjustMax      3 \
	wolfeEnergy          0.0001 \
	wolfeGradient        0.9 \
	fdTest               no
fluid-solvent H2O 55.338 ScalarEOS \
	epsBulk 78.4 \
	pMol 0.92466 \
	epsInf 1.77 \
	Pvap 1.06736e-10 \
	sigmaBulk 4.62e-05 \
	Rvdw 2.61727 \
	Res 1.42 \
	tauNuc 343133 \
	poleEl 15 7 1
forces-output-coords Positions
ion Li   0.000000000000000   0.000000000000000   0.000000000000000 0
ion-species SG15/$ID_ONCV_PBE.upf
ion-width 0
ionic-minimize  \
	dirUpdateScheme      L-BFGS \
	linminMethod         DirUpdateRecommended \
	nIterations          0 \
	history              15 \
	knormThreshold       0.0001 \
	energyDiffThreshold  1e-06 \
	nEnergyDiff          2 \
	alphaTstart          1 \
	alphaTmin            1e-10 \
	updateTestStepSize   yes \
	alphaTreduceFactor   0.1 \
	alphaTincreaseFactor 3 \
	nAlphaAdjustMax      3 \
	wolfeEnergy          0.0001 \
	wolfeGradient        0.9 \
	fdTest               no
kpoint   0.000000000000   0.000000000000   0.000000000000  1.00000000000000
kpoint-folding 12 12 1 
latt-move-scale 1 1 1
latt-scale 3 3 1 
lattice  \
	   4.727486978767153   -2.363743489383575    0.000000000000000  \
	  -0.000000000000000    4.094123819672498    0.000000000000000  \
	   0.000000000000000    0.000000000000000   40.000000000000000 
lattice-minimize  \
	dirUpdateScheme      L-BFGS \
	linminMethod         DirUpdateRecommended \
	nIterations          0 \
	history              15 \
	knormThreshold       0 \
	energyDiffThreshold  1e-06 \
	nEnergyDiff          2 \
	alphaTstart          1 \
	alphaTmin            1e-10 \
	updateTestStepSize   yes \
	alphaTreduceFactor   0.1 \
	alphaTincreaseFactor 3 \
	nAlphaAdjustMax      3 \
	wolfeEnergy          0.0001 \
	wolfeGradient        0.9 \
	fdTest               no
lcao-params -1 1e-06 1e-05
pcm-variant GLSSA13
spintype z-spin
subspace-rotation-factor 1 yes
symmetries automatic
symmetry-threshold 0.0001



---------- Setting up symmetries ----------

Found 24 point-group symmetries of the bravais lattice
Found 24 space-group symmetries with basis
Applied RMS atom displacement 0 bohrs to make symmetries exact.

---------- Initializing the Grid ----------
R = 
[      14.1825     -7.09123            0  ]
[            0      12.2824            0  ]
[            0            0           40  ]
unit cell volume = 6967.77
G =
[   0.443025   0.255781         -0  ]
[          0   0.511561         -0  ]
[         -0         -0    0.15708  ]
Minimum fftbox size, Smin = [  60  60  164  ]
Chosen fftbox size, S = [  60  60  168  ]

---------- Exchange Correlation functional ----------
Initalized PBE GGA exchange.
Initalized PBE GGA correlation.

---------- Setting up pseudopotentials ----------
Width of ionic core gaussian charges (only for fluid interactions / plotting) set to 0

Reading pseudopotential file '/home/gridsan/aligho/DFT/build-Nov24/pseudopotentials/SG15/Li_ONCV_PBE.upf':
  'Li' pseudopotential, 'PBE' functional
  Generated using ONCVPSP code by D. R. Hamann
  Author: Martin Schlipf and Francois Gygi  Date: 150915.
  3 valence electrons, 2 orbitals, 4 projectors, 1328 radial grid points, with lMax = 1
  Transforming local potential to a uniform radial grid of dG=0.02 with 1489 points.
  Transforming nonlocal projectors to a uniform radial grid of dG=0.02 with 432 points.
    1S    l: 0   occupation:  2.0   eigenvalue: -1.905623
    2S    l: 0   occupation:  1.0   eigenvalue: -0.105624
  Transforming atomic orbitals to a uniform radial grid of dG=0.02 with 432 points.
  WARNING: large normalization error in atomic orbital 1s (integral: 0.000000).
  Core radius for overlap checks: 1.63 bohrs.
  Reading pulay file /home/gridsan/aligho/DFT/build-Nov24/pseudopotentials/SG15/Li_ONCV_PBE.pulay ... using dE_dnG = -1.230239e-02 computed for Ecut = 20.

Initialized 1 species with 1 total atoms.

Folded 1 k-points by 12x12x1 to 144 k-points.

---------- Setting up k-points, bands, fillings ----------
Reduced to 19 k-points under symmetry. 
Computing the number of bands and number of electrons
Calculating initial fillings.
nElectrons:   3.000000   nBands: 3   nStates: 38

----- Setting up reduced wavefunction bases (one per k-point) -----
average nbasis = 29766.104 , ideal nbasis = 29766.845

---------- Setting up coulomb interaction ----------
Initialized slab truncation along lattice direction 001

---------- Setting up 2D ewald sum ----------
Optimum gaussian width for ewald sums = 7.873530 bohr.
Real space sums over 289 unit cells with max indices [  8  8  0  ]
Reciprocal space sums over 81 terms with max indices [  4  4  0  ]

---------- Allocating electronic variables ----------
Initializing wave functions:  linear combination of atomic orbitals
Note: number of bands (3) exceeds available atomic orbitals (2)
Li pseudo-atom occupations:   s ( 2 1 )
[d-3-10-4:82061] 18 more processes have sent help message help-mpi-common-cuda.txt / dlopen failed
[d-3-10-4:82061] Set MCA parameter "orte_base_help_aggregate" to 0 to see all help / error messages
[d-3-10-4:82061] 18 more processes have sent help message help-mpi-btl-openib-cpc-base.txt / no cpcs for port
	FillingsUpdate:  mu: +0.356027322  nElectrons: 3.000000  magneticMoment: [ Abs: 0.52000  Tot: +0.52000 ]
LCAOMinimize: Iter:   0  F: -1.2874206900832708  |grad|_K:  4.795e-05  alpha:  1.000e+00
	FillingsUpdate:  mu: +0.356026794  nElectrons: 3.000000  magneticMoment: [ Abs: 0.52000  Tot: +0.52000 ]
LCAOMinimize: Iter:   1  F: -1.2874211059911109  |grad|_K:  4.151e-07  alpha:  1.058e+00  linmin: -1.566e-03  cgtest:  1.132e-02  t[s]:      7.58
LCAOMinimize: Encountered beta<0, resetting CG.
	FillingsUpdate:  mu: +0.356026796  nElectrons: 3.000000  magneticMoment: [ Abs: 0.52000  Tot: +0.52000 ]
LCAOMinimize: Iter:   2  F: -1.2874211060196223  |grad|_K:  1.814e-08  alpha:  1.043e+00  linmin:  1.378e-02  cgtest: -6.621e-01  t[s]:      9.63
LCAOMinimize: Converged (|Delta F|<1.000000e-06 for 2 iters).


---- Citations for features of the code used in this run ----

   Software package:
      R. Sundararaman, K. Letchworth-Weaver, K.A. Schwarz, D. Gunceler, Y. Ozhabes and T.A. Arias, 'JDFTx: software for joint density-functional theory', SoftwareX 6, 278 (2017)

   gga-PBE exchange-correlation functional:
      J.P. Perdew, K. Burke and M. Ernzerhof, Phys. Rev. Lett. 77, 3865 (1996)

   Pseudopotentials:
      M Schlipf and F Gygi, Comput. Phys. Commun. 196, 36 (2015)

   Truncated Coulomb potentials:
      R. Sundararaman and T.A. Arias, Phys. Rev. B 87, 165122 (2013)

This list may not be complete. Please suggest additional citations or
report any other bugs at https://github.com/shankar1729/jdftx/issues

Initialization completed successfully at t[s]:      9.73


-------- Electronic minimization -----------
Will mix electronic density at each iteration.
	FillingsUpdate:  mu: +0.356026796  nElectrons: 3.000000  magneticMoment: [ Abs: 0.52000  Tot: +0.52000 ]
	FillingsUpdate:  mu: -0.696110738  nElectrons: 3.000000  magneticMoment: [ Abs: 0.52000  Tot: +0.52000 ]
SCF: Cycle:  0   F: -6.874622606545094   dF: -5.587e+00   |Residual|: 1.225e+00   |deigs|: 4.156e+00  t[s]:     13.17
	FillingsUpdate:  mu: -0.568835546  nElectrons: 3.000000  magneticMoment: [ Abs: 0.83506  Tot: +0.52000 ]
SCF: Cycle:  1   F: -6.917361254806182   dF: -4.274e-02   |Residual|: 7.633e-01   |deigs|: 2.744e-01  t[s]:     15.98
	FillingsUpdate:  mu: -0.359532162  nElectrons: 3.000000  magneticMoment: [ Abs: 1.13855  Tot: +0.52000 ]
SCF: Cycle:  2   F: -7.038902331407021   dF: -1.215e-01   |Residual|: 3.309e-01   |deigs|: 7.087e-01  t[s]:     18.77
	FillingsUpdate:  mu: -0.369113029  nElectrons: 3.000000  magneticMoment: [ Abs: 1.03766  Tot: +0.52000 ]
SCF: Cycle:  3   F: -7.040437447397943   dF: -1.535e-03   |Residual|: 1.858e-01   |deigs|: 7.892e-02  t[s]:     21.62
	FillingsUpdate:  mu: -0.328292304  nElectrons: 3.000000  magneticMoment: [ Abs: 0.89641  Tot: +0.52000 ]
SCF: Cycle:  4   F: -7.042183102639812   dF: -1.746e-03   |Residual|: 4.114e-02   |deigs|: 3.180e-02  t[s]:     24.51
	FillingsUpdate:  mu: -0.310788029  nElectrons: 3.000000  magneticMoment: [ Abs: 0.83531  Tot: +0.52000 ]
SCF: Cycle:  5   F: -7.041964853356793   dF: +2.182e-04   |Residual|: 8.763e-02   |deigs|: 1.737e-02  t[s]:     27.47
	FillingsUpdate:  mu: -0.271876451  nElectrons: 3.000000  magneticMoment: [ Abs: 0.66972  Tot: +0.52000 ]
SCF: Cycle:  6   F: -7.044960482233856   dF: -2.996e-03   |Residual|: 4.935e-02   |deigs|: 7.344e-02  t[s]:     30.51
	FillingsUpdate:  mu: -0.252648018  nElectrons: 3.000000  magneticMoment: [ Abs: 0.62073  Tot: +0.52000 ]
SCF: Cycle:  7   F: -7.046456076506698   dF: -1.496e-03   |Residual|: 7.054e-02   |deigs|: 5.492e-02  t[s]:     33.66
	FillingsUpdate:  mu: -0.253137041  nElectrons: 3.000000  magneticMoment: [ Abs: 0.58739  Tot: +0.52000 ]
SCF: Cycle:  8   F: -7.046491875419121   dF: -3.580e-05   |Residual|: 6.717e-02   |deigs|: 5.788e-03  t[s]:     36.85
	FillingsUpdate:  mu: -0.227271016  nElectrons: 3.000000  magneticMoment: [ Abs: 0.59750  Tot: +0.52000 ]
SCF: Cycle:  9   F: -7.047499893270480   dF: -1.008e-03   |Residual|: 6.969e-02   |deigs|: 4.006e-02  t[s]:     40.09
	FillingsUpdate:  mu: -0.196795971  nElectrons: 3.000000  magneticMoment: [ Abs: 0.64989  Tot: +0.52000 ]
SCF: Cycle: 10   F: -7.048130793641807   dF: -6.309e-04   |Residual|: 3.570e-02   |deigs|: 3.639e-02  t[s]:     43.36
	FillingsUpdate:  mu: -0.178375891  nElectrons: 3.000000  magneticMoment: [ Abs: 0.67784  Tot: +0.52000 ]
SCF: Cycle: 11   F: -7.048484290655700   dF: -3.535e-04   |Residual|: 1.789e-02   |deigs|: 2.310e-02  t[s]:     46.66
	FillingsUpdate:  mu: -0.169350396  nElectrons: 3.000000  magneticMoment: [ Abs: 0.67711  Tot: +0.52000 ]
SCF: Cycle: 12   F: -7.048755079973184   dF: -2.708e-04   |Residual|: 1.055e-02   |deigs|: 7.855e-03  t[s]:     49.93
	FillingsUpdate:  mu: -0.145107131  nElectrons: 3.000000  magneticMoment: [ Abs: 0.67783  Tot: +0.52000 ]
SCF: Cycle: 13   F: -7.048586611280401   dF: +1.685e-04   |Residual|: 7.934e-03   |deigs|: 2.594e-02  t[s]:     53.24
	FillingsUpdate:  mu: -0.135065374  nElectrons: 3.000000  magneticMoment: [ Abs: 0.65796  Tot: +0.52000 ]
SCF: Cycle: 14   F: -7.048545595617196   dF: +4.102e-05   |Residual|: 6.973e-03   |deigs|: 9.064e-03  t[s]:     56.59
	FillingsUpdate:  mu: -0.123459850  nElectrons: 3.000000  magneticMoment: [ Abs: 0.62590  Tot: +0.52000 ]
SCF: Cycle: 15   F: -7.048631243182347   dF: -8.565e-05   |Residual|: 6.200e-03   |deigs|: 1.187e-02  t[s]:     59.85
	FillingsUpdate:  mu: -0.114963149  nElectrons: 3.000000  magneticMoment: [ Abs: 0.59319  Tot: +0.52000 ]
SCF: Cycle: 16   F: -7.048880176078756   dF: -2.489e-04   |Residual|: 4.457e-03   |deigs|: 8.883e-03  t[s]:     63.13
	FillingsUpdate:  mu: -0.107228430  nElectrons: 3.000000  magneticMoment: [ Abs: 0.56689  Tot: +0.52000 ]
SCF: Cycle: 17   F: -7.049089260993738   dF: -2.091e-04   |Residual|: 2.907e-03   |deigs|: 8.898e-03  t[s]:     66.44
	FillingsUpdate:  mu: -0.105877798  nElectrons: 3.000000  magneticMoment: [ Abs: 0.55169  Tot: +0.52000 ]
SCF: Cycle: 18   F: -7.049165981188657   dF: -7.672e-05   |Residual|: 1.894e-03   |deigs|: 2.083e-03  t[s]:     69.73
	FillingsUpdate:  mu: -0.105505806  nElectrons: 3.000000  magneticMoment: [ Abs: 0.54192  Tot: +0.52000 ]
SCF: Cycle: 19   F: -7.049207735854944   dF: -4.175e-05   |Residual|: 1.200e-03   |deigs|: 6.529e-04  t[s]:     72.95
	FillingsUpdate:  mu: -0.105344833  nElectrons: 3.000000  magneticMoment: [ Abs: 0.53547  Tot: +0.52000 ]
SCF: Cycle: 20   F: -7.049225641684641   dF: -1.791e-05   |Residual|: 5.753e-04   |deigs|: 3.549e-04  t[s]:     76.21
	FillingsUpdate:  mu: -0.105345039  nElectrons: 3.000000  magneticMoment: [ Abs: 0.53167  Tot: +0.52000 ]
SCF: Cycle: 21   F: -7.049229485569713   dF: -3.844e-06   |Residual|: 3.990e-04   |deigs|: 1.296e-04  t[s]:     79.51
	FillingsUpdate:  mu: -0.105463869  nElectrons: 3.000000  magneticMoment: [ Abs: 0.52870  Tot: +0.52000 ]
SCF: Cycle: 22   F: -7.049231073310849   dF: -1.588e-06   |Residual|: 3.113e-04   |deigs|: 1.492e-04  t[s]:     82.76
	FillingsUpdate:  mu: -0.105588062  nElectrons: 3.000000  magneticMoment: [ Abs: 0.52571  Tot: +0.52000 ]
SCF: Cycle: 23   F: -7.049231681869814   dF: -6.086e-07   |Residual|: 2.447e-04   |deigs|: 1.575e-04  t[s]:     86.09
	FillingsUpdate:  mu: -0.105716697  nElectrons: 3.000000  magneticMoment: [ Abs: 0.52373  Tot: +0.52000 ]
SCF: Cycle: 24   F: -7.049232195707709   dF: -5.138e-07   |Residual|: 1.859e-04   |deigs|: 1.670e-04  t[s]:     89.37
	FillingsUpdate:  mu: -0.105758695  nElectrons: 3.000000  magneticMoment: [ Abs: 0.52264  Tot: +0.52000 ]
SCF: Cycle: 25   F: -7.049232288786909   dF: -9.308e-08   |Residual|: 1.544e-04   |deigs|: 1.182e-04  t[s]:     92.67
	FillingsUpdate:  mu: -0.105804643  nElectrons: 3.000000  magneticMoment: [ Abs: 0.52112  Tot: +0.52000 ]
SCF: Cycle: 26   F: -7.049232286782986   dF: +2.004e-09   |Residual|: 1.084e-04   |deigs|: 1.214e-04  t[s]:     96.01
	FillingsUpdate:  mu: -0.105804190  nElectrons: 3.000000  magneticMoment: [ Abs: 0.52048  Tot: +0.52000 ]
SCF: Cycle: 27   F: -7.049232591060280   dF: -3.043e-07   |Residual|: 7.130e-05   |deigs|: 9.355e-05  t[s]:     99.43
	FillingsUpdate:  mu: -0.105771155  nElectrons: 3.000000  magneticMoment: [ Abs: 0.52014  Tot: +0.52000 ]
SCF: Cycle: 28   F: -7.049232676109504   dF: -8.505e-08   |Residual|: 4.802e-05   |deigs|: 9.304e-05  t[s]:    102.68
	FillingsUpdate:  mu: -0.105728886  nElectrons: 3.000000  magneticMoment: [ Abs: 0.52001  Tot: +0.52000 ]
SCF: Cycle: 29   F: -7.049232705965417   dF: -2.986e-08   |Residual|: 3.574e-05   |deigs|: 8.379e-05  t[s]:    106.03
	FillingsUpdate:  mu: -0.105685144  nElectrons: 3.000000  magneticMoment: [ Abs: 0.52000  Tot: +0.52000 ]
SCF: Cycle: 30   F: -7.049232703149694   dF: +2.816e-09   |Residual|: 2.806e-05   |deigs|: 6.891e-05  t[s]:    109.39
	FillingsUpdate:  mu: -0.105652832  nElectrons: 3.000000  magneticMoment: [ Abs: 0.52000  Tot: +0.52000 ]
SCF: Cycle: 31   F: -7.049232714986876   dF: -1.184e-08   |Residual|: 2.280e-05   |deigs|: 5.235e-05  t[s]:    112.70
	FillingsUpdate:  mu: -0.105623378  nElectrons: 3.000000  magneticMoment: [ Abs: 0.52000  Tot: +0.52000 ]
SCF: Cycle: 32   F: -7.049232728473274   dF: -1.349e-08   |Residual|: 1.825e-05   |deigs|: 4.412e-05  t[s]:    116.03
	FillingsUpdate:  mu: -0.105606489  nElectrons: 3.000000  magneticMoment: [ Abs: 0.52000  Tot: +0.52000 ]
SCF: Cycle: 33   F: -7.049232740559605   dF: -1.209e-08   |Residual|: 1.433e-05   |deigs|: 3.083e-05  t[s]:    119.31
	FillingsUpdate:  mu: -0.105594561  nElectrons: 3.000000  magneticMoment: [ Abs: 0.52000  Tot: +0.52000 ]
SCF: Cycle: 34   F: -7.049232747476901   dF: -6.917e-09   |Residual|: 1.107e-05   |deigs|: 2.205e-05  t[s]:    122.57
	FillingsUpdate:  mu: -0.105586033  nElectrons: 3.000000  magneticMoment: [ Abs: 0.52000  Tot: +0.52000 ]
SCF: Cycle: 35   F: -7.049232750271341   dF: -2.794e-09   |Residual|: 9.291e-06   |deigs|: 1.451e-05  t[s]:    125.84
SCF: Converged (|Delta E|<1.000000e-08 for 2 iters).


# Ionic positions in lattice coordinates:
ion Li   0.000000000000000   0.000000000000000   0.000000000000000 0

# Forces in Lattice coordinates:
force Li   0.000000000000000  -0.000000000000000   0.000000000000000 0

# Energy components:
   Eewald =       -1.3368908222468645
       EH =        2.2065710838999819
     Eloc =       -7.5480445146455519
      Enl =       -3.6023454607906462
   Epulay =       -0.0000013080581827
      Exc =       -1.5356568854545505
       KE =        4.7671356146264685
-------------------------------------
     Etot =       -7.0492322926693447
       TS =        0.0000004576019966
-------------------------------------
        F =       -7.0492327502713410

IonicMinimize: Iter:   0  F: -7.049232750271341  |grad|_K:  0.000e+00  t[s]:    125.98
IonicMinimize: Converged (|grad|_K<1.000000e-04).

#--- Lowdin population analysis ---
# oxidation-state Li +2.092
# magnetic-moments Li +0.479

End date and time: Sat Feb  5 23:09:51 2022  (Duration: 0-0:02:06.00)
Done!
scale=4
magnetization=0.52
--------------------------------------------------------------------------
The library attempted to open the following supporting CUDA libraries,
but each of them failed.  CUDA-aware support is disabled.
libcuda.so.1: cannot open shared object file: No such file or directory
libcuda.dylib: cannot open shared object file: No such file or directory
/usr/lib64/libcuda.so.1: cannot open shared object file: No such file or directory
/usr/lib64/libcuda.dylib: cannot open shared object file: No such file or directory
If you are not interested in CUDA-aware support, then run with
--mca opal_warn_on_missing_libcuda 0 to suppress this message.  If you are interested
in CUDA-aware support, then try setting LD_LIBRARY_PATH to the location
of libcuda.so.1 to get passed this issue.
--------------------------------------------------------------------------
--------------------------------------------------------------------------
No OpenFabrics connection schemes reported that they were able to be
used on a specific port.  As such, the openib BTL (OpenFabrics
support) will be disabled for this port.

  Local host:           d-3-10-4
  Local device:         mlx5_1
  Local port:           1
  CPCs attempted:       rdmacm, udcm
--------------------------------------------------------------------------

*************** JDFTx 1.6.0 (git hash 42ebbcc2) ***************

Start date and time: Sat Feb  5 23:09:52 2022
Executable jdftx with command-line: -i Alkali.in
Running on hosts (process indices):  d-3-10-4 (0-18)
Divided in process groups (process indices):  0 (0)  1 (1)  2 (2)  3 (3)  4 (4)  5 (5)  6 (6)  7 (7)  8 (8)  9 (9)  10 (10)  11 (11)  12 (12)  13 (13)  14 (14)  15 (15)  16 (16)  17 (17)  18 (18)
Resource initialization completed at t[s]:      0.00
Run totals: 19 processes, 48 threads, 0 GPUs


Input parsed successfully to the following command list (including defaults):

basis kpoint-dependent
coords-type Lattice
core-overlap-check vector
coulomb-interaction Slab 001
davidson-band-ratio 1.1
dump End None
dump-name $INPUT.$VAR
elec-cutoff 20
elec-eigen-algo Davidson
elec-ex-corr gga-PBE
elec-initial-magnetization 0.520000 yes
elec-smearing Fermi 1e-05
electronic-minimize  \
	dirUpdateScheme      FletcherReeves \
	linminMethod         DirUpdateRecommended \
	nIterations          100 \
	history              15 \
	knormThreshold       0 \
	energyDiffThreshold  1e-08 \
	nEnergyDiff          2 \
	alphaTstart          1 \
	alphaTmin            1e-10 \
	updateTestStepSize   yes \
	alphaTreduceFactor   0.1 \
	alphaTincreaseFactor 3 \
	nAlphaAdjustMax      3 \
	wolfeEnergy          0.0001 \
	wolfeGradient        0.9 \
	fdTest               no
electronic-scf  \
	nIterations	10000 \
	energyDiffThreshold	1e-08 \
	residualThreshold	1e-07 \
	mixFraction	0.5 \
	qMetric	0.8 \
	history	10 \
	nEigSteps	2 \
	eigDiffThreshold	1e-08 \
	mixedVariable	Density \
	qKerker	0.8 \
	qKappa	-1 \
	verbose	no \
	mixFractionMag	1.5
exchange-regularization WignerSeitzTruncated
fluid None
fluid-ex-corr (null) lda-PZ
fluid-gummel-loop 10 1.000000e-05
fluid-minimize  \
	dirUpdateScheme      PolakRibiere \
	linminMethod         DirUpdateRecommended \
	nIterations          100 \
	history              15 \
	knormThreshold       0 \
	energyDiffThreshold  0 \
	nEnergyDiff          2 \
	alphaTstart          1 \
	alphaTmin            1e-10 \
	updateTestStepSize   yes \
	alphaTreduceFactor   0.1 \
	alphaTincreaseFactor 3 \
	nAlphaAdjustMax      3 \
	wolfeEnergy          0.0001 \
	wolfeGradient        0.9 \
	fdTest               no
fluid-solvent H2O 55.338 ScalarEOS \
	epsBulk 78.4 \
	pMol 0.92466 \
	epsInf 1.77 \
	Pvap 1.06736e-10 \
	sigmaBulk 4.62e-05 \
	Rvdw 2.61727 \
	Res 1.42 \
	tauNuc 343133 \
	poleEl 15 7 1
forces-output-coords Positions
ion Li   0.000000000000000   0.000000000000000   0.000000000000000 0
ion-species SG15/$ID_ONCV_PBE.upf
ion-width 0
ionic-minimize  \
	dirUpdateScheme      L-BFGS \
	linminMethod         DirUpdateRecommended \
	nIterations          0 \
	history              15 \
	knormThreshold       0.0001 \
	energyDiffThreshold  1e-06 \
	nEnergyDiff          2 \
	alphaTstart          1 \
	alphaTmin            1e-10 \
	updateTestStepSize   yes \
	alphaTreduceFactor   0.1 \
	alphaTincreaseFactor 3 \
	nAlphaAdjustMax      3 \
	wolfeEnergy          0.0001 \
	wolfeGradient        0.9 \
	fdTest               no
kpoint   0.000000000000   0.000000000000   0.000000000000  1.00000000000000
kpoint-folding 12 12 1 
latt-move-scale 1 1 1
latt-scale 4 4 1 
lattice  \
	   4.727486978767153   -2.363743489383575    0.000000000000000  \
	  -0.000000000000000    4.094123819672498    0.000000000000000  \
	   0.000000000000000    0.000000000000000   40.000000000000000 
lattice-minimize  \
	dirUpdateScheme      L-BFGS \
	linminMethod         DirUpdateRecommended \
	nIterations          0 \
	history              15 \
	knormThreshold       0 \
	energyDiffThreshold  1e-06 \
	nEnergyDiff          2 \
	alphaTstart          1 \
	alphaTmin            1e-10 \
	updateTestStepSize   yes \
	alphaTreduceFactor   0.1 \
	alphaTincreaseFactor 3 \
	nAlphaAdjustMax      3 \
	wolfeEnergy          0.0001 \
	wolfeGradient        0.9 \
	fdTest               no
lcao-params -1 1e-06 1e-05
pcm-variant GLSSA13
spintype z-spin
subspace-rotation-factor 1 yes
symmetries automatic
symmetry-threshold 0.0001



---------- Setting up symmetries ----------

Found 24 point-group symmetries of the bravais lattice
Found 24 space-group symmetries with basis
Applied RMS atom displacement 0 bohrs to make symmetries exact.

---------- Initializing the Grid ----------
R = 
[      18.9099     -9.45497            0  ]
[            0      16.3765            0  ]
[            0            0           40  ]
unit cell volume = 12387.1
G =
[   0.332269   0.191835         -0  ]
[          0   0.383671         -0  ]
[         -0         -0    0.15708  ]
Minimum fftbox size, Smin = [  80  80  164  ]
Chosen fftbox size, S = [  80  80  168  ]

---------- Exchange Correlation functional ----------
Initalized PBE GGA exchange.
Initalized PBE GGA correlation.

---------- Setting up pseudopotentials ----------
Width of ionic core gaussian charges (only for fluid interactions / plotting) set to 0

Reading pseudopotential file '/home/gridsan/aligho/DFT/build-Nov24/pseudopotentials/SG15/Li_ONCV_PBE.upf':
  'Li' pseudopotential, 'PBE' functional
  Generated using ONCVPSP code by D. R. Hamann
  Author: Martin Schlipf and Francois Gygi  Date: 150915.
  3 valence electrons, 2 orbitals, 4 projectors, 1328 radial grid points, with lMax = 1
  Transforming local potential to a uniform radial grid of dG=0.02 with 1489 points.
  Transforming nonlocal projectors to a uniform radial grid of dG=0.02 with 432 points.
    1S    l: 0   occupation:  2.0   eigenvalue: -1.905623
    2S    l: 0   occupation:  1.0   eigenvalue: -0.105624
  Transforming atomic orbitals to a uniform radial grid of dG=0.02 with 432 points.
  WARNING: large normalization error in atomic orbital 1s (integral: 0.000000).
  Core radius for overlap checks: 1.63 bohrs.
  Reading pulay file /home/gridsan/aligho/DFT/build-Nov24/pseudopotentials/SG15/Li_ONCV_PBE.pulay ... using dE_dnG = -1.230239e-02 computed for Ecut = 20.

Initialized 1 species with 1 total atoms.

Folded 1 k-points by 12x12x1 to 144 k-points.

---------- Setting up k-points, bands, fillings ----------
Reduced to 19 k-points under symmetry. 
Computing the number of bands and number of electrons
Calculating initial fillings.
nElectrons:   3.000000   nBands: 3   nStates: 38

----- Setting up reduced wavefunction bases (one per k-point) -----
average nbasis = 52924.021 , ideal nbasis = 52918.836

---------- Setting up coulomb interaction ----------
Initialized slab truncation along lattice direction 001

---------- Setting up 2D ewald sum ----------
Optimum gaussian width for ewald sums = 10.498040 bohr.
Real space sums over 289 unit cells with max indices [  8  8  0  ]
Reciprocal space sums over 81 terms with max indices [  4  4  0  ]

---------- Allocating electronic variables ----------
Initializing wave functions:  linear combination of atomic orbitals
Note: number of bands (3) exceeds available atomic orbitals (2)
Li pseudo-atom occupations:   s ( 2 1 )
[d-3-10-4:87604] 18 more processes have sent help message help-mpi-common-cuda.txt / dlopen failed
[d-3-10-4:87604] Set MCA parameter "orte_base_help_aggregate" to 0 to see all help / error messages
[d-3-10-4:87604] 18 more processes have sent help message help-mpi-btl-openib-cpc-base.txt / no cpcs for port
	FillingsUpdate:  mu: +0.360417120  nElectrons: 3.000000  magneticMoment: [ Abs: 0.52000  Tot: +0.52000 ]
LCAOMinimize: Iter:   0  F: -1.3090955390408869  |grad|_K:  3.968e-05  alpha:  1.000e+00
	FillingsUpdate:  mu: +0.360416528  nElectrons: 3.000000  magneticMoment: [ Abs: 0.52000  Tot: +0.52000 ]
LCAOMinimize: Iter:   1  F: -1.3090958241313986  |grad|_K:  1.166e-07  alpha:  1.059e+00  linmin: -7.451e-03  cgtest:  2.607e-02  t[s]:     12.72
LCAOMinimize: Encountered beta<0, resetting CG.
LCAOMinimize: 	Step increased F by 3.017586e-13, reducing alpha to 3.651922e-02.
LCAOMinimize: 	Step increased F by 2.129408e-12, reducing alpha to 3.651922e-03.
LCAOMinimize: 	Step increased F by 3.886003e-12, reducing alpha to 3.651922e-04.
LCAOMinimize: 	Step failed to reduce F after 3 attempts. Quitting step.
LCAOMinimize: 	Undoing step.
LCAOMinimize: 	Step failed along negative gradient direction.
LCAOMinimize: Probably at roundoff error limit. (Stopping)


---- Citations for features of the code used in this run ----

   Software package:
      R. Sundararaman, K. Letchworth-Weaver, K.A. Schwarz, D. Gunceler, Y. Ozhabes and T.A. Arias, 'JDFTx: software for joint density-functional theory', SoftwareX 6, 278 (2017)

   gga-PBE exchange-correlation functional:
      J.P. Perdew, K. Burke and M. Ernzerhof, Phys. Rev. Lett. 77, 3865 (1996)

   Pseudopotentials:
      M Schlipf and F Gygi, Comput. Phys. Commun. 196, 36 (2015)

   Truncated Coulomb potentials:
      R. Sundararaman and T.A. Arias, Phys. Rev. B 87, 165122 (2013)

This list may not be complete. Please suggest additional citations or
report any other bugs at https://github.com/shankar1729/jdftx/issues

Initialization completed successfully at t[s]:     21.64


-------- Electronic minimization -----------
Will mix electronic density at each iteration.
	FillingsUpdate:  mu: +0.360416528  nElectrons: 3.000000  magneticMoment: [ Abs: 0.52000  Tot: +0.52000 ]
	FillingsUpdate:  mu: -0.612631038  nElectrons: 3.000000  magneticMoment: [ Abs: 0.52000  Tot: +0.52000 ]
SCF: Cycle:  0   F: -6.874741128079967   dF: -5.566e+00   |Residual|: 1.230e+00   |deigs|: 4.155e+00  t[s]:     27.30
	FillingsUpdate:  mu: -0.486658450  nElectrons: 3.000000  magneticMoment: [ Abs: 0.89274  Tot: +0.52000 ]
SCF: Cycle:  1   F: -6.916895605767310   dF: -4.215e-02   |Residual|: 7.619e-01   |deigs|: 2.767e-01  t[s]:     31.84
	FillingsUpdate:  mu: -0.270906815  nElectrons: 3.000000  magneticMoment: [ Abs: 1.15101  Tot: +0.52000 ]
SCF: Cycle:  2   F: -7.036903096160098   dF: -1.200e-01   |Residual|: 3.200e-01   |deigs|: 7.037e-01  t[s]:     36.55
	FillingsUpdate:  mu: -0.279303308  nElectrons: 3.000000  magneticMoment: [ Abs: 1.04525  Tot: +0.52000 ]
SCF: Cycle:  3   F: -7.037209651894774   dF: -3.066e-04   |Residual|: 1.818e-01   |deigs|: 7.446e-02  t[s]:     41.33
	FillingsUpdate:  mu: -0.232825105  nElectrons: 3.000000  magneticMoment: [ Abs: 0.92007  Tot: +0.52000 ]
SCF: Cycle:  4   F: -7.039133867213121   dF: -1.924e-03   |Residual|: 5.230e-02   |deigs|: 3.898e-02  t[s]:     46.21
	FillingsUpdate:  mu: -0.220845788  nElectrons: 3.000000  magneticMoment: [ Abs: 0.91735  Tot: +0.52000 ]
SCF: Cycle:  5   F: -7.040141952010634   dF: -1.008e-03   |Residual|: 9.554e-02   |deigs|: 1.270e-02  t[s]:     51.24
	FillingsUpdate:  mu: -0.197955169  nElectrons: 3.000000  magneticMoment: [ Abs: 0.76624  Tot: +0.52000 ]
SCF: Cycle:  6   F: -7.043040508540528   dF: -2.899e-03   |Residual|: 2.240e-02   |deigs|: 5.762e-02  t[s]:     56.42
	FillingsUpdate:  mu: -0.183245717  nElectrons: 3.000000  magneticMoment: [ Abs: 0.65874  Tot: +0.52000 ]
SCF: Cycle:  7   F: -7.044793080761858   dF: -1.753e-03   |Residual|: 7.431e-02   |deigs|: 4.645e-02  t[s]:     61.68
	FillingsUpdate:  mu: -0.184708873  nElectrons: 3.000000  magneticMoment: [ Abs: 0.61985  Tot: +0.52000 ]
SCF: Cycle:  8   F: -7.045203326713867   dF: -4.102e-04   |Residual|: 4.569e-02   |deigs|: 1.049e-02  t[s]:     67.04
	FillingsUpdate:  mu: -0.183369423  nElectrons: 3.000000  magneticMoment: [ Abs: 0.59662  Tot: +0.52000 ]
SCF: Cycle:  9   F: -7.046001251171553   dF: -7.979e-04   |Residual|: 6.193e-02   |deigs|: 3.916e-02  t[s]:     72.49
	FillingsUpdate:  mu: -0.165997348  nElectrons: 3.000000  magneticMoment: [ Abs: 0.55643  Tot: +0.52000 ]
SCF: Cycle: 10   F: -7.046590646255858   dF: -5.894e-04   |Residual|: 1.329e-02   |deigs|: 3.223e-02  t[s]:     78.05
	FillingsUpdate:  mu: -0.154429915  nElectrons: 3.000000  magneticMoment: [ Abs: 0.60315  Tot: +0.52000 ]
SCF: Cycle: 11   F: -7.046720184753876   dF: -1.295e-04   |Residual|: 3.020e-02   |deigs|: 1.759e-02  t[s]:     83.70
	FillingsUpdate:  mu: -0.149925859  nElectrons: 3.000000  magneticMoment: [ Abs: 0.60220  Tot: +0.52000 ]
SCF: Cycle: 12   F: -7.046836323485065   dF: -1.161e-04   |Residual|: 1.198e-02   |deigs|: 1.126e-02  t[s]:     89.26
	FillingsUpdate:  mu: -0.128149657  nElectrons: 3.000000  magneticMoment: [ Abs: 0.65970  Tot: +0.52000 ]
SCF: Cycle: 13   F: -7.046964921225125   dF: -1.286e-04   |Residual|: 6.563e-03   |deigs|: 2.448e-02  t[s]:     94.80
	FillingsUpdate:  mu: -0.122306080  nElectrons: 3.000000  magneticMoment: [ Abs: 0.65926  Tot: +0.52000 ]
SCF: Cycle: 14   F: -7.046981938885807   dF: -1.702e-05   |Residual|: 5.795e-03   |deigs|: 6.760e-03  t[s]:    100.35
	FillingsUpdate:  mu: -0.115490544  nElectrons: 3.000000  magneticMoment: [ Abs: 0.63216  Tot: +0.52000 ]
SCF: Cycle: 15   F: -7.046992365468812   dF: -1.043e-05   |Residual|: 4.089e-03   |deigs|: 5.986e-03  t[s]:    105.98
	FillingsUpdate:  mu: -0.111732238  nElectrons: 3.000000  magneticMoment: [ Abs: 0.61678  Tot: +0.52000 ]
SCF: Cycle: 16   F: -7.047005335976048   dF: -1.297e-05   |Residual|: 3.387e-03   |deigs|: 3.723e-03  t[s]:    111.55
	FillingsUpdate:  mu: -0.108153975  nElectrons: 3.000000  magneticMoment: [ Abs: 0.58601  Tot: +0.52000 ]
SCF: Cycle: 17   F: -7.046991204171723   dF: +1.413e-05   |Residual|: 2.437e-03   |deigs|: 3.527e-03  t[s]:    117.10
	FillingsUpdate:  mu: -0.105878385  nElectrons: 3.000000  magneticMoment: [ Abs: 0.57246  Tot: +0.52000 ]
SCF: Cycle: 18   F: -7.047027109999831   dF: -3.591e-05   |Residual|: 1.735e-03   |deigs|: 2.884e-03  t[s]:    122.65
	FillingsUpdate:  mu: -0.104336487  nElectrons: 3.000000  magneticMoment: [ Abs: 0.56030  Tot: +0.52000 ]
SCF: Cycle: 19   F: -7.047062185781191   dF: -3.508e-05   |Residual|: 1.323e-03   |deigs|: 2.077e-03  t[s]:    128.17
	FillingsUpdate:  mu: -0.103224756  nElectrons: 3.000000  magneticMoment: [ Abs: 0.55108  Tot: +0.52000 ]
SCF: Cycle: 20   F: -7.047080052300077   dF: -1.787e-05   |Residual|: 9.882e-04   |deigs|: 1.545e-03  t[s]:    133.75
	FillingsUpdate:  mu: -0.102643378  nElectrons: 3.000000  magneticMoment: [ Abs: 0.54197  Tot: +0.52000 ]
SCF: Cycle: 21   F: -7.047100777141315   dF: -2.072e-05   |Residual|: 7.194e-04   |deigs|: 6.487e-04  t[s]:    139.33
	FillingsUpdate:  mu: -0.102926365  nElectrons: 3.000000  magneticMoment: [ Abs: 0.53387  Tot: +0.52000 ]
SCF: Cycle: 22   F: -7.047114670916613   dF: -1.389e-05   |Residual|: 4.473e-04   |deigs|: 5.937e-04  t[s]:    144.92
	FillingsUpdate:  mu: -0.103354689  nElectrons: 3.000000  magneticMoment: [ Abs: 0.52754  Tot: +0.52000 ]
SCF: Cycle: 23   F: -7.047118328032624   dF: -3.657e-06   |Residual|: 2.988e-04   |deigs|: 6.398e-04  t[s]:    150.47
	FillingsUpdate:  mu: -0.103575396  nElectrons: 3.000000  magneticMoment: [ Abs: 0.52357  Tot: +0.52000 ]
SCF: Cycle: 24   F: -7.047119419946970   dF: -1.092e-06   |Residual|: 2.125e-04   |deigs|: 3.310e-04  t[s]:    156.01
	FillingsUpdate:  mu: -0.103639535  nElectrons: 3.000000  magneticMoment: [ Abs: 0.52182  Tot: +0.52000 ]
SCF: Cycle: 25   F: -7.047120404649049   dF: -9.847e-07   |Residual|: 1.248e-04   |deigs|: 1.485e-04  t[s]:    161.57
	FillingsUpdate:  mu: -0.103676212  nElectrons: 3.000000  magneticMoment: [ Abs: 0.52153  Tot: +0.52000 ]
SCF: Cycle: 26   F: -7.047120674438410   dF: -2.698e-07   |Residual|: 8.942e-05   |deigs|: 1.004e-04  t[s]:    167.19
	FillingsUpdate:  mu: -0.103691788  nElectrons: 3.000000  magneticMoment: [ Abs: 0.52092  Tot: +0.52000 ]
SCF: Cycle: 27   F: -7.047120736599128   dF: -6.216e-08   |Residual|: 5.348e-05   |deigs|: 8.543e-05  t[s]:    172.76
	FillingsUpdate:  mu: -0.103680316  nElectrons: 3.000000  magneticMoment: [ Abs: 0.52074  Tot: +0.52000 ]
SCF: Cycle: 28   F: -7.047120800526474   dF: -6.393e-08   |Residual|: 4.208e-05   |deigs|: 5.651e-05  t[s]:    178.33
	FillingsUpdate:  mu: -0.103662091  nElectrons: 3.000000  magneticMoment: [ Abs: 0.52046  Tot: +0.52000 ]
SCF: Cycle: 29   F: -7.047120786844428   dF: +1.368e-08   |Residual|: 3.345e-05   |deigs|: 4.582e-05  t[s]:    183.96
	FillingsUpdate:  mu: -0.103635100  nElectrons: 3.000000  magneticMoment: [ Abs: 0.52026  Tot: +0.52000 ]
SCF: Cycle: 30   F: -7.047120820257843   dF: -3.341e-08   |Residual|: 2.403e-05   |deigs|: 4.119e-05  t[s]:    189.51
	FillingsUpdate:  mu: -0.103620765  nElectrons: 3.000000  magneticMoment: [ Abs: 0.52018  Tot: +0.52000 ]
SCF: Cycle: 31   F: -7.047120822991380   dF: -2.734e-09   |Residual|: 1.861e-05   |deigs|: 3.169e-05  t[s]:    195.08
	FillingsUpdate:  mu: -0.103612753  nElectrons: 3.000000  magneticMoment: [ Abs: 0.52008  Tot: +0.52000 ]
SCF: Cycle: 32   F: -7.047120836154682   dF: -1.316e-08   |Residual|: 1.431e-05   |deigs|: 2.675e-05  t[s]:    200.66
	FillingsUpdate:  mu: -0.103609164  nElectrons: 3.000000  magneticMoment: [ Abs: 0.52002  Tot: +0.52000 ]
SCF: Cycle: 33   F: -7.047120833580381   dF: +2.574e-09   |Residual|: 1.197e-05   |deigs|: 2.418e-05  t[s]:    206.22
	FillingsUpdate:  mu: -0.103607701  nElectrons: 3.000000  magneticMoment: [ Abs: 0.52002  Tot: +0.52000 ]
SCF: Cycle: 34   F: -7.047120830920385   dF: +2.660e-09   |Residual|: 9.089e-06   |deigs|: 2.276e-05  t[s]:    211.82
	FillingsUpdate:  mu: -0.103606902  nElectrons: 3.000000  magneticMoment: [ Abs: 0.52001  Tot: +0.52000 ]
SCF: Cycle: 35   F: -7.047120830470046   dF: +4.503e-10   |Residual|: 7.116e-06   |deigs|: 2.251e-05  t[s]:    217.40
	FillingsUpdate:  mu: -0.103605764  nElectrons: 3.000000  magneticMoment: [ Abs: 0.52000  Tot: +0.52000 ]
SCF: Cycle: 36   F: -7.047120837379492   dF: -6.909e-09   |Residual|: 5.097e-06   |deigs|: 2.080e-05  t[s]:    223.00
	FillingsUpdate:  mu: -0.103604037  nElectrons: 3.000000  magneticMoment: [ Abs: 0.52000  Tot: +0.52000 ]
SCF: Cycle: 37   F: -7.047120846246766   dF: -8.867e-09   |Residual|: 3.692e-06   |deigs|: 1.943e-05  t[s]:    228.53
SCF: Converged (|Delta E|<1.000000e-08 for 2 iters).


# Ionic positions in lattice coordinates:
ion Li   0.000000000000000   0.000000000000000   0.000000000000000 0

# Forces in Lattice coordinates:
force Li  -0.000000000000000   0.000000000000000   0.000000000000000 0

# Energy components:
   Eewald =       -1.0026681166851483
       EH =        2.5519566334807262
     Eloc =       -8.2311142918474349
      Enl =       -3.6041884701784288
   Epulay =        0.0000051497655618
      Exc =       -1.5381902992354086
       KE =        4.7770804016030439
-------------------------------------
     Etot =       -7.0471189930970883
       TS =        0.0000018531496782
-------------------------------------
        F =       -7.0471208462467665

IonicMinimize: Iter:   0  F: -7.047120846246766  |grad|_K:  0.000e+00  t[s]:    228.77
IonicMinimize: Converged (|grad|_K<1.000000e-04).

#--- Lowdin population analysis ---
# oxidation-state Li +2.075
# magnetic-moments Li +0.482

End date and time: Sat Feb  5 23:13:40 2022  (Duration: 0-0:03:48.81)
Done!
