The alkali metal is Li
scale=2
magnetization=-0.3
--------------------------------------------------------------------------
The library attempted to open the following supporting CUDA libraries,
but each of them failed.  CUDA-aware support is disabled.
libcuda.so.1: cannot open shared object file: No such file or directory
libcuda.dylib: cannot open shared object file: No such file or directory
/usr/lib64/libcuda.so.1: cannot open shared object file: No such file or directory
/usr/lib64/libcuda.dylib: cannot open shared object file: No such file or directory
If you are not interested in CUDA-aware support, then run with
--mca opal_warn_on_missing_libcuda 0 to suppress this message.  If you are interested
in CUDA-aware support, then try setting LD_LIBRARY_PATH to the location
of libcuda.so.1 to get passed this issue.
--------------------------------------------------------------------------
--------------------------------------------------------------------------
No OpenFabrics connection schemes reported that they were able to be
used on a specific port.  As such, the openib BTL (OpenFabrics
support) will be disabled for this port.

  Local host:           d-4-6-3
  Local device:         mlx5_1
  Local port:           1
  CPCs attempted:       rdmacm, udcm
--------------------------------------------------------------------------

*************** JDFTx 1.6.0 (git hash 42ebbcc2) ***************

Start date and time: Sat Feb  5 22:53:19 2022
Executable jdftx with command-line: -i Alkali.in
Running on hosts (process indices):  d-4-6-3 (0-18)
Divided in process groups (process indices):  0 (0)  1 (1)  2 (2)  3 (3)  4 (4)  5 (5)  6 (6)  7 (7)  8 (8)  9 (9)  10 (10)  11 (11)  12 (12)  13 (13)  14 (14)  15 (15)  16 (16)  17 (17)  18 (18)
Resource initialization completed at t[s]:      0.00
Run totals: 19 processes, 48 threads, 0 GPUs


Input parsed successfully to the following command list (including defaults):

basis kpoint-dependent
coords-type Lattice
core-overlap-check vector
coulomb-interaction Slab 001
davidson-band-ratio 1.1
dump End None
dump-name $INPUT.$VAR
elec-cutoff 20
elec-eigen-algo Davidson
elec-ex-corr gga-PBE
elec-initial-magnetization -0.300000 yes
elec-smearing Fermi 1e-05
electronic-minimize  \
	dirUpdateScheme      FletcherReeves \
	linminMethod         DirUpdateRecommended \
	nIterations          100 \
	history              15 \
	knormThreshold       0 \
	energyDiffThreshold  1e-08 \
	nEnergyDiff          2 \
	alphaTstart          1 \
	alphaTmin            1e-10 \
	updateTestStepSize   yes \
	alphaTreduceFactor   0.1 \
	alphaTincreaseFactor 3 \
	nAlphaAdjustMax      3 \
	wolfeEnergy          0.0001 \
	wolfeGradient        0.9 \
	fdTest               no
electronic-scf  \
	nIterations	10000 \
	energyDiffThreshold	1e-08 \
	residualThreshold	1e-07 \
	mixFraction	0.5 \
	qMetric	0.8 \
	history	10 \
	nEigSteps	2 \
	eigDiffThreshold	1e-08 \
	mixedVariable	Density \
	qKerker	0.8 \
	qKappa	-1 \
	verbose	no \
	mixFractionMag	1.5
exchange-regularization WignerSeitzTruncated
fluid None
fluid-ex-corr (null) lda-PZ
fluid-gummel-loop 10 1.000000e-05
fluid-minimize  \
	dirUpdateScheme      PolakRibiere \
	linminMethod         DirUpdateRecommended \
	nIterations          100 \
	history              15 \
	knormThreshold       0 \
	energyDiffThreshold  0 \
	nEnergyDiff          2 \
	alphaTstart          1 \
	alphaTmin            1e-10 \
	updateTestStepSize   yes \
	alphaTreduceFactor   0.1 \
	alphaTincreaseFactor 3 \
	nAlphaAdjustMax      3 \
	wolfeEnergy          0.0001 \
	wolfeGradient        0.9 \
	fdTest               no
fluid-solvent H2O 55.338 ScalarEOS \
	epsBulk 78.4 \
	pMol 0.92466 \
	epsInf 1.77 \
	Pvap 1.06736e-10 \
	sigmaBulk 4.62e-05 \
	Rvdw 2.61727 \
	Res 1.42 \
	tauNuc 343133 \
	poleEl 15 7 1
forces-output-coords Positions
ion Li   0.000000000000000   0.000000000000000   0.000000000000000 0
ion-species SG15/$ID_ONCV_PBE.upf
ion-width 0
ionic-minimize  \
	dirUpdateScheme      L-BFGS \
	linminMethod         DirUpdateRecommended \
	nIterations          0 \
	history              15 \
	knormThreshold       0.0001 \
	energyDiffThreshold  1e-06 \
	nEnergyDiff          2 \
	alphaTstart          1 \
	alphaTmin            1e-10 \
	updateTestStepSize   yes \
	alphaTreduceFactor   0.1 \
	alphaTincreaseFactor 3 \
	nAlphaAdjustMax      3 \
	wolfeEnergy          0.0001 \
	wolfeGradient        0.9 \
	fdTest               no
kpoint   0.000000000000   0.000000000000   0.000000000000  1.00000000000000
kpoint-folding 12 12 1 
latt-move-scale 1 1 1
latt-scale 2 2 1 
lattice  \
	   4.727486978767153   -2.363743489383575    0.000000000000000  \
	  -0.000000000000000    4.094123819672498    0.000000000000000  \
	   0.000000000000000    0.000000000000000   40.000000000000000 
lattice-minimize  \
	dirUpdateScheme      L-BFGS \
	linminMethod         DirUpdateRecommended \
	nIterations          0 \
	history              15 \
	knormThreshold       0 \
	energyDiffThreshold  1e-06 \
	nEnergyDiff          2 \
	alphaTstart          1 \
	alphaTmin            1e-10 \
	updateTestStepSize   yes \
	alphaTreduceFactor   0.1 \
	alphaTincreaseFactor 3 \
	nAlphaAdjustMax      3 \
	wolfeEnergy          0.0001 \
	wolfeGradient        0.9 \
	fdTest               no
lcao-params -1 1e-06 1e-05
pcm-variant GLSSA13
spintype z-spin
subspace-rotation-factor 1 yes
symmetries automatic
symmetry-threshold 0.0001



---------- Setting up symmetries ----------

Found 24 point-group symmetries of the bravais lattice
Found 24 space-group symmetries with basis
Applied RMS atom displacement 0 bohrs to make symmetries exact.

---------- Initializing the Grid ----------
R = 
[      9.45497     -4.72749            0  ]
[            0      8.18825            0  ]
[            0            0           40  ]
unit cell volume = 3096.79
G =
[   0.664538   0.383671         -0  ]
[          0   0.767342         -0  ]
[         -0         -0    0.15708  ]
Minimum fftbox size, Smin = [  40  40  164  ]
Chosen fftbox size, S = [  40  40  168  ]

---------- Exchange Correlation functional ----------
Initalized PBE GGA exchange.
Initalized PBE GGA correlation.

---------- Setting up pseudopotentials ----------
Width of ionic core gaussian charges (only for fluid interactions / plotting) set to 0

Reading pseudopotential file '/home/gridsan/aligho/DFT/build-Nov24/pseudopotentials/SG15/Li_ONCV_PBE.upf':
  'Li' pseudopotential, 'PBE' functional
  Generated using ONCVPSP code by D. R. Hamann
  Author: Martin Schlipf and Francois Gygi  Date: 150915.
  3 valence electrons, 2 orbitals, 4 projectors, 1328 radial grid points, with lMax = 1
  Transforming local potential to a uniform radial grid of dG=0.02 with 1489 points.
  Transforming nonlocal projectors to a uniform radial grid of dG=0.02 with 432 points.
    1S    l: 0   occupation:  2.0   eigenvalue: -1.905623
    2S    l: 0   occupation:  1.0   eigenvalue: -0.105624
  Transforming atomic orbitals to a uniform radial grid of dG=0.02 with 432 points.
  WARNING: large normalization error in atomic orbital 1s (integral: 0.000000).
  Core radius for overlap checks: 1.63 bohrs.
  Reading pulay file /home/gridsan/aligho/DFT/build-Nov24/pseudopotentials/SG15/Li_ONCV_PBE.pulay ... using dE_dnG = -1.230239e-02 computed for Ecut = 20.

Initialized 1 species with 1 total atoms.

Folded 1 k-points by 12x12x1 to 144 k-points.

---------- Setting up k-points, bands, fillings ----------
Reduced to 19 k-points under symmetry. 
Computing the number of bands and number of electrons
Calculating initial fillings.
nElectrons:   3.000000   nBands: 3   nStates: 38

----- Setting up reduced wavefunction bases (one per k-point) -----
average nbasis = 13230.521 , ideal nbasis = 13229.709

---------- Setting up coulomb interaction ----------
Initialized slab truncation along lattice direction 001

---------- Setting up 2D ewald sum ----------
Optimum gaussian width for ewald sums = 5.249020 bohr.
Real space sums over 289 unit cells with max indices [  8  8  0  ]
Reciprocal space sums over 81 terms with max indices [  4  4  0  ]

---------- Allocating electronic variables ----------
Initializing wave functions:  linear combination of atomic orbitals
Note: number of bands (3) exceeds available atomic orbitals (2)
Li pseudo-atom occupations:   s ( 2 1 )
	FillingsUpdate:  mu: +0.325390550  nElectrons: 3.000000  magneticMoment: [ Abs: 0.30079  Tot: -0.30000 ]
LCAOMinimize: Iter:   0  F: -1.1818244839374270  |grad|_K:  7.390e-05  alpha:  1.000e+00
	FillingsUpdate:  mu: +0.325389099  nElectrons: 3.000000  magneticMoment: [ Abs: 0.30079  Tot: -0.30000 ]
[d-4-6-3:54658] 18 more processes have sent help message help-mpi-common-cuda.txt / dlopen failed
LCAOMinimize: Iter:   1  F: -1.1818254584342016  |grad|_K:  1.857e-06  alpha:  1.043e+00  linmin: -1.838e-03  cgtest:  2.782e-02  t[s]:      3.88
LCAOMinimize: Encountered beta<0, resetting CG.
[d-4-6-3:54658] Set MCA parameter "orte_base_help_aggregate" to 0 to see all help / error messages
[d-4-6-3:54658] 18 more processes have sent help message help-mpi-btl-openib-cpc-base.txt / no cpcs for port
	FillingsUpdate:  mu: +0.325389104  nElectrons: 3.000000  magneticMoment: [ Abs: 0.30079  Tot: -0.30000 ]
LCAOMinimize: Iter:   2  F: -1.1818254590347435  |grad|_K:  5.724e-08  alpha:  1.019e+00  linmin:  1.107e-03  cgtest: -2.845e-02  t[s]:      4.92
LCAOMinimize: Converged (|Delta F|<1.000000e-06 for 2 iters).


---- Citations for features of the code used in this run ----

   Software package:
      R. Sundararaman, K. Letchworth-Weaver, K.A. Schwarz, D. Gunceler, Y. Ozhabes and T.A. Arias, 'JDFTx: software for joint density-functional theory', SoftwareX 6, 278 (2017)

   gga-PBE exchange-correlation functional:
      J.P. Perdew, K. Burke and M. Ernzerhof, Phys. Rev. Lett. 77, 3865 (1996)

   Pseudopotentials:
      M Schlipf and F Gygi, Comput. Phys. Commun. 196, 36 (2015)

   Truncated Coulomb potentials:
      R. Sundararaman and T.A. Arias, Phys. Rev. B 87, 165122 (2013)

This list may not be complete. Please suggest additional citations or
report any other bugs at https://github.com/shankar1729/jdftx/issues

Initialization completed successfully at t[s]:      4.98


-------- Electronic minimization -----------
Will mix electronic density at each iteration.
	FillingsUpdate:  mu: +0.325389104  nElectrons: 3.000000  magneticMoment: [ Abs: 0.30079  Tot: -0.30000 ]
	FillingsUpdate:  mu: -0.971301268  nElectrons: 3.000000  magneticMoment: [ Abs: 0.30079  Tot: -0.30000 ]
SCF: Cycle:  0   F: -6.832127126569423   dF: -5.650e+00   |Residual|: 1.172e+00   |deigs|: 4.171e+00  t[s]:      6.73
	FillingsUpdate:  mu: -0.855057610  nElectrons: 3.000000  magneticMoment: [ Abs: 0.45624  Tot: -0.30000 ]
SCF: Cycle:  1   F: -6.937793484029990   dF: -1.057e-01   |Residual|: 7.737e-01   |deigs|: 2.351e-01  t[s]:      8.04
	FillingsUpdate:  mu: -0.629918160  nElectrons: 3.000000  magneticMoment: [ Abs: 0.59358  Tot: -0.30000 ]
SCF: Cycle:  2   F: -7.050309493237382   dF: -1.125e-01   |Residual|: 4.221e-01   |deigs|: 7.792e-01  t[s]:      9.41
	FillingsUpdate:  mu: -0.654502637  nElectrons: 3.000000  magneticMoment: [ Abs: 0.50443  Tot: -0.30000 ]
SCF: Cycle:  3   F: -7.057712097143654   dF: -7.403e-03   |Residual|: 2.104e-01   |deigs|: 1.235e-01  t[s]:     10.75
	FillingsUpdate:  mu: -0.620297867  nElectrons: 3.000000  magneticMoment: [ Abs: 0.39124  Tot: -0.30000 ]
SCF: Cycle:  4   F: -7.056373121629536   dF: +1.339e-03   |Residual|: 3.884e-02   |deigs|: 3.445e-02  t[s]:     12.23
	FillingsUpdate:  mu: -0.588391032  nElectrons: 3.000000  magneticMoment: [ Abs: 0.37888  Tot: -0.30000 ]
SCF: Cycle:  5   F: -7.055337888181379   dF: +1.035e-03   |Residual|: 1.452e-01   |deigs|: 2.637e-02  t[s]:     13.61
	FillingsUpdate:  mu: -0.468854633  nElectrons: 3.000000  magneticMoment: [ Abs: 0.44894  Tot: -0.30000 ]
SCF: Cycle:  6   F: -7.060047310602537   dF: -4.709e-03   |Residual|: 1.038e-01   |deigs|: 1.497e-01  t[s]:     15.09
	FillingsUpdate:  mu: -0.416001564  nElectrons: 3.000000  magneticMoment: [ Abs: 0.38862  Tot: -0.30000 ]
SCF: Cycle:  7   F: -7.061033256970060   dF: -9.859e-04   |Residual|: 1.614e-01   |deigs|: 1.232e-01  t[s]:     16.56
	FillingsUpdate:  mu: -0.385307804  nElectrons: 3.000000  magneticMoment: [ Abs: 0.36792  Tot: -0.30000 ]
SCF: Cycle:  8   F: -7.063240495755066   dF: -2.207e-03   |Residual|: 6.214e-02   |deigs|: 3.179e-02  t[s]:     18.03
	FillingsUpdate:  mu: -0.330127943  nElectrons: 3.000000  magneticMoment: [ Abs: 0.40343  Tot: -0.30000 ]
SCF: Cycle:  9   F: -7.064310956968377   dF: -1.070e-03   |Residual|: 1.844e-01   |deigs|: 7.790e-02  t[s]:     19.56
	FillingsUpdate:  mu: -0.307782044  nElectrons: 3.000000  magneticMoment: [ Abs: 0.39972  Tot: -0.30000 ]
SCF: Cycle: 10   F: -7.064474050558020   dF: -1.631e-04   |Residual|: 1.822e-01   |deigs|: 2.213e-02  t[s]:     21.09
	FillingsUpdate:  mu: -0.245120775  nElectrons: 3.000000  magneticMoment: [ Abs: 0.39841  Tot: -0.30000 ]
SCF: Cycle: 11   F: -7.066632774281281   dF: -2.159e-03   |Residual|: 1.527e-02   |deigs|: 1.179e-01  t[s]:     22.69
	FillingsUpdate:  mu: -0.217030181  nElectrons: 3.000000  magneticMoment: [ Abs: 0.39941  Tot: -0.30000 ]
SCF: Cycle: 12   F: -7.066858429023784   dF: -2.257e-04   |Residual|: 1.422e-02   |deigs|: 2.689e-02  t[s]:     24.21
	FillingsUpdate:  mu: -0.183173610  nElectrons: 3.000000  magneticMoment: [ Abs: 0.38495  Tot: -0.30000 ]
SCF: Cycle: 13   F: -7.067118202480510   dF: -2.598e-04   |Residual|: 1.217e-02   |deigs|: 3.572e-02  t[s]:     25.74
	FillingsUpdate:  mu: -0.140652163  nElectrons: 3.000000  magneticMoment: [ Abs: 0.36159  Tot: -0.30000 ]
SCF: Cycle: 14   F: -7.067105759954908   dF: +1.244e-05   |Residual|: 9.078e-03   |deigs|: 4.534e-02  t[s]:     27.30
	FillingsUpdate:  mu: -0.132502003  nElectrons: 3.000000  magneticMoment: [ Abs: 0.34787  Tot: -0.30000 ]
SCF: Cycle: 15   F: -7.067182011599508   dF: -7.625e-05   |Residual|: 6.821e-03   |deigs|: 6.516e-03  t[s]:     28.80
	FillingsUpdate:  mu: -0.122906067  nElectrons: 3.000000  magneticMoment: [ Abs: 0.33396  Tot: -0.30000 ]
SCF: Cycle: 16   F: -7.067306976583611   dF: -1.250e-04   |Residual|: 4.383e-03   |deigs|: 8.717e-03  t[s]:     30.41
	FillingsUpdate:  mu: -0.117437029  nElectrons: 3.000000  magneticMoment: [ Abs: 0.32089  Tot: -0.30000 ]
SCF: Cycle: 17   F: -7.067384672400036   dF: -7.770e-05   |Residual|: 3.057e-03   |deigs|: 5.616e-03  t[s]:     31.96
	FillingsUpdate:  mu: -0.113908990  nElectrons: 3.000000  magneticMoment: [ Abs: 0.31676  Tot: -0.30000 ]
SCF: Cycle: 18   F: -7.067432683801684   dF: -4.801e-05   |Residual|: 1.796e-03   |deigs|: 4.132e-03  t[s]:     33.47
	FillingsUpdate:  mu: -0.113194768  nElectrons: 3.000000  magneticMoment: [ Abs: 0.31336  Tot: -0.30000 ]
SCF: Cycle: 19   F: -7.067446890275434   dF: -1.421e-05   |Residual|: 1.182e-03   |deigs|: 1.003e-03  t[s]:     35.02
	FillingsUpdate:  mu: -0.112182236  nElectrons: 3.000000  magneticMoment: [ Abs: 0.31067  Tot: -0.30000 ]
SCF: Cycle: 20   F: -7.067460632344652   dF: -1.374e-05   |Residual|: 6.407e-04   |deigs|: 1.007e-03  t[s]:     36.59
	FillingsUpdate:  mu: -0.111738971  nElectrons: 3.000000  magneticMoment: [ Abs: 0.30880  Tot: -0.30000 ]
SCF: Cycle: 21   F: -7.067464075639866   dF: -3.443e-06   |Residual|: 4.175e-04   |deigs|: 4.054e-04  t[s]:     38.11
	FillingsUpdate:  mu: -0.111160053  nElectrons: 3.000000  magneticMoment: [ Abs: 0.30752  Tot: -0.30000 ]
SCF: Cycle: 22   F: -7.067464762288646   dF: -6.866e-07   |Residual|: 2.852e-04   |deigs|: 5.741e-04  t[s]:     39.71
	FillingsUpdate:  mu: -0.110697086  nElectrons: 3.000000  magneticMoment: [ Abs: 0.30625  Tot: -0.30000 ]
SCF: Cycle: 23   F: -7.067465972560405   dF: -1.210e-06   |Residual|: 2.336e-04   |deigs|: 4.883e-04  t[s]:     41.36
	FillingsUpdate:  mu: -0.110360696  nElectrons: 3.000000  magneticMoment: [ Abs: 0.30453  Tot: -0.30000 ]
SCF: Cycle: 24   F: -7.067466184045978   dF: -2.115e-07   |Residual|: 1.970e-04   |deigs|: 3.906e-04  t[s]:     42.90
	FillingsUpdate:  mu: -0.110058885  nElectrons: 3.000000  magneticMoment: [ Abs: 0.30260  Tot: -0.30000 ]
SCF: Cycle: 25   F: -7.067466394550402   dF: -2.105e-07   |Residual|: 1.677e-04   |deigs|: 3.268e-04  t[s]:     44.42
	FillingsUpdate:  mu: -0.110090018  nElectrons: 3.000000  magneticMoment: [ Abs: 0.30165  Tot: -0.30000 ]
SCF: Cycle: 26   F: -7.067466668065657   dF: -2.735e-07   |Residual|: 1.333e-04   |deigs|: 4.062e-05  t[s]:     45.99
	FillingsUpdate:  mu: -0.110184516  nElectrons: 3.000000  magneticMoment: [ Abs: 0.30088  Tot: -0.30000 ]
SCF: Cycle: 27   F: -7.067466707901993   dF: -3.984e-08   |Residual|: 1.019e-04   |deigs|: 1.135e-04  t[s]:     47.49
	FillingsUpdate:  mu: -0.110304937  nElectrons: 3.000000  magneticMoment: [ Abs: 0.30049  Tot: -0.30000 ]
SCF: Cycle: 28   F: -7.067466751512395   dF: -4.361e-08   |Residual|: 7.799e-05   |deigs|: 1.416e-04  t[s]:     48.99
	FillingsUpdate:  mu: -0.110460108  nElectrons: 3.000000  magneticMoment: [ Abs: 0.30025  Tot: -0.30000 ]
SCF: Cycle: 29   F: -7.067466780691443   dF: -2.918e-08   |Residual|: 6.684e-05   |deigs|: 1.736e-04  t[s]:     50.52
	FillingsUpdate:  mu: -0.110734810  nElectrons: 3.000000  magneticMoment: [ Abs: 0.30009  Tot: -0.30000 ]
SCF: Cycle: 30   F: -7.067466809854922   dF: -2.916e-08   |Residual|: 5.400e-05   |deigs|: 2.931e-04  t[s]:     52.02
	FillingsUpdate:  mu: -0.110932058  nElectrons: 3.000000  magneticMoment: [ Abs: 0.30004  Tot: -0.30000 ]
SCF: Cycle: 31   F: -7.067466892322469   dF: -8.247e-08   |Residual|: 4.005e-05   |deigs|: 2.062e-04  t[s]:     53.51
	FillingsUpdate:  mu: -0.110991635  nElectrons: 3.000000  magneticMoment: [ Abs: 0.30001  Tot: -0.30000 ]
SCF: Cycle: 32   F: -7.067466908571051   dF: -1.625e-08   |Residual|: 2.872e-05   |deigs|: 7.664e-05  t[s]:     54.98
	FillingsUpdate:  mu: -0.111020283  nElectrons: 3.000000  magneticMoment: [ Abs: 0.30000  Tot: -0.30000 ]
SCF: Cycle: 33   F: -7.067466913057615   dF: -4.487e-09   |Residual|: 2.019e-05   |deigs|: 6.365e-05  t[s]:     56.49
	FillingsUpdate:  mu: -0.111041582  nElectrons: 3.000000  magneticMoment: [ Abs: 0.30000  Tot: -0.30000 ]
SCF: Cycle: 34   F: -7.067466914094754   dF: -1.037e-09   |Residual|: 1.398e-05   |deigs|: 6.354e-05  t[s]:     58.01
SCF: Converged (|Delta E|<1.000000e-08 for 2 iters).


# Ionic positions in lattice coordinates:
ion Li   0.000000000000000   0.000000000000000   0.000000000000000 0

# Forces in Lattice coordinates:
force Li   0.000000000000000   0.000000000000000   0.000000000000000 0

# Energy components:
   Eewald =       -2.0053362333702967
       EH =        1.5296141985285610
     Eloc =       -6.1905459606491764
      Enl =       -3.5904086362685770
   Epulay =        0.0000032255226020
      Exc =       -1.5379660322969990
       KE =        4.7271733642627014
-------------------------------------
     Etot =       -7.0674660742711852
       TS =        0.0000008398235688
-------------------------------------
        F =       -7.0674669140947541

IonicMinimize: Iter:   0  F: -7.067466914094754  |grad|_K:  0.000e+00  t[s]:     58.08
IonicMinimize: Converged (|grad|_K<1.000000e-04).

#--- Lowdin population analysis ---
# oxidation-state Li +2.172
# magnetic-moments Li -0.208

End date and time: Sat Feb  5 22:54:17 2022  (Duration: 0-0:00:58.10)
Done!
scale=3
magnetization=-0.3
--------------------------------------------------------------------------
The library attempted to open the following supporting CUDA libraries,
but each of them failed.  CUDA-aware support is disabled.
libcuda.so.1: cannot open shared object file: No such file or directory
libcuda.dylib: cannot open shared object file: No such file or directory
/usr/lib64/libcuda.so.1: cannot open shared object file: No such file or directory
/usr/lib64/libcuda.dylib: cannot open shared object file: No such file or directory
If you are not interested in CUDA-aware support, then run with
--mca opal_warn_on_missing_libcuda 0 to suppress this message.  If you are interested
in CUDA-aware support, then try setting LD_LIBRARY_PATH to the location
of libcuda.so.1 to get passed this issue.
--------------------------------------------------------------------------
--------------------------------------------------------------------------
No OpenFabrics connection schemes reported that they were able to be
used on a specific port.  As such, the openib BTL (OpenFabrics
support) will be disabled for this port.

  Local host:           d-4-6-3
  Local device:         mlx5_1
  Local port:           1
  CPCs attempted:       rdmacm, udcm
--------------------------------------------------------------------------

*************** JDFTx 1.6.0 (git hash 42ebbcc2) ***************

Start date and time: Sat Feb  5 22:54:23 2022
Executable jdftx with command-line: -i Alkali.in
Running on hosts (process indices):  d-4-6-3 (0-18)
Divided in process groups (process indices):  0 (0)  1 (1)  2 (2)  3 (3)  4 (4)  5 (5)  6 (6)  7 (7)  8 (8)  9 (9)  10 (10)  11 (11)  12 (12)  13 (13)  14 (14)  15 (15)  16 (16)  17 (17)  18 (18)
Resource initialization completed at t[s]:      0.00
Run totals: 19 processes, 48 threads, 0 GPUs


Input parsed successfully to the following command list (including defaults):

basis kpoint-dependent
coords-type Lattice
core-overlap-check vector
coulomb-interaction Slab 001
davidson-band-ratio 1.1
dump End None
dump-name $INPUT.$VAR
elec-cutoff 20
elec-eigen-algo Davidson
elec-ex-corr gga-PBE
elec-initial-magnetization -0.300000 yes
elec-smearing Fermi 1e-05
electronic-minimize  \
	dirUpdateScheme      FletcherReeves \
	linminMethod         DirUpdateRecommended \
	nIterations          100 \
	history              15 \
	knormThreshold       0 \
	energyDiffThreshold  1e-08 \
	nEnergyDiff          2 \
	alphaTstart          1 \
	alphaTmin            1e-10 \
	updateTestStepSize   yes \
	alphaTreduceFactor   0.1 \
	alphaTincreaseFactor 3 \
	nAlphaAdjustMax      3 \
	wolfeEnergy          0.0001 \
	wolfeGradient        0.9 \
	fdTest               no
electronic-scf  \
	nIterations	10000 \
	energyDiffThreshold	1e-08 \
	residualThreshold	1e-07 \
	mixFraction	0.5 \
	qMetric	0.8 \
	history	10 \
	nEigSteps	2 \
	eigDiffThreshold	1e-08 \
	mixedVariable	Density \
	qKerker	0.8 \
	qKappa	-1 \
	verbose	no \
	mixFractionMag	1.5
exchange-regularization WignerSeitzTruncated
fluid None
fluid-ex-corr (null) lda-PZ
fluid-gummel-loop 10 1.000000e-05
fluid-minimize  \
	dirUpdateScheme      PolakRibiere \
	linminMethod         DirUpdateRecommended \
	nIterations          100 \
	history              15 \
	knormThreshold       0 \
	energyDiffThreshold  0 \
	nEnergyDiff          2 \
	alphaTstart          1 \
	alphaTmin            1e-10 \
	updateTestStepSize   yes \
	alphaTreduceFactor   0.1 \
	alphaTincreaseFactor 3 \
	nAlphaAdjustMax      3 \
	wolfeEnergy          0.0001 \
	wolfeGradient        0.9 \
	fdTest               no
fluid-solvent H2O 55.338 ScalarEOS \
	epsBulk 78.4 \
	pMol 0.92466 \
	epsInf 1.77 \
	Pvap 1.06736e-10 \
	sigmaBulk 4.62e-05 \
	Rvdw 2.61727 \
	Res 1.42 \
	tauNuc 343133 \
	poleEl 15 7 1
forces-output-coords Positions
ion Li   0.000000000000000   0.000000000000000   0.000000000000000 0
ion-species SG15/$ID_ONCV_PBE.upf
ion-width 0
ionic-minimize  \
	dirUpdateScheme      L-BFGS \
	linminMethod         DirUpdateRecommended \
	nIterations          0 \
	history              15 \
	knormThreshold       0.0001 \
	energyDiffThreshold  1e-06 \
	nEnergyDiff          2 \
	alphaTstart          1 \
	alphaTmin            1e-10 \
	updateTestStepSize   yes \
	alphaTreduceFactor   0.1 \
	alphaTincreaseFactor 3 \
	nAlphaAdjustMax      3 \
	wolfeEnergy          0.0001 \
	wolfeGradient        0.9 \
	fdTest               no
kpoint   0.000000000000   0.000000000000   0.000000000000  1.00000000000000
kpoint-folding 12 12 1 
latt-move-scale 1 1 1
latt-scale 3 3 1 
lattice  \
	   4.727486978767153   -2.363743489383575    0.000000000000000  \
	  -0.000000000000000    4.094123819672498    0.000000000000000  \
	   0.000000000000000    0.000000000000000   40.000000000000000 
lattice-minimize  \
	dirUpdateScheme      L-BFGS \
	linminMethod         DirUpdateRecommended \
	nIterations          0 \
	history              15 \
	knormThreshold       0 \
	energyDiffThreshold  1e-06 \
	nEnergyDiff          2 \
	alphaTstart          1 \
	alphaTmin            1e-10 \
	updateTestStepSize   yes \
	alphaTreduceFactor   0.1 \
	alphaTincreaseFactor 3 \
	nAlphaAdjustMax      3 \
	wolfeEnergy          0.0001 \
	wolfeGradient        0.9 \
	fdTest               no
lcao-params -1 1e-06 1e-05
pcm-variant GLSSA13
spintype z-spin
subspace-rotation-factor 1 yes
symmetries automatic
symmetry-threshold 0.0001



---------- Setting up symmetries ----------

Found 24 point-group symmetries of the bravais lattice
Found 24 space-group symmetries with basis
Applied RMS atom displacement 0 bohrs to make symmetries exact.

---------- Initializing the Grid ----------
R = 
[      14.1825     -7.09123            0  ]
[            0      12.2824            0  ]
[            0            0           40  ]
unit cell volume = 6967.77
G =
[   0.443025   0.255781         -0  ]
[          0   0.511561         -0  ]
[         -0         -0    0.15708  ]
Minimum fftbox size, Smin = [  60  60  164  ]
Chosen fftbox size, S = [  60  60  168  ]

---------- Exchange Correlation functional ----------
Initalized PBE GGA exchange.
Initalized PBE GGA correlation.

---------- Setting up pseudopotentials ----------
Width of ionic core gaussian charges (only for fluid interactions / plotting) set to 0

Reading pseudopotential file '/home/gridsan/aligho/DFT/build-Nov24/pseudopotentials/SG15/Li_ONCV_PBE.upf':
  'Li' pseudopotential, 'PBE' functional
  Generated using ONCVPSP code by D. R. Hamann
  Author: Martin Schlipf and Francois Gygi  Date: 150915.
  3 valence electrons, 2 orbitals, 4 projectors, 1328 radial grid points, with lMax = 1
  Transforming local potential to a uniform radial grid of dG=0.02 with 1489 points.
  Transforming nonlocal projectors to a uniform radial grid of dG=0.02 with 432 points.
    1S    l: 0   occupation:  2.0   eigenvalue: -1.905623
    2S    l: 0   occupation:  1.0   eigenvalue: -0.105624
  Transforming atomic orbitals to a uniform radial grid of dG=0.02 with 432 points.
  WARNING: large normalization error in atomic orbital 1s (integral: 0.000000).
  Core radius for overlap checks: 1.63 bohrs.
  Reading pulay file /home/gridsan/aligho/DFT/build-Nov24/pseudopotentials/SG15/Li_ONCV_PBE.pulay ... using dE_dnG = -1.230239e-02 computed for Ecut = 20.

Initialized 1 species with 1 total atoms.

Folded 1 k-points by 12x12x1 to 144 k-points.

---------- Setting up k-points, bands, fillings ----------
Reduced to 19 k-points under symmetry. 
Computing the number of bands and number of electrons
Calculating initial fillings.
nElectrons:   3.000000   nBands: 3   nStates: 38

----- Setting up reduced wavefunction bases (one per k-point) -----
average nbasis = 29766.104 , ideal nbasis = 29766.845

---------- Setting up coulomb interaction ----------
Initialized slab truncation along lattice direction 001

---------- Setting up 2D ewald sum ----------
Optimum gaussian width for ewald sums = 7.873530 bohr.
Real space sums over 289 unit cells with max indices [  8  8  0  ]
Reciprocal space sums over 81 terms with max indices [  4  4  0  ]

---------- Allocating electronic variables ----------
Initializing wave functions:  linear combination of atomic orbitals
Note: number of bands (3) exceeds available atomic orbitals (2)
Li pseudo-atom occupations:   s ( 2 1 )
[d-4-6-3:34005] 18 more processes have sent help message help-mpi-common-cuda.txt / dlopen failed
[d-4-6-3:34005] Set MCA parameter "orte_base_help_aggregate" to 0 to see all help / error messages
[d-4-6-3:34005] 18 more processes have sent help message help-mpi-btl-openib-cpc-base.txt / no cpcs for port
	FillingsUpdate:  mu: +0.350413365  nElectrons: 3.000000  magneticMoment: [ Abs: 0.30085  Tot: -0.30000 ]
LCAOMinimize: Iter:   0  F: -1.2880926309813006  |grad|_K:  4.796e-05  alpha:  1.000e+00
	FillingsUpdate:  mu: +0.350412855  nElectrons: 3.000000  magneticMoment: [ Abs: 0.30085  Tot: -0.30000 ]
LCAOMinimize: Iter:   1  F: -1.2880930468055465  |grad|_K:  4.789e-07  alpha:  1.057e+00  linmin: -1.052e-03  cgtest:  9.404e-03  t[s]:      7.57
	FillingsUpdate:  mu: +0.350412857  nElectrons: 3.000000  magneticMoment: [ Abs: 0.30085  Tot: -0.30000 ]
LCAOMinimize: Iter:   2  F: -1.2880930468440777  |grad|_K:  1.620e-08  alpha:  9.707e-01  linmin: -1.919e-02  cgtest:  9.379e-01  t[s]:      9.59
LCAOMinimize: Encountered beta<0, resetting CG.
LCAOMinimize: Converged (|Delta F|<1.000000e-06 for 2 iters).


---- Citations for features of the code used in this run ----

   Software package:
      R. Sundararaman, K. Letchworth-Weaver, K.A. Schwarz, D. Gunceler, Y. Ozhabes and T.A. Arias, 'JDFTx: software for joint density-functional theory', SoftwareX 6, 278 (2017)

   gga-PBE exchange-correlation functional:
      J.P. Perdew, K. Burke and M. Ernzerhof, Phys. Rev. Lett. 77, 3865 (1996)

   Pseudopotentials:
      M Schlipf and F Gygi, Comput. Phys. Commun. 196, 36 (2015)

   Truncated Coulomb potentials:
      R. Sundararaman and T.A. Arias, Phys. Rev. B 87, 165122 (2013)

This list may not be complete. Please suggest additional citations or
report any other bugs at https://github.com/shankar1729/jdftx/issues

Initialization completed successfully at t[s]:      9.69


-------- Electronic minimization -----------
Will mix electronic density at each iteration.
	FillingsUpdate:  mu: +0.350412857  nElectrons: 3.000000  magneticMoment: [ Abs: 0.30085  Tot: -0.30000 ]
	FillingsUpdate:  mu: -0.694382001  nElectrons: 3.000000  magneticMoment: [ Abs: 0.30085  Tot: -0.30000 ]
SCF: Cycle:  0   F: -6.871955833113631   dF: -5.584e+00   |Residual|: 1.224e+00   |deigs|: 4.156e+00  t[s]:     13.20
	FillingsUpdate:  mu: -0.575479096  nElectrons: 3.000000  magneticMoment: [ Abs: 0.47548  Tot: -0.30000 ]
SCF: Cycle:  1   F: -6.916412944106823   dF: -4.446e-02   |Residual|: 7.620e-01   |deigs|: 2.730e-01  t[s]:     15.89
	FillingsUpdate:  mu: -0.341310962  nElectrons: 3.000000  magneticMoment: [ Abs: 0.65276  Tot: -0.30000 ]
SCF: Cycle:  2   F: -7.039311558963017   dF: -1.229e-01   |Residual|: 3.288e-01   |deigs|: 7.129e-01  t[s]:     18.72
	FillingsUpdate:  mu: -0.358744542  nElectrons: 3.000000  magneticMoment: [ Abs: 0.62676  Tot: -0.30000 ]
SCF: Cycle:  3   F: -7.041228820921900   dF: -1.917e-03   |Residual|: 1.853e-01   |deigs|: 7.985e-02  t[s]:     21.64
	FillingsUpdate:  mu: -0.328046028  nElectrons: 3.000000  magneticMoment: [ Abs: 0.63085  Tot: -0.30000 ]
SCF: Cycle:  4   F: -7.040568230497543   dF: +6.606e-04   |Residual|: 5.285e-02   |deigs|: 2.573e-02  t[s]:     24.53
	FillingsUpdate:  mu: -0.314467500  nElectrons: 3.000000  magneticMoment: [ Abs: 0.57764  Tot: -0.30000 ]
SCF: Cycle:  5   F: -7.040030313555866   dF: +5.379e-04   |Residual|: 1.228e-01   |deigs|: 1.330e-02  t[s]:     27.51
	FillingsUpdate:  mu: -0.242284665  nElectrons: 3.000000  magneticMoment: [ Abs: 0.43865  Tot: -0.30000 ]
SCF: Cycle:  6   F: -7.045355120579873   dF: -5.325e-03   |Residual|: 5.357e-02   |deigs|: 1.430e-01  t[s]:     30.55
	FillingsUpdate:  mu: -0.230988362  nElectrons: 3.000000  magneticMoment: [ Abs: 0.39694  Tot: -0.30000 ]
SCF: Cycle:  7   F: -7.045365090618721   dF: -9.970e-06   |Residual|: 1.393e-01   |deigs|: 4.167e-02  t[s]:     33.67
	FillingsUpdate:  mu: -0.234769587  nElectrons: 3.000000  magneticMoment: [ Abs: 0.37288  Tot: -0.30000 ]
SCF: Cycle:  8   F: -7.045534848628672   dF: -1.698e-04   |Residual|: 9.968e-02   |deigs|: 1.980e-02  t[s]:     36.85
	FillingsUpdate:  mu: -0.219164669  nElectrons: 3.000000  magneticMoment: [ Abs: 0.37507  Tot: -0.30000 ]
SCF: Cycle:  9   F: -7.046146719873292   dF: -6.119e-04   |Residual|: 8.430e-02   |deigs|: 6.586e-02  t[s]:     40.18
	FillingsUpdate:  mu: -0.206629168  nElectrons: 3.000000  magneticMoment: [ Abs: 0.38777  Tot: -0.30000 ]
SCF: Cycle: 10   F: -7.046225436369075   dF: -7.872e-05   |Residual|: 1.004e-01   |deigs|: 1.474e-02  t[s]:     43.45
	FillingsUpdate:  mu: -0.174635461  nElectrons: 3.000000  magneticMoment: [ Abs: 0.40055  Tot: -0.30000 ]
SCF: Cycle: 11   F: -7.047364736321013   dF: -1.139e-03   |Residual|: 1.862e-02   |deigs|: 6.311e-02  t[s]:     46.74
	FillingsUpdate:  mu: -0.163288931  nElectrons: 3.000000  magneticMoment: [ Abs: 0.40275  Tot: -0.30000 ]
SCF: Cycle: 12   F: -7.047540425960467   dF: -1.757e-04   |Residual|: 9.912e-03   |deigs|: 9.662e-03  t[s]:     50.00
	FillingsUpdate:  mu: -0.144177454  nElectrons: 3.000000  magneticMoment: [ Abs: 0.40268  Tot: -0.30000 ]
SCF: Cycle: 13   F: -7.047594623856865   dF: -5.420e-05   |Residual|: 8.613e-03   |deigs|: 1.761e-02  t[s]:     53.25
	FillingsUpdate:  mu: -0.133390229  nElectrons: 3.000000  magneticMoment: [ Abs: 0.39404  Tot: -0.30000 ]
SCF: Cycle: 14   F: -7.047570540001956   dF: +2.408e-05   |Residual|: 6.958e-03   |deigs|: 1.205e-02  t[s]:     56.46
	FillingsUpdate:  mu: -0.121018042  nElectrons: 3.000000  magneticMoment: [ Abs: 0.37662  Tot: -0.30000 ]
SCF: Cycle: 15   F: -7.047545160215814   dF: +2.538e-05   |Residual|: 5.721e-03   |deigs|: 1.397e-02  t[s]:     59.70
	FillingsUpdate:  mu: -0.109444096  nElectrons: 3.000000  magneticMoment: [ Abs: 0.35667  Tot: -0.30000 ]
SCF: Cycle: 16   F: -7.047768055838592   dF: -2.229e-04   |Residual|: 4.324e-03   |deigs|: 1.268e-02  t[s]:     62.98
	FillingsUpdate:  mu: -0.107893700  nElectrons: 3.000000  magneticMoment: [ Abs: 0.33610  Tot: -0.30000 ]
SCF: Cycle: 17   F: -7.047890550991506   dF: -1.225e-04   |Residual|: 2.762e-03   |deigs|: 1.484e-03  t[s]:     66.29
	FillingsUpdate:  mu: -0.108351729  nElectrons: 3.000000  magneticMoment: [ Abs: 0.32231  Tot: -0.30000 ]
SCF: Cycle: 18   F: -7.047942773394330   dF: -5.222e-05   |Residual|: 1.768e-03   |deigs|: 8.842e-04  t[s]:     69.50
	FillingsUpdate:  mu: -0.107823706  nElectrons: 3.000000  magneticMoment: [ Abs: 0.31564  Tot: -0.30000 ]
SCF: Cycle: 19   F: -7.047981059753572   dF: -3.829e-05   |Residual|: 1.279e-03   |deigs|: 9.298e-04  t[s]:     72.84
	FillingsUpdate:  mu: -0.107234319  nElectrons: 3.000000  magneticMoment: [ Abs: 0.31167  Tot: -0.30000 ]
SCF: Cycle: 20   F: -7.048002353681389   dF: -2.129e-05   |Residual|: 8.319e-04   |deigs|: 8.936e-04  t[s]:     76.18
	FillingsUpdate:  mu: -0.106179657  nElectrons: 3.000000  magneticMoment: [ Abs: 0.31074  Tot: -0.30000 ]
SCF: Cycle: 21   F: -7.048011244546924   dF: -8.891e-06   |Residual|: 5.000e-04   |deigs|: 1.129e-03  t[s]:     79.46
	FillingsUpdate:  mu: -0.106053080  nElectrons: 3.000000  magneticMoment: [ Abs: 0.30861  Tot: -0.30000 ]
SCF: Cycle: 22   F: -7.048014276275734   dF: -3.032e-06   |Residual|: 2.911e-04   |deigs|: 1.351e-04  t[s]:     82.70
	FillingsUpdate:  mu: -0.106112680  nElectrons: 3.000000  magneticMoment: [ Abs: 0.30635  Tot: -0.30000 ]
SCF: Cycle: 23   F: -7.048015441733104   dF: -1.165e-06   |Residual|: 1.794e-04   |deigs|: 2.281e-04  t[s]:     85.94
	FillingsUpdate:  mu: -0.106276493  nElectrons: 3.000000  magneticMoment: [ Abs: 0.30478  Tot: -0.30000 ]
SCF: Cycle: 24   F: -7.048015752139420   dF: -3.104e-07   |Residual|: 1.487e-04   |deigs|: 2.281e-04  t[s]:     89.20
	FillingsUpdate:  mu: -0.106354652  nElectrons: 3.000000  magneticMoment: [ Abs: 0.30365  Tot: -0.30000 ]
SCF: Cycle: 25   F: -7.048015962773596   dF: -2.106e-07   |Residual|: 1.088e-04   |deigs|: 1.278e-04  t[s]:     92.46
	FillingsUpdate:  mu: -0.106470729  nElectrons: 3.000000  magneticMoment: [ Abs: 0.30204  Tot: -0.30000 ]
SCF: Cycle: 26   F: -7.048016010461389   dF: -4.769e-08   |Residual|: 9.544e-05   |deigs|: 1.442e-04  t[s]:     95.69
	FillingsUpdate:  mu: -0.106508436  nElectrons: 3.000000  magneticMoment: [ Abs: 0.30122  Tot: -0.30000 ]
SCF: Cycle: 27   F: -7.048016028409036   dF: -1.795e-08   |Residual|: 7.526e-05   |deigs|: 1.019e-04  t[s]:     98.92
	FillingsUpdate:  mu: -0.106515191  nElectrons: 3.000000  magneticMoment: [ Abs: 0.30056  Tot: -0.30000 ]
SCF: Cycle: 28   F: -7.048016084375161   dF: -5.597e-08   |Residual|: 5.586e-05   |deigs|: 8.967e-05  t[s]:    102.12
	FillingsUpdate:  mu: -0.106493775  nElectrons: 3.000000  magneticMoment: [ Abs: 0.30028  Tot: -0.30000 ]
SCF: Cycle: 29   F: -7.048016151086510   dF: -6.671e-08   |Residual|: 4.132e-05   |deigs|: 8.040e-05  t[s]:    105.41
	FillingsUpdate:  mu: -0.106469120  nElectrons: 3.000000  magneticMoment: [ Abs: 0.30014  Tot: -0.30000 ]
SCF: Cycle: 30   F: -7.048016183762052   dF: -3.268e-08   |Residual|: 3.029e-05   |deigs|: 7.069e-05  t[s]:    108.77
	FillingsUpdate:  mu: -0.106438678  nElectrons: 3.000000  magneticMoment: [ Abs: 0.30006  Tot: -0.30000 ]
SCF: Cycle: 31   F: -7.048016206638336   dF: -2.288e-08   |Residual|: 2.176e-05   |deigs|: 6.085e-05  t[s]:    112.01
	FillingsUpdate:  mu: -0.106415122  nElectrons: 3.000000  magneticMoment: [ Abs: 0.30005  Tot: -0.30000 ]
SCF: Cycle: 32   F: -7.048016217429531   dF: -1.079e-08   |Residual|: 1.399e-05   |deigs|: 4.662e-05  t[s]:    115.25
	FillingsUpdate:  mu: -0.106410093  nElectrons: 3.000000  magneticMoment: [ Abs: 0.30003  Tot: -0.30000 ]
SCF: Cycle: 33   F: -7.048016218056415   dF: -6.269e-10   |Residual|: 8.627e-06   |deigs|: 3.586e-05  t[s]:    118.51
	FillingsUpdate:  mu: -0.106409008  nElectrons: 3.000000  magneticMoment: [ Abs: 0.30001  Tot: -0.30000 ]
SCF: Cycle: 34   F: -7.048016219288695   dF: -1.232e-09   |Residual|: 4.583e-06   |deigs|: 2.838e-05  t[s]:    121.76
SCF: Converged (|Delta E|<1.000000e-08 for 2 iters).


# Ionic positions in lattice coordinates:
ion Li   0.000000000000000   0.000000000000000   0.000000000000000 0

# Forces in Lattice coordinates:
force Li  -0.000000000000000   0.000000000000000   0.000000000000000 0

# Energy components:
   Eewald =       -1.3368908222468645
       EH =        2.1986423775090636
     Eloc =       -7.5378979337439374
      Enl =       -3.6011145304655003
   Epulay =       -0.0000013080581827
      Exc =       -1.5320720901603977
       KE =        4.7613189757158239
-------------------------------------
     Etot =       -7.0480153314499958
       TS =        0.0000008878386995
-------------------------------------
        F =       -7.0480162192886953

IonicMinimize: Iter:   0  F: -7.048016219288695  |grad|_K:  0.000e+00  t[s]:    121.90
IonicMinimize: Converged (|grad|_K<1.000000e-04).

#--- Lowdin population analysis ---
# oxidation-state Li +2.101
# magnetic-moments Li -0.277

End date and time: Sat Feb  5 22:56:25 2022  (Duration: 0-0:02:01.92)
Done!
scale=4
magnetization=-0.3
--------------------------------------------------------------------------
The library attempted to open the following supporting CUDA libraries,
but each of them failed.  CUDA-aware support is disabled.
libcuda.so.1: cannot open shared object file: No such file or directory
libcuda.dylib: cannot open shared object file: No such file or directory
/usr/lib64/libcuda.so.1: cannot open shared object file: No such file or directory
/usr/lib64/libcuda.dylib: cannot open shared object file: No such file or directory
If you are not interested in CUDA-aware support, then run with
--mca opal_warn_on_missing_libcuda 0 to suppress this message.  If you are interested
in CUDA-aware support, then try setting LD_LIBRARY_PATH to the location
of libcuda.so.1 to get passed this issue.
--------------------------------------------------------------------------
--------------------------------------------------------------------------
No OpenFabrics connection schemes reported that they were able to be
used on a specific port.  As such, the openib BTL (OpenFabrics
support) will be disabled for this port.

  Local host:           d-4-6-3
  Local device:         mlx5_1
  Local port:           1
  CPCs attempted:       rdmacm, udcm
--------------------------------------------------------------------------

*************** JDFTx 1.6.0 (git hash 42ebbcc2) ***************

Start date and time: Sat Feb  5 22:56:26 2022
Executable jdftx with command-line: -i Alkali.in
Running on hosts (process indices):  d-4-6-3 (0-18)
Divided in process groups (process indices):  0 (0)  1 (1)  2 (2)  3 (3)  4 (4)  5 (5)  6 (6)  7 (7)  8 (8)  9 (9)  10 (10)  11 (11)  12 (12)  13 (13)  14 (14)  15 (15)  16 (16)  17 (17)  18 (18)
Resource initialization completed at t[s]:      0.00
Run totals: 19 processes, 48 threads, 0 GPUs


Input parsed successfully to the following command list (including defaults):

basis kpoint-dependent
coords-type Lattice
core-overlap-check vector
coulomb-interaction Slab 001
davidson-band-ratio 1.1
dump End None
dump-name $INPUT.$VAR
elec-cutoff 20
elec-eigen-algo Davidson
elec-ex-corr gga-PBE
elec-initial-magnetization -0.300000 yes
elec-smearing Fermi 1e-05
electronic-minimize  \
	dirUpdateScheme      FletcherReeves \
	linminMethod         DirUpdateRecommended \
	nIterations          100 \
	history              15 \
	knormThreshold       0 \
	energyDiffThreshold  1e-08 \
	nEnergyDiff          2 \
	alphaTstart          1 \
	alphaTmin            1e-10 \
	updateTestStepSize   yes \
	alphaTreduceFactor   0.1 \
	alphaTincreaseFactor 3 \
	nAlphaAdjustMax      3 \
	wolfeEnergy          0.0001 \
	wolfeGradient        0.9 \
	fdTest               no
electronic-scf  \
	nIterations	10000 \
	energyDiffThreshold	1e-08 \
	residualThreshold	1e-07 \
	mixFraction	0.5 \
	qMetric	0.8 \
	history	10 \
	nEigSteps	2 \
	eigDiffThreshold	1e-08 \
	mixedVariable	Density \
	qKerker	0.8 \
	qKappa	-1 \
	verbose	no \
	mixFractionMag	1.5
exchange-regularization WignerSeitzTruncated
fluid None
fluid-ex-corr (null) lda-PZ
fluid-gummel-loop 10 1.000000e-05
fluid-minimize  \
	dirUpdateScheme      PolakRibiere \
	linminMethod         DirUpdateRecommended \
	nIterations          100 \
	history              15 \
	knormThreshold       0 \
	energyDiffThreshold  0 \
	nEnergyDiff          2 \
	alphaTstart          1 \
	alphaTmin            1e-10 \
	updateTestStepSize   yes \
	alphaTreduceFactor   0.1 \
	alphaTincreaseFactor 3 \
	nAlphaAdjustMax      3 \
	wolfeEnergy          0.0001 \
	wolfeGradient        0.9 \
	fdTest               no
fluid-solvent H2O 55.338 ScalarEOS \
	epsBulk 78.4 \
	pMol 0.92466 \
	epsInf 1.77 \
	Pvap 1.06736e-10 \
	sigmaBulk 4.62e-05 \
	Rvdw 2.61727 \
	Res 1.42 \
	tauNuc 343133 \
	poleEl 15 7 1
forces-output-coords Positions
ion Li   0.000000000000000   0.000000000000000   0.000000000000000 0
ion-species SG15/$ID_ONCV_PBE.upf
ion-width 0
ionic-minimize  \
	dirUpdateScheme      L-BFGS \
	linminMethod         DirUpdateRecommended \
	nIterations          0 \
	history              15 \
	knormThreshold       0.0001 \
	energyDiffThreshold  1e-06 \
	nEnergyDiff          2 \
	alphaTstart          1 \
	alphaTmin            1e-10 \
	updateTestStepSize   yes \
	alphaTreduceFactor   0.1 \
	alphaTincreaseFactor 3 \
	nAlphaAdjustMax      3 \
	wolfeEnergy          0.0001 \
	wolfeGradient        0.9 \
	fdTest               no
kpoint   0.000000000000   0.000000000000   0.000000000000  1.00000000000000
kpoint-folding 12 12 1 
latt-move-scale 1 1 1
latt-scale 4 4 1 
lattice  \
	   4.727486978767153   -2.363743489383575    0.000000000000000  \
	  -0.000000000000000    4.094123819672498    0.000000000000000  \
	   0.000000000000000    0.000000000000000   40.000000000000000 
lattice-minimize  \
	dirUpdateScheme      L-BFGS \
	linminMethod         DirUpdateRecommended \
	nIterations          0 \
	history              15 \
	knormThreshold       0 \
	energyDiffThreshold  1e-06 \
	nEnergyDiff          2 \
	alphaTstart          1 \
	alphaTmin            1e-10 \
	updateTestStepSize   yes \
	alphaTreduceFactor   0.1 \
	alphaTincreaseFactor 3 \
	nAlphaAdjustMax      3 \
	wolfeEnergy          0.0001 \
	wolfeGradient        0.9 \
	fdTest               no
lcao-params -1 1e-06 1e-05
pcm-variant GLSSA13
spintype z-spin
subspace-rotation-factor 1 yes
symmetries automatic
symmetry-threshold 0.0001



---------- Setting up symmetries ----------

Found 24 point-group symmetries of the bravais lattice
Found 24 space-group symmetries with basis
Applied RMS atom displacement 0 bohrs to make symmetries exact.

---------- Initializing the Grid ----------
R = 
[      18.9099     -9.45497            0  ]
[            0      16.3765            0  ]
[            0            0           40  ]
unit cell volume = 12387.1
G =
[   0.332269   0.191835         -0  ]
[          0   0.383671         -0  ]
[         -0         -0    0.15708  ]
Minimum fftbox size, Smin = [  80  80  164  ]
Chosen fftbox size, S = [  80  80  168  ]

---------- Exchange Correlation functional ----------
Initalized PBE GGA exchange.
Initalized PBE GGA correlation.

---------- Setting up pseudopotentials ----------
Width of ionic core gaussian charges (only for fluid interactions / plotting) set to 0

Reading pseudopotential file '/home/gridsan/aligho/DFT/build-Nov24/pseudopotentials/SG15/Li_ONCV_PBE.upf':
  'Li' pseudopotential, 'PBE' functional
  Generated using ONCVPSP code by D. R. Hamann
  Author: Martin Schlipf and Francois Gygi  Date: 150915.
  3 valence electrons, 2 orbitals, 4 projectors, 1328 radial grid points, with lMax = 1
  Transforming local potential to a uniform radial grid of dG=0.02 with 1489 points.
  Transforming nonlocal projectors to a uniform radial grid of dG=0.02 with 432 points.
    1S    l: 0   occupation:  2.0   eigenvalue: -1.905623
    2S    l: 0   occupation:  1.0   eigenvalue: -0.105624
  Transforming atomic orbitals to a uniform radial grid of dG=0.02 with 432 points.
  WARNING: large normalization error in atomic orbital 1s (integral: 0.000000).
  Core radius for overlap checks: 1.63 bohrs.
  Reading pulay file /home/gridsan/aligho/DFT/build-Nov24/pseudopotentials/SG15/Li_ONCV_PBE.pulay ... using dE_dnG = -1.230239e-02 computed for Ecut = 20.

Initialized 1 species with 1 total atoms.

Folded 1 k-points by 12x12x1 to 144 k-points.

---------- Setting up k-points, bands, fillings ----------
Reduced to 19 k-points under symmetry. 
Computing the number of bands and number of electrons
Calculating initial fillings.
nElectrons:   3.000000   nBands: 3   nStates: 38

----- Setting up reduced wavefunction bases (one per k-point) -----
average nbasis = 52924.021 , ideal nbasis = 52918.836

---------- Setting up coulomb interaction ----------
Initialized slab truncation along lattice direction 001

---------- Setting up 2D ewald sum ----------
Optimum gaussian width for ewald sums = 10.498040 bohr.
Real space sums over 289 unit cells with max indices [  8  8  0  ]
Reciprocal space sums over 81 terms with max indices [  4  4  0  ]

---------- Allocating electronic variables ----------
Initializing wave functions:  linear combination of atomic orbitals
Note: number of bands (3) exceeds available atomic orbitals (2)
Li pseudo-atom occupations:   s ( 2 1 )
[d-4-6-3:27119] 18 more processes have sent help message help-mpi-common-cuda.txt / dlopen failed
[d-4-6-3:27119] Set MCA parameter "orte_base_help_aggregate" to 0 to see all help / error messages
[d-4-6-3:27119] 18 more processes have sent help message help-mpi-btl-openib-cpc-base.txt / no cpcs for port
	FillingsUpdate:  mu: +0.365437992  nElectrons: 3.000000  magneticMoment: [ Abs: 0.30000  Tot: -0.30000 ]
LCAOMinimize: Iter:   0  F: -1.3115678092695173  |grad|_K:  2.170e-04  alpha:  1.000e+00
	FillingsUpdate:  mu: +0.365448485  nElectrons: 3.000000  magneticMoment: [ Abs: 0.30000  Tot: -0.30000 ]
LCAOMinimize: Iter:   1  F: -1.3115683431448040  |grad|_K:  2.079e-05  alpha:  5.197e-01  linmin: -6.579e-01  cgtest:  5.624e+00  t[s]:     12.74
LCAOMinimize: Encountered beta<0, resetting CG.
	FillingsUpdate:  mu: +0.365448172  nElectrons: 3.000000  magneticMoment: [ Abs: 0.30000  Tot: -0.30000 ]
LCAOMinimize: Iter:   2  F: -1.3115684213631122  |grad|_K:  2.971e-08  alpha:  1.059e+00  linmin: -3.564e-02  cgtest:  9.926e-02  t[s]:     15.99
LCAOMinimize: Encountered beta<0, resetting CG.
LCAOMinimize: Converged (|Delta F|<1.000000e-06 for 2 iters).


---- Citations for features of the code used in this run ----

   Software package:
      R. Sundararaman, K. Letchworth-Weaver, K.A. Schwarz, D. Gunceler, Y. Ozhabes and T.A. Arias, 'JDFTx: software for joint density-functional theory', SoftwareX 6, 278 (2017)

   gga-PBE exchange-correlation functional:
      J.P. Perdew, K. Burke and M. Ernzerhof, Phys. Rev. Lett. 77, 3865 (1996)

   Pseudopotentials:
      M Schlipf and F Gygi, Comput. Phys. Commun. 196, 36 (2015)

   Truncated Coulomb potentials:
      R. Sundararaman and T.A. Arias, Phys. Rev. B 87, 165122 (2013)

This list may not be complete. Please suggest additional citations or
report any other bugs at https://github.com/shankar1729/jdftx/issues

Initialization completed successfully at t[s]:     16.13


-------- Electronic minimization -----------
Will mix electronic density at each iteration.
	FillingsUpdate:  mu: +0.365448172  nElectrons: 3.000000  magneticMoment: [ Abs: 0.30000  Tot: -0.30000 ]
	FillingsUpdate:  mu: -0.615222279  nElectrons: 3.000000  magneticMoment: [ Abs: 0.30000  Tot: -0.30000 ]
SCF: Cycle:  0   F: -6.869844158119927   dF: -5.558e+00   |Residual|: 1.229e+00   |deigs|: 4.155e+00  t[s]:     21.86
	FillingsUpdate:  mu: -0.492876297  nElectrons: 3.000000  magneticMoment: [ Abs: 0.51989  Tot: -0.30000 ]
SCF: Cycle:  1   F: -6.915572382420035   dF: -4.573e-02   |Residual|: 7.609e-01   |deigs|: 2.761e-01  t[s]:     26.44
	FillingsUpdate:  mu: -0.252449650  nElectrons: 3.000000  magneticMoment: [ Abs: 0.66879  Tot: -0.30000 ]
SCF: Cycle:  2   F: -7.036627485431021   dF: -1.211e-01   |Residual|: 3.198e-01   |deigs|: 7.086e-01  t[s]:     31.16
	FillingsUpdate:  mu: -0.266678477  nElectrons: 3.000000  magneticMoment: [ Abs: 0.63494  Tot: -0.30000 ]
SCF: Cycle:  3   F: -7.037307950965684   dF: -6.805e-04   |Residual|: 1.885e-01   |deigs|: 7.159e-02  t[s]:     35.89
	FillingsUpdate:  mu: -0.235999413  nElectrons: 3.000000  magneticMoment: [ Abs: 0.62436  Tot: -0.30000 ]
SCF: Cycle:  4   F: -7.035633006311751   dF: +1.675e-03   |Residual|: 6.313e-02   |deigs|: 2.730e-02  t[s]:     40.71
	FillingsUpdate:  mu: -0.224564846  nElectrons: 3.000000  magneticMoment: [ Abs: 0.60591  Tot: -0.30000 ]
SCF: Cycle:  5   F: -7.037085267387460   dF: -1.452e-03   |Residual|: 1.200e-01   |deigs|: 1.030e-02  t[s]:     45.72
	FillingsUpdate:  mu: -0.201104173  nElectrons: 3.000000  magneticMoment: [ Abs: 0.53160  Tot: -0.30000 ]
SCF: Cycle:  6   F: -7.041039117211276   dF: -3.954e-03   |Residual|: 3.747e-02   |deigs|: 6.092e-02  t[s]:     50.82
	FillingsUpdate:  mu: -0.178344915  nElectrons: 3.000000  magneticMoment: [ Abs: 0.41338  Tot: -0.30000 ]
SCF: Cycle:  7   F: -7.043149721159557   dF: -2.111e-03   |Residual|: 1.087e-01   |deigs|: 7.031e-02  t[s]:     56.02
	FillingsUpdate:  mu: -0.186422604  nElectrons: 3.000000  magneticMoment: [ Abs: 0.33772  Tot: -0.30000 ]
SCF: Cycle:  8   F: -7.043267900818766   dF: -1.182e-04   |Residual|: 5.947e-02   |deigs|: 2.508e-02  t[s]:     61.37
	FillingsUpdate:  mu: -0.188958954  nElectrons: 3.000000  magneticMoment: [ Abs: 0.40543  Tot: -0.30000 ]
SCF: Cycle:  9   F: -7.043733487097922   dF: -4.656e-04   |Residual|: 9.479e-02   |deigs|: 6.043e-02  t[s]:     66.81
	FillingsUpdate:  mu: -0.168721214  nElectrons: 3.000000  magneticMoment: [ Abs: 0.40721  Tot: -0.30000 ]
SCF: Cycle: 10   F: -7.044370616241408   dF: -6.371e-04   |Residual|: 9.367e-02   |deigs|: 1.917e-02  t[s]:     72.32
	FillingsUpdate:  mu: -0.154294942  nElectrons: 3.000000  magneticMoment: [ Abs: 0.41555  Tot: -0.30000 ]
SCF: Cycle: 11   F: -7.044911572378926   dF: -5.410e-04   |Residual|: 3.484e-02   |deigs|: 5.440e-02  t[s]:     77.92
	FillingsUpdate:  mu: -0.149287476  nElectrons: 3.000000  magneticMoment: [ Abs: 0.35767  Tot: -0.30000 ]
SCF: Cycle: 12   F: -7.045058083098995   dF: -1.465e-04   |Residual|: 1.267e-02   |deigs|: 1.383e-02  t[s]:     83.44
	FillingsUpdate:  mu: -0.131459278  nElectrons: 3.000000  magneticMoment: [ Abs: 0.40536  Tot: -0.30000 ]
SCF: Cycle: 13   F: -7.045223826872548   dF: -1.657e-04   |Residual|: 7.005e-03   |deigs|: 1.975e-02  t[s]:     88.95
	FillingsUpdate:  mu: -0.123413486  nElectrons: 3.000000  magneticMoment: [ Abs: 0.40396  Tot: -0.30000 ]
SCF: Cycle: 14   F: -7.045264916797355   dF: -4.109e-05   |Residual|: 5.913e-03   |deigs|: 9.074e-03  t[s]:     94.44
	FillingsUpdate:  mu: -0.115743188  nElectrons: 3.000000  magneticMoment: [ Abs: 0.38115  Tot: -0.30000 ]
SCF: Cycle: 15   F: -7.045259494610565   dF: +5.422e-06   |Residual|: 4.379e-03   |deigs|: 7.567e-03  t[s]:    100.01
	FillingsUpdate:  mu: -0.111748173  nElectrons: 3.000000  magneticMoment: [ Abs: 0.37580  Tot: -0.30000 ]
SCF: Cycle: 16   F: -7.045299426502860   dF: -3.993e-05   |Residual|: 3.224e-03   |deigs|: 3.928e-03  t[s]:    105.52
	FillingsUpdate:  mu: -0.109710558  nElectrons: 3.000000  magneticMoment: [ Abs: 0.35546  Tot: -0.30000 ]
SCF: Cycle: 17   F: -7.045281951349645   dF: +1.748e-05   |Residual|: 2.413e-03   |deigs|: 1.872e-03  t[s]:    111.08
	FillingsUpdate:  mu: -0.107816882  nElectrons: 3.000000  magneticMoment: [ Abs: 0.34386  Tot: -0.30000 ]
SCF: Cycle: 18   F: -7.045280047876360   dF: +1.903e-06   |Residual|: 1.856e-03   |deigs|: 2.042e-03  t[s]:    116.57
	FillingsUpdate:  mu: -0.106666624  nElectrons: 3.000000  magneticMoment: [ Abs: 0.33210  Tot: -0.30000 ]
SCF: Cycle: 19   F: -7.045308775159874   dF: -2.873e-05   |Residual|: 1.388e-03   |deigs|: 1.445e-03  t[s]:    122.10
	FillingsUpdate:  mu: -0.105687284  nElectrons: 3.000000  magneticMoment: [ Abs: 0.32280  Tot: -0.30000 ]
SCF: Cycle: 20   F: -7.045347516381759   dF: -3.874e-05   |Residual|: 9.100e-04   |deigs|: 1.043e-03  t[s]:    127.58
	FillingsUpdate:  mu: -0.104879483  nElectrons: 3.000000  magneticMoment: [ Abs: 0.31836  Tot: -0.30000 ]
SCF: Cycle: 21   F: -7.045359999413320   dF: -1.248e-05   |Residual|: 6.678e-04   |deigs|: 9.376e-04  t[s]:    133.16
	FillingsUpdate:  mu: -0.104544873  nElectrons: 3.000000  magneticMoment: [ Abs: 0.31432  Tot: -0.30000 ]
SCF: Cycle: 22   F: -7.045364779538025   dF: -4.780e-06   |Residual|: 5.408e-04   |deigs|: 4.621e-04  t[s]:    138.63
	FillingsUpdate:  mu: -0.104203046  nElectrons: 3.000000  magneticMoment: [ Abs: 0.30950  Tot: -0.30000 ]
SCF: Cycle: 23   F: -7.045372342460188   dF: -7.563e-06   |Residual|: 3.838e-04   |deigs|: 4.595e-04  t[s]:    144.14
	FillingsUpdate:  mu: -0.104255960  nElectrons: 3.000000  magneticMoment: [ Abs: 0.30700  Tot: -0.30000 ]
SCF: Cycle: 24   F: -7.045375643502756   dF: -3.301e-06   |Residual|: 2.614e-04   |deigs|: 1.526e-04  t[s]:    149.64
	FillingsUpdate:  mu: -0.104457573  nElectrons: 3.000000  magneticMoment: [ Abs: 0.30512  Tot: -0.30000 ]
SCF: Cycle: 25   F: -7.045376662646219   dF: -1.019e-06   |Residual|: 1.986e-04   |deigs|: 3.031e-04  t[s]:    155.11
	FillingsUpdate:  mu: -0.104520352  nElectrons: 3.000000  magneticMoment: [ Abs: 0.30359  Tot: -0.30000 ]
SCF: Cycle: 26   F: -7.045377285830828   dF: -6.232e-07   |Residual|: 1.238e-04   |deigs|: 1.553e-04  t[s]:    160.65
	FillingsUpdate:  mu: -0.104674681  nElectrons: 3.000000  magneticMoment: [ Abs: 0.30233  Tot: -0.30000 ]
SCF: Cycle: 27   F: -7.045377497396042   dF: -2.116e-07   |Residual|: 8.436e-05   |deigs|: 2.146e-04  t[s]:    166.26
	FillingsUpdate:  mu: -0.104804715  nElectrons: 3.000000  magneticMoment: [ Abs: 0.30132  Tot: -0.30000 ]
SCF: Cycle: 28   F: -7.045377437698445   dF: +5.970e-08   |Residual|: 6.592e-05   |deigs|: 1.615e-04  t[s]:    171.79
	FillingsUpdate:  mu: -0.104908987  nElectrons: 3.000000  magneticMoment: [ Abs: 0.30093  Tot: -0.30000 ]
SCF: Cycle: 29   F: -7.045377574369232   dF: -1.367e-07   |Residual|: 4.199e-05   |deigs|: 1.163e-04  t[s]:    177.36
	FillingsUpdate:  mu: -0.104951241  nElectrons: 3.000000  magneticMoment: [ Abs: 0.30070  Tot: -0.30000 ]
SCF: Cycle: 30   F: -7.045377595425637   dF: -2.106e-08   |Residual|: 3.241e-05   |deigs|: 5.893e-05  t[s]:    182.91
	FillingsUpdate:  mu: -0.104974597  nElectrons: 3.000000  magneticMoment: [ Abs: 0.30025  Tot: -0.30000 ]
SCF: Cycle: 31   F: -7.045377609014601   dF: -1.359e-08   |Residual|: 1.869e-05   |deigs|: 4.380e-05  t[s]:    188.44
	FillingsUpdate:  mu: -0.104984493  nElectrons: 3.000000  magneticMoment: [ Abs: 0.30016  Tot: -0.30000 ]
SCF: Cycle: 32   F: -7.045377618110097   dF: -9.095e-09   |Residual|: 1.216e-05   |deigs|: 3.415e-05  t[s]:    193.95
	FillingsUpdate:  mu: -0.104994299  nElectrons: 3.000000  magneticMoment: [ Abs: 0.30010  Tot: -0.30000 ]
SCF: Cycle: 33   F: -7.045377626684798   dF: -8.575e-09   |Residual|: 8.540e-06   |deigs|: 3.043e-05  t[s]:    199.41
SCF: Converged (|Delta E|<1.000000e-08 for 2 iters).


# Ionic positions in lattice coordinates:
ion Li   0.000000000000000   0.000000000000000   0.000000000000000 0

# Forces in Lattice coordinates:
force Li  -0.000000000000000  -0.000000000000000   0.000000000000000 0

# Energy components:
   Eewald =       -1.0026681166851483
       EH =        2.5474832314837448
     Eloc =       -8.2255304192707079
      Enl =       -3.6035018440354252
   Epulay =        0.0000051497655618
      Exc =       -1.5353545780357554
       KE =        4.7741901561407278
-------------------------------------
     Etot =       -7.0453764206370035
       TS =        0.0000012060477943
-------------------------------------
        F =       -7.0453776266847976

IonicMinimize: Iter:   0  F: -7.045377626684798  |grad|_K:  0.000e+00  t[s]:    199.65
IonicMinimize: Converged (|grad|_K<1.000000e-04).

#--- Lowdin population analysis ---
# oxidation-state Li +2.080
# magnetic-moments Li -0.278

End date and time: Sat Feb  5 22:59:46 2022  (Duration: 0-0:03:19.68)
Done!
