The alkali metal is Li
scale=2
magnetization=0.3
--------------------------------------------------------------------------
The library attempted to open the following supporting CUDA libraries,
but each of them failed.  CUDA-aware support is disabled.
libcuda.so.1: cannot open shared object file: No such file or directory
libcuda.dylib: cannot open shared object file: No such file or directory
/usr/lib64/libcuda.so.1: cannot open shared object file: No such file or directory
/usr/lib64/libcuda.dylib: cannot open shared object file: No such file or directory
If you are not interested in CUDA-aware support, then run with
--mca opal_warn_on_missing_libcuda 0 to suppress this message.  If you are interested
in CUDA-aware support, then try setting LD_LIBRARY_PATH to the location
of libcuda.so.1 to get passed this issue.
--------------------------------------------------------------------------
--------------------------------------------------------------------------
No OpenFabrics connection schemes reported that they were able to be
used on a specific port.  As such, the openib BTL (OpenFabrics
support) will be disabled for this port.

  Local host:           d-6-2-2
  Local device:         mlx5_1
  Local port:           1
  CPCs attempted:       rdmacm, udcm
--------------------------------------------------------------------------

*************** JDFTx 1.6.0 (git hash 42ebbcc2) ***************

Start date and time: Sat Feb  5 23:00:29 2022
Executable jdftx with command-line: -i Alkali.in
Running on hosts (process indices):  d-6-2-2 (0-18)
Divided in process groups (process indices):  0 (0)  1 (1)  2 (2)  3 (3)  4 (4)  5 (5)  6 (6)  7 (7)  8 (8)  9 (9)  10 (10)  11 (11)  12 (12)  13 (13)  14 (14)  15 (15)  16 (16)  17 (17)  18 (18)
Resource initialization completed at t[s]:      0.00
Run totals: 19 processes, 48 threads, 0 GPUs


Input parsed successfully to the following command list (including defaults):

basis kpoint-dependent
coords-type Lattice
core-overlap-check vector
coulomb-interaction Slab 001
davidson-band-ratio 1.1
dump End None
dump-name $INPUT.$VAR
elec-cutoff 20
elec-eigen-algo Davidson
elec-ex-corr gga-PBE
elec-initial-magnetization 0.300000 yes
elec-smearing Fermi 1e-05
electronic-minimize  \
	dirUpdateScheme      FletcherReeves \
	linminMethod         DirUpdateRecommended \
	nIterations          100 \
	history              15 \
	knormThreshold       0 \
	energyDiffThreshold  1e-08 \
	nEnergyDiff          2 \
	alphaTstart          1 \
	alphaTmin            1e-10 \
	updateTestStepSize   yes \
	alphaTreduceFactor   0.1 \
	alphaTincreaseFactor 3 \
	nAlphaAdjustMax      3 \
	wolfeEnergy          0.0001 \
	wolfeGradient        0.9 \
	fdTest               no
electronic-scf  \
	nIterations	10000 \
	energyDiffThreshold	1e-08 \
	residualThreshold	1e-07 \
	mixFraction	0.5 \
	qMetric	0.8 \
	history	10 \
	nEigSteps	2 \
	eigDiffThreshold	1e-08 \
	mixedVariable	Density \
	qKerker	0.8 \
	qKappa	-1 \
	verbose	no \
	mixFractionMag	1.5
exchange-regularization WignerSeitzTruncated
fluid None
fluid-ex-corr (null) lda-PZ
fluid-gummel-loop 10 1.000000e-05
fluid-minimize  \
	dirUpdateScheme      PolakRibiere \
	linminMethod         DirUpdateRecommended \
	nIterations          100 \
	history              15 \
	knormThreshold       0 \
	energyDiffThreshold  0 \
	nEnergyDiff          2 \
	alphaTstart          1 \
	alphaTmin            1e-10 \
	updateTestStepSize   yes \
	alphaTreduceFactor   0.1 \
	alphaTincreaseFactor 3 \
	nAlphaAdjustMax      3 \
	wolfeEnergy          0.0001 \
	wolfeGradient        0.9 \
	fdTest               no
fluid-solvent H2O 55.338 ScalarEOS \
	epsBulk 78.4 \
	pMol 0.92466 \
	epsInf 1.77 \
	Pvap 1.06736e-10 \
	sigmaBulk 4.62e-05 \
	Rvdw 2.61727 \
	Res 1.42 \
	tauNuc 343133 \
	poleEl 15 7 1
forces-output-coords Positions
ion Li   0.000000000000000   0.000000000000000   0.000000000000000 0
ion-species SG15/$ID_ONCV_PBE.upf
ion-width 0
ionic-minimize  \
	dirUpdateScheme      L-BFGS \
	linminMethod         DirUpdateRecommended \
	nIterations          0 \
	history              15 \
	knormThreshold       0.0001 \
	energyDiffThreshold  1e-06 \
	nEnergyDiff          2 \
	alphaTstart          1 \
	alphaTmin            1e-10 \
	updateTestStepSize   yes \
	alphaTreduceFactor   0.1 \
	alphaTincreaseFactor 3 \
	nAlphaAdjustMax      3 \
	wolfeEnergy          0.0001 \
	wolfeGradient        0.9 \
	fdTest               no
kpoint   0.000000000000   0.000000000000   0.000000000000  1.00000000000000
kpoint-folding 12 12 1 
latt-move-scale 1 1 1
latt-scale 2 2 1 
lattice  \
	   4.727486978767153   -2.363743489383575    0.000000000000000  \
	  -0.000000000000000    4.094123819672498    0.000000000000000  \
	   0.000000000000000    0.000000000000000   40.000000000000000 
lattice-minimize  \
	dirUpdateScheme      L-BFGS \
	linminMethod         DirUpdateRecommended \
	nIterations          0 \
	history              15 \
	knormThreshold       0 \
	energyDiffThreshold  1e-06 \
	nEnergyDiff          2 \
	alphaTstart          1 \
	alphaTmin            1e-10 \
	updateTestStepSize   yes \
	alphaTreduceFactor   0.1 \
	alphaTincreaseFactor 3 \
	nAlphaAdjustMax      3 \
	wolfeEnergy          0.0001 \
	wolfeGradient        0.9 \
	fdTest               no
lcao-params -1 1e-06 1e-05
pcm-variant GLSSA13
spintype z-spin
subspace-rotation-factor 1 yes
symmetries automatic
symmetry-threshold 0.0001



---------- Setting up symmetries ----------

Found 24 point-group symmetries of the bravais lattice
Found 24 space-group symmetries with basis
Applied RMS atom displacement 0 bohrs to make symmetries exact.

---------- Initializing the Grid ----------
R = 
[      9.45497     -4.72749            0  ]
[            0      8.18825            0  ]
[            0            0           40  ]
unit cell volume = 3096.79
G =
[   0.664538   0.383671         -0  ]
[          0   0.767342         -0  ]
[         -0         -0    0.15708  ]
Minimum fftbox size, Smin = [  40  40  164  ]
Chosen fftbox size, S = [  40  40  168  ]

---------- Exchange Correlation functional ----------
Initalized PBE GGA exchange.
Initalized PBE GGA correlation.

---------- Setting up pseudopotentials ----------
Width of ionic core gaussian charges (only for fluid interactions / plotting) set to 0

Reading pseudopotential file '/home/gridsan/aligho/DFT/build-Nov24/pseudopotentials/SG15/Li_ONCV_PBE.upf':
  'Li' pseudopotential, 'PBE' functional
  Generated using ONCVPSP code by D. R. Hamann
  Author: Martin Schlipf and Francois Gygi  Date: 150915.
  3 valence electrons, 2 orbitals, 4 projectors, 1328 radial grid points, with lMax = 1
  Transforming local potential to a uniform radial grid of dG=0.02 with 1489 points.
  Transforming nonlocal projectors to a uniform radial grid of dG=0.02 with 432 points.
    1S    l: 0   occupation:  2.0   eigenvalue: -1.905623
    2S    l: 0   occupation:  1.0   eigenvalue: -0.105624
  Transforming atomic orbitals to a uniform radial grid of dG=0.02 with 432 points.
  WARNING: large normalization error in atomic orbital 1s (integral: 0.000000).
  Core radius for overlap checks: 1.63 bohrs.
  Reading pulay file /home/gridsan/aligho/DFT/build-Nov24/pseudopotentials/SG15/Li_ONCV_PBE.pulay ... using dE_dnG = -1.230239e-02 computed for Ecut = 20.

Initialized 1 species with 1 total atoms.

Folded 1 k-points by 12x12x1 to 144 k-points.

---------- Setting up k-points, bands, fillings ----------
Reduced to 19 k-points under symmetry. 
Computing the number of bands and number of electrons
Calculating initial fillings.
nElectrons:   3.000000   nBands: 3   nStates: 38

----- Setting up reduced wavefunction bases (one per k-point) -----
average nbasis = 13230.521 , ideal nbasis = 13229.709

---------- Setting up coulomb interaction ----------
Initialized slab truncation along lattice direction 001

---------- Setting up 2D ewald sum ----------
Optimum gaussian width for ewald sums = 5.249020 bohr.
Real space sums over 289 unit cells with max indices [  8  8  0  ]
Reciprocal space sums over 81 terms with max indices [  4  4  0  ]

---------- Allocating electronic variables ----------
Initializing wave functions:  linear combination of atomic orbitals
Note: number of bands (3) exceeds available atomic orbitals (2)
Li pseudo-atom occupations:   s ( 2 1 )
	FillingsUpdate:  mu: +0.320087960  nElectrons: 3.000000  magneticMoment: [ Abs: 0.30008  Tot: +0.30000 ]
LCAOMinimize: Iter:   0  F: -1.1748379769814430  |grad|_K:  7.034e-05  alpha:  1.000e+00
	FillingsUpdate:  mu: +0.320086985  nElectrons: 3.000000  magneticMoment: [ Abs: 0.30008  Tot: +0.30000 ]
LCAOMinimize: Iter:   1  F: -1.1748388598670234  |grad|_K:  1.683e-06  alpha:  1.044e+00  linmin: -1.769e-03  cgtest:  2.861e-02  t[s]:      3.91
LCAOMinimize: Encountered beta<0, resetting CG.
[d-6-2-2:41913] 18 more processes have sent help message help-mpi-common-cuda.txt / dlopen failed
[d-6-2-2:41913] Set MCA parameter "orte_base_help_aggregate" to 0 to see all help / error messages
[d-6-2-2:41913] 18 more processes have sent help message help-mpi-btl-openib-cpc-base.txt / no cpcs for port
	FillingsUpdate:  mu: +0.320086976  nElectrons: 3.000000  magneticMoment: [ Abs: 0.30008  Tot: +0.30000 ]
LCAOMinimize: Iter:   2  F: -1.1748388603587980  |grad|_K:  4.066e-08  alpha:  1.014e+00  linmin:  1.083e-03  cgtest: -3.111e-02  t[s]:      4.98
LCAOMinimize: Converged (|Delta F|<1.000000e-06 for 2 iters).


---- Citations for features of the code used in this run ----

   Software package:
      R. Sundararaman, K. Letchworth-Weaver, K.A. Schwarz, D. Gunceler, Y. Ozhabes and T.A. Arias, 'JDFTx: software for joint density-functional theory', SoftwareX 6, 278 (2017)

   gga-PBE exchange-correlation functional:
      J.P. Perdew, K. Burke and M. Ernzerhof, Phys. Rev. Lett. 77, 3865 (1996)

   Pseudopotentials:
      M Schlipf and F Gygi, Comput. Phys. Commun. 196, 36 (2015)

   Truncated Coulomb potentials:
      R. Sundararaman and T.A. Arias, Phys. Rev. B 87, 165122 (2013)

This list may not be complete. Please suggest additional citations or
report any other bugs at https://github.com/shankar1729/jdftx/issues

Initialization completed successfully at t[s]:      5.05


-------- Electronic minimization -----------
Will mix electronic density at each iteration.
	FillingsUpdate:  mu: +0.320086976  nElectrons: 3.000000  magneticMoment: [ Abs: 0.30008  Tot: +0.30000 ]
	FillingsUpdate:  mu: -0.980062247  nElectrons: 3.000000  magneticMoment: [ Abs: 0.30008  Tot: +0.30000 ]
SCF: Cycle:  0   F: -6.826608112435192   dF: -5.652e+00   |Residual|: 1.172e+00   |deigs|: 4.170e+00  t[s]:      6.73
	FillingsUpdate:  mu: -0.865055844  nElectrons: 3.000000  magneticMoment: [ Abs: 0.49459  Tot: +0.30000 ]
SCF: Cycle:  1   F: -6.936288889410842   dF: -1.097e-01   |Residual|: 7.736e-01   |deigs|: 2.341e-01  t[s]:      8.03
	FillingsUpdate:  mu: -0.636398242  nElectrons: 3.000000  magneticMoment: [ Abs: 0.63188  Tot: +0.30000 ]
SCF: Cycle:  2   F: -7.049020672108147   dF: -1.127e-01   |Residual|: 4.200e-01   |deigs|: 7.799e-01  t[s]:      9.34
	FillingsUpdate:  mu: -0.662633261  nElectrons: 3.000000  magneticMoment: [ Abs: 0.55104  Tot: +0.30000 ]
SCF: Cycle:  3   F: -7.057550779194766   dF: -8.530e-03   |Residual|: 2.091e-01   |deigs|: 1.234e-01  t[s]:     10.68
	FillingsUpdate:  mu: -0.626789149  nElectrons: 3.000000  magneticMoment: [ Abs: 0.41719  Tot: +0.30000 ]
SCF: Cycle:  4   F: -7.056031641510907   dF: +1.519e-03   |Residual|: 4.020e-02   |deigs|: 3.527e-02  t[s]:     12.05
	FillingsUpdate:  mu: -0.590662534  nElectrons: 3.000000  magneticMoment: [ Abs: 0.41866  Tot: +0.30000 ]
SCF: Cycle:  5   F: -7.055313743720713   dF: +7.179e-04   |Residual|: 1.575e-01   |deigs|: 2.974e-02  t[s]:     13.45
	FillingsUpdate:  mu: -0.474865373  nElectrons: 3.000000  magneticMoment: [ Abs: 0.43895  Tot: +0.30000 ]
SCF: Cycle:  6   F: -7.059374491387022   dF: -4.061e-03   |Residual|: 1.505e-01   |deigs|: 1.392e-01  t[s]:     14.86
	FillingsUpdate:  mu: -0.430833864  nElectrons: 3.000000  magneticMoment: [ Abs: 0.40001  Tot: +0.30000 ]
SCF: Cycle:  7   F: -7.061493235661111   dF: -2.119e-03   |Residual|: 7.378e-02   |deigs|: 1.034e-01  t[s]:     16.37
	FillingsUpdate:  mu: -0.385056461  nElectrons: 3.000000  magneticMoment: [ Abs: 0.39147  Tot: +0.30000 ]
SCF: Cycle:  8   F: -7.063279481088660   dF: -1.786e-03   |Residual|: 9.452e-02   |deigs|: 4.707e-02  t[s]:     17.83
	FillingsUpdate:  mu: -0.351840733  nElectrons: 3.000000  magneticMoment: [ Abs: 0.42454  Tot: +0.30000 ]
SCF: Cycle:  9   F: -7.064981883786018   dF: -1.702e-03   |Residual|: 8.999e-02   |deigs|: 7.086e-02  t[s]:     19.37
	FillingsUpdate:  mu: -0.316693287  nElectrons: 3.000000  magneticMoment: [ Abs: 0.44933  Tot: +0.30000 ]
SCF: Cycle: 10   F: -7.065053844719802   dF: -7.196e-05   |Residual|: 1.351e-01   |deigs|: 2.835e-02  t[s]:     20.88
	FillingsUpdate:  mu: -0.257017412  nElectrons: 3.000000  magneticMoment: [ Abs: 0.41996  Tot: +0.30000 ]
SCF: Cycle: 11   F: -7.066525192113282   dF: -1.471e-03   |Residual|: 1.958e-02   |deigs|: 9.938e-02  t[s]:     22.40
	FillingsUpdate:  mu: -0.214649019  nElectrons: 3.000000  magneticMoment: [ Abs: 0.41645  Tot: +0.30000 ]
SCF: Cycle: 12   F: -7.066811355583958   dF: -2.862e-04   |Residual|: 1.357e-02   |deigs|: 4.870e-02  t[s]:     24.08
	FillingsUpdate:  mu: -0.174376196  nElectrons: 3.000000  magneticMoment: [ Abs: 0.39315  Tot: +0.30000 ]
SCF: Cycle: 13   F: -7.067096604251182   dF: -2.852e-04   |Residual|: 1.307e-02   |deigs|: 3.853e-02  t[s]:     25.61
	FillingsUpdate:  mu: -0.152223336  nElectrons: 3.000000  magneticMoment: [ Abs: 0.36944  Tot: +0.30000 ]
SCF: Cycle: 14   F: -7.067140500171173   dF: -4.390e-05   |Residual|: 9.132e-03   |deigs|: 2.563e-02  t[s]:     27.18
	FillingsUpdate:  mu: -0.125823826  nElectrons: 3.000000  magneticMoment: [ Abs: 0.35900  Tot: +0.30000 ]
SCF: Cycle: 15   F: -7.067151672978694   dF: -1.117e-05   |Residual|: 8.097e-03   |deigs|: 2.741e-02  t[s]:     28.70
	FillingsUpdate:  mu: -0.116384201  nElectrons: 3.000000  magneticMoment: [ Abs: 0.34654  Tot: +0.30000 ]
SCF: Cycle: 16   F: -7.067310087754706   dF: -1.584e-04   |Residual|: 4.459e-03   |deigs|: 8.011e-03  t[s]:     30.23
	FillingsUpdate:  mu: -0.113306163  nElectrons: 3.000000  magneticMoment: [ Abs: 0.32899  Tot: +0.30000 ]
SCF: Cycle: 17   F: -7.067409290261228   dF: -9.920e-05   |Residual|: 2.861e-03   |deigs|: 2.500e-03  t[s]:     31.75
	FillingsUpdate:  mu: -0.112040620  nElectrons: 3.000000  magneticMoment: [ Abs: 0.32093  Tot: +0.30000 ]
SCF: Cycle: 18   F: -7.067442244590211   dF: -3.295e-05   |Residual|: 1.628e-03   |deigs|: 1.219e-03  t[s]:     33.25
	FillingsUpdate:  mu: -0.111786823  nElectrons: 3.000000  magneticMoment: [ Abs: 0.31461  Tot: +0.30000 ]
SCF: Cycle: 19   F: -7.067454121773157   dF: -1.188e-05   |Residual|: 9.988e-04   |deigs|: 7.857e-04  t[s]:     34.75
	FillingsUpdate:  mu: -0.112182474  nElectrons: 3.000000  magneticMoment: [ Abs: 0.31146  Tot: +0.30000 ]
SCF: Cycle: 20   F: -7.067460610618205   dF: -6.489e-06   |Residual|: 6.648e-04   |deigs|: 5.156e-04  t[s]:     36.29
	FillingsUpdate:  mu: -0.112256746  nElectrons: 3.000000  magneticMoment: [ Abs: 0.30948  Tot: +0.30000 ]
SCF: Cycle: 21   F: -7.067463229180989   dF: -2.619e-06   |Residual|: 4.648e-04   |deigs|: 1.227e-04  t[s]:     37.83
	FillingsUpdate:  mu: -0.112365284  nElectrons: 3.000000  magneticMoment: [ Abs: 0.30728  Tot: +0.30000 ]
SCF: Cycle: 22   F: -7.067464931393296   dF: -1.702e-06   |Residual|: 3.396e-04   |deigs|: 1.380e-04  t[s]:     39.33
	FillingsUpdate:  mu: -0.112344996  nElectrons: 3.000000  magneticMoment: [ Abs: 0.30518  Tot: +0.30000 ]
SCF: Cycle: 23   F: -7.067466161178452   dF: -1.230e-06   |Residual|: 2.916e-04   |deigs|: 1.012e-04  t[s]:     40.90
	FillingsUpdate:  mu: -0.112315938  nElectrons: 3.000000  magneticMoment: [ Abs: 0.30307  Tot: +0.30000 ]
SCF: Cycle: 24   F: -7.067466167721093   dF: -6.543e-09   |Residual|: 2.601e-04   |deigs|: 6.424e-05  t[s]:     42.41
	FillingsUpdate:  mu: -0.112368920  nElectrons: 3.000000  magneticMoment: [ Abs: 0.30154  Tot: +0.30000 ]
SCF: Cycle: 25   F: -7.067466590765584   dF: -4.230e-07   |Residual|: 1.938e-04   |deigs|: 8.173e-05  t[s]:     43.94
	FillingsUpdate:  mu: -0.112284320  nElectrons: 3.000000  magneticMoment: [ Abs: 0.30023  Tot: +0.30000 ]
SCF: Cycle: 26   F: -7.067466668860243   dF: -7.809e-08   |Residual|: 1.181e-04   |deigs|: 1.020e-04  t[s]:     45.47
	FillingsUpdate:  mu: -0.112225869  nElectrons: 3.000000  magneticMoment: [ Abs: 0.30009  Tot: +0.30000 ]
SCF: Cycle: 27   F: -7.067466727467481   dF: -5.861e-08   |Residual|: 8.064e-05   |deigs|: 8.248e-05  t[s]:     46.99
	FillingsUpdate:  mu: -0.112057212  nElectrons: 3.000000  magneticMoment: [ Abs: 0.30001  Tot: +0.30000 ]
SCF: Cycle: 28   F: -7.067466804311020   dF: -7.684e-08   |Residual|: 6.164e-05   |deigs|: 1.598e-04  t[s]:     48.56
	FillingsUpdate:  mu: -0.111827043  nElectrons: 3.000000  magneticMoment: [ Abs: 0.30001  Tot: +0.30000 ]
SCF: Cycle: 29   F: -7.067466797598176   dF: +6.713e-09   |Residual|: 6.309e-05   |deigs|: 2.236e-04  t[s]:     50.06
	FillingsUpdate:  mu: -0.111667541  nElectrons: 3.000000  magneticMoment: [ Abs: 0.30000  Tot: +0.30000 ]
SCF: Cycle: 30   F: -7.067466812444382   dF: -1.485e-08   |Residual|: 6.221e-05   |deigs|: 1.598e-04  t[s]:     51.57
	FillingsUpdate:  mu: -0.111401619  nElectrons: 3.000000  magneticMoment: [ Abs: 0.30000  Tot: +0.30000 ]
SCF: Cycle: 31   F: -7.067466868103434   dF: -5.566e-08   |Residual|: 4.840e-05   |deigs|: 2.644e-04  t[s]:     53.12
	FillingsUpdate:  mu: -0.111254264  nElectrons: 3.000000  magneticMoment: [ Abs: 0.30000  Tot: +0.30000 ]
SCF: Cycle: 32   F: -7.067466897267236   dF: -2.916e-08   |Residual|: 3.712e-05   |deigs|: 1.606e-04  t[s]:     54.65
	FillingsUpdate:  mu: -0.111158402  nElectrons: 3.000000  magneticMoment: [ Abs: 0.30000  Tot: +0.30000 ]
SCF: Cycle: 33   F: -7.067466903251944   dF: -5.985e-09   |Residual|: 2.438e-05   |deigs|: 1.182e-04  t[s]:     56.17
	FillingsUpdate:  mu: -0.111123590  nElectrons: 3.000000  magneticMoment: [ Abs: 0.30000  Tot: +0.30000 ]
SCF: Cycle: 34   F: -7.067466912977503   dF: -9.726e-09   |Residual|: 1.773e-05   |deigs|: 6.950e-05  t[s]:     57.75
SCF: Converged (|Delta E|<1.000000e-08 for 2 iters).


# Ionic positions in lattice coordinates:
ion Li   0.000000000000000   0.000000000000000   0.000000000000000 0

# Forces in Lattice coordinates:
force Li   0.000000000000000   0.000000000000000   0.000000000000000 0

# Energy components:
   Eewald =       -2.0053362333702967
       EH =        1.5296196484564790
     Eloc =       -6.1905510780928523
      Enl =       -3.5904052716365600
   Epulay =        0.0000032255226020
      Exc =       -1.5379664470220065
       KE =        4.7271700829886996
-------------------------------------
     Etot =       -7.0674660731539340
       TS =        0.0000008398235688
-------------------------------------
        F =       -7.0674669129775030

IonicMinimize: Iter:   0  F: -7.067466912977503  |grad|_K:  0.000e+00  t[s]:     57.81
IonicMinimize: Converged (|grad|_K<1.000000e-04).

#--- Lowdin population analysis ---
# oxidation-state Li +2.172
# magnetic-moments Li +0.208

End date and time: Sat Feb  5 23:01:27 2022  (Duration: 0-0:00:57.83)
Done!
scale=3
magnetization=0.3
--------------------------------------------------------------------------
The library attempted to open the following supporting CUDA libraries,
but each of them failed.  CUDA-aware support is disabled.
libcuda.so.1: cannot open shared object file: No such file or directory
libcuda.dylib: cannot open shared object file: No such file or directory
/usr/lib64/libcuda.so.1: cannot open shared object file: No such file or directory
/usr/lib64/libcuda.dylib: cannot open shared object file: No such file or directory
If you are not interested in CUDA-aware support, then run with
--mca opal_warn_on_missing_libcuda 0 to suppress this message.  If you are interested
in CUDA-aware support, then try setting LD_LIBRARY_PATH to the location
of libcuda.so.1 to get passed this issue.
--------------------------------------------------------------------------
--------------------------------------------------------------------------
No OpenFabrics connection schemes reported that they were able to be
used on a specific port.  As such, the openib BTL (OpenFabrics
support) will be disabled for this port.

  Local host:           d-6-2-2
  Local device:         mlx5_1
  Local port:           1
  CPCs attempted:       rdmacm, udcm
--------------------------------------------------------------------------

*************** JDFTx 1.6.0 (git hash 42ebbcc2) ***************

Start date and time: Sat Feb  5 23:01:28 2022
Executable jdftx with command-line: -i Alkali.in
Running on hosts (process indices):  d-6-2-2 (0-18)
Divided in process groups (process indices):  0 (0)  1 (1)  2 (2)  3 (3)  4 (4)  5 (5)  6 (6)  7 (7)  8 (8)  9 (9)  10 (10)  11 (11)  12 (12)  13 (13)  14 (14)  15 (15)  16 (16)  17 (17)  18 (18)
Resource initialization completed at t[s]:      0.00
Run totals: 19 processes, 48 threads, 0 GPUs


Input parsed successfully to the following command list (including defaults):

basis kpoint-dependent
coords-type Lattice
core-overlap-check vector
coulomb-interaction Slab 001
davidson-band-ratio 1.1
dump End None
dump-name $INPUT.$VAR
elec-cutoff 20
elec-eigen-algo Davidson
elec-ex-corr gga-PBE
elec-initial-magnetization 0.300000 yes
elec-smearing Fermi 1e-05
electronic-minimize  \
	dirUpdateScheme      FletcherReeves \
	linminMethod         DirUpdateRecommended \
	nIterations          100 \
	history              15 \
	knormThreshold       0 \
	energyDiffThreshold  1e-08 \
	nEnergyDiff          2 \
	alphaTstart          1 \
	alphaTmin            1e-10 \
	updateTestStepSize   yes \
	alphaTreduceFactor   0.1 \
	alphaTincreaseFactor 3 \
	nAlphaAdjustMax      3 \
	wolfeEnergy          0.0001 \
	wolfeGradient        0.9 \
	fdTest               no
electronic-scf  \
	nIterations	10000 \
	energyDiffThreshold	1e-08 \
	residualThreshold	1e-07 \
	mixFraction	0.5 \
	qMetric	0.8 \
	history	10 \
	nEigSteps	2 \
	eigDiffThreshold	1e-08 \
	mixedVariable	Density \
	qKerker	0.8 \
	qKappa	-1 \
	verbose	no \
	mixFractionMag	1.5
exchange-regularization WignerSeitzTruncated
fluid None
fluid-ex-corr (null) lda-PZ
fluid-gummel-loop 10 1.000000e-05
fluid-minimize  \
	dirUpdateScheme      PolakRibiere \
	linminMethod         DirUpdateRecommended \
	nIterations          100 \
	history              15 \
	knormThreshold       0 \
	energyDiffThreshold  0 \
	nEnergyDiff          2 \
	alphaTstart          1 \
	alphaTmin            1e-10 \
	updateTestStepSize   yes \
	alphaTreduceFactor   0.1 \
	alphaTincreaseFactor 3 \
	nAlphaAdjustMax      3 \
	wolfeEnergy          0.0001 \
	wolfeGradient        0.9 \
	fdTest               no
fluid-solvent H2O 55.338 ScalarEOS \
	epsBulk 78.4 \
	pMol 0.92466 \
	epsInf 1.77 \
	Pvap 1.06736e-10 \
	sigmaBulk 4.62e-05 \
	Rvdw 2.61727 \
	Res 1.42 \
	tauNuc 343133 \
	poleEl 15 7 1
forces-output-coords Positions
ion Li   0.000000000000000   0.000000000000000   0.000000000000000 0
ion-species SG15/$ID_ONCV_PBE.upf
ion-width 0
ionic-minimize  \
	dirUpdateScheme      L-BFGS \
	linminMethod         DirUpdateRecommended \
	nIterations          0 \
	history              15 \
	knormThreshold       0.0001 \
	energyDiffThreshold  1e-06 \
	nEnergyDiff          2 \
	alphaTstart          1 \
	alphaTmin            1e-10 \
	updateTestStepSize   yes \
	alphaTreduceFactor   0.1 \
	alphaTincreaseFactor 3 \
	nAlphaAdjustMax      3 \
	wolfeEnergy          0.0001 \
	wolfeGradient        0.9 \
	fdTest               no
kpoint   0.000000000000   0.000000000000   0.000000000000  1.00000000000000
kpoint-folding 12 12 1 
latt-move-scale 1 1 1
latt-scale 3 3 1 
lattice  \
	   4.727486978767153   -2.363743489383575    0.000000000000000  \
	  -0.000000000000000    4.094123819672498    0.000000000000000  \
	   0.000000000000000    0.000000000000000   40.000000000000000 
lattice-minimize  \
	dirUpdateScheme      L-BFGS \
	linminMethod         DirUpdateRecommended \
	nIterations          0 \
	history              15 \
	knormThreshold       0 \
	energyDiffThreshold  1e-06 \
	nEnergyDiff          2 \
	alphaTstart          1 \
	alphaTmin            1e-10 \
	updateTestStepSize   yes \
	alphaTreduceFactor   0.1 \
	alphaTincreaseFactor 3 \
	nAlphaAdjustMax      3 \
	wolfeEnergy          0.0001 \
	wolfeGradient        0.9 \
	fdTest               no
lcao-params -1 1e-06 1e-05
pcm-variant GLSSA13
spintype z-spin
subspace-rotation-factor 1 yes
symmetries automatic
symmetry-threshold 0.0001



---------- Setting up symmetries ----------

Found 24 point-group symmetries of the bravais lattice
Found 24 space-group symmetries with basis
Applied RMS atom displacement 0 bohrs to make symmetries exact.

---------- Initializing the Grid ----------
R = 
[      14.1825     -7.09123            0  ]
[            0      12.2824            0  ]
[            0            0           40  ]
unit cell volume = 6967.77
G =
[   0.443025   0.255781         -0  ]
[          0   0.511561         -0  ]
[         -0         -0    0.15708  ]
Minimum fftbox size, Smin = [  60  60  164  ]
Chosen fftbox size, S = [  60  60  168  ]

---------- Exchange Correlation functional ----------
Initalized PBE GGA exchange.
Initalized PBE GGA correlation.

---------- Setting up pseudopotentials ----------
Width of ionic core gaussian charges (only for fluid interactions / plotting) set to 0

Reading pseudopotential file '/home/gridsan/aligho/DFT/build-Nov24/pseudopotentials/SG15/Li_ONCV_PBE.upf':
  'Li' pseudopotential, 'PBE' functional
  Generated using ONCVPSP code by D. R. Hamann
  Author: Martin Schlipf and Francois Gygi  Date: 150915.
  3 valence electrons, 2 orbitals, 4 projectors, 1328 radial grid points, with lMax = 1
  Transforming local potential to a uniform radial grid of dG=0.02 with 1489 points.
  Transforming nonlocal projectors to a uniform radial grid of dG=0.02 with 432 points.
    1S    l: 0   occupation:  2.0   eigenvalue: -1.905623
    2S    l: 0   occupation:  1.0   eigenvalue: -0.105624
  Transforming atomic orbitals to a uniform radial grid of dG=0.02 with 432 points.
  WARNING: large normalization error in atomic orbital 1s (integral: 0.000000).
  Core radius for overlap checks: 1.63 bohrs.
  Reading pulay file /home/gridsan/aligho/DFT/build-Nov24/pseudopotentials/SG15/Li_ONCV_PBE.pulay ... using dE_dnG = -1.230239e-02 computed for Ecut = 20.

Initialized 1 species with 1 total atoms.

Folded 1 k-points by 12x12x1 to 144 k-points.

---------- Setting up k-points, bands, fillings ----------
Reduced to 19 k-points under symmetry. 
Computing the number of bands and number of electrons
Calculating initial fillings.
nElectrons:   3.000000   nBands: 3   nStates: 38

----- Setting up reduced wavefunction bases (one per k-point) -----
average nbasis = 29766.104 , ideal nbasis = 29766.845

---------- Setting up coulomb interaction ----------
Initialized slab truncation along lattice direction 001

---------- Setting up 2D ewald sum ----------
Optimum gaussian width for ewald sums = 7.873530 bohr.
Real space sums over 289 unit cells with max indices [  8  8  0  ]
Reciprocal space sums over 81 terms with max indices [  4  4  0  ]

---------- Allocating electronic variables ----------
Initializing wave functions:  linear combination of atomic orbitals
Note: number of bands (3) exceeds available atomic orbitals (2)
Li pseudo-atom occupations:   s ( 2 1 )
[d-6-2-2:24825] 18 more processes have sent help message help-mpi-common-cuda.txt / dlopen failed
[d-6-2-2:24825] Set MCA parameter "orte_base_help_aggregate" to 0 to see all help / error messages
[d-6-2-2:24825] 18 more processes have sent help message help-mpi-btl-openib-cpc-base.txt / no cpcs for port
	FillingsUpdate:  mu: +0.353297316  nElectrons: 3.000000  magneticMoment: [ Abs: 0.30003  Tot: +0.30000 ]
LCAOMinimize: Iter:   0  F: -1.2889710148281410  |grad|_K:  4.932e-05  alpha:  1.000e+00
LCAOMinimize: 	Wrong curvature in test step, increasing alphaT to 3.000000e+00.
	FillingsUpdate:  mu: +0.353228578  nElectrons: 3.000000  magneticMoment: [ Abs: 0.30001  Tot: +0.30000 ]
LCAOMinimize: Iter:   1  F: -1.2889771172020905  |grad|_K:  2.777e-06  alpha: -7.892e-02  linmin: -1.621e-01  cgtest:  9.803e-01  t[s]:      7.57
LCAOMinimize: Encountered beta<0, resetting CG.
	FillingsUpdate:  mu: +0.353228553  nElectrons: 3.000000  magneticMoment: [ Abs: 0.30001  Tot: +0.30000 ]
LCAOMinimize: Iter:   2  F: -1.2889771185982095  |grad|_K:  1.276e-08  alpha:  1.059e+00  linmin:  8.658e-03  cgtest: -4.636e-02  t[s]:      9.63
	FillingsUpdate:  mu: +0.353228553  nElectrons: 3.000000  magneticMoment: [ Abs: 0.30001  Tot: +0.30000 ]
LCAOMinimize: Iter:   3  F: -1.2889771185982626  |grad|_K:  1.206e-08  alpha:  5.576e-02  linmin: -1.688e-02  cgtest:  1.000e+00  t[s]:     11.64
LCAOMinimize: Encountered beta<0, resetting CG.
LCAOMinimize: Converged (|Delta F|<1.000000e-06 for 2 iters).


---- Citations for features of the code used in this run ----

   Software package:
      R. Sundararaman, K. Letchworth-Weaver, K.A. Schwarz, D. Gunceler, Y. Ozhabes and T.A. Arias, 'JDFTx: software for joint density-functional theory', SoftwareX 6, 278 (2017)

   gga-PBE exchange-correlation functional:
      J.P. Perdew, K. Burke and M. Ernzerhof, Phys. Rev. Lett. 77, 3865 (1996)

   Pseudopotentials:
      M Schlipf and F Gygi, Comput. Phys. Commun. 196, 36 (2015)

   Truncated Coulomb potentials:
      R. Sundararaman and T.A. Arias, Phys. Rev. B 87, 165122 (2013)

This list may not be complete. Please suggest additional citations or
report any other bugs at https://github.com/shankar1729/jdftx/issues

Initialization completed successfully at t[s]:     11.74


-------- Electronic minimization -----------
Will mix electronic density at each iteration.
	FillingsUpdate:  mu: +0.353228553  nElectrons: 3.000000  magneticMoment: [ Abs: 0.30001  Tot: +0.30000 ]
	FillingsUpdate:  mu: -0.693482688  nElectrons: 3.000000  magneticMoment: [ Abs: 0.30001  Tot: +0.30000 ]
SCF: Cycle:  0   F: -6.870155580459867   dF: -5.581e+00   |Residual|: 1.224e+00   |deigs|: 4.156e+00  t[s]:     15.19
	FillingsUpdate:  mu: -0.573276102  nElectrons: 3.000000  magneticMoment: [ Abs: 0.48543  Tot: +0.30000 ]
SCF: Cycle:  1   F: -6.916239399437849   dF: -4.608e-02   |Residual|: 7.620e-01   |deigs|: 2.737e-01  t[s]:     18.00
	FillingsUpdate:  mu: -0.341164860  nElectrons: 3.000000  magneticMoment: [ Abs: 0.65566  Tot: +0.30000 ]
SCF: Cycle:  2   F: -7.039571864758174   dF: -1.233e-01   |Residual|: 3.294e-01   |deigs|: 7.122e-01  t[s]:     20.77
	FillingsUpdate:  mu: -0.357908414  nElectrons: 3.000000  magneticMoment: [ Abs: 0.62316  Tot: +0.30000 ]
SCF: Cycle:  3   F: -7.041500248962349   dF: -1.928e-03   |Residual|: 1.890e-01   |deigs|: 7.785e-02  t[s]:     23.59
	FillingsUpdate:  mu: -0.329270933  nElectrons: 3.000000  magneticMoment: [ Abs: 0.62726  Tot: +0.30000 ]
SCF: Cycle:  4   F: -7.040551208650426   dF: +9.490e-04   |Residual|: 4.555e-02   |deigs|: 2.434e-02  t[s]:     26.49
	FillingsUpdate:  mu: -0.319032704  nElectrons: 3.000000  magneticMoment: [ Abs: 0.58557  Tot: +0.30000 ]
SCF: Cycle:  5   F: -7.040116345480748   dF: +4.349e-04   |Residual|: 1.019e-01   |deigs|: 1.085e-02  t[s]:     29.35
	FillingsUpdate:  mu: -0.263226620  nElectrons: 3.000000  magneticMoment: [ Abs: 0.42702  Tot: +0.30000 ]
SCF: Cycle:  6   F: -7.044074201820075   dF: -3.958e-03   |Residual|: 6.394e-02   |deigs|: 9.415e-02  t[s]:     32.35
	FillingsUpdate:  mu: -0.233413131  nElectrons: 3.000000  magneticMoment: [ Abs: 0.37753  Tot: +0.30000 ]
SCF: Cycle:  7   F: -7.045540789365745   dF: -1.467e-03   |Residual|: 1.145e-01   |deigs|: 8.284e-02  t[s]:     35.48
	FillingsUpdate:  mu: -0.234691348  nElectrons: 3.000000  magneticMoment: [ Abs: 0.36159  Tot: +0.30000 ]
SCF: Cycle:  8   F: -7.045610566455569   dF: -6.978e-05   |Residual|: 8.942e-02   |deigs|: 1.345e-02  t[s]:     38.57
	FillingsUpdate:  mu: -0.225883739  nElectrons: 3.000000  magneticMoment: [ Abs: 0.39813  Tot: +0.30000 ]
SCF: Cycle:  9   F: -7.045973523089163   dF: -3.630e-04   |Residual|: 8.401e-02   |deigs|: 6.596e-02  t[s]:     41.81
	FillingsUpdate:  mu: -0.203119592  nElectrons: 3.000000  magneticMoment: [ Abs: 0.38760  Tot: +0.30000 ]
SCF: Cycle: 10   F: -7.046412612279579   dF: -4.391e-04   |Residual|: 8.990e-02   |deigs|: 1.865e-02  t[s]:     45.07
	FillingsUpdate:  mu: -0.174057770  nElectrons: 3.000000  magneticMoment: [ Abs: 0.40418  Tot: +0.30000 ]
SCF: Cycle: 11   F: -7.047400665610468   dF: -9.881e-04   |Residual|: 2.346e-02   |deigs|: 5.660e-02  t[s]:     48.31
	FillingsUpdate:  mu: -0.164594924  nElectrons: 3.000000  magneticMoment: [ Abs: 0.40207  Tot: +0.30000 ]
SCF: Cycle: 12   F: -7.047547122018944   dF: -1.465e-04   |Residual|: 1.017e-02   |deigs|: 7.469e-03  t[s]:     51.53
	FillingsUpdate:  mu: -0.147050927  nElectrons: 3.000000  magneticMoment: [ Abs: 0.40609  Tot: +0.30000 ]
SCF: Cycle: 13   F: -7.047620329198373   dF: -7.321e-05   |Residual|: 7.769e-03   |deigs|: 1.619e-02  t[s]:     54.76
	FillingsUpdate:  mu: -0.133331364  nElectrons: 3.000000  magneticMoment: [ Abs: 0.39380  Tot: +0.30000 ]
SCF: Cycle: 14   F: -7.047573427909000   dF: +4.690e-05   |Residual|: 6.902e-03   |deigs|: 1.426e-02  t[s]:     58.05
	FillingsUpdate:  mu: -0.121877722  nElectrons: 3.000000  magneticMoment: [ Abs: 0.37668  Tot: +0.30000 ]
SCF: Cycle: 15   F: -7.047586754370138   dF: -1.333e-05   |Residual|: 6.066e-03   |deigs|: 1.280e-02  t[s]:     61.27
	FillingsUpdate:  mu: -0.111110148  nElectrons: 3.000000  magneticMoment: [ Abs: 0.34721  Tot: +0.30000 ]
SCF: Cycle: 16   F: -7.047779233518031   dF: -1.925e-04   |Residual|: 4.041e-03   |deigs|: 1.148e-02  t[s]:     64.51
	FillingsUpdate:  mu: -0.107330476  nElectrons: 3.000000  magneticMoment: [ Abs: 0.33809  Tot: +0.30000 ]
SCF: Cycle: 17   F: -7.047871468153009   dF: -9.223e-05   |Residual|: 2.831e-03   |deigs|: 4.224e-03  t[s]:     67.78
	FillingsUpdate:  mu: -0.107651534  nElectrons: 3.000000  magneticMoment: [ Abs: 0.32310  Tot: +0.30000 ]
SCF: Cycle: 18   F: -7.047948819358642   dF: -7.735e-05   |Residual|: 1.904e-03   |deigs|: 8.790e-04  t[s]:     71.04
	FillingsUpdate:  mu: -0.107450312  nElectrons: 3.000000  magneticMoment: [ Abs: 0.31398  Tot: +0.30000 ]
SCF: Cycle: 19   F: -7.047989098689119   dF: -4.028e-05   |Residual|: 1.124e-03   |deigs|: 7.447e-04  t[s]:     74.31
	FillingsUpdate:  mu: -0.106493453  nElectrons: 3.000000  magneticMoment: [ Abs: 0.31190  Tot: +0.30000 ]
SCF: Cycle: 20   F: -7.048006846765081   dF: -1.775e-05   |Residual|: 6.914e-04   |deigs|: 9.859e-04  t[s]:     77.64
	FillingsUpdate:  mu: -0.106020275  nElectrons: 3.000000  magneticMoment: [ Abs: 0.31046  Tot: +0.30000 ]
SCF: Cycle: 21   F: -7.048012730578472   dF: -5.884e-06   |Residual|: 4.131e-04   |deigs|: 6.534e-04  t[s]:     80.87
	FillingsUpdate:  mu: -0.105872213  nElectrons: 3.000000  magneticMoment: [ Abs: 0.30886  Tot: +0.30000 ]
SCF: Cycle: 22   F: -7.048014338699926   dF: -1.608e-06   |Residual|: 2.781e-04   |deigs|: 2.182e-04  t[s]:     84.12
	FillingsUpdate:  mu: -0.106199580  nElectrons: 3.000000  magneticMoment: [ Abs: 0.30571  Tot: +0.30000 ]
SCF: Cycle: 23   F: -7.048015737254643   dF: -1.399e-06   |Residual|: 1.488e-04   |deigs|: 3.151e-04  t[s]:     87.40
	FillingsUpdate:  mu: -0.106368370  nElectrons: 3.000000  magneticMoment: [ Abs: 0.30407  Tot: +0.30000 ]
SCF: Cycle: 24   F: -7.048015943867257   dF: -2.066e-07   |Residual|: 1.277e-04   |deigs|: 1.975e-04  t[s]:     90.62
	FillingsUpdate:  mu: -0.106463910  nElectrons: 3.000000  magneticMoment: [ Abs: 0.30295  Tot: +0.30000 ]
SCF: Cycle: 25   F: -7.048015968757126   dF: -2.489e-08   |Residual|: 1.133e-04   |deigs|: 1.462e-04  t[s]:     93.88
	FillingsUpdate:  mu: -0.106465736  nElectrons: 3.000000  magneticMoment: [ Abs: 0.30200  Tot: +0.30000 ]
SCF: Cycle: 26   F: -7.048015935186283   dF: +3.357e-08   |Residual|: 9.342e-05   |deigs|: 1.014e-04  t[s]:     97.10
	FillingsUpdate:  mu: -0.106401222  nElectrons: 3.000000  magneticMoment: [ Abs: 0.30081  Tot: +0.30000 ]
SCF: Cycle: 27   F: -7.048016051716849   dF: -1.165e-07   |Residual|: 6.276e-05   |deigs|: 1.084e-04  t[s]:    100.37
	FillingsUpdate:  mu: -0.106363022  nElectrons: 3.000000  magneticMoment: [ Abs: 0.30043  Tot: +0.30000 ]
SCF: Cycle: 28   F: -7.048016127244079   dF: -7.553e-08   |Residual|: 4.773e-05   |deigs|: 8.772e-05  t[s]:    103.65
	FillingsUpdate:  mu: -0.106373008  nElectrons: 3.000000  magneticMoment: [ Abs: 0.30012  Tot: +0.30000 ]
SCF: Cycle: 29   F: -7.048016145414638   dF: -1.817e-08   |Residual|: 3.456e-05   |deigs|: 7.995e-05  t[s]:    106.87
	FillingsUpdate:  mu: -0.106385841  nElectrons: 3.000000  magneticMoment: [ Abs: 0.30008  Tot: +0.30000 ]
SCF: Cycle: 30   F: -7.048016197599090   dF: -5.218e-08   |Residual|: 2.226e-05   |deigs|: 6.654e-05  t[s]:    110.13
	FillingsUpdate:  mu: -0.106395902  nElectrons: 3.000000  magneticMoment: [ Abs: 0.30001  Tot: +0.30000 ]
SCF: Cycle: 31   F: -7.048016193391424   dF: +4.208e-09   |Residual|: 1.556e-05   |deigs|: 5.036e-05  t[s]:    113.38
	FillingsUpdate:  mu: -0.106402227  nElectrons: 3.000000  magneticMoment: [ Abs: 0.30001  Tot: +0.30000 ]
SCF: Cycle: 32   F: -7.048016212258317   dF: -1.887e-08   |Residual|: 9.407e-06   |deigs|: 3.742e-05  t[s]:    116.69
	FillingsUpdate:  mu: -0.106402701  nElectrons: 3.000000  magneticMoment: [ Abs: 0.30000  Tot: +0.30000 ]
SCF: Cycle: 33   F: -7.048016211662929   dF: +5.954e-10   |Residual|: 7.217e-06   |deigs|: 2.795e-05  t[s]:    120.03
	FillingsUpdate:  mu: -0.106403731  nElectrons: 3.000000  magneticMoment: [ Abs: 0.30000  Tot: +0.30000 ]
SCF: Cycle: 34   F: -7.048016218589738   dF: -6.927e-09   |Residual|: 5.058e-06   |deigs|: 2.098e-05  t[s]:    123.26
	FillingsUpdate:  mu: -0.106405722  nElectrons: 3.000000  magneticMoment: [ Abs: 0.30000  Tot: +0.30000 ]
SCF: Cycle: 35   F: -7.048016220114354   dF: -1.525e-09   |Residual|: 3.831e-06   |deigs|: 1.584e-05  t[s]:    126.56
SCF: Converged (|Delta E|<1.000000e-08 for 2 iters).


# Ionic positions in lattice coordinates:
ion Li   0.000000000000000   0.000000000000000   0.000000000000000 0

# Forces in Lattice coordinates:
force Li  -0.000000000000000  -0.000000000000000   0.000000000000000 0

# Energy components:
   Eewald =       -1.3368908222468645
       EH =        2.1986345091823845
     Eloc =       -7.5378888067559213
      Enl =       -3.6011135546400483
   Epulay =       -0.0000013080581827
      Exc =       -1.5320705993734562
       KE =        4.7613152495931059
-------------------------------------
     Etot =       -7.0480153322989834
       TS =        0.0000008878153707
-------------------------------------
        F =       -7.0480162201143539

IonicMinimize: Iter:   0  F: -7.048016220114354  |grad|_K:  0.000e+00  t[s]:    126.70
IonicMinimize: Converged (|grad|_K<1.000000e-04).

#--- Lowdin population analysis ---
# oxidation-state Li +2.102
# magnetic-moments Li +0.277

End date and time: Sat Feb  5 23:03:35 2022  (Duration: 0-0:02:06.72)
Done!
scale=4
magnetization=0.3
--------------------------------------------------------------------------
The library attempted to open the following supporting CUDA libraries,
but each of them failed.  CUDA-aware support is disabled.
libcuda.so.1: cannot open shared object file: No such file or directory
libcuda.dylib: cannot open shared object file: No such file or directory
/usr/lib64/libcuda.so.1: cannot open shared object file: No such file or directory
/usr/lib64/libcuda.dylib: cannot open shared object file: No such file or directory
If you are not interested in CUDA-aware support, then run with
--mca opal_warn_on_missing_libcuda 0 to suppress this message.  If you are interested
in CUDA-aware support, then try setting LD_LIBRARY_PATH to the location
of libcuda.so.1 to get passed this issue.
--------------------------------------------------------------------------
--------------------------------------------------------------------------
No OpenFabrics connection schemes reported that they were able to be
used on a specific port.  As such, the openib BTL (OpenFabrics
support) will be disabled for this port.

  Local host:           d-6-2-2
  Local device:         mlx5_1
  Local port:           1
  CPCs attempted:       rdmacm, udcm
--------------------------------------------------------------------------

*************** JDFTx 1.6.0 (git hash 42ebbcc2) ***************

Start date and time: Sat Feb  5 23:03:36 2022
Executable jdftx with command-line: -i Alkali.in
Running on hosts (process indices):  d-6-2-2 (0-18)
Divided in process groups (process indices):  0 (0)  1 (1)  2 (2)  3 (3)  4 (4)  5 (5)  6 (6)  7 (7)  8 (8)  9 (9)  10 (10)  11 (11)  12 (12)  13 (13)  14 (14)  15 (15)  16 (16)  17 (17)  18 (18)
Resource initialization completed at t[s]:      0.00
Run totals: 19 processes, 48 threads, 0 GPUs


Input parsed successfully to the following command list (including defaults):

basis kpoint-dependent
coords-type Lattice
core-overlap-check vector
coulomb-interaction Slab 001
davidson-band-ratio 1.1
dump End None
dump-name $INPUT.$VAR
elec-cutoff 20
elec-eigen-algo Davidson
elec-ex-corr gga-PBE
elec-initial-magnetization 0.300000 yes
elec-smearing Fermi 1e-05
electronic-minimize  \
	dirUpdateScheme      FletcherReeves \
	linminMethod         DirUpdateRecommended \
	nIterations          100 \
	history              15 \
	knormThreshold       0 \
	energyDiffThreshold  1e-08 \
	nEnergyDiff          2 \
	alphaTstart          1 \
	alphaTmin            1e-10 \
	updateTestStepSize   yes \
	alphaTreduceFactor   0.1 \
	alphaTincreaseFactor 3 \
	nAlphaAdjustMax      3 \
	wolfeEnergy          0.0001 \
	wolfeGradient        0.9 \
	fdTest               no
electronic-scf  \
	nIterations	10000 \
	energyDiffThreshold	1e-08 \
	residualThreshold	1e-07 \
	mixFraction	0.5 \
	qMetric	0.8 \
	history	10 \
	nEigSteps	2 \
	eigDiffThreshold	1e-08 \
	mixedVariable	Density \
	qKerker	0.8 \
	qKappa	-1 \
	verbose	no \
	mixFractionMag	1.5
exchange-regularization WignerSeitzTruncated
fluid None
fluid-ex-corr (null) lda-PZ
fluid-gummel-loop 10 1.000000e-05
fluid-minimize  \
	dirUpdateScheme      PolakRibiere \
	linminMethod         DirUpdateRecommended \
	nIterations          100 \
	history              15 \
	knormThreshold       0 \
	energyDiffThreshold  0 \
	nEnergyDiff          2 \
	alphaTstart          1 \
	alphaTmin            1e-10 \
	updateTestStepSize   yes \
	alphaTreduceFactor   0.1 \
	alphaTincreaseFactor 3 \
	nAlphaAdjustMax      3 \
	wolfeEnergy          0.0001 \
	wolfeGradient        0.9 \
	fdTest               no
fluid-solvent H2O 55.338 ScalarEOS \
	epsBulk 78.4 \
	pMol 0.92466 \
	epsInf 1.77 \
	Pvap 1.06736e-10 \
	sigmaBulk 4.62e-05 \
	Rvdw 2.61727 \
	Res 1.42 \
	tauNuc 343133 \
	poleEl 15 7 1
forces-output-coords Positions
ion Li   0.000000000000000   0.000000000000000   0.000000000000000 0
ion-species SG15/$ID_ONCV_PBE.upf
ion-width 0
ionic-minimize  \
	dirUpdateScheme      L-BFGS \
	linminMethod         DirUpdateRecommended \
	nIterations          0 \
	history              15 \
	knormThreshold       0.0001 \
	energyDiffThreshold  1e-06 \
	nEnergyDiff          2 \
	alphaTstart          1 \
	alphaTmin            1e-10 \
	updateTestStepSize   yes \
	alphaTreduceFactor   0.1 \
	alphaTincreaseFactor 3 \
	nAlphaAdjustMax      3 \
	wolfeEnergy          0.0001 \
	wolfeGradient        0.9 \
	fdTest               no
kpoint   0.000000000000   0.000000000000   0.000000000000  1.00000000000000
kpoint-folding 12 12 1 
latt-move-scale 1 1 1
latt-scale 4 4 1 
lattice  \
	   4.727486978767153   -2.363743489383575    0.000000000000000  \
	  -0.000000000000000    4.094123819672498    0.000000000000000  \
	   0.000000000000000    0.000000000000000   40.000000000000000 
lattice-minimize  \
	dirUpdateScheme      L-BFGS \
	linminMethod         DirUpdateRecommended \
	nIterations          0 \
	history              15 \
	knormThreshold       0 \
	energyDiffThreshold  1e-06 \
	nEnergyDiff          2 \
	alphaTstart          1 \
	alphaTmin            1e-10 \
	updateTestStepSize   yes \
	alphaTreduceFactor   0.1 \
	alphaTincreaseFactor 3 \
	nAlphaAdjustMax      3 \
	wolfeEnergy          0.0001 \
	wolfeGradient        0.9 \
	fdTest               no
lcao-params -1 1e-06 1e-05
pcm-variant GLSSA13
spintype z-spin
subspace-rotation-factor 1 yes
symmetries automatic
symmetry-threshold 0.0001



---------- Setting up symmetries ----------

Found 24 point-group symmetries of the bravais lattice
Found 24 space-group symmetries with basis
Applied RMS atom displacement 0 bohrs to make symmetries exact.

---------- Initializing the Grid ----------
R = 
[      18.9099     -9.45497            0  ]
[            0      16.3765            0  ]
[            0            0           40  ]
unit cell volume = 12387.1
G =
[   0.332269   0.191835         -0  ]
[          0   0.383671         -0  ]
[         -0         -0    0.15708  ]
Minimum fftbox size, Smin = [  80  80  164  ]
Chosen fftbox size, S = [  80  80  168  ]

---------- Exchange Correlation functional ----------
Initalized PBE GGA exchange.
Initalized PBE GGA correlation.

---------- Setting up pseudopotentials ----------
Width of ionic core gaussian charges (only for fluid interactions / plotting) set to 0

Reading pseudopotential file '/home/gridsan/aligho/DFT/build-Nov24/pseudopotentials/SG15/Li_ONCV_PBE.upf':
  'Li' pseudopotential, 'PBE' functional
  Generated using ONCVPSP code by D. R. Hamann
  Author: Martin Schlipf and Francois Gygi  Date: 150915.
  3 valence electrons, 2 orbitals, 4 projectors, 1328 radial grid points, with lMax = 1
  Transforming local potential to a uniform radial grid of dG=0.02 with 1489 points.
  Transforming nonlocal projectors to a uniform radial grid of dG=0.02 with 432 points.
    1S    l: 0   occupation:  2.0   eigenvalue: -1.905623
    2S    l: 0   occupation:  1.0   eigenvalue: -0.105624
  Transforming atomic orbitals to a uniform radial grid of dG=0.02 with 432 points.
  WARNING: large normalization error in atomic orbital 1s (integral: 0.000000).
  Core radius for overlap checks: 1.63 bohrs.
  Reading pulay file /home/gridsan/aligho/DFT/build-Nov24/pseudopotentials/SG15/Li_ONCV_PBE.pulay ... using dE_dnG = -1.230239e-02 computed for Ecut = 20.

Initialized 1 species with 1 total atoms.

Folded 1 k-points by 12x12x1 to 144 k-points.

---------- Setting up k-points, bands, fillings ----------
Reduced to 19 k-points under symmetry. 
Computing the number of bands and number of electrons
Calculating initial fillings.
nElectrons:   3.000000   nBands: 3   nStates: 38

----- Setting up reduced wavefunction bases (one per k-point) -----
average nbasis = 52924.021 , ideal nbasis = 52918.836

---------- Setting up coulomb interaction ----------
Initialized slab truncation along lattice direction 001

---------- Setting up 2D ewald sum ----------
Optimum gaussian width for ewald sums = 10.498040 bohr.
Real space sums over 289 unit cells with max indices [  8  8  0  ]
Reciprocal space sums over 81 terms with max indices [  4  4  0  ]

---------- Allocating electronic variables ----------
Initializing wave functions:  linear combination of atomic orbitals
Note: number of bands (3) exceeds available atomic orbitals (2)
Li pseudo-atom occupations:   s ( 2 1 )
[d-6-2-2:32614] 18 more processes have sent help message help-mpi-common-cuda.txt / dlopen failed
[d-6-2-2:32614] Set MCA parameter "orte_base_help_aggregate" to 0 to see all help / error messages
[d-6-2-2:32614] 18 more processes have sent help message help-mpi-btl-openib-cpc-base.txt / no cpcs for port
	FillingsUpdate:  mu: +0.362165533  nElectrons: 3.000000  magneticMoment: [ Abs: 0.30000  Tot: +0.30000 ]
LCAOMinimize: Iter:   0  F: -1.3107490263023207  |grad|_K:  4.122e-05  alpha:  1.000e+00
	FillingsUpdate:  mu: +0.362165146  nElectrons: 3.000000  magneticMoment: [ Abs: 0.30000  Tot: +0.30000 ]
LCAOMinimize: Iter:   1  F: -1.3107493338765410  |grad|_K:  8.524e-08  alpha:  1.059e+00  linmin: -1.123e-02  cgtest:  3.324e-02  t[s]:     12.79
LCAOMinimize: Encountered beta<0, resetting CG.
LCAOMinimize: 	Wrong curvature in test step, increasing alphaT to 3.175709e+00.
	FillingsUpdate:  mu: +0.362165146  nElectrons: 3.000000  magneticMoment: [ Abs: 0.30000  Tot: +0.30000 ]
LCAOMinimize: Iter:   2  F: -1.3107493338801646  |grad|_K:  4.269e-09  alpha: -1.401e+00  linmin:  5.405e-03  cgtest: -3.804e-01  t[s]:     16.05
LCAOMinimize: Converged (|Delta F|<1.000000e-06 for 2 iters).


---- Citations for features of the code used in this run ----

   Software package:
      R. Sundararaman, K. Letchworth-Weaver, K.A. Schwarz, D. Gunceler, Y. Ozhabes and T.A. Arias, 'JDFTx: software for joint density-functional theory', SoftwareX 6, 278 (2017)

   gga-PBE exchange-correlation functional:
      J.P. Perdew, K. Burke and M. Ernzerhof, Phys. Rev. Lett. 77, 3865 (1996)

   Pseudopotentials:
      M Schlipf and F Gygi, Comput. Phys. Commun. 196, 36 (2015)

   Truncated Coulomb potentials:
      R. Sundararaman and T.A. Arias, Phys. Rev. B 87, 165122 (2013)

This list may not be complete. Please suggest additional citations or
report any other bugs at https://github.com/shankar1729/jdftx/issues

Initialization completed successfully at t[s]:     16.19


-------- Electronic minimization -----------
Will mix electronic density at each iteration.
	FillingsUpdate:  mu: +0.362165146  nElectrons: 3.000000  magneticMoment: [ Abs: 0.30000  Tot: +0.30000 ]
	FillingsUpdate:  mu: -0.612321091  nElectrons: 3.000000  magneticMoment: [ Abs: 0.30000  Tot: +0.30000 ]
SCF: Cycle:  0   F: -6.870072938420151   dF: -5.559e+00   |Residual|: 1.230e+00   |deigs|: 4.155e+00  t[s]:     21.84
	FillingsUpdate:  mu: -0.491341048  nElectrons: 3.000000  magneticMoment: [ Abs: 0.51585  Tot: +0.30000 ]
SCF: Cycle:  1   F: -6.915519023555301   dF: -4.545e-02   |Residual|: 7.606e-01   |deigs|: 2.765e-01  t[s]:     26.32
	FillingsUpdate:  mu: -0.251769649  nElectrons: 3.000000  magneticMoment: [ Abs: 0.66498  Tot: +0.30000 ]
SCF: Cycle:  2   F: -7.036820424749852   dF: -1.213e-01   |Residual|: 3.184e-01   |deigs|: 7.075e-01  t[s]:     30.95
	FillingsUpdate:  mu: -0.265879448  nElectrons: 3.000000  magneticMoment: [ Abs: 0.62969  Tot: +0.30000 ]
SCF: Cycle:  3   F: -7.037407340601818   dF: -5.869e-04   |Residual|: 1.879e-01   |deigs|: 7.128e-02  t[s]:     35.74
	FillingsUpdate:  mu: -0.234257105  nElectrons: 3.000000  magneticMoment: [ Abs: 0.62116  Tot: +0.30000 ]
SCF: Cycle:  4   F: -7.035838209891343   dF: +1.569e-03   |Residual|: 6.297e-02   |deigs|: 2.779e-02  t[s]:     40.67
	FillingsUpdate:  mu: -0.223565245  nElectrons: 3.000000  magneticMoment: [ Abs: 0.60474  Tot: +0.30000 ]
SCF: Cycle:  5   F: -7.037127780674627   dF: -1.290e-03   |Residual|: 1.202e-01   |deigs|: 9.917e-03  t[s]:     45.69
	FillingsUpdate:  mu: -0.200891541  nElectrons: 3.000000  magneticMoment: [ Abs: 0.52874  Tot: +0.30000 ]
SCF: Cycle:  6   F: -7.041004271504513   dF: -3.876e-03   |Residual|: 3.538e-02   |deigs|: 6.038e-02  t[s]:     50.72
	FillingsUpdate:  mu: -0.177950884  nElectrons: 3.000000  magneticMoment: [ Abs: 0.41874  Tot: +0.30000 ]
SCF: Cycle:  7   F: -7.043134448816742   dF: -2.130e-03   |Residual|: 1.074e-01   |deigs|: 6.970e-02  t[s]:     55.94
	FillingsUpdate:  mu: -0.183880826  nElectrons: 3.000000  magneticMoment: [ Abs: 0.34677  Tot: +0.30000 ]
SCF: Cycle:  8   F: -7.043310625077082   dF: -1.762e-04   |Residual|: 6.419e-02   |deigs|: 2.093e-02  t[s]:     61.27
	FillingsUpdate:  mu: -0.188728969  nElectrons: 3.000000  magneticMoment: [ Abs: 0.42456  Tot: +0.30000 ]
SCF: Cycle:  9   F: -7.043718929454150   dF: -4.083e-04   |Residual|: 9.615e-02   |deigs|: 6.398e-02  t[s]:     66.66
	FillingsUpdate:  mu: -0.169121843  nElectrons: 3.000000  magneticMoment: [ Abs: 0.40402  Tot: +0.30000 ]
SCF: Cycle: 10   F: -7.044464896721979   dF: -7.460e-04   |Residual|: 8.271e-02   |deigs|: 2.117e-02  t[s]:     72.18
	FillingsUpdate:  mu: -0.155020304  nElectrons: 3.000000  magneticMoment: [ Abs: 0.41881  Tot: +0.30000 ]
SCF: Cycle: 11   F: -7.044921229912573   dF: -4.563e-04   |Residual|: 3.161e-02   |deigs|: 4.953e-02  t[s]:     77.76
	FillingsUpdate:  mu: -0.149605286  nElectrons: 3.000000  magneticMoment: [ Abs: 0.36132  Tot: +0.30000 ]
SCF: Cycle: 12   F: -7.045058614190856   dF: -1.374e-04   |Residual|: 1.190e-02   |deigs|: 1.267e-02  t[s]:     83.23
	FillingsUpdate:  mu: -0.130718937  nElectrons: 3.000000  magneticMoment: [ Abs: 0.40676  Tot: +0.30000 ]
SCF: Cycle: 13   F: -7.045233861316233   dF: -1.752e-04   |Residual|: 6.954e-03   |deigs|: 2.065e-02  t[s]:     88.81
	FillingsUpdate:  mu: -0.121741417  nElectrons: 3.000000  magneticMoment: [ Abs: 0.39745  Tot: +0.30000 ]
SCF: Cycle: 14   F: -7.045260011073409   dF: -2.615e-05   |Residual|: 5.803e-03   |deigs|: 1.092e-02  t[s]:     94.26
	FillingsUpdate:  mu: -0.114163083  nElectrons: 3.000000  magneticMoment: [ Abs: 0.37936  Tot: +0.30000 ]
SCF: Cycle: 15   F: -7.045243997620235   dF: +1.601e-05   |Residual|: 4.112e-03   |deigs|: 6.979e-03  t[s]:     99.77
	FillingsUpdate:  mu: -0.111060194  nElectrons: 3.000000  magneticMoment: [ Abs: 0.37519  Tot: +0.30000 ]
SCF: Cycle: 16   F: -7.045293604873776   dF: -4.961e-05   |Residual|: 3.160e-03   |deigs|: 3.064e-03  t[s]:    105.33
	FillingsUpdate:  mu: -0.109018451  nElectrons: 3.000000  magneticMoment: [ Abs: 0.35268  Tot: +0.30000 ]
SCF: Cycle: 17   F: -7.045268352566997   dF: +2.525e-05   |Residual|: 2.173e-03   |deigs|: 1.789e-03  t[s]:    110.86
	FillingsUpdate:  mu: -0.107433608  nElectrons: 3.000000  magneticMoment: [ Abs: 0.34510  Tot: +0.30000 ]
SCF: Cycle: 18   F: -7.045293334243624   dF: -2.498e-05   |Residual|: 1.697e-03   |deigs|: 1.542e-03  t[s]:    116.36
	FillingsUpdate:  mu: -0.106663238  nElectrons: 3.000000  magneticMoment: [ Abs: 0.33204  Tot: +0.30000 ]
SCF: Cycle: 19   F: -7.045310594293485   dF: -1.726e-05   |Residual|: 1.356e-03   |deigs|: 1.052e-03  t[s]:    121.88
	FillingsUpdate:  mu: -0.105723991  nElectrons: 3.000000  magneticMoment: [ Abs: 0.32126  Tot: +0.30000 ]
SCF: Cycle: 20   F: -7.045349791113710   dF: -3.920e-05   |Residual|: 8.736e-04   |deigs|: 1.167e-03  t[s]:    127.38
	FillingsUpdate:  mu: -0.104829351  nElectrons: 3.000000  magneticMoment: [ Abs: 0.31720  Tot: +0.30000 ]
SCF: Cycle: 21   F: -7.045361857957497   dF: -1.207e-05   |Residual|: 6.384e-04   |deigs|: 1.105e-03  t[s]:    132.89
	FillingsUpdate:  mu: -0.104463876  nElectrons: 3.000000  magneticMoment: [ Abs: 0.31224  Tot: +0.30000 ]
SCF: Cycle: 22   F: -7.045368434143380   dF: -6.576e-06   |Residual|: 4.692e-04   |deigs|: 5.058e-04  t[s]:    138.37
	FillingsUpdate:  mu: -0.104408080  nElectrons: 3.000000  magneticMoment: [ Abs: 0.30791  Tot: +0.30000 ]
SCF: Cycle: 23   F: -7.045373865201048   dF: -5.431e-06   |Residual|: 3.477e-04   |deigs|: 1.878e-04  t[s]:    143.86
	FillingsUpdate:  mu: -0.104539219  nElectrons: 3.000000  magneticMoment: [ Abs: 0.30565  Tot: +0.30000 ]
SCF: Cycle: 24   F: -7.045375928148017   dF: -2.063e-06   |Residual|: 2.378e-04   |deigs|: 2.401e-04  t[s]:    149.36
	FillingsUpdate:  mu: -0.104906071  nElectrons: 3.000000  magneticMoment: [ Abs: 0.30300  Tot: +0.30000 ]
SCF: Cycle: 25   F: -7.045377091366819   dF: -1.163e-06   |Residual|: 1.331e-04   |deigs|: 5.132e-04  t[s]:    154.93
	FillingsUpdate:  mu: -0.104949522  nElectrons: 3.000000  magneticMoment: [ Abs: 0.30219  Tot: +0.30000 ]
SCF: Cycle: 26   F: -7.045377444796192   dF: -3.534e-07   |Residual|: 9.322e-05   |deigs|: 9.581e-05  t[s]:    160.40
	FillingsUpdate:  mu: -0.104984931  nElectrons: 3.000000  magneticMoment: [ Abs: 0.30133  Tot: +0.30000 ]
SCF: Cycle: 27   F: -7.045377547576506   dF: -1.028e-07   |Residual|: 5.405e-05   |deigs|: 8.485e-05  t[s]:    165.92
	FillingsUpdate:  mu: -0.105020105  nElectrons: 3.000000  magneticMoment: [ Abs: 0.30095  Tot: +0.30000 ]
SCF: Cycle: 28   F: -7.045377606561779   dF: -5.899e-08   |Residual|: 3.891e-05   |deigs|: 7.885e-05  t[s]:    171.45
	FillingsUpdate:  mu: -0.105023768  nElectrons: 3.000000  magneticMoment: [ Abs: 0.30068  Tot: +0.30000 ]
SCF: Cycle: 29   F: -7.045377599565002   dF: +6.997e-09   |Residual|: 2.796e-05   |deigs|: 5.466e-05  t[s]:    176.96
	FillingsUpdate:  mu: -0.105012824  nElectrons: 3.000000  magneticMoment: [ Abs: 0.30052  Tot: +0.30000 ]
SCF: Cycle: 30   F: -7.045377600149231   dF: -5.842e-10   |Residual|: 2.056e-05   |deigs|: 4.428e-05  t[s]:    182.48
	FillingsUpdate:  mu: -0.105007838  nElectrons: 3.000000  magneticMoment: [ Abs: 0.30031  Tot: +0.30000 ]
SCF: Cycle: 31   F: -7.045377612426574   dF: -1.228e-08   |Residual|: 1.470e-05   |deigs|: 3.495e-05  t[s]:    188.01
	FillingsUpdate:  mu: -0.105005030  nElectrons: 3.000000  magneticMoment: [ Abs: 0.30021  Tot: +0.30000 ]
SCF: Cycle: 32   F: -7.045377613427466   dF: -1.001e-09   |Residual|: 1.069e-05   |deigs|: 2.942e-05  t[s]:    193.54
	FillingsUpdate:  mu: -0.105004456  nElectrons: 3.000000  magneticMoment: [ Abs: 0.30018  Tot: +0.30000 ]
SCF: Cycle: 33   F: -7.045377634503622   dF: -2.108e-08   |Residual|: 7.060e-06   |deigs|: 2.394e-05  t[s]:    199.09
	FillingsUpdate:  mu: -0.105003181  nElectrons: 3.000000  magneticMoment: [ Abs: 0.30016  Tot: +0.30000 ]
SCF: Cycle: 34   F: -7.045377637186156   dF: -2.683e-09   |Residual|: 5.912e-06   |deigs|: 2.055e-05  t[s]:    204.60
	FillingsUpdate:  mu: -0.104999121  nElectrons: 3.000000  magneticMoment: [ Abs: 0.30012  Tot: +0.30000 ]
SCF: Cycle: 35   F: -7.045377624325040   dF: +1.286e-08   |Residual|: 4.775e-06   |deigs|: 1.813e-05  t[s]:    210.12
	FillingsUpdate:  mu: -0.104998593  nElectrons: 3.000000  magneticMoment: [ Abs: 0.30008  Tot: +0.30000 ]
SCF: Cycle: 36   F: -7.045377639822928   dF: -1.550e-08   |Residual|: 3.188e-06   |deigs|: 1.680e-05  t[s]:    215.68
	FillingsUpdate:  mu: -0.104999261  nElectrons: 3.000000  magneticMoment: [ Abs: 0.30004  Tot: +0.30000 ]
SCF: Cycle: 37   F: -7.045377642932974   dF: -3.110e-09   |Residual|: 2.493e-06   |deigs|: 1.619e-05  t[s]:    221.19
	FillingsUpdate:  mu: -0.105000666  nElectrons: 3.000000  magneticMoment: [ Abs: 0.30003  Tot: +0.30000 ]
SCF: Cycle: 38   F: -7.045377644179665   dF: -1.247e-09   |Residual|: 1.989e-06   |deigs|: 1.548e-05  t[s]:    226.70
SCF: Converged (|Delta E|<1.000000e-08 for 2 iters).


# Ionic positions in lattice coordinates:
ion Li   0.000000000000000   0.000000000000000   0.000000000000000 0

# Forces in Lattice coordinates:
force Li  -0.000000000000000   0.000000000000000   0.000000000000000 0

# Energy components:
   Eewald =       -1.0026681166851483
       EH =        2.5475035136353110
     Eloc =       -8.2255551733873133
      Enl =       -3.6035043657678076
   Epulay =        0.0000051497655618
      Exc =       -1.5353584133567586
       KE =        4.7742009676608212
-------------------------------------
     Etot =       -7.0453764381353352
       TS =        0.0000012060443302
-------------------------------------
        F =       -7.0453776441796654

IonicMinimize: Iter:   0  F: -7.045377644179665  |grad|_K:  0.000e+00  t[s]:    226.94
IonicMinimize: Converged (|grad|_K<1.000000e-04).

#--- Lowdin population analysis ---
# oxidation-state Li +2.080
# magnetic-moments Li +0.278

End date and time: Sat Feb  5 23:07:23 2022  (Duration: 0-0:03:46.97)
Done!
